PEG-PVA Film  in water:acetone
65769
    1PEG1   HO1    1   6.729   8.952   4.751 -2.0552  0.0635 -3.3138
    1PEG1   O92    2   6.800   8.979   4.695  0.4867  0.1834 -0.2088
    1PEG1   C13    3   6.788   9.114   4.649 -0.3523 -0.4544 -0.8958
    1PEG1   C14    4   6.895   9.137   4.546  0.9371  0.8536  0.3342
    1PEG1    O8    5   6.863   9.261   4.482 -0.1582  0.2721  0.0422
    1PEG1   C15    6   6.961   9.285   4.379  0.4002  0.4754 -0.9108
    1PEG1   C16    7   6.952   9.438   4.358 -0.2210 -0.5657  0.3986
    1PEG1   C17    8   6.938   9.445   4.206 -0.9253 -0.2994  0.4639
    1PEG1    O9    9   6.980   9.560   4.158  0.0666 -0.3068  0.3423
    1PEG1   C18   10   7.054   9.560   4.032  0.1481  0.3371  0.2051
    1PEG1   C19   11   6.990   9.657   3.927  0.0556 -0.9253 -1.0847
    1PEG1   O10   12   7.067   9.643   3.808  0.0667  0.4482  0.3684
    1PEG1   C20   13   6.997   9.712   3.710 -0.2309 -0.3129  0.2463
    1PEG1   C21   14   7.080   9.700   3.584  0.3838 -0.3209 -0.6175
    1PEG1   O11   15   7.043   9.777   3.500 -0.5239  0.1289 -0.3472
    1PEG1   C22   16   7.160   9.852   3.452  1.0127 -0.6184  1.1267
    1PEG1   C23   17   7.114   9.935   3.326 -0.5723 -0.0784 -0.5136
    1PEG1   O12   18   7.056   9.851   3.224 -0.3679 -0.9756  0.5621
    1PEG1   C24   19   7.131   9.884   3.101  0.6797  0.5157 -0.5579
    1PEG1   C25   20   7.222   9.772   3.051  0.5606 -0.2104  0.9376
    1PEG1   O13   21   7.174   9.736   2.937 -0.0931  0.0006 -0.9020
    1PEG1   C26   22   7.202   9.593   2.932  0.2061 -0.2933  0.0859
    1PEG1   C27   23   7.102   9.536   2.836 -0.2677  0.1057  0.2046
    1PEG1   O14   24   7.151   9.545   2.701 -0.7161 -0.3201 -0.3901
    1PEG1   C28   25   7.073   9.628   2.621 -1.0690  0.1039  0.3030
    1PEG1   C29   26   7.143   9.768   2.588 -0.1783  0.3642  0.3896
    1PEG1   O15   27   7.148   9.860   2.697 -0.3365 -0.3321  0.6679
    1PEG1   C30   28   7.020   9.959   2.680  0.3161 -0.0545 -0.2103
    1PEG1   C31   29   7.047  10.097   2.755 -0.1546 -0.3790  0.4619
    1PEG1   O16   30   6.989  10.101   2.884  0.0862 -0.1337 -0.3340
    1PEG1   C32   31   7.066  10.189   2.959 -0.3993 -0.2903  0.3270
    1PEG1   C33   32   6.981  10.284   3.042 -0.2678 -0.0806 -0.5364
    1PEG1   O17   33   7.059  10.287   3.165  0.6155  0.6323  0.4697
    1PEG1   C34   34   7.059  10.425   3.209 -0.9669  0.3415  0.1538
    1PEG1   C35   35   7.183  10.452   3.300  0.2468 -0.5403 -0.3357
    1PEG1   O18   36   7.192  10.376   3.420 -0.8453  0.4749  0.6911
    1PEG1   C36   37   7.284  10.269   3.407  0.7088  0.0161  0.9430
    1PEG1   C37   38   7.365  10.250   3.540  0.5199  0.6131  0.2588
    1PEG1   O19   39   7.315  10.129   3.599  0.0423 -0.1229  0.4619
    1PEG1   C38   40   7.348  10.134   3.734 -0.4149 -0.3556 -0.8557
    1PEG1   C39   41   7.236  10.149   3.844 -0.7086 -0.1010  0.1836
    1PEG1   O20   42   7.150  10.252   3.797 -0.0588 -0.0082 -0.2914
    1PEG1   C40   43   7.014  10.211   3.827 -0.7328 -0.0705 -0.2683
    1PEG1   C41   44   6.972  10.284   3.955  1.0710  0.1223  0.2035
    1PEG1   O21   45   6.840  10.243   3.987  0.1852  0.3452 -0.2044
    1PEG1   C42   46   6.831  10.214   4.133 -0.1138  0.2406  0.2293
    1PEG1   C43   47   6.827  10.061   4.148  0.6697 -0.3937  0.1517
    1PEG1   O22   48   6.957  10.014   4.192 -0.1655  0.4172 -0.3116
    1PEG1   C44   49   6.972   9.981   4.332 -0.2581 -0.4452  1.2676
    1PEG1   C45   50   6.946   9.833   4.366 -0.2811 -0.7263  0.7536
    1PEG1   O23   51   6.851   9.803   4.460  0.0436 -0.1851 -0.3881
    1PEG1   C46   52   6.766   9.690   4.439 -0.2249  0.5348 -0.0718
    1PEG1   C47   53   6.659   9.681   4.545  0.3584  0.4922  0.3328
    1PEG1   O24   54   6.704   9.611   4.627 -0.4506  0.3340  0.4239
    1PEG1   C48   55   6.600   9.614   4.724  0.0259 -0.3857  0.3857
    1PEG1   C49   56   6.578   9.461   4.768 -0.8140  0.0443  0.0167
    1PEG1   O25   57   6.689   9.378   4.788  1.2072 -0.2976 -0.6262
    1PEG1   C50   58   6.768   9.419   4.900 -0.7551 -0.3324 -0.1146
    1PEG1   C51   59   6.878   9.309   4.932 -0.6862 -0.2147 -0.1237
    1PEG1   O26   60   6.977   9.356   5.023 -0.3781  0.0598 -0.0649
    1PEG1   C52   61   7.091   9.263   5.013  0.1902 -0.5798 -0.0144
    1PEG1   C53   62   7.146   9.237   5.156  0.1446  0.0928  0.1495
    1PEG1   O27   63   7.285   9.260   5.159  0.4846 -0.2493  0.7981
    1PEG1   C54   64   7.337   9.345   5.263 -0.5136  0.2046 -0.5391
    1PEG1   C55   65   7.412   9.462   5.205  1.1833 -0.4211  0.3576
    1PEG1   O28   66   7.387   9.578   5.274 -0.1234  0.1267  0.5476
    1PEG1   C56   67   7.423   9.677   5.196  0.1981 -0.0822  0.8952
    1PEG1   C57   68   7.334   9.794   5.228 -0.6550 -0.3220  0.1881
    1PEG1   O29   69   7.292   9.863   5.114  0.5233 -0.5111 -0.4566
    1PEG1   C58   70   7.223  10.003   5.139 -1.1383 -0.4746  0.7574
    1PEG1   C59   71   7.299  10.122   5.106  0.1566 -0.3603 -1.0729
    1PEG1   O30   72   7.433  10.094   5.067 -0.0217 -0.1618  0.3711
    1PEG1   C60   73   7.465  10.182   4.961 -0.2621  0.7255 -0.3229
    1PEG1   C61   74   7.505  10.087   4.849 -0.3572 -0.8391  0.1766
    1PEG1   O31   75   7.482  10.164   4.728 -0.3576 -0.1911 -0.9126
    1PEG1   C62   76   7.503  10.083   4.617 -0.5975 -0.1491  0.6135
    1PEG1   C63   77   7.371  10.008   4.575 -0.5916  0.0318 -0.2723
    1PEG1   O32   78   7.252  10.088   4.599  0.0834  0.5860  0.1186
    1PEG1   C64   79   7.150  10.007   4.647  0.0680 -0.3509  0.1485
    1PEG1   C65   80   7.097  10.053   4.787 -0.5455 -0.3180 -0.3815
    1PEG1   O33   81   7.148  10.198   4.835 -0.2070 -0.1610 -0.4722
    1PEG1   C66   82   7.031  10.285   4.905 -0.4849  0.1469  0.3625
    1PEG1   C67   83   7.026  10.435   4.864  0.3932  0.6064 -0.4664
    1PEG1   O34   84   7.102  10.458   4.749  0.2183  0.8624  0.9131
    1PEG1   C68   85   7.192  10.569   4.773 -0.2403 -0.1002  1.1703
    1PEG1   C69   86   7.287  10.602   4.659  0.7775  0.4696 -0.2456
    1PEG1   O35   87   7.222  10.698   4.572 -0.8949  0.4916 -0.4659
    1PEG1   C70   88   7.308  10.719   4.453  0.1924  0.0159 -0.0827
    1PEG1   C71   89   7.259  10.829   4.352 -0.5361 -0.0730 -0.3357
    1PEG1   O36   90   7.150  10.791   4.269 -1.0121  0.5852 -0.2044
    1PEG1   C72   91   7.101  10.895   4.210 -0.2764  0.4766 -0.0482
    1PEG1   C73   92   6.964  10.872   4.160  1.4898 -0.0202 -0.0877
    1PEG1   O37   93   6.973  10.887   4.017  0.2418  0.1558  0.4089
    1PEG1   C74   94   6.892  10.796   3.944  0.9469  0.0240  0.6036
    1PEG1   C75   95   6.931  10.645   3.942  0.5710  0.4645  0.1861
    1PEG1   O38   96   6.818  10.573   3.905 -0.2979  0.1609  0.1340
    1PEG1   C76   97   6.756  10.540   4.036  0.4827  0.6505 -0.4482
    1PEG1   C77   98   6.610  10.502   4.013 -0.2758  0.1029 -0.1612
    1PEG1   O39   99   6.565  10.411   4.107 -0.6573 -0.5504 -0.2085
    1PEG1   C78  100   6.425  10.410   4.083  0.7926 -0.1935 -0.4397
    1PEG1   C79  101   6.378  10.262   4.099 -0.3741  0.2340 -0.0538
    1PEG1   O40  102   6.242  10.253   4.085  0.5377 -0.0477  0.1749
    1PEG1   C80  103   6.206  10.151   3.989  0.2431  0.1125 -0.4461
    1PEG1   C81  104   6.046  10.164   3.986 -0.0709  0.6710 -0.5526
    1PEG1   O41  105   6.002  10.297   3.958  0.5387 -0.2050 -0.8027
    1PEG1   C82  106   5.962  10.347   4.090  0.0893  0.5209  0.4561
    1PEG1   C83  107   5.822  10.297   4.138 -0.6194  0.4355  0.1133
    1PEG1   O42  108   5.815  10.242   4.271 -0.8238 -0.2667  0.2586
    1PEG1   C84  109   5.703  10.286   4.342  0.6936 -0.0677  0.1409
    1PEG1   C85  110   5.563  10.242   4.290 -0.1874  0.2996  0.6793
    1PEG1   O43  111   5.550  10.100   4.275  0.2054  0.4153  0.6798
    1PEG1   C86  112   5.505  10.044   4.404 -0.1067  0.0417  0.1006
    1PEG1   C87  113   5.541   9.898   4.418 -0.2326 -0.0775  0.5122
    1PEG1   O44  114   5.443   9.823   4.488 -0.3095 -0.1832 -0.0748
    1PEG1   C88  115   5.358   9.726   4.427 -0.0720  0.1350  0.1626
    1PEG1   C89  116   5.209   9.732   4.463 -0.1186  0.7483  0.0759
    1PEG1   O45  117   5.177   9.847   4.539 -0.2638 -1.2433 -0.5328
    1PEG1   C90  118   5.146   9.791   4.670  0.1461  0.5897  0.3360
    1PEG1   C91  119   5.260   9.813   4.775  0.2665 -0.5994 -0.5569
    1PEG1   O46  120   5.316   9.945   4.757 -0.4047 -0.0434 -0.1947
    1PEG1   C92  121   5.390   9.971   4.874 -0.0709 -0.0548 -0.4340
    1PEG1   C93  122   5.435  10.123   4.872 -0.3614  0.4714 -0.5961
    1PEG1   O47  123   5.490  10.177   4.758  0.0394  0.0825  0.6806
    1PEG1   C94  124   5.637  10.221   4.773 -0.8351  0.1981  0.3135
    1PEG1   C95  125   5.743  10.109   4.728 -0.1418 -0.0389  0.4208
    1PEG1   O48  126   5.760  10.113   4.585 -0.8888  0.2026  0.0194
    1PEG1   C96  127   5.877  10.036   4.550 -0.3480 -0.7778 -0.2662
    1PEG1   C97  128   5.859   9.960   4.422  0.0313  0.5887  0.0701
    1PEG1   O49  129   5.946   9.844   4.430  0.1642 -0.2151 -0.0454
    1PEG1   C98  130   5.943   9.775   4.304 -0.0994  0.6258 -0.0350
    1PEG1   C99  131   6.006   9.634   4.316  0.0398 -0.0342  0.2990
    1PEG1   O50  132   5.951   9.563   4.428  0.2728  0.0442 -0.2768
    1PEG1  C100  133   6.054   9.506   4.515  0.4810  0.8100  0.3498
    1PEG1  C101  134   6.005   9.542   4.655 -0.2406 -0.0550 -0.0245
    1PEG1   O51  135   6.101   9.616   4.731  0.1478  0.0650 -0.1945
    1PEG1  C102  136   6.070   9.600   4.872  0.0870  0.9049 -0.7835
    1PEG1  C103  137   6.154   9.687   4.967  0.4379 -0.6017  0.3203
    1PEG1    O2  138   6.285   9.640   5.001  0.1820 -0.0014  0.0833
    1PEG1    C1  139   6.335   9.689   5.124  0.3366 -0.7772 -0.0746
    1PEG1    C2  140   6.434   9.584   5.177  0.0082 -0.1519  0.4725
    1PEG1    O3  141   6.450   9.629   5.325 -0.1042  0.3676 -0.0283
    1PEG1    C3  142   6.573   9.702   5.343  0.8678 -0.4985 -0.0187
    1PEG1    C4  143   6.692   9.606   5.369  1.0301  0.2116 -0.1810
    1PEG1    O4  144   6.727   9.540   5.250 -0.2169 -0.3587  0.3567
    1PEG1    C5  145   6.874   9.541   5.242  0.4134 -0.9825 -0.5105
    1PEG1    C6  146   6.934   9.665   5.187 -0.5086  0.2551 -0.4785
    1PEG1    O5  147   6.888   9.710   5.058  0.1126  0.5104 -0.1832
    1PEG1    C7  148   6.975   9.767   4.964  0.7367 -0.5695 -0.0761
    1PEG1    C8  149   7.059   9.657   4.904 -0.4727 -0.3219  0.4909
    1PEG1    O6  150   7.045   9.643   4.763  0.1012  0.5343  0.0040
    1PEG1    C9  151   7.159   9.569   4.716 -1.2905 -0.5529  0.0031
    1PEG1   C10  152   7.163   9.560   4.565 -0.1348  0.3866 -0.0901
    1PEG1   C11  153   7.250   9.663   4.499 -0.4420 -0.1370 -0.3895
    1PEG1    O7  154   7.240   9.680   4.346  0.2907  0.3013 -0.1818
    1PEG1   C12  155   7.272   9.812   4.300 -0.3539  0.1558 -0.1903
    1PEG1    O1  156   7.259   9.805   4.155 -0.0144 -0.2473  0.1620
    1PEG1  C104  157   7.372   9.739   4.080 -0.7286 -0.1290  0.5678
    1PEG1   O52  158   7.323   9.662   3.969 -0.3191 -0.3815  0.2507
    1PEG1  C105  159   7.430   9.640   3.861  0.4132 -1.1091 -0.3229
    1PEG1  C106  160   7.442   9.498   3.803  0.8689 -0.2728  0.1970
    1PEG1   O53  161   7.354   9.393   3.868  0.5274 -0.0368 -0.2095
    1PEG1  C107  162   7.238   9.366   3.783 -0.2208 -0.4560  0.3305
    1PEG1  C108  163   7.121   9.288   3.850  0.0203  0.6632  0.1545
    1PEG1   O54  164   7.002   9.338   3.793  0.5523 -0.5110  0.1672
    1PEG1  C109  165   6.894   9.253   3.799  0.5306 -0.1943  0.6436
    1PEG1  C110  166   6.769   9.332   3.756 -0.2483 -0.2885 -0.3702
    1PEG1   O55  167   6.713   9.407   3.865 -0.4600  0.2379  0.1977
    1PEG1  C111  168   6.579   9.447   3.832  0.1607 -0.5742 -0.3694
    1PEG1  C112  169   6.545   9.592   3.782 -0.6580 -0.0578  0.3792
    1PEG1   O56  170   6.655   9.693   3.803  0.3608 -0.6753  0.9097
    1PEG1  C113  171   6.599   9.818   3.866  0.0673  0.4736  0.6569
    1PEG1  C114  172   6.602   9.932   3.770  0.2923  1.1869 -0.0255
    1PEG1   O57  173   6.659  10.043   3.843 -0.4332  0.1952  0.0151
    1PEG1  C115  174   6.568  10.153   3.837  0.1288 -0.1091  0.8006
    1PEG1  C116  175   6.639  10.244   3.732  0.2842 -0.5255  0.0799
    1PEG1   O58  176   6.579  10.364   3.720  0.2514  0.2075  0.3754
    1PEG1  C117  177   6.430  10.364   3.698 -0.3152  0.5348  0.1530
    1PEG1  C118  178   6.365  10.485   3.768  0.5851  0.1883  0.3207
    1PEG1   O59  179   6.222  10.471   3.793 -0.3095 -0.5258 -0.0833
    1PEG1  C119  180   6.147  10.514   3.677 -0.3980  0.4969  0.4214
    1PEG1  C120  181   5.999  10.517   3.726 -0.4272  0.4497  0.4888
    1PEG1   O60  182   5.908  10.573   3.633  0.5320  0.2636  0.4467
    1PEG1  C121  183   5.831  10.676   3.697 -0.6451  0.3815  0.6193
    1PEG1  C122  184   5.694  10.677   3.625  0.2935 -0.1895  0.4144
    1PEG1   O61  185   5.628  10.793   3.677  0.6133  0.0697 -0.2324
    1PEG1  C123  186   5.568  10.850   3.563  1.0598  0.8681 -0.3096
    1PEG1  C124  187   5.506  10.986   3.587 -0.1654 -0.7262  0.1289
    1PEG1   O62  188   5.476  11.012   3.730 -0.2582  0.4227  0.1313
    1PEG1  C125  189   5.553  11.111   3.766  0.3897  0.1594  0.2320
    1PEG1  C126  190   5.511  11.153   3.910  0.2533 -0.3096  0.4676
    1PEG1   O63  191   5.613  11.198   3.990  0.2131 -0.2836  0.6848
    1PEG1  C127  192   5.579  11.220   4.131 -0.4629 -0.2874 -0.1796
    1PEG1  C128  193   5.707  11.232   4.227  0.6669 -0.0823  0.1442
    1PEG1   O64  194   5.799  11.122   4.206  0.5305  0.3109  0.0328
    1PEG1  C129  195   5.906  11.159   4.297 -0.3856  0.3822 -0.1551
    1PEG1  C130  196   5.948  11.032   4.359 -0.0469 -0.4575 -0.2179
    1PEG1   O65  197   5.986  11.068   4.490 -0.2438  0.2700 -0.0403
    1PEG1  C131  198   6.065  10.965   4.548  0.0206 -0.3703 -0.5254
    1PEG1  C132  199   6.201  11.023   4.591  0.0125  0.9024 -0.7233
    1PEG1   O66  200   6.196  11.152   4.660 -0.1005 -0.2258  0.2910
    1PEG1  C133  201   6.212  11.262   4.566  0.3278 -0.1848 -0.5063
    1PEG1  C134  202   6.357  11.311   4.592  0.2844  0.1070  0.0026
    1PEG1   O67  203   6.374  11.447   4.630  0.4346 -0.5835 -0.2244
    1PEG1  C135  204   6.361  11.453   4.773  0.0323 -0.4971  0.1141
    1PEG1  C136  205   6.247  11.541   4.813 -0.6246 -0.5052 -0.1929
    1PEG1   O68  206   6.146  11.461   4.850 -0.5984 -0.3130  0.4744
    1PEG1  C137  207   6.014  11.509   4.812 -0.8157  0.5236 -0.1316
    1PEG1  C138  208   5.904  11.408   4.850  0.4050 -0.5895  0.2046
    1PEG1   O69  209   5.900  11.281   4.766  0.1782  0.2899  0.0421
    1PEG1  C139  210   5.828  11.295   4.641  0.4897  0.1268  0.1381
    1PEG1  C140  211   5.703  11.211   4.646 -0.1537 -0.0248 -0.4813
    1PEG1   O70  212   5.578  11.301   4.671 -0.0165 -0.3198 -0.1853
    1PEG1  C141  213   5.538  11.266   4.799  0.2876 -0.6802 -0.1602
    1PEG1  C142  214   5.407  11.178   4.800 -0.3402 -0.8201  0.1925
    1PEG1   O71  215   5.446  11.037   4.783 -0.1625 -0.3078  0.2494
    1PEG1  C143  216   5.345  10.958   4.723  0.9474  0.1536 -0.1178
    1PEG1  C144  217   5.395  10.812   4.701 -0.1466  0.2945 -0.8264
    1PEG1   O72  218   5.490  10.767   4.800  0.2874  0.0278  0.2302
    1PEG1  C145  219   5.503  10.626   4.790 -0.1093 -0.2712 -0.4215
    1PEG1  C146  220   5.541  10.562   4.929  0.6436 -0.2213  0.2169
    1PEG1   O73  221   5.684  10.538   4.941 -0.0787 -0.6875  0.4566
    1PEG1  C147  222   5.764  10.663   4.953 -0.5369  0.3736  0.5726
    1PEG1  C148  223   5.912  10.620   4.953  1.1712  1.1861 -0.6832
    1PEG1   O74  224   5.957  10.645   4.821  0.3643 -0.5281  0.4509
    1PEG1  C149  225   6.078  10.576   4.788  0.7170  0.3004 -0.4885
    1PEG1  C150  226   6.135  10.617   4.651 -0.4999  0.3627  0.5493
    1PEG1   O75  227   6.247  10.544   4.615 -0.0017  0.0143 -0.4462
    1PEG1  C151  228   6.374  10.593   4.665  0.6356  0.4459 -0.2270
    1PEG1  C152  229   6.475  10.637   4.560 -0.2312  0.5587 -0.4218
    1PEG1   O76  230   6.446  10.762   4.503  0.7759  0.3390  0.3734
    1PEG1  C153  231   6.523  10.766   4.388  0.3438  0.4940  0.2656
    1PEG1  C154  232   6.448  10.818   4.271 -0.0986  0.0672 -0.0856
    1PEG1   O77  233   6.475  10.745   4.167  0.3064 -1.2359 -0.4947
    1PEG1  C155  234   6.389  10.803   4.074 -0.0953  0.1463  0.6026
    1PEG1  C156  235   6.430  10.810   3.929 -0.3576 -0.3371  0.3331
    1PEG1   O78  236   6.320  10.759   3.846 -0.4629 -0.3135 -0.0668
    1PEG1  C157  237   6.321  10.818   3.714  0.0686  0.4283  0.6771
    1PEG1  C158  238   6.259  10.954   3.698 -0.1191  0.5745 -0.8179
    1PEG1   O79  239   6.121  10.956   3.743  0.4229 -0.5419 -0.3359
    1PEG1  C159  240   6.104  11.005   3.876 -0.4023 -0.2072  0.6742
    1PEG1  C160  241   5.999  10.922   3.946  0.4824 -0.4927  0.5415
    1PEG1   O80  242   6.054  10.819   4.030 -0.6546 -0.3065  0.3564
    1PEG1  C161  243   5.961  10.710   4.029 -0.0238 -0.2825  0.0197
    1PEG1  C162  244   5.889  10.690   4.165 -0.3286  0.3720  1.0314
    1PEG1   O81  245   5.805  10.805   4.182  0.5142  0.3397 -0.6670
    1PEG1  C163  246   5.673  10.788   4.234  0.1583 -0.0855  0.5179
    1PEG1  C164  247   5.659  10.828   4.386  0.8281  0.5127 -0.0614
    1PEG1   O82  248   5.651  10.703   4.460 -0.3577 -0.0446 -0.3224
    1PEG1  C165  249   5.746  10.691   4.566 -0.9995 -0.6331 -0.1183
    1PEG1  C166  250   5.803  10.551   4.583  0.1336 -0.1672 -0.4336
    1PEG1   O83  251   5.898  10.522   4.483  0.6624  0.9022  0.0349
    1PEG1  C167  252   5.954  10.391   4.510  0.0758  0.0007  0.3283
    1PEG1  C168  253   6.066  10.360   4.415 -0.0468  0.0682 -0.5841
    1PEG1   O84  254   6.110  10.226   4.418  0.2889  0.5290 -0.1966
    1PEG1  C169  255   6.181  10.220   4.538 -0.7095  0.4940 -0.0006
    1PEG1  C170  256   6.282  10.115   4.506  0.5931  0.0993 -0.2254
    1PEG1   O85  257   6.203   9.992   4.488 -0.1335  0.3840  0.2987
    1PEG1  C171  258   6.292   9.882   4.484 -1.1488  0.2651 -0.0228
    1PEG1  C172  259   6.290   9.832   4.336  0.1421  0.6245 -0.0003
    1PEG1   O86  260   6.317   9.690   4.313  0.1590  0.1549 -0.3700
    1PEG1  C173  261   6.414   9.668   4.216  0.3254 -0.5609  0.4179
    1PEG1  C174  262   6.523   9.576   4.250 -0.3606  0.4043 -0.3596
    1PEG1   O87  263   6.474   9.444   4.256  0.0691  0.3049  0.0689
    1PEG1  C175  264   6.582   9.350   4.280 -0.2999 -1.4693 -0.0503
    1PEG1  C176  265   6.514   9.240   4.367 -0.6720 -0.0448 -0.1902
    1PEG1   O88  266   6.432   9.285   4.475 -0.2114  0.0746  0.1081
    1PEG1  C177  267   6.389   9.186   4.567 -0.0728 -0.2868 -0.4551
    1PEG1  C178  268   6.261   9.234   4.644 -0.7476  0.2055 -0.3492
    1PEG1   O89  269   6.306   9.313   4.752 -0.6076  0.5501 -0.0628
    1PEG1  C179  270   6.203   9.315   4.848 -0.1160 -0.3263  0.1349
    1PEG1  C180  271   6.258   9.263   4.981  0.0951 -0.3783  0.0613
    1PEG1   O90  272   6.392   9.226   4.976 -0.2287  0.0504  0.1112
    1PEG1  C181  273   6.427   9.198   5.109 -0.0442  0.0754 -0.6112
    1PEG1  C182  274   6.573   9.245   5.143 -0.4736  0.3519  0.0198
    1PEG1   O91  275   6.648   9.190   5.252 -1.0935  0.6274  0.0673
    1PEG1    HO  276   6.694   9.265   5.285 -0.4627  0.6593 -0.8799
    2PVA     C1  277   8.319   3.196   2.307  0.1850  0.3550  0.0354
    2PVA     C2  278   8.401   3.112   2.401  0.4519 -0.4503 -0.5446
    2PVA     C3  279   8.550   3.139   2.388 -0.0273  0.3484  0.0863
    2PVA     C4  280   8.602   3.265   2.463  0.7052  0.3799 -0.1342
    2PVA     C5  281   8.757   3.264   2.465  0.1304 -0.3530 -1.1028
    2PVA     C6  282   8.822   3.286   2.324  0.2398 -0.2570  0.6031
    2PVA     C7  283   8.965   3.240   2.330 -0.1104  0.4503 -0.4873
    2PVA     C8  284   9.011   3.207   2.185 -0.6300 -0.6361  0.5369
    2PVA     C9  285   9.161   3.241   2.175  0.5039 -0.1801 -0.1948
    2PVA    C10  286   9.224   3.237   2.037  1.0108 -0.5971 -0.1822
    2PVA    C11  287   9.370   3.285   2.050  0.5922  1.0111  0.7232
    2PVA    C12  288   9.441   3.293   1.916  0.6041 -0.5742  0.0451
    2PVA    C13  289   9.583   3.355   1.932 -0.3089 -0.3016 -0.4362
    2PVA    C14  290   9.648   3.371   1.796  0.2198 -0.0996  0.7090
    2PVA    C15  291   9.695   3.232   1.755 -0.2024  0.0609  0.3543
    2PVA    C16  292   9.749   3.223   1.612 -0.5441  0.3954  0.0235
    2PVA    C17  293   9.773   3.087   1.543  0.1126 -0.2597  0.6711
    2PVA    C18  294   9.754   3.097   1.394  0.4183 -0.3042 -0.3218
    2PVA    C19  295   9.708   2.971   1.326 -0.3341  0.7699 -1.0441
    2PVA    C20  296   9.558   2.939   1.331 -1.0041 -0.4359 -0.6299
    2PVA    C21  297   9.550   2.804   1.256  0.5554  0.3701 -0.5604
    2PVA    C22  298   9.412   2.742   1.294 -0.0276 -0.4200  0.0835
    2PVA    C23  299   9.411   2.700   1.445  0.2920 -0.1586  0.0121
    2PVA    C24  300   9.268   2.667   1.476 -0.0632  0.6517 -0.4075
    2PVA    C25  301   9.252   2.645   1.628  0.1084 -0.4181  0.1031
    2PVA    C26  302   9.123   2.688   1.689  0.4394 -0.2124  0.0371
    2PVA    C27  303   9.120   2.648   1.834 -0.5318  0.0348  0.4853
    2PVA    C28  304   9.176   2.759   1.927  0.0392  0.5677  0.5328
    2PVA    C29  305   9.203   2.719   2.068  0.0520 -0.3295  0.6939
    2PVA    C30  306   9.347   2.681   2.104  0.8328  0.0146 -0.0560
    2PVA    C31  307   9.444   2.786   2.054  0.2551  0.5226 -0.0390
    2PVA    C32  308   9.595   2.788   2.093  0.3298  0.0919  0.3871
    2PVA    C33  309   9.642   2.838   2.228 -0.6095 -0.1099 -0.1118
    2PVA    C34  310   9.797   2.827   2.255 -0.2015 -0.2644 -0.5705
    2PVA    C35  311   9.818   2.782   2.399 -0.1501 -0.1523  0.8234
    2PVA    C36  312   9.939   2.682   2.430  0.7126  0.0372 -0.0909
    2PVA    C37  313   9.891   2.544   2.385 -0.2706  0.3996 -0.8021
    2PVA    C38  314   9.985   2.426   2.408 -0.0320 -0.0187 -0.7035
    2PVA    C39  315   9.935   2.294   2.357  0.4045  0.2380 -0.0992
    2PVA    C40  316   9.861   2.208   2.451 -0.8360  0.3286  0.2253
    2PVA    C41  317   9.802   2.108   2.356 -0.5368 -0.7617 -0.5935
    2PVA    C42  318   9.712   2.009   2.421 -0.2113 -0.3110  0.3792
    2PVA    C43  319   9.703   1.878   2.345  0.0943  0.0599  0.4744
    2PVA    C44  320   9.613   1.774   2.418  0.0334 -0.3641  0.1775
    2PVA    C45  321   9.690   1.723   2.537 -0.8140  0.2075 -0.6457
    2PVA    C46  322   9.628   1.591   2.590 -0.1674  0.3252  0.1223
    2PVA    C47  323   9.688   1.549   2.721  0.0937  0.4102  0.2154
    2PVA    C48  324   9.660   1.407   2.757  0.0736 -0.0826  0.3479
    2PVA    C49  325   9.725   1.384   2.896  0.3142  0.6626  0.1866
    2PVA    C50  326   9.878   1.350   2.911 -0.5553 -0.2312  0.8847
    2PVA    C51  327   9.913   1.310   3.046  0.0917 -0.6490  0.5189
    2PVA    C52  328  10.061   1.331   3.078 -0.0021  0.2008  0.0081
    2PVA    C53  329  10.093   1.320   3.223 -0.2324 -0.4667  0.6045
    2PVA    C54  330  10.061   1.449   3.301  0.1464  0.6407  0.2570
    2PVA    C55  331  10.028   1.432   3.453 -0.3535 -0.2843 -0.0026
    2PVA    C56  332   9.914   1.347   3.506  0.3703  0.1783  0.0060
    2PVA    C57  333   9.780   1.414   3.483 -0.1154 -0.2976  0.1997
    2PVA    C58  334   9.657   1.330   3.528 -0.3653  0.2450 -0.3609
    2PVA    C59  335   9.625   1.226   3.411  0.0223 -0.3052 -0.0174
    2PVA    C60  336   9.567   1.281   3.272  1.0294  0.6847  0.6033
    2PVA    C61  337   9.561   1.167   3.166  0.8647 -0.1667 -0.3653
    2PVA    C62  338   9.437   1.076   3.192  0.0969  0.1845 -0.0697
    2PVA    C63  339   9.440   0.948   3.102 -0.3541 -0.4253  0.6365
    2PVA    C64  340   9.323   0.857   3.130 -0.2959 -0.1746  0.3198
    2PVA    C65  341   9.308   0.734   3.035  0.0915 -0.2665 -0.2069
    2PVA    C66  342   9.191   0.644   3.063  0.1068 -0.0988 -0.6078
    2PVA    C67  343   9.183   0.554   3.189  0.0814 -0.1921 -0.4983
    2PVA    C68  344   9.308   0.461   3.203 -0.1259 -0.5852  1.0363
    2PVA    C69  345   9.310   0.397   3.346 -0.1671 -0.2862  0.4931
    2PVA    C70  346   9.438   0.313   3.364  0.4774 -0.6007  0.4770
    2PVA    C71  347   9.569   0.384   3.355 -0.0766  0.1627 -0.3597
    2PVA    C72  348   9.688   0.296   3.388 -0.3377  0.5100 -0.6377
    2PVA    C73  349   9.710   0.250   3.535 -0.5696  0.2142 -0.1759
    2PVA    C74  350   9.808   0.128   3.529  0.2645 -0.3789  0.5657
    2PVA    C75  351   9.737   0.010   3.452  1.2550 -0.3768  0.1078
    2PVA    C76  352   9.658  -0.081   3.545 -0.3974  0.0714 -0.3350
    2PVA    C77  353   9.594  -0.201   3.484  0.4068 -0.3570  0.2017
    2PVA    C78  354   9.475  -0.175   3.382 -0.2374  0.0593 -0.2037
    2PVA    C79  355   9.323  -0.173   3.414 -0.8672 -0.0114 -0.3330
    2PVA    C80  356   9.263  -0.111   3.285  0.0471 -0.3240 -0.6376
    2PVA    C81  357   9.111  -0.125   3.292  0.0107  0.3417 -0.4933
    2PVA    C82  358   9.048  -0.042   3.184  0.6477 -0.0390  0.7179
    2PVA    C83  359   8.895  -0.037   3.192 -0.1025  0.6821  0.5397
    2PVA    C84  360   8.837   0.069   3.098  0.0228  0.6386 -0.2942
    2PVA    C85  361   8.680   0.067   3.123  0.4138  0.2991  0.4214
    2PVA    C86  362   8.639   0.142   3.247  0.6759  0.2109  0.6863
    2PVA    C87  363   8.489   0.158   3.278 -0.0751 -0.4725  0.0123
    2PVA    C88  364   8.475   0.219   3.414 -0.1213  0.9565  0.5714
    2PVA    C89  365   8.334   0.209   3.455 -0.7957  0.6376  0.0287
    2PVA    C90  366   8.282   0.352   3.494  0.2103  0.3931 -0.5904
    2PVA    C91  367   8.134   0.361   3.483 -0.6012 -0.2794 -0.5317
    2PVA    C92  368   8.077   0.495   3.468 -0.1344 -0.1060  0.1698
    2PVA    C93  369   7.925   0.476   3.451  0.1880  0.4000 -0.5403
    2PVA    C94  370   7.850   0.511   3.578  0.0736 -0.0322  0.6325
    2PVA    C95  371   7.831   0.646   3.642 -0.6193 -0.0236 -0.0426
    2PVA    C96  372   7.768   0.633   3.780  0.2029  0.5328 -0.8091
    2PVA    C97  373   7.880   0.570   3.869 -0.0348 -0.0781  0.4405
    2PVA    C98  374   7.858   0.559   4.021 -0.6133  0.4573 -0.8952
    2PVA    C99  375   7.733   0.472   4.047  0.1825 -1.0036 -0.2294
    2PVA   C100  376   7.702   0.452   4.194  0.0304 -0.2982 -0.0859
    2PVA   C101  377   7.581   0.361   4.212 -1.1318  0.5043  0.1358
    2PVA   C102  378   7.534   0.371   4.359 -0.7707  0.5276  0.4993
    2PVA   C103  379   7.427   0.268   4.401 -0.2472  0.1524 -0.0451
    2PVA     O1  380   8.373   2.975   2.367 -0.0733  0.9473  0.1696
    2PVA     O2  381   8.557   3.271   2.601  0.0443 -0.1020  0.4061
    2PVA     O3  382   8.803   3.424   2.300  0.2516  0.1026 -0.7352
    2PVA     O4  383   8.996   3.072   2.150 -0.0664 -0.7417 -0.2422
    2PVA     O5  384   9.217   3.107   1.964  0.6124  0.3580 -0.1997
    2PVA     O6  385   9.364   3.366   1.819  0.0278 -0.1966  0.5446
    2PVA     O7  386   9.756   3.463   1.801 -0.0480  0.0011  0.1501
    2PVA     O8  387   9.871   3.300   1.602 -0.0153  0.4503  0.0730
    2PVA     O9  388   9.872   3.147   1.333 -1.0121 -0.0985  0.5124
    2PVA   C104  389   9.477   3.040   1.252  0.0268 -0.0289  0.1343
    2PVA    O10  390   9.387   2.623   1.214  0.3552 -0.8658  0.1195
    2PVA    O11  391   9.220   2.559   1.389  0.3902 -0.5185 -1.2809
    2PVA    O12  392   9.012   2.634   1.612 -0.4307 -0.6018  0.4566
    2PVA    O13  393   9.079   2.867   1.950  0.3357 -0.0319 -0.2059
    2PVA    O14  394   9.362   2.669   2.243 -0.4402  0.2724 -0.0321
    2PVA    O15  395   9.667   2.868   1.998  0.1895  0.0581 -0.0315
    2PVA    O16  396   9.866   2.950   2.231  0.2676  0.1060 -0.3004
    2PVA    O17  397  10.056   2.721   2.352 -0.7231 -0.2628  0.4457
    2PVA    O18  398  10.111   2.432   2.347  0.0399  0.1928 -0.6715
    2PVA    O19  399   9.964   2.151   2.533 -0.0161 -0.4727 -0.0324
    2PVA    O20  400   9.581   2.070   2.420  0.2495  0.9604 -0.1523
    2PVA    O21  401   9.590   1.662   2.326 -0.0228 -0.5400 -0.5760
    2PVA    O22  402   9.492   1.618   2.612 -0.3621  0.1926  0.3073
    2PVA    O23  403   9.521   1.380   2.758 -0.8609 -0.0368  0.2390
    2PVA    O24  404   9.920   1.256   2.811  0.4135 -0.0561  0.0638
    2PVA    O25  405  10.144   1.235   3.017  0.5437 -0.6269  0.7300
    2PVA    O26  406  10.168   1.547   3.285 -0.0313 -0.4737 -0.0017
    2PVA    O27  407   9.942   1.321   3.643  0.1825 -0.0507  0.1865
    2PVA    O28  408   9.548   1.418   3.546 -0.2675 -0.3871  0.4388
    2PVA    O29  409   9.442   1.353   3.305 -0.5259 -0.2805 -0.0810
    2PVA    O30  410   9.311   1.138   3.176 -0.3332 -0.3729  0.8944
    2PVA    O31  411   9.564   0.875   3.098 -0.2841 -0.2180 -0.2440
    2PVA    O32  412   9.313   0.776   2.901  0.1059 -0.2996 -0.5537
    2PVA    O33  413   9.065   0.475   3.182  0.1957 -0.1982 -0.1637
    2PVA    O34  414   9.192   0.316   3.363  0.0531 -0.3956  0.3501
    2PVA    O35  415   9.575   0.486   3.453  0.3175 -0.4005  0.5725
    2PVA    O36  416   9.759   0.357   3.603 -0.1331 -0.0689  0.7250
    2PVA    O37  417   9.835  -0.056   3.366 -0.0497 -0.1020 -0.2399
    2PVA    O38  418   9.541  -0.286   3.592 -0.0616  0.3609  0.5191
    2PVA    O39  419   9.284  -0.080   3.521  0.0245 -0.2422 -0.2571
    2PVA    O40  420   9.071  -0.268   3.282 -0.0448  0.5209  0.6952
    2PVA    O41  421   8.841  -0.165   3.159 -0.0479 -0.5259  0.1249
    2PVA    O42  422   8.624   0.114   3.008 -0.1410  0.2309  0.3321
    2PVA    O43  423   8.422   0.247   3.185  0.1850  1.3588 -0.0836
    2PVA    O44  424   8.334   0.110   3.560 -0.4958 -0.2343 -0.0326
    2PVA    O45  425   8.307   0.382   3.632  0.6288 -0.2600  0.1947
    2PVA    O46  426   8.131   0.548   3.346 -0.1055 -0.0188  0.6029
    2PVA    O47  427   7.732   0.434   3.552  0.1776  0.1206  0.2719
    2PVA    O48  428   7.725   0.769   3.805  0.9097  0.4497  0.1863
    2PVA    O49  429   7.971   0.493   4.075 -0.7760  0.0262  0.0876
    2PVA    O50  430   7.816   0.395   4.261  0.6166 -0.3717  0.4270
    2PVA    O51  431   7.490   0.505   4.389 -0.1310 -0.0229 -0.1158
    2PVA   H157  432   8.300   2.926   2.414  0.0870  0.3146 -0.2395
    2PVA   H158  433   8.606   3.216   2.668  1.5627  1.7115  0.8362
    2PVA   H159  434   8.816   3.434   2.201  1.6914 -0.2128 -0.5921
    2PVA   H160  435   8.961   3.018   2.227 -0.9228 -0.0598 -0.1488
    2PVA   H161  436   9.153   3.110   1.887 -0.7966 -1.5346  0.8618
    2PVA   H162  437   9.270   3.362   1.851  0.0094 -4.5483  0.2276
    2PVA   H163  438   9.817   3.440   1.724 -0.1320  0.0165  0.0788
    2PVA   H164  439   9.915   3.278   1.515 -1.9138  0.2091 -0.8650
    2PVA   H165  440   9.942   3.076   1.339  0.1149  1.1485  2.3637
    2PVA   H169  441   9.324   2.569   1.270  1.2380 -0.1793  1.8175
    2PVA   H170  442   9.123   2.539   1.405  0.5411 -2.5767 -2.7321
    2PVA   H171  443   8.938   2.700   1.600 -1.3476 -1.6952  0.0726
    2PVA   H172  444   9.126   2.948   1.986 -2.6145  1.6594  0.0236
    2PVA   H173  445   9.325   2.752   2.285 -2.2955  0.3164 -1.6740
    2PVA   H174  446   9.717   2.938   2.049  1.0946 -0.3949 -0.2709
    2PVA   H175  447   9.827   3.029   2.277  1.7198  0.7473 -0.1365
    2PVA   H176  448  10.128   2.652   2.363  0.0533  0.6970  1.5163
    2PVA   H177  449  10.153   2.349   2.382 -0.2180 -0.8430 -2.7393
    2PVA   H178  450  10.034   2.103   2.479  0.5269  0.6080 -0.2980
    2PVA   H179  451   9.545   2.041   2.508  0.5682  0.0672 -0.3114
    2PVA   H180  452   9.669   1.655   2.264 -0.3813 -3.3031 -0.7725
    2PVA   H181  453   9.459   1.537   2.660  1.3137  0.0724  1.2971
    2PVA   H182  454   9.498   1.285   2.739 -2.6769  0.1574  1.4165
    2PVA   H183  455  10.014   1.228   2.830  0.6958  1.7151  1.3265
    2PVA   H184  456  10.228   1.282   2.992 -0.0542 -0.7056 -1.5718
    2PVA   H185  457  10.261   1.514   3.300  0.5531  0.2261 -1.8969
    2PVA   H186  458   9.875   1.249   3.664  1.2611 -1.4376 -0.9871
    2PVA   H187  459   9.566   1.481   3.621 -1.0371 -1.5892  1.6514
    2PVA   H188  460   9.469   1.373   3.399 -0.4755 -0.9707  0.0603
    2PVA   H189  461   9.286   1.186   3.261 -0.7064 -0.6175  0.9229
    2PVA   H190  462   9.577   0.845   3.004 -0.4110  0.1992 -0.3978
    2PVA   H191  463   9.409   0.782   2.872  0.4532  1.1261  0.7979
    2PVA   H192  464   8.986   0.528   3.150 -0.5599  0.4684  2.6516
    2PVA   H193  465   9.120   0.361   3.310 -0.0738 -2.9424 -1.7516
    2PVA   H194  466   9.523   0.565   3.420 -0.3428 -1.4688 -1.0025
    2PVA   H195  467   9.700   0.437   3.590  0.4927  0.3305  0.2715
    2PVA   H196  468   9.912  -0.085   3.422 -0.6692  2.0395  1.8143
    2PVA   H197  469   9.507  -0.235   3.671 -0.1741 -0.7212  1.1837
    2PVA   H198  470   9.314  -0.107   3.613  1.6014 -0.6906 -0.8768
    2PVA   H199  471   9.028  -0.305   3.364  0.1877  1.3797  1.2119
    2PVA   H200  472   8.890  -0.237   3.207  1.7760  0.0846 -0.7836
    2PVA   H201  473   8.598   0.036   2.951 -0.1471 -1.1612  2.2058
    2PVA   H202  474   8.430   0.205   3.094  2.2560  0.8614  0.3037
    2PVA   H203  475   8.352   0.017   3.528 -2.2977 -0.0928 -1.5584
    2PVA   H204  476   8.404   0.363   3.647  0.6326 -0.4451 -0.0625
    2PVA   H205  477   8.076   0.517   3.269  1.1225  0.0873 -0.3227
    2PVA   H206  478   7.746   0.335   3.551 -1.3215 -0.1200 -2.6264
    2PVA   H207  479   7.709   0.806   3.713  0.6684 -0.6521 -0.2235
    2PVA   H208  480   8.053   0.525   4.027 -0.3070 -0.6669  0.4224
    2PVA   H209  481   7.897   0.439   4.223  1.2023  0.0720  2.1374
    2PVA   H210  482   7.569   0.561   4.412  0.8759 -1.0905 -0.8695
    3ACTN    H6  483   4.528   5.771   0.208  0.8394 -0.0870 -0.1833
    3ACTN    C3  484   4.460   5.693   0.242 -0.4973  1.1161 -0.0551
    3ACTN    H4  485   4.389   5.668   0.162  0.2908  1.9746 -1.0276
    3ACTN    H5  486   4.517   5.601   0.258 -0.4181  1.3422  0.9483
    3ACTN    C2  487   4.375   5.723   0.360 -0.6178 -0.3565 -0.5487
    3ACTN    O1  488   4.332   5.625   0.414  0.1486  0.1893  0.3397
    3ACTN    C1  489   4.373   5.866   0.418 -0.0237  0.3442 -0.3882
    3ACTN    H1  490   4.337   5.856   0.520  1.5554 -2.2325 -0.0347
    3ACTN    H2  491   4.299   5.925   0.364 -0.0092 -0.6161 -1.4932
    3ACTN    H3  492   4.471   5.914   0.420  0.4875 -0.5458 -2.5624
    4ACTN    H6  493   3.282   0.787   4.427  2.3631 -0.3272 -1.5564
    4ACTN    C3  494   3.285   0.683   4.459 -0.3456  0.0499  0.0932
    4ACTN    H4  495   3.303   0.631   4.365 -1.5265  0.0845 -0.1655
    4ACTN    H5  496   3.375   0.666   4.517 -0.2481  0.5655  0.0976
    4ACTN    C2  497   3.162   0.639   4.526 -0.1630  0.2857 -0.0796
    4ACTN    O1  498   3.119   0.699   4.628  0.1396  0.4924 -0.3772
    4ACTN    C1  499   3.071   0.540   4.452  0.8262 -0.4752  0.1675
    4ACTN    H1  500   3.047   0.584   4.355  2.0971  0.9526  0.4893
    4ACTN    H2  501   2.978   0.517   4.505 -0.4021  2.8932 -0.4366
    4ACTN    H3  502   3.124   0.447   4.431  0.1119 -1.2116  1.5198
    5ACTN    H6  503   1.936   8.716   8.142 -1.3359  0.2027  0.2014
    5ACTN    C3  504   1.893   8.621   8.174 -0.9626 -0.0583 -0.0666
    5ACTN    H4  505   1.922   8.602   8.278 -2.5657  1.0863  0.6129
    5ACTN    H5  506   1.784   8.629   8.174 -1.1663 -1.5508  4.2566
    5ACTN    C2  507   1.936   8.507   8.085  0.8853  0.1930 -0.3766
    5ACTN    O1  508   1.974   8.520   7.969 -0.3679 -0.4229  0.1668
    5ACTN    C1  509   1.877   8.379   8.123 -0.3533  0.1276  0.2698
    5ACTN    H1  510   1.928   8.304   8.063  0.7775  0.9330  0.2146
    5ACTN    H2  511   1.775   8.372   8.085  0.3194 -1.5822 -1.3264
    5ACTN    H3  512   1.863   8.363   8.230  2.2346 -1.7219  0.3794
    6ACTN    H6  513   2.251   0.990   1.868  1.8912 -0.6082 -1.6421
    6ACTN    C3  514   2.296   1.086   1.843 -0.0015  0.6140 -0.4872
    6ACTN    H4  515   2.398   1.093   1.881  0.2539  1.5779 -1.3116
    6ACTN    H5  516   2.312   1.102   1.736  3.5087  0.0337 -0.1192
    6ACTN    C2  517   2.214   1.200   1.892 -0.4427 -0.1443 -0.3941
    6ACTN    O1  518   2.163   1.280   1.815 -0.0776 -0.2589 -0.4978
    6ACTN    C1  519   2.172   1.192   2.037  0.1129  0.3063 -0.9344
    6ACTN    H1  520   2.064   1.195   2.052  0.2393 -0.3235  0.1607
    6ACTN    H2  521   2.219   1.276   2.088 -0.2745 -0.6362  1.0077
    6ACTN    H3  522   2.209   1.097   2.076  0.6254  0.2778 -1.4736
    7ACTN    H6  523   1.289   0.039   8.036 -2.4207 -0.0343  1.4529
    7ACTN    C3  524   1.305  -0.065   8.066  0.5957 -0.0481 -0.0115
    7ACTN    H4  525   1.269  -0.087   8.166  1.8249 -0.0658  0.4398
    7ACTN    H5  526   1.248  -0.124   7.994 -0.0151 -1.5101  1.6180
    7ACTN    C2  527   1.447  -0.104   8.063 -0.0060 -0.1555  0.3559
    7ACTN    O1  528   1.509  -0.143   8.163 -0.1246  0.0184  0.6563
    7ACTN    C1  529   1.505  -0.137   7.932  0.2550  0.3427  0.0164
    7ACTN    H1  530   1.446  -0.215   7.884  1.2179 -0.3637 -0.0345
    7ACTN    H2  531   1.602  -0.181   7.954  0.0577 -0.3198 -0.4188
    7ACTN    H3  532   1.511  -0.045   7.875  1.9014  1.4352  1.8835
    8ACTN    H6  533   8.936   0.955   7.774  3.2119 -1.2039 -0.9665
    8ACTN    C3  534   8.862   0.882   7.741  0.7546  0.7114  0.0693
    8ACTN    H4  535   8.858   0.895   7.633  2.0768  2.6637  0.2381
    8ACTN    H5  536   8.897   0.780   7.755 -1.6555 -0.2723 -0.8274
    8ACTN    C2  537   8.720   0.889   7.798 -0.9332 -0.2698 -0.0243
    8ACTN    O1  538   8.670   0.999   7.812 -0.5966 -1.1749 -0.0991
    8ACTN    C1  539   8.662   0.758   7.856 -0.1015  0.0585 -0.2326
    8ACTN    H1  540   8.723   0.717   7.937  0.7777 -0.8302 -1.3221
    8ACTN    H2  541   8.652   0.689   7.772 -3.5008 -0.4838  0.5433
    8ACTN    H3  542   8.562   0.774   7.896 -0.8762 -0.9420 -1.7096
    9ACTN    H6  543   6.899   6.921   2.968  1.0213  0.4447 -0.6807
    9ACTN    C3  544   6.809   6.947   2.912  0.0878 -0.3259  0.4299
    9ACTN    H4  545   6.741   6.862   2.920 -1.9551  1.1427 -0.8147
    9ACTN    H5  546   6.770   7.037   2.958 -0.8911 -0.3809 -0.2729
    9ACTN    C2  547   6.842   6.964   2.765 -0.7508 -0.4184 -0.1039
    9ACTN    O1  548   6.920   7.053   2.734  0.1975  0.6908 -0.1450
    9ACTN    C1  549   6.757   6.884   2.666  0.5435  0.1583  0.8354
    9ACTN    H1  550   6.679   6.825   2.712 -0.1420 -0.6469 -1.3239
    9ACTN    H2  551   6.813   6.824   2.593 -1.1385 -2.3117  1.5272
    9ACTN    H3  552   6.711   6.965   2.609  0.2579 -1.1228 -0.7844
   10ACTN    H6  553   6.709   8.651   4.367 -0.2836  2.6158 -0.7252
   10ACTN    C3  554   6.607   8.668   4.401 -0.3115  0.3561  0.4046
   10ACTN    H4  555   6.577   8.765   4.362  1.3211  0.1487 -1.4915
   10ACTN    H5  556   6.537   8.599   4.352 -3.0278  2.2842  1.4280
   10ACTN    C2  557   6.605   8.649   4.553 -0.3031  0.3870  0.5220
   10ACTN    O1  558   6.705   8.619   4.620 -0.0346  0.0871  0.4786
   10ACTN    C1  559   6.467   8.638   4.615 -0.2181 -0.0538 -0.2310
   10ACTN    H1  560   6.408   8.553   4.579 -1.3047 -0.4180  2.3390
   10ACTN    H2  561   6.421   8.730   4.580  1.4540  0.8952  0.0124
   10ACTN    H3  562   6.477   8.646   4.723  0.7664 -0.9394 -0.2463
   11ACTN    H6  563   2.411   0.487   4.532  0.8598 -0.1151 -0.7806
   11ACTN    C3  564   2.475   0.522   4.613 -0.5739  0.9959 -0.1022
   11ACTN    H4  565   2.567   0.564   4.573 -0.9054 -0.1227 -2.0916
   11ACTN    H5  566   2.419   0.603   4.660  1.0924  2.0958  0.0367
   11ACTN    C2  567   2.509   0.418   4.706 -0.1025 -0.5862  0.0607
   11ACTN    O1  568   2.448   0.409   4.808 -0.6138  0.5212  0.2255
   11ACTN    C1  569   2.612   0.319   4.670  0.8091  0.3268  0.3392
   11ACTN    H1  570   2.600   0.221   4.718  1.3203 -0.7768 -1.7315
   11ACTN    H2  571   2.708   0.361   4.701 -0.6505  4.3334 -0.2547
   11ACTN    H3  572   2.615   0.306   4.562 -1.5122 -2.2546  0.5186
   12ACTN    H6  573   7.278   7.412   3.580  0.2872 -0.2278 -2.0314
   12ACTN    C3  574   7.375   7.460   3.594 -0.5026  0.9708 -0.4662
   12ACTN    H4  575   7.427   7.446   3.500 -1.4229 -0.9443 -0.7159
   12ACTN    H5  576   7.346   7.564   3.598 -2.1768  0.5479 -1.4585
   12ACTN    C2  577   7.442   7.430   3.724  0.5462 -0.2357 -0.5030
   12ACTN    O1  578   7.558   7.381   3.727 -0.5405  0.1242  0.1289
   12ACTN    C1  579   7.371   7.477   3.850 -0.1497 -0.2064  0.1542
   12ACTN    H1  580   7.395   7.408   3.931  2.5933 -0.3090 -0.6944
   12ACTN    H2  581   7.264   7.479   3.832 -0.0605 -2.4037 -0.7931
   12ACTN    H3  582   7.416   7.569   3.887  0.1838  0.8522 -2.7769
   13ACTN    H6  583   0.207   5.405   4.515  0.0247  0.6890 -1.8889
   13ACTN    C3  584   0.305   5.392   4.560 -0.6314  0.1075 -0.5998
   13ACTN    H4  585   0.296   5.408   4.667  4.2344  2.8909 -0.4521
   13ACTN    H5  586   0.334   5.291   4.530 -0.1439  0.4304 -1.2272
   13ACTN    C2  587   0.391   5.499   4.504 -0.0943 -0.0229 -0.0311
   13ACTN    O1  588   0.404   5.522   4.383  0.5246 -0.3457  0.4188
   13ACTN    C1  589   0.452   5.601   4.595 -0.6300  0.4219  0.1786
   13ACTN    H1  590   0.458   5.578   4.702  3.2013  0.4520  0.0099
   13ACTN    H2  591   0.419   5.705   4.588 -1.8791  0.2549  2.6493
   13ACTN    H3  592   0.558   5.613   4.572 -0.7613  0.2092 -0.5472
   14ACTN    H6  593   4.298   4.506   7.339 -1.7516  2.4381 -1.0042
   14ACTN    C3  594   4.201   4.458   7.350 -0.1097 -0.7944 -0.1378
   14ACTN    H4  595   4.213   4.364   7.295 -2.7574 -1.3409  0.1577
   14ACTN    H5  596   4.172   4.444   7.454  0.3318 -2.1713 -0.1860
   14ACTN    C2  597   4.098   4.531   7.260  0.3454  0.1901 -0.0177
   14ACTN    O1  598   4.013   4.605   7.309 -0.0766 -0.2576  0.1508
   14ACTN    C1  599   4.122   4.534   7.112  0.9462  0.2403 -0.2547
   14ACTN    H1  600   4.207   4.473   7.083  0.6569 -0.9151  1.3022
   14ACTN    H2  601   4.124   4.639   7.080 -2.1621  1.3294  2.7877
   14ACTN    H3  602   4.034   4.489   7.066  0.7038 -1.0914  1.4943
   15ACTN    H6  603   8.567   4.277   7.422  0.2939 -0.3286 -1.3669
   15ACTN    C3  604   8.675   4.290   7.427  0.2249 -0.1876 -0.0273
   15ACTN    H4  605   8.715   4.196   7.389  0.5418 -0.5285  1.1421
   15ACTN    H5  606   8.699   4.366   7.352  0.0053 -1.1672 -1.1049
   15ACTN    C2  607   8.724   4.342   7.565 -0.0059 -0.1692  0.4830
   15ACTN    O1  608   8.644   4.367   7.651 -0.1686 -0.3716 -0.7686
   15ACTN    C1  609   8.865   4.380   7.581  0.1438 -0.3149 -1.0126
   15ACTN    H1  610   8.932   4.297   7.559  0.7727  0.3276 -1.6035
   15ACTN    H2  611   8.897   4.429   7.672 -0.7741 -0.5835 -0.5412
   15ACTN    H3  612   8.896   4.456   7.508 -0.3228  1.5240  0.6633
   16ACTN    H6  613   5.324   4.274   5.985 -0.9558 -0.7950 -0.4790
   16ACTN    C3  614   5.273   4.213   5.911  0.0250 -0.7338 -1.2078
   16ACTN    H4  615   5.342   4.190   5.830  0.5079 -2.6974 -0.2724
   16ACTN    H5  616   5.250   4.116   5.956 -2.8209 -0.3266 -1.7311
   16ACTN    C2  617   5.152   4.284   5.884 -0.0039  0.5952  1.0817
   16ACTN    O1  618   5.135   4.328   5.769  0.6181 -0.6460 -0.1881
   16ACTN    C1  619   5.043   4.291   5.978 -0.9102  0.6426  0.1444
   16ACTN    H1  620   5.075   4.325   6.076 -2.2001  0.3874  0.6723
   16ACTN    H2  621   4.997   4.191   5.978 -1.1371  0.7409 -0.5470
   16ACTN    H3  622   4.968   4.362   5.944  0.0102  2.0651  1.0610
   17ACTN    H6  623   6.817   8.984   4.077 -0.7210 -1.5410 -0.8893
   17ACTN    C3  624   6.737   9.058   4.066  0.0157 -0.5317  0.2860
   17ACTN    H4  625   6.684   9.079   4.159  0.2774  2.2424 -0.1540
   17ACTN    H5  626   6.794   9.143   4.028  0.2088 -0.3563  0.9799
   17ACTN    C2  627   6.635   9.024   3.953  0.0414 -0.0995  0.0271
   17ACTN    O1  628   6.643   8.914   3.903  0.0243  0.2673 -0.4541
   17ACTN    C1  629   6.517   9.103   3.935 -0.7080  0.1359 -0.0715
   17ACTN    H1  630   6.535   9.197   3.987  1.2025 -0.4991  0.4816
   17ACTN    H2  631   6.438   9.050   3.987  0.6137 -1.5777  0.2287
   17ACTN    H3  632   6.492   9.103   3.829  2.0031  4.2528 -0.8300
   18ACTN    H6  633   4.388   7.146   2.321  0.5157  0.4435 -0.1690
   18ACTN    C3  634   4.390   7.217   2.403 -0.4370  0.1257  0.1397
   18ACTN    H4  635   4.478   7.282   2.410  0.2158 -0.6537 -0.7177
   18ACTN    H5  636   4.297   7.272   2.413 -1.1436 -0.8246 -1.2319
   18ACTN    C2  637   4.398   7.127   2.519 -0.1790  0.1333 -0.1823
   18ACTN    O1  638   4.329   7.150   2.619 -0.3777 -0.8901 -0.1572
   18ACTN    C1  639   4.511   7.030   2.520  0.4010  0.1532 -0.8208
   18ACTN    H1  640   4.553   7.011   2.421  0.4683  0.5281 -0.8651
   18ACTN    H2  641   4.466   6.938   2.559  0.9646  0.6486  1.0398
   18ACTN    H3  642   4.586   7.056   2.594  0.0394 -1.2014  0.0495
   19ACTN    H6  643   8.213   6.998   4.479  0.3321  2.1988  0.9683
   19ACTN    C3  644   8.144   7.065   4.427 -0.4467  0.4769 -0.2956
   19ACTN    H4  645   8.143   7.165   4.472  0.0399 -0.5676  2.1178
   19ACTN    H5  646   8.198   7.086   4.335  0.8032  1.7462  0.7035
   19ACTN    C2  647   8.017   6.996   4.383  0.0531 -0.5476 -0.2823
   19ACTN    O1  648   7.982   6.888   4.435 -0.1051  0.0927 -0.1016
   19ACTN    C1  649   7.916   7.079   4.308 -0.5284 -0.1750  0.1794
   19ACTN    H1  650   7.881   7.025   4.220 -0.2324 -1.0168  0.5769
   19ACTN    H2  651   7.947   7.182   4.290  0.9527 -0.7199 -0.4696
   19ACTN    H3  652   7.830   7.096   4.373  0.4738 -1.0718  1.7790
   20ACTN    H6  653   6.793   8.586   3.782  1.1425  0.2600 -0.0162
   20ACTN    C3  654   6.840   8.512   3.847 -0.1823 -0.5355  0.0373
   20ACTN    H4  655   6.763   8.471   3.914  1.3500 -0.3319  1.9715
   20ACTN    H5  656   6.879   8.429   3.789 -2.5896 -3.0297  1.8395
   20ACTN    C2  657   6.938   8.579   3.931 -0.0990  0.3138 -0.0079
   20ACTN    O1  658   6.965   8.547   4.048 -0.3314 -0.5592  0.2334
   20ACTN    C1  659   7.016   8.691   3.868 -1.0599 -0.5726  0.0722
   20ACTN    H1  660   6.964   8.731   3.781  0.9270 -0.5917 -1.1505
   20ACTN    H2  661   7.114   8.666   3.827 -1.7684 -0.7232 -1.5784
   20ACTN    H3  662   7.032   8.774   3.937  1.8379  0.1643 -1.4312
   21ACTN    H6  663   7.881   6.847   3.918 -0.5077 -0.2702 -0.1596
   21ACTN    C3  664   7.974   6.821   3.867 -0.0040  0.2547  0.4844
   21ACTN    H4  665   7.947   6.748   3.791  3.3663 -0.9798  0.4142
   21ACTN    H5  666   8.019   6.907   3.817  1.5197 -0.2629  0.9319
   21ACTN    C2  667   8.077   6.766   3.965 -0.4488 -0.7864  0.5492
   21ACTN    O1  668   8.075   6.815   4.080 -0.7134  0.2264 -0.3488
   21ACTN    C1  669   8.203   6.706   3.907  0.3186  0.8399  0.1544
   21ACTN    H1  670   8.268   6.665   3.983  0.1966  0.0294 -0.1730
   21ACTN    H2  671   8.258   6.772   3.840  1.5386  0.9751  1.2787
   21ACTN    H3  672   8.170   6.626   3.841 -0.3037  3.6939 -3.1582
   22ACTN    H6  673   6.530   8.805   0.117  0.3632 -0.1300  0.6517
   22ACTN    C3  674   6.499   8.702   0.136 -0.5404  0.0015 -0.0739
   22ACTN    H4  675   6.559   8.634   0.076 -0.3883 -1.4447  1.6760
   22ACTN    H5  676   6.526   8.680   0.239  0.6836  1.2736 -0.1095
   22ACTN    C2  677   6.356   8.682   0.107 -0.6816  0.3649  0.1063
   22ACTN    O1  678   6.321   8.678  -0.009 -0.2625 -0.2340  0.6126
   22ACTN    C1  679   6.260   8.703   0.218  0.2311 -0.8361 -0.0669
   22ACTN    H1  680   6.320   8.732   0.305  2.0837 -1.0050 -1.2629
   22ACTN    H2  681   6.219   8.604   0.241 -2.2482  0.0492 -0.5497
   22ACTN    H3  682   6.182   8.769   0.182 -2.6836 -3.9098  0.3642
   23ACTN    H6  683   6.968   0.240   6.204  0.9325  1.7146  1.0938
   23ACTN    C3  684   6.903   0.314   6.157 -0.3351  0.0622  0.2191
   23ACTN    H4  685   6.831   0.360   6.225 -1.0270 -0.6063 -0.0427
   23ACTN    H5  686   6.980   0.375   6.111 -0.0720 -1.7354 -1.8396
   23ACTN    C2  687   6.829   0.236   6.039  1.0480 -0.4867 -0.1221
   23ACTN    O1  688   6.735   0.155   6.072  1.0884 -0.0182 -0.1851
   23ACTN    C1  689   6.886   0.247   5.898 -0.5629  0.2125  0.6371
   23ACTN    H1  690   6.948   0.337   5.898 -1.8614  1.1132  0.4915
   23ACTN    H2  691   6.814   0.251   5.817  1.1861 -0.4669 -0.9933
   23ACTN    H3  692   6.943   0.157   5.876 -1.6611 -0.3480  0.0246
   24ACTN    H6  693   2.329   3.871   5.784  0.8844  1.9505 -3.5691
   24ACTN    C3  694   2.413   3.913   5.840 -0.5469 -0.0707  0.2428
   24ACTN    H4  695   2.381   3.921   5.944  0.7360  0.5761  0.5988
   24ACTN    H5  696   2.489   3.835   5.835 -0.3014  0.3334 -2.8930
   24ACTN    C2  697   2.464   4.039   5.773 -0.3529 -0.0278 -0.5113
   24ACTN    O1  698   2.517   4.025   5.662  0.1507 -0.3996  0.3293
   24ACTN    C1  699   2.465   4.168   5.856  0.1420  0.3190 -0.1559
   24ACTN    H1  700   2.368   4.201   5.894 -0.0460  0.1654 -0.5010
   24ACTN    H2  701   2.506   4.254   5.803 -0.4324  0.6514 -0.0637
   24ACTN    H3  702   2.521   4.145   5.947 -0.9875  2.5713  1.1621
   25ACTN    H6  703   6.974   2.323   4.997  0.0558  1.0100  0.3594
   25ACTN    C3  704   6.921   2.279   5.082 -0.2728  0.3978 -0.1520
   25ACTN    H4  705   6.835   2.339   5.110 -1.5968 -1.3230 -0.4593
   25ACTN    H5  706   6.881   2.184   5.047  0.8507  0.2858 -1.1794
   25ACTN    C2  707   7.014   2.248   5.198 -0.2635  0.8170  0.2118
   25ACTN    O1  708   7.098   2.162   5.177  0.5075  0.3538  0.1512
   25ACTN    C1  709   7.002   2.308   5.336 -0.0992 -0.3125 -0.9246
   25ACTN    H1  710   7.012   2.234   5.415 -1.4637 -0.2741 -0.7040
   25ACTN    H2  711   6.912   2.366   5.355 -0.5296 -0.9322 -1.0362
   25ACTN    H3  712   7.094   2.364   5.351  0.9711 -2.0618 -0.7785
   26ACTN    H6  713   7.994   2.392   5.429 -1.6493  2.2383 -0.3412
   26ACTN    C3  714   7.931   2.308   5.402 -0.0647  0.6619  0.7637
   26ACTN    H4  715   7.980   2.259   5.318  1.2297  1.6891  0.9047
   26ACTN    H5  716   7.908   2.237   5.482  0.7762  1.4745  1.7427
   26ACTN    C2  717   7.803   2.361   5.352  0.5244 -0.1692  0.8091
   26ACTN    O1  718   7.763   2.476   5.385  0.0985 -0.1045  0.0936
   26ACTN    C1  719   7.719   2.282   5.253 -0.0053 -0.1229 -0.5695
   26ACTN    H1  720   7.708   2.342   5.163 -0.3733  0.4816 -0.1272
   26ACTN    H2  721   7.622   2.253   5.295  1.1789 -1.6139  1.2227
   26ACTN    H3  722   7.769   2.190   5.226 -0.1587 -0.6266  0.8086
   27ACTN    H6  723   5.806   0.230   4.498 -1.1274 -1.0477 -0.0906
   27ACTN    C3  724   5.866   0.178   4.573 -0.0260 -0.2245 -0.3950
   27ACTN    H4  725   5.966   0.162   4.533 -0.6264 -2.1065 -1.2077
   27ACTN    H5  726   5.869   0.236   4.664 -2.8741  0.3499 -0.6232
   27ACTN    C2  727   5.818   0.043   4.609 -0.1829  0.1134 -0.3507
   27ACTN    O1  728   5.828  -0.003   4.721 -0.6337  0.8791  0.3418
   27ACTN    C1  729   5.755  -0.039   4.497  0.0402  0.1327  0.8496
   27ACTN    H1  730   5.675   0.014   4.447  1.1916  2.8346  1.7403
   27ACTN    H2  731   5.726  -0.140   4.525  0.0284 -0.3785 -0.9581
   27ACTN    H3  732   5.827  -0.056   4.417 -1.0681 -3.3588  0.5038
   28ACTN    H6  733   7.767   4.531   8.421  1.1992  2.3951  1.6676
   28ACTN    C3  734   7.857   4.503   8.366 -0.2638  0.1571  0.3584
   28ACTN    H4  735   7.947   4.532   8.419  0.7949 -0.4400 -1.0768
   28ACTN    H5  736   7.861   4.395   8.362 -0.9978  0.1247  0.4256
   28ACTN    C2  737   7.851   4.574   8.234  0.5543 -0.2858  0.2706
   28ACTN    O1  738   7.744   4.609   8.185  0.1367  0.4172  0.4426
   28ACTN    C1  739   7.977   4.633   8.173 -0.3918  1.1382 -0.2717
   28ACTN    H1  740   7.982   4.610   8.066  0.5916 -0.6112  0.1474
   28ACTN    H2  741   8.057   4.576   8.220 -0.2078 -0.1607 -2.1000
   28ACTN    H3  742   7.983   4.740   8.194  0.7754  0.8024  1.1864
   29ACTN    H6  743   2.191   5.557   5.227 -1.0107 -0.1466  0.0071
   29ACTN    C3  744   2.180   5.571   5.120  0.3930 -0.5105 -0.1900
   29ACTN    H4  745   2.158   5.677   5.112  1.6459 -0.2786 -0.6808
   29ACTN    H5  746   2.099   5.508   5.083  0.7324 -0.6922 -0.6359
   29ACTN    C2  747   2.308   5.537   5.050  0.2965 -0.2341  0.4811
   29ACTN    O1  748   2.303   5.455   4.957 -0.1988  0.2909  0.0307
   29ACTN    C1  749   2.412   5.645   5.035 -0.1976  0.4676 -0.6238
   29ACTN    H1  750   2.421   5.674   4.930 -0.5332 -0.9501 -1.0456
   29ACTN    H2  751   2.508   5.601   5.060  0.2625  0.6554 -1.9901
   29ACTN    H3  752   2.407   5.730   5.103 -0.6258  0.0882 -0.1869
   30ACTN    H6  753   0.244   3.255   8.410 -0.8417  2.5668  1.6372
   30ACTN    C3  754   0.192   3.192   8.483  0.1577 -0.0105  0.1966
   30ACTN    H4  755   0.202   3.089   8.449 -1.4603 -0.8992  2.3470
   30ACTN    H5  756   0.221   3.190   8.588  0.1757 -0.7983  0.1829
   30ACTN    C2  757   0.057   3.243   8.475  0.2706 -0.0578 -0.0224
   30ACTN    O1  758   0.027   3.359   8.469  0.0563  0.3382 -0.3580
   30ACTN    C1  759  -0.056   3.147   8.501 -1.1553 -0.6235  0.7412
   30ACTN    H1  760  -0.061   3.076   8.419  1.1817  0.6337 -0.5258
   30ACTN    H2  761  -0.152   3.196   8.519 -1.5460 -0.8964 -0.5347
   30ACTN    H3  762  -0.028   3.088   8.588  0.7919  0.9166  1.1990
   31ACTN    H6  763   3.013   1.121   8.670 -0.3613 -1.4586 -1.6968
   31ACTN    C3  764   3.116   1.087   8.686  0.0916  0.1016 -1.2188
   31ACTN    H4  765   3.166   1.066   8.592  0.1662 -0.0850 -1.1360
   31ACTN    H5  766   3.169   1.162   8.745 -2.1121 -0.3857  1.4795
   31ACTN    C2  767   3.121   0.959   8.760 -0.3494 -0.5692  0.3088
   31ACTN    O1  768   3.170   0.955   8.869 -0.0000  0.1647 -0.2906
   31ACTN    C1  769   3.054   0.826   8.704 -1.1195  0.1614 -0.8192
   31ACTN    H1  770   3.111   0.743   8.745  0.5574  0.6907 -2.0050
   31ACTN    H2  771   3.077   0.832   8.598  1.9207  1.2950 -0.1670
   31ACTN    H3  772   2.947   0.819   8.724 -0.8027  0.2028  1.0521
   32ACTN    H6  773   4.779   2.399   5.307 -0.7358 -1.0554  0.0570
   32ACTN    C3  774   4.701   2.472   5.329 -0.0073 -0.1256 -0.4064
   32ACTN    H4  775   4.711   2.558   5.263  0.7611 -0.2623 -0.4694
   32ACTN    H5  776   4.606   2.419   5.328  0.7464 -1.4958 -0.6515
   32ACTN    C2  777   4.731   2.515   5.472  0.8045 -0.1390  0.8834
   32ACTN    O1  778   4.640   2.549   5.544  0.8337  0.4497 -0.4778
   32ACTN    C1  779   4.874   2.522   5.517 -0.9363 -0.0635  0.1985
   32ACTN    H1  780   4.930   2.583   5.446  0.9314 -0.8363  0.9522
   32ACTN    H2  781   4.932   2.432   5.538  0.8760  1.2320  0.9834
   32ACTN    H3  782   4.876   2.584   5.608  0.6930  0.4019 -0.1322
   33ACTN    H6  783   8.776   0.868   2.981 -0.2093 -1.2013 -0.4449
   33ACTN    C3  784   8.877   0.826   2.986  0.3784  0.2283 -0.2716
   33ACTN    H4  785   8.923   0.865   3.077 -0.7706  1.3323 -0.1504
   33ACTN    H5  786   8.873   0.717   2.982  0.5153  0.1580  1.1152
   33ACTN    C2  787   8.959   0.866   2.872 -0.4486 -0.1489 -0.0508
   33ACTN    O1  788   8.982   0.778   2.786  0.1583 -0.2456  0.4119
   33ACTN    C1  789   8.997   1.013   2.853 -0.3480 -0.5594  0.2688
   33ACTN    H1  790   9.106   1.018   2.853 -0.2322 -1.3994 -3.8487
   33ACTN    H2  791   8.946   1.080   2.922  0.0372  1.8858 -1.7192
   33ACTN    H3  792   8.962   1.040   2.753 -3.3183 -0.5723  1.2699
   34ACTN    H6  793   7.714   0.837   5.019 -0.8063  0.4069 -0.4768
   34ACTN    C3  794   7.805   0.811   4.965 -0.5283 -0.2770  0.3086
   34ACTN    H4  795   7.840   0.708   4.975 -0.3170 -0.0719  1.7801
   34ACTN    H5  796   7.786   0.825   4.858  0.0998 -1.8490 -0.0162
   34ACTN    C2  797   7.900   0.909   5.021 -0.2693  0.7503 -0.0908
   34ACTN    O1  798   7.989   0.879   5.099 -0.2272  0.0365  0.7881
   34ACTN    C1  799   7.920   1.041   4.961  0.1081 -0.2190  0.7634
   34ACTN    H1  800   7.957   1.029   4.859  1.4377  2.2755  0.9190
   34ACTN    H2  801   7.990   1.100   5.021 -2.4210  1.2491  2.3725
   34ACTN    H3  802   7.830   1.102   4.955  1.0825  1.1501 -0.4482
   35ACTN    H6  803   8.318   8.165   2.509 -2.3424  0.6396  1.1589
   35ACTN    C3  804   8.262   8.081   2.469 -0.2971 -0.1176 -0.2183
   35ACTN    H4  805   8.219   8.024   2.552 -0.7054 -1.6370 -1.4603
   35ACTN    H5  806   8.174   8.127   2.424 -0.7250 -0.7043  0.0091
   35ACTN    C2  807   8.341   7.996   2.376  0.5634  0.0317 -0.8205
   35ACTN    O1  808   8.451   7.954   2.415 -1.1118 -0.3846 -0.5560
   35ACTN    C1  809   8.286   7.959   2.241 -0.0801  0.8308 -0.1207
   35ACTN    H1  810   8.217   8.032   2.198  0.0514 -1.5329 -4.6045
   35ACTN    H2  811   8.225   7.869   2.244 -0.2778  0.9824  0.8981
   35ACTN    H3  812   8.358   7.937   2.163  1.2952 -1.1071  1.6455
   36ACTN    H6  813   0.356   4.709   7.446  0.3750  1.5088 -0.1318
   36ACTN    C3  814   0.433   4.632   7.437 -0.4361  0.6674  0.0347
   36ACTN    H4  815   0.474   4.651   7.338 -2.8630  1.5939 -0.8425
   36ACTN    H5  816   0.505   4.659   7.515 -0.4724  0.1751  0.2372
   36ACTN    C2  817   0.388   4.490   7.444 -0.5365  0.2289  0.0823
   36ACTN    O1  818   0.291   4.462   7.379 -0.4677  0.0781  0.2086
   36ACTN    C1  819   0.460   4.395   7.534 -0.2329  0.2157  0.4401
   36ACTN    H1  820   0.551   4.352   7.492  0.9273  1.5106  1.5712
   36ACTN    H2  821   0.390   4.315   7.559  1.2046 -0.6091  1.9491
   36ACTN    H3  822   0.475   4.459   7.621  0.7552 -2.4008  2.2690
   37ACTN    H6  823   4.169   2.612   3.847 -1.3045  2.9228  2.5555
   37ACTN    C3  824   4.182   2.541   3.928  0.5071 -0.1770 -0.3536
   37ACTN    H4  825   4.118   2.455   3.908 -0.0486  0.0917  0.2517
   37ACTN    H5  826   4.288   2.515   3.922  1.5836  3.5206  1.1794
   37ACTN    C2  827   4.141   2.600   4.066  0.0211 -0.0384 -0.6103
   37ACTN    O1  828   4.059   2.691   4.069 -0.1647 -0.0883  0.0385
   37ACTN    C1  829   4.203   2.557   4.199  0.1283 -0.0045 -0.7774
   37ACTN    H1  830   4.166   2.458   4.224 -1.1638  0.5063 -0.6308
   37ACTN    H2  831   4.175   2.618   4.285 -2.0853 -0.4047 -1.1720
   37ACTN    H3  832   4.311   2.564   4.190  0.1292  1.5659  0.1893
   38ACTN    H6  833   6.905   0.700   5.983 -0.7507  1.1913 -2.1339
   38ACTN    C3  834   6.952   0.791   6.020 -0.2993  0.3620 -0.6018
   38ACTN    H4  835   6.972   0.779   6.127  0.0582  0.4385 -0.6595
   38ACTN    H5  836   7.042   0.802   5.959  1.4402 -0.3360  1.7697
   38ACTN    C2  837   6.844   0.892   6.004 -1.1577  0.6878 -1.1402
   38ACTN    O1  838   6.736   0.852   5.958  0.1856  0.5788 -0.0732
   38ACTN    C1  839   6.839   1.020   6.081  0.1335 -0.4167  0.5507
   38ACTN    H1  840   6.835   1.103   6.010  1.8019 -1.3147 -0.6472
   38ACTN    H2  841   6.931   1.041   6.136  0.8766 -2.3823  0.0886
   38ACTN    H3  842   6.755   1.038   6.148  0.3353 -0.8762  0.9213
   39ACTN    H6  843   0.809   7.290   1.788  1.0384  1.3583  0.9460
   39ACTN    C3  844   0.898   7.229   1.770 -0.5328 -0.7784  0.1994
   39ACTN    H4  845   0.894   7.155   1.850 -0.1186  1.1457  2.0467
   39ACTN    H5  846   0.882   7.172   1.679 -0.3563  0.1281 -0.4056
   39ACTN    C2  847   1.018   7.319   1.783 -0.0902  0.2645  0.3717
   39ACTN    O1  848   1.102   7.304   1.691 -0.0348  0.1537 -0.0931
   39ACTN    C1  849   1.050   7.387   1.913  0.1007  0.6966 -0.7445
   39ACTN    H1  850   1.019   7.492   1.918 -0.1978  0.7118 -2.6063
   39ACTN    H2  851   1.157   7.405   1.920  0.6952 -1.9906 -2.2620
   39ACTN    H3  852   1.010   7.332   1.998  0.5779 -0.5983 -1.3439
   40ACTN    H6  853   6.502   4.468   0.243 -0.4821 -0.0799  0.4541
   40ACTN    C3  854   6.485   4.361   0.237 -1.1604  0.0292  0.2937
   40ACTN    H4  855   6.400   4.342   0.302 -1.0009  2.9192  1.4229
   40ACTN    H5  856   6.459   4.344   0.133 -1.1550 -0.0527  0.3055
   40ACTN    C2  857   6.611   4.281   0.277  0.4850 -0.0396  0.2642
   40ACTN    O1  858   6.619   4.161   0.261 -0.1546 -0.5384  0.2736
   40ACTN    C1  859   6.716   4.374   0.324  0.1406  0.0447  0.0776
   40ACTN    H1  860   6.672   4.417   0.414 -0.7502 -1.7062  0.4929
   40ACTN    H2  861   6.743   4.452   0.254  2.8106 -0.0714  0.8890
   40ACTN    H3  862   6.809   4.329   0.360 -0.4920  0.4724  2.3769
   41ACTN    H6  863   3.911   5.895   6.102  2.3023 -1.4008  3.4075
   41ACTN    C3  864   3.841   5.940   6.172  0.1695  0.0042  0.4771
   41ACTN    H4  865   3.897   5.970   6.261  0.8943  3.2508 -0.9832
   41ACTN    H5  866   3.777   5.857   6.202 -0.1849  0.4426  0.9383
   41ACTN    C2  867   3.750   6.042   6.104  0.7777 -0.0731  0.3188
   41ACTN    O1  868   3.721   6.136   6.178  0.0578  0.3360  0.1724
   41ACTN    C1  869   3.772   6.062   5.955 -0.0330  0.0174 -0.2088
   41ACTN    H1  870   3.694   6.023   5.890  0.4779  0.9576 -1.3941
   41ACTN    H2  871   3.871   6.026   5.926 -0.8283 -1.4070 -1.1810
   41ACTN    H3  872   3.769   6.170   5.939 -0.7914 -0.2403 -1.8846
   42ACTN    H6  873   1.125   6.890   0.009 -0.6194  0.2496  0.6048
   42ACTN    C3  874   1.187   6.800   0.009 -0.1094  0.5971  0.4913
   42ACTN    H4  875   1.119   6.717   0.031  0.8357 -0.2968  0.0467
   42ACTN    H5  876   1.215   6.769  -0.092  2.4404 -2.6953  2.1376
   42ACTN    C2  877   1.302   6.788   0.108 -0.2420 -0.0815  0.2794
   42ACTN    O1  878   1.388   6.877   0.105 -0.2447  0.4257  0.1554
   42ACTN    C1  879   1.290   6.686   0.214 -0.6699  0.0884  0.2015
   42ACTN    H1  880   1.286   6.721   0.317 -1.0964 -0.6902  0.4567
   42ACTN    H2  881   1.371   6.615   0.199  1.5741  2.4936  0.7159
   42ACTN    H3  882   1.198   6.627   0.202 -0.6684  0.0119  0.5588
   43ACTN    H6  883   3.433   3.149   4.785  0.6634 -1.0335 -0.0222
   43ACTN    C3  884   3.502   3.198   4.854  0.4695  0.1325 -0.6344
   43ACTN    H4  885   3.435   3.272   4.899  2.1705  1.4465 -0.2174
   43ACTN    H5  886   3.537   3.123   4.925  3.2976  2.3591  0.4008
   43ACTN    C2  887   3.613   3.266   4.779 -0.0237  1.0595  0.7587
   43ACTN    O1  888   3.588   3.359   4.703  0.1014  0.1180 -0.3910
   43ACTN    C1  889   3.749   3.219   4.790 -0.0935  1.0089  0.3271
   43ACTN    H1  890   3.825   3.296   4.801  2.7957 -1.6866 -0.2713
   43ACTN    H2  891   3.782   3.167   4.700  1.3993  2.7582 -0.1730
   43ACTN    H3  892   3.764   3.140   4.863  0.3217  1.8042  1.1163
   44ACTN    H6  893   2.170   7.149   7.285  0.5164  0.7178 -2.8590
   44ACTN    C3  894   2.085   7.112   7.228 -0.7489 -0.5574 -0.2605
   44ACTN    H4  895   2.099   7.124   7.120  0.5083  1.4416  0.1144
   44ACTN    H5  896   2.078   7.006   7.254  0.2178 -0.9344 -1.5148
   44ACTN    C2  897   1.963   7.187   7.259  0.5230 -0.0799  0.1257
   44ACTN    O1  898   1.869   7.194   7.177  0.2343 -0.5302 -0.0515
   44ACTN    C1  899   1.982   7.294   7.364 -0.0619  0.0426  0.5574
   44ACTN    H1  900   2.029   7.382   7.322  1.0563 -0.5484  0.5495
   44ACTN    H2  901   2.038   7.263   7.452 -0.3048 -1.8221  0.0734
   44ACTN    H3  902   1.884   7.323   7.403  0.8456  1.0635  2.1481
   45ACTN    H6  903   8.605   2.349   1.614  0.1883 -0.6932  1.3953
   45ACTN    C3  904   8.525   2.423   1.623  0.5071 -0.1805  0.1669
   45ACTN    H4  905   8.435   2.390   1.571 -0.0536 -0.5883  1.3733
   45ACTN    H5  906   8.499   2.417   1.728 -0.8996  1.2453 -0.0874
   45ACTN    C2  907   8.563   2.562   1.592 -0.3727  0.5112 -0.5106
   45ACTN    O1  908   8.603   2.586   1.477  0.7414  0.2514 -0.0947
   45ACTN    C1  909   8.542   2.671   1.697  0.0584  0.1303 -0.1312
   45ACTN    H1  910   8.600   2.657   1.788 -0.9364 -1.5947  0.2670
   45ACTN    H2  911   8.442   2.675   1.741  0.1352 -0.5834  0.1237
   45ACTN    H3  912   8.556   2.769   1.652  2.8629 -0.8787 -1.6112
   46ACTN    H6  913   3.590   2.587   5.662  1.1910  2.0346  0.9833
   46ACTN    C3  914   3.517   2.616   5.738 -0.4869  0.1420  0.1328
   46ACTN    H4  915   3.565   2.611   5.836  0.2354  0.1201 -0.2223
   46ACTN    H5  916   3.442   2.537   5.727  2.4023 -2.4107 -1.8125
   46ACTN    C2  917   3.446   2.739   5.712  0.2341  0.4197 -0.1194
   46ACTN    O1  918   3.499   2.842   5.669 -0.4850  0.4307  0.3415
   46ACTN    C1  919   3.299   2.740   5.723 -0.6288 -0.0926  0.4098
   46ACTN    H1  920   3.262   2.842   5.727 -1.6234 -0.3948 -0.4607
   46ACTN    H2  921   3.277   2.674   5.807  0.0785  1.2199  1.6412
   46ACTN    H3  922   3.261   2.685   5.636 -0.1021 -1.7294  1.1975
   47ACTN    H6  923   0.692   3.325   2.281 -0.6081 -0.7452 -0.4180
   47ACTN    C3  924   0.631   3.294   2.366  0.0138  0.3532  0.4460
   47ACTN    H4  925   0.582   3.382   2.407 -1.6466 -0.2270 -0.2851
   47ACTN    H5  926   0.545   3.231   2.345  0.3026 -0.0878  0.5694
   47ACTN    C2  927   0.725   3.240   2.470  0.3028 -0.8422 -0.0435
   47ACTN    O1  928   0.783   3.138   2.443  0.0597  0.1636  0.0763
   47ACTN    C1  929   0.735   3.307   2.606  0.2203 -0.8283  0.1818
   47ACTN    H1  930   0.810   3.260   2.670  1.0439  0.3396  0.0920
   47ACTN    H2  931   0.646   3.301   2.669 -0.4909  1.4077 -0.5561
   47ACTN    H3  932   0.760   3.413   2.597 -1.6588 -0.4718 -1.2272
   48ACTN    H6  933   7.011   8.100   5.982  1.1916 -0.1076 -1.0225
   48ACTN    C3  934   7.036   8.189   6.040 -0.1227 -0.1241 -0.4031
   48ACTN    H4  935   7.090   8.253   5.970 -1.4534 -0.2623 -1.5847
   48ACTN    H5  936   6.937   8.228   6.063 -0.4317  0.4247 -2.5544
   48ACTN    C2  937   7.118   8.147   6.159 -0.0373 -0.2938  0.1918
   48ACTN    O1  938   7.055   8.116   6.257  0.3052  0.2539 -0.2447
   48ACTN    C1  939   7.260   8.119   6.152  0.0092 -0.2049 -0.2999
   48ACTN    H1  940   7.275   8.068   6.057 -2.0879 -0.0875 -0.7083
   48ACTN    H2  941   7.304   8.063   6.235 -0.1652  0.0782 -0.0184
   48ACTN    H3  942   7.317   8.212   6.150  2.2823 -1.5616 -0.5730
   49ACTN    H6  943   8.494   3.502   2.197  0.3744  0.9160  1.1494
   49ACTN    C3  944   8.425   3.585   2.212 -0.4183  0.5186 -0.2528
   49ACTN    H4  945   8.482   3.672   2.242 -0.1273  0.6602 -1.1955
   49ACTN    H5  946   8.374   3.612   2.119  0.1203  0.2765 -0.6203
   49ACTN    C2  947   8.318   3.550   2.302 -0.3542 -0.4830  0.3190
   49ACTN    O1  948   8.203   3.515   2.266 -0.3522  0.3237  0.3225
   49ACTN    C1  949   8.329   3.575   2.446  0.0944 -0.1709 -0.4974
   49ACTN    H1  950   8.249   3.639   2.482  1.5227  0.3165  1.9422
   49ACTN    H2  951   8.417   3.637   2.461  0.5257 -0.7843 -0.4876
   49ACTN    H3  952   8.339   3.482   2.503 -0.9875  0.5070  0.8464
   50ACTN    H6  953   3.751   6.876   8.653  1.1357  0.1330  0.6993
   50ACTN    C3  954   3.706   6.949   8.720  0.4983  0.1070  0.3048
   50ACTN    H4  955   3.623   6.895   8.764 -0.9299  1.5941 -0.5385
   50ACTN    H5  956   3.775   6.961   8.804  1.9734  1.3185 -1.0505
   50ACTN    C2  957   3.658   7.074   8.655  0.1270 -0.1178 -0.7544
   50ACTN    O1  958   3.703   7.180   8.700  0.0108 -0.3718  0.1244
   50ACTN    C1  959   3.538   7.078   8.562  0.2407  0.3219 -0.1692
   50ACTN    H1  960   3.474   6.995   8.594  0.7031  1.0310  2.7804
   50ACTN    H2  961   3.558   7.054   8.458 -1.9640 -2.0614 -0.1111
   50ACTN    H3  962   3.474   7.166   8.564 -0.9706 -0.5335 -0.2162
   51ACTN    H6  963   1.929   7.594   1.523 -0.1165 -1.4971 -3.9024
   51ACTN    C3  964   1.925   7.490   1.555 -0.1834 -0.4350 -0.1762
   51ACTN    H4  965   1.841   7.441   1.506  0.0800 -1.3845  0.3210
   51ACTN    H5  966   2.011   7.439   1.512 -3.6325 -4.8495 -2.2221
   51ACTN    C2  967   1.923   7.474   1.704 -0.6493 -1.0681  0.1779
   51ACTN    O1  968   2.007   7.542   1.775 -0.7606 -0.4283 -0.5804
   51ACTN    C1  969   1.817   7.401   1.778 -0.9370  0.3218 -0.5064
   51ACTN    H1  970   1.784   7.459   1.863  0.8774  1.4270 -0.5245
   51ACTN    H2  971   1.870   7.314   1.818  0.6134  1.6963  0.5221
   51ACTN    H3  972   1.734   7.364   1.718 -0.0649  1.1494 -2.2565
   52ACTN    H6  973   7.007   3.390   5.705 -2.6426  2.9642  0.1253
   52ACTN    C3  974   7.005   3.347   5.805  0.0500 -0.0065 -0.9974
   52ACTN    H4  975   6.901   3.318   5.818 -0.4857  3.0071  2.3015
   52ACTN    H5  976   7.072   3.262   5.817 -0.1779  0.1050  1.4523
   52ACTN    C2  977   7.025   3.446   5.913  0.3164 -0.4512  0.2238
   52ACTN    O1  978   7.099   3.426   6.005 -0.1761 -0.2841  0.4584
   52ACTN    C1  979   6.950   3.577   5.909 -0.0759  0.4721  0.8032
   52ACTN    H1  980   6.973   3.627   5.815  1.2530  4.0640  2.9213
   52ACTN    H2  981   6.974   3.644   5.991  0.5597 -1.6925  2.4396
   52ACTN    H3  982   6.842   3.569   5.918 -0.0652  1.1138  1.5670
   53ACTN    H6  983   1.111   3.153   2.696  0.1075  0.5738 -0.0797
   53ACTN    C3  984   1.121   3.173   2.590 -0.4132  0.3582 -0.1715
   53ACTN    H4  985   1.224   3.151   2.563 -0.2163 -1.4865  1.9909
   53ACTN    H5  986   1.050   3.112   2.533  0.3432 -0.3721 -0.3487
   53ACTN    C2  987   1.097   3.320   2.566  0.1901  0.2176 -0.1317
   53ACTN    O1  988   1.072   3.398   2.656  0.7991 -0.9077 -0.7955
   53ACTN    C1  989   1.078   3.356   2.424  0.2103 -1.3924 -0.2494
   53ACTN    H1  990   1.075   3.262   2.368  0.1047 -2.3394  1.3285
   53ACTN    H2  991   1.163   3.415   2.388 -2.2204  1.9948 -0.6034
   53ACTN    H3  992   0.990   3.420   2.420 -1.6805 -3.9494 -0.9536
   54ACTN    H6  993   6.030   2.659   3.208 -1.0193  2.2692 -1.0851
   54ACTN    C3  994   6.060   2.716   3.296  0.5037  0.4925 -0.4365
   54ACTN    H4  995   6.159   2.760   3.285  0.5028  1.5142  2.9344
   54ACTN    H5  996   5.978   2.787   3.292  0.4315  0.4290 -0.0723
   54ACTN    C2  997   6.056   2.643   3.431 -0.4337  0.2419  0.0172
   54ACTN    O1  998   6.009   2.529   3.434 -0.2822  0.0084  0.0189
   54ACTN    C1  999   6.112   2.706   3.553 -0.3349 -0.1217 -0.2126
   54ACTN    H1 1000   6.135   2.621   3.617 -0.9239 -0.6506 -0.6912
   54ACTN    H2 1001   6.047   2.770   3.613 -0.1244 -0.7158  0.6642
   54ACTN    H3 1002   6.202   2.766   3.546  0.7823 -1.8356 -0.7930
   55ACTN    H6 1003   8.613   0.677   5.230  2.5089 -1.6772  0.8014
   55ACTN    C3 1004   8.648   0.676   5.127  0.5281 -0.1894  0.0768
   55ACTN    H4 1005   8.755   0.697   5.127 -0.1958  3.9200  0.2761
   55ACTN    H5 1006   8.643   0.573   5.090  0.5755 -0.3416  0.4929
   55ACTN    C2 1007   8.565   0.775   5.049 -0.4975  0.0462 -0.5302
   55ACTN    O1 1008   8.566   0.777   4.927  0.0330 -0.2111 -0.0785
   55ACTN    C1 1009   8.471   0.847   5.140 -0.1899 -0.2189 -0.0239
   55ACTN    H1 1010   8.525   0.907   5.214 -0.0451 -0.6432  0.2184
   55ACTN    H2 1011   8.393   0.782   5.179  0.0298 -1.3470 -1.4374
   55ACTN    H3 1012   8.417   0.917   5.076 -2.1282  0.0105  1.8186
   56ACTN    H6 1013   4.777   6.536   0.973 -0.2194  0.1562 -0.5677
   56ACTN    C3 1014   4.697   6.610   0.968 -0.3406  0.1426  0.8582
   56ACTN    H4 1015   4.651   6.603   1.066  1.4203 -0.6621  1.6413
   56ACTN    H5 1016   4.741   6.709   0.959 -3.5519  1.4970 -0.7196
   56ACTN    C2 1017   4.605   6.577   0.853  0.6684  0.4456  0.2043
   56ACTN    O1 1018   4.525   6.663   0.810  0.3798  0.2305  0.0303
   56ACTN    C1 1019   4.637   6.463   0.768 -0.0484 -0.3240 -0.2568
   56ACTN    H1 1020   4.690   6.500   0.680 -0.9423  2.6180  0.4220
   56ACTN    H2 1021   4.553   6.395   0.754 -1.0780  1.1525 -1.3232
   56ACTN    H3 1022   4.713   6.404   0.820  0.1681  1.4923  1.5369
   57ACTN    H6 1023   4.623   4.771   6.664  1.4607 -0.2808 -0.5812
   57ACTN    C3 1024   4.626   4.863   6.723  0.2208 -0.0508 -0.8720
   57ACTN    H4 1025   4.595   4.948   6.661 -1.4621  0.8869  1.1720
   57ACTN    H5 1026   4.549   4.868   6.801  1.8584 -1.3031  0.8563
   57ACTN    C2 1027   4.760   4.898   6.770  0.7474 -0.0755 -0.2623
   57ACTN    O1 1028   4.848   4.817   6.777 -0.7226  0.4838 -0.2816
   57ACTN    C1 1029   4.779   5.041   6.825 -0.4772 -0.4398  0.0680
   57ACTN    H1 1030   4.809   5.105   6.742  0.3583 -1.7235 -0.6411
   57ACTN    H2 1031   4.870   5.041   6.885  0.0424  0.4635 -0.7084
   57ACTN    H3 1032   4.697   5.080   6.884 -1.3883 -3.4350  0.8871
   58ACTN    H6 1033   6.368   5.169   4.360 -0.2959  0.7789 -0.2418
   58ACTN    C3 1034   6.278   5.110   4.344  0.4043 -0.3271 -0.1703
   58ACTN    H4 1035   6.263   5.117   4.237  1.1248 -1.1045 -0.3183
   58ACTN    H5 1036   6.293   5.007   4.375 -0.0998 -0.8275 -1.5519
   58ACTN    C2 1037   6.177   5.177   4.428 -0.3332  0.5492  0.1503
   58ACTN    O1 1038   6.142   5.294   4.410 -0.2247  0.2593  0.2132
   58ACTN    C1 1039   6.136   5.105   4.552 -0.9535 -0.0610  0.0092
   58ACTN    H1 1040   6.169   5.159   4.640 -1.4804  1.3710 -0.6554
   58ACTN    H2 1041   6.186   5.008   4.557  2.0652  1.2806 -2.5024
   58ACTN    H3 1042   6.028   5.095   4.561 -1.5051  4.1346 -0.7941
   59ACTN    H6 1043   0.556   5.782   5.671 -0.3827 -2.2706 -0.3377
   59ACTN    C3 1044   0.457   5.769   5.715 -0.7064 -0.1370 -0.3737
   59ACTN    H4 1045   0.460   5.673   5.768  1.0190 -1.1903 -2.3359
   59ACTN    H5 1046   0.375   5.755   5.645  0.0756 -0.3372 -1.2521
   59ACTN    C2 1047   0.416   5.873   5.806 -0.0833  0.4110 -0.6222
   59ACTN    O1 1048   0.305   5.928   5.796  0.4749 -0.5533 -0.0216
   59ACTN    C1 1049   0.495   5.884   5.932  1.2165 -0.0292 -0.1604
   59ACTN    H1 1050   0.426   5.852   6.010 -0.7315 -3.7050 -3.2337
   59ACTN    H2 1051   0.525   5.985   5.959 -2.9665  1.0636  0.6492
   59ACTN    H3 1052   0.584   5.822   5.936  0.4740 -1.0306  1.2557
   60ACTN    H6 1053   8.654   2.817   2.937  0.4034  1.0177 -0.1681
   60ACTN    C3 1054   8.606   2.911   2.961 -0.2257  0.7106 -0.2049
   60ACTN    H4 1055   8.509   2.872   2.992 -0.2870 -0.4707 -1.8455
   60ACTN    H5 1056   8.662   2.946   3.048 -0.5088  0.5901  0.0315
   60ACTN    C2 1057   8.593   2.987   2.828 -0.1360  0.3201 -0.1634
   60ACTN    O1 1058   8.639   3.101   2.824 -0.0374 -0.0124 -0.1369
   60ACTN    C1 1059   8.523   2.922   2.713 -0.8866  0.0989 -0.1787
   60ACTN    H1 1060   8.457   2.845   2.752  0.1564 -0.4507  0.5480
   60ACTN    H2 1061   8.591   2.866   2.648  0.7650  2.3684 -0.4758
   60ACTN    H3 1062   8.462   2.990   2.655  1.3017  1.2071 -1.2534
   61ACTN    H6 1063   7.535   0.152   2.674  1.2315  1.2443 -1.6049
   61ACTN    C3 1064   7.579   0.074   2.612  0.3559 -0.7247  0.1826
   61ACTN    H4 1065   7.529   0.087   2.517  0.5388 -0.3320  0.1409
   61ACTN    H5 1066   7.684   0.104   2.602 -0.2046  1.3792  0.5233
   61ACTN    C2 1067   7.569  -0.067   2.666  0.1593 -0.6365  0.6949
   61ACTN    O1 1068   7.556  -0.081   2.787  0.9328  0.3033  0.0303
   61ACTN    C1 1069   7.625  -0.175   2.590  0.4282 -0.4060  0.2420
   61ACTN    H1 1070   7.732  -0.161   2.581  0.4114 -0.5834 -0.2527
   61ACTN    H2 1071   7.568  -0.165   2.498 -0.8758  1.8323  1.2704
   61ACTN    H3 1072   7.601  -0.273   2.633 -0.6120 -0.0737  0.4492
   62ACTN    H6 1073   8.287   0.486   1.117 -0.0441 -0.7004  0.8386
   62ACTN    C3 1074   8.185   0.511   1.089  0.2799  0.1133  0.3575
   62ACTN    H4 1075   8.116   0.428   1.108  3.1806 -1.9262  2.4669
   62ACTN    H5 1076   8.181   0.512   0.980  2.8331 -1.5891  0.2155
   62ACTN    C2 1077   8.133   0.629   1.166 -0.0883 -0.0577 -0.0152
   62ACTN    O1 1078   8.035   0.604   1.236  0.6136  0.0777  0.0892
   62ACTN    C1 1079   8.176   0.774   1.148  0.3038  0.9313  0.0551
   62ACTN    H1 1080   8.247   0.808   1.223 -1.7746 -0.2067  2.5987
   62ACTN    H2 1081   8.090   0.840   1.142 -0.3669  0.2428  2.0069
   62ACTN    H3 1082   8.235   0.779   1.056 -0.6831  1.3969 -0.5611
   63ACTN    H6 1083   2.612   5.835   6.540 -1.3658  2.7615 -0.7470
   63ACTN    C3 1084   2.542   5.840   6.623 -0.6141 -0.1574  0.1376
   63ACTN    H4 1085   2.466   5.908   6.585  0.2935 -0.6897 -2.7666
   63ACTN    H5 1086   2.499   5.741   6.637 -0.2845 -1.0016 -4.1496
   63ACTN    C2 1087   2.609   5.897   6.744  0.6326  0.5735 -0.2199
   63ACTN    O1 1088   2.728   5.880   6.767  0.6073 -0.2612  0.8292
   63ACTN    C1 1089   2.514   5.921   6.855  0.3816  0.3539  0.3349
   63ACTN    H1 1090   2.470   5.832   6.900  0.6076 -0.6587 -1.3966
   63ACTN    H2 1091   2.436   5.981   6.807  0.4646  0.3609  0.2056
   63ACTN    H3 1092   2.559   5.984   6.931 -0.4070 -0.8170  1.7805
   64ACTN    H6 1093   2.309   8.923   0.258  0.8272 -0.4271  0.3826
   64ACTN    C3 1094   2.231   8.847   0.267 -0.0023  0.2647 -0.7070
   64ACTN    H4 1095   2.192   8.845   0.166  1.9156  1.5149 -1.5157
   64ACTN    H5 1096   2.271   8.748   0.292  0.1794  0.7548  1.0318
   64ACTN    C2 1097   2.128   8.887   0.359 -0.0428  0.9997  0.5089
   64ACTN    O1 1098   2.153   8.976   0.437  0.1906  0.2250 -0.0435
   64ACTN    C1 1099   2.005   8.809   0.373  0.0894 -0.4539 -0.2082
   64ACTN    H1 1100   1.947   8.817   0.281 -2.0857  0.6435  1.2019
   64ACTN    H2 1101   1.943   8.848   0.454  1.6660  2.5818 -0.3959
   64ACTN    H3 1102   2.024   8.705   0.398  2.5817 -0.4332 -1.8345
   65ACTN    H6 1103   4.831   4.444   8.876  2.0853 -1.6386  1.0448
   65ACTN    C3 1104   4.745   4.379   8.890  0.4129  0.3176  0.2647
   65ACTN    H4 1105   4.708   4.352   8.791 -0.1803  3.1428 -0.3193
   65ACTN    H5 1106   4.774   4.288   8.944  3.6152  0.4429 -1.1208
   65ACTN    C2 1107   4.637   4.454   8.961  0.7800 -0.4330 -0.5751
   65ACTN    O1 1108   4.651   4.492   9.076 -0.4751 -0.0774 -0.2341
   65ACTN    C1 1109   4.514   4.495   8.886 -0.1233  0.0830 -0.0167
   65ACTN    H1 1110   4.439   4.531   8.956 -1.3326 -0.1267 -1.1941
   65ACTN    H2 1111   4.477   4.401   8.846 -0.4153  0.0143  0.4117
   65ACTN    H3 1112   4.527   4.567   8.805  2.0205  0.9528  1.0522
   66ACTN    H6 1113   4.764   2.796   3.950 -1.4515 -0.3296 -0.8219
   66ACTN    C3 1114   4.754   2.791   4.059  0.5804 -0.4673 -0.6112
   66ACTN    H4 1115   4.858   2.785   4.091  0.7894  4.7784  0.1915
   66ACTN    H5 1116   4.706   2.883   4.093 -1.1882 -1.3997 -0.5236
   66ACTN    C2 1117   4.654   2.683   4.091  0.5847 -0.0771 -0.5581
   66ACTN    O1 1118   4.685   2.580   4.148  0.1814 -0.0236  0.5520
   66ACTN    C1 1119   4.514   2.708   4.036 -0.1182 -0.3130  0.4474
   66ACTN    H1 1120   4.467   2.613   4.014  1.2697 -0.8693 -0.1780
   66ACTN    H2 1121   4.519   2.767   3.944  0.3362 -0.7496  0.1899
   66ACTN    H3 1122   4.459   2.766   4.110 -2.7924 -0.2840 -1.5082
   67ACTN    H6 1123   6.092   3.742   2.194  3.2057  0.3453  1.9853
   67ACTN    C3 1124   6.123   3.650   2.144  0.2141  0.3184  0.0599
   67ACTN    H4 1125   6.047   3.573   2.155  2.2320 -1.8762 -1.0427
   67ACTN    H5 1126   6.131   3.666   2.036  0.3895 -1.9195 -0.2782
   67ACTN    C2 1127   6.251   3.586   2.200 -0.6028  0.1740 -0.0798
   67ACTN    O1 1128   6.358   3.640   2.186 -0.7319  0.0972  0.4505
   67ACTN    C1 1129   6.239   3.463   2.293  0.0016  0.1474  0.5096
   67ACTN    H1 1130   6.304   3.478   2.379 -0.9360  0.3406  1.1938
   67ACTN    H2 1131   6.261   3.374   2.233 -4.6096  0.2648 -1.5850
   67ACTN    H3 1132   6.136   3.452   2.328  0.3354 -0.2625  1.3817
   68ACTN    H6 1133   6.382   3.858   3.307  0.7811 -1.0694 -0.4099
   68ACTN    C3 1134   6.349   3.874   3.204 -0.4435 -0.2678  0.0926
   68ACTN    H4 1135   6.324   3.976   3.176  0.7895  0.2263  0.7544
   68ACTN    H5 1136   6.432   3.845   3.140 -2.3450  0.4211 -2.7470
   68ACTN    C2 1137   6.226   3.787   3.184  0.4073 -0.1262 -0.3210
   68ACTN    O1 1138   6.239   3.672   3.149  0.1596 -0.3572 -0.4114
   68ACTN    C1 1139   6.105   3.865   3.213 -0.4616  0.1148 -0.1475
   68ACTN    H1 1140   6.133   3.941   3.286 -0.4159  0.2532 -0.3071
   68ACTN    H2 1141   6.022   3.802   3.244 -0.1851 -0.2189 -0.0886
   68ACTN    H3 1142   6.075   3.915   3.121  0.5102  1.2375  0.1249
   69ACTN    H6 1143   2.663   0.295   3.224 -1.3107 -0.1331  0.2983
   69ACTN    C3 1144   2.656   0.402   3.204 -0.0051 -0.0848  0.0867
   69ACTN    H4 1145   2.554   0.438   3.213 -0.3225 -0.4492 -1.8262
   69ACTN    H5 1146   2.717   0.457   3.275  0.1448  0.0714 -0.1619
   69ACTN    C2 1147   2.711   0.450   3.068 -0.2705  0.6274  0.4499
   69ACTN    O1 1148   2.776   0.370   3.003 -0.9251 -0.0342  0.5818
   69ACTN    C1 1149   2.696   0.588   3.010  0.3453  0.2667 -0.0285
   69ACTN    H1 1150   2.636   0.577   2.919  1.0949 -0.8199 -0.4025
   69ACTN    H2 1151   2.794   0.624   2.979  0.2499 -1.1246 -2.0788
   69ACTN    H3 1152   2.646   0.662   3.072  0.1314 -0.5664  0.7939
   70ACTN    H6 1153   3.429   3.482   5.507  1.2302  0.2714  0.0742
   70ACTN    C3 1154   3.359   3.543   5.450  0.3846 -0.1793  0.6306
   70ACTN    H4 1155   3.276   3.478   5.424  0.4519  0.1210 -0.3552
   70ACTN    H5 1156   3.315   3.617   5.518 -0.5838 -1.4045  1.3494
   70ACTN    C2 1157   3.416   3.604   5.324  0.8933 -0.6792 -0.2864
   70ACTN    O1 1158   3.507   3.687   5.341  0.2790 -0.0974 -0.1413
   70ACTN    C1 1159   3.352   3.588   5.188  0.2033  0.3964  0.3557
   70ACTN    H1 1160   3.387   3.493   5.148 -0.6808 -0.6008  1.9187
   70ACTN    H2 1161   3.370   3.671   5.118 -0.1218  2.0068  2.1397
   70ACTN    H3 1162   3.246   3.583   5.210 -0.3442  1.5508 -1.8597
   71ACTN    H6 1163   5.286   2.280   2.950  1.3332  1.9314  2.1954
   71ACTN    C3 1164   5.252   2.367   2.893 -0.7197 -0.1978  0.0493
   71ACTN    H4 1165   5.152   2.356   2.851 -1.0248 -2.7481  1.3155
   71ACTN    H5 1166   5.325   2.379   2.813  1.1447 -2.2021  1.3823
   71ACTN    C2 1167   5.257   2.488   2.989 -0.6770 -0.0895  0.6487
   71ACTN    O1 1168   5.357   2.501   3.065 -0.3431 -0.1402  0.0542
   71ACTN    C1 1169   5.158   2.596   2.978 -0.2153 -0.4148  0.3692
   71ACTN    H1 1170   5.126   2.635   3.075  0.7053 -1.2107  1.0011
   71ACTN    H2 1171   5.074   2.551   2.925  1.7875 -4.0933  0.1466
   71ACTN    H3 1172   5.189   2.678   2.914 -0.6467 -0.5128  0.0272
   72ACTN    H6 1173   6.440   7.960   5.865 -0.8094 -1.0340 -0.0094
   72ACTN    C3 1174   6.503   7.918   5.787 -0.0138 -0.6517  0.4174
   72ACTN    H4 1175   6.597   7.972   5.778 -0.6656  0.4384  0.1591
   72ACTN    H5 1176   6.535   7.818   5.817 -1.9933 -0.9848  1.5195
   72ACTN    C2 1177   6.446   7.913   5.652  0.1204  0.4632  0.1981
   72ACTN    O1 1178   6.454   7.810   5.589 -0.1924 -0.2908  0.4902
   72ACTN    C1 1179   6.399   8.042   5.589  0.1976  0.0372 -0.2888
   72ACTN    H1 1180   6.292   8.049   5.571  0.1090 -1.4861 -0.4089
   72ACTN    H2 1181   6.447   8.048   5.491  1.1296 -3.2478 -0.0933
   72ACTN    H3 1182   6.433   8.132   5.642 -0.3283 -0.4626  0.9038
   73ACTN    H6 1183   1.360   0.188   1.997  0.0557  0.2147  1.6679
   73ACTN    C3 1184   1.279   0.248   1.955  0.0968 -0.5924  0.4051
   73ACTN    H4 1185   1.191   0.186   1.935 -0.4106  0.7722 -1.7147
   73ACTN    H5 1186   1.251   0.317   2.034  0.5641  0.0256  0.0307
   73ACTN    C2 1187   1.327   0.307   1.826 -0.4684 -0.0812 -0.0327
   73ACTN    O1 1188   1.392   0.410   1.822 -0.8488 -0.9421  0.1542
   73ACTN    C1 1189   1.284   0.247   1.688  0.5349 -1.1037  0.4361
   73ACTN    H1 1190   1.299   0.139   1.695  2.4551 -0.9627 -1.1882
   73ACTN    H2 1191   1.348   0.282   1.608  0.9968 -0.3055  1.1469
   73ACTN    H3 1192   1.180   0.264   1.659  0.7228 -0.3435  0.1948
   74ACTN    H6 1193   7.160   5.237   2.333  1.8887  0.0777  1.4374
   74ACTN    C3 1194   7.182   5.344   2.332 -0.6575  0.6377  0.2521
   74ACTN    H4 1195   7.210   5.370   2.434  2.7826 -0.9922 -0.2070
   74ACTN    H5 1196   7.264   5.372   2.266 -0.7651 -0.3916 -0.3349
   74ACTN    C2 1197   7.064   5.441   2.312  0.2066  0.1530 -0.2731
   74ACTN    O1 1198   6.965   5.406   2.246 -0.3922 -0.1983  0.2696
   74ACTN    C1 1199   7.064   5.584   2.353  0.5616 -0.4160 -0.1701
   74ACTN    H1 1200   6.972   5.633   2.321  1.5625  0.8460 -1.1455
   74ACTN    H2 1201   7.143   5.629   2.294  0.6776 -1.0542 -0.5064
   74ACTN    H3 1202   7.087   5.594   2.459  2.7593 -0.0142 -0.6612
   75ACTN    H6 1203   6.735   2.764   3.783  0.7515  0.1608 -0.8279
   75ACTN    C3 1204   6.678   2.751   3.692 -0.7180 -0.2846  0.1302
   75ACTN    H4 1205   6.693   2.842   3.633  1.5437  0.6790  2.0979
   75ACTN    H5 1206   6.725   2.674   3.630  0.3693 -1.4928  2.4135
   75ACTN    C2 1207   6.537   2.716   3.705  0.0815 -0.2398  0.7497
   75ACTN    O1 1208   6.453   2.803   3.726  0.2599  0.7558 -0.3328
   75ACTN    C1 1209   6.494   2.574   3.675 -0.0007 -0.6155 -0.4821
   75ACTN    H1 1210   6.574   2.509   3.641  2.4669  1.5029  1.1400
   75ACTN    H2 1211   6.414   2.562   3.602 -1.6973 -0.0666  1.2182
   75ACTN    H3 1212   6.451   2.532   3.767 -0.1801 -0.0405 -0.2958
   76ACTN    H6 1213   6.586   1.978   2.570 -0.0640  0.6896 -0.5714
   76ACTN    C3 1214   6.492   1.928   2.545  0.1326  0.0855 -0.1048
   76ACTN    H4 1215   6.506   1.822   2.567 -0.1438  0.5016  2.2015
   76ACTN    H5 1216   6.423   1.969   2.619 -0.1348  1.2456 -0.9824
   76ACTN    C2 1217   6.448   1.951   2.400 -0.3637 -0.2606 -0.4714
   76ACTN    O1 1218   6.478   2.043   2.327  0.6882 -0.5514 -0.3553
   76ACTN    C1 1219   6.362   1.839   2.351  0.2743  0.6884 -0.1079
   76ACTN    H1 1220   6.272   1.879   2.305  1.8277  2.5341 -1.6249
   76ACTN    H2 1221   6.343   1.768   2.432  0.8031  2.0550  1.2531
   76ACTN    H3 1222   6.424   1.786   2.278  0.1491  1.0967 -0.5081
   77ACTN    H6 1223   1.070   8.406   5.254 -0.3235  1.3740  0.7889
   77ACTN    C3 1224   1.146   8.444   5.186 -0.3347 -0.0034 -0.0066
   77ACTN    H4 1225   1.147   8.401   5.085  1.6766  1.3473 -0.5906
   77ACTN    H5 1226   1.126   8.550   5.170  0.6482 -0.1290 -2.2882
   77ACTN    C2 1227   1.280   8.438   5.254 -0.2341  0.0535  0.0162
   77ACTN    O1 1228   1.316   8.507   5.349  0.0451  0.0697 -0.5105
   77ACTN    C1 1229   1.361   8.316   5.227  0.2262  1.1384  0.4664
   77ACTN    H1 1230   1.462   8.321   5.268  0.1253  0.7339  0.7601
   77ACTN    H2 1231   1.369   8.287   5.122 -0.1535  0.3286  0.6641
   77ACTN    H3 1232   1.310   8.234   5.276 -1.0791  0.3134 -2.1506
   78ACTN    H6 1233   0.832   7.213   5.645  0.8988  0.2436 -0.7702
   78ACTN    C3 1234   0.800   7.207   5.541  0.4983 -0.1635 -0.6248
   78ACTN    H4 1235   0.832   7.109   5.503  1.3759 -0.2664  0.3625
   78ACTN    H5 1236   0.692   7.217   5.532  0.1957 -2.2696  0.3432
   78ACTN    C2 1237   0.869   7.303   5.458  0.4110  0.2325  0.6499
   78ACTN    O1 1238   0.821   7.342   5.354  0.1473 -0.2010  0.0211
   78ACTN    C1 1239   0.997   7.373   5.503 -0.0763 -0.3785  0.2491
   78ACTN    H1 1240   0.992   7.475   5.541  0.4824 -0.5938  0.9137
   78ACTN    H2 1241   1.079   7.370   5.432 -0.7553 -0.6416 -0.5326
   78ACTN    H3 1242   1.018   7.332   5.602  1.3359 -0.7654 -0.2063
   79ACTN    H6 1243   4.717   2.462   3.777  0.2799 -0.5132 -0.3451
   79ACTN    C3 1244   4.781   2.476   3.690  0.0650 -1.0545 -0.5930
   79ACTN    H4 1245   4.880   2.452   3.728 -1.0302  0.3787  3.3841
   79ACTN    H5 1246   4.747   2.406   3.613  0.4205 -1.8746 -0.0068
   79ACTN    C2 1247   4.789   2.625   3.649  0.3626  0.0685  0.2036
   79ACTN    O1 1248   4.723   2.706   3.707  0.1638 -0.6813 -0.1363
   79ACTN    C1 1249   4.896   2.669   3.554  0.6433  0.2209 -0.1611
   79ACTN    H1 1250   4.979   2.702   3.616  1.2936 -1.3180 -0.2103
   79ACTN    H2 1251   4.869   2.759   3.498  0.7782  1.1979  1.2941
   79ACTN    H3 1252   4.907   2.585   3.486 -1.9011 -1.0123  0.9057
   80ACTN    H6 1253   8.510   1.031   7.474  0.8128 -3.1638  0.8773
   80ACTN    C3 1254   8.413   1.011   7.428  0.2414 -0.0096  0.6476
   80ACTN    H4 1255   8.342   1.093   7.442  1.1368  0.8918 -0.0024
   80ACTN    H5 1256   8.437   1.005   7.322  0.4381 -1.9136  0.7874
   80ACTN    C2 1257   8.362   0.882   7.478  0.7609  0.3403  0.4744
   80ACTN    O1 1258   8.332   0.796   7.401 -0.2747 -0.1314  0.0835
   80ACTN    C1 1259   8.334   0.878   7.626  0.0892 -0.3933 -0.0742
   80ACTN    H1 1260   8.226   0.865   7.636  0.3326 -2.0580  0.5820
   80ACTN    H2 1261   8.366   0.964   7.685 -1.6499  1.0039 -1.1215
   80ACTN    H3 1262   8.383   0.786   7.660  1.1605 -0.4017 -1.5827
   81ACTN    H6 1263   4.086   3.141   3.856  0.1042  1.9998  1.5199
   81ACTN    C3 1264   4.118   3.065   3.926  0.2644  0.4411 -0.2057
   81ACTN    H4 1265   4.194   3.105   3.993  0.5545 -0.3594 -0.0470
   81ACTN    H5 1266   4.036   3.025   3.986  2.0872 -2.1005  0.7356
   81ACTN    C2 1267   4.173   2.947   3.844  0.3424  0.3990 -0.8295
   81ACTN    O1 1268   4.274   2.894   3.883 -0.3428 -1.0047  0.0989
   81ACTN    C1 1269   4.107   2.905   3.717 -0.2470 -0.4081 -0.8269
   81ACTN    H1 1270   4.054   2.814   3.744  0.4225 -0.3629  0.6791
   81ACTN    H2 1271   4.184   2.884   3.643 -0.5033  0.2508 -1.2883
   81ACTN    H3 1272   4.030   2.969   3.673 -2.3166 -1.6537  0.8955
   82ACTN    H6 1273   3.758   7.427   0.890 -0.9512  0.0748 -1.2832
   82ACTN    C3 1274   3.736   7.321   0.879  0.3493 -0.3537  0.0005
   82ACTN    H4 1275   3.825   7.268   0.848  0.7294  0.3471 -0.1106
   82ACTN    H5 1276   3.704   7.278   0.974 -0.7898 -1.1346 -0.7063
   82ACTN    C2 1277   3.634   7.292   0.776  0.0728 -0.2560  0.1555
   82ACTN    O1 1278   3.644   7.219   0.677  0.2989  0.8158 -0.2161
   82ACTN    C1 1279   3.505   7.362   0.809  0.3643 -0.2595  0.2609
   82ACTN    H1 1280   3.419   7.296   0.804  0.7943 -0.7651 -0.4685
   82ACTN    H2 1281   3.496   7.451   0.747  4.6231 -1.1282 -1.8066
   82ACTN    H3 1282   3.504   7.399   0.912 -0.6561 -1.6644  0.7811
   83ACTN    H6 1283   5.261   5.524   3.074  0.1069 -0.3699  0.1020
   83ACTN    C3 1284   5.256   5.543   2.966  0.1222  0.0444  0.1738
   83ACTN    H4 1285   5.156   5.576   2.938  0.5943 -0.1445 -1.7869
   83ACTN    H5 1286   5.326   5.624   2.944 -0.6046  0.2512 -1.3917
   83ACTN    C2 1287   5.303   5.423   2.892  0.2405  0.4464 -0.3053
   83ACTN    O1 1288   5.237   5.386   2.793  0.4403  0.1651  0.2534
   83ACTN    C1 1289   5.401   5.334   2.952  0.5555 -0.4188  0.3737
   83ACTN    H1 1290   5.479   5.335   2.875 -0.4290  1.8431 -0.6394
   83ACTN    H2 1291   5.365   5.231   2.946  0.2592 -0.2303 -1.4913
   83ACTN    H3 1292   5.438   5.367   3.049 -1.4769  2.3096  0.2548
   84ACTN    H6 1293   6.306   5.496   0.478 -0.7655  0.7915  1.9933
   84ACTN    C3 1294   6.389   5.559   0.447 -0.5118 -0.1266  0.7429
   84ACTN    H4 1295   6.339   5.653   0.421 -0.3982 -0.5863 -1.1776
   84ACTN    H5 1296   6.452   5.582   0.533  0.7376 -1.6496  0.2530
   84ACTN    C2 1297   6.467   5.502   0.333 -0.0799  0.0909  0.2703
   84ACTN    O1 1298   6.534   5.565   0.251  0.0525 -0.3284  0.4501
   84ACTN    C1 1299   6.447   5.360   0.322  0.9501  0.4107 -0.0217
   84ACTN    H1 1300   6.340   5.342   0.318  0.7650  1.6499 -0.6254
   84ACTN    H2 1301   6.480   5.310   0.414 -0.0289  0.9352  0.6171
   84ACTN    H3 1302   6.491   5.291   0.250  4.6380  1.7442  0.8509
   85ACTN    H6 1303   0.637   6.090   4.249  3.9414  0.8995  0.1274
   85ACTN    C3 1304   0.625   6.155   4.162  0.7849 -0.2327 -0.3719
   85ACTN    H4 1305   0.697   6.131   4.083  2.6780  2.3745  0.4761
   85ACTN    H5 1306   0.525   6.141   4.122  0.0039 -3.1486  2.3344
   85ACTN    C2 1307   0.638   6.303   4.192 -0.5300 -0.4127  0.2738
   85ACTN    O1 1308   0.578   6.389   4.124 -0.0601  0.7443  0.2364
   85ACTN    C1 1309   0.704   6.352   4.312  0.6492 -0.6037  1.2842
   85ACTN    H1 1310   0.770   6.272   4.344  0.5627 -1.2895 -0.2218
   85ACTN    H2 1311   0.623   6.367   4.384  0.0338 -1.5809  0.8033
   85ACTN    H3 1312   0.760   6.445   4.299 -0.4390 -0.0997  0.0324
   86ACTN    H6 1313   5.911   1.984   1.633  0.0972  0.7670 -0.0082
   86ACTN    C3 1314   5.871   1.930   1.719  0.1603  0.5362 -0.1240
   86ACTN    H4 1315   5.782   1.872   1.699  0.1466  0.0763  1.2222
   86ACTN    H5 1316   5.949   1.858   1.744 -2.6037 -2.3890  0.4289
   86ACTN    C2 1317   5.849   2.017   1.841 -0.2264 -0.3144 -0.2983
   86ACTN    O1 1318   5.866   2.139   1.834  0.2067 -0.2711 -0.3391
   86ACTN    C1 1319   5.841   1.952   1.977 -0.3417  0.5470 -0.9380
   86ACTN    H1 1320   5.753   1.887   1.971  0.2824 -0.6321  1.9378
   86ACTN    H2 1321   5.831   2.024   2.058  0.5949  0.7097 -0.9641
   86ACTN    H3 1322   5.929   1.891   1.993 -0.4131  0.7360  0.1585
   87ACTN    H6 1323   5.754   8.872   6.138 -1.2951  0.3281  0.0901
   87ACTN    C3 1324   5.734   8.979   6.141 -0.8860  0.4134 -0.0998
   87ACTN    H4 1325   5.644   8.994   6.201 -0.2042  2.4207  0.4774
   87ACTN    H5 1326   5.819   9.022   6.194 -0.2856  0.8303 -1.3789
   87ACTN    C2 1327   5.713   9.035   6.003 -0.3128  0.4158 -0.2758
   87ACTN    O1 1328   5.661   9.144   5.993 -0.4873 -0.5770 -0.6578
   87ACTN    C1 1329   5.800   8.987   5.890  0.0646  0.0299 -0.1929
   87ACTN    H1 1330   5.770   9.016   5.789  1.4216  0.9644 -0.3312
   87ACTN    H2 1331   5.816   8.879   5.900  1.8530  0.2882 -0.1654
   87ACTN    H3 1332   5.900   9.028   5.901  0.2197  0.0154 -1.4805
   88ACTN    H6 1333   8.262   2.981   7.182 -0.1480  0.9536 -0.6463
   88ACTN    C3 1334   8.169   3.030   7.211 -0.1266  0.8852 -0.4577
   88ACTN    H4 1335   8.137   3.089   7.125  0.6095  0.4777 -1.0087
   88ACTN    H5 1336   8.088   2.959   7.227 -0.3097  0.8862 -1.3443
   88ACTN    C2 1337   8.181   3.117   7.329 -0.3922  0.8196 -0.2210
   88ACTN    O1 1338   8.214   3.233   7.314 -0.1554 -0.2121 -0.1444
   88ACTN    C1 1339   8.135   3.066   7.463 -0.1895 -0.1134  0.1171
   88ACTN    H1 1340   8.096   2.965   7.457 -0.0626 -0.0700 -1.9057
   88ACTN    H2 1341   8.050   3.118   7.506 -0.3436 -0.0725 -0.2278
   88ACTN    H3 1342   8.213   3.065   7.539  0.3032  1.1425 -0.3525
   89ACTN    H6 1343   2.521   0.735   3.610  0.2891  2.7605 -0.1466
   89ACTN    C3 1344   2.525   0.729   3.502  0.9479 -0.0522 -0.0128
   89ACTN    H4 1345   2.560   0.828   3.472  0.4737  0.6547  1.7048
   89ACTN    H5 1346   2.606   0.660   3.479  2.8444  2.0827  0.1028
   89ACTN    C2 1347   2.392   0.701   3.448 -0.9186 -0.3167 -0.1066
   89ACTN    O1 1348   2.291   0.739   3.498  0.1616  0.3964 -0.0328
   89ACTN    C1 1349   2.373   0.650   3.309  0.3809 -0.0229  0.2189
   89ACTN    H1 1350   2.392   0.542   3.310 -0.0644 -0.1100 -0.2639
   89ACTN    H2 1351   2.451   0.694   3.246  1.0481 -3.0367 -1.2065
   89ACTN    H3 1352   2.277   0.664   3.259  0.5840 -0.1384 -0.2090
   90ACTN    H6 1353   0.112   8.704   4.221  0.4517  0.6868  0.7046
   90ACTN    C3 1354   0.039   8.714   4.301  0.0718  0.0236  0.4467
   90ACTN    H4 1355  -0.000   8.815   4.314  0.7664  0.0154  2.7843
   90ACTN    H5 1356  -0.031   8.633   4.280 -0.4541  1.0523 -1.9431
   90ACTN    C2 1357   0.128   8.678   4.415 -0.6850  0.1532  0.3164
   90ACTN    O1 1358   0.147   8.751   4.512 -0.2369 -0.1039 -0.3085
   90ACTN    C1 1359   0.155   8.528   4.422 -0.7197  0.0455 -0.4067
   90ACTN    H1 1360   0.068   8.474   4.460 -0.3097 -0.6763 -0.4983
   90ACTN    H2 1361   0.234   8.483   4.481  0.1295 -0.9840 -2.2881
   90ACTN    H3 1362   0.180   8.494   4.322  1.5833  2.2498 -0.6131
   91ACTN    H6 1363   7.671   7.473   5.277 -0.2740  0.6094 -0.1912
   91ACTN    C3 1364   7.630   7.547   5.346 -0.1387  0.1118  0.4286
   91ACTN    H4 1365   7.707   7.608   5.395 -0.3865 -0.4446  1.5186
   91ACTN    H5 1366   7.571   7.619   5.289  0.9476 -0.3749 -1.3552
   91ACTN    C2 1367   7.558   7.479   5.456 -0.1021 -0.0019 -0.0987
   91ACTN    O1 1368   7.570   7.516   5.574  0.5279 -0.2242 -0.4221
   91ACTN    C1 1369   7.436   7.399   5.416 -0.3768  0.5861  0.3313
   91ACTN    H1 1370   7.465   7.300   5.380 -1.5981  0.4253 -0.2414
   91ACTN    H2 1371   7.380   7.456   5.342  0.5118  1.6478  0.4601
   91ACTN    H3 1372   7.378   7.392   5.508 -0.3292  1.4516  0.4314
   92ACTN    H6 1373   3.015   0.967   4.069 -1.2534 -0.2595 -1.4637
   92ACTN    C3 1374   2.922   0.965   4.125 -0.2203 -0.1964  0.2951
   92ACTN    H4 1375   2.834   0.976   4.061  0.2545 -0.2268 -0.3717
   92ACTN    H5 1376   2.907   0.866   4.169 -1.7906  1.3451  3.3633
   92ACTN    C2 1377   2.923   1.069   4.230  0.1873  0.1066 -0.4871
   92ACTN    O1 1378   2.838   1.161   4.228 -0.0317  0.2365 -0.3022
   92ACTN    C1 1379   3.002   1.040   4.354 -0.6565  0.3151  0.9529
   92ACTN    H1 1380   2.944   0.970   4.413  0.5454 -2.0737 -0.6230
   92ACTN    H2 1381   3.031   1.128   4.411  1.5404  0.9494 -1.0337
   92ACTN    H3 1382   3.095   0.983   4.341 -1.2332 -0.4797  0.2392
   93ACTN    H6 1383   1.419   2.320   2.890  0.2033  2.7697 -2.5762
   93ACTN    C3 1384   1.351   2.253   2.838  0.6929 -0.1725  0.3786
   93ACTN    H4 1385   1.253   2.280   2.878  0.3950  0.2710 -0.6016
   93ACTN    H5 1386   1.349   2.295   2.737 -3.5109 -0.8281  0.1057
   93ACTN    C2 1387   1.396   2.116   2.847  0.1374  0.8765  0.9688
   93ACTN    O1 1388   1.519   2.099   2.834 -0.0761 -0.3407  1.1718
   93ACTN    C1 1389   1.288   2.016   2.862  0.5189 -0.4533 -0.2609
   93ACTN    H1 1390   1.333   1.917   2.855  2.4339  0.4545 -1.2013
   93ACTN    H2 1391   1.221   2.021   2.777 -0.2109  0.9953  0.3815
   93ACTN    H3 1392   1.235   2.039   2.954  1.4074  0.6532 -0.0087
   94ACTN    H6 1393   5.235   1.430   0.968 -0.6106 -0.2327 -1.0316
   94ACTN    C3 1394   5.221   1.532   0.931 -0.4533  0.4654  0.7355
   94ACTN    H4 1395   5.318   1.582   0.927 -0.3728  0.2517 -0.4447
   94ACTN    H5 1396   5.161   1.596   0.995 -1.4436 -0.7359  1.0219
   94ACTN    C2 1397   5.159   1.523   0.791 -0.0039  0.2229 -0.0433
   94ACTN    O1 1398   5.133   1.417   0.730 -0.2432  0.7132 -0.8707
   94ACTN    C1 1399   5.120   1.649   0.727  0.1297 -0.7068  0.2575
   94ACTN    H1 1400   5.128   1.726   0.803  0.8695 -0.1022 -0.4218
   94ACTN    H2 1401   5.013   1.642   0.705  0.1081  1.2071 -0.3286
   94ACTN    H3 1402   5.175   1.679   0.637  0.1461 -1.2888  0.0675
   95ACTN    H6 1403   4.800   5.199   2.998  0.7810  0.4428 -2.1795
   95ACTN    C3 1404   4.782   5.093   2.982  0.4538  0.1375  0.0259
   95ACTN    H4 1405   4.752   5.081   2.878 -2.3445 -0.4898  0.8710
   95ACTN    H5 1406   4.875   5.037   2.997 -0.0572 -0.5812  0.5791
   95ACTN    C2 1407   4.674   5.035   3.070 -1.4005 -0.1432 -0.2331
   95ACTN    O1 1408   4.603   4.941   3.029 -0.6740 -0.6198 -0.0315
   95ACTN    C1 1409   4.671   5.083   3.210 -0.0472  0.2476  0.7860
   95ACTN    H1 1410   4.758   5.140   3.241  1.7341 -2.5710  1.1362
   95ACTN    H2 1411   4.666   4.992   3.270  2.2328  0.5567  1.4897
   95ACTN    H3 1412   4.576   5.136   3.224 -1.2521 -1.5713 -0.2930
   96ACTN    H6 1413   4.837   3.136   8.787 -1.3840 -1.6687  2.8333
   96ACTN    C3 1414   4.848   3.216   8.861  0.5009  0.6639  0.1438
   96ACTN    H4 1415   4.830   3.310   8.809  2.2988  1.4503  0.8969
   96ACTN    H5 1416   4.777   3.190   8.939 -0.0304 -2.0351 -1.1706
   96ACTN    C2 1417   4.983   3.211   8.922 -0.2969 -0.0307  0.3974
   96ACTN    O1 1418   5.081   3.251   8.862  0.1902 -0.0085  0.0737
   96ACTN    C1 1419   4.998   3.182   9.069  0.1966  0.1929 -0.0199
   96ACTN    H1 1420   5.045   3.250   9.141  0.7019 -1.5542  1.3409
   96ACTN    H2 1421   5.044   3.083   9.062 -2.4466 -0.9036 -3.3055
   96ACTN    H3 1422   4.896   3.165   9.104  0.3978  0.5227  0.7366
   97ACTN    H6 1423   6.110   1.497   5.749  0.8072  2.1473  1.1551
   97ACTN    C3 1424   6.104   1.445   5.845  0.6226  0.2647  0.1443
   97ACTN    H4 1425   6.168   1.495   5.917  2.6746 -1.9234 -0.1081
   97ACTN    H5 1426   6.002   1.450   5.884 -0.2043  0.4225 -1.9182
   97ACTN    C2 1427   6.159   1.311   5.828  0.3650 -0.3794 -0.4657
   97ACTN    O1 1428   6.199   1.259   5.934  0.1631 -0.5092  0.8451
   97ACTN    C1 1429   6.105   1.209   5.726 -0.1037 -1.0066  0.4702
   97ACTN    H1 1430   6.114   1.109   5.769  1.1202 -0.2394  2.0716
   97ACTN    H2 1431   6.157   1.219   5.631 -0.3186 -0.9323  0.3614
   97ACTN    H3 1432   5.999   1.223   5.710  0.0836  0.2338  0.2796
   98ACTN    H6 1433   8.449   0.745   8.499 -1.3061  0.5192 -0.8540
   98ACTN    C3 1434   8.524   0.815   8.463  0.1284 -0.4009  0.2750
   98ACTN    H4 1435   8.621   0.793   8.508  0.0904 -1.9875 -0.4008
   98ACTN    H5 1436   8.538   0.799   8.356 -1.3457 -1.9902  0.3050
   98ACTN    C2 1437   8.487   0.960   8.489  0.1579  0.1960 -0.6342
   98ACTN    O1 1438   8.449   1.031   8.395 -0.1564  0.4031  0.1010
   98ACTN    C1 1439   8.505   1.019   8.623  0.1193  0.2353  1.0180
   98ACTN    H1 1440   8.540   0.940   8.690  0.8540  0.4280  0.8518
   98ACTN    H2 1441   8.408   1.054   8.659 -1.9217 -3.1958 -0.8656
   98ACTN    H3 1442   8.571   1.104   8.636  2.4445 -1.2985 -0.4837
   99ACTN    H6 1443   3.258   5.064   6.165 -0.7775 -1.6790 -1.0353
   99ACTN    C3 1444   3.176   5.058   6.236 -0.0720 -0.4401 -0.0949
   99ACTN    H4 1445   3.099   5.118   6.187  0.8526 -1.1901 -2.5710
   99ACTN    H5 1446   3.148   4.953   6.229  0.0338 -0.3531 -2.3847
   99ACTN    C2 1447   3.218   5.107   6.370 -0.6043 -0.1798  0.7881
   99ACTN    O1 1448   3.164   5.058   6.468  0.3158 -0.2312 -0.6205
   99ACTN    C1 1449   3.335   5.204   6.373  0.3429  0.0291 -0.0667
   99ACTN    H1 1450   3.429   5.163   6.338  0.8241  0.4102  0.7418
   99ACTN    H2 1451   3.335   5.239   6.477 -2.1376  1.5889 -0.5636
   99ACTN    H3 1452   3.312   5.294   6.316  0.7407 -0.1335 -0.4807
  100ACTN    H6 1453   0.879   4.875   7.530  0.8236  0.5527 -1.3532
  100ACTN    C3 1454   0.784   4.826   7.508  0.7200  0.1711 -0.1056
  100ACTN    H4 1455   0.758   4.763   7.592  0.6316 -2.0019 -1.7235
  100ACTN    H5 1456   0.699   4.890   7.481  1.3193  0.0592 -2.3433
  100ACTN    C2 1457   0.802   4.738   7.390 -0.1665  0.6166  0.2294
  100ACTN    O1 1458   0.720   4.742   7.302  0.4923  0.1253 -0.3307
  100ACTN    C1 1459   0.903   4.625   7.387  0.4375 -0.1864  0.2835
  100ACTN    H1 1460   0.897   4.587   7.285  0.1089 -0.7740  0.5184
  100ACTN    H2 1461   0.883   4.540   7.452  2.0117 -2.4996 -2.1643
  100ACTN    H3 1462   1.002   4.670   7.398 -0.4139  1.1248  3.3662
  101ACTN    H6 1463   5.200   6.806   0.960 -0.2134 -2.5082  1.2522
  101ACTN    C3 1464   5.091   6.809   0.963 -0.1857  0.2263  0.8459
  101ACTN    H4 1465   5.042   6.824   1.060 -1.7110  1.2179 -0.0527
  101ACTN    H5 1466   5.057   6.889   0.897  2.0210 -0.7137 -1.5046
  101ACTN    C2 1467   5.031   6.685   0.901 -0.8032  0.5582  0.3505
  101ACTN    O1 1468   5.030   6.584   0.969  0.1400  0.1907  0.0559
  101ACTN    C1 1469   4.995   6.680   0.753  0.3754 -0.0375 -0.1034
  101ACTN    H1 1470   4.988   6.781   0.712 -3.0782  0.4837  1.5584
  101ACTN    H2 1471   4.894   6.644   0.738 -0.4691  1.4492  1.7274
  101ACTN    H3 1472   5.059   6.616   0.692  1.6628 -0.6268  1.8075
  102ACTN    H6 1473   4.093   6.951   4.084  0.7825  0.2823  0.3834
  102ACTN    C3 1474   4.171   6.885   4.047 -0.5872 -0.7766 -0.6343
  102ACTN    H4 1475   4.236   6.859   4.130 -1.9477  0.8115  0.9628
  102ACTN    H5 1476   4.119   6.797   4.007 -1.6225 -0.3144 -0.3224
  102ACTN    C2 1477   4.241   6.960   3.935  0.5046  0.2719  0.8922
  102ACTN    O1 1478   4.256   6.908   3.825  0.7706  0.1508 -0.6917
  102ACTN    C1 1479   4.292   7.093   3.948 -0.3236 -0.2606 -0.4808
  102ACTN    H1 1480   4.333   7.129   3.854 -2.0830  0.7163 -0.8891
  102ACTN    H2 1481   4.365   7.095   4.029 -2.2244 -1.4636  1.3369
  102ACTN    H3 1482   4.213   7.165   3.972 -0.3089 -0.4434  0.1393
  103ACTN    H6 1483   3.790   3.588   4.065  1.1413  1.8660  0.5263
  103ACTN    C3 1484   3.710   3.621   4.131  0.4390  0.0445  0.6041
  103ACTN    H4 1485   3.724   3.727   4.150 -0.0398 -0.1470  2.1325
  103ACTN    H5 1486   3.617   3.604   4.077  2.1713 -0.4945 -2.3212
  103ACTN    C2 1487   3.700   3.541   4.262  0.2894 -0.4945 -0.5144
  103ACTN    O1 1488   3.619   3.586   4.344 -0.3441  0.7065 -0.1056
  103ACTN    C1 1489   3.801   3.435   4.301 -0.1668 -0.6078  0.4020
  103ACTN    H1 1490   3.781   3.342   4.249  3.6192 -0.2926 -1.8054
  103ACTN    H2 1491   3.792   3.419   4.408 -0.3692  0.4391  0.5503
  103ACTN    H3 1492   3.902   3.456   4.266  0.5362 -2.1605  1.4649
  104ACTN    H6 1493   1.374   6.519   3.893  0.5950 -1.2414  0.1773
  104ACTN    C3 1494   1.304   6.448   3.937 -0.8817 -0.0238 -0.1723
  104ACTN    H4 1495   1.256   6.492   4.024 -0.2028 -1.0252  0.7103
  104ACTN    H5 1496   1.221   6.422   3.870  0.2351 -1.1973 -1.1200
  104ACTN    C2 1497   1.382   6.319   3.966  0.8043 -0.0223 -0.7342
  104ACTN    O1 1498   1.500   6.325   3.992  0.4270  0.0678  0.4578
  104ACTN    C1 1499   1.314   6.185   3.954 -0.2146 -0.3671 -0.2561
  104ACTN    H1 1500   1.206   6.199   3.951  0.1665  3.0453  0.1642
  104ACTN    H2 1501   1.323   6.120   4.041 -1.6640 -2.8904 -1.9063
  104ACTN    H3 1502   1.347   6.137   3.861  0.6147  0.2208 -0.2684
  105ACTN    H6 1503   1.784   8.028   7.781  0.1615 -2.9384  0.5095
  105ACTN    C3 1504   1.685   8.024   7.737  0.4723  0.2633 -0.5576
  105ACTN    H4 1505   1.617   7.952   7.783 -0.4930 -0.0486 -2.4184
  105ACTN    H5 1506   1.642   8.120   7.767 -1.7914 -0.9638  0.2694
  105ACTN    C2 1507   1.684   8.019   7.586  1.0937  1.1115 -0.3173
  105ACTN    O1 1508   1.578   7.978   7.535  0.0905  0.2187  0.2091
  105ACTN    C1 1509   1.792   8.070   7.509 -0.2206 -0.4247 -0.1658
  105ACTN    H1 1510   1.801   8.172   7.548  3.2615 -1.9527  3.3427
  105ACTN    H2 1511   1.769   8.079   7.403 -2.8747 -1.9327  0.2375
  105ACTN    H3 1512   1.886   8.019   7.525 -1.0760 -1.0256  3.3512
  106ACTN    H6 1513   7.179   1.901   3.731  0.4028 -1.9038 -1.5169
  106ACTN    C3 1514   7.210   1.955   3.642  0.3427 -0.0116 -0.3983
  106ACTN    H4 1515   7.318   1.947   3.628  0.5305  0.5963  0.6262
  106ACTN    H5 1516   7.172   2.056   3.659 -1.4994 -0.8430  0.5911
  106ACTN    C2 1517   7.139   1.892   3.521 -0.6852 -0.1612  1.1996
  106ACTN    O1 1518   7.070   1.794   3.536 -0.0747 -0.7820 -0.1522
  106ACTN    C1 1519   7.186   1.916   3.383 -0.6411 -0.6033 -0.2729
  106ACTN    H1 1520   7.285   1.963   3.382  0.0096 -1.9450  0.2567
  106ACTN    H2 1521   7.117   1.985   3.335 -0.3366  1.5957  2.3342
  106ACTN    H3 1522   7.190   1.825   3.324  0.6453 -1.0393  0.4644
  107ACTN    H6 1523   4.565   5.075   2.680 -0.7761 -0.1363  0.1274
  107ACTN    C3 1524   4.521   5.144   2.608  0.8031  0.1185 -0.6213
  107ACTN    H4 1525   4.581   5.235   2.598  1.6911 -0.3602  0.2595
  107ACTN    H5 1526   4.522   5.108   2.505 -1.7442  2.2382 -1.4334
  107ACTN    C2 1527   4.385   5.183   2.655  0.2039  0.0018  0.6409
  107ACTN    O1 1528   4.377   5.266   2.741 -0.3378  0.2146  0.5628
  107ACTN    C1 1529   4.260   5.123   2.599  0.0337 -0.8006  0.4011
  107ACTN    H1 1530   4.269   5.143   2.492 -0.2997  2.6461  0.9543
  107ACTN    H2 1531   4.175   5.176   2.641 -1.0306 -2.2315  0.0710
  107ACTN    H3 1532   4.260   5.015   2.612  1.0470 -0.7587  0.8377
  108ACTN    H6 1533   4.178   3.382   3.654  1.6437  0.0959 -0.5555
  108ACTN    C3 1534   4.145   3.323   3.569  0.9929 -0.3828  0.0240
  108ACTN    H4 1535   4.087   3.235   3.598  0.1101 -0.4243 -1.7753
  108ACTN    H5 1536   4.089   3.388   3.501 -0.0587 -0.3953  0.8653
  108ACTN    C2 1537   4.270   3.270   3.493  0.2580  0.9632 -0.0613
  108ACTN    O1 1538   4.357   3.341   3.447 -0.2818 -0.2835  0.0524
  108ACTN    C1 1539   4.270   3.122   3.481 -0.2870  0.4787  0.1678
  108ACTN    H1 1540   4.253   3.104   3.375 -1.4778 -1.3886  0.6490
  108ACTN    H2 1541   4.190   3.082   3.544 -3.3030  2.7688 -2.0848
  108ACTN    H3 1542   4.366   3.073   3.499  0.4644  1.6856 -0.5350
  109ACTN    H6 1543   5.486   6.967   6.711 -0.9246  0.1496  1.2746
  109ACTN    C3 1544   5.430   6.875   6.699 -0.3923 -0.1441  1.0353
  109ACTN    H4 1545   5.343   6.882   6.633  1.1788  0.1363 -1.0757
  109ACTN    H5 1546   5.503   6.805   6.660  1.4904  1.6913  1.1798
  109ACTN    C2 1547   5.386   6.809   6.826  0.1752 -0.7337 -0.2510
  109ACTN    O1 1548   5.396   6.878   6.926  0.4189 -0.7129 -0.2169
  109ACTN    C1 1549   5.367   6.662   6.832 -0.0867  0.3583  0.4671
  109ACTN    H1 1550   5.269   6.639   6.789  0.7163 -0.9936 -0.6478
  109ACTN    H2 1551   5.374   6.629   6.936 -2.3703  0.9351  0.8407
  109ACTN    H3 1552   5.436   6.607   6.769 -0.1291 -1.2627  1.8084
  110ACTN    H6 1553   8.793   7.033   7.427 -0.7879  1.9817  2.2298
  110ACTN    C3 1554   8.764   6.934   7.463  0.5982  0.5665 -0.3987
  110ACTN    H4 1555   8.698   6.893   7.386 -0.0184 -3.1670  2.0387
  110ACTN    H5 1556   8.855   6.876   7.472  0.7546  0.2159 -3.6085
  110ACTN    C2 1557   8.706   6.934   7.601  0.1581  0.3162 -0.5164
  110ACTN    O1 1558   8.749   6.859   7.689 -0.0863  0.3551 -0.3009
  110ACTN    C1 1559   8.589   7.014   7.624 -0.6302  1.0164 -0.3959
  110ACTN    H1 1560   8.508   6.970   7.565 -1.1631 -0.7018  1.5726
  110ACTN    H2 1561   8.602   7.111   7.577 -0.4899  0.8203 -0.7732
  110ACTN    H3 1562   8.561   7.024   7.728  0.6541 -1.6498  0.2409
  111ACTN    H6 1563   8.571   2.043   3.760 -0.0686 -0.9922  0.2311
  111ACTN    C3 1564   8.498   1.997   3.694 -0.0376 -0.3831 -0.2300
  111ACTN    H4 1565   8.490   1.890   3.713 -0.7585 -0.1997  0.4843
  111ACTN    H5 1566   8.407   2.048   3.727  0.2536  0.7528 -1.1340
  111ACTN    C2 1567   8.520   2.017   3.545 -0.3537 -0.0876  0.8520
  111ACTN    O1 1568   8.624   1.972   3.501  0.7230 -0.5420  0.1240
  111ACTN    C1 1569   8.425   2.109   3.470 -0.0349  0.5762  0.0574
  111ACTN    H1 1570   8.478   2.178   3.404 -0.9469 -1.3901 -2.8430
  111ACTN    H2 1571   8.378   2.168   3.548 -0.6497  0.6406 -0.3571
  111ACTN    H3 1572   8.361   2.056   3.399  1.0077 -0.8580  0.1603
  112ACTN    H6 1573   0.006   0.740   8.565  1.0091  1.0190  0.3788
  112ACTN    C3 1574  -0.001   0.742   8.674  0.1307  0.1384  0.3384
  112ACTN    H4 1575  -0.069   0.667   8.713  0.0620  1.4730  2.9071
  112ACTN    H5 1576   0.101   0.720   8.703 -0.3367  2.4447  4.0960
  112ACTN    C2 1577  -0.036   0.876   8.724 -0.3962  0.6774  0.0133
  112ACTN    O1 1578   0.034   0.925   8.808 -0.1040  0.0213  0.3904
  112ACTN    C1 1579  -0.155   0.942   8.664 -0.2962  0.6742 -0.5896
  112ACTN    H1 1580  -0.147   0.935   8.556  0.7035 -0.7401 -0.4384
  112ACTN    H2 1581  -0.159   1.048   8.689 -2.0541  0.8110 -1.4091
  112ACTN    H3 1582  -0.250   0.891   8.681 -0.9575  1.8916 -0.5964
  113ACTN    H6 1583   2.653   0.089   0.534 -0.2317 -2.2388  1.3636
  113ACTN    C3 1584   2.750   0.063   0.575  0.7808 -0.7853 -0.0185
  113ACTN    H4 1585   2.750   0.097   0.679  1.2616  1.4469 -0.7287
  113ACTN    H5 1586   2.833   0.106   0.519 -1.3437  5.3788  1.1967
  113ACTN    C2 1587   2.755  -0.087   0.574 -0.2850  0.2851  0.1367
  113ACTN    O1 1588   2.661  -0.165   0.556  0.7930 -0.5433  0.0976
  113ACTN    C1 1589   2.895  -0.137   0.589 -0.1764  0.0883  0.0331
  113ACTN    H1 1590   2.947  -0.064   0.651 -1.6266 -1.2946  2.9847
  113ACTN    H2 1591   2.938  -0.152   0.490 -2.6439 -2.7366 -0.6839
  113ACTN    H3 1592   2.901  -0.236   0.633  2.0991  0.1055 -0.2121
  114ACTN    H6 1593   8.830   7.547   1.497 -0.9064 -1.3333  0.2417
  114ACTN    C3 1594   8.885   7.574   1.588 -0.3868 -0.4659 -0.3239
  114ACTN    H4 1595   8.857   7.510   1.672 -2.8855  1.5050  0.3874
  114ACTN    H5 1596   8.990   7.568   1.560 -0.3210 -1.0925  0.0494
  114ACTN    C2 1597   8.856   7.719   1.610  0.4525  0.2599 -0.2443
  114ACTN    O1 1598   8.933   7.811   1.577  0.0585  0.4357  0.2307
  114ACTN    C1 1599   8.732   7.761   1.679  0.0626  0.4417  0.1013
  114ACTN    H1 1600   8.725   7.722   1.780 -1.1705  0.2096 -0.0724
  114ACTN    H2 1601   8.647   7.720   1.626 -0.9117  2.1213  0.3208
  114ACTN    H3 1602   8.724   7.870   1.689 -1.0217  0.4671 -0.9513
  115ACTN    H6 1603   6.602   6.451   7.468 -0.1562 -0.3194 -0.5795
  115ACTN    C3 1604   6.654   6.407   7.382  0.4152  0.0991 -0.4504
  115ACTN    H4 1605   6.718   6.480   7.333  0.2000  0.6045  0.0167
  115ACTN    H5 1606   6.713   6.324   7.420  0.8784 -0.3902 -2.2402
  115ACTN    C2 1607   6.545   6.356   7.296  0.2508 -0.4769 -0.4292
  115ACTN    O1 1608   6.570   6.257   7.235  0.2849  0.6515 -0.0127
  115ACTN    C1 1609   6.415   6.431   7.277 -0.5444 -0.3500 -0.2187
  115ACTN    H1 1610   6.377   6.437   7.175 -3.7966 -2.0540  0.8344
  115ACTN    H2 1611   6.423   6.538   7.300 -0.6833 -0.2832 -0.4752
  115ACTN    H3 1612   6.330   6.396   7.335 -0.1356 -1.2319 -0.1565
  116ACTN    H6 1613   7.761   6.668   3.874  1.3126 -1.0941 -0.1438
  116ACTN    C3 1614   7.700   6.578   3.864 -0.6243  0.1420  0.4343
  116ACTN    H4 1615   7.624   6.578   3.943 -1.4342 -0.4013 -0.3364
  116ACTN    H5 1616   7.651   6.573   3.767  1.0979  1.1049 -0.4973
  116ACTN    C2 1617   7.796   6.463   3.886  0.5299 -0.0081 -0.0565
  116ACTN    O1 1618   7.900   6.483   3.951 -0.6126  0.3283  0.1146
  116ACTN    C1 1619   7.764   6.323   3.856  0.6449 -0.6069  0.1693
  116ACTN    H1 1620   7.697   6.279   3.930  1.5269  0.3630  1.5621
  116ACTN    H2 1621   7.857   6.272   3.833 -0.1451 -1.5925 -0.8972
  116ACTN    H3 1622   7.710   6.323   3.761  0.3879 -0.5640  0.3136
  117ACTN    H6 1623   6.711   2.272   4.588 -1.6937  2.2480  1.1730
  117ACTN    C3 1624   6.793   2.343   4.600  0.3124  0.1904 -0.0981
  117ACTN    H4 1625   6.767   2.446   4.579 -1.3166  0.5516  3.3706
  117ACTN    H5 1626   6.835   2.323   4.699  0.0113 -1.5733 -0.3025
  117ACTN    C2 1627   6.884   2.290   4.497  0.4841  0.8901 -0.3531
  117ACTN    O1 1628   6.934   2.182   4.519 -0.0570 -0.0645  0.4431
  117ACTN    C1 1629   6.948   2.374   4.391  0.1601  0.0220 -0.0237
  117ACTN    H1 1630   6.926   2.480   4.408  1.2097 -0.1839  2.9998
  117ACTN    H2 1631   6.896   2.352   4.299 -0.6360 -1.4246  0.7557
  117ACTN    H3 1632   7.055   2.356   4.377  0.4014  2.2210 -1.3067
  118ACTN    H6 1633   6.078   7.647   6.094  1.2387  0.1733  1.1443
  118ACTN    C3 1634   6.045   7.550   6.132  0.0984 -0.0498 -0.3995
  118ACTN    H4 1635   6.050   7.479   6.049  1.2759  0.9760 -1.2209
  118ACTN    H5 1636   6.117   7.510   6.202 -0.2559 -0.5448 -0.3150
  118ACTN    C2 1637   5.906   7.568   6.184  0.3188 -0.4279  0.1241
  118ACTN    O1 1638   5.876   7.637   6.280  0.0923 -0.2529  0.2888
  118ACTN    C1 1639   5.799   7.473   6.125 -0.0029  0.4850 -0.2135
  118ACTN    H1 1640   5.784   7.473   6.017 -0.1562  0.0293 -0.1953
  118ACTN    H2 1641   5.699   7.493   6.165 -0.5896  0.0510 -1.4348
  118ACTN    H3 1642   5.830   7.372   6.154 -1.5469  0.1294  0.3103
  119ACTN    H6 1643   2.978   2.872   1.882  0.8987 -0.9631 -0.7295
  119ACTN    C3 1644   3.037   2.962   1.901  0.2772 -0.6951 -0.0489
  119ACTN    H4 1645   2.980   3.028   1.966  0.3529  0.7729 -1.4364
  119ACTN    H5 1646   3.133   2.941   1.948  1.2853  1.0793 -1.2576
  119ACTN    C2 1647   3.066   3.038   1.769 -0.7228  0.7309 -0.2026
  119ACTN    O1 1648   2.996   3.131   1.735  0.1641 -0.0761 -0.4608
  119ACTN    C1 1649   3.168   2.973   1.674 -0.5299  0.3027  0.2908
  119ACTN    H1 1650   3.216   3.038   1.601  1.6384 -0.5612  0.9077
  119ACTN    H2 1651   3.116   2.890   1.625  1.5075  0.6452 -2.6198
  119ACTN    H3 1652   3.253   2.928   1.725  1.6050  1.7163 -1.8877
  120ACTN    H6 1653   8.632   8.694   2.266 -1.4741  0.1179 -1.4773
  120ACTN    C3 1654   8.645   8.801   2.255 -0.3897  0.1388 -0.0860
  120ACTN    H4 1655   8.566   8.868   2.289  0.0615  0.5011  0.2617
  120ACTN    H5 1656   8.732   8.835   2.311 -1.0677  0.0402  1.0495
  120ACTN    C2 1657   8.659   8.817   2.109 -0.3131  0.9105  0.9552
  120ACTN    O1 1658   8.563   8.824   2.037 -0.3779 -0.1281  0.3276
  120ACTN    C1 1659   8.797   8.842   2.054 -0.1120  0.1676  0.0409
  120ACTN    H1 1660   8.870   8.840   2.135 -2.3746  0.6445  2.1764
  120ACTN    H2 1661   8.800   8.941   2.007 -0.0569  0.6164  0.9693
  120ACTN    H3 1662   8.814   8.763   1.981  1.9760  0.8122 -0.1940
  121ACTN    H6 1663   8.355   7.331   1.762 -0.0659 -0.2264  0.9222
  121ACTN    C3 1664   8.437   7.283   1.709  0.1340  0.8596  0.2457
  121ACTN    H4 1665   8.427   7.177   1.729  1.6595  0.5526 -0.5631
  121ACTN    H5 1666   8.423   7.289   1.601 -2.0275  1.1228  0.5217
  121ACTN    C2 1667   8.572   7.332   1.759 -0.2158  0.0983 -0.4041
  121ACTN    O1 1668   8.604   7.435   1.700 -0.3804  0.6197 -0.1209
  121ACTN    C1 1669   8.670   7.240   1.825 -0.1458  0.3619 -0.1925
  121ACTN    H1 1670   8.659   7.138   1.788  0.1518  0.0774  0.4824
  121ACTN    H2 1671   8.628   7.243   1.926 -0.9323 -0.3644 -0.4941
  121ACTN    H3 1672   8.777   7.261   1.828 -0.0638 -0.0638 -0.0242
  122ACTN    H6 1673   3.243   3.270   5.860  1.6969 -1.0559  2.8536
  122ACTN    C3 1674   3.317   3.255   5.781 -0.3208 -0.8643  0.8907
  122ACTN    H4 1675   3.368   3.160   5.792 -1.2655 -1.3296  1.3158
  122ACTN    H5 1676   3.272   3.257   5.681  0.2291 -0.2823  0.6505
  122ACTN    C2 1677   3.415   3.371   5.794  0.6106 -0.5792  0.1332
  122ACTN    O1 1678   3.376   3.474   5.848 -0.3272 -0.2045  0.4844
  122ACTN    C1 1679   3.560   3.361   5.753 -0.1075  0.2993  0.2986
  122ACTN    H1 1680   3.583   3.448   5.691  2.9104  0.9263  2.2016
  122ACTN    H2 1681   3.577   3.268   5.699  0.4124  0.2135  0.6105
  122ACTN    H3 1682   3.634   3.360   5.833  0.7273  1.0497 -0.4477
  123ACTN    H6 1683   2.646   5.574   3.193  0.7290  0.5651  0.5042
  123ACTN    C3 1684   2.671   5.599   3.090 -0.3462  0.1289  0.1182
  123ACTN    H4 1685   2.707   5.702   3.095  2.4706 -0.6455 -2.2130
  123ACTN    H5 1686   2.753   5.534   3.060  1.0543  2.4782 -1.2854
  123ACTN    C2 1687   2.548   5.592   3.005  0.7642  0.5806  0.7100
  123ACTN    O1 1688   2.572   5.605   2.885  0.6564  0.0419  0.2808
  123ACTN    C1 1689   2.414   5.563   3.062  0.4964 -0.7308 -0.2653
  123ACTN    H1 1690   2.366   5.650   3.107  0.2969 -0.8779 -0.1901
  123ACTN    H2 1691   2.428   5.493   3.144 -0.3416  0.9168  1.3145
  123ACTN    H3 1692   2.348   5.511   2.992  0.0241  0.6130 -0.8235
  124ACTN    H6 1693   5.094   1.963   0.652  0.0773 -0.4499  0.0049
  124ACTN    C3 1694   5.150   1.982   0.561 -0.1697 -0.1506 -0.0869
  124ACTN    H4 1695   5.190   1.884   0.536  1.1192  0.9156 -2.3589
  124ACTN    H5 1696   5.086   2.010   0.477  0.3505  0.6189 -0.2369
  124ACTN    C2 1697   5.263   2.074   0.579  0.2366 -1.0186  0.2650
  124ACTN    O1 1698   5.231   2.185   0.606  0.1849  0.0127 -0.1855
  124ACTN    C1 1699   5.407   2.032   0.563  0.4726  0.0114 -1.0978
  124ACTN    H1 1700   5.451   2.028   0.663  1.3300  0.6871 -1.4442
  124ACTN    H2 1701   5.461   2.101   0.499  1.8855  1.1140  1.2048
  124ACTN    H3 1702   5.416   1.928   0.532  0.5914  0.3480 -2.1984
  125ACTN    H6 1703   5.784   7.614   4.030  1.1874 -0.2453 -0.4001
  125ACTN    C3 1704   5.751   7.602   3.927 -0.1156  0.2455 -0.0525
  125ACTN    H4 1705   5.738   7.496   3.905  1.7190 -0.1012  0.4364
  125ACTN    H5 1706   5.823   7.650   3.860 -0.2003 -0.2187 -0.4765
  125ACTN    C2 1707   5.624   7.673   3.904  0.5114  0.5445  0.4174
  125ACTN    O1 1708   5.569   7.747   3.976  0.5134 -0.0090 -0.0112
  125ACTN    C1 1709   5.548   7.629   3.788 -0.3784  0.0315 -0.2064
  125ACTN    H1 1710   5.511   7.531   3.818 -0.2795 -0.1240 -0.5914
  125ACTN    H2 1711   5.618   7.630   3.704  1.1425 -1.0222  1.0192
  125ACTN    H3 1712   5.470   7.700   3.759  0.9531  1.5821 -0.0526
  126ACTN    H6 1713   4.863   7.482   5.955  0.6797 -2.6060 -0.4739
  126ACTN    C3 1714   4.791   7.461   5.876 -0.6699 -0.3242  0.1171
  126ACTN    H4 1715   4.700   7.414   5.912 -2.1227  0.5781 -2.2512
  126ACTN    H5 1716   4.765   7.562   5.844 -0.7244 -0.2167  0.4958
  126ACTN    C2 1717   4.860   7.384   5.754  0.2715  0.3078 -0.6815
  126ACTN    O1 1718   4.827   7.410   5.638  0.2308 -0.3889  0.1053
  126ACTN    C1 1719   4.965   7.281   5.784 -0.7213  0.4769 -0.0881
  126ACTN    H1 1720   4.990   7.272   5.890 -0.3035 -0.7734 -0.2798
  126ACTN    H2 1721   5.054   7.299   5.724 -1.4215  2.6471 -0.5172
  126ACTN    H3 1722   4.931   7.183   5.749 -0.6744  0.3073  0.3412
  127ACTN    H6 1723   5.419   3.024   6.549  0.7432  0.4295 -1.9808
  127ACTN    C3 1724   5.523   3.025   6.581  0.2138 -0.0551 -0.2401
  127ACTN    H4 1725   5.579   3.011   6.489  0.3014 -0.9350 -0.0548
  127ACTN    H5 1726   5.553   3.124   6.616 -2.0277  0.0613  1.5004
  127ACTN    C2 1727   5.542   2.911   6.677 -0.8177 -0.6137  0.0947
  127ACTN    O1 1728   5.576   2.801   6.636  0.7073  1.1902  0.0137
  127ACTN    C1 1729   5.547   2.944   6.818 -0.1420 -0.4982  0.3265
  127ACTN    H1 1730   5.443   2.961   6.846 -0.6569 -2.5693 -0.1999
  127ACTN    H2 1731   5.607   3.031   6.844 -1.1078  0.6437 -1.2112
  127ACTN    H3 1732   5.583   2.856   6.873  1.1903 -0.0455  0.1895
  128ACTN    H6 1733   4.694   0.511   2.756  0.2622 -2.5623 -2.6975
  128ACTN    C3 1734   4.758   0.467   2.833 -0.6946  0.1712 -0.2435
  128ACTN    H4 1735   4.846   0.421   2.788  0.1540  3.3190 -1.9962
  128ACTN    H5 1736   4.785   0.551   2.897  1.7919 -0.0067 -0.9907
  128ACTN    C2 1737   4.676   0.373   2.918  0.8096 -0.6343 -0.1028
  128ACTN    O1 1738   4.635   0.410   3.025  0.2058 -0.4367 -0.1369
  128ACTN    C1 1739   4.664   0.228   2.882 -0.6064  0.2092 -0.5707
  128ACTN    H1 1740   4.594   0.178   2.948  0.6559 -1.0399 -0.1428
  128ACTN    H2 1741   4.758   0.175   2.900 -0.9315 -1.0732 -2.4445
  128ACTN    H3 1742   4.636   0.217   2.777  0.9085 -1.3189 -0.8330
  129ACTN    H6 1743   4.546   3.297   3.957 -0.1572  0.4646  0.9541
  129ACTN    C3 1744   4.502   3.203   3.991 -0.1152 -0.1319 -0.5894
  129ACTN    H4 1745   4.405   3.230   4.033 -1.5183 -2.0618 -2.5204
  129ACTN    H5 1746   4.493   3.139   3.903 -1.6069  1.6090 -1.7403
  129ACTN    C2 1747   4.580   3.144   4.104 -0.3030 -0.2571 -0.3695
  129ACTN    O1 1748   4.681   3.199   4.146  0.0740 -0.8815 -0.3900
  129ACTN    C1 1749   4.501   3.046   4.188 -0.4852 -0.3222 -0.2425
  129ACTN    H1 1750   4.495   2.948   4.141 -0.6609 -0.5125  0.1715
  129ACTN    H2 1751   4.398   3.077   4.207 -0.8530  1.8091 -4.9785
  129ACTN    H3 1752   4.542   3.039   4.289  0.1313 -2.5306 -0.6252
  130ACTN    H6 1753   0.323   0.118   3.083  1.3631 -1.5641 -0.1869
  130ACTN    C3 1754   0.395   0.145   3.006  0.4708  0.5564 -0.3189
  130ACTN    H4 1755   0.374   0.243   2.962 -0.0348 -0.6664 -2.9610
  130ACTN    H5 1756   0.494   0.153   3.050  1.7411 -1.1273 -2.7556
  130ACTN    C2 1757   0.384   0.038   2.897  0.9321  0.8856 -0.2595
  130ACTN    O1 1758   0.278  -0.029   2.883 -0.0391  0.5019  0.1954
  130ACTN    C1 1759   0.481   0.029   2.789  0.0258 -0.0846 -0.5908
  130ACTN    H1 1760   0.446  -0.030   2.704  3.2161 -1.3297 -1.1004
  130ACTN    H2 1761   0.573  -0.017   2.825  1.3253  2.1695 -0.9851
  130ACTN    H3 1762   0.510   0.129   2.757  1.0499  0.6951  2.6071
  131ACTN    H6 1763   6.595   7.543   1.277 -0.3757  0.5502 -2.0315
  131ACTN    C3 1764   6.586   7.437   1.255 -0.0739  0.1336 -0.2351
  131ACTN    H4 1765   6.673   7.409   1.195  0.4082 -1.3715  1.1179
  131ACTN    H5 1766   6.584   7.403   1.359  0.9124  1.2859  0.1681
  131ACTN    C2 1767   6.464   7.423   1.174 -0.5433  0.7127 -0.7512
  131ACTN    O1 1768   6.397   7.520   1.156 -0.2284 -0.1771 -0.0225
  131ACTN    C1 1769   6.436   7.292   1.099  0.0767 -0.1340 -0.2135
  131ACTN    H1 1770   6.341   7.294   1.047  0.4500  0.6874 -0.8747
  131ACTN    H2 1771   6.452   7.206   1.165 -2.2296 -0.4558 -0.0447
  131ACTN    H3 1772   6.514   7.275   1.024  0.9165  0.0574  0.6022
  132ACTN    H6 1773   5.436   5.802   1.866 -0.1348 -0.2810 -0.3008
  132ACTN    C3 1774   5.470   5.802   1.763  0.2274  0.4338 -0.1855
  132ACTN    H4 1775   5.391   5.816   1.689  1.6977 -3.1342 -2.5861
  132ACTN    H5 1776   5.543   5.882   1.748  0.6702 -0.0641 -0.7259
  132ACTN    C2 1777   5.535   5.669   1.739 -0.8039  0.8937 -0.0301
  132ACTN    O1 1778   5.658   5.661   1.737 -0.7441  0.1885 -0.3585
  132ACTN    C1 1779   5.456   5.548   1.712 -0.2059  0.1177 -0.2389
  132ACTN    H1 1780   5.351   5.577   1.702 -0.0867  1.2064  1.3932
  132ACTN    H2 1781   5.467   5.485   1.800 -0.3436  0.2925 -0.0943
  132ACTN    H3 1782   5.490   5.491   1.626  1.0869  1.0122 -0.3297
  133ACTN    H6 1783   6.701   0.857   2.796 -2.5774  1.3652  0.5361
  133ACTN    C3 1784   6.673   0.757   2.827 -0.0309  0.3508 -0.2863
  133ACTN    H4 1785   6.739   0.740   2.911 -1.2467  0.0675  0.6266
  133ACTN    H5 1786   6.569   0.749   2.858  0.5291 -3.4142  0.9547
  133ACTN    C2 1787   6.696   0.655   2.718 -0.3519  0.3425  0.1517
  133ACTN    O1 1788   6.733   0.683   2.606 -0.0597  1.0133 -0.0431
  133ACTN    C1 1789   6.686   0.507   2.751  0.0765  0.3741  0.1191
  133ACTN    H1 1790   6.786   0.466   2.769 -0.4174 -0.8051  0.2362
  133ACTN    H2 1791   6.644   0.458   2.663  0.1749 -1.3234  0.9863
  133ACTN    H3 1792   6.632   0.481   2.842 -1.5610 -1.8490 -1.4296
  134ACTN    H6 1793   0.857   8.361   0.536  1.4870 -0.3932  0.9803
  134ACTN    C3 1794   0.854   8.450   0.598 -0.0623  0.0349  0.2988
  134ACTN    H4 1795   0.756   8.454   0.647  0.9717  2.6545  2.2820
  134ACTN    H5 1796   0.929   8.444   0.677  0.7204  1.9309 -0.2697
  134ACTN    C2 1797   0.855   8.580   0.523  0.1242 -0.6663  0.5240
  134ACTN    O1 1798   0.911   8.583   0.415  0.1216  0.4314  0.3602
  134ACTN    C1 1799   0.831   8.706   0.601 -0.6154 -0.6495  0.0472
  134ACTN    H1 1800   0.771   8.696   0.691  0.6643 -2.0471  0.7726
  134ACTN    H2 1801   0.793   8.790   0.542  1.6543  0.5903  0.2543
  134ACTN    H3 1802   0.930   8.740   0.633 -0.5521  1.1235 -1.8787
  135ACTN    H6 1803   0.604   2.279   3.351 -0.8500 -1.9397 -0.6328
  135ACTN    C3 1804   0.696   2.276   3.292 -0.4067 -0.0670 -0.0821
  135ACTN    H4 1805   0.722   2.171   3.307  0.3922  0.2566  0.8896
  135ACTN    H5 1806   0.669   2.292   3.188  0.7048 -2.6631 -0.8175
  135ACTN    C2 1807   0.809   2.369   3.332 -0.1902  0.2365 -0.6624
  135ACTN    O1 1808   0.862   2.439   3.247 -0.1761 -0.4006  0.3143
  135ACTN    C1 1809   0.884   2.347   3.461  0.2541  0.3869 -0.2489
  135ACTN    H1 1810   0.937   2.251   3.461  0.8770  0.7038 -2.7219
  135ACTN    H2 1811   0.822   2.347   3.550  0.9192  0.4513  0.2242
  135ACTN    H3 1812   0.956   2.427   3.478  0.4492  0.0518  0.5502
  136ACTN    H6 1813   7.128   7.070   8.555  0.4476  0.7702  1.3237
  136ACTN    C3 1814   7.047   7.005   8.589  0.0770  0.5990  0.1593
  136ACTN    H4 1815   7.038   6.935   8.507 -1.0813 -1.6265  2.1358
  136ACTN    H5 1816   7.080   6.952   8.678 -1.3703 -0.1780  0.2489
  136ACTN    C2 1817   6.925   7.088   8.612 -0.0366  0.3398 -0.1947
  136ACTN    O1 1818   6.874   7.153   8.523 -0.1957  0.0931  0.6894
  136ACTN    C1 1819   6.842   7.063   8.734  0.1755 -0.3548  0.7836
  136ACTN    H1 1820   6.908   7.086   8.818 -1.6168  1.2201  1.7861
  136ACTN    H2 1821   6.817   6.957   8.735  3.1756 -1.1054  1.6170
  136ACTN    H3 1822   6.751   7.121   8.749  0.9304  0.5147  2.1897
  137ACTN    H6 1823   6.748   2.407   2.229 -1.2725 -0.2177 -2.2721
  137ACTN    C3 1824   6.757   2.298   2.232 -0.2072 -0.0994 -0.1308
  137ACTN    H4 1825   6.664   2.245   2.249  0.0431 -0.5020  0.0004
  137ACTN    H5 1826   6.796   2.261   2.137  1.4472  0.7426  0.1925
  137ACTN    C2 1827   6.867   2.260   2.339 -0.1439  0.4161 -1.0045
  137ACTN    O1 1828   6.974   2.321   2.339 -0.3024 -0.1064  0.3155
  137ACTN    C1 1829   6.825   2.138   2.416 -0.3478  0.2251 -0.1572
  137ACTN    H1 1830   6.915   2.078   2.430 -0.6156  0.1280  1.2701
  137ACTN    H2 1831   6.745   2.092   2.358 -1.9974  0.2103  2.0451
  137ACTN    H3 1832   6.766   2.160   2.505  0.4703 -3.2625  1.3389
  138ACTN    H6 1833   3.136   4.959   1.867  0.2164 -0.3413 -0.7669
  138ACTN    C3 1834   3.231   4.968   1.816  0.6181  0.1022  0.0515
  138ACTN    H4 1835   3.225   5.055   1.750 -0.3477  0.1846  0.2450
  138ACTN    H5 1836   3.312   4.987   1.887  0.2479  0.8791  0.2638
  138ACTN    C2 1837   3.246   4.841   1.726 -0.1798  0.7332  0.2200
  138ACTN    O1 1838   3.170   4.818   1.629  0.4702  0.0518  0.3311
  138ACTN    C1 1839   3.354   4.745   1.743  0.1193 -0.1215  0.2353
  138ACTN    H1 1840   3.321   4.648   1.705  1.8391 -0.1248 -1.3273
  138ACTN    H2 1841   3.370   4.726   1.850 -1.1889 -1.0963  0.2688
  138ACTN    H3 1842   3.441   4.765   1.681  1.5154 -1.3271  1.7313
  139ACTN    H6 1843   6.503   6.386   3.641  0.3750 -0.7575 -2.1740
  139ACTN    C3 1844   6.545   6.483   3.615 -0.3942  0.4385  0.8500
  139ACTN    H4 1845   6.459   6.547   3.594 -0.8163 -1.4696 -3.7940
  139ACTN    H5 1846   6.582   6.535   3.703  1.6554 -0.7786  0.7381
  139ACTN    C2 1847   6.641   6.477   3.504 -0.3132 -0.0900  0.2885
  139ACTN    O1 1848   6.721   6.392   3.501  0.0076 -0.3766  0.0972
  139ACTN    C1 1849   6.603   6.547   3.377  0.6150 -0.7134 -0.1032
  139ACTN    H1 1850   6.700   6.563   3.331 -0.3513 -0.4997 -2.0954
  139ACTN    H2 1851   6.543   6.637   3.385  0.1916 -0.9505 -0.5804
  139ACTN    H3 1852   6.546   6.482   3.310 -1.3677  2.1135 -1.2095
  140ACTN    H6 1853   5.988   3.418   3.757 -0.4178 -1.4209 -1.4305
  140ACTN    C3 1854   5.959   3.339   3.827  0.3768 -0.3004  0.1828
  140ACTN    H4 1855   6.034   3.335   3.906  0.2955  1.4147  0.3756
  140ACTN    H5 1856   5.862   3.373   3.866  1.2156  1.3873  0.8596
  140ACTN    C2 1857   5.945   3.214   3.759 -0.0935 -0.1041  0.6615
  140ACTN    O1 1858   5.980   3.202   3.646 -0.1966 -0.2644 -0.5606
  140ACTN    C1 1859   5.887   3.099   3.834 -0.2247 -0.1899  0.6322
  140ACTN    H1 1860   5.817   3.040   3.774  1.7140 -1.2707 -0.5873
  140ACTN    H2 1861   5.835   3.128   3.925  1.2445  1.8607  0.8665
  140ACTN    H3 1862   5.974   3.038   3.856  0.3483  0.1135 -0.7449
  141ACTN    H6 1863   6.111   6.065   4.075 -1.2730 -1.5109 -0.1506
  141ACTN    C3 1864   6.205   6.018   4.046 -0.2922  0.1969  0.2245
  141ACTN    H4 1865   6.188   5.967   3.951  1.8182  1.5266 -0.9201
  141ACTN    H5 1866   6.278   6.095   4.018  0.6968 -1.3251 -1.4703
  141ACTN    C2 1867   6.269   5.925   4.140 -0.8490 -0.3512  0.5524
  141ACTN    O1 1868   6.313   5.819   4.095 -0.1160 -0.2207  0.0569
  141ACTN    C1 1869   6.291   5.962   4.274 -0.2822 -0.3379 -0.3073
  141ACTN    H1 1870   6.204   6.010   4.319  0.4758  0.4598  0.3235
  141ACTN    H2 1871   6.381   6.023   4.280 -0.5808  0.0188  0.7257
  141ACTN    H3 1872   6.309   5.870   4.329  1.6102 -0.8673 -1.7676
  142ACTN    H6 1873   2.320   8.034   5.703 -0.8554  0.7882  0.6438
  142ACTN    C3 1874   2.292   8.105   5.625 -0.7325  0.1696  0.0319
  142ACTN    H4 1875   2.328   8.203   5.659 -0.8180  0.1607  0.1452
  142ACTN    H5 1876   2.184   8.111   5.620 -0.8019  1.6251  2.3908
  142ACTN    C2 1877   2.357   8.066   5.493 -0.6800  0.7262  0.3976
  142ACTN    O1 1878   2.438   7.976   5.497 -0.2021  0.2314  0.4443
  142ACTN    C1 1879   2.341   8.157   5.379 -0.3022 -0.3467  0.1663
  142ACTN    H1 1880   2.419   8.233   5.378 -0.1696 -0.4029  2.6814
  142ACTN    H2 1881   2.246   8.208   5.396  0.6054  0.6252  2.5424
  142ACTN    H3 1882   2.330   8.105   5.284  2.5716 -0.3516 -0.2064
  143ACTN    H6 1883   6.405   0.946   7.425  1.3800  1.3360 -0.0416
  143ACTN    C3 1884   6.442   0.985   7.521  0.2288  0.0311  0.9424
  143ACTN    H4 1885   6.499   0.904   7.568 -0.3600 -1.7720 -1.3454
  143ACTN    H5 1886   6.510   1.063   7.489  1.4313 -1.5410 -0.4473
  143ACTN    C2 1887   6.328   1.029   7.601 -0.3638 -0.0788 -0.0753
  143ACTN    O1 1888   6.225   0.969   7.593 -0.1492 -0.2435  0.6167
  143ACTN    C1 1889   6.338   1.155   7.679 -0.5411 -0.6274 -0.2578
  143ACTN    H1 1890   6.354   1.232   7.604  1.9408 -0.3859  0.4844
  143ACTN    H2 1891   6.426   1.149   7.743 -0.8806  1.2137  0.4262
  143ACTN    H3 1892   6.249   1.177   7.738  0.5087  0.7010  0.8737
  144ACTN    H6 1893   7.267   0.374   2.286  0.0783 -0.5600  0.6423
  144ACTN    C3 1894   7.201   0.311   2.345 -0.7858 -0.4062 -0.1410
  144ACTN    H4 1895   7.214   0.209   2.307  0.1530  1.3485 -4.8079
  144ACTN    H5 1896   7.224   0.320   2.451 -3.2260 -1.1167  0.4809
  144ACTN    C2 1897   7.063   0.353   2.338 -0.5534 -0.0491  0.1960
  144ACTN    O1 1898   6.974   0.301   2.404  0.3944  0.0895 -0.1000
  144ACTN    C1 1899   7.020   0.451   2.236  0.3875  0.8065  0.4160
  144ACTN    H1 1900   6.977   0.404   2.148  1.1984  2.2060 -0.7505
  144ACTN    H2 1901   7.112   0.507   2.216  1.0911 -0.6266 -0.3990
  144ACTN    H3 1902   6.955   0.524   2.284 -0.3016  0.9476 -0.7389
  145ACTN    H6 1903   0.770   7.330   4.842  2.1795  1.2962 -1.7070
  145ACTN    C3 1904   0.825   7.265   4.910 -0.6790  0.0089 -0.5762
  145ACTN    H4 1905   0.906   7.328   4.946  1.2612 -1.4267 -2.3481
  145ACTN    H5 1906   0.754   7.243   4.990  0.2788  0.0395  0.2931
  145ACTN    C2 1907   0.879   7.144   4.835 -0.0792 -0.4055  0.3857
  145ACTN    O1 1908   0.878   7.033   4.876 -0.0519 -1.0105  0.0067
  145ACTN    C1 1909   0.938   7.159   4.699 -0.2621 -0.2627  0.3405
  145ACTN    H1 1910   0.941   7.266   4.679 -1.7133 -0.2667 -0.0019
  145ACTN    H2 1911   0.882   7.117   4.615  0.5535  1.9433 -1.3465
  145ACTN    H3 1912   1.039   7.119   4.691  0.1435  0.6392  0.8073
  146ACTN    H6 1913   6.773   8.573   2.115 -0.6851  0.1733 -0.1469
  146ACTN    C3 1914   6.845   8.557   2.195 -0.0003  0.6896 -0.6518
  146ACTN    H4 1915   6.938   8.522   2.149 -0.3204 -0.6280 -0.3359
  146ACTN    H5 1916   6.805   8.480   2.261 -0.1072  0.0750 -1.4254
  146ACTN    C2 1917   6.878   8.685   2.259 -0.0552 -0.3873 -0.6247
  146ACTN    O1 1918   6.949   8.763   2.206 -0.3142 -0.2031 -0.4312
  146ACTN    C1 1919   6.787   8.722   2.378 -0.7813  0.2118  0.7225
  146ACTN    H1 1920   6.684   8.746   2.351 -0.7504 -0.9034 -0.4082
  146ACTN    H2 1921   6.812   8.816   2.427  2.3191 -0.7730  1.1281
  146ACTN    H3 1922   6.791   8.642   2.452  1.2163  0.2798  0.7152
  147ACTN    H6 1923   6.851   8.528   3.105  2.9375 -0.6676  4.3530
  147ACTN    C3 1924   6.918   8.603   3.063 -0.7072  0.4511  0.0550
  147ACTN    H4 1925   6.940   8.696   3.116  0.8180  0.9994 -1.4648
  147ACTN    H5 1926   7.014   8.551   3.054 -2.5463 -3.1133  0.3237
  147ACTN    C2 1927   6.857   8.637   2.924  0.4105  0.1687  0.0567
  147ACTN    O1 1928   6.746   8.693   2.931  0.0909 -0.0885  0.0280
  147ACTN    C1 1929   6.912   8.599   2.786  0.2996  0.3613 -0.0924
  147ACTN    H1 1930   6.960   8.676   2.726  0.2222  1.9054  1.7480
  147ACTN    H2 1931   6.840   8.550   2.720  1.0055 -1.4183  0.4284
  147ACTN    H3 1932   6.991   8.530   2.814 -0.1302 -0.8230 -1.7577
  148ACTN    H6 1933   8.193   5.354   4.286  0.0067  0.4853 -1.2651
  148ACTN    C3 1934   8.255   5.265   4.276 -0.7777 -0.1229 -0.7597
  148ACTN    H4 1935   8.293   5.265   4.174 -1.8537 -1.5720 -1.1816
  148ACTN    H5 1936   8.338   5.277   4.346 -1.5274 -1.4934  0.4018
  148ACTN    C2 1937   8.183   5.141   4.299 -0.2736 -0.0272  0.0409
  148ACTN    O1 1938   8.077   5.117   4.241  0.3651 -0.4283 -0.4937
  148ACTN    C1 1939   8.237   5.033   4.390 -0.1139 -0.4573  0.2153
  148ACTN    H1 1940   8.222   5.059   4.494  1.0710  0.1785  0.2321
  148ACTN    H2 1941   8.344   5.047   4.373 -0.2769 -0.8857 -1.2792
  148ACTN    H3 1942   8.213   4.930   4.363 -0.2453 -0.2012 -0.6908
  149ACTN    H6 1943   3.917   7.796   4.914 -2.8211 -1.5021 -0.2204
  149ACTN    C3 1944   3.906   7.807   4.806 -0.3780 -0.6902 -0.4212
  149ACTN    H4 1945   3.962   7.895   4.775 -0.4979 -0.3249  0.3767
  149ACTN    H5 1946   3.947   7.716   4.763 -1.6006 -1.4398 -0.0235
  149ACTN    C2 1947   3.764   7.825   4.774  0.1166  0.0863  0.7191
  149ACTN    O1 1948   3.718   7.772   4.680  0.4177 -0.0990  0.2658
  149ACTN    C1 1949   3.671   7.855   4.885 -0.1503  0.2852  0.0166
  149ACTN    H1 1950   3.671   7.964   4.893  1.3087  0.2153  1.1017
  149ACTN    H2 1951   3.697   7.798   4.974 -1.7080 -0.0097  0.3059
  149ACTN    H3 1952   3.566   7.842   4.860  0.3171 -0.4101 -1.6332
  150ACTN    H6 1953   5.632   2.962   4.154  0.1956 -0.3505 -2.1289
  150ACTN    C3 1954   5.560   2.881   4.145  0.1143 -0.4983 -0.3813
  150ACTN    H4 1955   5.602   2.808   4.076  0.9541 -2.7675  2.4296
  150ACTN    H5 1956   5.552   2.843   4.247 -0.2834  0.9218  0.1211
  150ACTN    C2 1957   5.424   2.940   4.101  0.6146 -0.4000  0.1189
  150ACTN    O1 1958   5.317   2.903   4.151 -0.3125 -0.8671 -0.1046
  150ACTN    C1 1959   5.432   3.058   4.015  0.5033 -0.6714  0.4408
  150ACTN    H1 1960   5.494   3.034   3.929 -1.8242 -0.6418 -1.2980
  150ACTN    H2 1961   5.471   3.141   4.073 -1.2989  1.1876 -0.9247
  150ACTN    H3 1962   5.331   3.082   3.983  1.3780  0.3343 -1.6719
  151ACTN    H6 1963   7.609   3.005   4.389  0.6124  0.8769  0.6437
  151ACTN    C3 1964   7.674   2.965   4.312 -0.9891 -0.0695 -0.2319
  151ACTN    H4 1965   7.729   2.875   4.340 -1.7686 -0.4180  0.1685
  151ACTN    H5 1966   7.611   2.940   4.226 -0.0390 -2.5752 -0.2284
  151ACTN    C2 1967   7.774   3.070   4.261  0.6642  0.7981  0.3420
  151ACTN    O1 1968   7.781   3.110   4.139  0.4602 -0.0120  0.3424
  151ACTN    C1 1969   7.853   3.134   4.367 -0.4866  0.4349 -0.0448
  151ACTN    H1 1970   7.944   3.178   4.325 -0.7652 -0.0628 -1.2069
  151ACTN    H2 1971   7.888   3.055   4.434 -2.4641  1.5278  2.3105
  151ACTN    H3 1972   7.795   3.203   4.427 -0.8283  2.8378 -3.0156
  152ACTN    H6 1973   4.434   7.723   2.595  0.2217  0.8694 -0.0362
  152ACTN    C3 1974   4.404   7.740   2.492  0.2256 -0.0590 -0.1970
  152ACTN    H4 1975   4.439   7.841   2.471 -1.4168  0.6043  0.1376
  152ACTN    H5 1976   4.467   7.682   2.425 -0.2761  1.6358 -2.2173
  152ACTN    C2 1977   4.257   7.716   2.479  0.1908 -0.0414 -0.1058
  152ACTN    O1 1978   4.182   7.818   2.468 -0.0495 -0.3072 -0.0687
  152ACTN    C1 1979   4.211   7.576   2.517  0.5088  0.3011 -0.0016
  152ACTN    H1 1980   4.292   7.508   2.491  1.3177  1.2906 -0.1391
  152ACTN    H2 1981   4.114   7.545   2.479 -0.4304  0.0666  2.4966
  152ACTN    H3 1982   4.206   7.565   2.625  1.0828 -0.4100 -0.0407
  153ACTN    H6 1983   2.518   0.278   8.160 -0.2104 -1.3623 -1.3008
  153ACTN    C3 1984   2.565   0.340   8.083 -0.3954  0.0709 -0.2847
  153ACTN    H4 1985   2.496   0.346   7.999 -0.0669  1.4484 -0.4560
  153ACTN    H5 1986   2.646   0.278   8.047  0.9645  0.2523  2.3589
  153ACTN    C2 1987   2.611   0.474   8.127  0.7519  0.4759  0.1177
  153ACTN    O1 1988   2.528   0.562   8.153 -0.0463 -0.7833  0.3695
  153ACTN    C1 1989   2.748   0.495   8.161 -0.0537 -0.2914 -0.3483
  153ACTN    H1 1990   2.752   0.481   8.270 -0.8856 -0.0094 -0.2811
  153ACTN    H2 1991   2.787   0.593   8.134 -0.4042 -0.0896 -0.1206
  153ACTN    H3 1992   2.810   0.414   8.121 -1.4452 -1.0257 -1.0362
  154ACTN    H6 1993   4.644   3.361   3.604  2.2970 -1.1690 -0.9080
  154ACTN    C3 1994   4.616   3.264   3.645  0.6386 -0.2716  0.1853
  154ACTN    H4 1995   4.509   3.259   3.629  0.9528 -1.4221 -1.7363
  154ACTN    H5 1996   4.639   3.256   3.751 -3.5137 -0.1462  1.1633
  154ACTN    C2 1997   4.693   3.147   3.573  0.1140 -1.4250  0.6373
  154ACTN    O1 1998   4.730   3.169   3.462  0.4171  0.2701 -0.4005
  154ACTN    C1 1999   4.688   3.015   3.631  0.2434 -0.2972 -0.5552
  154ACTN    H1 2000   4.717   3.036   3.734  0.3584  1.3452 -0.8969
  154ACTN    H2 2001   4.770   2.952   3.597  1.7153  0.9592  0.5665
  154ACTN    H3 2002   4.593   2.963   3.626 -1.3802  2.3302  1.5751
  155ACTN    H6 2003   1.253   8.449   4.823 -0.1436 -0.2215  2.0229
  155ACTN    C3 2004   1.336   8.381   4.838  0.1803 -0.1476  0.6359
  155ACTN    H4 2005   1.309   8.304   4.911 -3.7612 -0.0997 -0.6837
  155ACTN    H5 2006   1.351   8.321   4.748 -1.7993  1.1480 -0.5772
  155ACTN    C2 2007   1.465   8.460   4.871  0.4048 -0.0895 -0.2678
  155ACTN    O1 2008   1.576   8.400   4.882  0.4020  0.2829 -0.2155
  155ACTN    C1 2009   1.451   8.614   4.863  0.5753  0.0313 -0.1894
  155ACTN    H1 2010   1.389   8.664   4.938  0.5476 -0.6364  0.2365
  155ACTN    H2 2011   1.408   8.631   4.765 -3.4816  0.6564  1.6000
  155ACTN    H3 2012   1.549   8.661   4.871 -0.1480  1.2902  1.6598
  156ACTN    H6 2013   4.684   1.671   4.170 -0.8880  0.1722  0.4870
  156ACTN    C3 2014   4.685   1.630   4.272 -0.0345 -0.0429  0.3984
  156ACTN    H4 2015   4.594   1.570   4.279 -0.8879  1.0213 -1.1642
  156ACTN    H5 2016   4.762   1.553   4.274  0.5249  0.4498 -0.9037
  156ACTN    C2 2017   4.679   1.744   4.369  0.0045 -0.0584  0.4111
  156ACTN    O1 2018   4.581   1.765   4.439 -0.1034 -1.0989  0.1809
  156ACTN    C1 2019   4.803   1.817   4.392  0.6744 -0.0899  0.5800
  156ACTN    H1 2020   4.798   1.901   4.462  1.6709  1.7728 -1.5470
  156ACTN    H2 2021   4.841   1.862   4.301 -1.9137  1.4781  0.2214
  156ACTN    H3 2022   4.876   1.748   4.433  1.1284  0.1219  0.1362
  157ACTN    H6 2023   8.858   0.971   1.492 -2.7421  0.0996 -0.5824
  157ACTN    C3 2024   8.859   1.072   1.532  0.2379 -0.0084 -0.2378
  157ACTN    H4 2025   8.755   1.098   1.555 -0.0996 -2.4497  1.2442
  157ACTN    H5 2026   8.890   1.143   1.456 -2.1700  0.4196 -0.8717
  157ACTN    C2 2027   8.939   1.076   1.657  0.5393 -0.8039  0.5488
  157ACTN    O1 2028   9.021   1.168   1.671 -0.1858  0.0292 -0.2515
  157ACTN    C1 2029   8.912   0.990   1.773  0.4029  0.2918 -0.2048
  157ACTN    H1 2030   8.889   1.044   1.865  0.7850  0.3086 -0.1216
  157ACTN    H2 2031   8.980   0.908   1.794 -0.2128  0.5418  3.0621
  157ACTN    H3 2032   8.823   0.930   1.753  1.6462 -2.1386  1.3764
  158ACTN    H6 2033   2.475   6.282   5.735 -1.0398  0.0059  0.3038
  158ACTN    C3 2034   2.461   6.260   5.629  0.5793  0.5494 -0.0359
  158ACTN    H4 2035   2.545   6.304   5.576  3.8216 -1.4749  3.1598
  158ACTN    H5 2036   2.466   6.151   5.622  2.6006  0.6006  0.3342
  158ACTN    C2 2037   2.333   6.316   5.591 -0.3391  0.1816 -0.7637
  158ACTN    O1 2038   2.317   6.352   5.475  0.2126  0.5258  0.0760
  158ACTN    C1 2039   2.214   6.281   5.672 -0.2715  0.7619 -0.4357
  158ACTN    H1 2040   2.118   6.297   5.621 -0.3988 -0.4437 -0.5871
  158ACTN    H2 2041   2.219   6.344   5.761 -0.8325 -0.0388  0.1717
  158ACTN    H3 2042   2.221   6.176   5.700  3.3682  0.9512 -0.4596
  159ACTN    H6 2043   2.956   1.376   4.053 -0.1587  0.1031  0.1567
  159ACTN    C3 2044   3.029   1.414   3.981 -0.1347 -0.3901 -0.0867
  159ACTN    H4 2045   2.991   1.386   3.883 -1.2915 -1.9632  0.7832
  159ACTN    H5 2046   3.038   1.522   3.994  0.5896  0.0523 -3.6934
  159ACTN    C2 2047   3.155   1.347   4.011  0.0987  0.2957  0.6105
  159ACTN    O1 2048   3.169   1.259   4.099  0.2421 -0.0134 -0.3344
  159ACTN    C1 2049   3.269   1.380   3.918 -0.0356  0.4345 -0.1863
  159ACTN    H1 2050   3.295   1.297   3.853 -1.6546 -0.1466 -0.1115
  159ACTN    H2 2051   3.353   1.423   3.973  0.0817 -2.1487  1.7330
  159ACTN    H3 2052   3.237   1.465   3.858 -4.1719  0.4746  1.8814
  160ACTN    H6 2053   5.050   7.054   0.772  0.7324 -0.9383  0.9652
  160ACTN    C3 2054   5.137   7.117   0.752 -0.5761  0.8419  0.7498
  160ACTN    H4 2055   5.211   7.088   0.826  0.0485  2.3187  0.7155
  160ACTN    H5 2056   5.177   7.099   0.653  0.4560 -1.9463  1.6080
  160ACTN    C2 2057   5.100   7.254   0.790  0.5031 -0.6370 -0.3614
  160ACTN    O1 2058   4.983   7.283   0.817  0.2385  0.2645 -0.3385
  160ACTN    C1 2059   5.203   7.362   0.793 -0.7043 -0.0103 -0.5936
  160ACTN    H1 2060   5.179   7.450   0.733 -0.8320  0.7022  0.4901
  160ACTN    H2 2061   5.298   7.324   0.757 -1.0193 -1.5821  0.1994
  160ACTN    H3 2062   5.222   7.377   0.899  0.4414 -3.3297 -0.2730
  161ACTN    H6 2063   8.321   8.079   3.174 -1.1511 -0.9696  2.4076
  161ACTN    C3 2064   8.250   8.160   3.191  0.1436  0.6236  0.5586
  161ACTN    H4 2065   8.164   8.157   3.125 -0.9420  2.6485  1.8331
  161ACTN    H5 2066   8.217   8.145   3.294  2.3826 -1.0084  1.0837
  161ACTN    C2 2067   8.317   8.285   3.177 -0.0322 -0.3604 -0.1554
  161ACTN    O1 2068   8.247   8.386   3.172 -0.0745 -0.8993 -0.3730
  161ACTN    C1 2069   8.461   8.301   3.215 -0.5325  0.0901 -0.8280
  161ACTN    H1 2070   8.503   8.368   3.140  0.4937 -0.4416 -0.7307
  161ACTN    H2 2071   8.501   8.199   3.218 -0.8372  0.0153  1.9816
  161ACTN    H3 2072   8.475   8.334   3.318  1.4440 -0.1362 -0.9977
  162ACTN    H6 2073   2.419   5.767   0.954 -0.2609 -1.3276 -1.7926
  162ACTN    C3 2074   2.329   5.774   0.892 -1.1027  0.5194 -0.4163
  162ACTN    H4 2075   2.308   5.881   0.899 -1.9944  0.3300 -0.1682
  162ACTN    H5 2076   2.356   5.740   0.792 -0.0364  1.0664 -0.3303
  162ACTN    C2 2077   2.208   5.704   0.946 -0.2222  0.2836 -0.1486
  162ACTN    O1 2078   2.106   5.764   0.971  0.3443  0.1010  0.0534
  162ACTN    C1 2079   2.214   5.553   0.966 -0.3378  0.5248 -0.3829
  162ACTN    H1 2080   2.255   5.532   1.065  1.1680  0.7644 -0.9564
  162ACTN    H2 2081   2.279   5.512   0.889  2.0609 -1.2139  2.4386
  162ACTN    H3 2082   2.115   5.507   0.960 -0.6194  0.8971  1.1342
  163ACTN    H6 2083   3.331   0.794   7.648  0.7396 -0.5766  0.5869
  163ACTN    C3 2084   3.292   0.735   7.732 -0.3256 -0.7269 -0.0038
  163ACTN    H4 2085   3.303   0.633   7.694  0.9148  0.2924 -2.4885
  163ACTN    H5 2086   3.366   0.756   7.809  0.4626  2.0309 -1.4212
  163ACTN    C2 2087   3.151   0.756   7.751  0.2139  0.4311 -0.6649
  163ACTN    O1 2088   3.087   0.665   7.806 -0.1642 -0.5743  0.1960
  163ACTN    C1 2089   3.078   0.857   7.671 -0.1639  0.1772 -0.2354
  163ACTN    H1 2090   2.983   0.811   7.644  0.0532 -0.4563  0.0520
  163ACTN    H2 2091   3.139   0.882   7.584 -0.9459  0.0023 -0.8436
  163ACTN    H3 2092   3.059   0.948   7.727  2.7323  0.2270  0.7639
  164ACTN    H6 2093   1.759   3.890   7.903 -0.5286 -1.1840  2.0894
  164ACTN    C3 2094   1.686   3.876   7.824  0.4809 -0.2165  0.9686
  164ACTN    H4 2095   1.672   3.970   7.771 -0.2348 -1.0684 -0.3641
  164ACTN    H5 2096   1.597   3.853   7.882  1.4698 -0.3361  2.4555
  164ACTN    C2 2097   1.719   3.778   7.712  0.8696 -0.5372 -0.9390
  164ACTN    O1 2098   1.633   3.726   7.640 -0.2711  0.0167 -0.1176
  164ACTN    C1 2099   1.865   3.753   7.678 -0.3730  0.3270  0.8178
  164ACTN    H1 2100   1.889   3.652   7.711  3.5436  1.0476  0.4344
  164ACTN    H2 2101   1.923   3.826   7.735 -1.3304  0.1692  2.0206
  164ACTN    H3 2102   1.882   3.759   7.571 -2.7558 -0.0722  0.3760
  165ACTN    H6 2103   3.543   8.993   8.366 -2.6883  0.7548  1.1236
  165ACTN    C3 2104   3.507   8.905   8.313 -0.2982  0.0383  0.5859
  165ACTN    H4 2105   3.399   8.907   8.332 -0.0053 -0.3791  2.4607
  165ACTN    H5 2106   3.535   8.909   8.208 -0.6563 -0.2902  0.4729
  165ACTN    C2 2107   3.568   8.793   8.391 -0.3758  0.4460  0.2968
  165ACTN    O1 2108   3.542   8.773   8.511 -0.3195 -0.8593 -0.2152
  165ACTN    C1 2109   3.674   8.706   8.318 -0.2114 -0.1302  0.6275
  165ACTN    H1 2110   3.776   8.733   8.346 -0.1397  0.0026  0.2487
  165ACTN    H2 2111   3.676   8.723   8.210 -0.9537 -1.7537  0.3369
  165ACTN    H3 2112   3.658   8.599   8.328 -1.9757  0.0651  0.1480
  166ACTN    H6 2113   7.861   8.093   5.929  2.9789  0.7652  1.6703
  166ACTN    C3 2114   7.929   8.079   5.845  0.4486 -0.1804 -0.2521
  166ACTN    H4 2115   7.930   7.970   5.837 -0.4725 -0.3104  1.2726
  166ACTN    H5 2116   7.881   8.123   5.757  0.7460  2.9847  1.1149
  166ACTN    C2 2117   8.068   8.125   5.862 -0.6558  0.7345  0.0791
  166ACTN    O1 2118   8.163   8.042   5.866  0.7864 -0.3768 -0.1026
  166ACTN    C1 2119   8.096   8.273   5.872  0.0068  0.1895 -0.5265
  166ACTN    H1 2120   8.033   8.327   5.801 -0.9855  0.1202  0.3000
  166ACTN    H2 2121   8.202   8.297   5.858 -0.1528  1.4186  0.2825
  166ACTN    H3 2122   8.064   8.296   5.973 -2.2380 -2.8365 -0.4795
  167ACTN    H6 2123   2.779   8.532   8.112  0.8284  0.8620 -1.9281
  167ACTN    C3 2124   2.886   8.534   8.134  0.4697  0.3506 -0.0172
  167ACTN    H4 2125   2.895   8.549   8.241 -1.5295 -1.0671  0.3788
  167ACTN    H5 2126   2.931   8.438   8.104 -1.3590 -0.1246 -1.3024
  167ACTN    C2 2127   2.944   8.637   8.059 -0.0291 -0.8297  0.5339
  167ACTN    O1 2128   2.950   8.743   8.115 -0.1312  0.3540 -0.2269
  167ACTN    C1 2129   2.962   8.638   7.903 -0.0141  0.7138 -0.1470
  167ACTN    H1 2130   2.927   8.546   7.855  0.5098  0.7136 -0.5293
  167ACTN    H2 2131   3.061   8.668   7.868 -0.8351  0.8790 -2.4068
  167ACTN    H3 2132   2.896   8.715   7.863 -0.9525 -0.9793 -1.9797
  168ACTN    H6 2133   6.466   8.288   4.400 -0.8259 -1.3212  0.1192
  168ACTN    C3 2134   6.522   8.203   4.359  0.1769 -0.6700  0.1041
  168ACTN    H4 2135   6.628   8.226   4.350  0.8598 -4.6694 -3.4209
  168ACTN    H5 2136   6.510   8.117   4.425  0.7106  0.7613  2.1018
  168ACTN    C2 2137   6.473   8.166   4.214 -0.3533 -0.3375 -0.2762
  168ACTN    O1 2138   6.539   8.206   4.119 -0.1488  0.1183  0.4338
  168ACTN    C1 2139   6.346   8.093   4.191  1.0757  0.5151 -0.7560
  168ACTN    H1 2140   6.301   8.075   4.288 -3.1515  1.0958 -2.4925
  168ACTN    H2 2141   6.374   8.002   4.138 -2.0435 -1.7610  1.3444
  168ACTN    H3 2142   6.287   8.160   4.128  1.1069 -0.7918 -2.2070
  169ACTN    H6 2143   4.029   1.978   3.932 -0.6095  0.7657 -3.1223
  169ACTN    C3 2144   4.065   2.077   3.959  0.0314 -0.1928 -0.2601
  169ACTN    H4 2145   4.131   2.089   3.873 -2.2000  0.9069 -1.8495
  169ACTN    H5 2146   3.979   2.143   3.959 -2.4232 -3.2760 -1.7891
  169ACTN    C2 2147   4.141   2.093   4.092  0.2379  0.4311 -1.2269
  169ACTN    O1 2148   4.172   2.198   4.143  0.1261 -0.2864  0.4802
  169ACTN    C1 2149   4.157   1.972   4.169 -0.4347  0.2371 -0.6372
  169ACTN    H1 2150   4.149   1.889   4.099  1.4714 -0.0517 -0.5446
  169ACTN    H2 2151   4.090   1.959   4.254 -1.3903  0.7206 -1.3050
  169ACTN    H3 2152   4.256   1.964   4.214 -0.6400 -0.1579 -0.2562
  170ACTN    H6 2153   6.580   3.208   6.888  1.4929 -0.5230 -0.2406
  170ACTN    C3 2154   6.544   3.205   6.785 -0.1812  0.4780  0.3058
  170ACTN    H4 2155   6.532   3.307   6.750  0.7334  0.2369 -0.7247
  170ACTN    H5 2156   6.616   3.152   6.723 -0.2298 -0.8335  1.3320
  170ACTN    C2 2157   6.418   3.132   6.768  0.5352 -0.3874 -0.5911
  170ACTN    O1 2158   6.416   3.018   6.802 -0.4488 -0.0266  0.5697
  170ACTN    C1 2159   6.309   3.202   6.689  0.4086  0.3475 -0.5496
  170ACTN    H1 2160   6.231   3.128   6.669  2.4351 -1.8511 -0.5062
  170ACTN    H2 2161   6.332   3.256   6.598 -1.9926  0.6747 -1.0031
  170ACTN    H3 2162   6.250   3.271   6.750  2.3038  0.6621  0.9647
  171ACTN    H6 2163   4.178   7.843   3.530  0.2201 -0.9730 -0.8702
  171ACTN    C3 2164   4.107   7.774   3.576 -0.1677  0.3270  0.5244
  171ACTN    H4 2165   4.026   7.828   3.624 -0.5391 -0.3345  0.6521
  171ACTN    H5 2166   4.058   7.714   3.500  0.0729 -0.1210  0.7173
  171ACTN    C2 2167   4.173   7.681   3.673 -0.2493  0.2017 -0.8504
  171ACTN    O1 2168   4.199   7.716   3.787 -0.5372 -0.4474  0.0439
  171ACTN    C1 2169   4.177   7.531   3.637 -0.7728 -0.2628 -0.1638
  171ACTN    H1 2170   4.164   7.516   3.530  2.0365  0.0436 -0.5932
  171ACTN    H2 2171   4.092   7.491   3.691  0.4282 -1.1457  1.1048
  171ACTN    H3 2172   4.278   7.498   3.661  0.6456  0.7507 -4.2653
  172ACTN    H6 2173   1.000   8.291   3.922  0.1570 -0.7230  1.9031
  172ACTN    C3 2174   0.895   8.267   3.911  0.2483 -0.0965 -0.5420
  172ACTN    H4 2175   0.870   8.281   3.806 -1.4345  1.8181  0.0869
  172ACTN    H5 2176   0.889   8.163   3.945  1.5140 -1.0460 -3.0813
  172ACTN    C2 2177   0.824   8.375   3.990  0.1668  0.5675 -0.2607
  172ACTN    O1 2178   0.855   8.391   4.104  0.0166 -0.5840 -0.3891
  172ACTN    C1 2179   0.710   8.450   3.932  0.6694  0.3039 -0.0869
  172ACTN    H1 2180   0.751   8.548   3.910  2.5351 -0.2473  0.8775
  172ACTN    H2 2181   0.625   8.465   3.998  1.5080 -0.7041  1.2353
  172ACTN    H3 2182   0.687   8.411   3.833 -1.8083  0.8342  0.2443
  173ACTN    H6 2183   8.533   2.281   2.657 -0.3110 -0.7361  0.9979
  173ACTN    C3 2184   8.431   2.254   2.629 -0.1076 -0.2375 -0.2744
  173ACTN    H4 2185   8.437   2.155   2.585  1.4469 -0.5844  0.7060
  173ACTN    H5 2186   8.358   2.261   2.710 -0.3917  1.5079 -0.6520
  173ACTN    C2 2187   8.389   2.345   2.519 -0.0323  0.3124 -0.6926
  173ACTN    O1 2188   8.275   2.330   2.467 -0.5283 -0.4192 -0.2201
  173ACTN    C1 2189   8.472   2.468   2.477 -0.6577  0.1061 -0.7743
  173ACTN    H1 2190   8.405   2.538   2.428 -1.0429 -0.8127 -1.5883
  173ACTN    H2 2191   8.532   2.424   2.396 -1.6790  0.0255 -1.4937
  173ACTN    H3 2192   8.540   2.503   2.554 -2.1438 -0.1430  0.6619
  174ACTN    H6 2193   8.063   0.524   7.996 -2.6305 -1.2392  0.5954
  174ACTN    C3 2194   8.015   0.610   8.042 -0.1048  0.4995  0.0493
  174ACTN    H4 2195   7.931   0.645   7.982 -1.5457  0.0560  1.7413
  174ACTN    H5 2196   7.976   0.593   8.143  1.2888  1.4388  0.7685
  174ACTN    C2 2197   8.124   0.708   8.056  0.1383 -0.2072 -0.1526
  174ACTN    O1 2198   8.151   0.782   7.961  0.5969 -0.6153 -0.3772
  174ACTN    C1 2199   8.232   0.692   8.156  0.2153  0.2076 -0.2499
  174ACTN    H1 2200   8.311   0.767   8.152 -0.6047  1.1962  1.5743
  174ACTN    H2 2201   8.268   0.589   8.152 -0.1273  0.0634  0.3159
  174ACTN    H3 2202   8.194   0.706   8.257 -2.2459 -1.9000 -0.8319
  175ACTN    H6 2203   6.173   0.869   5.531  1.5519 -1.4616 -1.5485
  175ACTN    C3 2204   6.126   0.917   5.446  0.2062 -0.0821 -0.0570
  175ACTN    H4 2205   6.166   1.018   5.457 -2.0083  0.7763  0.2717
  175ACTN    H5 2206   6.165   0.858   5.363  0.3196  1.3621 -1.0492
  175ACTN    C2 2207   5.977   0.913   5.450 -0.0466  0.0140 -0.1767
  175ACTN    O1 2208   5.917   0.812   5.492 -0.2215  0.2175  0.1301
  175ACTN    C1 2209   5.907   1.006   5.361 -0.2789  0.1001  0.3626
  175ACTN    H1 2210   5.938   0.990   5.257  0.8774 -0.1834  0.7498
  175ACTN    H2 2211   5.949   1.104   5.383 -1.2710  0.9011 -1.2034
  175ACTN    H3 2212   5.799   1.013   5.375 -0.8676 -1.1429 -2.9691
  176ACTN    H6 2213   7.040   3.119   6.582 -1.3330 -1.6961 -3.4346
  176ACTN    C3 2214   7.076   3.182   6.500  0.5113  0.2173 -1.2069
  176ACTN    H4 2215   7.184   3.195   6.508  0.7212 -2.1597  0.3207
  176ACTN    H5 2216   7.047   3.141   6.404 -1.9872  0.1787 -0.4771
  176ACTN    C2 2217   7.013   3.315   6.514 -0.5531 -0.4085  0.5586
  176ACTN    O1 2218   7.035   3.389   6.425 -0.0189  0.0344 -0.9065
  176ACTN    C1 2219   6.926   3.334   6.638 -0.9040 -0.0408  0.0074
  176ACTN    H1 2220   6.840   3.268   6.650  0.0399 -1.4249 -0.6319
  176ACTN    H2 2221   6.877   3.431   6.640  0.1186  0.4647  0.3778
  176ACTN    H3 2222   6.985   3.329   6.729 -0.0662  1.5980 -0.4225
  177ACTN    H6 2223   6.418   1.597   8.251  0.1669  1.8475 -0.6912
  177ACTN    C3 2224   6.345   1.549   8.185  0.3588  0.1588  0.2788
  177ACTN    H4 2225   6.241   1.573   8.207  0.1665 -1.7413  1.5109
  177ACTN    H5 2226   6.360   1.581   8.081 -0.3733 -2.4317 -0.6653
  177ACTN    C2 2227   6.360   1.401   8.209  0.1374  0.0341  0.4341
  177ACTN    O1 2228   6.371   1.351   8.320 -0.0748 -0.1288 -0.7678
  177ACTN    C1 2229   6.363   1.315   8.081 -0.6761 -0.5847  0.3050
  177ACTN    H1 2230   6.270   1.260   8.070 -0.0378 -1.2714 -1.9528
  177ACTN    H2 2231   6.447   1.245   8.084 -0.9561 -1.0004 -1.2140
  177ACTN    H3 2232   6.371   1.375   7.991 -0.0459  0.9689  1.3775
  178ACTN    H6 2233   8.836   0.484   8.007  0.8873 -0.4673  0.7737
  178ACTN    C3 2234   8.832   0.452   8.111  0.5466 -0.9031  0.6235
  178ACTN    H4 2235   8.875   0.352   8.115  4.0453  0.4721 -0.6961
  178ACTN    H5 2236   8.725   0.439   8.130  0.5332  0.2964  1.3622
  178ACTN    C2 2237   8.897   0.550   8.200 -0.0990 -0.2818 -0.4004
  178ACTN    O1 2238   8.938   0.656   8.156 -0.2181  0.0002  0.1143
  178ACTN    C1 2239   8.895   0.519   8.347 -0.1027  0.7489 -0.0477
  178ACTN    H1 2240   8.908   0.413   8.369  0.9060  1.3303  2.2527
  178ACTN    H2 2241   8.796   0.544   8.385 -1.1294 -1.4995 -1.1325
  178ACTN    H3 2242   8.959   0.579   8.411  0.5713  0.3841 -0.3759
  179ACTN    H6 2243   1.107   5.379   3.818  1.0528 -1.0127  1.2480
  179ACTN    C3 2244   1.186   5.443   3.781 -0.2865 -0.1008 -0.1019
  179ACTN    H4 2245   1.175   5.460   3.674 -0.2699 -2.9682 -0.5901
  179ACTN    H5 2246   1.171   5.536   3.837 -1.9788  0.9441 -2.2291
  179ACTN    C2 2247   1.316   5.386   3.823 -0.6316  0.5392 -0.4299
  179ACTN    O1 2248   1.393   5.429   3.906  0.4943  0.3886 -0.1358
  179ACTN    C1 2249   1.343   5.248   3.765  0.7333 -1.1651 -0.6427
  179ACTN    H1 2250   1.334   5.262   3.658  0.8095  0.7797 -0.4164
  179ACTN    H2 2251   1.272   5.171   3.795 -0.8662  0.7884  0.7677
  179ACTN    H3 2252   1.444   5.216   3.787  0.8506 -0.9840 -0.9216
  180ACTN    H6 2253   4.501   8.785   1.845 -2.3649 -0.0576  2.2636
  180ACTN    C3 2254   4.562   8.821   1.928  0.7503  0.0915 -0.0124
  180ACTN    H4 2255   4.594   8.733   1.985 -1.3255 -0.5323  0.2224
  180ACTN    H5 2256   4.653   8.864   1.884  0.4178 -1.3570 -2.2250
  180ACTN    C2 2257   4.500   8.916   2.020  0.0378  0.1150 -0.0649
  180ACTN    O1 2258   4.527   9.037   2.030  0.2186 -0.2705  0.0487
  180ACTN    C1 2259   4.381   8.868   2.091 -1.0203  0.0341  0.0195
  180ACTN    H1 2260   4.404   8.793   2.167  2.7311  1.4530  0.3854
  180ACTN    H2 2261   4.318   8.829   2.012  1.6962  0.9753 -2.6947
  180ACTN    H3 2262   4.323   8.946   2.141 -0.4553 -1.4816  3.1420
  181ACTN    H6 2263   1.484   7.686   0.477  0.8117  0.9950  0.0890
  181ACTN    C3 2264   1.492   7.644   0.577 -0.1835 -0.0444 -0.2512
  181ACTN    H4 2265   1.411   7.572   0.575  1.8931 -2.4171 -1.0517
  181ACTN    H5 2266   1.591   7.599   0.577 -0.8690 -1.5577 -0.1299
  181ACTN    C2 2267   1.473   7.745   0.681  0.0693  0.6791 -0.4045
  181ACTN    O1 2268   1.533   7.735   0.786 -0.0080 -0.5121 -0.5337
  181ACTN    C1 2269   1.380   7.870   0.657 -0.6203  0.0328 -0.0610
  181ACTN    H1 2270   1.273   7.848   0.651 -0.0373 -3.3294  0.7855
  181ACTN    H2 2271   1.405   7.918   0.563 -4.1683  1.6834 -0.2521
  181ACTN    H3 2272   1.397   7.941   0.738 -1.5798 -0.9704  1.0493
  182ACTN    H6 2273   2.811   5.342   5.907  0.0806 -0.4971 -1.0928
  182ACTN    C3 2274   2.744   5.370   5.825 -0.6782  0.2858 -0.2354
  182ACTN    H4 2275   2.742   5.478   5.827 -0.3316  0.2863  0.3289
  182ACTN    H5 2276   2.792   5.334   5.734 -2.7251 -2.5875 -0.2624
  182ACTN    C2 2277   2.612   5.302   5.835 -0.0460  0.1538 -0.3731
  182ACTN    O1 2278   2.541   5.282   5.741 -0.5499  0.9995 -0.3583
  182ACTN    C1 2279   2.550   5.306   5.969  0.0824 -0.1959  0.2679
  182ACTN    H1 2280   2.468   5.235   5.978 -0.2815  0.1430 -0.3005
  182ACTN    H2 2281   2.505   5.401   5.997 -2.4678 -1.2675 -0.0560
  182ACTN    H3 2282   2.631   5.287   6.040 -0.7347  1.2684  1.6274
  183ACTN    H6 2283   5.741   7.192   5.510  0.1539 -0.7541 -3.9344
  183ACTN    C3 2284   5.834   7.246   5.496  0.3290  0.1712  0.2384
  183ACTN    H4 2285   5.866   7.219   5.396 -0.5307 -2.8047  0.7330
  183ACTN    H5 2286   5.822   7.354   5.499 -2.2806 -0.0988  0.1843
  183ACTN    C2 2287   5.920   7.207   5.612 -0.4733 -0.0981 -0.5991
  183ACTN    O1 2288   6.008   7.117   5.604 -0.2627 -0.0045  0.5150
  183ACTN    C1 2289   5.870   7.265   5.738  0.7033  0.7105  0.0576
  183ACTN    H1 2290   5.774   7.315   5.745  0.5049  0.4120 -0.5901
  183ACTN    H2 2291   5.938   7.347   5.763  1.5815  0.1469 -0.4727
  183ACTN    H3 2292   5.876   7.190   5.817 -0.9295  0.7726  0.2492
  184ACTN    H6 2293   7.597   8.592   3.044  3.3914 -2.5427 -1.6523
  184ACTN    C3 2294   7.671   8.671   3.045  0.9927 -0.2404 -0.0731
  184ACTN    H4 2295   7.769   8.636   3.076  1.7531  0.9081 -1.1399
  184ACTN    H5 2296   7.679   8.704   2.942 -0.9505 -2.5938 -1.0094
  184ACTN    C2 2297   7.634   8.781   3.140  0.1345 -0.0961 -0.2202
  184ACTN    O1 2298   7.709   8.811   3.228 -0.0218  0.0933 -0.2594
  184ACTN    C1 2299   7.502   8.846   3.137  0.3791 -0.3108  1.0662
  184ACTN    H1 2300   7.448   8.837   3.231  0.9060  0.3139  1.4318
  184ACTN    H2 2301   7.444   8.807   3.053  2.7328  1.6789 -1.5751
  184ACTN    H3 2302   7.507   8.953   3.122  1.4445 -0.1308  2.6821
  185ACTN    H6 2303   7.738   7.272   6.964  0.4682 -0.0747 -1.5585
  185ACTN    C3 2304   7.661   7.325   6.908 -0.2572 -0.0348 -0.5420
  185ACTN    H4 2305   7.574   7.259   6.902  1.2254 -2.2245  1.1335
  185ACTN    H5 2306   7.633   7.408   6.973  0.0616 -0.0041 -0.4466
  185ACTN    C2 2307   7.702   7.356   6.767  0.1627  0.0390 -0.9606
  185ACTN    O1 2308   7.726   7.264   6.689 -0.0768  0.0767 -0.6086
  185ACTN    C1 2309   7.700   7.495   6.721 -0.1946  0.0596  0.3611
  185ACTN    H1 2310   7.798   7.538   6.741  0.6178 -2.0674  1.0076
  185ACTN    H2 2311   7.673   7.501   6.616 -1.0618  0.7892  0.6206
  185ACTN    H3 2312   7.630   7.563   6.771  2.7318  4.0020 -0.6118
  186ACTN    H6 2313   7.429   3.070   6.674 -0.7307 -0.0231  0.6057
  186ACTN    C3 2314   7.407   2.969   6.710 -0.2038 -0.5981 -0.6381
  186ACTN    H4 2315   7.422   2.977   6.818  1.6546 -2.7724 -0.6888
  186ACTN    H5 2316   7.305   2.938   6.686  0.0574 -1.9532 -0.0405
  186ACTN    C2 2317   7.500   2.879   6.644  0.6141  0.0679  0.0555
  186ACTN    O1 2318   7.457   2.765   6.624  0.2091  0.3466  0.2591
  186ACTN    C1 2319   7.643   2.923   6.627  0.0679 -0.3415 -0.0427
  186ACTN    H1 2320   7.690   2.871   6.543 -0.0683 -0.8317  0.1882
  186ACTN    H2 2321   7.701   2.900   6.716  2.5523  1.1750 -1.2383
  186ACTN    H3 2322   7.652   3.031   6.618 -2.2517 -0.1609 -0.5742
  187ACTN    H6 2323   0.554   8.588   1.379  0.6159 -1.3104 -2.6796
  187ACTN    C3 2324   0.658   8.575   1.410  0.0927 -0.0214 -0.1571
  187ACTN    H4 2325   0.716   8.518   1.337 -0.5049  0.2768 -0.8669
  187ACTN    H5 2326   0.707   8.672   1.415  0.5644 -0.2149 -0.8234
  187ACTN    C2 2327   0.654   8.516   1.546  0.5136 -0.1008 -0.5194
  187ACTN    O1 2328   0.712   8.410   1.564 -0.1509 -0.8123 -0.1503
  187ACTN    C1 2329   0.578   8.576   1.650  0.1716 -0.1721 -0.0463
  187ACTN    H1 2330   0.585   8.684   1.638  2.9000 -0.1784  1.1436
  187ACTN    H2 2331   0.613   8.547   1.749  2.1957  2.6701  0.1278
  187ACTN    H3 2332   0.470   8.560   1.648 -0.0248  0.9322  1.0089
  188ACTN    H6 2333   5.052   8.619   4.668  0.3772 -0.3845 -0.3411
  188ACTN    C3 2334   5.136   8.557   4.637 -0.0527 -0.9320 -0.4261
  188ACTN    H4 2335   5.175   8.500   4.722  1.2913 -1.5922 -1.4659
  188ACTN    H5 2336   5.111   8.495   4.551  1.9492 -1.2417 -0.8125
  188ACTN    C2 2337   5.249   8.637   4.590 -0.6841  0.4675  0.0528
  188ACTN    O1 2338   5.336   8.664   4.670 -0.2902 -0.2400 -0.3582
  188ACTN    C1 2339   5.267   8.676   4.447  0.4410 -0.5662  0.0635
  188ACTN    H1 2340   5.263   8.587   4.384 -0.3322  0.7572 -1.7986
  188ACTN    H2 2341   5.360   8.731   4.437 -1.4977  3.2412  1.9219
  188ACTN    H3 2342   5.190   8.748   4.420 -0.5943 -2.8647 -3.5629
  189ACTN    H6 2343   1.768   7.526   7.347 -1.1894  0.9433  1.1182
  189ACTN    C3 2344   1.734   7.526   7.244  0.2023  1.0346  0.6519
  189ACTN    H4 2345   1.807   7.477   7.180 -0.8559 -1.0071  0.9474
  189ACTN    H5 2346   1.644   7.465   7.237  0.8899  0.2614 -2.2915
  189ACTN    C2 2347   1.697   7.662   7.191 -0.4308 -0.3169  0.1779
  189ACTN    O1 2348   1.659   7.670   7.077 -0.6164  0.2919  0.0356
  189ACTN    C1 2349   1.687   7.779   7.291  0.2060 -0.0053 -0.6869
  189ACTN    H1 2350   1.584   7.814   7.300  0.1693 -0.6951  1.9735
  189ACTN    H2 2351   1.752   7.864   7.270  1.0471 -0.4465  0.0943
  189ACTN    H3 2352   1.716   7.741   7.389  1.7907  0.3167 -1.0202
  190ACTN    H6 2353   6.884   0.980   6.586  2.9965 -0.6649 -0.7480
  190ACTN    C3 2354   6.893   1.088   6.594 -0.5206 -0.3827  0.2832
  190ACTN    H4 2355   6.813   1.138   6.539 -2.4658 -2.0938  1.4909
  190ACTN    H5 2356   6.881   1.124   6.696 -1.2645 -1.2447  0.5004
  190ACTN    C2 2357   7.021   1.134   6.537  0.7698 -0.4417  0.2027
  190ACTN    O1 2358   7.036   1.145   6.413  0.3896 -0.8957  0.0290
  190ACTN    C1 2359   7.143   1.140   6.621  0.2457 -0.1967 -0.3586
  190ACTN    H1 2360   7.210   1.216   6.580  1.4624 -1.5774 -0.9815
  190ACTN    H2 2361   7.209   1.053   6.625  2.4632  1.4286 -0.5718
  190ACTN    H3 2362   7.122   1.174   6.722 -3.1951 -1.1988 -0.6907
  191ACTN    H6 2363   7.274   2.543   8.329 -1.3142 -2.3147  2.4594
  191ACTN    C3 2364   7.327   2.459   8.283 -0.0993 -0.4941  0.4191
  191ACTN    H4 2365   7.432   2.472   8.257 -0.4474  1.3852 -0.1492
  191ACTN    H5 2366   7.329   2.391   8.368  0.1318  0.7262  1.4116
  191ACTN    C2 2367   7.243   2.389   8.180  0.3765 -0.3764  0.2433
  191ACTN    O1 2368   7.265   2.404   8.064 -0.5799 -0.6658 -0.4672
  191ACTN    C1 2369   7.155   2.279   8.225 -0.1827 -0.0124 -0.5634
  191ACTN    H1 2370   7.207   2.192   8.267 -0.6640  0.1723  0.4272
  191ACTN    H2 2371   7.093   2.250   8.140  0.0985 -2.6041  0.0520
  191ACTN    H3 2372   7.094   2.324   8.302 -1.7459 -0.9935 -1.1991
  192ACTN    H6 2373   1.834   6.360   7.343 -0.7147  1.8908  1.1119
  192ACTN    C3 2374   1.834   6.426   7.256 -0.3092 -0.0934 -0.4409
  192ACTN    H4 2375   1.862   6.373   7.165 -0.0034 -0.6482 -0.0242
  192ACTN    H5 2376   1.736   6.471   7.244  0.4685  1.7244 -0.2179
  192ACTN    C2 2377   1.930   6.534   7.295 -0.2110  0.9446 -0.2779
  192ACTN    O1 2378   2.017   6.570   7.217  0.1055 -0.5086 -0.4138
  192ACTN    C1 2379   1.918   6.597   7.430 -0.2193  0.2905  0.2269
  192ACTN    H1 2380   1.929   6.705   7.436 -2.5661  0.5455  0.2179
  192ACTN    H2 2381   1.989   6.552   7.500 -0.4012 -0.3756 -0.0180
  192ACTN    H3 2382   1.816   6.575   7.460 -0.5102 -0.3899 -1.2354
  193ACTN    H6 2383   3.348   1.136   6.153  0.9532  0.1822 -1.2737
  193ACTN    C3 2384   3.294   1.178   6.068  0.5328  0.4646 -0.8684
  193ACTN    H4 2385   3.235   1.267   6.092 -1.3401 -0.7968 -0.7336
  193ACTN    H5 2386   3.377   1.198   6.000  0.7826 -1.0995 -1.0430
  193ACTN    C2 2387   3.206   1.079   6.005  0.4937 -0.0491  0.6571
  193ACTN    O1 2388   3.141   1.105   5.904 -0.2821  0.3700 -0.3254
  193ACTN    C1 2389   3.202   0.948   6.066 -0.6198 -0.2151  0.2180
  193ACTN    H1 2390   3.133   0.956   6.150 -0.6813  1.2383  0.0358
  193ACTN    H2 2391   3.301   0.919   6.102 -1.1679 -1.7342  0.5582
  193ACTN    H3 2392   3.175   0.875   5.990  0.5832  0.7409 -1.1491
  194ACTN    H6 2393   2.078   8.787   4.374  3.8268  1.9618  0.8152
  194ACTN    C3 2394   2.097   8.689   4.419 -0.4625  0.5827 -0.1636
  194ACTN    H4 2395   2.090   8.693   4.527 -0.9429 -0.6344 -0.1426
  194ACTN    H5 2396   2.014   8.621   4.398  0.6029 -0.7584 -0.0704
  194ACTN    C2 2397   2.233   8.641   4.373  0.1423  0.0854 -0.2101
  194ACTN    O1 2398   2.329   8.720   4.369  0.1165  0.1954  0.4011
  194ACTN    C1 2399   2.252   8.491   4.375 -0.1412  0.1529  0.4295
  194ACTN    H1 2400   2.335   8.448   4.318 -1.4748 -1.6141 -0.1947
  194ACTN    H2 2401   2.154   8.446   4.366  0.3170 -1.0071  1.2222
  194ACTN    H3 2402   2.287   8.462   4.474 -0.4266  1.4278  0.9178
  195ACTN    H6 2403   7.635   5.045   4.513 -0.4263  0.0272 -2.2311
  195ACTN    C3 2404   7.740   5.067   4.534 -0.6436 -0.6530 -0.2524
  195ACTN    H4 2405   7.807   5.041   4.452  0.4237 -1.7604  0.9536
  195ACTN    H5 2406   7.742   5.176   4.540 -1.2146 -0.5781 -1.1884
  195ACTN    C2 2407   7.790   5.001   4.656  0.3079 -0.0242  0.2404
  195ACTN    O1 2408   7.843   5.070   4.746  0.0234 -0.3186 -0.8238
  195ACTN    C1 2409   7.754   4.857   4.683 -0.0187  0.2524  0.3213
  195ACTN    H1 2410   7.674   4.842   4.755  1.6974  0.6573  2.3384
  195ACTN    H2 2411   7.849   4.827   4.728 -0.1696  1.0187  1.1720
  195ACTN    H3 2412   7.735   4.800   4.592 -1.1306  1.8770 -0.4844
  196ACTN    H6 2413   5.147   3.712   6.344 -0.1635  1.6569 -0.5623
  196ACTN    C3 2414   5.082   3.788   6.387 -0.2790  0.5133  1.3848
  196ACTN    H4 2415   5.144   3.878   6.388  1.6561 -0.6976 -1.7928
  196ACTN    H5 2416   4.997   3.800   6.321 -0.4903 -3.6193  0.7834
  196ACTN    C2 2417   5.048   3.758   6.522  0.4591  0.8898  0.3670
  196ACTN    O1 2418   5.112   3.800   6.618  0.1017  0.2179  0.1092
  196ACTN    C1 2419   4.921   3.696   6.549 -0.5206 -0.3892 -0.5857
  196ACTN    H1 2420   4.871   3.635   6.474 -2.3423 -0.0488  0.3015
  196ACTN    H2 2421   4.854   3.781   6.562  0.1365  0.3294 -1.8418
  196ACTN    H3 2422   4.918   3.641   6.644 -1.3366  1.2144  0.3492
  197ACTN    H6 2423   3.837   8.274   5.739  2.4528 -3.0203  0.1225
  197ACTN    C3 2424   3.866   8.297   5.636  0.0375  0.2342  0.0867
  197ACTN    H4 2425   3.917   8.215   5.586  1.1087  0.8326  0.1830
  197ACTN    H5 2426   3.775   8.326   5.584  0.4961 -0.4482 -1.1149
  197ACTN    C2 2427   3.963   8.414   5.647 -0.5865  0.8245 -0.4897
  197ACTN    O1 2428   4.080   8.400   5.689 -0.0371 -0.5140 -0.5176
  197ACTN    C1 2429   3.917   8.549   5.621 -0.3057 -0.3278  0.3384
  197ACTN    H1 2430   3.845   8.553   5.538  1.1052  0.0517 -0.8869
  197ACTN    H2 2431   3.991   8.619   5.582 -0.2630 -0.3771  0.3316
  197ACTN    H3 2432   3.870   8.597   5.707  1.9506  1.7719  0.4288
  198ACTN    H6 2433   4.150   0.997   4.659  1.0187 -0.9538  2.1299
  198ACTN    C3 2434   4.148   0.914   4.588 -0.4275  0.2168  0.7915
  198ACTN    H4 2435   4.079   0.837   4.622 -1.3776  0.6728 -0.0556
  198ACTN    H5 2436   4.100   0.953   4.497 -2.0687 -2.4828  0.4572
  198ACTN    C2 2437   4.272   0.854   4.557 -0.2575 -0.1360  0.5771
  198ACTN    O1 2438   4.301   0.742   4.591 -0.0201 -0.0747 -0.1030
  198ACTN    C1 2439   4.384   0.945   4.500 -0.0237  0.5588  0.3490
  198ACTN    H1 2440   4.353   1.049   4.490 -1.9201  0.0643  0.9724
  198ACTN    H2 2441   4.428   0.918   4.404 -0.8676 -1.7866  0.5913
  198ACTN    H3 2442   4.473   0.931   4.562  2.1810  0.2363 -2.7704
  199ACTN    H6 2443   7.310   1.784   6.538  0.0529  3.4297 -0.6532
  199ACTN    C3 2444   7.256   1.765   6.446  0.5086  0.3894 -0.3363
  199ACTN    H4 2445   7.161   1.817   6.457  0.3753 -0.0556  0.6193
  199ACTN    H5 2446   7.324   1.803   6.369  1.4958  0.0258  0.3429
  199ACTN    C2 2447   7.225   1.615   6.450  0.3028 -0.4022  0.0642
  199ACTN    O1 2448   7.294   1.527   6.409  0.2017 -0.2558 -0.8184
  199ACTN    C1 2449   7.083   1.586   6.502 -0.4818  0.1293 -0.2899
  199ACTN    H1 2450   7.074   1.639   6.597 -0.0843  0.3241 -0.3565
  199ACTN    H2 2451   7.080   1.479   6.522  2.0987  0.3658  1.7877
  199ACTN    H3 2452   6.999   1.614   6.440 -1.0607 -0.8747  0.0295
  200ACTN    H6 2453   0.649   6.475   4.822 -0.5195  0.4391 -0.4718
  200ACTN    C3 2454   0.734   6.543   4.813  0.2502 -0.4125  0.3017
  200ACTN    H4 2455   0.704   6.626   4.749  2.2650 -0.9137 -1.3631
  200ACTN    H5 2456   0.751   6.581   4.914 -0.8084 -0.7832  0.6280
  200ACTN    C2 2457   0.856   6.482   4.759  0.1524 -0.3438  0.2139
  200ACTN    O1 2458   0.955   6.473   4.828 -0.2744 -0.5673  0.3092
  200ACTN    C1 2459   0.844   6.428   4.624 -0.2872 -0.2818  0.4354
  200ACTN    H1 2460   0.846   6.514   4.556 -1.0599 -0.6623 -0.0736
  200ACTN    H2 2461   0.755   6.366   4.616  0.3901 -1.4792  2.0534
  200ACTN    H3 2462   0.923   6.358   4.597 -0.1578  0.2472 -0.5981
  201ACTN    H6 2463   1.420   2.712   7.695  1.9611 -1.3624  1.2934
  201ACTN    C3 2464   1.376   2.737   7.792  0.1076 -0.6184  0.2904
  201ACTN    H4 2465   1.314   2.652   7.820  0.4169 -0.6873  0.7653
  201ACTN    H5 2466   1.454   2.744   7.868 -0.7967  0.4806  1.1343
  201ACTN    C2 2467   1.308   2.873   7.782 -0.5270  1.4134 -0.4710
  201ACTN    O1 2468   1.233   2.911   7.878 -0.2884  0.0035  0.2764
  201ACTN    C1 2469   1.310   2.940   7.648 -0.5433  0.2770  0.3528
  201ACTN    H1 2470   1.253   2.865   7.594  0.9991  0.0908 -1.0606
  201ACTN    H2 2471   1.411   2.960   7.611 -0.9172 -0.5648 -1.1671
  201ACTN    H3 2472   1.244   3.026   7.651 -0.6271  0.2902 -1.3670
  202ACTN    H6 2473   8.515   3.837   6.628  2.7187  3.2842 -3.3574
  202ACTN    C3 2474   8.420   3.851   6.578  0.0327  0.4585  0.6034
  202ACTN    H4 2475   8.338   3.842   6.649 -0.8387  1.2226 -0.2955
  202ACTN    H5 2476   8.417   3.949   6.529  3.1219  0.0917 -0.4425
  202ACTN    C2 2477   8.388   3.741   6.476  0.1193  0.2024 -0.1209
  202ACTN    O1 2478   8.491   3.692   6.422 -0.3742 -0.4763  0.2100
  202ACTN    C1 2479   8.250   3.711   6.426 -0.1540 -0.6129  0.4646
  202ACTN    H1 2480   8.171   3.761   6.481 -0.9493  0.4379 -1.5411
  202ACTN    H2 2481   8.234   3.603   6.422  0.5374 -0.6907 -0.5302
  202ACTN    H3 2482   8.249   3.752   6.325  2.3506 -0.1738  0.5824
  203ACTN    H6 2483   3.112   5.252   6.815  3.3948  2.2674 -1.2348
  203ACTN    C3 2484   3.053   5.308   6.741  0.2073  0.2488 -0.3461
  203ACTN    H4 2485   2.988   5.242   6.685 -0.7615 -1.1195  2.2934
  203ACTN    H5 2486   3.000   5.385   6.797  0.4018  1.2240 -1.4989
  203ACTN    C2 2487   3.149   5.370   6.643 -0.0531 -0.4418 -0.0307
  203ACTN    O1 2488   3.251   5.420   6.686  0.0955  0.8564  0.5509
  203ACTN    C1 2489   3.100   5.402   6.499  0.5053 -0.1934  0.2261
  203ACTN    H1 2490   3.087   5.303   6.455 -0.5101  0.3725 -0.7576
  203ACTN    H2 2491   3.177   5.457   6.444  0.0198  2.7082  2.3274
  203ACTN    H3 2492   3.016   5.470   6.508  2.4085  2.3430 -0.4371
  204ACTN    H6 2493   5.913   1.224   7.464  0.1593 -0.7547  1.3539
  204ACTN    C3 2494   5.822   1.272   7.502  0.0022  0.0464 -0.0192
  204ACTN    H4 2495   5.787   1.348   7.433  0.1264  0.1505  0.0324
  204ACTN    H5 2496   5.743   1.199   7.515  1.1899 -1.2971 -0.1808
  204ACTN    C2 2497   5.839   1.343   7.626 -0.4863  1.4292 -0.8097
  204ACTN    O1 2498   5.746   1.352   7.701 -0.3924 -0.0606 -0.2748
  204ACTN    C1 2499   5.965   1.407   7.656  0.3496  0.2093 -0.3250
  204ACTN    H1 2500   5.969   1.490   7.585  4.1769 -0.9948 -1.6162
  204ACTN    H2 2501   6.057   1.350   7.656  1.6652  2.2263  1.8243
  204ACTN    H3 2502   5.952   1.443   7.758 -3.4466  1.7431 -1.2434
  205ACTN    H6 2503   6.938   7.398   7.975 -0.5484  0.2456  1.4482
  205ACTN    C3 2504   6.910   7.478   7.907 -0.4351 -0.3436  0.6881
  205ACTN    H4 2505   6.897   7.573   7.960 -0.6337 -0.7324  1.3342
  205ACTN    H5 2506   6.996   7.497   7.844  0.3363 -0.2744  1.7510
  205ACTN    C2 2507   6.804   7.438   7.813 -0.2661  0.8688 -0.4513
  205ACTN    O1 2508   6.727   7.349   7.849  0.2101 -0.2789  0.4850
  205ACTN    C1 2509   6.778   7.508   7.692 -0.1940  0.2615 -0.2336
  205ACTN    H1 2510   6.680   7.554   7.700  0.5933  1.8455  0.4899
  205ACTN    H2 2511   6.788   7.439   7.608  0.0365  0.3265 -0.2607
  205ACTN    H3 2512   6.854   7.586   7.684  0.4002 -0.1647  1.0479
  206ACTN    H6 2513   1.681   1.654   8.490  2.1247  0.6685 -0.4594
  206ACTN    C3 2514   1.620   1.691   8.409 -0.1091 -0.5826  0.5896
  206ACTN    H4 2515   1.521   1.724   8.440 -0.3102 -2.0744  1.5877
  206ACTN    H5 2516   1.677   1.774   8.367 -0.7833 -0.0152  0.7754
  206ACTN    C2 2517   1.613   1.578   8.319  0.4294 -0.5818 -0.1773
  206ACTN    O1 2518   1.556   1.472   8.353 -0.0914  0.6644  0.2854
  206ACTN    C1 2519   1.675   1.586   8.187  0.0280 -0.1335  0.9860
  206ACTN    H1 2520   1.670   1.689   8.153  0.3299  0.2233  1.9853
  206ACTN    H2 2521   1.619   1.523   8.117  2.5992  0.8296 -2.0438
  206ACTN    H3 2522   1.777   1.548   8.189  0.3233  0.6248  0.3492
  207ACTN    H6 2523   4.311   2.837   4.786 -1.3033 -1.3721 -1.5301
  207ACTN    C3 2524   4.366   2.872   4.698  0.8125  0.5468  0.4967
  207ACTN    H4 2525   4.357   2.980   4.699  3.1166  0.7885 -1.2275
  207ACTN    H5 2526   4.474   2.858   4.703  0.6238 -0.5285  2.0652
  207ACTN    C2 2527   4.299   2.817   4.569  0.4093  0.3010 -0.2260
  207ACTN    O1 2528   4.307   2.866   4.459  0.1896 -0.6394  0.1599
  207ACTN    C1 2529   4.216   2.689   4.580 -0.1889 -0.3936 -0.3738
  207ACTN    H1 2530   4.113   2.720   4.592  0.0627 -0.6912  3.3777
  207ACTN    H2 2531   4.234   2.634   4.673 -0.8012 -1.4091 -0.8505
  207ACTN    H3 2532   4.227   2.624   4.493  1.4554  1.3313 -1.4955
  208ACTN    H6 2533   6.117   6.493   3.208  0.1721  1.0205 -0.7355
  208ACTN    C3 2534   6.028   6.553   3.190 -0.1647  0.7860  0.1622
  208ACTN    H4 2535   6.036   6.602   3.093  1.2595 -0.6956 -0.4802
  208ACTN    H5 2536   5.945   6.484   3.188  1.7958 -1.5989 -2.2712
  208ACTN    C2 2537   5.996   6.653   3.294  0.0774  0.3221 -0.1779
  208ACTN    O1 2538   5.898   6.650   3.370 -0.7686 -0.9004 -0.0809
  208ACTN    C1 2539   6.095   6.760   3.313 -0.4180  0.2198  0.3071
  208ACTN    H1 2540   6.055   6.836   3.380  0.3129  0.1191  0.8708
  208ACTN    H2 2541   6.116   6.796   3.212  0.1423  1.1398  0.7453
  208ACTN    H3 2542   6.189   6.734   3.361 -1.2497  1.8666  2.9017
  209ACTN    H6 2543   5.429   0.103   1.785 -0.1752 -0.4574 -0.5259
  209ACTN    C3 2544   5.380   0.172   1.853  0.7894 -0.3623  0.0824
  209ACTN    H4 2545   5.375   0.268   1.802 -3.0479  0.1143  1.2222
  209ACTN    H5 2546   5.274   0.150   1.864  1.1088 -1.3255  1.3204
  209ACTN    C2 2547   5.452   0.183   1.986 -0.1385  0.2923 -0.0517
  209ACTN    O1 2548   5.569   0.143   1.985  0.0464  0.2738  0.4708
  209ACTN    C1 2549   5.382   0.270   2.098  0.5334  0.2790 -0.2238
  209ACTN    H1 2550   5.382   0.378   2.079  1.3415  0.2666 -0.3200
  209ACTN    H2 2551   5.425   0.248   2.196 -2.0281 -1.4943  0.5535
  209ACTN    H3 2552   5.281   0.228   2.099  0.5832  0.1557  0.8261
  210ACTN    H6 2553   7.249   5.803   2.082  0.7585  2.9696 -1.1854
  210ACTN    C3 2554   7.358   5.801   2.072  0.8867 -0.0494  0.1164
  210ACTN    H4 2555   7.406   5.741   2.150 -0.0069 -0.5447  0.2876
  210ACTN    H5 2556   7.379   5.763   1.972 -1.0370 -0.2351 -0.2378
  210ACTN    C2 2557   7.422   5.939   2.069 -0.4582 -0.0802 -0.3082
  210ACTN    O1 2558   7.359   6.038   2.044  0.0698 -0.1145 -0.7503
  210ACTN    C1 2559   7.575   5.957   2.083 -0.2603 -0.3735 -0.3430
  210ACTN    H1 2560   7.610   5.882   2.153  0.0951 -0.2258 -0.3606
  210ACTN    H2 2561   7.601   6.062   2.099 -0.3559 -0.1565 -1.5159
  210ACTN    H3 2562   7.612   5.936   1.982  0.5691  1.1977 -0.3851
  211ACTN    H6 2563   8.846   2.093   5.052  0.7413  0.0133  1.2397
  211ACTN    C3 2564   8.946   2.119   5.018 -0.0208 -0.1190 -1.2500
  211ACTN    H4 2565   8.949   2.227   5.011 -0.8953 -0.1892 -2.7920
  211ACTN    H5 2566   9.014   2.090   5.098 -0.6122 -0.0505 -0.7192
  211ACTN    C2 2567   8.979   2.052   4.888 -0.1137 -0.1645 -0.1481
  211ACTN    O1 2568   8.892   1.998   4.822  0.2430  0.1977 -0.2063
  211ACTN    C1 2569   9.115   2.074   4.834 -0.7245  0.5895 -0.8776
  211ACTN    H1 2570   9.118   2.100   4.728  0.5688  1.9008 -0.5450
  211ACTN    H2 2571   9.167   1.980   4.852  1.1583  1.3543 -2.0949
  211ACTN    H3 2572   9.171   2.148   4.891 -1.7105  0.7942 -0.1615
  212ACTN    H6 2573   1.571   3.054   7.150  1.0498 -0.2092  0.5961
  212ACTN    C3 2574   1.646   3.020   7.078  0.3469  0.0213 -0.2541
  212ACTN    H4 2575   1.725   3.095   7.077  1.4193 -1.1218 -1.1324
  212ACTN    H5 2576   1.677   2.923   7.117 -1.7381 -0.7101 -0.3272
  212ACTN    C2 2577   1.579   3.010   6.945 -0.1236  0.1522  0.4641
  212ACTN    O1 2578   1.500   2.911   6.928 -0.1815  0.6106  0.4057
  212ACTN    C1 2579   1.608   3.105   6.828  0.3514 -0.5236  0.0244
  212ACTN    H1 2580   1.552   3.073   6.741 -1.9554  2.7416  0.1919
  212ACTN    H2 2581   1.715   3.110   6.808  1.1527  2.0670  4.2078
  212ACTN    H3 2582   1.583   3.208   6.857  1.7759 -0.5736  1.4983
  213ACTN    H6 2583   4.863   2.254   4.820 -0.0031 -0.0283  0.0331
  213ACTN    C3 2584   4.884   2.236   4.715 -0.1470  0.3206 -0.0591
  213ACTN    H4 2585   4.963   2.296   4.671 -0.6631  1.1609  0.1657
  213ACTN    H5 2586   4.914   2.132   4.703  0.3033  0.4718 -0.2282
  213ACTN    C2 2587   4.753   2.257   4.642 -0.3137  0.1752  0.6235
  213ACTN    O1 2588   4.707   2.173   4.564 -0.0952  0.1662  0.2627
  213ACTN    C1 2589   4.671   2.389   4.655  0.9810 -0.5840  0.5303
  213ACTN    H1 2590   4.708   2.481   4.612 -1.1898  0.2542  0.4070
  213ACTN    H2 2591   4.660   2.403   4.763  2.2240 -0.9731  0.7152
  213ACTN    H3 2592   4.568   2.385   4.618 -0.1991  3.2326  3.1505
  214ACTN    H6 2593   8.763   8.353   3.127 -0.3653  1.2774 -0.2141
  214ACTN    C3 2594   8.857   8.353   3.181 -0.4284 -0.0732 -0.0991
  214ACTN    H4 2595   8.906   8.450   3.176  0.6146 -0.5754  0.2082
  214ACTN    H5 2596   8.840   8.337   3.288 -1.2228 -1.5173 -0.4207
  214ACTN    C2 2597   8.950   8.234   3.148  0.7119  0.9612  0.5167
  214ACTN    O1 2598   9.064   8.246   3.113  0.8393  0.0988 -0.0098
  214ACTN    C1 2599   8.886   8.099   3.163  0.3580 -0.2943 -0.0286
  214ACTN    H1 2600   8.790   8.100   3.214 -0.6000  1.4853 -1.8277
  214ACTN    H2 2601   8.951   8.048   3.234  0.7827  0.5275  0.1891
  214ACTN    H3 2602   8.881   8.046   3.068 -0.5293 -2.6314  1.2742
  215ACTN    H6 2603   7.158   7.774   4.536  0.3372 -3.2164  1.0175
  215ACTN    C3 2604   7.057   7.758   4.574 -0.6414 -0.1815 -0.1926
  215ACTN    H4 2605   7.015   7.858   4.586 -0.4511 -0.3840  2.4714
  215ACTN    H5 2606   6.993   7.704   4.504  1.0269 -2.2616 -0.1594
  215ACTN    C2 2607   7.053   7.708   4.715  0.4008 -0.3145 -0.3861
  215ACTN    O1 2608   7.051   7.594   4.736 -0.1736  0.1570 -0.2524
  215ACTN    C1 2609   7.084   7.806   4.828  0.2392 -0.0903  0.3636
  215ACTN    H1 2610   7.186   7.798   4.864 -0.4951 -0.0916  2.5171
  215ACTN    H2 2611   7.022   7.770   4.911 -0.0217 -0.1952  0.1250
  215ACTN    H3 2612   7.071   7.910   4.799 -1.2807 -0.8902 -1.9781
  216ACTN    H6 2613   1.333   2.899   7.249 -0.3575  1.0104 -2.3701
  216ACTN    C3 2614   1.253   2.971   7.262 -0.6885  0.3478 -0.6439
  216ACTN    H4 2615   1.178   2.947   7.186 -0.1640 -0.0793 -1.0242
  216ACTN    H5 2616   1.207   2.946   7.358  3.3159 -1.4500  0.9054
  216ACTN    C2 2617   1.317   3.110   7.250 -0.5326  0.2400 -0.1062
  216ACTN    O1 2618   1.308   3.168   7.144 -0.3447 -0.2332  0.2983
  216ACTN    C1 2619   1.356   3.183   7.374 -0.1239 -0.6103 -0.6463
  216ACTN    H1 2620   1.273   3.217   7.435  0.7400 -0.8561  0.6823
  216ACTN    H2 2621   1.418   3.266   7.342 -1.0917  1.1516  1.8962
  216ACTN    H3 2622   1.417   3.113   7.431  1.2077 -0.1591 -1.4859
  217ACTN    H6 2623   2.486   6.131   5.979 -1.0882 -2.8288  0.7720
  217ACTN    C3 2624   2.400   6.168   6.034 -0.2259 -0.0420  0.2993
  217ACTN    H4 2625   2.339   6.224   5.963  0.6127 -0.3342 -0.6629
  217ACTN    H5 2626   2.440   6.238   6.108  0.4254 -0.2447  0.1348
  217ACTN    C2 2627   2.328   6.052   6.090  0.1362  0.0678 -0.2235
  217ACTN    O1 2628   2.249   5.981   6.024  0.1404 -0.0248 -0.7776
  217ACTN    C1 2629   2.350   6.028   6.233 -0.2368  1.2996  0.0672
  217ACTN    H1 2630   2.443   6.080   6.257  0.2076  1.6807 -2.3340
  217ACTN    H2 2631   2.352   5.921   6.253 -1.3832  1.0543 -1.0641
  217ACTN    H3 2632   2.264   6.070   6.286  0.5133  1.4662  1.1791
  218ACTN    H6 2633   1.944   5.612   0.033  0.6005 -0.5951 -0.1441
  218ACTN    C3 2634   2.049   5.601   0.056  0.7355  0.6063 -0.1475
  218ACTN    H4 2635   2.071   5.503   0.100 -1.1922 -0.0365 -0.5727
  218ACTN    H5 2636   2.101   5.629  -0.036 -0.0964  2.1910 -0.1329
  218ACTN    C2 2637   2.088   5.702   0.158 -0.0706  0.2913 -0.4694
  218ACTN    O1 2638   2.137   5.660   0.262 -0.0271 -0.2866 -0.0190
  218ACTN    C1 2639   2.088   5.853   0.133 -0.2426 -0.3793 -0.7563
  218ACTN    H1 2640   1.984   5.887   0.130 -0.2617 -0.4024 -0.4027
  218ACTN    H2 2641   2.126   5.894   0.039  0.5492  0.3161 -0.1371
  218ACTN    H3 2642   2.127   5.908   0.219 -0.8739  1.7357 -1.7779
  219ACTN    H6 2643   8.379   1.471   4.991  0.8449  0.2518  0.9987
  219ACTN    C3 2644   8.477   1.428   5.014  0.6005 -0.7219  0.2915
  219ACTN    H4 2645   8.555   1.483   4.963  1.2244 -0.7158  1.2367
  219ACTN    H5 2646   8.499   1.445   5.120  2.3760  2.0650 -0.4626
  219ACTN    C2 2647   8.478   1.277   4.985  0.0036 -0.3626  0.1239
  219ACTN    O1 2648   8.394   1.203   5.042  0.5155  0.3086 -0.0895
  219ACTN    C1 2649   8.602   1.231   4.915  0.1556 -0.3674 -0.3305
  219ACTN    H1 2650   8.684   1.303   4.918 -1.2695  1.3663 -2.3238
  219ACTN    H2 2651   8.591   1.187   4.816  3.1580 -1.1673 -0.3632
  219ACTN    H3 2652   8.637   1.149   4.978 -3.2360  0.4336  2.7993
  220ACTN    H6 2653   7.741   4.839   4.284 -1.8673 -0.5921 -1.2449
  220ACTN    C3 2654   7.812   4.836   4.200  0.0481  0.0476  0.3080
  220ACTN    H4 2655   7.769   4.771   4.124 -1.3835  1.0240  0.2444
  220ACTN    H5 2656   7.808   4.938   4.162  1.1731  0.0852  0.2947
  220ACTN    C2 2657   7.945   4.795   4.239  0.5319 -0.1831 -0.3801
  220ACTN    O1 2658   7.980   4.793   4.361 -0.0228 -0.1627  0.1098
  220ACTN    C1 2659   8.048   4.758   4.141 -0.6974 -0.4032  0.4630
  220ACTN    H1 2660   8.147   4.792   4.170 -0.4727 -0.7256  0.0872
  220ACTN    H2 2661   8.021   4.781   4.038  0.5551  0.6813  0.3788
  220ACTN    H3 2662   8.054   4.649   4.146  0.3605 -0.4400 -1.2593
  221ACTN    H6 2663   0.017   1.402   3.164 -0.9886 -2.7617  0.1978
  221ACTN    C3 2664   0.117   1.395   3.121 -0.8793  0.0904 -0.1318
  221ACTN    H4 2665   0.189   1.405   3.203 -1.0602  0.3702 -0.0083
  221ACTN    H5 2666   0.119   1.297   3.072  0.6357  0.2006 -0.3307
  221ACTN    C2 2667   0.152   1.494   3.016 -0.5530 -0.4177  0.8546
  221ACTN    O1 2668   0.148   1.604   3.068 -0.2960  0.0875  0.1143
  221ACTN    C1 2669   0.237   1.469   2.902  0.6526 -0.7110  0.5859
  221ACTN    H1 2670   0.201   1.380   2.852 -2.8468  0.6119  0.6602
  221ACTN    H2 2671   0.330   1.437   2.949 -0.7755 -1.4018  3.0288
  221ACTN    H3 2672   0.244   1.561   2.843  0.4881  0.0495  1.7526
  222ACTN    H6 2673   4.016   1.015   6.868  0.6847  0.5772  1.4477
  222ACTN    C3 2674   3.938   1.018   6.944 -0.4616 -0.0970  0.3080
  222ACTN    H4 2675   3.960   1.107   7.003 -0.5465  0.1883 -0.0897
  222ACTN    H5 2676   3.943   0.936   7.016 -1.8200  0.2098  0.7564
  222ACTN    C2 2677   3.803   1.013   6.889  1.1729 -0.2620  0.6292
  222ACTN    O1 2678   3.710   1.008   6.969 -0.3908 -0.1597  0.2473
  222ACTN    C1 2679   3.781   1.043   6.743 -0.2344  0.4007 -0.7584
  222ACTN    H1 2680   3.706   0.974   6.704 -0.6237 -0.5017  1.5000
  222ACTN    H2 2681   3.873   1.022   6.687  0.0878  1.3342 -0.5772
  222ACTN    H3 2682   3.752   1.145   6.721  0.3366  0.6709 -0.2815
  223ACTN    H6 2683   4.459   8.391   6.830  0.7948  0.5868  0.2188
  223ACTN    C3 2684   4.380   8.466   6.834 -0.0666 -0.3220  0.4827
  223ACTN    H4 2685   4.305   8.437   6.907 -1.0504  2.9077  0.8452
  223ACTN    H5 2686   4.424   8.560   6.869 -0.1063 -0.3933  0.7221
  223ACTN    C2 2687   4.316   8.497   6.706 -0.3207  0.2352 -0.7626
  223ACTN    O1 2688   4.268   8.612   6.691  0.1332 -0.3160 -0.5474
  223ACTN    C1 2689   4.298   8.401   6.597  0.8548 -0.0347 -0.1597
  223ACTN    H1 2690   4.192   8.378   6.587  1.3534 -1.3794 -2.7116
  223ACTN    H2 2691   4.349   8.308   6.622 -0.0760  0.1744  2.7632
  223ACTN    H3 2692   4.343   8.435   6.504  1.8947 -0.8957  0.0173
  224ACTN    H6 2693   7.384   1.827   5.116  0.7868 -0.0347 -0.4040
  224ACTN    C3 2694   7.310   1.751   5.091  0.7019 -0.1314  0.1268
  224ACTN    H4 2695   7.293   1.678   5.170  2.0576  1.2439  1.7346
  224ACTN    H5 2696   7.353   1.695   5.007  2.7609 -2.5041  2.6721
  224ACTN    C2 2697   7.193   1.819   5.036  0.8937 -0.8034  0.0421
  224ACTN    O1 2698   7.198   1.884   4.928  0.0519 -0.2631  0.4448
  224ACTN    C1 2699   7.058   1.796   5.104 -0.1463 -0.3131  0.1086
  224ACTN    H1 2700   7.008   1.892   5.091  1.3094  0.5153  0.5014
  224ACTN    H2 2701   7.059   1.787   5.213  1.1685 -1.9458 -0.0119
  224ACTN    H3 2702   6.997   1.721   5.054  0.6477 -0.9591  0.0995
  225ACTN    H6 2703   1.550   1.789   0.264 -0.3271  0.9156 -0.3745
  225ACTN    C3 2704   1.542   1.696   0.321 -0.2782  0.8971 -0.3978
  225ACTN    H4 2705   1.613   1.696   0.404  2.8990 -1.1600 -2.9923
  225ACTN    H5 2706   1.443   1.684   0.365 -0.2705 -0.5058 -0.7541
  225ACTN    C2 2707   1.591   1.583   0.238 -0.3465  0.0890 -0.6630
  225ACTN    O1 2708   1.579   1.471   0.285 -0.4396  1.1277  0.5511
  225ACTN    C1 2709   1.651   1.609   0.105  0.3243 -1.5398  0.2671
  225ACTN    H1 2710   1.576   1.571   0.036 -1.5891  1.2239  0.7005
  225ACTN    H2 2711   1.747   1.558   0.099  0.4566 -1.1921 -0.6362
  225ACTN    H3 2712   1.658   1.712   0.070  1.6346 -1.3015  1.1915
  226ACTN    H6 2713   6.926   7.421   1.509 -0.5588  1.4166  0.7503
  226ACTN    C3 2714   6.856   7.360   1.567 -0.1266 -0.6628 -0.8491
  226ACTN    H4 2715   6.843   7.265   1.515 -0.8515  0.5874 -3.0280
  226ACTN    H5 2716   6.903   7.331   1.661 -2.3555  0.7565  0.7406
  226ACTN    C2 2717   6.731   7.427   1.604 -0.1739 -0.2053  0.1578
  226ACTN    O1 2718   6.720   7.545   1.565  0.0790  0.4741 -0.1782
  226ACTN    C1 2719   6.633   7.351   1.688  0.1833 -0.0302  0.6736
  226ACTN    H1 2720   6.611   7.260   1.632  2.9582 -1.0932  1.1811
  226ACTN    H2 2721   6.545   7.412   1.704  1.2165  1.7876 -0.3697
  226ACTN    H3 2722   6.671   7.327   1.788  0.6677 -2.0945  0.0302
  227ACTN    H6 2723   1.776   0.206   7.717 -0.2962 -0.6691  1.2072
  227ACTN    C3 2724   1.839   0.245   7.796  0.3694  0.9776 -0.0886
  227ACTN    H4 2725   1.896   0.336   7.778 -1.9304  2.4218 -0.2004
  227ACTN    H5 2726   1.766   0.269   7.873 -0.1339 -1.1527  0.1319
  227ACTN    C2 2727   1.935   0.140   7.840  0.1196 -0.4646 -0.2510
  227ACTN    O1 2728   1.983   0.151   7.949 -0.6708 -0.2485  0.4674
  227ACTN    C1 2729   2.010   0.053   7.747  0.6014  0.5697 -0.0564
  227ACTN    H1 2730   2.116   0.082   7.751  0.5414  0.5889  3.1554
  227ACTN    H2 2731   1.965   0.073   7.650 -0.3858  2.0044  0.6736
  227ACTN    H3 2732   2.005  -0.047   7.789  0.5021  0.7555  0.3854
  228ACTN    H6 2733   1.917   2.527   3.682  0.8590  1.1060 -0.8557
  228ACTN    C3 2734   1.893   2.436   3.626  0.1116  0.7911 -0.0367
  228ACTN    H4 2735   1.799   2.455   3.575  0.0877  0.5074 -0.0967
  228ACTN    H5 2736   1.967   2.429   3.546  1.0108  2.4012  0.6284
  228ACTN    C2 2737   1.888   2.320   3.723  0.3709 -0.1972 -0.5263
  228ACTN    O1 2738   1.832   2.212   3.684 -0.2043 -0.1653  0.6014
  228ACTN    C1 2739   1.958   2.322   3.862  0.1489 -0.1386  0.0310
  228ACTN    H1 2740   1.894   2.276   3.938 -0.0387  2.7675  1.7137
  228ACTN    H2 2741   1.983   2.424   3.889  0.0236  0.5345 -2.2878
  228ACTN    H3 2742   2.052   2.267   3.857 -1.1065 -2.1949 -1.8040
  229ACTN    H6 2743   2.959   1.290   8.066 -0.0733  1.8564 -1.8389
  229ACTN    C3 2744   2.861   1.298   8.112  0.2539 -0.0415 -0.8021
  229ACTN    H4 2745   2.829   1.217   8.178  0.3807  0.0050 -0.6822
  229ACTN    H5 2746   2.842   1.386   8.174  0.7944 -1.0344  0.8139
  229ACTN    C2 2747   2.768   1.288   7.996  0.3146 -0.4015 -0.7939
  229ACTN    O1 2748   2.790   1.197   7.919 -0.0284 -0.9680  0.3073
  229ACTN    C1 2749   2.657   1.385   7.999 -0.2877 -0.1915  0.4472
  229ACTN    H1 2750   2.583   1.363   8.076 -1.4510  2.1091  0.0357
  229ACTN    H2 2751   2.604   1.395   7.904 -0.3787  0.1315  0.5306
  229ACTN    H3 2752   2.685   1.485   8.032 -0.6188 -0.8315  2.7419
  230ACTN    H6 2753   4.249   5.779   2.175 -1.7947  0.8085  0.1130
  230ACTN    C3 2754   4.278   5.770   2.280  0.4106  0.2322 -0.5291
  230ACTN    H4 2755   4.331   5.675   2.289  0.3795  0.3078  0.5065
  230ACTN    H5 2756   4.348   5.852   2.300  0.6896  0.4371 -2.2701
  230ACTN    C2 2757   4.156   5.787   2.367 -0.9137  0.5233  0.2837
  230ACTN    O1 2758   4.047   5.754   2.320  0.0213  0.1145 -0.3968
  230ACTN    C1 2759   4.160   5.811   2.515  0.2814 -0.3293 -0.4394
  230ACTN    H1 2760   4.258   5.844   2.548 -0.0754  0.6105 -0.3207
  230ACTN    H2 2761   4.136   5.720   2.572  0.5197 -1.2703 -1.8196
  230ACTN    H3 2762   4.093   5.892   2.543  0.7337 -0.1080  0.0126
  231ACTN    H6 2763   5.398   3.643   0.039  0.3669  0.2909  0.4675
  231ACTN    C3 2764   5.440   3.544   0.022 -0.3878  0.0539 -0.0646
  231ACTN    H4 2765   5.362   3.484  -0.025 -1.3540  2.4882 -1.6517
  231ACTN    H5 2766   5.523   3.548  -0.049 -0.2629  0.3587  0.0981
  231ACTN    C2 2767   5.483   3.480   0.153  0.5305 -0.0876  0.0373
  231ACTN    O1 2768   5.520   3.367   0.157 -0.1816 -0.1706  0.0315
  231ACTN    C1 2769   5.477   3.557   0.278  0.2362  0.3812 -0.7517
  231ACTN    H1 2770   5.379   3.603   0.293 -0.6899 -1.6357 -0.5004
  231ACTN    H2 2771   5.537   3.648   0.271  0.0846  0.3481 -2.5730
  231ACTN    H3 2772   5.499   3.508   0.373  1.5589  3.3290  0.5394
  232ACTN    H6 2773   0.279   5.861   7.680  1.5163 -0.1309  0.9303
  232ACTN    C3 2774   0.285   5.752   7.672 -0.0567 -0.1925  0.2901
  232ACTN    H4 2775   0.362   5.714   7.739  0.9315  2.6694  0.8512
  232ACTN    H5 2776   0.188   5.718   7.706 -0.6553 -0.5514 -1.7305
  232ACTN    C2 2777   0.306   5.718   7.525 -1.0906  0.0482 -0.0605
  232ACTN    O1 2778   0.415   5.750   7.474  0.5655 -0.1464 -0.0982
  232ACTN    C1 2779   0.201   5.654   7.439 -0.2764 -0.5254  0.7348
  232ACTN    H1 2780   0.159   5.726   7.368  0.9495 -1.3926 -0.9112
  232ACTN    H2 2781   0.115   5.617   7.494 -1.2462 -0.4692 -0.6955
  232ACTN    H3 2782   0.241   5.569   7.383  0.9121  0.5342 -0.0622
  233ACTN    H6 2783   4.943   5.557   1.903  1.0459  0.6875  2.0947
  233ACTN    C3 2784   4.860   5.518   1.963 -0.0722 -1.0313 -0.4866
  233ACTN    H4 2785   4.863   5.412   1.941 -0.4248 -1.3699  1.0755
  233ACTN    H5 2786   4.880   5.530   2.069  3.1427 -1.9411 -0.9066
  233ACTN    C2 2787   4.717   5.559   1.935 -0.1902 -0.6921  0.1026
  233ACTN    O1 2788   4.656   5.498   1.851 -0.2539  0.6571  0.2547
  233ACTN    C1 2789   4.669   5.693   1.987  0.0117 -0.5420 -0.0115
  233ACTN    H1 2790   4.643   5.756   1.901 -0.2659  0.5764  0.8748
  233ACTN    H2 2791   4.749   5.749   2.035 -0.0807 -0.7268  0.3553
  233ACTN    H3 2792   4.580   5.689   2.049  0.6546  1.3009  1.0828
  234ACTN    H6 2793   8.727   7.299   3.436 -0.1649 -1.7692  0.9621
  234ACTN    C3 2794   8.821   7.274   3.386 -0.1857  0.0814 -0.0450
  234ACTN    H4 2795   8.821   7.173   3.345  1.2597  0.2811 -0.5553
  234ACTN    H5 2796   8.825   7.336   3.297  3.3953  3.1732  2.1016
  234ACTN    C2 2797   8.926   7.311   3.485 -0.1395  0.4835 -0.0488
  234ACTN    O1 2798   9.039   7.326   3.440  0.8711 -0.5096 -0.5295
  234ACTN    C1 2799   8.886   7.319   3.634 -0.8492 -0.4739 -0.0158
  234ACTN    H1 2800   8.968   7.379   3.673 -1.9049  0.5734  0.6327
  234ACTN    H2 2801   8.875   7.218   3.673 -0.3527 -0.2702  0.6534
  234ACTN    H3 2802   8.791   7.372   3.639 -0.5879  0.2252 -2.0280
  235ACTN    H6 2803   8.800   0.755   2.449 -0.0630 -0.3764  0.4166
  235ACTN    C3 2804   8.904   0.765   2.417 -0.1534 -0.1522  0.1864
  235ACTN    H4 2805   8.960   0.698   2.482  0.1860 -0.6405 -0.6130
  235ACTN    H5 2806   8.912   0.730   2.314  0.2737  3.0851 -0.9475
  235ACTN    C2 2807   8.943   0.903   2.441 -0.4016  0.6948  0.1786
  235ACTN    O1 2808   8.863   0.986   2.474 -0.2944  0.1560 -0.6739
  235ACTN    C1 2809   9.059   0.946   2.362  0.4957 -0.4530  0.6297
  235ACTN    H1 2810   9.039   0.965   2.256  1.3066  1.7843  0.8382
  235ACTN    H2 2811   9.130   0.864   2.364  0.4270 -0.5506 -0.4977
  235ACTN    H3 2812   9.104   1.034   2.408 -1.0547  0.2515  0.8259
  236ACTN    H6 2813   0.930   5.657   3.900  2.1767  1.0863 -0.1795
  236ACTN    C3 2814   0.895   5.698   3.805 -0.0509 -0.1688  0.0747
  236ACTN    H4 2815   0.794   5.661   3.786  0.0356  0.7292 -2.2864
  236ACTN    H5 2816   0.949   5.661   3.718 -1.0169  0.4226 -0.7867
  236ACTN    C2 2817   0.892   5.846   3.801 -0.1838  0.2017  0.7047
  236ACTN    O1 2818   0.920   5.900   3.699 -0.4084  0.9291  0.1051
  236ACTN    C1 2819   0.874   5.934   3.924 -0.0372  0.2378 -0.4687
  236ACTN    H1 2820   0.939   5.904   4.005 -0.4517  1.2158  0.2372
  236ACTN    H2 2821   0.770   5.929   3.956  0.4011 -2.3342  0.6136
  236ACTN    H3 2822   0.889   6.040   3.904  2.7703  0.1860  1.1295
  237ACTN    H6 2823   6.814   2.443   3.747 -1.5531  0.3072 -2.8217
  237ACTN    C3 2824   6.902   2.419   3.688 -0.0994  0.6214 -0.8482
  237ACTN    H4 2825   6.888   2.473   3.594  0.7821  0.5222 -1.0478
  237ACTN    H5 2826   6.997   2.455   3.728  0.4772 -0.0396 -1.5903
  237ACTN    C2 2827   6.926   2.278   3.654 -0.1545  0.0608 -0.4870
  237ACTN    O1 2828   6.983   2.250   3.548  0.3309  0.0968  0.2381
  237ACTN    C1 2829   6.934   2.195   3.781 -0.3235  0.1722  0.4120
  237ACTN    H1 2830   6.955   2.090   3.765 -1.6975 -0.1082  0.3915
  237ACTN    H2 2831   6.842   2.192   3.839  0.7040  1.0054  2.1634
  237ACTN    H3 2832   7.011   2.236   3.847  0.8519 -1.2684 -0.0357
  238ACTN    H6 2833   0.975   8.661   6.005 -0.5421 -0.5231  0.4239
  238ACTN    C3 2834   1.060   8.597   5.982 -0.5414 -0.5051  0.3764
  238ACTN    H4 2835   1.109   8.575   6.077  0.4541  1.1736  0.2584
  238ACTN    H5 2836   1.023   8.502   5.942 -0.2392 -1.5441  2.4587
  238ACTN    C2 2837   1.145   8.670   5.881 -0.3295 -0.2856  0.7487
  238ACTN    O1 2838   1.191   8.785   5.904  0.3996  0.8578  0.1735
  238ACTN    C1 2839   1.147   8.615   5.740 -0.2383  0.4413 -0.3704
  238ACTN    H1 2840   1.246   8.609   5.693 -0.0814  3.5456 -0.5332
  238ACTN    H2 2841   1.087   8.673   5.670 -1.0496 -1.2767 -1.1594
  238ACTN    H3 2842   1.108   8.513   5.734 -1.2012  0.8833 -1.7480
  239ACTN    H6 2843   7.760   4.694   8.646  0.6980 -0.6078 -2.2292
  239ACTN    C3 2844   7.788   4.797   8.624  0.1217  0.0656  0.0961
  239ACTN    H4 2845   7.727   4.857   8.693 -1.5991 -2.9514  1.3069
  239ACTN    H5 2846   7.893   4.809   8.649 -0.1016 -2.2931  2.3598
  239ACTN    C2 2847   7.750   4.843   8.479  0.7911  0.4152  0.3592
  239ACTN    O1 2848   7.838   4.859   8.394 -0.2506 -0.5387  0.0632
  239ACTN    C1 2849   7.612   4.832   8.420  0.1279 -0.2125 -0.1519
  239ACTN    H1 2850   7.598   4.886   8.326 -0.4737 -1.6841 -0.9198
  239ACTN    H2 2851   7.535   4.868   8.489 -2.0688  1.6597 -3.4414
  239ACTN    H3 2852   7.595   4.726   8.403 -0.2327 -0.4047  1.3663
  240ACTN    H6 2853   1.746   8.413   3.382 -2.6994  0.1242 -1.3809
  240ACTN    C3 2854   1.712   8.438   3.483 -0.0221  0.1044 -0.4553
  240ACTN    H4 2855   1.714   8.345   3.539 -1.6540 -0.1184 -0.7665
  240ACTN    H5 2856   1.790   8.498   3.532  1.0190 -2.3669  0.9795
  240ACTN    C2 2857   1.575   8.488   3.488  0.5237  0.4010 -0.3382
  240ACTN    O1 2858   1.499   8.470   3.396  0.2868 -0.5662  0.1777
  240ACTN    C1 2859   1.535   8.565   3.605  0.3494  0.9055 -0.2716
  240ACTN    H1 2860   1.449   8.631   3.589 -0.2729  0.3687  0.7956
  240ACTN    H2 2861   1.617   8.629   3.638  2.0972 -1.2561 -0.3106
  240ACTN    H3 2862   1.508   8.493   3.683  1.6083  0.9850  0.2490
  241ACTN    H6 2863   0.547   6.900   4.209  1.2607 -0.2017  0.9196
  241ACTN    C3 2864   0.583   6.986   4.152  0.4981 -0.6879 -0.3149
  241ACTN    H4 2865   0.650   7.030   4.227 -0.9240  0.1299  0.5073
  241ACTN    H5 2866   0.642   6.955   4.067  1.4880  1.7575 -0.5715
  241ACTN    C2 2867   0.476   7.076   4.093  0.2201 -0.1156 -0.5281
  241ACTN    O1 2868   0.478   7.112   3.970  0.0217  0.7110  0.6134
  241ACTN    C1 2869   0.370   7.124   4.185 -0.0330  0.6171  0.3011
  241ACTN    H1 2870   0.420   7.173   4.268  1.1624  1.0360 -0.6535
  241ACTN    H2 2871   0.320   7.043   4.239  1.2480 -0.1451  0.3826
  241ACTN    H3 2872   0.298   7.194   4.143  0.4227  1.4737  0.9283
  242ACTN    H6 2873   3.198   6.389   6.908  1.5692 -1.5297  0.8030
  242ACTN    C3 2874   3.213   6.453   6.995 -0.1332  0.2387 -0.1370
  242ACTN    H4 2875   3.154   6.419   7.080 -1.2531 -0.0724 -1.0215
  242ACTN    H5 2876   3.320   6.447   7.015 -0.6200 -2.8651  2.0625
  242ACTN    C2 2877   3.181   6.595   6.977 -0.1619 -0.3931 -0.8657
  242ACTN    O1 2878   3.107   6.629   6.883  0.4366 -0.1317  0.5225
  242ACTN    C1 2879   3.224   6.686   7.086  0.0393  0.2346  0.4539
  242ACTN    H1 2880   3.196   6.789   7.061  1.1779  0.2783 -0.6557
  242ACTN    H2 2881   3.329   6.687   7.113  0.1468  1.1309  0.0293
  242ACTN    H3 2882   3.195   6.670   7.190 -0.2557  0.9258  0.4852
  243ACTN    H6 2883   0.881   0.523   2.962 -1.4252  0.5150  0.2848
  243ACTN    C3 2884   0.878   0.566   3.062 -0.2638  0.6295  0.2815
  243ACTN    H4 2885   0.800   0.642   3.066  0.1449  1.0155  1.0266
  243ACTN    H5 2886   0.862   0.475   3.120  0.9688 -0.2283 -0.7154
  243ACTN    C2 2887   1.012   0.624   3.112  0.2004  0.0361  0.0535
  243ACTN    O1 2888   1.116   0.569   3.074 -0.1161  0.2048  0.3357
  243ACTN    C1 2889   1.017   0.763   3.177  0.2018 -0.3742 -0.0790
  243ACTN    H1 2890   0.920   0.813   3.175  1.0222  1.3745  1.3673
  243ACTN    H2 2891   1.085   0.822   3.115 -0.0320  0.4524  0.4325
  243ACTN    H3 2892   1.067   0.759   3.274 -3.0689  2.1851  1.8658
  244ACTN    H6 2893   5.943   1.392   7.958  1.2619  0.8206  0.2357
  244ACTN    C3 2894   5.957   1.331   8.047 -0.5007  0.0917  0.0195
  244ACTN    H4 2895   6.014   1.388   8.121 -0.6773 -0.2603  0.4305
  244ACTN    H5 2896   5.860   1.307   8.091 -0.1509 -2.0280 -0.3087
  244ACTN    C2 2897   6.029   1.210   8.013 -0.2713 -0.1460 -0.0638
  244ACTN    O1 2898   6.048   1.173   7.898  0.6780  0.4491 -0.5306
  244ACTN    C1 2899   6.034   1.109   8.125 -0.1105 -0.0411  1.1263
  244ACTN    H1 2900   5.974   1.019   8.111 -0.3841  0.1873  0.8024
  244ACTN    H2 2901   5.999   1.151   8.219  0.1377  1.5396  0.5323
  244ACTN    H3 2902   6.135   1.071   8.140  0.2790  1.4695  2.4804
  245ACTN    H6 2903   4.265   1.095   0.452 -2.6288  0.1925 -1.3088
  245ACTN    C3 2904   4.201   1.106   0.539 -0.3546  0.1535  0.4271
  245ACTN    H4 2905   4.156   1.007   0.553 -1.7659  0.6925 -0.1898
  245ACTN    H5 2906   4.270   1.135   0.618  0.4619  0.9948 -0.5798
  245ACTN    C2 2907   4.087   1.206   0.525 -0.8351  0.1166  0.1266
  245ACTN    O1 2908   4.012   1.219   0.618 -0.4553 -0.2695 -0.3116
  245ACTN    C1 2909   4.063   1.273   0.396  0.0432  0.6792  0.0331
  245ACTN    H1 2910   4.014   1.213   0.320  0.2781  1.2889 -0.6042
  245ACTN    H2 2911   4.162   1.303   0.362 -0.0293  0.5465 -0.2903
  245ACTN    H3 2912   4.005   1.365   0.404 -0.5180  0.2295  1.4736
  246ACTN    H6 2913   2.746   3.232   5.872 -0.2008 -1.6048  2.1748
  246ACTN    C3 2914   2.844   3.274   5.896 -0.4395  0.3172 -0.0374
  246ACTN    H4 2915   2.849   3.366   5.838 -0.3106 -0.0118 -0.5507
  246ACTN    H5 2916   2.851   3.312   5.998 -0.3489 -1.7922  0.7638
  246ACTN    C2 2917   2.945   3.173   5.858  0.3324 -1.0928  0.3412
  246ACTN    O1 2918   2.944   3.117   5.745 -0.8684 -0.0790  0.0086
  246ACTN    C1 2919   3.011   3.110   5.976 -0.2833 -0.0950 -0.3497
  246ACTN    H1 2920   3.053   3.012   5.956 -1.0643 -0.4663 -0.1934
  246ACTN    H2 2921   2.959   3.112   6.072  2.3730  3.6801  1.1363
  246ACTN    H3 2922   3.095   3.179   5.987 -0.9297  0.4954  0.9960
  247ACTN    H6 2923   8.894   2.067   1.227 -0.0028  0.9952 -0.0690
  247ACTN    C3 2924   8.902   2.003   1.314  0.0371  1.0366 -0.0426
  247ACTN    H4 2925   8.900   1.901   1.277  0.8213  0.6960  0.8155
  247ACTN    H5 2926   8.993   2.031   1.368 -0.1398 -2.2346  2.1434
  247ACTN    C2 2927   8.782   2.027   1.397  1.2206 -0.2821  0.0313
  247ACTN    O1 2928   8.760   2.127   1.458 -0.5007  0.2755 -0.2173
  247ACTN    C1 2929   8.688   1.904   1.402  0.2534 -0.4394  0.4021
  247ACTN    H1 2930   8.744   1.812   1.410  1.7961  0.2884 -1.7917
  247ACTN    H2 2931   8.615   1.902   1.321  0.5253  0.3595  0.1296
  247ACTN    H3 2932   8.627   1.911   1.493 -0.2308  0.4610  0.0147
  248ACTN    H6 2933   3.819   6.197   8.743  0.7432 -1.0243 -0.5009
  248ACTN    C3 2934   3.852   6.174   8.844 -0.5836  0.0811  0.1999
  248ACTN    H4 2935   3.867   6.268   8.897  0.2554 -1.2911  2.4607
  248ACTN    H5 2936   3.941   6.113   8.855  0.2007  0.6885 -2.5507
  248ACTN    C2 2937   3.748   6.084   8.895  0.2454  0.0010  0.2728
  248ACTN    O1 2938   3.714   6.090   9.013  0.1376  0.0210  0.0580
  248ACTN    C1 2939   3.682   5.984   8.800  0.3527 -0.5677 -0.0460
  248ACTN    H1 2940   3.750   5.911   8.756 -0.2163  0.0955 -2.0869
  248ACTN    H2 2941   3.640   6.040   8.717 -0.6077  0.7712  1.3046
  248ACTN    H3 2942   3.605   5.920   8.845  0.1955  0.0116  0.5178
  249ACTN    H6 2943   0.302   7.124   5.534  2.4302  0.8837  1.6581
  249ACTN    C3 2944   0.383   7.149   5.465  0.8985  0.5921 -0.2672
  249ACTN    H4 2945   0.358   7.249   5.430  0.9468  0.6278 -0.1983
  249ACTN    H5 2946   0.482   7.150   5.510 -0.0236  0.1692  1.8105
  249ACTN    C2 2947   0.380   7.050   5.356 -0.3031  0.1727  0.8147
  249ACTN    O1 2948   0.470   6.960   5.352 -0.2713  0.0746  1.0356
  249ACTN    C1 2949   0.259   7.021   5.275 -0.5970 -0.6404 -0.1589
  249ACTN    H1 2950   0.206   7.107   5.233  0.1391  0.1224  0.4453
  249ACTN    H2 2951   0.191   6.959   5.333  0.5474 -2.2913 -0.5615
  249ACTN    H3 2952   0.280   6.960   5.188  0.0170 -1.4986  0.5813
  250ACTN    H6 2953   1.688   7.674   5.346 -0.6136 -0.2154 -0.9121
  250ACTN    C3 2954   1.583   7.700   5.355 -0.5199  0.1588 -0.8718
  250ACTN    H4 2955   1.543   7.729   5.258  2.0266 -0.9760 -2.2973
  250ACTN    H5 2956   1.523   7.614   5.387 -1.6333  0.9228 -0.8653
  250ACTN    C2 2957   1.558   7.802   5.461  1.5964 -0.3007  1.2714
  250ACTN    O1 2958   1.613   7.911   5.459 -0.3049  0.1116 -0.0408
  250ACTN    C1 2959   1.484   7.751   5.581  0.1967  0.0685 -0.1600
  250ACTN    H1 2960   1.523   7.790   5.675  1.5053 -0.2194 -0.5804
  250ACTN    H2 2961   1.484   7.644   5.604  1.3468  0.1500  0.2779
  250ACTN    H3 2962   1.381   7.786   5.576 -0.7168 -2.5016 -0.1271
  251ACTN    H6 2963   0.783   5.116   7.219  0.1370 -0.1787 -0.1448
  251ACTN    C3 2964   0.772   5.155   7.321  0.2510 -0.1194 -0.1550
  251ACTN    H4 2965   0.856   5.110   7.373  1.6867  0.4823 -1.8976
  251ACTN    H5 2966   0.686   5.115   7.374  0.9511  0.6599  1.5919
  251ACTN    C2 2967   0.785   5.305   7.308 -0.2568 -0.2275  0.4879
  251ACTN    O1 2968   0.688   5.370   7.271 -0.3358  0.1981 -0.1925
  251ACTN    C1 2969   0.923   5.371   7.334 -0.4348  0.0262 -0.6527
  251ACTN    H1 2970   1.010   5.306   7.338 -0.8685 -0.4085  3.2961
  251ACTN    H2 2971   0.913   5.418   7.432  1.5921  0.6949 -0.7563
  251ACTN    H3 2972   0.949   5.446   7.260  0.2834  0.6033  0.1774
  252ACTN    H6 2973   8.507   5.001   0.683  0.0305  0.7028 -0.6804
  252ACTN    C3 2974   8.490   5.093   0.628 -0.7758  0.5795 -0.6477
  252ACTN    H4 2975   8.468   5.068   0.524 -1.8702 -0.8002 -0.1014
  252ACTN    H5 2976   8.401   5.132   0.677  0.6909  2.1278  0.8550
  252ACTN    C2 2977   8.600   5.199   0.644 -0.6484  0.6724  0.6892
  252ACTN    O1 2978   8.721   5.162   0.641 -0.0473  0.1944 -1.0066
  252ACTN    C1 2979   8.564   5.344   0.653 -0.1465 -0.4102  0.3533
  252ACTN    H1 2980   8.632   5.416   0.697 -0.8331  1.5225 -1.6647
  252ACTN    H2 2981   8.469   5.347   0.707 -0.1484 -0.4632  0.3526
  252ACTN    H3 2982   8.558   5.372   0.548  0.6677 -0.9475  0.1601
  253ACTN    H6 2983   4.917   6.920   7.430  1.2986 -0.8874 -0.3133
  253ACTN    C3 2984   4.849   6.903   7.346  0.0880  0.2741  0.4089
  253ACTN    H4 2985   4.904   6.839   7.277 -1.5161  0.5145 -1.1203
  253ACTN    H5 2986   4.764   6.843   7.376 -0.0499 -0.1484 -0.8348
  253ACTN    C2 2987   4.811   7.039   7.296  0.2393 -0.0779  0.6314
  253ACTN    O1 2988   4.804   7.133   7.375  0.2504 -0.5569 -0.5519
  253ACTN    C1 2989   4.771   7.061   7.158  0.8126  0.6940 -0.0890
  253ACTN    H1 2990   4.669   7.100   7.154  0.1607 -0.8549  1.0103
  253ACTN    H2 2991   4.783   6.971   7.096  2.2633  2.2456 -2.1216
  253ACTN    H3 2992   4.834   7.135   7.110 -2.2991  1.5985 -2.9944
  254ACTN    H6 2993   4.075   2.855   1.710  1.8054  0.0544 -1.0043
  254ACTN    C3 2994   4.106   2.757   1.747 -0.1587 -0.3149 -0.2442
  254ACTN    H4 2995   4.082   2.684   1.670  0.9941  1.0242 -1.9336
  254ACTN    H5 2996   4.214   2.751   1.764 -0.0312 -0.3430 -1.0218
  254ACTN    C2 2997   4.034   2.711   1.865 -0.8568 -0.1458  0.5425
  254ACTN    O1 2998   3.934   2.769   1.904  0.6568  0.0773  0.4097
  254ACTN    C1 2999   4.060   2.572   1.921 -0.3489  0.2212  0.0517
  254ACTN    H1 3000   4.166   2.556   1.941 -0.7749 -0.1714  2.1091
  254ACTN    H2 3001   4.011   2.499   1.857 -0.2773  0.5707 -0.4018
  254ACTN    H3 3002   4.011   2.565   2.018  2.1770  3.2271  1.6654
  255ACTN    H6 3003   6.485   1.708   7.763 -0.1966  1.1714  0.4465
  255ACTN    C3 3004   6.485   1.761   7.859  0.4457  0.2773  0.9476
  255ACTN    H4 3005   6.382   1.781   7.887  0.0683  0.8474 -0.7723
  255ACTN    H5 3006   6.529   1.686   7.925  0.6571  0.3998  0.9474
  255ACTN    C2 3007   6.560   1.892   7.842 -0.4265 -0.5293 -0.2233
  255ACTN    O1 3008   6.596   1.945   7.945  0.0196  0.4822  0.1197
  255ACTN    C1 3009   6.596   1.947   7.706  0.7099 -0.6203  0.3295
  255ACTN    H1 3010   6.572   2.052   7.689 -1.0335 -0.5765  2.8276
  255ACTN    H2 3011   6.551   1.894   7.622  0.2916  2.3506 -1.3748
  255ACTN    H3 3012   6.704   1.935   7.696  0.9576  0.0828  1.9978
  256ACTN    H6 3013   0.721   3.239   3.784  1.1736  2.9642  0.0629
  256ACTN    C3 3014   0.823   3.209   3.757  0.2840 -0.0570 -0.1388
  256ACTN    H4 3015   0.809   3.137   3.677 -0.1840  1.1915 -1.1967
  256ACTN    H5 3016   0.876   3.294   3.716  1.3796 -1.2485 -1.2233
  256ACTN    C2 3017   0.902   3.151   3.869  0.1549 -0.1927  0.4627
  256ACTN    O1 3018   0.865   3.044   3.920 -0.0200  0.2423  0.3597
  256ACTN    C1 3019   1.007   3.235   3.936  0.2000  0.7683  0.0505
  256ACTN    H1 3020   1.003   3.336   3.896  2.8996 -0.0050 -2.4230
  256ACTN    H2 3021   1.111   3.203   3.921  1.0589  2.9392  1.1618
  256ACTN    H3 3022   0.988   3.234   4.043 -0.6139  0.6282 -0.0923
  257ACTN    H6 3023   7.048   2.666   4.009 -0.0064 -0.0021  0.7289
  257ACTN    C3 3024   6.948   2.629   4.029 -0.1149 -0.5409 -0.6804
  257ACTN    H4 3025   6.910   2.682   4.117  1.0064  0.9522 -1.0757
  257ACTN    H5 3026   6.884   2.662   3.947 -0.1303  0.4518 -0.2814
  257ACTN    C2 3027   6.961   2.475   4.028  0.3506  0.4902  0.5472
  257ACTN    O1 3028   6.864   2.401   4.000  0.2280 -0.1321 -0.2135
  257ACTN    C1 3029   7.100   2.422   4.046 -0.4888  0.6613  0.2260
  257ACTN    H1 3030   7.178   2.428   3.970  1.1153 -3.8637  1.3582
  257ACTN    H2 3031   7.101   2.317   4.074 -1.3478  0.6746  0.3270
  257ACTN    H3 3032   7.148   2.482   4.124  0.0910 -0.4370  0.7258
  258ACTN    H6 3033   0.620   7.206   8.409  0.5026  0.0704 -2.2741
  258ACTN    C3 3034   0.645   7.100   8.420 -0.3142  0.1411  0.6452
  258ACTN    H4 3035   0.695   7.101   8.518 -0.8750  2.0688  0.9475
  258ACTN    H5 3036   0.557   7.037   8.417 -0.1962  0.0260 -0.4708
  258ACTN    C2 3037   0.743   7.056   8.317  0.1853  0.3424  0.1345
  258ACTN    O1 3038   0.750   6.948   8.266 -0.4856 -0.0202 -0.7667
  258ACTN    C1 3039   0.844   7.151   8.281 -0.1063  0.1948  0.0115
  258ACTN    H1 3040   0.944   7.119   8.311 -0.2190  0.4692  0.6781
  258ACTN    H2 3041   0.836   7.251   8.323  0.7182  1.1491 -2.0029
  258ACTN    H3 3042   0.846   7.166   8.173 -1.1118 -0.4834 -0.1133
  259ACTN    H6 3043   4.721   2.140   4.297  0.9147  0.5147 -1.0025
  259ACTN    C3 3044   4.660   2.214   4.245 -0.1171  0.6829  0.4209
  259ACTN    H4 3045   4.728   2.292   4.209 -1.9714  0.9813 -2.6337
  259ACTN    H5 3046   4.579   2.254   4.306 -0.2906  0.1092  0.5607
  259ACTN    C2 3047   4.583   2.147   4.133  0.8226 -0.0256 -0.4204
  259ACTN    O1 3048   4.562   2.029   4.141  0.1709  0.4556 -0.6474
  259ACTN    C1 3049   4.542   2.213   4.003 -0.4492 -0.4485 -0.1511
  259ACTN    H1 3050   4.622   2.196   3.931 -0.3159 -3.9822  0.7173
  259ACTN    H2 3051   4.532   2.320   4.021  1.8556 -0.5658  2.1606
  259ACTN    H3 3052   4.459   2.165   3.952  0.2793 -1.1713 -0.6674
  260ACTN    H6 3053   7.183   1.169   1.714  0.0203  0.3612 -0.6319
  260ACTN    C3 3054   7.201   1.261   1.658 -0.1615  0.4274 -0.5821
  260ACTN    H4 3055   7.217   1.336   1.734 -2.6436  0.9102 -0.5040
  260ACTN    H5 3056   7.295   1.247   1.603 -0.0081  1.3133 -0.5561
  260ACTN    C2 3057   7.090   1.290   1.560  0.4517 -0.2860  0.5925
  260ACTN    O1 3058   6.976   1.315   1.601  0.2381  0.1404 -0.1739
  260ACTN    C1 3059   7.130   1.304   1.416 -0.4896  0.5723  0.1000
  260ACTN    H1 3060   7.236   1.308   1.394 -0.0886 -3.9713  0.6089
  260ACTN    H2 3061   7.080   1.390   1.372 -1.0788 -0.4285 -1.2517
  260ACTN    H3 3062   7.096   1.215   1.363 -1.9559  1.6913 -0.8894
  261ACTN    H6 3063   0.649   8.158   1.144  1.3291  0.2177  0.5043
  261ACTN    C3 3064   0.620   8.257   1.179 -0.0532 -0.0006  0.0122
  261ACTN    H4 3065   0.688   8.280   1.261 -1.2531  3.2341  0.1602
  261ACTN    H5 3066   0.640   8.330   1.101 -1.0069  0.7031  0.4181
  261ACTN    C2 3067   0.477   8.256   1.225 -0.1813  0.7602 -0.3999
  261ACTN    O1 3068   0.422   8.352   1.279  0.3841 -0.0125  0.3144
  261ACTN    C1 3069   0.382   8.147   1.167 -0.0028 -0.7565  1.4753
  261ACTN    H1 3070   0.298   8.195   1.118  0.5030  2.7154  3.8171
  261ACTN    H2 3071   0.352   8.078   1.246 -1.3435 -0.4569  1.2436
  261ACTN    H3 3072   0.428   8.086   1.090  1.2179 -0.7361  2.1654
  262ACTN    H6 3073   1.192   0.492   2.335  1.0119  0.4813 -2.6472
  262ACTN    C3 3074   1.105   0.462   2.277 -0.3517 -0.2080 -0.2791
  262ACTN    H4 3075   1.090   0.355   2.265 -0.4305 -0.0136 -2.0310
  262ACTN    H5 3076   1.014   0.486   2.333 -2.2792 -2.2358 -2.4399
  262ACTN    C2 3077   1.093   0.545   2.148  0.1316  0.3224 -0.8955
  262ACTN    O1 3078   1.114   0.658   2.148 -0.4211 -0.8693 -0.0589
  262ACTN    C1 3079   1.053   0.480   2.018  0.0032  0.0282 -0.3491
  262ACTN    H1 3080   1.121   0.488   1.934  0.7827 -1.2502  0.1434
  262ACTN    H2 3081   0.958   0.522   1.983 -0.1769 -0.6293 -0.6450
  262ACTN    H3 3082   1.034   0.374   2.033 -1.2314  0.3085  0.1547
  263ACTN    H6 3083   4.537   4.148   3.289  0.3476 -1.0822  1.3646
  263ACTN    C3 3084   4.538   4.056   3.230  0.7922 -0.3903  0.2936
  263ACTN    H4 3085   4.602   4.059   3.141  1.2780 -1.5488  0.5910
  263ACTN    H5 3086   4.564   3.979   3.302  0.5074  0.8359  1.7428
  263ACTN    C2 3087   4.388   4.023   3.190 -0.2650 -0.9245  0.0235
  263ACTN    O1 3088   4.323   3.961   3.273 -0.2103  0.2104 -0.0396
  263ACTN    C1 3089   4.329   4.069   3.057  0.2356 -0.4849 -0.2572
  263ACTN    H1 3090   4.392   4.146   3.011 -0.5263 -0.3694 -1.1380
  263ACTN    H2 3091   4.224   4.100   3.060  0.0087 -1.4809  2.8422
  263ACTN    H3 3092   4.328   3.985   2.988 -0.6232 -0.0512 -0.7930
  264ACTN    H6 3093   2.765   7.349   4.788 -0.1479  0.1087 -0.2816
  264ACTN    C3 3094   2.754   7.446   4.836 -0.6498 -0.1090  0.0432
  264ACTN    H4 3095   2.846   7.501   4.819 -0.6029 -0.2271 -0.0735
  264ACTN    H5 3096   2.679   7.505   4.783 -0.1006  1.2448  0.7401
  264ACTN    C2 3097   2.701   7.441   4.980  0.0757 -0.6664  0.0503
  264ACTN    O1 3098   2.680   7.548   5.033 -0.7206  0.0980 -0.2584
  264ACTN    C1 3099   2.710   7.311   5.054 -0.1036 -0.2153  0.3297
  264ACTN    H1 3100   2.686   7.230   4.986 -1.9703  0.4668  0.1378
  264ACTN    H2 3101   2.641   7.309   5.139  2.9473  3.1567  3.0593
  264ACTN    H3 3102   2.812   7.293   5.086 -0.8303 -0.2370  2.7565
  265ACTN    H6 3103   5.329   1.816   5.153 -0.4456  1.4903  0.2635
  265ACTN    C3 3104   5.238   1.784   5.204 -0.2462  1.1283  0.3876
  265ACTN    H4 3105   5.175   1.747   5.124  0.9996  2.5633 -1.2997
  265ACTN    H5 3106   5.271   1.704   5.271  1.6323  1.1096 -0.5127
  265ACTN    C2 3107   5.166   1.895   5.274  0.3364 -0.1215  0.0985
  265ACTN    O1 3108   5.045   1.893   5.280  0.2263  0.1000  0.1928
  265ACTN    C1 3109   5.252   1.971   5.369 -0.2638 -0.4581  0.4002
  265ACTN    H1 3110   5.256   1.920   5.466 -1.1734 -0.0111  0.6781
  265ACTN    H2 3111   5.217   2.072   5.388  2.4542  0.8417 -1.2151
  265ACTN    H3 3112   5.352   1.991   5.331  0.0761 -1.1014  0.9405
  266ACTN    H6 3113   6.576   6.072   5.864 -0.4284 -0.9000  0.5630
  266ACTN    C3 3114   6.543   6.137   5.783  0.2179 -0.7685  0.4069
  266ACTN    H4 3115   6.483   6.213   5.833  1.6069  0.3775  0.3545
  266ACTN    H5 3116   6.476   6.083   5.716 -0.2212 -0.0471  0.2608
  266ACTN    C2 3117   6.658   6.198   5.716  0.2685 -0.2079  1.0679
  266ACTN    O1 3118   6.759   6.130   5.715 -0.8672  0.0504 -0.2576
  266ACTN    C1 3119   6.666   6.339   5.674 -0.2031 -0.0071  0.3047
  266ACTN    H1 3120   6.739   6.393   5.735 -0.5905  1.4025 -0.4477
  266ACTN    H2 3121   6.567   6.383   5.686 -0.3936 -0.1992 -0.5316
  266ACTN    H3 3122   6.695   6.359   5.571  0.2103  1.9931  0.7874
  267ACTN    H6 3123   5.413   4.193   2.457  0.3316 -0.0468 -1.5198
  267ACTN    C3 3124   5.450   4.092   2.469  0.1687 -0.0156 -0.6541
  267ACTN    H4 3125   5.558   4.104   2.483  0.0120  1.3248 -0.5851
  267ACTN    H5 3126   5.401   4.039   2.550  1.3537 -1.0423 -0.5934
  267ACTN    C2 3127   5.422   4.019   2.340 -0.2540 -0.0636 -0.3492
  267ACTN    O1 3128   5.481   3.913   2.310  0.6428 -0.0591 -0.2500
  267ACTN    C1 3129   5.318   4.075   2.252  0.1429 -0.1174  0.0077
  267ACTN    H1 3130   5.222   4.099   2.298  1.0271 -1.5660  2.6785
  267ACTN    H2 3131   5.298   4.004   2.172  0.3584 -1.8972  1.5079
  267ACTN    H3 3132   5.362   4.160   2.200 -0.2976  0.7046  0.9636
  268ACTN    H6 3133   8.927   0.300   2.825  1.4548  1.8415 -1.2253
  268ACTN    C3 3134   9.029   0.269   2.848  0.3843 -1.0151 -0.1327
  268ACTN    H4 3135   9.059   0.296   2.949  1.0722  1.0615 -0.8817
  268ACTN    H5 3136   9.026   0.160   2.844 -3.2169 -1.0002 -0.2190
  268ACTN    C2 3137   9.130   0.327   2.751  0.4890  0.4468  0.8492
  268ACTN    O1 3138   9.226   0.260   2.706 -0.1163  0.2671 -0.5047
  268ACTN    C1 3139   9.119   0.474   2.708 -0.0229  0.3704  0.4543
  268ACTN    H1 3140   9.023   0.515   2.741 -0.3544 -0.0750  0.0412
  268ACTN    H2 3141   9.118   0.475   2.599 -0.4851 -2.0859  0.4099
  268ACTN    H3 3142   9.205   0.529   2.746 -1.3967  2.9515 -0.0289
  269ACTN    H6 3143   3.820   4.883   1.031 -0.3956  0.1227  0.7228
  269ACTN    C3 3144   3.870   4.977   1.005 -0.3167 -0.1481 -0.1214
  269ACTN    H4 3145   3.960   4.981   1.066  3.6992  0.6081 -5.7292
  269ACTN    H5 3146   3.914   4.970   0.906  0.2828 -2.0115  0.2480
  269ACTN    C2 3147   3.793   5.100   1.021  0.1586  0.0911  0.2304
  269ACTN    O1 3148   3.706   5.109   1.103 -0.3150  0.2735  0.2542
  269ACTN    C1 3149   3.847   5.221   0.950  0.4351  0.4291  0.2163
  269ACTN    H1 3150   3.955   5.212   0.941  0.2541 -2.2436  0.1868
  269ACTN    H2 3151   3.819   5.316   0.996  1.2584  1.1970 -0.8349
  269ACTN    H3 3152   3.808   5.218   0.848  0.1351 -0.9661  0.3597
  270ACTN    H6 3153   3.488   7.809   5.512 -0.7352  1.6499  1.0430
  270ACTN    C3 3154   3.466   7.863   5.420 -1.1752 -0.1435  0.0824
  270ACTN    H4 3155   3.379   7.926   5.437 -1.6466 -0.2173 -1.8919
  270ACTN    H5 3156   3.556   7.921   5.401  0.7045 -2.9733  0.0525
  270ACTN    C2 3157   3.449   7.766   5.305  0.7417 -0.3305  0.0881
  270ACTN    O1 3158   3.492   7.800   5.196  0.3726  0.1474  0.2061
  270ACTN    C1 3159   3.368   7.640   5.312 -0.2259 -0.0488 -0.2572
  270ACTN    H1 3160   3.348   7.593   5.215 -1.0579  2.2243 -1.2355
  270ACTN    H2 3161   3.274   7.662   5.362 -0.0278 -0.9507  0.5341
  270ACTN    H3 3162   3.419   7.567   5.374 -0.1302  1.7495  1.7997
  271ACTN    H6 3163   7.273   0.381   3.450 -0.5205 -0.5581  0.3238
  271ACTN    C3 3164   7.306   0.337   3.356  0.2216 -0.3618  0.4953
  271ACTN    H4 3165   7.226   0.305   3.290  1.1712 -0.8225 -0.4552
  271ACTN    H5 3166   7.362   0.417   3.307  2.0069 -1.4507  0.7068
  271ACTN    C2 3167   7.394   0.210   3.387  0.1898  0.0970 -0.0047
  271ACTN    O1 3168   7.359   0.107   3.326 -0.4197  0.3193 -0.2055
  271ACTN    C1 3169   7.520   0.211   3.466 -0.2187 -0.1537  0.2586
  271ACTN    H1 3170   7.527   0.254   3.566  0.3105 -1.0368  0.6122
  271ACTN    H2 3171   7.599   0.254   3.405 -0.9010 -0.1004 -0.6037
  271ACTN    H3 3172   7.538   0.104   3.473 -0.7930 -0.4034 -1.8200
  272ACTN    H6 3173   5.291   5.084   3.679 -0.0197 -0.0207 -0.3522
  272ACTN    C3 3174   5.226   5.008   3.724  0.7986 -0.4865  0.0565
  272ACTN    H4 3175   5.214   5.037   3.828  0.9286  1.2873 -0.4053
  272ACTN    H5 3176   5.126   5.013   3.682  0.4477 -2.3902  0.6305
  272ACTN    C2 3177   5.286   4.868   3.719 -0.4793  0.8921  0.3880
  272ACTN    O1 3178   5.386   4.838   3.657  0.7173  0.5395 -0.2990
  272ACTN    C1 3179   5.226   4.768   3.815  0.1789 -0.4241 -1.1337
  272ACTN    H1 3180   5.236   4.670   3.769 -0.5066 -0.7607 -0.5845
  272ACTN    H2 3181   5.120   4.778   3.841  0.2778 -2.6492  0.2471
  272ACTN    H3 3182   5.283   4.782   3.907 -3.2658  2.6964  0.7198
  273ACTN    H6 3183   5.933   0.280   5.814 -0.3753  0.3899  0.1167
  273ACTN    C3 3184   5.905   0.276   5.708  0.2229 -0.0454 -0.0296
  273ACTN    H4 3185   5.832   0.196   5.690  1.1562 -0.9218  0.0364
  273ACTN    H5 3186   5.854   0.364   5.670  0.0289 -0.8850 -1.7843
  273ACTN    C2 3187   6.024   0.254   5.621 -0.5266 -0.1220  0.1415
  273ACTN    O1 3188   6.137   0.279   5.669 -0.2937 -0.0807 -0.3232
  273ACTN    C1 3189   5.997   0.236   5.477  0.6216  1.1396 -0.6800
  273ACTN    H1 3190   6.057   0.305   5.418  0.7869  0.0115 -1.8667
  273ACTN    H2 3191   5.891   0.256   5.461  0.6851  1.4559 -0.7077
  273ACTN    H3 3192   6.023   0.139   5.434 -0.2361  0.7260 -0.2874
  274ACTN    H6 3193   6.445   7.399   4.738 -1.5410  1.8232  1.0657
  274ACTN    C3 3194   6.370   7.328   4.703  0.4891  0.0442  0.1913
  274ACTN    H4 3195   6.365   7.341   4.595 -1.6223  1.4299  0.4301
  274ACTN    H5 3196   6.396   7.226   4.731 -0.9851 -0.7812 -1.3428
  274ACTN    C2 3197   6.230   7.360   4.751 -0.1571  0.0405  0.1086
  274ACTN    O1 3198   6.132   7.298   4.714  0.0151 -0.3841  0.7383
  274ACTN    C1 3199   6.205   7.488   4.828  0.2327 -0.1457  0.0570
  274ACTN    H1 3200   6.121   7.543   4.785  0.6811  1.5551  1.3017
  274ACTN    H2 3201   6.294   7.549   4.822 -0.1405  0.3819 -0.1424
  274ACTN    H3 3202   6.192   7.459   4.932  2.1370  2.4543  1.0649
  275ACTN    H6 3203   7.976   0.447   5.171 -0.0967  1.1419 -0.4691
  275ACTN    C3 3204   7.881   0.394   5.185  0.3838  0.2765 -0.4269
  275ACTN    H4 3205   7.812   0.446   5.251 -0.2660  0.4960 -1.2729
  275ACTN    H5 3206   7.909   0.296   5.223  1.6413  1.2755  1.3291
  275ACTN    C2 3207   7.818   0.385   5.054 -0.3554  0.1883 -0.3329
  275ACTN    O1 3208   7.881   0.421   4.960 -0.0291 -0.1355  0.2348
  275ACTN    C1 3209   7.713   0.285   5.035  0.0312 -0.0972  0.1190
  275ACTN    H1 3210   7.671   0.290   4.935 -0.7639  2.4543  0.5657
  275ACTN    H2 3211   7.635   0.315   5.104  0.7760 -3.8331  2.7553
  275ACTN    H3 3212   7.737   0.179   5.046 -1.5525 -0.3685  0.9745
  276ACTN    H6 3213   6.558   0.837   6.223  0.3770 -1.2459 -0.5282
  276ACTN    C3 3214   6.600   0.832   6.323  0.3242 -0.1694 -0.4554
  276ACTN    H4 3215   6.616   0.937   6.351 -1.1175 -0.6116  2.1854
  276ACTN    H5 3216   6.514   0.799   6.382  0.2213 -1.8552 -1.5282
  276ACTN    C2 3217   6.720   0.744   6.353  0.1465  0.1742  0.0806
  276ACTN    O1 3218   6.818   0.799   6.400  0.2632  0.2794  0.1505
  276ACTN    C1 3219   6.729   0.598   6.305  0.0733  0.2274 -0.8399
  276ACTN    H1 3220   6.826   0.550   6.319  1.5394  2.7936 -1.7566
  276ACTN    H2 3221   6.714   0.591   6.197 -0.6363 -2.1852 -0.6150
  276ACTN    H3 3222   6.649   0.538   6.349  1.0143 -2.5337 -2.7479
  277ACTN    H6 3223   2.112   0.331   4.784  2.6328 -2.1696 -0.3784
  277ACTN    C3 3224   2.035   0.267   4.741  0.5438  0.0907 -0.1484
  277ACTN    H4 3225   1.987   0.226   4.830  3.4103  0.9516  1.8655
  277ACTN    H5 3226   1.967   0.321   4.676 -1.1363 -0.3063  1.2535
  277ACTN    C2 3227   2.087   0.162   4.653 -0.0073 -0.3089  0.1430
  277ACTN    O1 3228   2.164   0.197   4.566  0.3184  0.2876  0.3014
  277ACTN    C1 3229   2.047   0.030   4.680 -0.0814 -0.1235  0.3051
  277ACTN    H1 3230   2.053  -0.041   4.597 -1.6708 -0.4005  0.4029
  277ACTN    H2 3231   1.940   0.033   4.702 -0.3166 -1.4682 -0.5887
  277ACTN    H3 3232   2.097  -0.022   4.761  2.7407  1.4046 -0.3823
  278ACTN    H6 3233   2.526   4.219   3.947  1.8502 -0.2802  0.1596
  278ACTN    C3 3234   2.554   4.324   3.949  0.2559  0.1459  0.2258
  278ACTN    H4 3235   2.585   4.340   3.846  0.8129  0.3807  0.4285
  278ACTN    H5 3236   2.464   4.386   3.953 -0.1755 -0.3573 -1.1593
  278ACTN    C2 3237   2.651   4.340   4.059  0.1823 -0.5115  0.3032
  278ACTN    O1 3238   2.766   4.305   4.042  0.0602 -0.0463 -0.8103
  278ACTN    C1 3239   2.590   4.319   4.193 -0.6647  0.0687  0.0953
  278ACTN    H1 3240   2.650   4.247   4.248 -1.9685 -1.1279 -0.0335
  278ACTN    H2 3241   2.489   4.280   4.180  0.7375 -3.0245 -2.0558
  278ACTN    H3 3242   2.586   4.416   4.242  1.2533  0.8140 -1.1621
  279ACTN    H6 3243   8.681   1.221   2.948 -1.5581  0.0495  0.4277
  279ACTN    C3 3244   8.659   1.328   2.939  0.6440  0.4903  0.0012
  279ACTN    H4 3245   8.579   1.342   2.866 -0.3637  0.4089  1.0593
  279ACTN    H5 3246   8.604   1.356   3.029  0.8067  0.9038 -0.0283
  279ACTN    C2 3247   8.778   1.415   2.899 -0.5082  0.5673  0.2764
  279ACTN    O1 3248   8.893   1.372   2.895  0.3775 -0.0991  0.1652
  279ACTN    C1 3249   8.751   1.556   2.850  0.2125  0.2273 -0.0312
  279ACTN    H1 3250   8.705   1.536   2.753  1.0626  3.7952 -1.2294
  279ACTN    H2 3251   8.845   1.611   2.845  0.6688 -0.5497 -0.1432
  279ACTN    H3 3252   8.682   1.617   2.907 -0.2131  0.1358 -0.4424
  280ACTN    H6 3253   4.295   2.222   1.946 -0.4882 -0.2543 -0.2641
  280ACTN    C3 3254   4.303   2.232   1.838  0.3345 -0.2266 -0.2010
  280ACTN    H4 3255   4.219   2.298   1.817  0.1698  0.5038  2.5732
  280ACTN    H5 3256   4.399   2.280   1.820  0.1758 -0.1791 -0.9530
  280ACTN    C2 3257   4.280   2.106   1.763 -0.5277  0.0606 -1.0240
  280ACTN    O1 3258   4.327   2.097   1.653 -0.1005 -0.8166 -0.2294
  280ACTN    C1 3259   4.171   2.014   1.813 -0.5012  0.0643 -0.3240
  280ACTN    H1 3260   4.212   1.920   1.849  1.1405  0.0404 -2.1423
  280ACTN    H2 3261   4.100   1.983   1.736  0.6446 -0.9466 -0.9926
  280ACTN    H3 3262   4.115   2.050   1.899  0.2072  0.4260 -0.0194
  281ACTN    H6 3263   2.483   3.359   1.163  0.0066 -0.4074  2.5349
  281ACTN    C3 3264   2.516   3.256   1.166 -0.0492 -0.5394 -0.0827
  281ACTN    H4 3265   2.433   3.187   1.180  0.1300 -1.1149 -1.7739
  281ACTN    H5 3266   2.561   3.241   1.068 -0.4975  2.5875 -0.8243
  281ACTN    C2 3267   2.601   3.239   1.287 -0.4675 -0.1565 -0.5467
  281ACTN    O1 3268   2.713   3.288   1.286  0.1837  0.3685  0.7816
  281ACTN    C1 3269   2.572   3.123   1.391 -0.0853 -0.1565 -1.2823
  281ACTN    H1 3270   2.661   3.097   1.449  1.3468  0.0999 -3.3162
  281ACTN    H2 3271   2.535   3.035   1.338 -1.2984  0.3160 -1.2394
  281ACTN    H3 3272   2.491   3.157   1.456  0.1113 -0.7460 -0.7259
  282ACTN    H6 3273   6.326   1.790   6.937 -0.7431  2.3890 -1.0787
  282ACTN    C3 3274   6.272   1.715   6.879 -0.0450  0.5987  0.5147
  282ACTN    H4 3275   6.311   1.723   6.778  1.7266  2.9408  1.3360
  282ACTN    H5 3276   6.288   1.618   6.926 -1.9604 -1.8052 -3.4867
  282ACTN    C2 3277   6.125   1.747   6.874  0.0423 -0.1443 -0.2530
  282ACTN    O1 3278   6.089   1.793   6.765  0.3571 -0.3679 -0.2359
  282ACTN    C1 3279   6.036   1.740   6.995  0.0969  0.1790  0.5490
  282ACTN    H1 3280   5.945   1.794   6.972 -0.1407 -0.8198 -0.9839
  282ACTN    H2 3281   6.084   1.779   7.085 -1.1425 -1.1324  1.8000
  282ACTN    H3 3282   6.011   1.635   7.009  2.4327 -0.6330 -0.8576
  283ACTN    H6 3283   5.782   7.699   0.200  1.8423 -2.4057  1.5106
  283ACTN    C3 3284   5.702   7.694   0.274  0.9489 -0.7742  0.6675
  283ACTN    H4 3285   5.682   7.799   0.298  0.1978 -0.2745 -1.9594
  283ACTN    H5 3286   5.614   7.659   0.220  0.7214 -2.4267  2.0829
  283ACTN    C2 3287   5.734   7.609   0.394  0.6000  0.7448  0.1035
  283ACTN    O1 3288   5.652   7.538   0.454  0.2567 -0.4319  0.2597
  283ACTN    C1 3289   5.878   7.609   0.437 -0.9139 -0.2209 -0.3183
  283ACTN    H1 3290   5.928   7.575   0.347 -1.2979  0.0055 -0.6226
  283ACTN    H2 3291   5.890   7.531   0.512  1.0659  1.1113  0.8119
  283ACTN    H3 3292   5.917   7.705   0.471  0.3338 -0.8469  0.0263
  284ACTN    H6 3293   0.046   8.092   2.893  2.5472  0.9422 -0.6525
  284ACTN    C3 3294   0.060   8.075   2.786 -0.0297 -0.7030 -0.7596
  284ACTN    H4 3295   0.163   8.102   2.763  1.5041 -3.7513  2.1201
  284ACTN    H5 3296   0.031   7.972   2.763 -1.4842 -0.4876  0.0233
  284ACTN    C2 3297  -0.037   8.157   2.709  0.6928  0.3467 -0.3443
  284ACTN    O1 3298  -0.134   8.199   2.768 -0.3942  0.8222  0.4935
  284ACTN    C1 3299  -0.031   8.169   2.567  0.0855  0.6106 -0.5232
  284ACTN    H1 3300  -0.022   8.070   2.523  0.1163  0.8135 -0.9865
  284ACTN    H2 3301   0.054   8.231   2.537  0.6236  0.0969 -0.0470
  284ACTN    H3 3302  -0.121   8.211   2.522 -0.8312 -1.4896 -0.7232
  285ACTN    H6 3303   7.389   6.887   4.604 -0.1218  0.1993 -0.4296
  285ACTN    C3 3304   7.362   6.800   4.543 -0.4373  0.2187 -0.3182
  285ACTN    H4 3305   7.398   6.709   4.589 -1.8794  0.8295  2.1580
  285ACTN    H5 3306   7.254   6.792   4.526 -0.3765  1.7592 -1.5092
  285ACTN    C2 3307   7.435   6.821   4.408 -0.7492 -0.0723  0.2006
  285ACTN    O1 3308   7.374   6.869   4.312  0.6924 -0.1751 -0.4314
  285ACTN    C1 3309   7.589   6.819   4.405  0.6415  0.0682  0.1651
  285ACTN    H1 3310   7.633   6.743   4.341  1.1760  2.3203 -2.1873
  285ACTN    H2 3311   7.629   6.792   4.503 -1.6440  2.7216  1.9002
  285ACTN    H3 3312   7.630   6.915   4.374  1.0722  1.0310  3.4554
  286ACTN    H6 3313   4.664   2.235   3.129 -0.6815  0.4820  2.1490
  286ACTN    C3 3314   4.761   2.199   3.164  0.1085 -0.3872 -0.7250
  286ACTN    H4 3315   4.747   2.102   3.213 -1.3647  0.8469  1.3739
  286ACTN    H5 3316   4.832   2.190   3.082  0.1661 -1.0713 -0.6053
  286ACTN    C2 3317   4.826   2.282   3.264  1.0952 -0.3641 -0.2261
  286ACTN    O1 3318   4.856   2.246   3.377 -0.2476 -0.5239  0.0353
  286ACTN    C1 3319   4.856   2.430   3.237  0.6771  0.4522 -0.1814
  286ACTN    H1 3320   4.962   2.451   3.247  0.2439  1.6135  2.3151
  286ACTN    H2 3321   4.797   2.493   3.304 -2.1040 -1.3108 -0.8561
  286ACTN    H3 3322   4.825   2.452   3.135 -0.2994  0.3403  0.0804
  287ACTN    H6 3323   8.117   2.337   4.932 -2.0903  2.2720  2.9178
  287ACTN    C3 3324   8.057   2.252   4.964 -0.3246 -0.3599 -0.3881
  287ACTN    H4 3325   8.075   2.227   5.069  1.3689 -2.4212 -1.1549
  287ACTN    H5 3326   8.088   2.172   4.897  1.7908  0.6251 -0.6150
  287ACTN    C2 3327   7.915   2.290   4.937  0.1311  0.1976 -0.4286
  287ACTN    O1 3328   7.830   2.206   4.960  0.6805 -0.2934 -0.2353
  287ACTN    C1 3329   7.874   2.416   4.862 -0.2927  0.3587  0.0784
  287ACTN    H1 3330   7.951   2.490   4.881 -0.7610  0.8186  0.1857
  287ACTN    H2 3331   7.781   2.457   4.902  0.7900  0.7145  2.2878
  287ACTN    H3 3332   7.871   2.404   4.753  0.1321 -1.5694  0.2548
  288ACTN    H6 3333   4.478   3.581   3.313  1.8465 -1.3686 -0.1580
  288ACTN    C3 3334   4.437   3.609   3.216  0.4792  0.3098  0.8873
  288ACTN    H4 3335   4.371   3.691   3.243  1.1262  0.6045  1.5989
  288ACTN    H5 3336   4.522   3.634   3.153 -0.9029  1.1261 -0.6817
  288ACTN    C2 3337   4.358   3.498   3.152  0.0795  0.3829 -0.1589
  288ACTN    O1 3338   4.237   3.497   3.157  0.1048 -0.3657  0.7751
  288ACTN    C1 3339   4.437   3.383   3.094  0.2116 -0.8155 -0.7880
  288ACTN    H1 3340   4.526   3.359   3.153  0.7777  2.6385 -0.1666
  288ACTN    H2 3341   4.459   3.412   2.992 -3.1808 -0.7834 -1.5553
  288ACTN    H3 3342   4.375   3.293   3.086 -0.8803 -0.0549 -0.8974
  289ACTN    H6 3343   8.665   6.559   7.895 -0.2391 -1.1165  0.1038
  289ACTN    C3 3344   8.596   6.532   7.814 -0.2243 -0.3702 -0.1589
  289ACTN    H4 3345   8.647   6.548   7.719  0.7759 -0.3312  0.3780
  289ACTN    H5 3346   8.578   6.425   7.818  2.9041 -1.0532 -2.4340
  289ACTN    C2 3347   8.474   6.621   7.822 -0.3394  0.1619 -0.5478
  289ACTN    O1 3348   8.389   6.593   7.735  0.1054 -0.0904  0.0380
  289ACTN    C1 3349   8.472   6.764   7.874 -0.6844 -0.2644  0.4576
  289ACTN    H1 3350   8.383   6.790   7.932  0.3380  0.9811  1.5039
  289ACTN    H2 3351   8.483   6.834   7.791  0.8282  1.5414  2.1242
  289ACTN    H3 3352   8.556   6.765   7.943  1.3833 -3.7218 -1.8714
  290ACTN    H6 3353   6.281   7.069   3.283  0.0594 -0.3864  0.8237
  290ACTN    C3 3354   6.189   7.101   3.332 -0.2168 -0.0629  0.1024
  290ACTN    H4 3355   6.111   7.082   3.259 -0.7263 -0.7269  0.8126
  290ACTN    H5 3356   6.172   7.043   3.423  2.2361 -1.5048 -0.3262
  290ACTN    C2 3357   6.210   7.252   3.362  0.2890  1.0429 -0.2673
  290ACTN    O1 3358   6.197   7.338   3.282  0.3438 -0.7071  0.7427
  290ACTN    C1 3359   6.287   7.290   3.488 -0.2497  0.1150 -0.5758
  290ACTN    H1 3360   6.377   7.348   3.466  1.2825 -1.4036  1.4533
  290ACTN    H2 3361   6.323   7.201   3.539 -0.8299 -0.5627 -1.3314
  290ACTN    H3 3362   6.229   7.343   3.563  1.0403 -1.8404  1.8652
  291ACTN    H6 3363   0.304   8.330   5.768  0.6877 -0.6422 -2.2152
  291ACTN    C3 3364   0.209   8.275   5.772  0.0669  0.5502  0.2695
  291ACTN    H4 3365   0.224   8.184   5.831  0.3757 -0.9038 -1.9819
  291ACTN    H5 3366   0.131   8.333   5.821 -0.9084  0.1974 -0.8471
  291ACTN    C2 3367   0.166   8.235   5.634  0.1261 -0.0775  0.2388
  291ACTN    O1 3368   0.227   8.140   5.582  0.1968  0.0694  0.6316
  291ACTN    C1 3369   0.058   8.312   5.565  0.2092 -0.4823  0.7634
  291ACTN    H1 3370   0.105   8.379   5.493 -1.3975 -0.9926 -0.7945
  291ACTN    H2 3371   0.012   8.368   5.646  1.3003  0.8075  0.5195
  291ACTN    H3 3372  -0.011   8.246   5.513  0.9281 -0.7464  0.1414
  292ACTN    H6 3373   1.757   2.942   7.793  1.4590 -3.6087 -1.7305
  292ACTN    C3 3374   1.792   3.000   7.708  0.0758  0.6796  0.4916
  292ACTN    H4 3375   1.823   2.932   7.629  2.0091  1.0454  0.8965
  292ACTN    H5 3376   1.716   3.068   7.670  1.3799  2.2646  0.6702
  292ACTN    C2 3377   1.918   3.078   7.741  0.9075 -0.5654  0.0274
  292ACTN    O1 3378   2.018   3.064   7.672  0.1962  0.1580 -1.1240
  292ACTN    C1 3379   1.914   3.182   7.856  0.0758 -0.5710 -0.6143
  292ACTN    H1 3380   1.962   3.271   7.815 -0.4548 -0.6145 -1.3415
  292ACTN    H2 3381   1.971   3.143   7.940 -0.2763 -0.6396 -0.4057
  292ACTN    H3 3382   1.813   3.209   7.887  0.7895  0.0639  1.2474
  293ACTN    H6 3383   3.002   4.234   4.182  0.3288 -1.1859  3.0534
  293ACTN    C3 3384   3.082   4.308   4.187 -0.0854 -0.5140  0.4976
  293ACTN    H4 3385   3.051   4.389   4.121 -0.4782 -0.0396  1.2534
  293ACTN    H5 3386   3.085   4.334   4.293 -0.0887 -1.0164  0.6208
  293ACTN    C2 3387   3.206   4.268   4.125 -0.1019  0.2038 -0.3338
  293ACTN    O1 3388   3.214   4.211   4.016 -0.1717  0.3734 -0.2465
  293ACTN    C1 3389   3.323   4.298   4.213 -0.1807 -0.2831  0.3049
  293ACTN    H1 3390   3.410   4.331   4.156 -0.3905 -0.0033  0.1453
  293ACTN    H2 3391   3.347   4.207   4.267  1.2947 -0.8983 -1.3404
  293ACTN    H3 3392   3.301   4.382   4.279  1.6386 -0.6786  1.4550
  294ACTN    H6 3393   1.751   0.569   7.439 -0.4854  0.2092 -0.4201
  294ACTN    C3 3394   1.809   0.557   7.347  0.5323 -0.1421  0.2645
  294ACTN    H4 3395   1.910   0.529   7.377 -0.0168 -0.4984  1.8666
  294ACTN    H5 3396   1.772   0.468   7.296 -0.7911  0.8791 -0.6035
  294ACTN    C2 3397   1.806   0.668   7.245 -0.1957 -0.1785 -0.8059
  294ACTN    O1 3398   1.885   0.667   7.156  0.3834  0.1388 -0.1561
  294ACTN    C1 3399   1.732   0.796   7.271 -0.2448 -0.2350 -0.4528
  294ACTN    H1 3400   1.748   0.829   7.374 -0.9407  0.7594 -0.6583
  294ACTN    H2 3401   1.625   0.777   7.270 -0.3214  0.1816 -0.1977
  294ACTN    H3 3402   1.760   0.873   7.200  0.2184  0.9182  0.9515
  295ACTN    H6 3403   8.051   0.865   2.545 -1.2965  1.3440  1.3382
  295ACTN    C3 3404   8.091   0.811   2.631 -0.1294  0.4223  0.2289
  295ACTN    H4 3405   8.126   0.882   2.706 -0.0471  0.2594  0.3462
  295ACTN    H5 3406   8.011   0.754   2.678 -2.5783  0.8988 -3.1439
  295ACTN    C2 3407   8.194   0.711   2.585 -0.3945 -0.1661  0.4087
  295ACTN    O1 3408   8.312   0.734   2.575  0.2482  0.0699  0.3492
  295ACTN    C1 3409   8.158   0.565   2.560 -0.5865  0.3153  0.1475
  295ACTN    H1 3410   8.192   0.503   2.643 -1.1524 -1.9435 -1.2392
  295ACTN    H2 3411   8.207   0.533   2.468 -0.6494  0.7435 -0.0333
  295ACTN    H3 3412   8.050   0.576   2.547 -0.4061  1.5038 -0.3322
  296ACTN    H6 3413   7.108   0.024   3.428  1.8916 -1.1420 -0.7883
  296ACTN    C3 3414   7.128  -0.015   3.528  0.3491  0.2515  0.0861
  296ACTN    H4 3415   7.191   0.048   3.590  1.2805 -0.8039  0.2277
  296ACTN    H5 3416   7.033  -0.033   3.579 -0.8994  0.4578 -2.0966
  296ACTN    C2 3417   7.205  -0.142   3.515 -0.1688 -0.0692 -0.4172
  296ACTN    O1 3418   7.261  -0.190   3.616 -0.4767 -0.3491  0.3429
  296ACTN    C1 3419   7.202  -0.218   3.387  0.8825 -0.3434  0.3499
  296ACTN    H1 3420   7.176  -0.144   3.312 -0.1790 -1.0330  0.0360
  296ACTN    H2 3421   7.121  -0.290   3.381 -0.3719  1.0763 -0.0432
  296ACTN    H3 3422   7.291  -0.275   3.359 -0.9465 -2.6713 -0.8871
  297ACTN    H6 3423   5.218   0.167   4.641 -1.5229 -0.5508 -0.1162
  297ACTN    C3 3424   5.261   0.093   4.708 -0.3568  0.0242 -0.2165
  297ACTN    H4 3425   5.250   0.124   4.812  0.0759  1.3413 -0.5498
  297ACTN    H5 3426   5.195   0.007   4.697  0.7840 -0.9046  0.1306
  297ACTN    C2 3427   5.397   0.050   4.658 -0.2804  0.6069 -0.3561
  297ACTN    O1 3428   5.429   0.095   4.555  0.1919 -0.0573  0.1376
  297ACTN    C1 3429   5.486  -0.051   4.730 -0.1857  0.0995 -1.0807
  297ACTN    H1 3430   5.537  -0.127   4.670  0.9186  0.1999 -0.2987
  297ACTN    H2 3431   5.425  -0.101   4.804 -0.2403  0.6479 -0.7547
  297ACTN    H3 3432   5.563   0.006   4.782 -2.6071  0.8247  1.8132
  298ACTN    H6 3433   5.700   2.824   0.760  1.2257 -0.3221  0.3606
  298ACTN    C3 3434   5.693   2.927   0.726  0.1552 -0.4446  0.2115
  298ACTN    H4 3435   5.794   2.966   0.730  1.3206 -2.8295 -3.1424
  298ACTN    H5 3436   5.658   2.934   0.623  1.3407  3.1143 -0.0026
  298ACTN    C2 3437   5.608   3.010   0.822  0.1035  0.1095  0.0995
  298ACTN    O1 3438   5.593   3.127   0.803  0.1806  0.2333  0.1703
  298ACTN    C1 3439   5.553   2.962   0.954  0.5671  0.1181 -0.4315
  298ACTN    H1 3440   5.633   2.963   1.028  1.9345  4.5059 -1.8149
  298ACTN    H2 3441   5.506   2.866   0.932  0.7182 -0.2233  0.7179
  298ACTN    H3 3442   5.475   3.030   0.987  1.2336  0.4404  0.5035
  299ACTN    H6 3443   8.114   2.813   1.217 -1.0759  1.1035 -0.2341
  299ACTN    C3 3444   8.079   2.798   1.319  0.4193 -0.3875  0.0623
  299ACTN    H4 3445   8.044   2.894   1.356 -0.0750 -1.4844  2.5684
  299ACTN    H5 3446   7.990   2.735   1.313 -1.7822  2.8279 -2.1541
  299ACTN    C2 3447   8.188   2.739   1.400 -0.2031  0.5147 -0.5375
  299ACTN    O1 3448   8.293   2.805   1.415 -0.5046 -0.1955  0.3869
  299ACTN    C1 3449   8.178   2.595   1.455 -0.6907 -0.6170 -0.0346
  299ACTN    H1 3450   8.222   2.591   1.555  0.9299  2.2399 -0.5810
  299ACTN    H2 3451   8.240   2.527   1.397  0.2078  0.3267 -0.1927
  299ACTN    H3 3452   8.076   2.558   1.461 -0.9913  0.3091  0.7691
  300ACTN    H6 3453   6.870   7.188   8.061  1.4817  1.7594 -0.3709
  300ACTN    C3 3454   6.929   7.111   8.011 -0.2817 -0.1934  0.4861
  300ACTN    H4 3455   6.867   7.024   8.032 -1.7211  0.6102 -0.2985
  300ACTN    H5 3456   6.925   7.135   7.905  1.7046 -1.3581  0.1268
  300ACTN    C2 3457   7.068   7.095   8.055  0.1400 -0.0593  0.0754
  300ACTN    O1 3458   7.118   7.194   8.102  0.2401  0.3618  0.0202
  300ACTN    C1 3459   7.100   6.962   8.117 -0.3449  0.1698  0.2320
  300ACTN    H1 3460   7.089   6.885   8.041 -1.2121 -0.8360  1.3546
  300ACTN    H2 3461   7.035   6.936   8.200 -0.1652 -0.3227  0.2203
  300ACTN    H3 3462   7.205   6.962   8.147  0.4760 -0.3761 -2.5225
  301ACTN    H6 3463   8.763   7.789   2.335 -1.1501 -0.8696  0.3166
  301ACTN    C3 3464   8.764   7.837   2.433  0.1390  0.2506 -0.2188
  301ACTN    H4 3465   8.865   7.833   2.473 -0.3162  0.4800  1.0014
  301ACTN    H5 3466   8.723   7.938   2.434 -1.7406 -0.4984  0.5735
  301ACTN    C2 3467   8.671   7.757   2.519  0.2563 -0.2770 -0.0240
  301ACTN    O1 3468   8.608   7.660   2.471 -0.0334 -0.2486  0.4646
  301ACTN    C1 3469   8.654   7.793   2.665 -0.5826 -0.4361  0.0498
  301ACTN    H1 3470   8.709   7.882   2.692 -0.1706 -0.3915 -0.9124
  301ACTN    H2 3471   8.679   7.709   2.730 -2.9852 -1.1584  0.0934
  301ACTN    H3 3472   8.548   7.807   2.686 -0.9769 -0.7853 -1.6108
  302ACTN    H6 3473   0.087   4.493   1.560  0.4956 -0.7625 -2.3570
  302ACTN    C3 3474   0.167   4.444   1.615 -0.8681 -0.3655  0.0810
  302ACTN    H4 3475   0.268   4.468   1.582 -0.0027 -1.9697  1.4779
  302ACTN    H5 3476   0.159   4.491   1.713  0.0786  2.8611 -1.3380
  302ACTN    C2 3477   0.147   4.289   1.628  0.2563  0.3103  0.1544
  302ACTN    O1 3478   0.226   4.212   1.581  0.2141 -0.2262  0.3366
  302ACTN    C1 3479   0.013   4.235   1.672 -0.1065 -0.5639 -0.0619
  302ACTN    H1 3480  -0.032   4.181   1.588 -0.3194 -1.4696  0.6258
  302ACTN    H2 3481  -0.054   4.307   1.718  0.1473  0.0761 -0.6875
  302ACTN    H3 3482   0.031   4.164   1.753 -0.1831  0.4882  0.8800
  303ACTN    H6 3483   4.291   7.874   4.221 -0.9708 -3.1407  1.0261
  303ACTN    C3 3484   4.286   7.805   4.136 -0.1390 -0.3296 -1.4021
  303ACTN    H4 3485   4.319   7.716   4.189 -0.1821 -0.1521 -1.0713
  303ACTN    H5 3486   4.184   7.794   4.101 -1.2536  0.0724  1.5290
  303ACTN    C2 3487   4.373   7.843   4.021  0.1987  0.5803 -0.0856
  303ACTN    O1 3488   4.486   7.786   4.012  0.5947  0.3042  0.2274
  303ACTN    C1 3489   4.351   7.976   3.959 -0.1811  0.2295  0.1431
  303ACTN    H1 3490   4.281   7.962   3.876 -0.5139  1.7961  0.1508
  303ACTN    H2 3491   4.444   8.024   3.929  0.4589 -0.7785  0.4766
  303ACTN    H3 3492   4.302   8.030   4.040 -0.6749 -1.1678  0.8116
  304ACTN    H6 3493   4.170   7.438   3.250  0.9867 -3.3606  0.1140
  304ACTN    C3 3494   4.088   7.411   3.184 -0.1138 -0.4846  0.2532
  304ACTN    H4 3495   4.093   7.488   3.106 -1.0158  0.8381  1.4785
  304ACTN    H5 3496   4.105   7.312   3.141  1.7845  0.5294 -1.4035
  304ACTN    C2 3497   3.958   7.420   3.248  0.1212 -0.0322  0.3198
  304ACTN    O1 3498   3.949   7.506   3.335 -0.0671  0.4454  0.1386
  304ACTN    C1 3499   3.843   7.341   3.206 -0.1797 -0.0845 -0.0712
  304ACTN    H1 3500   3.859   7.255   3.141  1.5867  0.3328 -0.2095
  304ACTN    H2 3501   3.766   7.399   3.156  0.4551  0.2856 -0.6263
  304ACTN    H3 3502   3.807   7.294   3.298  2.0458  0.4204  1.0996
  305ACTN    H6 3503   8.468   7.973   1.983  0.3474  0.2363 -0.6944
  305ACTN    C3 3504   8.571   8.008   1.977  0.6342 -0.4868  0.0669
  305ACTN    H4 3505   8.645   7.929   1.994 -0.9064 -1.7747  0.9112
  305ACTN    H5 3506   8.586   8.050   1.878  1.2172 -1.5504 -0.3079
  305ACTN    C2 3507   8.604   8.120   2.077  0.1339  0.0785 -0.2680
  305ACTN    O1 3508   8.720   8.142   2.102 -0.3966  0.3242 -0.4061
  305ACTN    C1 3509   8.491   8.226   2.116 -0.0664  0.5766  0.2941
  305ACTN    H1 3510   8.542   8.322   2.104  0.9880  0.2928  2.2088
  305ACTN    H2 3511   8.452   8.222   2.218  0.5990  1.2438  0.5784
  305ACTN    H3 3512   8.408   8.229   2.046 -0.1035  1.6667  0.3687
  306ACTN    H6 3513   5.071   4.717   0.867 -0.8155 -0.2245 -1.5158
  306ACTN    C3 3514   4.962   4.724   0.861 -0.8944  0.1389  0.2026
  306ACTN    H4 3515   4.930   4.640   0.801 -0.2772 -1.3246  1.8656
  306ACTN    H5 3516   4.917   4.708   0.959 -0.9389 -1.1891 -0.0323
  306ACTN    C2 3517   4.918   4.862   0.817  0.2531  0.3940 -0.1029
  306ACTN    O1 3518   4.915   4.960   0.890  0.0654  0.3732  0.7525
  306ACTN    C1 3519   4.916   4.882   0.672 -0.0240  0.2115  0.6041
  306ACTN    H1 3520   4.986   4.816   0.622  0.1671 -0.0844  1.2591
  306ACTN    H2 3521   4.942   4.984   0.643 -0.0349  0.6256  2.0102
  306ACTN    H3 3522   4.819   4.843   0.642 -0.3449  1.7571 -0.4173
  307ACTN    H6 3523   2.151   8.563   4.029 -1.5175  1.6933 -1.9131
  307ACTN    C3 3524   2.247   8.608   4.004 -0.1092  0.1269  0.4754
  307ACTN    H4 3525   2.299   8.634   4.097 -1.4932 -0.3163  1.3821
  307ACTN    H5 3526   2.314   8.540   3.952 -0.9258  0.2042 -0.6906
  307ACTN    C2 3527   2.246   8.731   3.920  0.6954  0.1940 -0.5088
  307ACTN    O1 3528   2.172   8.828   3.955  0.0245  0.5360  0.2478
  307ACTN    C1 3529   2.335   8.735   3.804 -0.2319 -0.5842 -0.1115
  307ACTN    H1 3530   2.299   8.778   3.710 -1.4886  1.8513  1.4345
  307ACTN    H2 3531   2.375   8.634   3.792 -0.8066 -0.9036  0.6382
  307ACTN    H3 3532   2.421   8.797   3.827  0.3726 -1.2956 -0.4217
  308ACTN    H6 3533   5.353   5.593   3.712  1.1445 -0.9390 -1.6629
  308ACTN    C3 3534   5.418   5.666   3.760 -0.7596 -0.0304 -0.4452
  308ACTN    H4 3535   5.364   5.761   3.765 -0.4846  0.2063 -1.6855
  308ACTN    H5 3536   5.434   5.629   3.861 -1.1614 -1.3834 -0.8720
  308ACTN    C2 3537   5.543   5.669   3.676  0.1530 -0.4737  0.6261
  308ACTN    O1 3538   5.641   5.600   3.706 -0.4998 -0.2930 -0.1992
  308ACTN    C1 3539   5.557   5.762   3.564  0.1952 -0.2331  0.1845
  308ACTN    H1 3540   5.615   5.852   3.588  0.6171  0.3298 -2.7207
  308ACTN    H2 3541   5.461   5.798   3.529  0.0397 -0.1158  0.7258
  308ACTN    H3 3542   5.604   5.712   3.479 -0.2624 -1.6605  0.7552
  309ACTN    H6 3543   0.222   7.745   5.666 -0.8969 -2.5134  1.1486
  309ACTN    C3 3544   0.329   7.726   5.666 -0.4835 -0.3546 -0.0178
  309ACTN    H4 3545   0.383   7.819   5.684 -1.4769  0.3467 -0.6373
  309ACTN    H5 3546   0.358   7.660   5.748  2.5939  1.2541  0.2674
  309ACTN    C2 3547   0.380   7.670   5.527  0.2251  0.1303  0.0835
  309ACTN    O1 3548   0.297   7.662   5.433 -0.6088 -0.3604 -0.0500
  309ACTN    C1 3549   0.519   7.609   5.511 -0.1233  0.3725  0.5506
  309ACTN    H1 3550   0.514   7.501   5.524  0.7681  0.3404  0.6454
  309ACTN    H2 3551   0.588   7.646   5.586  0.7558 -0.8190  0.3512
  309ACTN    H3 3552   0.553   7.626   5.409 -1.5989  3.1004  0.4623
  310ACTN    H6 3553   5.958   2.236   6.752 -2.0850  1.9091  0.1828
  310ACTN    C3 3554   6.023   2.316   6.717 -0.1680  0.2731 -0.0715
  310ACTN    H4 3555   6.045   2.278   6.617 -0.1866 -1.9416  0.7438
  310ACTN    H5 3556   5.966   2.409   6.719 -2.0683 -0.8680 -0.1040
  310ACTN    C2 3557   6.141   2.338   6.806 -0.7155 -0.1949 -0.6424
  310ACTN    O1 3558   6.179   2.446   6.837  0.1458  0.2253 -0.5467
  310ACTN    C1 3559   6.231   2.222   6.821 -0.4577 -0.0789  0.2445
  310ACTN    H1 3560   6.171   2.143   6.866 -0.4637  0.2334  0.7812
  310ACTN    H2 3561   6.311   2.247   6.891 -0.0059  1.8795 -0.9169
  310ACTN    H3 3562   6.271   2.181   6.728  0.5357 -0.7671  0.9668
  311ACTN    H6 3563   1.167   0.985   7.353  0.6163 -3.4217 -3.2014
  311ACTN    C3 3564   1.252   1.046   7.323 -0.0676 -0.1193  1.0052
  311ACTN    H4 3565   1.272   1.124   7.396 -0.1636  0.9062 -0.0397
  311ACTN    H5 3566   1.340   0.982   7.318 -0.5272 -0.7835  1.3838
  311ACTN    C2 3567   1.218   1.110   7.190 -0.4686  1.2657  0.4573
  311ACTN    O1 3568   1.166   1.221   7.180 -0.1569  0.7383 -0.3777
  311ACTN    C1 3569   1.278   1.052   7.061  0.4211  0.6185 -0.1966
  311ACTN    H1 3570   1.268   0.944   7.046 -1.2689  0.5822  1.0180
  311ACTN    H2 3571   1.385   1.068   7.054  0.4557  1.6635  2.1059
  311ACTN    H3 3572   1.236   1.098   6.972 -0.4498  0.4223  0.1040
  312ACTN    H6 3573   7.132   8.272   0.933  0.0344 -0.5048  0.2196
  312ACTN    C3 3574   7.194   8.194   0.890  0.3236  0.0419 -0.3485
  312ACTN    H4 3575   7.269   8.236   0.823 -0.0585 -0.5986 -1.1855
  312ACTN    H5 3576   7.240   8.133   0.968 -0.6706 -1.5220 -0.9518
  312ACTN    C2 3577   7.112   8.099   0.810  0.0630 -1.3534  0.0121
  312ACTN    O1 3578   7.164   8.001   0.771  0.2869 -0.1557  0.3527
  312ACTN    C1 3579   6.990   8.162   0.750  0.9186  0.3328 -0.0245
  312ACTN    H1 3580   6.904   8.116   0.799  1.6712 -0.9459  0.1264
  312ACTN    H2 3581   6.983   8.137   0.644  4.0752 -0.0805 -0.1964
  312ACTN    H3 3582   6.979   8.269   0.762  0.9404  0.2924  0.3460
  313ACTN    H6 3583   0.944   7.785   8.159 -0.2399 -0.2824 -1.7883
  313ACTN    C3 3584   0.866   7.857   8.180  0.1825 -0.3051 -0.0843
  313ACTN    H4 3585   0.859   7.923   8.093 -1.2062  1.0381  1.0126
  313ACTN    H5 3586   0.770   7.806   8.189  1.6445 -3.4408 -1.5796
  313ACTN    C2 3587   0.897   7.938   8.300 -0.4034 -0.5106  0.6730
  313ACTN    O1 3588   0.964   8.046   8.285 -0.5300 -0.0735  0.5871
  313ACTN    C1 3589   0.863   7.888   8.435 -0.1582  0.5922 -0.6937
  313ACTN    H1 3590   0.825   7.786   8.431  0.5320  0.3793 -2.0076
  313ACTN    H2 3591   0.790   7.954   8.481  0.5115  1.4630 -0.8554
  313ACTN    H3 3592   0.948   7.879   8.502 -0.7210 -1.0141 -0.1730
  314ACTN    H6 3593   3.351   8.155   3.978  2.4908  1.4973 -1.8706
  314ACTN    C3 3594   3.288   8.183   3.893 -0.4940 -0.0172 -0.2319
  314ACTN    H4 3595   3.266   8.097   3.830 -0.6904  1.0360 -1.6056
  314ACTN    H5 3596   3.194   8.215   3.938  0.0485  1.2630 -0.0045
  314ACTN    C2 3597   3.352   8.292   3.819 -0.7791  0.7609  0.3656
  314ACTN    O1 3598   3.397   8.389   3.882  0.4226 -0.8307  0.3118
  314ACTN    C1 3599   3.370   8.272   3.676 -0.1623 -0.6453  0.0812
  314ACTN    H1 3600   3.280   8.235   3.626 -0.1674 -0.5302  0.0077
  314ACTN    H2 3601   3.431   8.182   3.678 -0.1727 -0.7012 -1.6229
  314ACTN    H3 3602   3.424   8.347   3.619 -1.4799 -0.8922 -1.5590
  315ACTN    H6 3603   5.975   8.338   4.327 -0.1444 -2.8149 -2.5451
  315ACTN    C3 3604   6.005   8.413   4.255 -0.3402 -0.4647 -0.2312
  315ACTN    H4 3605   6.105   8.437   4.292 -0.3905 -0.1315 -0.3047
  315ACTN    H5 3606   6.013   8.384   4.150  0.3528  2.1645 -0.9398
  315ACTN    C2 3607   5.927   8.536   4.280 -0.0860 -0.1743  1.1511
  315ACTN    O1 3608   5.961   8.632   4.343  0.3841 -0.1563  0.9145
  315ACTN    C1 3609   5.791   8.552   4.229  0.0162 -0.0985  0.2268
  315ACTN    H1 3610   5.737   8.631   4.282  0.4205 -1.7566  3.2170
  315ACTN    H2 3611   5.730   8.463   4.246  1.3226 -1.0465  0.0464
  315ACTN    H3 3612   5.788   8.567   4.121  2.8573  1.5676  0.3171
  316ACTN    H6 3613   4.509   7.184   7.667 -0.8505 -1.8460 -1.2988
  316ACTN    C3 3614   4.416   7.210   7.717  0.1577  0.3579 -0.5315
  316ACTN    H4 3615   4.379   7.298   7.665  1.8678  2.0381  0.9955
  316ACTN    H5 3616   4.344   7.129   7.708  0.2317  0.1450  0.6417
  316ACTN    C2 3617   4.439   7.241   7.865  0.6614 -0.2569 -0.5013
  316ACTN    O1 3618   4.386   7.165   7.946 -0.8985  0.3942 -0.1803
  316ACTN    C1 3619   4.529   7.343   7.915  0.4749  0.3451  0.9898
  316ACTN    H1 3620   4.544   7.334   8.023 -0.0264  0.6507  1.0873
  316ACTN    H2 3621   4.507   7.448   7.892  0.9228 -0.2986 -2.5941
  316ACTN    H3 3622   4.627   7.330   7.868  0.9034  0.6591  1.7694
  317ACTN    H6 3623   7.832   1.071   4.371 -0.2952  0.2510 -2.3693
  317ACTN    C3 3624   7.764   0.989   4.394  0.7220  0.0091 -0.0515
  317ACTN    H4 3625   7.787   0.939   4.488 -0.6021  0.2072  0.3979
  317ACTN    H5 3626   7.665   1.033   4.409 -0.2478 -2.2021  0.1304
  317ACTN    C2 3627   7.759   0.900   4.280 -0.4854  0.3396  0.7134
  317ACTN    O1 3628   7.849   0.914   4.200  0.4011 -0.5643  0.5789
  317ACTN    C1 3629   7.642   0.813   4.268 -0.0850  0.0088 -0.9786
  317ACTN    H1 3630   7.554   0.876   4.253  0.4359  1.4460  1.6572
  317ACTN    H2 3631   7.632   0.744   4.352 -1.6968  1.6693  0.2226
  317ACTN    H3 3632   7.656   0.738   4.191  1.2580 -2.1426  1.2914
  318ACTN    H6 3633   6.148   1.838   7.304 -2.2562 -0.8700  0.8384
  318ACTN    C3 3634   6.181   1.734   7.312  0.0057 -0.2090  0.4697
  318ACTN    H4 3635   6.102   1.669   7.278  1.2544 -1.6401  0.2582
  318ACTN    H5 3636   6.274   1.726   7.256 -0.6159 -2.0941 -0.2970
  318ACTN    C2 3637   6.223   1.706   7.453  0.4850 -0.0922 -0.7895
  318ACTN    O1 3638   6.207   1.587   7.489 -0.6596 -0.3448  0.2214
  318ACTN    C1 3639   6.222   1.817   7.559  0.4113  0.2576 -0.4927
  318ACTN    H1 3640   6.127   1.869   7.567  0.7066  0.8079 -0.5445
  318ACTN    H2 3641   6.297   1.889   7.527 -1.2511  1.0678 -2.6846
  318ACTN    H3 3642   6.247   1.783   7.659  1.5062  2.1664 -0.0934
  319ACTN    H6 3643   8.843   4.945   2.522  0.5085  2.4123  3.8124
  319ACTN    C3 3644   8.943   4.951   2.480 -0.4580  0.0002  0.9359
  319ACTN    H4 3645   8.935   4.973   2.373 -0.8813 -0.4352  0.8806
  319ACTN    H5 3646   8.985   5.042   2.523  0.4332  0.4109 -0.7549
  319ACTN    C2 3647   9.029   4.829   2.503 -0.3908 -0.0831  0.1227
  319ACTN    O1 3648   9.142   4.833   2.472 -0.4373 -0.2915 -0.3468
  319ACTN    C1 3649   8.982   4.697   2.553  0.0719  0.1727  0.1066
  319ACTN    H1 3650   9.009   4.672   2.655  0.8078  1.0050  0.1217
  319ACTN    H2 3651   9.002   4.614   2.485  2.0976  1.5244 -0.9901
  319ACTN    H3 3652   8.873   4.699   2.544  0.0855  2.3046  0.0171
  320ACTN    H6 3653   5.430   1.160   2.138  1.1576 -1.1062 -0.0134
  320ACTN    C3 3654   5.500   1.218   2.077  0.4813 -0.6910 -0.3967
  320ACTN    H4 3655   5.441   1.266   1.999  1.7501  1.8048  0.1283
  320ACTN    H5 3656   5.538   1.301   2.136  2.0645 -1.6928  0.0242
  320ACTN    C2 3657   5.608   1.134   2.029 -0.3686  0.1148 -0.3480
  320ACTN    O1 3658   5.584   1.020   1.991 -0.0260  0.2437  0.1985
  320ACTN    C1 3659   5.746   1.178   2.046 -0.1329  0.4536 -0.0904
  320ACTN    H1 3660   5.752   1.267   2.109  1.2478 -0.6535  1.3819
  320ACTN    H2 3661   5.790   1.206   1.951 -0.5901  1.5701  0.0147
  320ACTN    H3 3662   5.800   1.094   2.088 -0.1774 -0.2048 -1.3532
  321ACTN    H6 3663   1.099   8.369   3.079  0.8600 -2.3491 -2.9727
  321ACTN    C3 3664   1.206   8.369   3.100  0.3781 -0.8763 -0.2746
  321ACTN    H4 3665   1.253   8.461   3.065 -0.3256  0.6608  2.6914
  321ACTN    H5 3666   1.215   8.371   3.208  0.5859  1.3396 -0.3025
  321ACTN    C2 3667   1.266   8.252   3.031 -0.0189 -0.4749  0.1766
  321ACTN    O1 3668   1.242   8.140   3.070  0.7092  0.4675 -0.1605
  321ACTN    C1 3669   1.322   8.273   2.898 -0.2188  0.7369  0.8413
  321ACTN    H1 3670   1.351   8.377   2.891 -0.6166  0.6889 -2.0760
  321ACTN    H2 3671   1.245   8.245   2.826  0.3105 -2.1484  1.2996
  321ACTN    H3 3672   1.407   8.209   2.875 -2.4557 -1.4719 -1.5910
  322ACTN    H6 3673   5.320   0.666   5.235 -0.0291  0.2653  0.4664
  322ACTN    C3 3674   5.231   0.610   5.206  0.1612  0.4644 -0.5046
  322ACTN    H4 3675   5.199   0.544   5.286  0.5167 -0.0472 -0.7801
  322ACTN    H5 3676   5.160   0.682   5.166 -1.0100 -1.8314 -2.6970
  322ACTN    C2 3677   5.277   0.520   5.092 -0.1736 -0.2757 -0.8799
  322ACTN    O1 3678   5.337   0.558   4.999  0.5248  0.3755  0.1871
  322ACTN    C1 3679   5.251   0.376   5.102  0.3664 -0.4458  0.3946
  322ACTN    H1 3680   5.220   0.339   5.004  3.2597  0.5752 -0.9755
  322ACTN    H2 3681   5.173   0.357   5.176 -1.2658 -2.6613 -1.7818
  322ACTN    H3 3682   5.344   0.326   5.129  1.4854  0.6264 -1.3520
  323ACTN    H6 3683   1.316   6.899   2.939  0.1126  0.6755 -0.9035
  323ACTN    C3 3684   1.402   6.941   2.992  0.2190 -0.3394 -0.2697
  323ACTN    H4 3685   1.489   6.879   2.969  1.6001  0.2810  2.9962
  323ACTN    H5 3686   1.421   7.037   2.945  1.3851 -1.6101 -2.4896
  323ACTN    C2 3687   1.390   6.914   3.142 -1.0607 -0.3596  0.0797
  323ACTN    O1 3688   1.485   6.867   3.207  0.7144  0.9553  0.6127
  323ACTN    C1 3689   1.262   6.948   3.221 -0.1329 -0.5922  0.5416
  323ACTN    H1 3690   1.183   6.989   3.159  0.8373  2.4651  1.2437
  323ACTN    H2 3691   1.291   7.031   3.286 -0.0756 -0.4795  0.3706
  323ACTN    H3 3692   1.227   6.859   3.275  1.4010 -1.0399  0.8269
  324ACTN    H6 3693   2.602   8.736   4.079 -1.8462  4.1394  3.0253
  324ACTN    C3 3694   2.620   8.671   4.164 -0.5123 -0.2009 -0.3578
  324ACTN    H4 3695   2.589   8.718   4.258  2.0703 -0.5400  0.7163
  324ACTN    H5 3696   2.581   8.569   4.157 -1.5389  0.0053  1.8999
  324ACTN    C2 3697   2.767   8.655   4.168  0.2883 -0.5117  0.8369
  324ACTN    O1 3698   2.823   8.590   4.078  0.7637 -0.0501  0.3023
  324ACTN    C1 3699   2.844   8.715   4.277  0.6495  0.4902  0.2248
  324ACTN    H1 3700   2.796   8.812   4.290 -0.9805 -0.1632 -0.7881
  324ACTN    H2 3701   2.948   8.726   4.248  0.3961  5.6065  0.7429
  324ACTN    H3 3702   2.827   8.656   4.367 -2.0178 -0.8319 -1.0729
  325ACTN    H6 3703   4.805   3.540   4.175 -0.7361 -1.1132 -0.9797
  325ACTN    C3 3704   4.905   3.526   4.136 -0.1564  0.0488  0.0555
  325ACTN    H4 3705   4.960   3.477   4.216  0.4606  0.3713 -0.1637
  325ACTN    H5 3706   4.908   3.462   4.047  2.2907  0.9616 -0.5728
  325ACTN    C2 3707   4.957   3.656   4.097 -0.0381  0.5926 -0.2292
  325ACTN    O1 3708   4.881   3.747   4.063 -0.3493  0.0873 -0.5368
  325ACTN    C1 3709   5.095   3.669   4.072 -0.0757 -0.0771  0.0936
  325ACTN    H1 3710   5.112   3.727   3.982  0.4996 -1.4471 -0.6855
  325ACTN    H2 3711   5.149   3.578   4.049  0.4464  1.0000 -3.1325
  325ACTN    H3 3712   5.143   3.719   4.157 -0.1277 -2.5095  1.5876
  326ACTN    H6 3713   8.696   3.392   1.447  4.5182 -2.6483 -1.5623
  326ACTN    C3 3714   8.740   3.433   1.538 -0.0644 -0.1010 -0.3543
  326ACTN    H4 3715   8.681   3.520   1.568 -0.7487 -0.2134 -1.3282
  326ACTN    H5 3716   8.710   3.360   1.612  1.0711 -1.1935 -0.9551
  326ACTN    C2 3717   8.889   3.465   1.547  0.2343  0.7849  0.3271
  326ACTN    O1 3718   8.939   3.453   1.655 -0.0748  0.1967 -0.1572
  326ACTN    C1 3719   8.967   3.481   1.428 -0.1710 -0.3782  0.3349
  326ACTN    H1 3720   8.906   3.530   1.352  1.8251  0.5970 -0.6683
  326ACTN    H2 3721   8.992   3.382   1.391  0.8818 -0.1914  0.5395
  326ACTN    H3 3722   9.062   3.534   1.439 -1.8611  2.9632 -0.3469
  327ACTN    H6 3723   6.792   1.654   2.412  0.5369  0.1650  1.0502
  327ACTN    C3 3724   6.835   1.751   2.387  0.5264 -0.1013 -0.0219
  327ACTN    H4 3725   6.879   1.749   2.287  0.1381 -0.7704 -0.1804
  327ACTN    H5 3726   6.755   1.825   2.393  0.8487  0.2492 -0.0209
  327ACTN    C2 3727   6.945   1.793   2.483 -0.5336  0.2936  0.0547
  327ACTN    O1 3728   6.916   1.824   2.600  0.1808 -0.0121  0.3019
  327ACTN    C1 3729   7.078   1.811   2.421  0.1141  0.0442 -0.7610
  327ACTN    H1 3730   7.090   1.735   2.344  0.5791  1.0964 -1.7382
  327ACTN    H2 3731   7.155   1.793   2.496  1.6983 -0.6915 -2.5257
  327ACTN    H3 3732   7.093   1.912   2.382  0.7882 -0.3310 -1.4877
  328ACTN    H6 3733   8.154   3.982   7.084 -0.6662 -0.3640 -0.3232
  328ACTN    C3 3734   8.208   3.956   6.993  0.0940 -0.0035  0.0137
  328ACTN    H4 3735   8.146   3.995   6.913 -0.3941 -0.4073  0.1905
  328ACTN    H5 3736   8.299   4.015   7.002 -0.5309  0.8704  0.5873
  328ACTN    C2 3737   8.233   3.801   7.000  0.5579 -0.1343 -0.5431
  328ACTN    O1 3738   8.268   3.745   6.892  0.2818 -0.2778 -0.2823
  328ACTN    C1 3739   8.277   3.737   7.123 -0.3177  0.6126  0.6407
  328ACTN    H1 3740   8.208   3.757   7.205 -1.2709 -2.9940  0.8354
  328ACTN    H2 3741   8.378   3.764   7.151 -1.3122  1.1705  3.8307
  328ACTN    H3 3742   8.271   3.628   7.116 -1.6609  0.7724 -1.1003
  329ACTN    H6 3743   5.019   8.461   8.116  1.6314  0.6186 -0.6457
  329ACTN    C3 3744   5.029   8.548   8.181 -0.6049  0.2137  0.3092
  329ACTN    H4 3745   4.930   8.582   8.212 -1.0806 -0.7969 -0.0637
  329ACTN    H5 3746   5.092   8.518   8.264 -0.9304 -3.2163 -0.5850
  329ACTN    C2 3747   5.089   8.655   8.094 -0.3191  0.4596  0.4561
  329ACTN    O1 3748   5.193   8.708   8.124  0.2159  0.1602 -0.0225
  329ACTN    C1 3749   5.007   8.723   7.988  0.0949 -0.1686  0.5714
  329ACTN    H1 3750   4.984   8.824   8.023  0.0571 -0.1750  0.5673
  329ACTN    H2 3751   4.908   8.678   7.982 -0.4487  1.0858 -0.0245
  329ACTN    H3 3752   5.049   8.728   7.887 -1.1974  1.8967  0.0960
  330ACTN    H6 3753   8.061   1.991   5.136  2.5831 -0.5353 -0.0859
  330ACTN    C3 3754   8.062   1.953   5.238 -0.6389  0.4650  0.3738
  330ACTN    H4 3755   8.145   1.884   5.247 -0.2135  0.7688 -1.1276
  330ACTN    H5 3756   8.070   2.040   5.303 -2.5604  0.7959  0.2023
  330ACTN    C2 3757   7.934   1.878   5.271 -0.4889 -0.9590  0.9109
  330ACTN    O1 3758   7.855   1.913   5.350  0.3283  0.3550  0.2859
  330ACTN    C1 3759   7.910   1.761   5.186  0.0202  0.1991  0.2568
  330ACTN    H1 3760   7.804   1.748   5.165  0.1654 -0.2929 -0.1812
  330ACTN    H2 3761   7.936   1.665   5.229 -1.0651 -1.1565 -2.0172
  330ACTN    H3 3762   7.958   1.771   5.088  1.0755  0.8431  0.8293
  331ACTN    H6 3763   7.956   5.007   2.229  0.6357  0.7000 -1.5087
  331ACTN    C3 3764   7.858   5.031   2.187 -0.0437  0.3373 -0.1837
  331ACTN    H4 3765   7.870   5.022   2.079  2.5341 -0.3472  0.1211
  331ACTN    H5 3766   7.772   4.969   2.212  0.5821 -0.3957  0.1550
  331ACTN    C2 3767   7.834   5.173   2.232 -0.4330  0.6204  0.3593
  331ACTN    O1 3768   7.843   5.266   2.154  0.0459 -0.6908 -0.1995
  331ACTN    C1 3769   7.798   5.195   2.375  0.1485 -0.0132  0.2463
  331ACTN    H1 3770   7.883   5.235   2.430 -0.9984  0.5976  1.5982
  331ACTN    H2 3771   7.774   5.102   2.426 -2.2737 -0.1989 -1.1621
  331ACTN    H3 3772   7.718   5.267   2.392  1.5759  1.4386  1.0013
  332ACTN    H6 3773   6.234   1.179   3.525  0.1722  0.2381  0.2093
  332ACTN    C3 3774   6.312   1.133   3.464  0.1049 -0.2276  0.4777
  332ACTN    H4 3775   6.398   1.102   3.523  1.0765  1.8339  0.1926
  332ACTN    H5 3776   6.272   1.041   3.420 -0.6682 -0.8261  2.3940
  332ACTN    C2 3777   6.363   1.221   3.354  0.0710  0.6411 -0.8587
  332ACTN    O1 3778   6.416   1.174   3.255  0.1506  0.0261  0.0623
  332ACTN    C1 3779   6.316   1.367   3.349  0.4384  0.0329  0.8662
  332ACTN    H1 3780   6.300   1.418   3.444  1.6986  1.0037  0.5629
  332ACTN    H2 3781   6.219   1.367   3.298 -0.2604 -2.1070  2.1264
  332ACTN    H3 3782   6.387   1.421   3.287 -0.5680  1.2158  0.7153
  333ACTN    H6 3783   2.375   8.506   0.403 -1.6709  0.6010  1.2400
  333ACTN    C3 3784   2.397   8.403   0.433  0.6864  0.7941  0.3688
  333ACTN    H4 3785   2.320   8.363   0.500 -1.5324  5.1631  0.6117
  333ACTN    H5 3786   2.396   8.355   0.336  1.3525 -0.4262  0.9625
  333ACTN    C2 3787   2.539   8.395   0.495 -0.4184 -0.1775 -0.7644
  333ACTN    O1 3788   2.561   8.453   0.600  0.0265 -0.2131 -0.2174
  333ACTN    C1 3789   2.626   8.296   0.441 -0.1562  0.4534  0.1960
  333ACTN    H1 3790   2.667   8.242   0.527  0.7602 -1.6852 -1.5567
  333ACTN    H2 3791   2.707   8.342   0.384 -0.7139  1.4577  0.2012
  333ACTN    H3 3792   2.568   8.220   0.390  0.8241  0.1309 -0.4483
  334ACTN    H6 3793   3.949   5.305   2.356 -3.0764  1.5169 -0.4407
  334ACTN    C3 3794   4.009   5.395   2.350  0.0551 -0.4419  0.3152
  334ACTN    H4 3795   4.054   5.393   2.251 -0.9265  0.8267 -0.1771
  334ACTN    H5 3796   3.946   5.484   2.348 -1.1816 -1.2626  1.6316
  334ACTN    C2 3797   4.108   5.408   2.463 -0.2136  0.2799 -0.3627
  334ACTN    O1 3798   4.226   5.443   2.437 -0.0243  0.0917  0.1840
  334ACTN    C1 3799   4.059   5.430   2.602  0.1948  0.1447 -0.4725
  334ACTN    H1 3800   3.953   5.406   2.593  0.1971  0.5435 -1.6243
  334ACTN    H2 3801   4.073   5.525   2.654  1.2321  1.3965 -2.9949
  334ACTN    H3 3802   4.100   5.351   2.666  1.5000  0.4705 -0.8996
  335ACTN    H6 3803   7.338   0.009   2.976 -1.0672 -1.2298 -1.4457
  335ACTN    C3 3804   7.260   0.085   2.973 -0.1183 -0.2059 -0.3706
  335ACTN    H4 3805   7.177   0.039   2.919 -0.7835  0.9023 -0.3210
  335ACTN    H5 3806   7.232   0.100   3.077  1.5580  1.5662 -0.1437
  335ACTN    C2 3807   7.294   0.213   2.912 -0.2103 -0.4040 -0.2000
  335ACTN    O1 3808   7.275   0.224   2.792  0.0193 -0.1009  0.0529
  335ACTN    C1 3809   7.390   0.314   2.969 -0.0638 -0.6598  0.5061
  335ACTN    H1 3810   7.360   0.347   3.069  0.3122  0.2586  0.3188
  335ACTN    H2 3811   7.386   0.397   2.899  0.0109 -0.5588  0.6215
  335ACTN    H3 3812   7.490   0.269   2.967 -0.5265 -1.6688 -0.0164
  336ACTN    H6 3813   4.838   7.281   0.344  0.1561  0.4026  0.1322
  336ACTN    C3 3814   4.891   7.227   0.423 -0.4868 -0.2876  0.0987
  336ACTN    H4 3815   4.818   7.153   0.455 -1.8266  0.3346 -1.4792
  336ACTN    H5 3816   4.906   7.305   0.498  2.5749 -0.3717 -0.3684
  336ACTN    C2 3817   5.029   7.175   0.375  0.1276 -0.2300 -0.9789
  336ACTN    O1 3818   5.082   7.070   0.417  0.4259  0.5496 -0.2935
  336ACTN    C1 3819   5.097   7.275   0.296  0.3652 -0.1928  0.8191
  336ACTN    H1 3820   5.139   7.229   0.206 -0.2289 -1.6607  1.2882
  336ACTN    H2 3821   5.177   7.314   0.359  3.4736 -1.9553 -1.8397
  336ACTN    H3 3822   5.028   7.355   0.271  0.2346 -0.4760  0.2645
  337ACTN    H6 3823   7.825   6.088   5.154 -0.7702 -0.4578  0.6323
  337ACTN    C3 3824   7.909   6.157   5.162 -0.8263 -0.2547 -0.3698
  337ACTN    H4 3825   7.963   6.156   5.257 -0.8767  2.4647 -0.2774
  337ACTN    H5 3826   7.982   6.139   5.082 -0.4529  1.8903 -0.5292
  337ACTN    C2 3827   7.854   6.286   5.131  0.8045 -0.5395 -0.0419
  337ACTN    O1 3828   7.827   6.326   5.012 -0.0450  0.3494 -0.4137
  337ACTN    C1 3829   7.802   6.366   5.239  0.4496 -0.6451 -0.2278
  337ACTN    H1 3830   7.695   6.360   5.260  0.1623  1.2453 -1.0800
  337ACTN    H2 3831   7.824   6.470   5.214  1.6995 -0.1394  2.7723
  337ACTN    H3 3832   7.846   6.338   5.335 -2.6908 -0.9794  1.1966
  338ACTN    H6 3833   2.333   8.797   4.828  0.1869  0.7814 -0.0747
  338ACTN    C3 3834   2.430   8.839   4.801  0.5605  0.1618  0.2828
  338ACTN    H4 3835   2.489   8.850   4.892 -1.0407  4.1885  0.9964
  338ACTN    H5 3836   2.492   8.781   4.733  1.1711  1.5917 -0.4050
  338ACTN    C2 3837   2.419   8.975   4.739  0.4442 -0.3698 -0.3992
  338ACTN    O1 3838   2.390   9.070   4.812  0.0261  0.4407 -0.0697
  338ACTN    C1 3839   2.437   8.996   4.591  0.1335 -0.2917  0.5909
  338ACTN    H1 3840   2.532   8.960   4.550 -0.2663 -1.6884  0.8542
  338ACTN    H2 3841   2.433   9.101   4.563 -0.7449 -0.2557  0.8532
  338ACTN    H3 3842   2.356   8.940   4.543 -0.4852  2.1452 -1.2793
  339ACTN    H6 3843   6.065   3.830   6.803 -1.0289  0.8229 -1.7894
  339ACTN    C3 3844   6.148   3.901   6.801 -0.0025 -0.2988  0.3080
  339ACTN    H4 3845   6.162   3.932   6.698  0.2535  1.4686  0.8531
  339ACTN    H5 3846   6.121   3.991   6.857  0.9472 -0.2587  0.7045
  339ACTN    C2 3847   6.266   3.828   6.865  0.3831 -0.6270  0.3874
  339ACTN    O1 3848   6.360   3.886   6.912  0.0012 -0.2406  0.2569
  339ACTN    C1 3849   6.294   3.679   6.828 -0.0000  0.1724 -0.4544
  339ACTN    H1 3850   6.394   3.653   6.791  0.9564 -0.3741  2.4234
  339ACTN    H2 3851   6.230   3.632   6.753  0.6572 -2.0839  0.3642
  339ACTN    H3 3852   6.283   3.620   6.919  0.1515  0.5042 -0.2188
  340ACTN    H6 3853   8.385   1.531   1.143  0.2535  0.9539  0.7311
  340ACTN    C3 3854   8.451   1.498   1.063 -0.3334  0.5495  0.4129
  340ACTN    H4 3855   8.395   1.488   0.970 -1.7474  4.0122  0.8174
  340ACTN    H5 3856   8.528   1.572   1.039 -1.0569  0.7344 -1.4339
  340ACTN    C2 3857   8.523   1.375   1.099 -0.7043 -0.9885 -0.4391
  340ACTN    O1 3858   8.487   1.267   1.050 -0.2942 -0.0692 -0.3528
  340ACTN    C1 3859   8.621   1.375   1.213 -0.2368 -0.3788  0.0197
  340ACTN    H1 3860   8.645   1.478   1.237 -0.9154  0.4932 -2.8537
  340ACTN    H2 3861   8.709   1.316   1.185  0.7505 -0.1249  2.4301
  340ACTN    H3 3862   8.566   1.331   1.296  0.8124 -0.2567  0.7981
  341ACTN    H6 3863   6.577   8.634   5.075 -1.1172  0.0188 -0.6889
  341ACTN    C3 3864   6.586   8.553   5.004 -0.6295 -0.3407 -0.2227
  341ACTN    H4 3865   6.605   8.588   4.902  1.9137  0.2114  0.4185
  341ACTN    H5 3866   6.682   8.506   5.026  0.9364  2.6167 -0.5965
  341ACTN    C2 3867   6.471   8.466   5.016  0.2265 -0.3486 -0.3521
  341ACTN    O1 3868   6.486   8.358   5.073  0.1199  0.4682  0.3705
  341ACTN    C1 3869   6.331   8.522   4.970  1.1473  0.0878  0.3442
  341ACTN    H1 3870   6.341   8.568   4.871 -0.0267  3.0425  1.5489
  341ACTN    H2 3871   6.297   8.602   5.036  1.9780  1.0440 -0.3619
  341ACTN    H3 3872   6.258   8.442   4.975 -0.7085  1.5286 -2.3865
  342ACTN    H6 3873   3.224   3.189   1.117 -0.2672 -2.7361 -0.1578
  342ACTN    C3 3874   3.327   3.217   1.100 -0.6487 -0.7937  0.5976
  342ACTN    H4 3875   3.352   3.158   1.012 -1.4432 -1.2407  0.6662
  342ACTN    H5 3876   3.341   3.323   1.080 -0.2325 -0.9536  0.0151
  342ACTN    C2 3877   3.416   3.174   1.219 -0.3742  0.3080  0.6207
  342ACTN    O1 3878   3.400   3.234   1.321 -0.2688 -0.0100 -0.0081
  342ACTN    C1 3879   3.489   3.045   1.229  0.3175 -0.5192  0.4424
  342ACTN    H1 3880   3.484   2.977   1.143 -1.4192  0.6988 -0.4551
  342ACTN    H2 3881   3.453   2.985   1.313  0.1352  2.1698  2.3374
  342ACTN    H3 3882   3.596   3.058   1.241  0.5624 -1.0602 -0.9834
  343ACTN    H6 3883   3.300   3.216   2.131  0.6672  2.6821 -0.2286
  343ACTN    C3 3884   3.289   3.231   2.239 -1.0505  0.1248 -0.0250
  343ACTN    H4 3885   3.353   3.308   2.281  0.9204 -0.4564 -1.8611
  343ACTN    H5 3886   3.184   3.261   2.244 -1.1719 -0.2755 -0.1113
  343ACTN    C2 3887   3.319   3.091   2.302 -0.0825 -0.0260  0.2589
  343ACTN    O1 3888   3.429   3.050   2.308 -0.4902 -0.2622 -0.4454
  343ACTN    C1 3889   3.207   3.020   2.379  0.4459  0.0550  0.8076
  343ACTN    H1 3890   3.228   2.992   2.482  1.3914 -1.9719  0.1091
  343ACTN    H2 3891   3.180   2.926   2.330 -0.8258 -0.0717  1.7481
  343ACTN    H3 3892   3.117   3.080   2.385  0.8981  0.7546  0.6009
  344ACTN    H6 3893   8.484   2.088   1.083  1.0093  0.4234  1.0781
  344ACTN    C3 3894   8.472   2.183   1.031 -0.5595 -0.3980 -0.0743
  344ACTN    H4 3895   8.568   2.210   0.988 -2.3802  2.3335 -2.6451
  344ACTN    H5 3896   8.399   2.166   0.952  1.9536  1.1941 -2.8239
  344ACTN    C2 3897   8.429   2.290   1.133  0.1844 -0.5665  0.1900
  344ACTN    O1 3898   8.313   2.326   1.129  0.0071 -0.6589 -0.0682
  344ACTN    C1 3899   8.521   2.361   1.221 -0.2107 -0.1452  0.6874
  344ACTN    H1 3900   8.544   2.298   1.307 -0.3819 -2.4661 -0.9229
  344ACTN    H2 3901   8.491   2.460   1.256  0.8941  0.1080  0.9414
  344ACTN    H3 3902   8.615   2.375   1.167  0.2536 -0.5702  1.3788
  345ACTN    H6 3903   6.560   4.603   7.377 -0.3777 -1.8324  1.1257
  345ACTN    C3 3904   6.656   4.590   7.327 -0.7178 -0.5132  0.0921
  345ACTN    H4 3905   6.674   4.483   7.321  1.7315 -0.1141 -0.4468
  345ACTN    H5 3906   6.636   4.627   7.227  0.0938  1.0755  0.4795
  345ACTN    C2 3907   6.786   4.661   7.380  0.2898 -0.0270 -0.2764
  345ACTN    O1 3908   6.778   4.752   7.456  0.3774 -0.3918 -0.1212
  345ACTN    C1 3909   6.919   4.639   7.319  0.9078  0.1868  0.1486
  345ACTN    H1 3910   6.970   4.732   7.294  1.3623  0.4819  2.1447
  345ACTN    H2 3911   6.914   4.578   7.229 -0.2675 -0.2347  0.4933
  345ACTN    H3 3912   6.974   4.581   7.393 -0.0450 -0.3886  0.4153
  346ACTN    H6 3913   4.539   8.269   3.560  0.1380  0.7451 -0.8790
  346ACTN    C3 3914   4.543   8.190   3.484  0.1930  0.2244 -0.3359
  346ACTN    H4 3915   4.529   8.234   3.385 -0.7646  0.3981 -0.1317
  346ACTN    H5 3916   4.641   8.144   3.495 -0.6316 -1.4825 -0.0043
  346ACTN    C2 3917   4.437   8.082   3.501  0.5485 -0.6235 -0.0288
  346ACTN    O1 3918   4.425   8.006   3.416  0.1839 -0.1713  0.1961
  346ACTN    C1 3919   4.363   8.068   3.635 -0.0579 -1.4812 -0.5699
  346ACTN    H1 3920   4.385   7.973   3.683 -0.9007 -2.0957 -1.3848
  346ACTN    H2 3921   4.256   8.079   3.617  0.4266  1.1791 -2.1678
  346ACTN    H3 3922   4.400   8.150   3.697 -0.2418 -1.4816 -0.4622
  347ACTN    H6 3923   3.556   8.187   3.239  0.1961 -0.3306 -0.2064
  347ACTN    C3 3924   3.498   8.213   3.328 -0.2456 -0.9249 -0.3102
  347ACTN    H4 3925   3.541   8.149   3.405 -1.9788 -2.0678 -0.2760
  347ACTN    H5 3926   3.517   8.318   3.350  1.1985 -1.4528  1.1287
  347ACTN    C2 3927   3.345   8.180   3.325  0.1562 -0.4453  0.4947
  347ACTN    O1 3928   3.275   8.254   3.259  0.6290 -0.3393  0.5532
  347ACTN    C1 3929   3.295   8.049   3.390  1.0268 -0.1206 -1.0741
  347ACTN    H1 3930   3.285   8.081   3.493  1.6198 -0.6411 -0.8538
  347ACTN    H2 3931   3.369   7.969   3.381  2.1278  0.5735  1.5791
  347ACTN    H3 3932   3.197   8.026   3.348  0.4638 -0.5540  0.4447
  348ACTN    H6 3933   0.157   1.143   1.939 -0.4331  0.2711 -0.0082
  348ACTN    C3 3934   0.265   1.155   1.933 -0.2851 -1.0634 -0.0323
  348ACTN    H4 3935   0.294   1.199   1.838  0.9926 -0.7579  0.4918
  348ACTN    H5 3936   0.286   1.230   2.009 -0.0910 -0.4756 -0.6734
  348ACTN    C2 3937   0.349   1.039   1.974  0.1133 -0.2329  0.3053
  348ACTN    O1 3938   0.454   1.012   1.923 -0.0189 -0.1285 -0.0393
  348ACTN    C1 3939   0.298   0.951   2.081  0.0580 -0.1009  0.2872
  348ACTN    H1 3940   0.344   0.954   2.180 -1.0166  0.3180  0.7772
  348ACTN    H2 3941   0.311   0.846   2.054 -0.7331 -0.0993 -0.1213
  348ACTN    H3 3942   0.191   0.966   2.091 -0.4981 -2.7286 -1.2867
  349ACTN    H6 3943   7.890   8.334   5.024 -0.2387 -0.5493 -0.0400
  349ACTN    C3 3944   7.844   8.271   5.100 -0.2972 -0.2934  0.1391
  349ACTN    H4 3945   7.757   8.221   5.057 -1.8498  1.4780  1.1765
  349ACTN    H5 3946   7.817   8.334   5.184  0.6894  0.3708 -0.0439
  349ACTN    C2 3947   7.936   8.157   5.134  0.0403 -0.2036 -0.1398
  349ACTN    O1 3948   7.910   8.082   5.229  0.2973 -0.0911 -0.5581
  349ACTN    C1 3949   8.055   8.135   5.052 -0.2295 -0.4419  0.1811
  349ACTN    H1 3950   8.094   8.033   5.058 -2.3372 -1.2322  0.9608
  349ACTN    H2 3951   8.131   8.209   5.080 -0.9832  0.0136  1.0519
  349ACTN    H3 3952   8.035   8.149   4.946  3.8699  1.0055 -0.4999
  350ACTN    H6 3953   7.563   2.179   3.330  3.2359 -1.8427  0.2017
  350ACTN    C3 3954   7.626   2.259   3.291  0.7291  0.0106 -0.1472
  350ACTN    H4 3955   7.564   2.347   3.275 -0.6482 -1.1609 -1.4865
  350ACTN    H5 3956   7.701   2.286   3.365 -0.4424  0.4284  0.9002
  350ACTN    C2 3957   7.673   2.215   3.158  0.2084  0.2560  0.1690
  350ACTN    O1 3958   7.793   2.200   3.145  0.1988  0.2635 -0.3726
  350ACTN    C1 3959   7.563   2.155   3.069 -0.2334 -0.3818  0.0436
  350ACTN    H1 3960   7.474   2.136   3.129  1.1267 -0.9716  1.9335
  350ACTN    H2 3961   7.606   2.064   3.028  0.7766  0.1842 -0.1886
  350ACTN    H3 3962   7.539   2.226   2.989 -1.2844  0.1493  0.8177
  351ACTN    H6 3963   4.426   1.163   5.088 -1.1590  1.0311  0.9044
  351ACTN    C3 3964   4.524   1.199   5.119 -0.3040 -0.2899 -0.2310
  351ACTN    H4 3965   4.511   1.285   5.184  0.3536 -1.9734  2.1790
  351ACTN    H5 3966   4.581   1.133   5.184  0.9198 -0.7131 -1.6936
  351ACTN    C2 3967   4.600   1.246   4.994 -0.4578  0.7189  0.2625
  351ACTN    O1 3968   4.577   1.187   4.884  0.2548  0.3080 -0.1549
  351ACTN    C1 3969   4.696   1.358   5.029 -0.1357  0.9650  0.9543
  351ACTN    H1 3970   4.788   1.334   4.975 -1.3593  0.9567 -1.1680
  351ACTN    H2 3971   4.716   1.358   5.137  0.0940 -1.0169  0.9246
  351ACTN    H3 3972   4.662   1.458   5.001 -0.1459  0.5851 -0.4111
  352ACTN    H6 3973   6.856   6.523   7.180 -1.6260  0.2255  0.5629
  352ACTN    C3 3974   6.814   6.481   7.089 -0.0286 -0.0437 -0.0743
  352ACTN    H4 3975   6.706   6.474   7.101  0.0815 -1.2313  0.3399
  352ACTN    H5 3976   6.837   6.565   7.023  0.1873  0.0581  0.1278
  352ACTN    C2 3977   6.892   6.355   7.070  0.1891 -0.8450 -0.1962
  352ACTN    O1 3978   7.000   6.334   7.122 -0.3974  0.2083  0.3706
  352ACTN    C1 3979   6.846   6.256   6.973 -0.3905  0.1514  0.8502
  352ACTN    H1 3980   6.909   6.252   6.884 -0.5933 -0.2707  0.7217
  352ACTN    H2 3981   6.752   6.291   6.929 -0.6365 -0.9952  0.4366
  352ACTN    H3 3982   6.834   6.154   7.011 -0.4906 -0.8753 -1.7998
  353ACTN    H6 3983   8.004   6.949   6.574 -0.3410 -1.5240  2.4731
  353ACTN    C3 3984   7.997   7.049   6.617 -0.3956 -0.6077  0.4123
  353ACTN    H4 3985   8.076   7.107   6.570 -1.4059 -0.3534 -0.9999
  353ACTN    H5 3986   7.908   7.095   6.575 -0.8355  1.0548  3.0765
  353ACTN    C2 3987   8.006   7.044   6.764 -0.2099  0.3479  0.7693
  353ACTN    O1 3988   8.098   7.087   6.827 -0.8350 -0.2570 -0.4920
  353ACTN    C1 3989   7.907   6.971   6.846  0.3023  0.1240 -0.5716
  353ACTN    H1 3990   7.960   6.893   6.900  0.0894 -0.0107 -0.5554
  353ACTN    H2 3991   7.832   6.927   6.779 -1.1872  2.2168 -0.3181
  353ACTN    H3 3992   7.854   7.042   6.909 -1.1821 -0.4553 -1.1160
  354ACTN    H6 3993   4.218   3.519   5.718 -0.4865  0.6100 -0.3163
  354ACTN    C3 3994   4.188   3.455   5.635 -0.0119 -0.0058 -0.0172
  354ACTN    H4 3995   4.106   3.500   5.578  0.3264  1.7390  0.8333
  354ACTN    H5 3996   4.267   3.446   5.561 -0.5975  0.9436 -0.7674
  354ACTN    C2 3997   4.158   3.322   5.687  0.3147  0.7479 -0.0327
  354ACTN    O1 3998   4.073   3.258   5.622 -0.0331  0.1222 -0.0724
  354ACTN    C1 3999   4.213   3.256   5.804 -0.1328  0.2482  0.3639
  354ACTN    H1 4000   4.283   3.183   5.762 -2.5592 -1.3865 -0.9603
  354ACTN    H2 4001   4.144   3.190   5.857  0.0960  0.1190  0.5017
  354ACTN    H3 4002   4.261   3.327   5.872 -1.8431  1.8723 -0.0926
  355ACTN    H6 4003   5.495   0.690   7.542  1.1365  0.4291  0.9049
  355ACTN    C3 4004   5.447   0.710   7.638  0.2791  0.0921  0.5539
  355ACTN    H4 4005   5.523   0.748   7.706  3.3822 -2.3424 -1.3746
  355ACTN    H5 4006   5.364   0.780   7.630  0.1696 -0.1675 -0.8258
  355ACTN    C2 4007   5.400   0.578   7.694  0.0936  0.5265 -0.0117
  355ACTN    O1 4008   5.375   0.489   7.612 -0.2896 -0.0050  0.8670
  355ACTN    C1 4009   5.337   0.577   7.825  0.0311 -0.5439  0.2253
  355ACTN    H1 4010   5.229   0.594   7.825  0.4009  2.0138  0.5794
  355ACTN    H2 4011   5.351   0.483   7.878 -2.0772 -1.2170 -0.3330
  355ACTN    H3 4012   5.380   0.655   7.889  1.5659 -1.5267  0.4147
  356ACTN    H6 4013   7.641   6.509   4.193 -0.4956  0.2896  0.1419
  356ACTN    C3 4014   7.565   6.431   4.195 -0.5017  0.2898 -0.0594
  356ACTN    H4 4015   7.487   6.459   4.124 -0.0626 -1.4494 -1.2378
  356ACTN    H5 4016   7.606   6.336   4.163  0.4844  2.1209 -4.5210
  356ACTN    C2 4017   7.506   6.421   4.329  0.1992  0.1543 -0.4229
  356ACTN    O1 4018   7.547   6.482   4.425  0.0144  0.6629  0.8755
  356ACTN    C1 4019   7.388   6.321   4.345  0.7374 -0.2233 -0.4254
  356ACTN    H1 4020   7.298   6.381   4.332 -0.2093 -0.7789  2.8825
  356ACTN    H2 4021   7.383   6.281   4.447 -1.6479 -0.1909 -0.5065
  356ACTN    H3 4022   7.387   6.246   4.266  0.7375  1.0311 -1.6176
  357ACTN    H6 4023   2.461   5.847   0.187 -2.2466 -0.3933 -1.2571
  357ACTN    C3 4024   2.446   5.745   0.223  0.2546 -0.2467  0.3576
  357ACTN    H4 4025   2.355   5.746   0.283  0.8035  4.1375  1.2874
  357ACTN    H5 4026   2.425   5.685   0.135  1.4075  0.0810 -0.1357
  357ACTN    C2 4027   2.555   5.670   0.297  0.1862 -0.2092  0.2507
  357ACTN    O1 4028   2.649   5.618   0.237  0.8074 -0.2441  0.0514
  357ACTN    C1 4029   2.537   5.647   0.444 -1.2172 -0.4664  0.0729
  357ACTN    H1 4030   2.528   5.542   0.469 -1.9728 -0.6315 -0.8750
  357ACTN    H2 4031   2.450   5.699   0.484 -0.8046  0.1671  0.1510
  357ACTN    H3 4032   2.622   5.698   0.489 -1.4792  2.0211 -2.1148
  358ACTN    H6 4033   1.957   2.002   8.556  0.3816 -0.2919 -0.3525
  358ACTN    C3 4034   1.909   1.933   8.487 -0.2383  0.0816 -0.3007
  358ACTN    H4 4035   1.987   1.920   8.412  0.0445 -0.7046  0.1277
  358ACTN    H5 4036   1.902   1.841   8.544  2.8135  0.3875  0.7065
  358ACTN    C2 4037   1.789   1.996   8.417 -0.2800  0.7814 -0.4880
  358ACTN    O1 4038   1.805   2.029   8.303  0.2624  0.1565  0.3318
  358ACTN    C1 4039   1.659   2.037   8.494 -0.0483 -0.5821 -1.0052
  358ACTN    H1 4040   1.572   2.020   8.431 -1.6500  0.1970  0.9484
  358ACTN    H2 4041   1.665   2.143   8.517 -2.1310 -0.5208 -0.6451
  358ACTN    H3 4042   1.641   1.995   8.593 -2.5901  0.5176 -0.9621
  359ACTN    H6 4043   7.965   2.950   0.153  3.1843 -0.6971  2.0738
  359ACTN    C3 4044   7.998   3.054   0.156  0.0173  0.4484 -0.0355
  359ACTN    H4 4045   8.103   3.055   0.126 -0.1104  2.8049 -0.5238
  359ACTN    H5 4046   7.941   3.123   0.094  1.3219  2.2861  0.7551
  359ACTN    C2 4047   7.987   3.109   0.295  0.3661 -0.9817  0.5166
  359ACTN    O1 4048   8.042   3.052   0.385  0.0403  0.1458  0.3955
  359ACTN    C1 4049   7.894   3.231   0.320 -0.7628 -0.1548  0.3362
  359ACTN    H1 4050   7.792   3.197   0.307 -1.1152  1.5334 -1.4277
  359ACTN    H2 4051   7.907   3.317   0.255  1.4103  0.1538  1.1296
  359ACTN    H3 4052   7.901   3.255   0.427  0.3317  0.4101  0.1474
  360ACTN    H6 4053   8.331   8.091   1.391  0.0302 -0.9349  0.8653
  360ACTN    C3 4054   8.403   8.138   1.458  0.5329 -0.4895  0.0167
  360ACTN    H4 4055   8.385   8.246   1.453  0.4942 -0.4690  0.6209
  360ACTN    H5 4056   8.388   8.103   1.560  0.4270  0.1453  0.2274
  360ACTN    C2 4057   8.535   8.112   1.393  0.5221 -0.0178  0.8261
  360ACTN    O1 4058   8.604   8.023   1.438 -0.0004  0.3555 -0.0815
  360ACTN    C1 4059   8.561   8.181   1.255  0.5570 -0.2190  0.1274
  360ACTN    H1 4060   8.632   8.120   1.198 -0.4086 -0.4908 -0.7851
  360ACTN    H2 4061   8.599   8.283   1.261  3.3229 -1.2028  0.2935
  360ACTN    H3 4062   8.465   8.192   1.205  0.6976  2.3467  0.3605
  361ACTN    H6 4063   3.021   4.397   1.517  0.0699 -0.3195  0.7973
  361ACTN    C3 4064   3.089   4.470   1.472 -0.3156 -0.8100 -0.6156
  361ACTN    H4 4065   3.111   4.543   1.550  0.4995 -1.6735 -0.0165
  361ACTN    H5 4066   3.034   4.523   1.394  0.7354  0.5865 -0.4302
  361ACTN    C2 4067   3.203   4.405   1.406  0.4151  0.4495  0.0144
  361ACTN    O1 4068   3.209   4.285   1.404 -0.3469 -0.3494  0.1818
  361ACTN    C1 4069   3.296   4.487   1.327 -0.0773  0.8007  0.2987
  361ACTN    H1 4070   3.358   4.553   1.388  2.9002 -1.4845 -0.1330
  361ACTN    H2 4071   3.238   4.556   1.265 -0.2391 -1.2231 -1.8580
  361ACTN    H3 4072   3.353   4.420   1.263 -0.4806 -2.5678  3.3035
  362ACTN    H6 4073   6.495   1.885   0.917  0.7565  1.0026  0.0789
  362ACTN    C3 4074   6.499   1.905   0.810  0.4128 -0.0916 -0.1428
  362ACTN    H4 4075   6.602   1.921   0.779 -0.1683 -1.9430 -3.2781
  362ACTN    H5 4076   6.449   1.822   0.759 -0.6126 -0.3329  1.2274
  362ACTN    C2 4077   6.416   2.021   0.757 -0.2380 -0.4291  0.4925
  362ACTN    O1 4078   6.417   2.134   0.814  0.4975  0.0193 -0.4974
  362ACTN    C1 4079   6.333   2.004   0.634 -0.1384  1.2463  0.2401
  362ACTN    H1 4080   6.231   1.979   0.664  0.7224 -0.9722  1.4295
  362ACTN    H2 4081   6.377   1.930   0.568 -2.3897 -1.7031  1.9233
  362ACTN    H3 4082   6.334   2.099   0.582 -1.7796  0.7630 -0.6962
  363ACTN    H6 4083   3.368   0.319   5.920  1.3045 -0.8335 -0.0396
  363ACTN    C3 4084   3.386   0.301   5.814  0.0127  0.1060 -0.4334
  363ACTN    H4 4085   3.428   0.388   5.763  2.3395 -0.4565  0.4814
  363ACTN    H5 4086   3.450   0.213   5.819  1.1816  1.0706  2.0977
  363ACTN    C2 4087   3.257   0.258   5.748 -0.8579  0.3022 -0.1875
  363ACTN    O1 4088   3.257   0.205   5.641  0.2363  0.5668  0.3019
  363ACTN    C1 4089   3.127   0.262   5.815 -0.3267  0.2473 -0.0235
  363ACTN    H1 4090   3.152   0.210   5.908 -0.7170  0.9610  0.4833
  363ACTN    H2 4091   3.048   0.209   5.762 -1.1053  2.3007 -0.9501
  363ACTN    H3 4092   3.083   0.357   5.843 -0.6927 -0.5998  2.4264
  364ACTN    H6 4093   5.827   7.877   3.784 -0.0602  2.3282 -0.0962
  364ACTN    C3 4094   5.808   7.882   3.677 -0.4162  0.0332 -0.1690
  364ACTN    H4 4095   5.755   7.795   3.639  2.5627 -2.1923  0.5772
  364ACTN    H5 4096   5.908   7.898   3.636  0.3717 -1.9648  0.9235
  364ACTN    C2 4097   5.734   8.004   3.646 -0.2307 -0.1360  0.1637
  364ACTN    O1 4098   5.765   8.071   3.549 -0.6058 -0.0018 -0.2943
  364ACTN    C1 4099   5.599   8.023   3.701 -0.9253 -0.1797  0.5129
  364ACTN    H1 4100   5.600   7.982   3.802 -1.7178 -0.4312  0.4245
  364ACTN    H2 4101   5.539   7.952   3.644 -0.5612  0.0732 -0.1966
  364ACTN    H3 4102   5.562   8.126   3.707 -0.3313 -0.0525  2.1678
  365ACTN    H6 4103   6.598   0.492   0.503 -1.0705 -0.9998  0.6349
  365ACTN    C3 4104   6.611   0.482   0.611  0.3380  0.2465  0.6031
  365ACTN    H4 4105   6.548   0.564   0.646 -2.6166 -0.8583 -1.9032
  365ACTN    H5 4106   6.559   0.391   0.642 -1.1775  0.1104 -2.1341
  365ACTN    C2 4107   6.747   0.496   0.670  0.4306  0.5926 -0.2326
  365ACTN    O1 4108   6.812   0.400   0.701 -0.1138  0.1269 -0.0239
  365ACTN    C1 4109   6.801   0.632   0.700  0.1069 -0.5905  0.8113
  365ACTN    H1 4110   6.888   0.671   0.646 -0.4539  0.1960  0.4744
  365ACTN    H2 4111   6.827   0.629   0.805  1.1651 -0.4971  0.5599
  365ACTN    H3 4112   6.718   0.700   0.681 -2.0283 -2.5734  2.8734
  366ACTN    H6 4113   4.627   7.115   5.470  1.8206  0.7436  1.6991
  366ACTN    C3 4114   4.657   7.207   5.420 -0.2241  0.5161 -0.0131
  366ACTN    H4 4115   4.753   7.241   5.459  0.4911  0.3314 -1.5591
  366ACTN    H5 4116   4.664   7.196   5.311  1.1562  0.4402  0.0728
  366ACTN    C2 4117   4.561   7.319   5.457  0.5236  0.3066 -0.0060
  366ACTN    O1 4118   4.443   7.286   5.468 -0.0626  0.2827 -0.3475
  366ACTN    C1 4119   4.591   7.463   5.409  0.6361  0.1434  0.1659
  366ACTN    H1 4120   4.657   7.465   5.322  1.1656  2.4849  0.5760
  366ACTN    H2 4121   4.629   7.523   5.492 -2.1362  1.1557  0.7273
  366ACTN    H3 4122   4.497   7.504   5.374  0.0214 -0.8374  0.6555
  367ACTN    H6 4123   0.669   0.844   4.560  0.8649  1.4573 -0.0669
  367ACTN    C3 4124   0.654   0.863   4.666 -0.0825 -0.0426  0.0770
  367ACTN    H4 4125   0.748   0.850   4.719  0.7521  2.0133 -0.8673
  367ACTN    H5 4126   0.614   0.964   4.677 -1.2130 -0.4848  0.1147
  367ACTN    C2 4127   0.561   0.762   4.703 -0.2920 -0.1598  0.4369
  367ACTN    O1 4128   0.472   0.787   4.782 -0.0357 -0.2326  0.0386
  367ACTN    C1 4129   0.587   0.617   4.668  0.1410 -0.8495  0.1192
  367ACTN    H1 4130   0.683   0.602   4.619 -0.0775  0.4005 -0.7060
  367ACTN    H2 4131   0.510   0.588   4.597 -0.4407 -1.2920  0.9228
  367ACTN    H3 4132   0.586   0.558   4.760 -1.1506 -1.7397 -0.4548
  368ACTN    H6 4133   8.833   0.846   0.969 -1.4924  1.6133  0.6071
  368ACTN    C3 4134   8.904   0.900   0.906  0.1994  0.4989  1.5335
  368ACTN    H4 4135   9.001   0.852   0.919  0.3007 -0.2538 -1.6719
  368ACTN    H5 4136   8.886   0.878   0.801 -1.1268 -0.6932  1.9914
  368ACTN    C2 4137   8.912   1.053   0.915 -0.1772 -0.4344 -0.2953
  368ACTN    O1 4138   8.850   1.114   1.002 -0.3726  0.2813  0.2830
  368ACTN    C1 4139   8.982   1.140   0.821 -0.3378 -0.4674  0.6216
  368ACTN    H1 4140   9.028   1.089   0.736  1.0407 -0.5573  1.4116
  368ACTN    H2 4141   9.052   1.205   0.873 -1.3863  1.8818 -0.8461
  368ACTN    H3 4142   8.917   1.218   0.781 -0.3474 -1.5609 -1.5929
  369ACTN    H6 4143   5.522   3.476   4.054  0.1852  0.5115 -1.5478
  369ACTN    C3 4144   5.587   3.544   4.110 -0.6232  0.0958 -0.0783
  369ACTN    H4 4145   5.590   3.629   4.041 -2.9522 -0.3931 -0.8532
  369ACTN    H5 4146   5.547   3.567   4.209  0.6487  1.3218  0.1540
  369ACTN    C2 4147   5.727   3.495   4.127  0.0609 -0.0777 -0.0513
  369ACTN    O1 4148   5.747   3.380   4.107  0.0375  0.5537  0.1307
  369ACTN    C1 4149   5.830   3.577   4.200  0.3324  0.3394  1.3015
  369ACTN    H1 4150   5.819   3.588   4.307 -0.4136  0.2595  1.2334
  369ACTN    H2 4151   5.832   3.679   4.162  0.7192 -0.6330 -1.4423
  369ACTN    H3 4152   5.927   3.530   4.182 -0.2234 -1.1452  2.1048
  370ACTN    H6 4153   0.168   3.446   0.143 -1.8109 -1.7565  3.2801
  370ACTN    C3 4154   0.077   3.504   0.131 -0.6560 -0.5101 -0.1548
  370ACTN    H4 4155  -0.004   3.434   0.108 -1.1429 -0.5533  1.6076
  370ACTN    H5 4156   0.065   3.551   0.228  3.4680  0.5069 -0.0730
  370ACTN    C2 4157   0.087   3.614   0.024  0.3256  0.3255 -0.0291
  370ACTN    O1 4158   0.063   3.729   0.063  0.7159 -0.7682  0.0705
  370ACTN    C1 4159   0.147   3.587  -0.104 -0.0769 -0.7993 -0.1792
  370ACTN    H1 4160   0.094   3.643  -0.181  0.1441  0.7811  0.7951
  370ACTN    H2 4161   0.159   3.479  -0.114 -0.4053 -0.9045  0.4912
  370ACTN    H3 4162   0.245   3.633  -0.103 -0.2451 -0.4318 -0.4477
  371ACTN    H6 4163   6.973   8.664   4.397 -0.4547 -0.9798  2.0473
  371ACTN    C3 4164   7.001   8.755   4.451  0.0933 -0.0401  0.2224
  371ACTN    H4 4165   7.000   8.833   4.375 -0.1549 -1.4271 -1.2402
  371ACTN    H5 4166   6.933   8.771   4.535  0.0455 -0.1714  0.2095
  371ACTN    C2 4167   7.132   8.736   4.515 -0.2953  0.4491  0.6077
  371ACTN    O1 4168   7.211   8.658   4.459 -0.0210 -0.7191  0.1376
  371ACTN    C1 4169   7.159   8.774   4.658  0.4213  0.3307 -0.5086
  371ACTN    H1 4170   7.262   8.806   4.676  0.3746 -0.1789  0.7705
  371ACTN    H2 4171   7.150   8.684   4.719 -2.2042  0.7672 -0.2123
  371ACTN    H3 4172   7.090   8.851   4.693 -0.3181 -1.1071  1.2766
  372ACTN    H6 4173   3.892   7.563   5.083 -0.2622 -0.4166 -0.5891
  372ACTN    C3 4174   3.800   7.578   5.139  0.1120  0.4959 -0.2044
  372ACTN    H4 4175   3.722   7.610   5.070 -1.5795 -1.2424  0.8647
  372ACTN    H5 4176   3.770   7.481   5.179 -1.0825 -0.8306 -4.0529
  372ACTN    C2 4177   3.813   7.675   5.248  0.6137  0.4216  0.6321
  372ACTN    O1 4178   3.857   7.787   5.226  0.2213  0.2066  0.9598
  372ACTN    C1 4179   3.784   7.643   5.393 -0.4910 -0.0623  0.5720
  372ACTN    H1 4180   3.716   7.718   5.433 -0.6003  0.2501 -0.1877
  372ACTN    H2 4181   3.866   7.646   5.464  0.6791 -0.7486 -0.7214
  372ACTN    H3 4182   3.734   7.546   5.395  0.9001 -0.7763  1.1384
  373ACTN    H6 4183   7.543   2.465   2.791 -2.6996  2.3716  2.6849
  373ACTN    C3 4184   7.485   2.477   2.699  0.0705 -0.0249  0.5226
  373ACTN    H4 4185   7.382   2.504   2.720  0.2743 -0.2500  1.8793
  373ACTN    H5 4186   7.524   2.568   2.653 -1.8416  1.0681  1.0132
  373ACTN    C2 4187   7.497   2.349   2.613 -0.1623 -0.7806  0.5506
  373ACTN    O1 4188   7.604   2.308   2.563 -0.1209 -0.0742  0.5350
  373ACTN    C1 4189   7.371   2.276   2.581 -0.1995  0.0913 -0.0888
  373ACTN    H1 4190   7.297   2.345   2.539 -1.2232 -2.1305 -2.1138
  373ACTN    H2 4191   7.319   2.243   2.671 -2.7993  1.6008 -0.9597
  373ACTN    H3 4192   7.376   2.191   2.513 -2.8354 -2.1227  2.3684
  374ACTN    H6 4193   7.277   1.740   6.897 -1.1204  0.2940  3.7377
  374ACTN    C3 4194   7.177   1.712   6.863  0.1682 -0.4118  0.3112
  374ACTN    H4 4195   7.177   1.651   6.773 -0.9722  2.9790 -2.0964
  374ACTN    H5 4196   7.133   1.659   6.948 -3.0777 -1.1538 -1.7405
  374ACTN    C2 4197   7.093   1.833   6.831  0.6942  1.1235 -0.0731
  374ACTN    O1 4198   6.993   1.827   6.763  0.4732 -0.1867 -0.0410
  374ACTN    C1 4199   7.166   1.957   6.835 -0.3245 -0.7441  0.1580
  374ACTN    H1 4200   7.193   1.989   6.735  1.4539 -1.8160  0.2710
  374ACTN    H2 4201   7.252   1.956   6.902 -0.4846 -0.1687  0.3720
  374ACTN    H3 4202   7.108   2.040   6.876  1.2868  0.8820 -0.7798
  375ACTN    H6 4203   6.095   8.538   5.533  0.2290  0.3930  0.0493
  375ACTN    C3 4204   6.146   8.585   5.449 -0.3420 -0.2125 -0.6369
  375ACTN    H4 4205   6.087   8.565   5.359 -0.8178  0.5147 -0.4911
  375ACTN    H5 4206   6.152   8.693   5.465 -1.2355 -0.1093 -0.9902
  375ACTN    C2 4207   6.281   8.521   5.431 -0.6438  0.2626 -0.4358
  375ACTN    O1 4208   6.382   8.572   5.479  0.0041  0.7036  0.9196
  375ACTN    C1 4209   6.297   8.389   5.357  0.0565 -0.5641  0.1139
  375ACTN    H1 4210   6.402   8.384   5.327 -0.2549  0.1417 -1.0980
  375ACTN    H2 4211   6.234   8.388   5.269  0.8704 -1.4332 -0.4706
  375ACTN    H3 4212   6.266   8.303   5.417 -2.3137 -0.8031 -1.3909
  376ACTN    H6 4213   7.336   8.078   6.586  0.0075 -0.6874  0.9821
  376ACTN    C3 4214   7.341   7.998   6.512  0.5321 -0.3169  0.6182
  376ACTN    H4 4215   7.245   7.995   6.461  0.3122  1.5490  0.8929
  376ACTN    H5 4216   7.414   8.018   6.433  0.1886  0.4793  0.4978
  376ACTN    C2 4217   7.363   7.870   6.581 -0.2345 -1.0493  0.2652
  376ACTN    O1 4218   7.270   7.799   6.604  0.3613 -0.8250 -0.1211
  376ACTN    C1 4219   7.503   7.831   6.632  0.1196 -0.1341  0.1311
  376ACTN    H1 4220   7.501   7.767   6.720  0.8573  2.6590  2.2555
  376ACTN    H2 4221   7.552   7.924   6.659 -0.3061 -0.2193  1.2115
  376ACTN    H3 4222   7.557   7.783   6.550  0.4543 -0.0670  0.3165
  377ACTN    H6 4223   4.429   8.954   3.258  1.2899  0.8469 -2.1596
  377ACTN    C3 4224   4.418   8.860   3.204  1.4946 -0.2216 -0.3719
  377ACTN    H4 4225   4.317   8.863   3.163  2.2822  0.5122 -2.2611
  377ACTN    H5 4226   4.493   8.840   3.127  2.7817  1.1481  0.5030
  377ACTN    C2 4227   4.423   8.753   3.307  0.3842 -0.3351  0.0312
  377ACTN    O1 4228   4.500   8.659   3.296 -0.7892 -0.2548  0.3617
  377ACTN    C1 4229   4.320   8.739   3.418  0.3929 -0.4436 -0.1219
  377ACTN    H1 4230   4.317   8.837   3.465  0.7600 -1.1555  1.4169
  377ACTN    H2 4231   4.342   8.662   3.492  1.1002 -2.1344 -2.0532
  377ACTN    H3 4232   4.220   8.720   3.380  0.1717 -2.3276  1.3709
  378ACTN    H6 4233   1.596   7.512   0.180 -0.8287  0.4665 -1.1664
  378ACTN    C3 4234   1.550   7.414   0.181  0.9046 -0.3710 -0.5193
  378ACTN    H4 4235   1.448   7.423   0.143 -0.0635 -0.9036  1.8877
  378ACTN    H5 4236   1.596   7.352   0.103 -0.8932  0.0013 -1.9295
  378ACTN    C2 4237   1.550   7.344   0.315  0.2359  0.7032  0.3145
  378ACTN    O1 4238   1.656   7.325   0.372 -0.7337  0.2917 -0.5813
  378ACTN    C1 4239   1.427   7.298   0.386  0.0688  0.1874  0.2116
  378ACTN    H1 4240   1.369   7.237   0.318  1.2880  0.4778 -1.1274
  378ACTN    H2 4241   1.373   7.387   0.419  1.2760  0.1006  2.5613
  378ACTN    H3 4242   1.459   7.251   0.479  2.1602  1.6395  0.2667
  379ACTN    H6 4243   3.075   7.174   0.714  2.9703 -1.4449 -1.1652
  379ACTN    C3 4244   3.034   7.206   0.618 -0.4992 -0.0161  0.6970
  379ACTN    H4 4245   3.115   7.252   0.561 -0.0578 -0.8435  0.6505
  379ACTN    H5 4246   3.005   7.118   0.559  0.8476  1.4694 -2.2989
  379ACTN    C2 4247   2.921   7.306   0.635  0.2875  0.1070 -1.1470
  379ACTN    O1 4248   2.935   7.409   0.697 -0.1572 -0.2402  0.0159
  379ACTN    C1 4249   2.795   7.285   0.552  1.0087  0.4282  0.2366
  379ACTN    H1 4250   2.706   7.296   0.615  0.7794 -1.0179  0.1800
  379ACTN    H2 4251   2.796   7.184   0.512  0.7868  1.0425 -1.3703
  379ACTN    H3 4252   2.801   7.346   0.462  0.1560  0.4784  0.2053
  380ACTN    H6 4253   3.618   1.483   2.005 -1.0751 -0.0402 -0.8824
  380ACTN    C3 4254   3.544   1.510   2.081  0.7113  0.1885  0.8359
  380ACTN    H4 4255   3.566   1.614   2.105  0.6460  0.0989  1.2821
  380ACTN    H5 4256   3.445   1.495   2.038  1.0195 -0.5565  0.3863
  380ACTN    C2 4257   3.572   1.420   2.197 -0.1648  0.4104  0.0049
  380ACTN    O1 4258   3.672   1.437   2.267  0.4906 -0.8476  0.2114
  380ACTN    C1 4259   3.463   1.326   2.236 -0.7045 -0.0690  0.0774
  380ACTN    H1 4260   3.403   1.369   2.317  1.7234  0.6895  1.5287
  380ACTN    H2 4261   3.505   1.230   2.268  1.9151 -0.0048 -2.9223
  380ACTN    H3 4262   3.395   1.312   2.153  0.5294 -0.3803 -0.8943
  381ACTN    H6 4263   0.046   4.068   7.333  0.1264 -0.1805  0.2783
  381ACTN    C3 4264   0.104   4.094   7.421  0.2292 -0.2591  0.2344
  381ACTN    H4 4265   0.099   4.202   7.429  1.5017 -0.2423  0.9912
  381ACTN    H5 4266   0.052   4.059   7.511  0.6875 -0.0134  0.5991
  381ACTN    C2 4267   0.243   4.029   7.404 -0.3104 -0.3119 -0.6614
  381ACTN    O1 4268   0.288   3.970   7.501  0.3360  0.0737 -0.4481
  381ACTN    C1 4269   0.328   4.093   7.292  0.2004  0.7416 -0.9799
  381ACTN    H1 4270   0.263   4.079   7.205  0.7862 -1.5016 -1.0821
  381ACTN    H2 4271   0.425   4.045   7.285  0.0221  0.2300  0.0362
  381ACTN    H3 4272   0.342   4.200   7.303 -0.9039  0.6039  2.2408
  382ACTN    H6 4273   5.308   7.803   5.660  1.1797  0.3315  0.7406
  382ACTN    C3 4274   5.270   7.903   5.677 -0.5593  0.0037 -1.0509
  382ACTN    H4 4275   5.267   7.929   5.783  0.8402  0.9369 -1.2225
  382ACTN    H5 4276   5.339   7.976   5.634  1.5476 -1.0288  0.4601
  382ACTN    C2 4277   5.133   7.932   5.627  0.8297 -0.6344  0.4912
  382ACTN    O1 4278   5.080   7.849   5.554  0.3537  0.5174 -0.1780
  382ACTN    C1 4279   5.078   8.073   5.655 -0.0144  0.5154  0.0455
  382ACTN    H1 4280   4.996   8.084   5.726  0.2323 -0.6921  0.5266
  382ACTN    H2 4281   5.054   8.107   5.554  1.5909 -0.5976 -0.7432
  382ACTN    H3 4282   5.156   8.135   5.697 -1.1202  1.3111  0.9518
  383ACTN    H6 4283   8.785   1.523   3.907  1.0561  0.2235  1.9194
  383ACTN    C3 4284   8.889   1.525   3.873  0.3912 -0.1008 -0.2323
  383ACTN    H4 4285   8.943   1.454   3.935  0.2146  0.2272  0.3058
  383ACTN    H5 4286   8.900   1.489   3.771 -0.6064 -2.7930  0.5829
  383ACTN    C2 4287   8.932   1.668   3.903 -0.2654  0.3167  0.1031
  383ACTN    O1 4288   9.013   1.692   3.989  0.5379  0.0721 -0.2830
  383ACTN    C1 4289   8.863   1.780   3.842 -0.2178 -0.5625 -0.4165
  383ACTN    H1 4290   8.771   1.803   3.894  1.0742  0.2544  1.5845
  383ACTN    H2 4291   8.845   1.755   3.738 -0.4211 -0.6195 -0.3679
  383ACTN    H3 4292   8.922   1.872   3.838 -2.7255  1.1193  0.0926
  384ACTN    H6 4293   8.386   8.782   5.653  0.8650  1.2865 -2.7171
  384ACTN    C3 4294   8.281   8.810   5.663  0.5156 -0.5352 -0.8447
  384ACTN    H4 4295   8.278   8.919   5.660 -1.6244 -0.5240  1.0384
  384ACTN    H5 4296   8.232   8.762   5.578 -1.4254 -0.3617  0.1523
  384ACTN    C2 4297   8.214   8.758   5.779  0.1078  0.3780  0.5993
  384ACTN    O1 4298   8.232   8.802   5.892  0.5604  0.2165 -0.1399
  384ACTN    C1 4299   8.109   8.650   5.757 -0.9457 -0.2559  0.2480
  384ACTN    H1 4300   8.053   8.681   5.668 -0.2450  0.3451  0.0051
  384ACTN    H2 4301   8.042   8.625   5.838 -0.9937 -0.0960  0.2574
  384ACTN    H3 4302   8.159   8.555   5.738 -0.0582  0.3603 -0.6110
  385ACTN    H6 4303   5.199   7.941   3.613  1.1337 -1.4812  1.8123
  385ACTN    C3 4304   5.198   7.867   3.533  0.3318  0.2627  0.1638
  385ACTN    H4 4305   5.159   7.927   3.451  0.1879  0.2621  0.2300
  385ACTN    H5 4306   5.299   7.834   3.510  0.5332  0.9545  0.0395
  385ACTN    C2 4307   5.103   7.757   3.568 -0.1005  0.2586  0.7173
  385ACTN    O1 4308   4.997   7.777   3.627  0.3582  0.0439  0.6595
  385ACTN    C1 4309   5.154   7.613   3.567 -0.5448 -0.5367  0.0889
  385ACTN    H1 4310   5.149   7.577   3.465 -3.2510  0.5180 -0.1994
  385ACTN    H2 4311   5.090   7.551   3.631  0.0271 -0.4067  0.7966
  385ACTN    H3 4312   5.256   7.601   3.602 -0.5019 -2.8024 -0.7286
  386ACTN    H6 4313   0.332   3.139   1.551 -0.5293  0.0150  0.0142
  386ACTN    C3 4314   0.250   3.210   1.546 -0.1932  0.4023 -0.0170
  386ACTN    H4 4315   0.271   3.305   1.595  0.1538  0.7277 -0.7859
  386ACTN    H5 4316   0.235   3.236   1.441  1.1791  0.1364 -0.2824
  386ACTN    C2 4317   0.122   3.142   1.603 -0.8917 -0.2696 -0.2550
  386ACTN    O1 4318   0.126   3.105   1.723  0.0512 -0.3042 -0.1719
  386ACTN    C1 4319   0.008   3.099   1.516 -0.0243  0.2898 -0.4749
  386ACTN    H1 4320  -0.078   3.161   1.543  0.5968  0.3742  1.4416
  386ACTN    H2 4321  -0.025   3.001   1.549  0.0668  0.2638 -0.4589
  386ACTN    H3 4322   0.026   3.096   1.409  2.2200 -0.4481 -0.0985
  387ACTN    H6 4323   5.844   7.314   1.653 -2.9003  0.4614  0.6753
  387ACTN    C3 4324   5.810   7.381   1.574 -0.3992  0.5717 -0.3436
  387ACTN    H4 4325   5.773   7.319   1.492 -1.4853  1.3957 -0.4794
  387ACTN    H5 4326   5.716   7.422   1.610  0.2425  2.0342 -0.3116
  387ACTN    C2 4327   5.899   7.493   1.528 -1.1589 -0.7363  0.0756
  387ACTN    O1 4328   5.956   7.563   1.607 -0.2023 -0.4456  0.4273
  387ACTN    C1 4329   5.906   7.507   1.386 -0.2044 -0.7248 -0.0651
  387ACTN    H1 4330   5.975   7.436   1.340  0.6934 -0.0723  0.2890
  387ACTN    H2 4331   5.940   7.603   1.350 -0.7001  0.0225  1.4348
  387ACTN    H3 4332   5.808   7.489   1.341 -0.1716  1.3347 -0.9848
  388ACTN    H6 4333   2.100   1.176   7.038 -0.5576 -0.6411  1.0915
  388ACTN    C3 4334   2.145   1.276   7.045 -1.2300 -0.3381  1.0935
  388ACTN    H4 4335   2.243   1.287   6.998 -2.9447  1.3680 -2.2869
  388ACTN    H5 4336   2.147   1.300   7.151 -2.0809  1.2174  0.7764
  388ACTN    C2 4337   2.041   1.369   6.985  1.1241 -0.6242  0.3907
  388ACTN    O1 4338   1.930   1.378   7.039  0.1436  0.1092 -0.2624
  388ACTN    C1 4339   2.076   1.454   6.868  0.2371  0.6602 -0.1131
  388ACTN    H1 4340   1.998   1.476   6.795  0.1929 -2.3827 -1.0567
  388ACTN    H2 4341   2.157   1.411   6.810  0.2701 -0.1322  0.5193
  388ACTN    H3 4342   2.102   1.553   6.908 -0.2978 -0.1674  2.3525
  389ACTN    H6 4343   6.699   1.849   5.149 -0.0853 -1.3638  0.0793
  389ACTN    C3 4344   6.676   1.829   5.045  0.1798 -0.1149 -0.2354
  389ACTN    H4 4345   6.771   1.847   4.995 -0.0614  1.0918 -0.2560
  389ACTN    H5 4346   6.652   1.723   5.035 -1.5770  0.2375  0.1733
  389ACTN    C2 4347   6.567   1.925   4.997 -0.1035 -0.3186 -0.2398
  389ACTN    O1 4348   6.526   2.014   5.074 -0.1224 -0.0866  0.3755
  389ACTN    C1 4349   6.534   1.926   4.843 -0.4023 -0.7994  0.6211
  389ACTN    H1 4350   6.614   1.935   4.769 -1.0698  1.0771  0.1047
  389ACTN    H2 4351   6.476   2.018   4.834 -0.6728 -0.9843  0.4876
  389ACTN    H3 4352   6.466   1.847   4.815  0.0755 -0.6503 -0.9817
  390ACTN    H6 4353   5.126   1.290   4.927 -0.9703 -0.1702  1.2201
  390ACTN    C3 4354   5.081   1.377   4.879  0.0620 -0.3270 -0.0650
  390ACTN    H4 4355   5.119   1.371   4.777 -0.8150 -2.6827 -0.2741
  390ACTN    H5 4356   4.972   1.372   4.881 -0.0973  2.2334 -0.8126
  390ACTN    C2 4357   5.122   1.496   4.968 -0.5678  0.3493  0.1245
  390ACTN    O1 4358   5.198   1.580   4.925 -0.0723 -0.5457 -0.4274
  390ACTN    C1 4359   5.065   1.510   5.105 -0.4304 -0.3603  0.1559
  390ACTN    H1 4360   5.147   1.531   5.174 -0.3483 -2.0037  0.5908
  390ACTN    H2 4361   5.022   1.416   5.142 -2.0403 -0.0320 -0.8635
  390ACTN    H3 4362   4.989   1.587   5.116 -1.2639 -0.7555 -2.5311
  391ACTN    H6 4363   6.466   2.760   6.767 -0.6984 -0.7263  0.6401
  391ACTN    C3 4364   6.556   2.708   6.733  0.0298  0.9383 -0.0219
  391ACTN    H4 4365   6.568   2.620   6.796 -0.0487 -0.2923 -1.7100
  391ACTN    H5 4366   6.533   2.695   6.628  0.8906  0.4155 -0.1468
  391ACTN    C2 4367   6.667   2.798   6.740 -0.3127  0.1180 -0.1253
  391ACTN    O1 4368   6.718   2.810   6.851  0.2543 -0.8701  0.0412
  391ACTN    C1 4369   6.701   2.889   6.626 -0.7832  0.1565 -0.3726
  391ACTN    H1 4370   6.641   2.980   6.622 -2.0789 -0.6689 -0.2932
  391ACTN    H2 4371   6.688   2.833   6.533  0.4827 -0.7774 -0.0016
  391ACTN    H3 4372   6.809   2.902   6.621 -0.9642  2.6257  1.4407
  392ACTN    H6 4373   7.740   6.059   7.723  0.0037 -0.1927 -0.4010
  392ACTN    C3 4374   7.637   6.043   7.691 -0.0747  0.7075 -0.6032
  392ACTN    H4 4375   7.570   6.116   7.739  0.8409  0.1456  1.5962
  392ACTN    H5 4376   7.631   6.064   7.584  1.0559 -1.7910 -1.1853
  392ACTN    C2 4377   7.589   5.909   7.731 -0.2604  1.2649 -0.2417
  392ACTN    O1 4378   7.652   5.831   7.797 -0.5027 -0.1355 -0.3280
  392ACTN    C1 4379   7.479   5.862   7.647  0.1849 -1.2025 -0.1939
  392ACTN    H1 4380   7.401   5.937   7.634 -0.0618 -1.1251  1.6591
  392ACTN    H2 4381   7.429   5.772   7.683 -0.5238  0.1700  2.3600
  392ACTN    H3 4382   7.507   5.850   7.542 -2.3817  2.0101 -1.3422
  393ACTN    H6 4383   0.046   8.596   2.373 -1.3277  1.5575 -0.0704
  393ACTN    C3 4384  -0.022   8.616   2.290 -0.3180  0.5785 -1.1590
  393ACTN    H4 4385  -0.107   8.659   2.342 -1.1806 -2.1054 -0.3025
  393ACTN    H5 4386   0.022   8.684   2.217 -2.3708  1.2854 -1.7584
  393ACTN    C2 4387  -0.056   8.494   2.210 -0.3142  0.9591 -0.1872
  393ACTN    O1 4388  -0.165   8.495   2.152 -0.8136  0.2462  0.4017
  393ACTN    C1 4389  -0.010   8.353   2.254 -0.4982  0.3623  0.1937
  393ACTN    H1 4390  -0.087   8.280   2.279 -2.4239  3.0261  2.2543
  393ACTN    H2 4391   0.061   8.370   2.335 -0.2049  1.2859 -0.2498
  393ACTN    H3 4392   0.053   8.313   2.175  1.0871  2.8069  0.1862
  394ACTN    H6 4393   2.994   4.437   0.061  0.2409  0.6325  1.0000
  394ACTN    C3 4394   2.991   4.329   0.080  0.0734  0.3815 -0.3730
  394ACTN    H4 4395   3.001   4.307   0.187 -1.0436  1.8867  0.0643
  394ACTN    H5 4396   2.894   4.283   0.060 -0.4106  0.3885  1.7914
  394ACTN    C2 4397   3.102   4.262   0.000  0.0809  0.5709  0.0723
  394ACTN    O1 4398   3.181   4.185   0.062 -0.1799  0.1138 -0.1340
  394ACTN    C1 4399   3.094   4.293  -0.145 -0.0821  0.0895  0.1139
  394ACTN    H1 4400   3.194   4.295  -0.188 -0.8447 -3.0536 -1.9468
  394ACTN    H2 4401   3.042   4.387  -0.165  0.8767  1.0728  2.1167
  394ACTN    H3 4402   3.045   4.205  -0.188 -1.5580  1.6991 -1.5810
  395ACTN    H6 4403   6.606   7.598   4.443  0.3372  0.5949  0.5913
  395ACTN    C3 4404   6.708   7.565   4.462  0.0259 -0.2594  0.8110
  395ACTN    H4 4405   6.755   7.654   4.502  0.7634  0.6039 -1.8359
  395ACTN    H5 4406   6.696   7.491   4.541 -0.2489 -3.1787 -1.8724
  395ACTN    C2 4407   6.784   7.508   4.344  0.2044  0.2069  0.0590
  395ACTN    O1 4408   6.831   7.586   4.266  0.0912  0.6519 -0.2992
  395ACTN    C1 4409   6.757   7.370   4.305  0.4402 -0.7456  0.3015
  395ACTN    H1 4410   6.787   7.298   4.381 -1.9182 -1.7728  0.3117
  395ACTN    H2 4411   6.801   7.338   4.210 -2.5355 -0.4048 -1.2320
  395ACTN    H3 4412   6.650   7.353   4.291  0.5830 -2.7949  1.4199
  396ACTN    H6 4413   0.385   1.071   1.165 -3.8477 -0.5656 -2.3128
  396ACTN    C3 4414   0.430   1.045   1.069  0.4536 -0.0320 -0.5469
  396ACTN    H4 4415   0.478   1.133   1.026 -0.2402  1.2222  1.1403
  396ACTN    H5 4416   0.508   0.974   1.097  0.8857  0.7742  0.3223
  396ACTN    C2 4417   0.339   0.984   0.971  0.3457 -0.1027 -0.4945
  396ACTN    O1 4418   0.315   1.039   0.863  0.0824  0.3656 -0.2819
  396ACTN    C1 4419   0.238   0.889   1.029  0.2224  0.0742  0.2027
  396ACTN    H1 4420   0.280   0.820   1.102 -0.6626 -1.1662 -0.4451
  396ACTN    H2 4421   0.202   0.830   0.944 -1.0741  1.0839  0.0386
  396ACTN    H3 4422   0.155   0.947   1.068  1.5113  1.0307  1.5541
  397ACTN    H6 4423   2.498   8.001   0.321 -1.6146  0.1125  0.4922
  397ACTN    C3 4424   2.466   8.010   0.217 -0.1712  1.2751  0.1366
  397ACTN    H4 4425   2.367   7.969   0.201  0.1467  1.2061 -1.8749
  397ACTN    H5 4426   2.469   8.116   0.192  1.6481  1.2533  0.1489
  397ACTN    C2 4427   2.569   7.924   0.143  0.6363  0.0992  0.1728
  397ACTN    O1 4428   2.685   7.951   0.158 -0.3832  0.0150 -0.2864
  397ACTN    C1 4429   2.516   7.799   0.076  0.4038  0.2059  0.0905
  397ACTN    H1 4430   2.582   7.715   0.097  1.5934  1.0363 -0.2356
  397ACTN    H2 4431   2.507   7.825  -0.029 -0.3516  0.3909  0.1959
  397ACTN    H3 4432   2.423   7.774   0.126  1.2054 -0.8842  1.0654
  398ACTN    H6 4433   2.536   6.727   3.468  2.0882 -1.2070 -1.5935
  398ACTN    C3 4434   2.598   6.751   3.554  0.3992  0.2461 -0.7345
  398ACTN    H4 4435   2.548   6.801   3.636  0.7134 -1.6342  0.6541
  398ACTN    H5 4436   2.618   6.649   3.589 -1.2672 -0.0361 -0.6022
  398ACTN    C2 4437   2.719   6.830   3.521  0.8257 -0.6243 -0.4150
  398ACTN    O1 4438   2.831   6.780   3.503  0.5736  0.0264 -0.2236
  398ACTN    C1 4439   2.698   6.983   3.507  0.5851 -0.2762  0.0244
  398ACTN    H1 4440   2.664   7.012   3.407 -0.6539 -2.9577 -0.3845
  398ACTN    H2 4441   2.791   7.037   3.523  2.5186 -3.2555 -0.6703
  398ACTN    H3 4442   2.627   7.025   3.578  0.2818 -1.9442  0.7259
  399ACTN    H6 4443   4.247   0.854   0.868 -0.2074 -0.8820 -0.5086
  399ACTN    C3 4444   4.338   0.821   0.818  0.2564 -0.2524 -0.0935
  399ACTN    H4 4445   4.365   0.720   0.851  2.2270  0.6697  1.1776
  399ACTN    H5 4446   4.310   0.823   0.713  1.1971  0.5392 -0.3389
  399ACTN    C2 4447   4.462   0.914   0.817  0.1238  0.2194  0.1547
  399ACTN    O1 4448   4.455   1.013   0.744 -0.3348 -0.2012  0.2409
  399ACTN    C1 4449   4.586   0.861   0.871 -0.2165  0.5303  0.6270
  399ACTN    H1 4450   4.651   0.840   0.786 -0.3841 -0.4711  0.7378
  399ACTN    H2 4451   4.570   0.770   0.928  0.3231 -0.9193 -1.4704
  399ACTN    H3 4452   4.632   0.932   0.939 -1.8454  1.1148  1.1352
  400ACTN    H6 4453   7.664   1.628   3.472  1.5361 -2.8379 -0.7027
  400ACTN    C3 4454   7.751   1.692   3.459  0.1812 -0.7810  0.0751
  400ACTN    H4 4455   7.838   1.634   3.488  1.4236  1.7049  1.5600
  400ACTN    H5 4456   7.761   1.712   3.353  1.1333 -0.6754  0.1767
  400ACTN    C2 4457   7.741   1.819   3.538 -0.0550 -0.1155 -0.1869
  400ACTN    O1 4458   7.764   1.926   3.482  0.3303  0.6003 -0.4245
  400ACTN    C1 4459   7.681   1.821   3.672  0.5811 -0.0659  0.0046
  400ACTN    H1 4460   7.753   1.783   3.744  0.1061  0.8914  1.0106
  400ACTN    H2 4461   7.588   1.764   3.669 -0.6266  1.8700 -0.5984
  400ACTN    H3 4462   7.658   1.922   3.708 -0.8106 -0.2094 -0.4240
  401ACTN    H6 4463   5.332   1.782   4.069  3.2124  0.6775  0.4856
  401ACTN    C3 4464   5.358   1.688   4.119 -0.0826 -1.1258 -0.9981
  401ACTN    H4 4465   5.424   1.698   4.205  1.6434 -2.4689 -2.1244
  401ACTN    H5 4466   5.264   1.642   4.148  0.4991 -1.7567 -0.0770
  401ACTN    C2 4467   5.428   1.595   4.024  0.3231  0.5317 -0.0794
  401ACTN    O1 4468   5.420   1.472   4.036  0.3727 -0.4686 -0.3392
  401ACTN    C1 4469   5.507   1.646   3.904  0.7795 -0.4179 -0.1152
  401ACTN    H1 4470   5.558   1.740   3.920  1.1319 -0.8114  1.0861
  401ACTN    H2 4471   5.437   1.655   3.820  1.7133 -1.1792 -0.9837
  401ACTN    H3 4472   5.579   1.573   3.867  0.5500 -0.4936 -0.4199
  402ACTN    H6 4473   0.703   5.855   3.268 -0.3840  0.1781  0.0376
  402ACTN    C3 4474   0.737   5.753   3.285  0.2540  0.5079  0.7858
  402ACTN    H4 4475   0.829   5.713   3.243 -0.9630 -0.7193 -0.8223
  402ACTN    H5 4476   0.744   5.748   3.394  0.4136  0.8408  0.7912
  402ACTN    C2 4477   0.624   5.661   3.239 -0.0811  0.1284 -0.2989
  402ACTN    O1 4478   0.513   5.682   3.286 -0.8305 -0.1634  0.5537
  402ACTN    C1 4479   0.651   5.532   3.161  0.1814 -0.3274  0.2020
  402ACTN    H1 4480   0.707   5.555   3.070  1.7631  1.9979  1.6964
  402ACTN    H2 4481   0.559   5.480   3.134  0.3161 -0.3977 -0.1277
  402ACTN    H3 4482   0.709   5.466   3.224 -0.5005 -0.5160  0.6417
  403ACTN    H6 4483   7.480   1.516   1.702 -0.5720 -2.8364 -0.3346
  403ACTN    C3 4484   7.531   1.516   1.605  0.2740  0.2897  0.0491
  403ACTN    H4 4485   7.631   1.480   1.630 -0.1645 -0.6867  0.4261
  403ACTN    H5 4486   7.495   1.443   1.532 -0.3238  2.2626 -1.6622
  403ACTN    C2 4487   7.546   1.645   1.539  0.7025 -0.4491  0.3384
  403ACTN    O1 4488   7.444   1.714   1.516 -0.2652  0.1317  0.3292
  403ACTN    C1 4489   7.674   1.718   1.516  0.2479 -1.1147 -0.0724
  403ACTN    H1 4490   7.677   1.818   1.560  0.1156 -0.0489 -2.4324
  403ACTN    H2 4491   7.669   1.743   1.410  2.4458 -1.1233 -0.2071
  403ACTN    H3 4492   7.761   1.662   1.550  1.1117  0.8149  0.9669
  404ACTN    H6 4493   1.652   3.528   2.475  1.0794 -1.9333  0.9067
  404ACTN    C3 4494   1.728   3.606   2.471 -0.4991 -0.4187 -0.0332
  404ACTN    H4 4495   1.776   3.603   2.569 -0.4522 -0.0561 -0.0428
  404ACTN    H5 4496   1.799   3.572   2.396  0.4431  2.6573 -0.6129
  404ACTN    C2 4497   1.664   3.740   2.438  0.8435  1.0240 -0.1569
  404ACTN    O1 4498   1.551   3.765   2.471 -0.0761  0.4684 -0.0338
  404ACTN    C1 4499   1.725   3.841   2.351 -0.5945 -0.1103 -0.2046
  404ACTN    H1 4500   1.727   3.807   2.248 -0.4375 -2.1311  0.4469
  404ACTN    H2 4501   1.829   3.856   2.378 -0.1158  1.2401 -2.6398
  404ACTN    H3 4502   1.681   3.941   2.351  1.0683  0.7186 -4.4803
  405ACTN    H6 4503   0.327   3.152   2.945  1.1899 -0.3347  0.1591
  405ACTN    C3 4504   0.285   3.146   3.045  0.2930  0.4570 -0.1621
  405ACTN    H4 4505   0.277   3.247   3.085 -1.8378  1.4251 -2.9160
  405ACTN    H5 4506   0.184   3.106   3.046  0.0789  1.0091  0.6067
  405ACTN    C2 4507   0.370   3.073   3.141 -0.0494  0.1229 -0.1115
  405ACTN    O1 4508   0.488   3.060   3.114 -0.6606  0.3705 -0.5168
  405ACTN    C1 4509   0.306   2.992   3.254  0.4469 -0.4069 -0.2584
  405ACTN    H1 4510   0.277   3.050   3.341 -1.9665 -0.9767 -0.6342
  405ACTN    H2 4511   0.367   2.907   3.286  0.2429  0.7051  3.2219
  405ACTN    H3 4512   0.209   2.951   3.225 -0.4611 -1.1499  3.6160
  406ACTN    H6 4513   4.729   1.924   4.743 -0.5673 -0.4652 -3.4150
  406ACTN    C3 4514   4.806   1.848   4.733  0.1578 -0.3706  0.6691
  406ACTN    H4 4515   4.780   1.776   4.655  0.6512 -1.0778  1.1499
  406ACTN    H5 4516   4.898   1.897   4.703 -0.1776  0.2327  0.6240
  406ACTN    C2 4517   4.836   1.783   4.862  0.0141 -0.1173 -0.2279
  406ACTN    O1 4518   4.771   1.688   4.904  0.9026  0.0852 -0.3983
  406ACTN    C1 4519   4.931   1.846   4.958 -0.0582  0.0519  0.0842
  406ACTN    H1 4520   5.019   1.887   4.908  0.7343 -0.4448  1.0615
  406ACTN    H2 4521   4.968   1.768   5.025  2.1031 -0.1566 -1.2829
  406ACTN    H3 4522   4.894   1.926   5.022  3.4357  1.1736  0.8008
  407ACTN    H6 4523   0.813   6.719   5.144  2.3392 -1.7465  0.7273
  407ACTN    C3 4524   0.798   6.708   5.251 -0.5489  0.3231  0.5769
  407ACTN    H4 4525   0.691   6.707   5.274 -0.6526 -0.4660  0.0657
  407ACTN    H5 4526   0.844   6.612   5.271  0.3549  1.3071  3.4357
  407ACTN    C2 4527   0.867   6.825   5.323  0.2406 -0.4875  0.3719
  407ACTN    O1 4528   0.836   6.846   5.434 -0.0924 -0.9443  0.3430
  407ACTN    C1 4529   0.941   6.925   5.242 -0.5208 -0.5686  0.4485
  407ACTN    H1 4530   0.964   6.894   5.140 -0.2544 -0.0955  0.3623
  407ACTN    H2 4531   1.035   6.941   5.295 -0.8671  0.0730  0.8773
  407ACTN    H3 4532   0.887   7.019   5.233 -1.1383 -1.0064 -0.4341
  408ACTN    H6 4533   0.109   6.069   0.317  0.5728 -1.5129 -0.6400
  408ACTN    C3 4534   0.026   6.019   0.268 -0.6045 -0.3472  0.1464
  408ACTN    H4 4535  -0.057   6.015   0.338 -2.4022  0.8639 -1.8301
  408ACTN    H5 4536  -0.009   6.086   0.190  0.8339 -0.2300 -0.4009
  408ACTN    C2 4537   0.081   5.889   0.215 -0.4707 -0.6685  0.8733
  408ACTN    O1 4538   0.186   5.844   0.255 -0.0780 -0.2113 -0.1337
  408ACTN    C1 4539  -0.020   5.820   0.118 -0.1109  0.3895 -0.3056
  408ACTN    H1 4540  -0.022   5.872   0.023  1.6162 -0.3502 -0.7749
  408ACTN    H2 4541  -0.115   5.812   0.171  0.7581 -0.0187  1.2404
  408ACTN    H3 4542   0.016   5.719   0.098  0.6166  0.4781  0.5308
  409ACTN    H6 4543   8.697   0.794   6.504 -0.2090  0.2654 -0.4879
  409ACTN    C3 4544   8.660   0.706   6.556 -0.4054  0.8650  0.3958
  409ACTN    H4 4545   8.557   0.728   6.584 -0.6938  0.7779 -0.5659
  409ACTN    H5 4546   8.656   0.628   6.480  0.9179 -1.1501  2.3433
  409ACTN    C2 4547   8.738   0.653   6.678  0.1500 -0.5787  0.0723
  409ACTN    O1 4548   8.693   0.553   6.732  0.0777 -0.0437  0.3879
  409ACTN    C1 4549   8.861   0.717   6.721 -0.2823 -0.4986 -0.3599
  409ACTN    H1 4550   8.860   0.776   6.813  1.2307  0.5594 -1.0013
  409ACTN    H2 4551   8.896   0.786   6.644 -0.9508 -1.1224 -1.2296
  409ACTN    H3 4552   8.939   0.642   6.736  1.6418  1.4017 -0.6283
  410ACTN    H6 4553   8.471   2.848   5.429 -0.4026 -1.0543  1.8730
  410ACTN    C3 4554   8.552   2.780   5.455  0.5160 -0.5406  0.4261
  410ACTN    H4 4555   8.612   2.758   5.366 -0.3950  0.7985 -0.5282
  410ACTN    H5 4556   8.619   2.833   5.523  0.1560 -1.4891  1.5354
  410ACTN    C2 4557   8.506   2.656   5.513 -0.3853 -0.2896  0.1832
  410ACTN    O1 4558   8.491   2.562   5.435  0.0541 -0.2013 -0.0363
  410ACTN    C1 4559   8.462   2.652   5.653 -0.1868  0.0733 -1.0349
  410ACTN    H1 4560   8.511   2.578   5.716 -0.0187 -0.2942 -1.5987
  410ACTN    H2 4561   8.356   2.628   5.651  0.1509 -2.0190  2.1408
  410ACTN    H3 4562   8.479   2.750   5.698 -2.2365  0.1047 -0.2561
  411ACTN    H6 4563   6.783   0.511   7.082 -0.0943  0.6002 -0.5919
  411ACTN    C3 4564   6.874   0.507   7.022  0.2644  0.3955 -0.0333
  411ACTN    H4 4565   6.923   0.415   7.055 -0.7089  0.2757  1.0769
  411ACTN    H5 4566   6.838   0.492   6.921  0.3668  1.8695 -0.2957
  411ACTN    C2 4567   6.963   0.629   7.036  0.1428  0.6720  0.3003
  411ACTN    O1 4568   7.066   0.640   6.978 -0.0868 -0.2758 -0.2085
  411ACTN    C1 4569   6.932   0.735   7.134  0.7339  0.3121 -0.5404
  411ACTN    H1 4570   6.829   0.731   7.171  0.2002  0.7646 -1.9634
  411ACTN    H2 4571   6.947   0.835   7.092  2.8675  0.0514 -0.4526
  411ACTN    H3 4572   6.999   0.719   7.219 -1.9421 -1.4216  1.3343
  412ACTN    H6 4573   8.921   1.404   4.187 -0.6417 -0.5598  3.1299
  412ACTN    C3 4574   9.027   1.382   4.199 -0.2485 -0.5200  0.2537
  412ACTN    H4 4575   9.085   1.460   4.150 -1.0662 -1.3922 -2.1917
  412ACTN    H5 4576   9.058   1.379   4.304  0.2859 -1.7985  0.0664
  412ACTN    C2 4577   9.039   1.242   4.134  0.1881 -0.4229  0.0084
  412ACTN    O1 4578   8.969   1.152   4.178 -0.1448 -0.4438 -0.5465
  412ACTN    C1 4579   9.120   1.233   4.010 -0.6377  0.0495  0.1538
  412ACTN    H1 4580   9.220   1.197   4.034 -0.3987  1.6264  1.6170
  412ACTN    H2 4581   9.135   1.330   3.963 -0.7207 -0.9850 -2.0510
  412ACTN    H3 4582   9.082   1.165   3.933 -0.9153  0.9891 -0.5487
  413ACTN    H6 4583   1.756   6.736   7.201 -2.1779  0.9970 -0.0466
  413ACTN    C3 4584   1.797   6.835   7.181 -0.1627  0.1624 -0.1872
  413ACTN    H4 4585   1.905   6.833   7.171 -0.2793 -0.4279 -1.3898
  413ACTN    H5 4586   1.760   6.866   7.084 -1.9400 -0.9833  0.0942
  413ACTN    C2 4587   1.762   6.923   7.293 -0.0275 -0.5286 -0.7375
  413ACTN    O1 4588   1.847   6.957   7.377  0.6320 -0.2907  0.2638
  413ACTN    C1 4589   1.622   6.974   7.297  0.4289 -0.7242  0.3821
  413ACTN    H1 4590   1.547   6.936   7.229  0.1728  1.1390 -0.4179
  413ACTN    H2 4591   1.617   7.082   7.284  0.9945 -0.6044  1.0560
  413ACTN    H3 4592   1.596   6.953   7.401 -1.5356  1.8795  0.4673
  414ACTN    H6 4593   0.941   8.087   1.399 -2.4353  0.1739 -0.8551
  414ACTN    C3 4594   0.953   8.174   1.463  0.4757 -0.1757 -0.8490
  414ACTN    H4 4595   0.866   8.194   1.526  1.1888  1.9170 -0.4903
  414ACTN    H5 4596   1.038   8.157   1.529  0.0170 -0.6415 -0.3699
  414ACTN    C2 4597   0.985   8.303   1.392  0.6832  0.4750  0.4707
  414ACTN    O1 4598   0.967   8.310   1.268 -0.1889 -0.4383 -0.2574
  414ACTN    C1 4599   1.041   8.419   1.466 -0.3741  0.6513 -0.0465
  414ACTN    H1 4600   1.141   8.432   1.423 -0.1961 -2.2811 -0.5900
  414ACTN    H2 4601   1.043   8.407   1.574  0.1996  2.6645  0.1847
  414ACTN    H3 4602   0.980   8.505   1.439 -0.5139  0.1034 -1.5527
  415ACTN    H6 4603   4.164   6.185   6.656  0.4971 -0.1139 -0.3545
  415ACTN    C3 4604   4.064   6.215   6.625  0.3373 -0.2221  0.0502
  415ACTN    H4 4605   4.071   6.324   6.615 -1.1346 -0.0875  0.3373
  415ACTN    H5 4606   4.047   6.166   6.529 -3.4936 -2.1639  1.6168
  415ACTN    C2 4607   3.978   6.173   6.742 -0.3771 -0.3285 -0.9400
  415ACTN    O1 4608   3.971   6.054   6.757 -0.5799  0.3117 -0.0368
  415ACTN    C1 4609   3.919   6.268   6.842 -0.0444 -0.3318  0.2722
  415ACTN    H1 4610   3.951   6.367   6.810 -1.4707  0.6774  1.8606
  415ACTN    H2 4611   3.965   6.249   6.939 -0.6192 -0.5144  0.5129
  415ACTN    H3 4612   3.810   6.263   6.849  0.0197 -0.6541  1.0586
  416ACTN    H6 4613   3.176   3.083   5.107 -0.7582  1.5511  2.4853
  416ACTN    C3 4614   3.262   3.053   5.167  0.5358 -0.0637 -0.0761
  416ACTN    H4 4615   3.323   3.144   5.171 -0.1478  0.5299 -2.6093
  416ACTN    H5 4616   3.313   2.970   5.119  0.8636 -1.0975  1.9790
  416ACTN    C2 4617   3.226   3.001   5.300 -0.1437 -0.0482 -0.0015
  416ACTN    O1 4618   3.139   2.918   5.302 -0.2904  0.4645  0.8791
  416ACTN    C1 4619   3.303   3.045   5.419  0.2762 -0.2861  0.1654
  416ACTN    H1 4620   3.364   2.968   5.465  1.6587 -0.4637 -1.9145
  416ACTN    H2 4621   3.237   3.079   5.499  2.1700 -0.3109  1.7693
  416ACTN    H3 4622   3.381   3.119   5.403 -1.5155  1.4756 -0.7420
  417ACTN    H6 4623   8.935   1.767   7.595  0.4559  0.1293  0.5844
  417ACTN    C3 4624   8.856   1.823   7.545  0.1399 -0.4650  0.3998
  417ACTN    H4 4625   8.860   1.802   7.438 -0.8466  0.9083  0.0789
  417ACTN    H5 4626   8.753   1.802   7.571 -0.4366  1.1675 -0.4704
  417ACTN    C2 4627   8.876   1.968   7.562  0.2012 -0.6026  0.7765
  417ACTN    O1 4628   8.924   1.995   7.670  0.0112 -0.5940  0.4876
  417ACTN    C1 4629   8.795   2.059   7.484  0.7907 -1.0448  0.8664
  417ACTN    H1 4630   8.705   2.017   7.440  0.9733  0.9055 -1.5066
  417ACTN    H2 4631   8.852   2.105   7.403  2.4454  0.5810  2.8714
  417ACTN    H3 4632   8.761   2.136   7.553  0.0906  0.6728 -1.3121
  418ACTN    H6 4633   4.314   4.263   4.414 -1.8593 -0.9020  0.8677
  418ACTN    C3 4634   4.315   4.155   4.410  0.5290 -0.8798  0.3618
  418ACTN    H4 4635   4.254   4.133   4.323  1.8018  1.5695 -1.1926
  418ACTN    H5 4636   4.260   4.117   4.496  0.7948 -0.6272  0.6437
  418ACTN    C2 4637   4.449   4.098   4.397  0.5800  0.7642 -0.0688
  418ACTN    O1 4638   4.522   4.108   4.491 -0.1409  0.0174  0.0536
  418ACTN    C1 4639   4.499   4.047   4.269  0.9375  0.5183 -0.3258
  418ACTN    H1 4640   4.607   4.040   4.263  1.1919  2.4955  1.2909
  418ACTN    H2 4641   4.468   4.096   4.177  1.8048 -1.4424 -1.6805
  418ACTN    H3 4642   4.460   3.946   4.256  0.5435  0.7353 -0.8367
  419ACTN    H6 4643   0.797   7.211   1.112  0.2391  1.1605 -0.4177
  419ACTN    C3 4644   0.702   7.171   1.079  0.6450 -0.2601  0.0482
  419ACTN    H4 4645   0.634   7.257   1.078 -0.4103 -1.0852 -0.6514
  419ACTN    H5 4646   0.705   7.110   0.988 -5.5902 -2.4545  1.0373
  419ACTN    C2 4647   0.666   7.076   1.184 -0.7095 -0.3475 -0.1058
  419ACTN    O1 4648   0.571   7.103   1.256  0.2305 -0.4958  0.1286
  419ACTN    C1 4649   0.735   6.942   1.177 -0.5092 -1.1033  0.5245
  419ACTN    H1 4650   0.703   6.870   1.253  2.1118  0.0246  2.7589
  419ACTN    H2 4651   0.839   6.960   1.204 -0.4541 -1.6780  0.6982
  419ACTN    H3 4652   0.728   6.887   1.083 -1.3076 -0.0237 -0.0627
  420ACTN    H6 4653   8.524   0.711   3.980 -1.1489  1.3841 -0.5963
  420ACTN    C3 4654   8.430   0.677   4.023 -0.3754 -0.2362 -0.1672
  420ACTN    H4 4655   8.456   0.588   4.081  2.0582 -0.3533 -1.3554
  420ACTN    H5 4656   8.396   0.762   4.081 -0.8905  1.9385 -3.5299
  420ACTN    C2 4657   8.319   0.636   3.927  0.4066 -0.1795 -0.1086
  420ACTN    O1 4658   8.224   0.565   3.962 -0.3260 -0.0596 -0.3350
  420ACTN    C1 4659   8.293   0.706   3.803  0.1617  0.0294 -0.2583
  420ACTN    H1 4660   8.381   0.765   3.776 -2.0010  2.4745 -2.3364
  420ACTN    H2 4661   8.199   0.761   3.812 -1.9080 -3.3305 -0.5692
  420ACTN    H3 4662   8.278   0.631   3.725  2.5863 -0.8274  0.0646
  421ACTN    H6 4663   0.362   2.422   5.674  2.5767  0.8806 -0.4984
  421ACTN    C3 4664   0.329   2.525   5.677 -0.0771  0.0596 -0.4049
  421ACTN    H4 4665   0.369   2.562   5.772  0.4659 -1.6045  0.0254
  421ACTN    H5 4666   0.388   2.586   5.608 -0.6326  0.7412 -0.2841
  421ACTN    C2 4667   0.183   2.543   5.666 -0.6462 -0.0701  0.3237
  421ACTN    O1 4668   0.147   2.659   5.633  0.5732 -0.3990 -0.0022
  421ACTN    C1 4669   0.094   2.438   5.724  0.1307 -0.0687  0.1202
  421ACTN    H1 4670   0.053   2.380   5.641 -1.4288  0.2138  0.6738
  421ACTN    H2 4671   0.020   2.491   5.784 -1.0526  0.2671 -1.5894
  421ACTN    H3 4672   0.158   2.370   5.779 -1.3437 -1.4060  0.2095
  422ACTN    H6 4673   1.236   8.682   8.491  1.3861 -1.5067  1.8931
  422ACTN    C3 4674   1.326   8.708   8.436  0.2252  0.4598  0.8504
  422ACTN    H4 4675   1.400   8.628   8.432 -1.0927 -0.7589  0.3015
  422ACTN    H5 4676   1.306   8.745   8.336 -1.0626 -3.2140 -0.3401
  422ACTN    C2 4677   1.389   8.822   8.515  0.7790  0.1034 -0.1061
  422ACTN    O1 4678   1.349   8.935   8.513  0.2439 -0.5388  0.2634
  422ACTN    C1 4679   1.531   8.804   8.573  0.7225 -0.0116 -0.2332
  422ACTN    H1 4680   1.557   8.888   8.638 -2.2255 -0.9957  2.3594
  422ACTN    H2 4681   1.599   8.810   8.488  2.0859  2.4883  0.9638
  422ACTN    H3 4682   1.542   8.712   8.630 -0.7501 -0.5537 -0.7936
  423ACTN    H6 4683   4.881   5.664   0.471 -0.1794  1.1014  0.4598
  423ACTN    C3 4684   4.932   5.715   0.390 -0.3278  0.3556 -0.1024
  423ACTN    H4 4685   4.865   5.770   0.324 -0.0660 -0.2970 -0.9356
  423ACTN    H5 4686   4.997   5.782   0.445  0.8286  0.0108 -1.0192
  423ACTN    C2 4687   5.011   5.611   0.312  0.3852 -0.5900  0.3850
  423ACTN    O1 4688   5.124   5.636   0.274  0.4077  0.1160  0.1719
  423ACTN    C1 4689   4.944   5.485   0.273  0.2429  0.7540 -0.6321
  423ACTN    H1 4690   4.994   5.405   0.328 -0.9085  0.2784 -0.2753
  423ACTN    H2 4691   4.948   5.461   0.166 -2.4843 -3.2749  0.0551
  423ACTN    H3 4692   4.839   5.477   0.300  0.2834  2.3738  0.0469
  424ACTN    H6 4693   4.956   7.134   3.332  1.1731  1.4120 -0.8245
  424ACTN    C3 4694   4.929   7.239   3.326  0.5680  1.3152  0.0951
  424ACTN    H4 4695   4.906   7.260   3.430  2.9995  3.2477  0.3010
  424ACTN    H5 4696   5.018   7.295   3.296  1.9601 -1.2562 -0.6762
  424ACTN    C2 4697   4.806   7.257   3.239  0.2679  0.3045  0.1345
  424ACTN    O1 4698   4.816   7.318   3.133 -0.4040  0.1223  0.4246
  424ACTN    C1 4699   4.674   7.202   3.286 -0.3214 -0.3142  0.1233
  424ACTN    H1 4700   4.670   7.101   3.325 -1.5264 -1.0319 -1.8019
  424ACTN    H2 4701   4.598   7.201   3.208  0.8812 -2.7557 -1.0489
  424ACTN    H3 4702   4.637   7.269   3.364 -2.7208 -0.9849 -0.4081
  425ACTN    H6 4703   4.989   2.900   5.407  0.3570  2.3186 -0.9154
  425ACTN    C3 4704   4.963   2.934   5.507  0.2147 -0.8236  0.1726
  425ACTN    H4 4705   4.973   2.851   5.578 -0.4082 -2.6720 -1.8447
  425ACTN    H5 4706   5.036   3.009   5.538  0.2927 -0.0225 -1.8795
  425ACTN    C2 4707   4.831   2.991   5.505 -0.9546  0.2952  0.2937
  425ACTN    O1 4708   4.735   2.927   5.480 -0.0405 -0.1299  0.0325
  425ACTN    C1 4709   4.825   3.140   5.514  0.6581 -0.2118  0.2062
  425ACTN    H1 4710   4.780   3.168   5.610  0.1976  1.0207 -0.3552
  425ACTN    H2 4711   4.761   3.191   5.442  0.4652 -1.1046 -0.2655
  425ACTN    H3 4712   4.923   3.186   5.504  1.0964 -1.3172 -0.6006
  426ACTN    H6 4713   4.705   0.940   4.345  1.3306  0.5265 -1.1849
  426ACTN    C3 4714   4.769   0.889   4.417  0.0522 -0.0508 -0.4434
  426ACTN    H4 4715   4.726   0.792   4.440 -1.1059  0.7762  1.0465
  426ACTN    H5 4716   4.871   0.877   4.380  0.2459 -0.2686  0.1585
  426ACTN    C2 4717   4.758   0.973   4.544  0.4966 -0.1565 -0.0982
  426ACTN    O1 4718   4.747   0.909   4.649 -0.0857  0.1145 -0.4367
  426ACTN    C1 4719   4.783   1.116   4.539 -1.0141  0.5684 -0.1043
  426ACTN    H1 4720   4.861   1.142   4.611  0.7311  0.4584 -1.9324
  426ACTN    H2 4721   4.691   1.169   4.564  0.3573  1.8604  2.4306
  426ACTN    H3 4722   4.830   1.147   4.446  0.0620  2.3625  1.0124
  427ACTN    H6 4723   6.161   6.733   2.103  1.2016  2.4146  0.1906
  427ACTN    C3 4724   6.219   6.671   2.172 -0.7248  0.5368  0.1817
  427ACTN    H4 4725   6.321   6.708   2.161 -0.7276  0.4639 -0.0855
  427ACTN    H5 4726   6.217   6.566   2.142  0.7640  0.3612  0.6456
  427ACTN    C2 4727   6.167   6.690   2.309 -0.2046  0.1940  0.1138
  427ACTN    O1 4728   6.229   6.644   2.408  0.0321  0.8523  0.9990
  427ACTN    C1 4729   6.053   6.772   2.333 -0.9832  0.4901  0.0881
  427ACTN    H1 4730   5.966   6.722   2.290 -1.0514  0.9810 -0.3639
  427ACTN    H2 4731   6.056   6.870   2.285  1.6365  0.8038  0.8100
  427ACTN    H3 4732   6.039   6.789   2.439 -3.2249 -2.2333  0.2726
  428ACTN    H6 4733   0.185   3.841   3.274 -2.1937 -2.1557 -0.3022
  428ACTN    C3 4734   0.161   3.875   3.174 -0.0287 -0.0581 -0.1535
  428ACTN    H4 4735   0.053   3.890   3.181  0.2867  1.3980  1.8842
  428ACTN    H5 4736   0.207   3.973   3.160  0.1741  0.2339  2.3266
  428ACTN    C2 4737   0.195   3.766   3.071  0.1289 -0.8712 -0.7787
  428ACTN    O1 4738   0.252   3.666   3.115 -0.2211 -0.1584 -0.5352
  428ACTN    C1 4739   0.154   3.778   2.927 -0.9058 -0.0189 -0.7161
  428ACTN    H1 4740   0.225   3.715   2.873 -2.6001 -0.6903 -2.1941
  428ACTN    H2 4741   0.175   3.879   2.893 -2.1032  0.2404 -0.6967
  428ACTN    H3 4742   0.051   3.743   2.922 -0.3840 -1.5013 -1.4115
  429ACTN    H6 4743   1.280   0.599   4.034 -1.8007 -0.4009  0.0158
  429ACTN    C3 4744   1.268   0.701   3.996 -0.2922 -0.2452 -0.0677
  429ACTN    H4 4745   1.305   0.771   4.072 -0.6637 -0.1883  0.0615
  429ACTN    H5 4746   1.337   0.706   3.912 -0.6008  2.3689 -0.2118
  429ACTN    C2 4747   1.130   0.740   3.955 -0.3677 -0.1790  0.7078
  429ACTN    O1 4748   1.032   0.682   4.006  0.1118 -0.1929 -0.3448
  429ACTN    C1 4749   1.101   0.868   3.882 -0.8617  0.1478  0.0732
  429ACTN    H1 4750   1.191   0.929   3.867 -0.2396 -1.1446 -1.6580
  429ACTN    H2 4751   1.042   0.929   3.950  0.2149  1.9581 -0.5744
  429ACTN    H3 4752   1.056   0.840   3.787 -0.5569  0.9214 -0.3058
  430ACTN    H6 4753   5.879   5.254   4.370 -0.0999  1.2889 -1.0460
  430ACTN    C3 4754   5.773   5.230   4.358  0.2449 -0.9065  0.1197
  430ACTN    H4 4755   5.720   5.322   4.379 -3.0512 -1.5775 -4.4827
  430ACTN    H5 4756   5.761   5.207   4.252  1.4705 -0.4293 -0.1333
  430ACTN    C2 4757   5.731   5.112   4.436  0.3985  0.5647  0.5744
  430ACTN    O1 4758   5.619   5.112   4.486  0.1110  0.6754 -0.1663
  430ACTN    C1 4759   5.798   4.976   4.418  0.4703 -0.1410  0.2413
  430ACTN    H1 4760   5.889   4.997   4.362 -0.8543  2.2727 -1.0518
  430ACTN    H2 4761   5.731   4.909   4.365  1.3283  0.5405 -1.7578
  430ACTN    H3 4762   5.815   4.916   4.508 -1.3823 -3.0537 -1.2847
  431ACTN    H6 4763   6.943   7.996   5.304  0.5381  0.4086  0.0805
  431ACTN    C3 4764   6.944   7.928   5.219  0.2923  0.0406  0.3708
  431ACTN    H4 4765   6.960   7.978   5.123  2.9274 -1.3491  0.0376
  431ACTN    H5 4766   7.036   7.869   5.216 -0.5997 -1.3641 -4.9762
  431ACTN    C2 4767   6.814   7.856   5.235 -1.1761 -0.0001 -0.6073
  431ACTN    O1 4768   6.706   7.903   5.209 -0.6489 -0.2648  0.4775
  431ACTN    C1 4769   6.814   7.746   5.328  0.2714  0.1057  0.1744
  431ACTN    H1 4770   6.802   7.786   5.428  1.8572  1.6008 -0.2013
  431ACTN    H2 4771   6.904   7.685   5.317 -0.6390 -1.8429  3.1351
  431ACTN    H3 4772   6.728   7.681   5.312  2.5417 -2.8871 -0.4710
  432ACTN    H6 4773   1.902   7.124   7.602  0.1294  2.2882 -2.2511
  432ACTN    C3 4774   1.865   7.199   7.672  0.5839  0.4695  0.0075
  432ACTN    H4 4775   1.771   7.167   7.716  1.3781 -0.6804  0.9100
  432ACTN    H5 4776   1.850   7.286   7.609  1.2875 -1.5154 -3.0477
  432ACTN    C2 4777   1.965   7.229   7.782 -0.4907 -0.5945 -0.4368
  432ACTN    O1 4778   1.971   7.339   7.832 -0.4312 -0.2128  0.4340
  432ACTN    C1 4779   2.084   7.134   7.788 -0.4084  0.0875  0.2750
  432ACTN    H1 4780   2.141   7.143   7.695 -2.2970  0.2238 -0.9119
  432ACTN    H2 4781   2.046   7.033   7.801 -1.3966  0.5495  1.0880
  432ACTN    H3 4782   2.161   7.163   7.859  0.1868 -5.4440  2.0839
  433ACTN    H6 4783   7.342   8.848   2.250  1.5626  2.9001 -0.9487
  433ACTN    C3 4784   7.268   8.902   2.307 -0.1039 -0.2998  0.0298
  433ACTN    H4 4785   7.315   8.998   2.329  0.9001 -0.7833 -0.0199
  433ACTN    H5 4786   7.176   8.922   2.251 -0.7364  1.4038  1.5993
  433ACTN    C2 4787   7.244   8.826   2.434  0.5606  0.2657 -0.6345
  433ACTN    O1 4788   7.237   8.886   2.539  0.0411  0.1764  0.0422
  433ACTN    C1 4789   7.218   8.678   2.427 -0.0895 -0.3823  0.5583
  433ACTN    H1 4790   7.169   8.657   2.332 -1.6958 -0.8792  1.4785
  433ACTN    H2 4791   7.151   8.643   2.505 -0.1353  1.5613  1.4246
  433ACTN    H3 4792   7.308   8.618   2.434 -1.0014 -1.5392  2.8210
  434ACTN    H6 4793   4.034   7.384   6.469  1.8547  1.8460  0.3305
  434ACTN    C3 4794   3.961   7.440   6.527 -0.2435 -0.7912  0.3448
  434ACTN    H4 4795   3.989   7.541   6.497  1.8058 -1.2652  0.5487
  434ACTN    H5 4796   3.857   7.419   6.501 -0.8396  0.3207  1.7339
  434ACTN    C2 4797   3.969   7.408   6.667  0.0157 -0.2031  0.5893
  434ACTN    O1 4798   3.981   7.287   6.684  0.7907 -0.6472 -0.3922
  434ACTN    C1 4799   4.029   7.506   6.767 -0.0223  0.0538 -0.6140
  434ACTN    H1 4800   3.962   7.592   6.767 -0.5973 -0.3748 -1.4257
  434ACTN    H2 4801   4.126   7.546   6.738 -1.1540  3.6076  0.1793
  434ACTN    H3 4802   4.034   7.461   6.865  1.9850  1.8259  0.1360
  435ACTN    H6 4803   7.819   8.434   1.690  0.3728  1.3339 -1.2238
  435ACTN    C3 4804   7.827   8.339   1.635  0.5465  0.3010  0.5583
  435ACTN    H4 4805   7.782   8.262   1.697 -1.7482 -1.1606 -2.8417
  435ACTN    H5 4806   7.762   8.356   1.550  0.6708  2.7351  0.8871
  435ACTN    C2 4807   7.970   8.301   1.607 -0.2926 -0.1145 -0.6161
  435ACTN    O1 4808   7.999   8.185   1.589  0.5708  0.3111  0.2094
  435ACTN    C1 4809   8.067   8.403   1.566  0.1824 -0.4954 -0.9751
  435ACTN    H1 4810   8.102   8.387   1.464 -0.7719 -0.0874 -1.3798
  435ACTN    H2 4811   8.158   8.395   1.625 -0.8423 -2.7762  0.3552
  435ACTN    H3 4812   8.021   8.502   1.573 -2.0465 -1.5075 -0.8668
  436ACTN    H6 4813   2.539   0.570   6.119 -0.7851  1.2110 -1.5576
  436ACTN    C3 4814   2.457   0.498   6.115  0.1574 -0.0012  0.3058
  436ACTN    H4 4815   2.402   0.521   6.024 -3.8862 -1.2642  2.2957
  436ACTN    H5 4816   2.495   0.397   6.097 -0.4447 -0.5006  1.7809
  436ACTN    C2 4817   2.367   0.511   6.236 -0.6343  0.8545 -0.0681
  436ACTN    O1 4818   2.383   0.606   6.313 -0.3310  0.1873  0.8808
  436ACTN    C1 4819   2.280   0.392   6.283 -0.1111  0.5125 -0.7223
  436ACTN    H1 4820   2.296   0.366   6.387  1.3039  1.5288 -0.6667
  436ACTN    H2 4821   2.302   0.303   6.224 -1.0662 -1.6380  2.0513
  436ACTN    H3 4822   2.176   0.420   6.270  0.2320  1.0257 -2.5136
  437ACTN    H6 4823   0.115   3.272   7.772 -0.8502  1.1434 -0.6716
  437ACTN    C3 4824   0.038   3.323   7.830 -0.1792  0.6943  0.6280
  437ACTN    H4 4825  -0.008   3.401   7.769 -0.2688  1.7928  2.0595
  437ACTN    H5 4826  -0.039   3.252   7.858  1.8538 -1.9491 -0.2714
  437ACTN    C2 4827   0.087   3.379   7.963  0.2619  0.7759 -0.1665
  437ACTN    O1 4828   0.010   3.438   8.033  0.2402  0.2096 -0.1453
  437ACTN    C1 4829   0.237   3.353   8.004  0.3649  0.6670 -0.1126
  437ACTN    H1 4830   0.273   3.442   8.054 -1.6671  0.1219  2.4911
  437ACTN    H2 4831   0.295   3.335   7.914  0.8126 -0.2808  0.3559
  437ACTN    H3 4832   0.244   3.268   8.072  0.5887  0.2651 -0.6372
  438ACTN    H6 4833   0.557   5.047   1.851 -0.2557 -0.4253  1.2427
  438ACTN    C3 4834   0.657   5.010   1.827 -0.2789 -0.1145  0.6584
  438ACTN    H4 4835   0.730   5.076   1.874  1.1234 -0.7731 -0.5688
  438ACTN    H5 4836   0.668   4.913   1.876  1.2106 -0.4067 -0.2287
  438ACTN    C2 4837   0.691   4.997   1.677 -0.3206  0.3438  0.7908
  438ACTN    O1 4838   0.690   4.882   1.625  0.0683 -0.0445  0.1805
  438ACTN    C1 4839   0.719   5.126   1.593  0.1274  0.1082  0.6821
  438ACTN    H1 4840   0.744   5.096   1.491  0.7053 -3.4795  1.8007
  438ACTN    H2 4841   0.803   5.188   1.624  1.4972 -0.7154 -1.2533
  438ACTN    H3 4842   0.624   5.179   1.591  0.1957  0.1693 -1.6049
  439ACTN    H6 4843   0.648   1.388   4.135  1.6331  0.8205 -0.8103
  439ACTN    C3 4844   0.712   1.365   4.221  0.2541  0.0463  0.0328
  439ACTN    H4 4845   0.812   1.395   4.190  0.0352  0.7306 -0.0202
  439ACTN    H5 4846   0.685   1.415   4.314 -0.1029  0.0620 -0.0804
  439ACTN    C2 4847   0.709   1.221   4.250  0.1962  0.0587  0.5927
  439ACTN    O1 4848   0.617   1.149   4.206 -0.3863  0.5495 -0.0134
  439ACTN    C1 4849   0.802   1.162   4.350 -0.3223  0.5019 -0.3890
  439ACTN    H1 4850   0.767   1.183   4.451 -2.5710 -0.1425 -0.9934
  439ACTN    H2 4851   0.905   1.197   4.352 -0.7472  1.7713 -0.4268
  439ACTN    H3 4852   0.797   1.053   4.351  0.1989  0.4708 -1.0253
  440ACTN    H6 4853   8.910   0.523   6.108 -0.1684 -0.4153 -1.6766
  440ACTN    C3 4854   8.939   0.421   6.131  0.1094  0.0561  0.1212
  440ACTN    H4 4855   8.856   0.351   6.126 -1.5150  1.8032  1.7953
  440ACTN    H5 4856   9.012   0.395   6.055  0.4220  1.2528  0.0002
  440ACTN    C2 4857   8.990   0.428   6.267 -0.6268  0.6388 -0.3468
  440ACTN    O1 4858   8.917   0.402   6.361 -0.0311 -0.2404 -0.7818
  440ACTN    C1 4859   9.138   0.464   6.272  0.2421  0.1558 -0.1553
  440ACTN    H1 4860   9.148   0.570   6.250 -1.2434  0.0524 -1.3667
  440ACTN    H2 4861   9.193   0.417   6.190  2.7701 -0.9330  2.0885
  440ACTN    H3 4862   9.185   0.451   6.370 -1.0490 -0.9170  0.3361
  441ACTN    H6 4863   7.304   7.683   6.054  1.5657 -0.0163  0.2263
  441ACTN    C3 4864   7.226   7.744   6.009  0.4248 -0.6916  1.2416
  441ACTN    H4 4865   7.267   7.843   5.989 -1.5021 -0.2394 -0.5856
  441ACTN    H5 4866   7.211   7.691   5.914  0.8112  2.0968 -0.4422
  441ACTN    C2 4867   7.102   7.750   6.081  0.6742  0.1957  0.4736
  441ACTN    O1 4868   6.992   7.774   6.030 -0.2464 -0.0473  0.3109
  441ACTN    C1 4869   7.109   7.718   6.232  0.4654 -0.4346  0.1476
  441ACTN    H1 4870   7.106   7.808   6.293  1.5601 -0.8962  0.9001
  441ACTN    H2 4871   7.202   7.665   6.255 -0.9296 -1.6528  3.2055
  441ACTN    H3 4872   7.028   7.652   6.263  0.9285 -1.2111 -0.2866
  442ACTN    H6 4873   0.471   0.957   7.983  0.9452  0.8033  0.1545
  442ACTN    C3 4874   0.530   0.870   7.954 -0.3895 -0.0569 -0.0520
  442ACTN    H4 4875   0.629   0.872   8.000 -0.0121  2.4044 -0.8669
  442ACTN    H5 4876   0.482   0.780   7.990 -0.1762  0.6432  2.0602
  442ACTN    C2 4877   0.550   0.849   7.810 -0.6394 -0.8402 -0.0828
  442ACTN    O1 4878   0.602   0.747   7.768  0.5867 -0.3361  0.5384
  442ACTN    C1 4879   0.536   0.966   7.721  1.1687 -0.3618 -0.2113
  442ACTN    H1 4880   0.435   1.000   7.743  0.5441 -1.5665 -1.1905
  442ACTN    H2 4881   0.542   0.951   7.614 -0.8049  2.7262 -0.8105
  442ACTN    H3 4882   0.604   1.044   7.758 -0.2801  1.1121 -0.5847
  443ACTN    H6 4883   8.361   0.476   4.310  1.1538 -1.9778 -0.5341
  443ACTN    C3 4884   8.256   0.449   4.321  0.7820 -0.3938 -0.0732
  443ACTN    H4 4885   8.215   0.433   4.221 -2.0202 -0.7382  1.0933
  443ACTN    H5 4886   8.254   0.355   4.375  0.1208 -0.2901  0.0822
  443ACTN    C2 4887   8.169   0.550   4.392  0.3882  0.2721  0.3699
  443ACTN    O1 4888   8.109   0.526   4.500 -0.5516  0.1067  0.7093
  443ACTN    C1 4889   8.142   0.670   4.312  0.2437  0.6117  0.6655
  443ACTN    H1 4890   8.141   0.648   4.205  1.8827 -1.5337  1.0746
  443ACTN    H2 4891   8.226   0.739   4.321  3.6120 -3.0920 -1.2405
  443ACTN    H3 4892   8.053   0.727   4.339 -1.0517  0.7328 -3.4114
  444ACTN    H6 4893   0.186   8.284   3.654 -1.3060  1.0133  0.3932
  444ACTN    C3 4894   0.127   8.286   3.563 -0.3094  0.9709 -0.2664
  444ACTN    H4 4895   0.203   8.307   3.488 -0.3776  2.8087  0.1522
  444ACTN    H5 4896   0.086   8.186   3.549  0.5080  0.2721  2.1161
  444ACTN    C2 4897   0.009   8.379   3.567  0.0915 -1.5413  0.1983
  444ACTN    O1 4898   0.007   8.493   3.514 -0.3432  1.0094 -0.9559
  444ACTN    C1 4899  -0.124   8.328   3.630 -1.0255  0.3556  0.0200
  444ACTN    H1 4900  -0.168   8.398   3.701 -2.8139 -0.6216 -0.1105
  444ACTN    H2 4901  -0.097   8.251   3.702 -0.2939  0.0488 -0.5804
  444ACTN    H3 4902  -0.198   8.295   3.557  1.0690 -1.9171 -1.1484
  445ACTN    H6 4903   7.627   0.530   0.947 -0.6962  0.3907 -0.0680
  445ACTN    C3 4904   7.613   0.632   0.982 -0.1246  0.1332  0.9619
  445ACTN    H4 4905   7.544   0.681   0.913 -0.5723 -2.4102 -0.4637
  445ACTN    H5 4906   7.561   0.632   1.078 -0.1701  0.9873  0.9372
  445ACTN    C2 4907   7.741   0.712   1.003  0.2742 -0.0122  0.0133
  445ACTN    O1 4908   7.853   0.691   0.961 -0.3997  0.3374 -0.2762
  445ACTN    C1 4909   7.719   0.854   1.054  0.5264 -0.0656 -0.0295
  445ACTN    H1 4910   7.810   0.903   1.090  0.8788 -0.5802 -0.2089
  445ACTN    H2 4911   7.637   0.853   1.126 -1.1205 -2.5974 -1.8562
  445ACTN    H3 4912   7.681   0.908   0.967  0.8478  0.6858  0.2970
  446ACTN    H6 4913   2.122   0.044   4.319  1.2202 -0.9977  0.8110
  446ACTN    C3 4914   2.204   0.025   4.249  0.5865  0.5712 -0.3821
  446ACTN    H4 4915   2.296   0.029   4.307  0.3229  2.5019 -0.0696
  446ACTN    H5 4916   2.188  -0.077   4.213  0.5651 -0.2997  2.0266
  446ACTN    C2 4917   2.199   0.128   4.139 -0.1814 -0.3014  0.5303
  446ACTN    O1 4918   2.089   0.171   4.097 -0.1255 -0.0952 -0.3226
  446ACTN    C1 4919   2.327   0.175   4.077 -0.3989  0.1562 -0.7665
  446ACTN    H1 4920   2.409   0.198   4.145 -0.2692 -1.0115 -0.5105
  446ACTN    H2 4921   2.312   0.262   4.013 -1.7544 -0.8090 -1.8069
  446ACTN    H3 4922   2.372   0.095   4.017  1.7189 -0.1067  1.1180
  447ACTN    H6 4923   1.004   0.035   3.946 -0.8382 -0.8879  0.7684
  447ACTN    C3 4924   1.090   0.062   4.008 -0.5374 -0.2882  0.1036
  447ACTN    H4 4925   1.059   0.032   4.108 -3.3498  0.3091 -0.5368
  447ACTN    H5 4926   1.178   0.004   3.981 -0.7704 -0.0067 -1.2863
  447ACTN    C2 4927   1.108   0.209   3.996  0.1086  0.3282 -0.7937
  447ACTN    O1 4928   1.103   0.266   3.887 -0.3902  0.7106  0.6251
  447ACTN    C1 4929   1.142   0.299   4.114 -0.2925  0.4116  0.2559
  447ACTN    H1 4930   1.079   0.277   4.200 -0.2561 -1.3612 -0.1349
  447ACTN    H2 4931   1.127   0.401   4.079  0.0531  0.4024  0.0800
  447ACTN    H3 4932   1.247   0.286   4.141 -0.5413  0.8441  1.4293
  448ACTN    H6 4933   2.341   2.376   3.528  0.1905 -0.7964  3.3013
  448ACTN    C3 4934   2.305   2.477   3.548  0.3660 -0.0506  0.1521
  448ACTN    H4 4935   2.202   2.491   3.516  0.4315  0.1140  0.0098
  448ACTN    H5 4936   2.304   2.488   3.656 -0.1265  0.4153  0.1027
  448ACTN    C2 4937   2.394   2.580   3.488 -0.1513 -0.1726 -0.8215
  448ACTN    O1 4938   2.402   2.696   3.528 -0.0276  0.3697 -0.4630
  448ACTN    C1 4939   2.476   2.540   3.367  0.0663 -0.4595 -0.6599
  448ACTN    H1 4940   2.498   2.434   3.381  1.1774 -0.1467  0.0144
  448ACTN    H2 4941   2.571   2.594   3.370 -1.1581  1.6887  0.4034
  448ACTN    H3 4942   2.415   2.561   3.279 -2.8808 -1.3956  1.0846
  449ACTN    H6 4943   6.715   0.560   3.134  0.7408 -1.4975  1.9273
  449ACTN    C3 4944   6.805   0.513   3.094 -0.0806 -0.7734 -0.8760
  449ACTN    H4 4945   6.783   0.438   3.019  0.1062 -0.6510 -1.0545
  449ACTN    H5 4946   6.857   0.596   3.047 -0.9787  1.1996  1.4861
  449ACTN    C2 4947   6.890   0.452   3.200  0.0289  0.3497 -0.4885
  449ACTN    O1 4948   6.962   0.528   3.260  0.6358 -0.0606 -0.3563
  449ACTN    C1 4949   6.863   0.310   3.231  0.3605 -0.3886  0.2575
  449ACTN    H1 4950   6.944   0.274   3.295  1.4604  1.8501  0.1816
  449ACTN    H2 4951   6.884   0.250   3.143 -0.2154 -1.2047  0.6631
  449ACTN    H3 4952   6.764   0.292   3.273 -0.2941 -0.5946 -1.3445
  450ACTN    H6 4953   7.680   6.752   1.820  0.3086 -0.8635 -0.7201
  450ACTN    C3 4954   7.708   6.664   1.879 -0.1304 -0.4228  0.1583
  450ACTN    H4 4955   7.809   6.673   1.918  1.4628  0.8506 -3.9826
  450ACTN    H5 4956   7.647   6.662   1.969  0.3864  1.6324  0.5679
  450ACTN    C2 4957   7.690   6.535   1.798  0.3437 -0.9431  0.1787
  450ACTN    O1 4958   7.767   6.446   1.818  0.2775  0.2877  0.3706
  450ACTN    C1 4959   7.565   6.523   1.707  0.0781  0.1067  0.0003
  450ACTN    H1 4960   7.554   6.604   1.635  1.3722 -0.5344 -0.9355
  450ACTN    H2 4961   7.470   6.505   1.757  0.7041 -1.4185  0.6518
  450ACTN    H3 4962   7.583   6.446   1.632  1.7440  0.8952 -0.4421
  451ACTN    H6 4963   7.358   1.914   2.099 -1.8349 -1.1590  2.4986
  451ACTN    C3 4964   7.379   2.015   2.135 -0.2291 -0.5699  0.0761
  451ACTN    H4 4965   7.293   2.044   2.196  0.5987  1.4076  0.3218
  451ACTN    H5 4966   7.464   2.018   2.202  0.4884  0.0082 -0.8513
  451ACTN    C2 4967   7.413   2.111   2.014 -0.3074  0.1506  0.0023
  451ACTN    O1 4968   7.517   2.171   2.011 -0.1768  0.1638  0.4276
  451ACTN    C1 4969   7.313   2.138   1.908  0.2945  0.2460  0.6131
  451ACTN    H1 4970   7.288   2.045   1.859  2.2463  0.5396 -1.0005
  451ACTN    H2 4971   7.334   2.216   1.834 -1.8200 -0.0132 -0.2966
  451ACTN    H3 4972   7.228   2.177   1.964 -0.3962 -0.4696  0.0631
  452ACTN    H6 4973   8.151   2.845   8.667  0.7203 -1.8290  2.1289
  452ACTN    C3 4974   8.187   2.933   8.720 -0.4841  0.2240 -0.3338
  452ACTN    H4 4975   8.241   3.003   8.656  0.9267  0.1595  0.7486
  452ACTN    H5 4976   8.097   2.990   8.745 -0.8186 -0.4308 -0.0189
  452ACTN    C2 4977   8.267   2.896   8.843  0.1566  0.1390  0.3482
  452ACTN    O1 4978   8.334   2.983   8.898  0.9467 -0.0233  0.3787
  452ACTN    C1 4979   8.240   2.774   8.920  0.4857  0.2162 -0.2880
  452ACTN    H1 4980   8.279   2.692   8.860  1.0612  0.2839 -0.0117
  452ACTN    H2 4981   8.132   2.763   8.933  0.3564  0.1281 -1.3531
  452ACTN    H3 4982   8.285   2.782   9.019  1.6320 -1.0485 -0.6975
  453ACTN    H6 4983   3.315   3.595   4.327 -2.4826 -2.0632  2.2802
  453ACTN    C3 4984   3.295   3.687   4.382  0.2000 -0.1674  0.2444
  453ACTN    H4 4985   3.195   3.675   4.425  0.0120  0.3948 -0.0299
  453ACTN    H5 4986   3.361   3.699   4.468 -0.2519 -0.8200  0.6925
  453ACTN    C2 4987   3.312   3.802   4.298 -0.6569 -0.8711  0.3287
  453ACTN    O1 4988   3.407   3.808   4.222 -0.0584 -0.2705  0.7225
  453ACTN    C1 4989   3.191   3.900   4.277 -0.5077  0.1894 -0.6681
  453ACTN    H1 4990   3.146   3.891   4.178 -2.7477 -1.5430  0.4397
  453ACTN    H2 4991   3.210   4.005   4.297  1.1863 -0.3299  0.6040
  453ACTN    H3 4992   3.117   3.868   4.351  0.5373  2.6810  1.5162
  454ACTN    H6 4993   0.182   8.493   3.153  1.5877 -0.8403  0.8201
  454ACTN    C3 4994   0.253   8.533   3.081  0.1363  0.2982  0.0030
  454ACTN    H4 4995   0.246   8.473   2.991 -1.0155  1.4711 -0.7113
  454ACTN    H5 4996   0.220   8.634   3.054 -0.8995  0.1844  0.8350
  454ACTN    C2 4997   0.393   8.518   3.134 -1.1237  0.2519 -0.0524
  454ACTN    O1 4998   0.429   8.451   3.235  0.7361  0.0598  0.2942
  454ACTN    C1 4999   0.508   8.580   3.061  0.7589  0.2176  0.6998
  454ACTN    H1 5000   0.464   8.578   2.961 -1.5308  0.5774  1.6620
  454ACTN    H2 5001   0.602   8.526   3.071  1.7347  1.6318 -0.6694
  454ACTN    H3 5002   0.517   8.684   3.090  0.2070  0.4843 -0.0751
  455ACTN    H6 5003   2.680   5.472   5.040 -0.0964  1.5388  0.9381
  455ACTN    C3 5004   2.786   5.468   5.014 -0.6255  0.2667 -1.0884
  455ACTN    H4 5005   2.829   5.374   5.045  1.1249  1.2280 -0.5684
  455ACTN    H5 5006   2.797   5.466   4.905 -3.9608 -1.2526 -1.4833
  455ACTN    C2 5007   2.843   5.591   5.066  0.0856  0.6877 -0.3108
  455ACTN    O1 5008   2.787   5.692   5.032  0.0985 -0.9061 -0.3765
  455ACTN    C1 5009   2.968   5.579   5.149  0.8412  0.0401  0.1844
  455ACTN    H1 5010   3.003   5.681   5.166  3.1092 -0.5370 -0.8823
  455ACTN    H2 5011   3.040   5.529   5.084  1.0107  0.4302  0.0736
  455ACTN    H3 5012   2.945   5.531   5.244 -0.7604 -0.3102 -0.3524
  456ACTN    H6 5013   0.581   5.796   4.855 -2.3377 -0.8345  2.6579
  456ACTN    C3 5014   0.547   5.897   4.829  0.9536 -0.3445 -0.2269
  456ACTN    H4 5015   0.546   5.916   4.722  0.0105 -0.9072 -0.3273
  456ACTN    H5 5016   0.607   5.968   4.886 -0.5387  1.0932 -0.4348
  456ACTN    C2 5017   0.409   5.917   4.894 -0.5584 -0.5198 -0.3629
  456ACTN    O1 5018   0.313   5.859   4.847  0.1253  0.6435  0.1020
  456ACTN    C1 5019   0.409   5.996   5.025  0.1341  0.3455  0.2340
  456ACTN    H1 5020   0.422   6.102   5.001  0.5061  0.3987  0.6662
  456ACTN    H2 5021   0.494   5.953   5.079  0.5854  0.4930 -0.3505
  456ACTN    H3 5022   0.319   5.980   5.083 -0.7542  0.2517 -1.1495
  457ACTN    H6 5023   8.008   7.885   1.811 -1.7459 -1.0759  2.1748
  457ACTN    C3 5024   8.058   7.952   1.880  0.7254  0.0461 -0.6010
  457ACTN    H4 5025   8.001   8.043   1.893  0.4505  0.0365 -1.7419
  457ACTN    H5 5026   8.068   7.907   1.979 -0.7621 -0.3189 -0.6091
  457ACTN    C2 5027   8.191   7.985   1.845 -0.7029  0.2396  0.6420
  457ACTN    O1 5028   8.242   8.079   1.907 -0.3565 -0.6011 -0.1868
  457ACTN    C1 5029   8.280   7.885   1.768  0.0986 -0.0888  0.2934
  457ACTN    H1 5030   8.276   7.904   1.661  1.3639  1.8146  0.5707
  457ACTN    H2 5031   8.241   7.785   1.791  1.0780 -0.6207 -0.3585
  457ACTN    H3 5032   8.385   7.896   1.794 -0.3145  1.1679  1.4662
  458ACTN    H6 5033   4.621   3.098   4.611  1.1316  0.8611  1.3982
  458ACTN    C3 5034   4.559   3.187   4.627 -0.4479 -0.0813  0.6820
  458ACTN    H4 5035   4.458   3.154   4.650 -0.3761 -0.1724  0.8765
  458ACTN    H5 5036   4.596   3.240   4.715  0.2893 -0.4402  0.5940
  458ACTN    C2 5037   4.572   3.282   4.509 -0.4270 -0.2080  0.1071
  458ACTN    O1 5038   4.475   3.304   4.444  0.4226  0.1347  0.9675
  458ACTN    C1 5039   4.696   3.352   4.489 -0.8013 -0.4721 -0.1882
  458ACTN    H1 5040   4.770   3.291   4.436 -0.0808 -0.1963  0.4922
  458ACTN    H2 5041   4.732   3.390   4.585  2.5015 -0.7323 -1.2624
  458ACTN    H3 5042   4.674   3.438   4.427 -4.2988 -1.6446 -0.6958
  459ACTN    H6 5043   5.305   2.453   3.895  1.6858 -1.9390  1.0333
  459ACTN    C3 5044   5.248   2.450   3.988 -0.3317  0.2605 -0.0847
  459ACTN    H4 5045   5.187   2.361   3.975  0.9838 -0.6860  0.0773
  459ACTN    H5 5046   5.305   2.455   4.081  0.4961  3.7773 -0.6978
  459ACTN    C2 5047   5.152   2.560   4.003  0.1356  0.0363 -0.0524
  459ACTN    O1 5048   5.125   2.629   3.906 -0.4664 -0.0727  0.0446
  459ACTN    C1 5049   5.067   2.579   4.122 -0.2925 -0.0502  0.7121
  459ACTN    H1 5050   5.050   2.685   4.139  1.3066  0.4270 -0.5603
  459ACTN    H2 5051   5.120   2.533   4.206  1.8265  1.6105  0.3270
  459ACTN    H3 5052   4.969   2.534   4.105 -0.2269  0.1468 -0.1788
  460ACTN    H6 5053   8.959   2.413   3.449  0.4907 -0.8268  2.2846
  460ACTN    C3 5054   8.904   2.320   3.438  0.1185 -0.3813  0.2517
  460ACTN    H4 5055   8.882   2.306   3.331  1.1705 -0.8471  0.0942
  460ACTN    H5 5056   8.974   2.241   3.464 -0.7619 -0.5538  2.1588
  460ACTN    C2 5057   8.781   2.317   3.522  0.4621  0.5188 -0.3701
  460ACTN    O1 5058   8.673   2.334   3.463  0.0344 -0.0351  0.3912
  460ACTN    C1 5059   8.778   2.275   3.669 -0.1405 -0.6132  0.2906
  460ACTN    H1 5060   8.782   2.166   3.670 -4.2765 -0.8705  0.6607
  460ACTN    H2 5061   8.683   2.312   3.708 -1.2223 -0.3432 -2.5094
  460ACTN    H3 5062   8.860   2.317   3.728  1.5589 -0.7072 -1.9537
  461ACTN    H6 5063   0.034   5.402   4.731  0.9422 -2.0055 -3.6221
  461ACTN    C3 5064  -0.041   5.324   4.738 -0.2726 -0.5943  0.1498
  461ACTN    H4 5065  -0.018   5.269   4.829  2.8843 -3.1102 -2.0445
  461ACTN    H5 5066  -0.140   5.369   4.743  0.7771  1.7164  1.0046
  461ACTN    C2 5067  -0.044   5.229   4.618  0.5194 -0.3091  0.5197
  461ACTN    O1 5068  -0.039   5.291   4.514 -0.0706 -0.2412 -0.3026
  461ACTN    C1 5069  -0.115   5.094   4.629 -0.2985 -0.4593  0.2848
  461ACTN    H1 5070  -0.047   5.009   4.624 -1.0602 -1.0022 -1.2377
  461ACTN    H2 5071  -0.192   5.079   4.553 -0.2074  0.9960 -0.1160
  461ACTN    H3 5072  -0.161   5.085   4.727  0.1278 -1.8487  0.3614
  462ACTN    H6 5073   0.036   3.495   2.530 -0.9950  3.1583 -0.8992
  462ACTN    C3 5074   0.124   3.545   2.570  0.7728 -0.1899 -0.4661
  462ACTN    H4 5075   0.101   3.651   2.561 -1.5757 -0.4078  2.4031
  462ACTN    H5 5076   0.131   3.516   2.675 -2.7032 -4.1001 -1.1761
  462ACTN    C2 5077   0.240   3.503   2.491 -0.3557 -1.0202 -0.3452
  462ACTN    O1 5078   0.246   3.523   2.373  0.3154 -0.6364 -0.1054
  462ACTN    C1 5079   0.335   3.401   2.556 -0.5573 -0.1973  0.0452
  462ACTN    H1 5080   0.345   3.310   2.497 -1.6439 -0.7868  0.7675
  462ACTN    H2 5081   0.298   3.370   2.653 -1.5514  1.0536  0.0882
  462ACTN    H3 5082   0.434   3.446   2.558 -1.5421  2.0515  1.3855
  463ACTN    H6 5083   5.120   1.670   3.354  1.3369  1.8409  1.9367
  463ACTN    C3 5084   5.143   1.733   3.268 -0.1451 -0.7154 -0.4292
  463ACTN    H4 5085   5.211   1.812   3.298 -0.2005 -0.1438 -1.7637
  463ACTN    H5 5086   5.193   1.677   3.189 -2.3427 -1.7893 -1.1016
  463ACTN    C2 5087   5.021   1.800   3.211  0.5551  0.3451 -0.1704
  463ACTN    O1 5088   4.969   1.897   3.266  0.3106 -1.0101 -0.1431
  463ACTN    C1 5089   4.960   1.763   3.080  0.3782 -0.4398 -0.1114
  463ACTN    H1 5090   5.034   1.714   3.016 -0.5732 -2.6609  0.4484
  463ACTN    H2 5091   4.911   1.841   3.021 -0.0033 -1.2181 -0.8287
  463ACTN    H3 5092   4.881   1.689   3.090 -1.0638  0.6440 -2.7670
  464ACTN    H6 5093   1.236   7.765   6.443  1.6054  3.2009 -2.0390
  464ACTN    C3 5094   1.163   7.767   6.362 -0.3832  0.5403 -0.3974
  464ACTN    H4 5095   1.155   7.873   6.338  0.2351  0.4950 -0.8353
  464ACTN    H5 5096   1.215   7.720   6.279 -2.6603  1.5806 -2.4409
  464ACTN    C2 5097   1.032   7.703   6.382 -0.2755 -1.1305 -0.4648
  464ACTN    O1 5098   0.988   7.705   6.500 -0.5852 -0.0746 -0.2909
  464ACTN    C1 5099   0.934   7.709   6.272 -0.3023  0.2162  0.2974
  464ACTN    H1 5100   0.862   7.791   6.282 -1.5388 -0.9407  1.0201
  464ACTN    H2 5101   0.870   7.622   6.279  0.4513 -0.1897  2.6002
  464ACTN    H3 5102   0.989   7.718   6.178 -0.3484  1.0699  0.3451
  465ACTN    H6 5103   4.254   2.955   7.278 -2.3844 -0.4420 -0.9113
  465ACTN    C3 5104   4.250   2.855   7.322  0.6442 -0.3032 -0.1717
  465ACTN    H4 5105   4.256   2.782   7.241  1.5701 -0.5569  0.1214
  465ACTN    H5 5106   4.344   2.837   7.374  0.2709 -0.2775  0.5143
  465ACTN    C2 5107   4.136   2.835   7.421 -0.6181 -0.6274 -0.3816
  465ACTN    O1 5108   4.018   2.838   7.390 -0.8296  0.1676  0.8740
  465ACTN    C1 5109   4.166   2.802   7.566  0.1193  0.1752  0.3937
  465ACTN    H1 5110   4.273   2.818   7.583  0.7353 -3.8669  0.8774
  465ACTN    H2 5111   4.145   2.696   7.580  0.5281 -0.2055 -1.7004
  465ACTN    H3 5112   4.120   2.861   7.645 -0.5462 -2.1411  1.7704
  466ACTN    H6 5113   8.581   5.866   4.745  0.0940  1.5769  1.8624
  466ACTN    C3 5114   8.556   5.788   4.817 -0.7763  0.3758  0.2682
  466ACTN    H4 5115   8.585   5.694   4.770 -1.5702 -0.3676  1.2234
  466ACTN    H5 5116   8.627   5.805   4.898 -0.4781 -0.6938  0.2329
  466ACTN    C2 5117   8.416   5.788   4.857  0.0664  0.3316 -0.5397
  466ACTN    O1 5118   8.354   5.893   4.854 -0.7477  0.7992  0.4200
  466ACTN    C1 5119   8.360   5.658   4.897 -0.2946  0.7704  0.1006
  466ACTN    H1 5120   8.328   5.594   4.815 -1.9542  2.2147 -0.4157
  466ACTN    H2 5121   8.274   5.680   4.961 -1.5268 -0.6612 -1.0268
  466ACTN    H3 5122   8.437   5.608   4.956 -0.1859  1.6484  0.7017
  467ACTN    H6 5123   4.590   1.304   6.579 -1.1826 -0.6934  0.0173
  467ACTN    C3 5124   4.603   1.369   6.493  0.2215 -0.8739  0.0853
  467ACTN    H4 5125   4.658   1.456   6.529  0.7945 -1.9088  1.7679
  467ACTN    H5 5126   4.667   1.313   6.425 -0.8376 -1.1516 -0.6952
  467ACTN    C2 5127   4.467   1.415   6.450  0.6812 -0.5303 -0.3894
  467ACTN    O1 5128   4.443   1.536   6.455 -0.0334 -0.6419  0.2169
  467ACTN    C1 5129   4.353   1.329   6.390  0.2522 -0.2385 -0.1698
  467ACTN    H1 5130   4.268   1.341   6.457 -0.9760  0.4401 -1.7891
  467ACTN    H2 5131   4.384   1.224   6.384  0.3188 -0.1350 -2.3830
  467ACTN    H3 5132   4.324   1.377   6.296  0.4946  0.4074  0.0846
  468ACTN    H6 5133   0.324   0.481   0.995  0.5254  0.4896  1.0122
  468ACTN    C3 5134   0.281   0.534   0.910  0.0427 -0.3674  0.7165
  468ACTN    H4 5135   0.195   0.587   0.952  0.9107  0.9351  0.8821
  468ACTN    H5 5136   0.363   0.605   0.897 -1.0980  0.5476 -1.8987
  468ACTN    C2 5137   0.265   0.439   0.791 -0.1601 -0.1879 -0.5387
  468ACTN    O1 5138   0.160   0.380   0.780 -0.2142 -0.2271 -0.6031
  468ACTN    C1 5139   0.371   0.420   0.684  0.8004  0.0650  0.3231
  468ACTN    H1 5140   0.396   0.316   0.704 -0.5166  0.0603  2.0896
  468ACTN    H2 5141   0.458   0.484   0.699 -0.4189  2.3316 -1.9297
  468ACTN    H3 5142   0.325   0.424   0.585 -0.4752 -0.5900  0.8757
  469ACTN    H6 5143   4.986   7.205   6.845  1.8502  1.3914  0.3486
  469ACTN    C3 5144   5.059   7.124   6.842  0.1956 -0.1419 -0.3697
  469ACTN    H4 5145   5.154   7.164   6.879 -0.2213 -1.7752  2.6288
  469ACTN    H5 5146   5.036   7.058   6.925  2.7421 -0.7902 -0.1352
  469ACTN    C2 5147   5.085   7.054   6.710  0.3110  0.8155  0.1383
  469ACTN    O1 5148   5.073   6.931   6.710 -0.1529 -0.0575 -0.1150
  469ACTN    C1 5149   5.178   7.120   6.609 -0.1867  0.0969 -0.8272
  469ACTN    H1 5150   5.115   7.180   6.543  0.0882 -1.5864 -2.6620
  469ACTN    H2 5151   5.226   7.045   6.547  0.7181  0.6224 -0.7674
  469ACTN    H3 5152   5.252   7.189   6.650 -1.1279  1.9701 -2.1922
  470ACTN    H6 5153   0.037   6.707   6.351 -2.2499  1.5169 -2.8586
  470ACTN    C3 5154   0.053   6.800   6.407  0.0812 -0.5792  0.1812
  470ACTN    H4 5155   0.098   6.778   6.503 -1.0338  1.4356  1.1996
  470ACTN    H5 5156  -0.040   6.856   6.425  0.5191 -0.3935  1.9632
  470ACTN    C2 5157   0.153   6.876   6.328 -0.0653  0.6953  0.5492
  470ACTN    O1 5158   0.238   6.820   6.259 -0.5470  0.4081 -0.5438
  470ACTN    C1 5159   0.136   7.027   6.333 -0.2947  0.6501 -0.3377
  470ACTN    H1 5160   0.043   7.068   6.291  0.9572  2.7262 -1.1796
  470ACTN    H2 5161   0.219   7.074   6.281 -2.1301  3.5244 -0.7818
  470ACTN    H3 5162   0.134   7.056   6.438 -0.1668 -0.9437  0.1168
  471ACTN    H6 5163   1.506   0.950   3.600  1.4652 -0.9314  1.9995
  471ACTN    C3 5164   1.572   1.036   3.593  0.6950 -0.4545  0.0362
  471ACTN    H4 5165   1.506   1.114   3.555 -0.4029 -1.4644 -0.1465
  471ACTN    H5 5166   1.588   1.062   3.698 -1.3732  2.5139 -0.3292
  471ACTN    C2 5167   1.689   1.024   3.504  0.2644  1.3424  0.1970
  471ACTN    O1 5168   1.761   1.115   3.479 -0.2917 -0.3145 -0.1484
  471ACTN    C1 5169   1.711   0.880   3.451  0.4051 -0.3425 -0.8168
  471ACTN    H1 5170   1.788   0.829   3.509 -1.4135 -0.5932  1.4727
  471ACTN    H2 5171   1.724   0.877   3.343  0.0302  2.7565 -0.9783
  471ACTN    H3 5172   1.624   0.817   3.471 -0.2895  0.1905 -2.0917
  472ACTN    H6 5173   6.947   8.646   0.367  1.3993 -0.7283 -2.7147
  472ACTN    C3 5174   7.037   8.658   0.428 -0.2312 -0.6249 -0.2654
  472ACTN    H4 5175   7.102   8.691   0.348 -0.8770  1.0592 -0.1246
  472ACTN    H5 5176   7.026   8.746   0.491  0.6995 -0.3723 -0.4539
  472ACTN    C2 5177   7.065   8.525   0.499 -0.7892 -0.0317 -0.1917
  472ACTN    O1 5178   7.179   8.480   0.519  0.0128  0.1981 -0.0344
  472ACTN    C1 5179   6.952   8.438   0.526  0.5706  0.3047  0.1897
  472ACTN    H1 5180   6.907   8.452   0.624 -3.6967 -3.2078 -1.1207
  472ACTN    H2 5181   6.990   8.336   0.532 -2.4040 -0.9195 -0.9437
  472ACTN    H3 5182   6.878   8.438   0.446  1.6367 -2.0751 -0.8532
  473ACTN    H6 5183   4.350   5.374   5.649  0.8889  0.2140 -0.6067
  473ACTN    C3 5184   4.276   5.382   5.570 -0.1566  0.5008  0.3858
  473ACTN    H4 5185   4.198   5.449   5.607  0.8502  0.5173  2.5559
  473ACTN    H5 5186   4.322   5.432   5.484 -0.7123  2.2452  1.0854
  473ACTN    C2 5187   4.210   5.247   5.548  0.9522 -0.6344  0.1313
  473ACTN    O1 5188   4.131   5.236   5.455 -0.5476  0.0259 -0.5244
  473ACTN    C1 5189   4.219   5.134   5.648 -0.4850 -0.2046  0.0722
  473ACTN    H1 5190   4.120   5.116   5.691 -1.1337 -1.8564 -2.0427
  473ACTN    H2 5191   4.284   5.168   5.729 -2.8402 -0.1412  2.0050
  473ACTN    H3 5192   4.253   5.040   5.605 -3.2029 -1.3307  0.2728
  474ACTN    H6 5193   5.798   1.392   3.861  1.1243 -1.4043  0.8863
  474ACTN    C3 5194   5.720   1.328   3.821 -0.2994  1.2514 -0.7227
  474ACTN    H4 5195   5.666   1.288   3.907  0.7709 -0.7921 -0.9774
  474ACTN    H5 5196   5.636   1.375   3.769 -1.0502 -0.0320 -0.6802
  474ACTN    C2 5197   5.765   1.209   3.735 -0.2654  0.7905 -0.2980
  474ACTN    O1 5198   5.752   1.096   3.774 -0.1919  0.7516 -0.0403
  474ACTN    C1 5199   5.805   1.249   3.600  0.0250  0.8250  0.2232
  474ACTN    H1 5200   5.743   1.332   3.568 -0.8784  0.4726  1.0303
  474ACTN    H2 5201   5.797   1.163   3.534  1.9937  0.6095  0.2178
  474ACTN    H3 5202   5.909   1.277   3.617  1.5969 -2.8183 -2.6427
  475ACTN    H6 5203   0.932   1.856   3.569  0.2160 -1.8896  0.7418
  475ACTN    C3 5204   0.918   1.859   3.677 -0.1521  0.6510  0.6405
  475ACTN    H4 5205   0.811   1.847   3.696 -0.8746 -0.0321 -3.5383
  475ACTN    H5 5206   0.961   1.771   3.724 -1.9492 -0.3044  0.5478
  475ACTN    C2 5207   0.985   1.983   3.729  0.6397  0.1486  0.0139
  475ACTN    O1 5208   1.006   2.081   3.652 -0.0341  0.4370 -0.2647
  475ACTN    C1 5209   0.970   2.012   3.873 -0.1538  0.4637 -0.6609
  475ACTN    H1 5210   1.068   2.021   3.921 -0.4087  1.9592 -0.3945
  475ACTN    H2 5211   0.916   1.927   3.915  1.8328 -0.9173 -0.8069
  475ACTN    H3 5212   0.918   2.107   3.883 -2.0498 -0.5006 -1.2740
  476ACTN    H6 5213   6.755   2.443   7.438  1.8453 -0.1265  0.3341
  476ACTN    C3 5214   6.823   2.524   7.413  0.9095  0.5682 -0.0219
  476ACTN    H4 5215   6.797   2.610   7.475 -0.2257  0.0388  0.2412
  476ACTN    H5 5216   6.921   2.485   7.441 -0.2747 -1.4678  1.3778
  476ACTN    C2 5217   6.815   2.556   7.271  0.8501 -0.5048 -1.0484
  476ACTN    O1 5218   6.872   2.483   7.193  0.3124 -0.2070 -0.9640
  476ACTN    C1 5219   6.766   2.690   7.224 -0.1868  0.3468 -0.4958
  476ACTN    H1 5220   6.846   2.763   7.238  2.2807 -2.1480 -1.1023
  476ACTN    H2 5221   6.678   2.721   7.281 -0.5166  1.5937 -1.6669
  476ACTN    H3 5222   6.736   2.681   7.120 -0.1778  1.5368 -0.6039
  477ACTN    H6 5223   0.528   7.377   5.108  1.5416 -1.5104 -0.6601
  477ACTN    C3 5224   0.473   7.436   5.035  1.2127 -0.2316  0.5963
  477ACTN    H4 5225   0.391   7.379   4.992  0.0635  1.8669 -0.1071
  477ACTN    H5 5226   0.429   7.522   5.087 -0.1992 -0.1858 -0.6185
  477ACTN    C2 5227   0.571   7.490   4.938 -0.1720 -0.6432 -0.2027
  477ACTN    O1 5228   0.669   7.551   4.974 -0.9916 -0.0664  0.2298
  477ACTN    C1 5229   0.541   7.481   4.795  0.0408  0.5249  0.3358
  477ACTN    H1 5230   0.435   7.494   4.771  0.2452  1.1151 -0.2491
  477ACTN    H2 5231   0.573   7.380   4.769  0.3728  0.6112  0.4116
  477ACTN    H3 5232   0.604   7.546   4.734 -0.8779  0.3176 -0.8532
  478ACTN    H6 5233   0.434   0.771   3.888 -0.9798 -1.1360 -1.3667
  478ACTN    C3 5234   0.450   0.708   3.976 -0.6565  0.5559 -0.1728
  478ACTN    H4 5235   0.352   0.680   4.014  0.0188 -1.5896  0.0533
  478ACTN    H5 5236   0.494   0.771   4.053  0.3707  0.5109 -0.7087
  478ACTN    C2 5237   0.536   0.591   3.952  0.3796 -0.5204 -0.6690
  478ACTN    O1 5238   0.523   0.538   3.844  0.0113 -0.0057 -0.3270
  478ACTN    C1 5239   0.647   0.559   4.045 -0.2302  0.8637 -0.3186
  478ACTN    H1 5240   0.623   0.462   4.088 -0.1435  1.5937  1.4374
  478ACTN    H2 5241   0.659   0.635   4.123  1.3499  0.2679  0.0510
  478ACTN    H3 5242   0.741   0.556   3.990 -1.2873 -1.2776 -2.0584
  479ACTN    H6 5243   7.266   5.216   8.457 -0.9366 -0.4697 -0.3028
  479ACTN    C3 5244   7.247   5.109   8.470  0.3485 -0.6374  0.2592
  479ACTN    H4 5245   7.157   5.088   8.414  1.0489  0.0149 -1.1339
  479ACTN    H5 5246   7.330   5.051   8.428  0.7412 -0.8992  1.3777
  479ACTN    C2 5247   7.233   5.081   8.619 -0.4523  0.0821 -0.0691
  479ACTN    O1 5248   7.128   5.113   8.676 -0.0353  0.1098 -0.0316
  479ACTN    C1 5249   7.306   4.960   8.666  0.2672  0.6987 -0.8927
  479ACTN    H1 5250   7.410   4.990   8.671  0.2917  0.4569  0.2081
  479ACTN    H2 5251   7.290   4.879   8.594  0.2986  1.7148 -2.0712
  479ACTN    H3 5252   7.278   4.926   8.765  1.1511  1.1845 -0.4764
  480ACTN    H6 5253   5.113   8.988   7.902  0.5485 -1.0071 -0.6280
  480ACTN    C3 5254   5.205   9.047   7.897  0.1832 -0.3786 -0.0047
  480ACTN    H4 5255   5.180   9.146   7.934  1.5307 -0.2890  0.6997
  480ACTN    H5 5256   5.283   9.014   7.965  1.9542  0.4719 -1.6033
  480ACTN    C2 5257   5.252   9.052   7.757 -0.2472  0.1702  0.1070
  480ACTN    O1 5258   5.198   8.976   7.676  0.0378  0.0675 -0.4452
  480ACTN    C1 5259   5.364   9.140   7.712  0.3786 -0.1394 -0.0163
  480ACTN    H1 5260   5.322   9.221   7.653  0.4822  0.0150  0.1229
  480ACTN    H2 5261   5.444   9.093   7.654  0.3985 -0.8167  0.5434
  480ACTN    H3 5262   5.410   9.189   7.798 -2.8683  0.5586  1.3594
  481ACTN    H6 5263   0.959   6.777   0.226 -3.0012 -0.8045 -0.6158
  481ACTN    C3 5264   0.925   6.880   0.229  0.3110  0.3102  0.4503
  481ACTN    H4 5265   0.964   6.933   0.142 -1.5918  3.7199  1.5710
  481ACTN    H5 5266   0.817   6.872   0.213  0.2713 -0.6604  1.1887
  481ACTN    C2 5267   0.956   6.944   0.357 -0.3414 -0.0076  0.1652
  481ACTN    O1 5268   0.881   7.023   0.418 -0.0519 -0.6009 -0.3004
  481ACTN    C1 5269   1.076   6.913   0.438 -0.3855  0.1181 -0.2603
  481ACTN    H1 5270   1.162   6.949   0.381 -2.1725  1.4692 -2.1702
  481ACTN    H2 5271   1.074   6.805   0.451 -2.2804 -0.1280 -2.3042
  481ACTN    H3 5272   1.074   6.967   0.533  0.7792 -1.1419  0.5149
  482ACTN    H6 5273   0.472   6.697   5.456 -2.0340  1.3708 -0.1003
  482ACTN    C3 5274   0.465   6.668   5.560 -0.0612  0.1964 -0.2789
  482ACTN    H4 5275   0.386   6.594   5.562 -0.3813  0.5525  0.7721
  482ACTN    H5 5276   0.560   6.628   5.596 -0.7943 -1.2940  0.0327
  482ACTN    C2 5277   0.415   6.785   5.645  0.2150 -0.7511 -0.2908
  482ACTN    O1 5278   0.299   6.823   5.642  0.5108  0.2641 -0.2610
  482ACTN    C1 5279   0.507   6.848   5.743 -0.0361 -0.3791  0.0155
  482ACTN    H1 5280   0.519   6.956   5.734  0.4001 -0.3149  1.2261
  482ACTN    H2 5281   0.606   6.806   5.728  0.4428 -0.1108  2.1476
  482ACTN    H3 5282   0.474   6.827   5.845  0.5905  0.4801  0.4028
  483ACTN    H6 5283   5.044   8.218   5.101  0.7714 -2.6356 -0.7274
  483ACTN    C3 5284   5.105   8.214   5.191  0.0886 -0.3532 -0.1372
  483ACTN    H4 5285   5.107   8.108   5.216  1.3531 -0.2982 -0.0139
  483ACTN    H5 5286   5.205   8.251   5.171  0.7350 -1.9817 -0.0126
  483ACTN    C2 5287   5.048   8.286   5.313  0.7817 -0.4273  0.8603
  483ACTN    O1 5288   5.117   8.332   5.396 -0.1520  0.6760  0.1578
  483ACTN    C1 5289   4.904   8.267   5.348 -0.1207 -0.5851 -0.6021
  483ACTN    H1 5290   4.858   8.364   5.329  0.1968  0.0681  1.8066
  483ACTN    H2 5291   4.900   8.241   5.454  1.8715  0.7380 -0.1765
  483ACTN    H3 5292   4.855   8.187   5.293 -1.3278 -0.5997  0.4698
  484ACTN    H6 5293   1.962   7.454   5.019 -0.8827  0.7141 -0.9973
  484ACTN    C3 5294   1.962   7.360   4.964 -0.3392  0.2406 -0.1810
  484ACTN    H4 5295   2.013   7.282   5.022  1.6457  1.1937 -0.5826
  484ACTN    H5 5296   1.858   7.332   4.949 -0.2491  1.0441 -2.4160
  484ACTN    C2 5297   2.017   7.364   4.825 -0.8588  0.0906 -0.1044
  484ACTN    O1 5298   2.017   7.468   4.756  0.8461  0.4441 -0.0071
  484ACTN    C1 5299   2.062   7.231   4.770  0.1005  0.1040  0.4823
  484ACTN    H1 5300   2.090   7.158   4.847 -2.7608 -0.3381  1.1545
  484ACTN    H2 5301   2.143   7.247   4.699 -1.4196 -1.5935 -1.6986
  484ACTN    H3 5302   1.987   7.173   4.717 -1.6400  2.3413  0.4101
  485ACTN    H6 5303   6.485   7.277   7.571  2.7247 -1.4360 -1.2832
  485ACTN    C3 5304   6.490   7.196   7.643  0.6891 -0.3769  0.0798
  485ACTN    H4 5305   6.505   7.242   7.741 -1.0700 -0.3482  0.3655
  485ACTN    H5 5306   6.390   7.152   7.647  0.4725 -0.1820 -2.6813
  485ACTN    C2 5307   6.598   7.093   7.613 -0.0355 -0.0508  0.1411
  485ACTN    O1 5308   6.571   6.974   7.614  0.5896  0.3066 -0.7406
  485ACTN    C1 5309   6.738   7.136   7.568 -0.0896 -0.1013  0.2301
  485ACTN    H1 5310   6.721   7.200   7.482 -2.9309  1.2619  1.7038
  485ACTN    H2 5311   6.792   7.047   7.535  0.3657 -0.9215  3.0560
  485ACTN    H3 5312   6.800   7.185   7.643  0.5376 -2.3168  1.2143
  486ACTN    H6 5313   0.035   7.925   8.578 -0.0078 -3.1252 -0.9628
  486ACTN    C3 5314  -0.038   7.956   8.504  0.0036 -0.1060  0.2044
  486ACTN    H4 5315  -0.133   7.992   8.543  0.7140  0.7206  1.1782
  486ACTN    H5 5316   0.001   8.042   8.450 -1.5234  0.2989 -0.2755
  486ACTN    C2 5317  -0.062   7.835   8.412 -0.2913 -0.1536  0.0511
  486ACTN    O1 5318  -0.123   7.739   8.463  0.0825 -0.2481 -0.5923
  486ACTN    C1 5319  -0.003   7.824   8.267 -0.4103 -0.2341 -0.8035
  486ACTN    H1 5320   0.014   7.717   8.249 -1.8020 -0.6610  0.2815
  486ACTN    H2 5321   0.093   7.875   8.262 -1.1899  1.2165 -1.0052
  486ACTN    H3 5322  -0.075   7.864   8.196  1.1781  1.3695 -1.5334
  487ACTN    H6 5323   8.804   7.742   6.676 -1.2843 -1.5469 -1.8089
  487ACTN    C3 5324   8.725   7.812   6.703  0.3151 -0.0765 -0.8130
  487ACTN    H4 5325   8.714   7.884   6.622 -0.4656 -0.3376 -0.9377
  487ACTN    H5 5326   8.634   7.754   6.721  1.3997 -1.3927  0.5999
  487ACTN    C2 5327   8.771   7.886   6.818  0.2186  0.8475  0.3426
  487ACTN    O1 5328   8.833   7.824   6.905 -0.0627  0.6105 -0.1567
  487ACTN    C1 5329   8.695   8.013   6.841  0.0825  0.4092  0.2341
  487ACTN    H1 5330   8.597   8.016   6.794  0.3893 -2.0201 -0.6121
  487ACTN    H2 5331   8.751   8.098   6.803 -1.1283  0.3584 -1.7036
  487ACTN    H3 5332   8.688   8.036   6.947  0.4515 -1.3185  0.6526
  488ACTN    H6 5333   7.308   8.801   4.000 -0.9192  0.1446  0.0238
  488ACTN    C3 5334   7.300   8.892   4.060  0.0654  0.1239  0.1920
  488ACTN    H4 5335   7.361   8.964   4.005 -1.0823 -0.4953 -1.9838
  488ACTN    H5 5336   7.201   8.936   4.047 -0.3416 -1.1431 -1.1824
  488ACTN    C2 5337   7.337   8.861   4.200 -0.5224 -0.4075 -0.4307
  488ACTN    O1 5338   7.281   8.924   4.295 -0.3462 -0.2210  0.0701
  488ACTN    C1 5339   7.437   8.755   4.227 -0.4433  0.1249  0.1362
  488ACTN    H1 5340   7.412   8.664   4.171  2.5983  0.9987 -2.8041
  488ACTN    H2 5341   7.441   8.723   4.331  4.0229  1.2486  0.3959
  488ACTN    H3 5342   7.537   8.789   4.201 -0.2083 -0.0773  0.7593
  489ACTN    H6 5343   8.451   4.335   1.909 -2.9056 -0.9011  0.1719
  489ACTN    C3 5344   8.520   4.290   1.980 -0.8458  0.9915 -0.5776
  489ACTN    H4 5345   8.610   4.351   1.989  0.3157 -0.7693  0.0832
  489ACTN    H5 5346   8.471   4.297   2.077  0.0588 -1.1766  0.0715
  489ACTN    C2 5347   8.556   4.147   1.945 -0.1740  1.2486 -0.0788
  489ACTN    O1 5348   8.634   4.082   2.015  0.4986  0.3520 -1.0682
  489ACTN    C1 5349   8.540   4.100   1.800 -0.8716 -0.6144 -0.0751
  489ACTN    H1 5350   8.443   4.132   1.761 -0.6876  1.4292  1.0566
  489ACTN    H2 5351   8.555   3.992   1.797  0.5267 -0.5498  3.0608
  489ACTN    H3 5352   8.614   4.152   1.739  0.6979  0.4345  2.6420
  490ACTN    H6 5353   5.207   6.155   2.755  0.9290  0.0785 -0.3735
  490ACTN    C3 5354   5.283   6.232   2.763  0.3689  0.5765  0.2128
  490ACTN    H4 5355   5.319   6.225   2.865 -0.6926  0.7005  0.5997
  490ACTN    H5 5356   5.367   6.210   2.698  0.7743  2.6631 -0.0116
  490ACTN    C2 5357   5.222   6.367   2.743  0.8082 -0.1579 -0.3088
  490ACTN    O1 5358   5.286   6.466   2.771  0.1849  0.3896 -0.2787
  490ACTN    C1 5359   5.080   6.380   2.704 -0.3678 -0.0014 -0.6983
  490ACTN    H1 5360   5.053   6.484   2.684 -1.1537 -0.3434 -1.4281
  490ACTN    H2 5361   5.017   6.339   2.783 -0.0487  0.7023 -0.0737
  490ACTN    H3 5362   5.063   6.313   2.619  0.0578 -1.4736  0.3521
  491ACTN    H6 5363   7.876   2.420   8.513 -1.9384  1.3317  0.8638
  491ACTN    C3 5364   7.804   2.380   8.442  0.2315 -0.5438 -0.3329
  491ACTN    H4 5365   7.785   2.457   8.367 -0.7535  0.5042  0.9798
  491ACTN    H5 5366   7.844   2.301   8.378 -0.3202 -2.8514  2.0722
  491ACTN    C2 5367   7.675   2.337   8.505 -0.2547  0.3843 -0.1648
  491ACTN    O1 5368   7.578   2.289   8.446  0.4158  0.2667  0.1007
  491ACTN    C1 5369   7.666   2.339   8.658 -0.6260 -0.1098 -0.5277
  491ACTN    H1 5370   7.612   2.428   8.690 -0.5870  0.0598 -0.9351
  491ACTN    H2 5371   7.764   2.353   8.705 -0.6006 -3.1870  0.4280
  491ACTN    H3 5372   7.621   2.247   8.693 -0.5371  0.5277  1.3215
  492ACTN    H6 5373   2.656   0.222   3.753 -3.0891  1.4602  0.3488
  492ACTN    C3 5374   2.627   0.117   3.758 -0.0261  0.5584  0.2280
  492ACTN    H4 5375   2.518   0.118   3.750 -0.0792  0.3562  0.8947
  492ACTN    H5 5376   2.661   0.064   3.670  0.2946 -0.8398  1.1691
  492ACTN    C2 5377   2.684   0.060   3.886 -0.3315  0.0030 -0.7252
  492ACTN    O1 5378   2.602   0.037   3.970  0.1869  0.1951 -0.3000
  492ACTN    C1 5379   2.832   0.046   3.889  0.3613  0.4743 -0.9882
  492ACTN    H1 5380   2.873   0.145   3.909 -0.3277  0.8667 -1.5089
  492ACTN    H2 5381   2.872   0.027   3.790  0.4155  0.7091 -1.0130
  492ACTN    H3 5382   2.867  -0.026   3.963  1.3361  3.4457  1.5701
  493ACTN    H6 5383   2.048   6.572   6.025  0.0306 -1.8343  3.1502
  493ACTN    C3 5384   1.988   6.492   5.982  0.0387 -0.0114 -0.4783
  493ACTN    H4 5385   2.061   6.427   5.934  2.0471  0.4616  1.8490
  493ACTN    H5 5386   1.947   6.430   6.062 -1.5704  0.6381 -0.7814
  493ACTN    C2 5387   1.875   6.525   5.883  0.0070  0.2155 -0.5587
  493ACTN    O1 5388   1.804   6.431   5.849  0.1152  0.0040 -0.4810
  493ACTN    C1 5389   1.878   6.663   5.819 -0.0594 -0.2219 -0.1832
  493ACTN    H1 5390   1.967   6.663   5.756  0.4844 -1.9742  0.5686
  493ACTN    H2 5391   1.891   6.739   5.897  0.1528  0.4008 -0.8184
  493ACTN    H3 5392   1.784   6.697   5.776 -1.5702 -0.8117  2.5741
  494ACTN    H6 5393   0.389   8.010   2.110 -0.3407 -0.7936  0.4742
  494ACTN    C3 5394   0.336   7.998   2.016  0.1105 -0.1914  0.1338
  494ACTN    H4 5395   0.398   8.036   1.934 -2.1591 -0.0427 -1.5618
  494ACTN    H5 5396   0.313   7.893   1.996 -0.8479  0.3127 -1.5434
  494ACTN    C2 5397   0.212   8.089   2.019  0.1136 -0.6333  0.3175
  494ACTN    O1 5398   0.233   8.208   2.015 -0.5827  0.6802  0.6847
  494ACTN    C1 5399   0.073   8.029   2.013  0.8600  0.0932  0.4960
  494ACTN    H1 5400  -0.012   8.097   1.998 -0.0316 -0.8294  1.2759
  494ACTN    H2 5401   0.046   7.977   2.105  0.1931  0.3983  0.4768
  494ACTN    H3 5402   0.075   7.952   1.937  0.8178 -0.7891  1.3811
  495ACTN    H6 5403   7.854   8.592   4.218  0.3013 -2.3675 -0.6422
  495ACTN    C3 5404   7.908   8.583   4.313  0.3853  0.1948 -0.3925
  495ACTN    H4 5405   7.874   8.485   4.348  3.0851 -0.6120  0.0697
  495ACTN    H5 5406   8.014   8.582   4.289  0.4729 -0.1613 -0.0066
  495ACTN    C2 5407   7.863   8.684   4.404  0.3572 -0.2765 -0.0839
  495ACTN    O1 5408   7.941   8.751   4.462 -0.5906 -0.5638  0.0531
  495ACTN    C1 5409   7.719   8.695   4.451 -0.5497 -0.4065 -0.3803
  495ACTN    H1 5410   7.704   8.786   4.509  0.7883 -0.1485 -0.4118
  495ACTN    H2 5411   7.695   8.610   4.515  1.9113  0.0971  1.2970
  495ACTN    H3 5412   7.649   8.695   4.368 -0.1190  1.8503 -0.7752
  496ACTN    H6 5413   4.048   6.539   3.716 -0.3560 -0.9221  0.5002
  496ACTN    C3 5414   4.125   6.555   3.641 -0.5411 -0.1010  0.4810
  496ACTN    H4 5415   4.101   6.496   3.552 -0.3750 -1.1701  1.1412
  496ACTN    H5 5416   4.121   6.662   3.622  2.4991 -0.2239 -1.1704
  496ACTN    C2 5417   4.260   6.507   3.691 -0.4666 -0.1937 -0.5284
  496ACTN    O1 5418   4.261   6.407   3.766 -0.3813  0.0571  0.4555
  496ACTN    C1 5419   4.375   6.586   3.643  0.1439  0.5058  0.0330
  496ACTN    H1 5420   4.393   6.554   3.540 -0.9467 -1.0601  0.3157
  496ACTN    H2 5421   4.468   6.560   3.693 -0.1831  0.4371  0.6039
  496ACTN    H3 5422   4.359   6.694   3.638 -1.4133  0.2551 -0.3985
  497ACTN    H6 5423   1.768   3.594   0.091  0.1196  0.4721  1.0222
  497ACTN    C3 5424   1.806   3.648   0.004 -0.2782 -0.0490  0.5145
  497ACTN    H4 5425   1.914   3.664   0.014 -0.2542 -1.0244  1.9652
  497ACTN    H5 5426   1.783   3.589  -0.084 -0.1786  0.0520  0.4191
  497ACTN    C2 5427   1.729   3.779   0.004 -0.4628  0.2322 -0.3943
  497ACTN    O1 5428   1.757   3.863  -0.083  0.0408 -0.1978  0.3040
  497ACTN    C1 5429   1.617   3.791   0.104 -0.4693 -0.5344 -0.8060
  497ACTN    H1 5430   1.609   3.705   0.170  2.4709 -0.7302 -0.6372
  497ACTN    H2 5431   1.522   3.809   0.054 -1.5127 -0.9801  0.9713
  497ACTN    H3 5432   1.630   3.873   0.175 -4.0359  0.6300 -1.3875
  498ACTN    H6 5433   5.949   7.317   0.123 -0.6102  0.0747 -1.3839
  498ACTN    C3 5434   5.853   7.312   0.173 -0.2207  1.5866 -0.4597
  498ACTN    H4 5435   5.823   7.415   0.194 -0.5840  1.7222 -1.6310
  498ACTN    H5 5436   5.780   7.267   0.105  0.7479  0.6996 -0.9179
  498ACTN    C2 5437   5.855   7.241   0.301  0.1122  0.4235  0.4773
  498ACTN    O1 5438   5.964   7.219   0.359  0.0840 -1.1853  0.0054
  498ACTN    C1 5439   5.722   7.220   0.368 -0.4903 -0.4950 -0.0575
  498ACTN    H1 5440   5.741   7.240   0.473 -1.1300 -2.5692  0.4590
  498ACTN    H2 5441   5.700   7.115   0.352  0.4440 -0.3805 -2.3639
  498ACTN    H3 5442   5.644   7.283   0.325 -0.7133 -1.3600 -0.9440
  499ACTN    H6 5443   7.951   1.469   2.658 -0.9954  0.5649  1.0872
  499ACTN    C3 5444   8.011   1.452   2.747 -0.3541  0.9630  0.7305
  499ACTN    H4 5445   8.040   1.347   2.754  0.2254  1.0883  0.3092
  499ACTN    H5 5446   8.100   1.516   2.743 -0.1015  0.5529 -0.7158
  499ACTN    C2 5447   7.919   1.485   2.864  0.1045 -1.1428 -0.0065
  499ACTN    O1 5448   7.866   1.599   2.861  0.7488  0.0019  0.3691
  499ACTN    C1 5449   7.909   1.389   2.984 -0.0431 -0.2326  0.2391
  499ACTN    H1 5450   7.964   1.422   3.071  2.2141 -0.9426 -0.8638
  499ACTN    H2 5451   7.947   1.289   2.963  1.4469  0.2701  0.4639
  499ACTN    H3 5452   7.806   1.370   3.013 -0.8165  1.0509 -1.5509
  500ACTN    H6 5453   6.772   4.191   5.242  1.0171  0.5254 -1.5943
  500ACTN    C3 5454   6.838   4.146   5.316 -0.5059 -0.2565 -0.6857
  500ACTN    H4 5455   6.941   4.128   5.283 -0.2184 -0.3612  0.2449
  500ACTN    H5 5456   6.847   4.218   5.398 -0.5302  0.1289 -1.0246
  500ACTN    C2 5457   6.778   4.024   5.362  1.0373 -0.5558  0.1234
  500ACTN    O1 5458   6.664   4.015   5.409  0.3460  0.2258 -0.5549
  500ACTN    C1 5459   6.849   3.898   5.330  0.2369  0.5977 -0.1253
  500ACTN    H1 5460   6.889   3.906   5.230 -1.0598  0.9176 -0.6277
  500ACTN    H2 5461   6.783   3.811   5.333  0.3730  0.4972 -0.0046
  500ACTN    H3 5462   6.929   3.873   5.400 -0.1552  0.4703  0.2815
  501ACTN    H6 5463   1.727   5.172   2.115  0.5280  0.1542  0.1575
  501ACTN    C3 5464   1.779   5.230   2.039 -0.1466 -0.4512 -0.7758
  501ACTN    H4 5465   1.784   5.331   2.078 -0.2134 -0.4389 -0.7984
  501ACTN    H5 5466   1.878   5.185   2.046  0.1551  0.6159  2.3338
  501ACTN    C2 5467   1.699   5.228   1.916 -0.2704  0.1667 -0.1701
  501ACTN    O1 5468   1.734   5.164   1.820  0.4060  0.2036 -0.0593
  501ACTN    C1 5469   1.562   5.297   1.905  0.1500 -0.3199  0.6070
  501ACTN    H1 5470   1.580   5.404   1.916  0.3843 -0.5251  2.3075
  501ACTN    H2 5471   1.492   5.262   1.980 -0.7336  0.0580 -0.0289
  501ACTN    H3 5472   1.519   5.269   1.809  1.3369 -2.8830  0.7930
  502ACTN    H6 5473   4.792   8.345   3.350  3.6127 -0.8649 -1.0234
  502ACTN    C3 5474   4.802   8.450   3.377 -0.3364 -0.6343 -0.2895
  502ACTN    H4 5475   4.903   8.485   3.359  0.5568 -3.1884 -0.5427
  502ACTN    H5 5476   4.733   8.510   3.318  1.3042 -0.8585 -2.4870
  502ACTN    C2 5477   4.773   8.474   3.519  0.2722  0.8558  0.0708
  502ACTN    O1 5478   4.841   8.423   3.606 -0.5032 -0.7877 -0.2335
  502ACTN    C1 5479   4.668   8.572   3.559 -0.2283  0.2418 -0.4526
  502ACTN    H1 5480   4.656   8.647   3.480  1.5972 -0.4722 -1.4517
  502ACTN    H2 5481   4.691   8.621   3.653 -0.7090  2.5923 -1.5142
  502ACTN    H3 5482   4.575   8.516   3.572 -0.0168  0.2169  0.9589
  503ACTN    H6 5483   1.682   5.995   5.694  0.0629 -1.1880 -0.1242
  503ACTN    C3 5484   1.767   5.944   5.649  0.6047  0.0983 -0.5855
  503ACTN    H4 5485   1.765   5.839   5.679  0.6095  0.1777 -0.3035
  503ACTN    H5 5486   1.748   5.953   5.542  0.9293  2.2540 -0.4628
  503ACTN    C2 5487   1.891   6.017   5.677  0.1658 -0.9600 -0.1808
  503ACTN    O1 5488   1.987   6.004   5.603 -0.2886  0.3262  0.2182
  503ACTN    C1 5489   1.915   6.073   5.816  0.2739  0.0227 -0.0963
  503ACTN    H1 5490   1.832   6.049   5.882 -0.8126  0.3183 -1.3215
  503ACTN    H2 5491   1.933   6.181   5.814 -0.8235  0.2515  1.3278
  503ACTN    H3 5492   2.001   6.019   5.854  1.2075  0.4688 -1.5363
  504ACTN    H6 5493   1.737   7.839   1.916 -2.5900  0.4078  0.3169
  504ACTN    C3 5494   1.748   7.909   1.998  0.2681  0.2878  0.0822
  504ACTN    H4 5495   1.706   7.867   2.090  3.7383 -2.0066  0.7159
  504ACTN    H5 5496   1.850   7.940   2.019  0.0123  1.8974 -0.9530
  504ACTN    C2 5497   1.672   8.027   1.954 -0.4030  0.9525  0.5028
  504ACTN    O1 5498   1.720   8.112   1.876 -0.1812 -0.0104 -0.1963
  504ACTN    C1 5499   1.532   8.044   2.006 -0.2878  0.0884  0.1211
  504ACTN    H1 5500   1.464   7.968   1.967  0.9317 -0.1214 -1.6958
  504ACTN    H2 5501   1.497   8.139   1.967  1.6927 -0.6705 -3.8355
  504ACTN    H3 5502   1.531   8.024   2.113 -0.8721 -1.2906 -0.1262
  505ACTN    H6 5503   0.559   0.854   2.261 -3.3501 -1.5684 -1.8224
  505ACTN    C3 5504   0.626   0.834   2.178  0.2634  0.3402  0.4698
  505ACTN    H4 5505   0.575   0.771   2.105 -0.0308 -0.3894  1.3020
  505ACTN    H5 5506   0.648   0.935   2.143 -0.2636  0.4145  0.3554
  505ACTN    C2 5507   0.733   0.752   2.246  0.4318  0.5279  0.5025
  505ACTN    O1 5508   0.704   0.634   2.271  0.4362  0.0886 -0.5371
  505ACTN    C1 5509   0.863   0.817   2.275  0.1417  0.6672 -0.4893
  505ACTN    H1 5510   0.920   0.839   2.185  1.6204  1.4424  0.6132
  505ACTN    H2 5511   0.927   0.769   2.349  1.1789  2.0443 -0.4632
  505ACTN    H3 5512   0.848   0.921   2.304 -3.0279  0.0960  0.0615
  506ACTN    H6 5513   0.009   5.893   5.265  1.0231 -0.2439  2.8692
  506ACTN    C3 5514   0.097   5.845   5.223  0.0582  0.6565 -0.3098
  506ACTN    H4 5515   0.146   5.922   5.163  1.6508 -1.2535 -1.4960
  506ACTN    H5 5516   0.068   5.764   5.157  0.4720 -1.0041  1.4990
  506ACTN    C2 5517   0.184   5.793   5.337 -0.0061  1.0098  0.7369
  506ACTN    O1 5518   0.306   5.807   5.336 -0.0175 -0.0149  0.2502
  506ACTN    C1 5519   0.122   5.737   5.464 -0.7878  0.2386  0.6319
  506ACTN    H1 5520   0.124   5.815   5.540 -4.4473  0.8829  0.1895
  506ACTN    H2 5521   0.166   5.642   5.494 -3.3030 -0.8053  1.1436
  506ACTN    H3 5522   0.017   5.720   5.440 -1.3841  1.5310  2.2581
  507ACTN    H6 5523   5.396   2.270   4.504  0.7793  1.4155 -0.3289
  507ACTN    C3 5524   5.345   2.203   4.435  0.5746  0.6375  0.5571
  507ACTN    H4 5525   5.342   2.109   4.489  2.5260  0.3210  0.1603
  507ACTN    H5 5526   5.405   2.186   4.345  0.7576 -0.0613  0.8074
  507ACTN    C2 5527   5.200   2.258   4.399  0.6856  0.0981  0.7402
  507ACTN    O1 5528   5.161   2.366   4.449 -0.0047 -0.2710 -0.0349
  507ACTN    C1 5529   5.112   2.174   4.305  0.0361  0.2850 -0.1691
  507ACTN    H1 5530   5.181   2.149   4.225 -1.7730 -0.2383 -1.5934
  507ACTN    H2 5531   5.024   2.227   4.267 -1.2598  0.1102  2.4787
  507ACTN    H3 5532   5.071   2.081   4.345 -0.9330  1.1631  0.9135
  508ACTN    H6 5533   4.824   2.416   2.437 -0.0175 -0.8990 -0.0664
  508ACTN    C3 5534   4.741   2.446   2.373 -0.1888 -0.5416  0.3198
  508ACTN    H4 5535   4.682   2.529   2.412  0.3527 -0.5132  1.0804
  508ACTN    H5 5536   4.669   2.366   2.354  0.5725 -0.7767 -1.7757
  508ACTN    C2 5537   4.798   2.494   2.244 -0.1252  0.1034  0.2753
  508ACTN    O1 5538   4.857   2.602   2.239 -0.6289  0.3737 -0.1120
  508ACTN    C1 5539   4.765   2.413   2.120  0.3381  0.8170 -0.3321
  508ACTN    H1 5540   4.824   2.458   2.040  1.1651  0.3255 -0.0017
  508ACTN    H2 5541   4.660   2.427   2.096 -0.1283 -1.3019  0.4016
  508ACTN    H3 5542   4.787   2.308   2.139 -0.3985  1.0191  1.7659
  509ACTN    H6 5543   1.486   1.722   1.838 -2.2614  0.3937 -0.4723
  509ACTN    C3 5544   1.469   1.622   1.879  0.3587  0.0596 -0.1487
  509ACTN    H4 5545   1.363   1.605   1.860  0.5512  0.3302 -1.5378
  509ACTN    H5 5546   1.521   1.549   1.816  0.7281  0.6390 -0.5180
  509ACTN    C2 5547   1.515   1.614   2.025  0.6366 -0.3142 -0.4029
  509ACTN    O1 5548   1.503   1.715   2.101  0.1565 -0.3074  0.6673
  509ACTN    C1 5549   1.531   1.479   2.084  1.0527 -0.4048 -0.6732
  509ACTN    H1 5550   1.437   1.433   2.115  2.1902 -2.3061  0.0247
  509ACTN    H2 5551   1.599   1.488   2.168 -0.9651 -3.5443  1.4137
  509ACTN    H3 5552   1.563   1.406   2.010  0.3571 -1.9382  0.5079
  510ACTN    H6 5553   3.543   0.237   0.556  0.4493 -0.9525  0.5927
  510ACTN    C3 5554   3.542   0.346   0.565 -0.5557 -0.7975 -1.1209
  510ACTN    H4 5555   3.644   0.380   0.584 -1.1681 -0.0897  0.9260
  510ACTN    H5 5556   3.518   0.396   0.471  1.9522  3.0190  0.1956
  510ACTN    C2 5557   3.444   0.379   0.674 -0.3194 -0.4825 -0.8216
  510ACTN    O1 5558   3.346   0.443   0.646  0.4847  0.2932 -0.2186
  510ACTN    C1 5559   3.452   0.316   0.812  0.5389  0.2089 -0.4022
  510ACTN    H1 5560   3.382   0.354   0.885 -0.3167  0.2607 -1.2419
  510ACTN    H2 5561   3.552   0.337   0.850  0.0352  1.5976  0.1777
  510ACTN    H3 5562   3.425   0.211   0.798  0.1516  0.3365 -0.6156
  511ACTN    H6 5563   8.518   3.719   1.723  0.5217 -4.2823 -0.9288
  511ACTN    C3 5564   8.481   3.709   1.825  0.1836  0.1471 -0.5339
  511ACTN    H4 5565   8.469   3.601   1.836  1.8839  0.0631  0.8432
  511ACTN    H5 5566   8.564   3.740   1.889  0.6415 -1.5351 -0.2811
  511ACTN    C2 5567   8.355   3.773   1.863  0.1925  0.2141 -0.6075
  511ACTN    O1 5568   8.340   3.853   1.952  0.0582  1.0921 -0.4075
  511ACTN    C1 5569   8.229   3.722   1.801  0.1690  0.7533  0.1676
  511ACTN    H1 5570   8.232   3.758   1.698  1.7701 -1.3301 -0.5520
  511ACTN    H2 5571   8.139   3.762   1.847 -0.8698 -2.0991  0.7265
  511ACTN    H3 5572   8.212   3.614   1.800 -1.6972  1.0123 -1.5703
  512ACTN    H6 5573   8.611   2.804   3.409  1.1072 -0.0591  0.5261
  512ACTN    C3 5574   8.601   2.696   3.398  0.2724  0.0220  0.5170
  512ACTN    H4 5575   8.615   2.655   3.497  0.3237 -1.2359  0.0009
  512ACTN    H5 5576   8.493   2.682   3.389  0.1113  0.1428  2.2170
  512ACTN    C2 5577   8.687   2.632   3.294 -0.7520 -0.2740  0.1584
  512ACTN    O1 5578   8.656   2.577   3.192  0.0276  0.3784 -0.7356
  512ACTN    C1 5579   8.830   2.660   3.325 -0.0615 -0.2129  0.2689
  512ACTN    H1 5580   8.901   2.615   3.254  2.2576  2.9339  0.4912
  512ACTN    H2 5581   8.854   2.620   3.423  0.6343  1.4638  0.7920
  512ACTN    H3 5582   8.856   2.765   3.326  2.4048 -0.7392 -1.9937
  513ACTN    H6 5583   1.526   6.302   1.653  0.4865  1.1644 -0.9424
  513ACTN    C3 5584   1.425   6.289   1.615  0.4483 -0.7499 -0.2838
  513ACTN    H4 5585   1.375   6.199   1.651  0.1528  0.0903  1.4699
  513ACTN    H5 5586   1.370   6.366   1.670 -1.6228 -1.6142 -1.1131
  513ACTN    C2 5587   1.405   6.306   1.469 -0.3130  0.2360 -0.4272
  513ACTN    O1 5588   1.290   6.290   1.426 -0.8926 -0.6149 -0.2362
  513ACTN    C1 5589   1.527   6.315   1.389  0.8894  0.2483 -0.3320
  513ACTN    H1 5590   1.594   6.391   1.430  0.9607 -0.4031  0.7725
  513ACTN    H2 5591   1.510   6.354   1.289 -0.6475  1.7864  0.4990
  513ACTN    H3 5592   1.587   6.224   1.384  1.5171  0.6230  0.2694
  514ACTN    H6 5593   5.124   5.434   2.239 -0.9739 -0.4096 -3.8606
  514ACTN    C3 5594   5.214   5.373   2.235 -0.0899  0.6057 -0.7583
  514ACTN    H4 5595   5.259   5.371   2.334 -0.7037  2.4269 -0.4214
  514ACTN    H5 5596   5.285   5.427   2.173 -1.7385 -0.1077 -3.3854
  514ACTN    C2 5597   5.185   5.231   2.192  0.1629  0.3820 -0.3276
  514ACTN    O1 5598   5.116   5.158   2.263 -0.3382  0.1441  0.0792
  514ACTN    C1 5599   5.258   5.176   2.065 -1.0553  0.1400  0.1519
  514ACTN    H1 5600   5.189   5.103   2.025 -0.4479  0.0595 -0.7448
  514ACTN    H2 5601   5.356   5.141   2.097 -0.1637  1.1117 -1.4462
  514ACTN    H3 5602   5.281   5.262   2.001  2.1319  0.7030  1.9503
  515ACTN    H6 5603   3.617   7.619   3.835 -0.2117 -0.0162 -2.3033
  515ACTN    C3 5604   3.525   7.675   3.817 -0.7488 -0.2397 -0.4361
  515ACTN    H4 5605   3.437   7.615   3.795 -1.6296  1.4521 -1.6707
  515ACTN    H5 5606   3.507   7.744   3.899  1.7069  1.6307 -1.3987
  515ACTN    C2 5607   3.555   7.764   3.698 -0.5128  0.0754 -0.1494
  515ACTN    O1 5608   3.665   7.756   3.645  0.1188  0.5507 -0.1147
  515ACTN    C1 5609   3.444   7.855   3.652 -0.3976 -0.1003 -0.7642
  515ACTN    H1 5610   3.395   7.895   3.741  2.3544  0.8409  0.3757
  515ACTN    H2 5611   3.364   7.810   3.593 -2.6938  0.4644  1.7911
  515ACTN    H3 5612   3.477   7.949   3.608  1.1535 -0.2603  0.0273
  516ACTN    H6 5613   3.085   8.737   3.433  0.2801 -1.5587  1.3232
  516ACTN    C3 5614   3.137   8.677   3.358 -0.5257 -0.1395 -0.4154
  516ACTN    H4 5615   3.062   8.640   3.289 -1.2565 -0.1808  0.3872
  516ACTN    H5 5616   3.209   8.744   3.311  0.0350 -1.0267 -0.8380
  516ACTN    C2 5617   3.186   8.551   3.427 -0.1092  0.7442 -0.3447
  516ACTN    O1 5618   3.305   8.526   3.440 -0.7138 -0.4989  0.0955
  516ACTN    C1 5619   3.086   8.443   3.455 -0.0542  0.4118 -0.3343
  516ACTN    H1 5620   3.045   8.404   3.361 -0.9440  1.2255 -0.2931
  516ACTN    H2 5621   3.000   8.484   3.508 -1.6739 -0.8525 -1.9237
  516ACTN    H3 5622   3.132   8.366   3.517 -0.9978  0.8087  0.8829
  517ACTN    H6 5623   6.337   3.904   0.547 -0.7250 -0.9082  0.8399
  517ACTN    C3 5624   6.368   3.867   0.645  0.3067 -0.4668  0.6872
  517ACTN    H4 5625   6.474   3.889   0.661  0.4282 -0.8021  0.3457
  517ACTN    H5 5626   6.313   3.911   0.728  2.6187  0.3551  1.8331
  517ACTN    C2 5627   6.339   3.717   0.652  0.2115  0.9389 -0.1499
  517ACTN    O1 5628   6.254   3.660   0.584 -0.6712 -0.0209 -0.0272
  517ACTN    C1 5629   6.431   3.637   0.729  0.1858  0.0269  0.2047
  517ACTN    H1 5630   6.421   3.650   0.836  1.1243  0.9015  0.1887
  517ACTN    H2 5631   6.534   3.662   0.703  0.3778  0.6042  1.5271
  517ACTN    H3 5632   6.413   3.532   0.706  0.4475  0.4744 -2.1961
  518ACTN    H6 5633   5.926   8.138   5.840  0.9773  1.5118 -0.4562
  518ACTN    C3 5634   5.929   8.115   5.947  0.2193 -0.1743 -0.7795
  518ACTN    H4 5635   6.001   8.172   6.006 -0.1097  0.4051 -0.9364
  518ACTN    H5 5636   5.828   8.114   5.988  0.2340 -0.0364 -0.7409
  518ACTN    C2 5637   6.004   7.984   5.957 -0.3807 -0.5047  0.3052
  518ACTN    O1 5638   5.986   7.925   6.060  0.0725  0.2650  0.2081
  518ACTN    C1 5639   6.130   7.961   5.865  0.1359 -0.1557 -0.2211
  518ACTN    H1 5640   6.176   7.868   5.896  1.1498 -0.1281 -1.5800
  518ACTN    H2 5641   6.198   8.046   5.875 -0.3010 -0.0743  2.4954
  518ACTN    H3 5642   6.100   7.945   5.761 -1.2673 -1.5382  0.3836
  519ACTN    H6 5643   0.291   7.540   8.690  1.4766  0.0507 -1.3873
  519ACTN    C3 5644   0.257   7.453   8.635  0.1909 -0.6280  0.4304
  519ACTN    H4 5645   0.259   7.370   8.706  1.5201  0.1809  1.3444
  519ACTN    H5 5646   0.155   7.454   8.597 -0.9242  2.5299  3.3887
  519ACTN    C2 5647   0.345   7.442   8.520  0.0609 -0.5413 -0.6255
  519ACTN    O1 5648   0.464   7.451   8.539 -0.2782 -0.0809  0.3846
  519ACTN    C1 5649   0.299   7.403   8.381  0.3428  0.0479  0.1702
  519ACTN    H1 5650   0.287   7.295   8.372 -0.7190 -0.0077  2.1512
  519ACTN    H2 5651   0.375   7.433   8.308  1.0017 -0.9922  0.4092
  519ACTN    H3 5652   0.210   7.451   8.339  1.5504  1.3293 -1.0039
  520ACTN    H6 5653   8.120   2.285   5.619 -2.7889 -0.1665  0.1012
  520ACTN    C3 5654   8.125   2.374   5.682 -0.7214 -0.0886 -0.1251
  520ACTN    H4 5655   8.160   2.454   5.617 -1.2392 -1.2357 -1.8614
  520ACTN    H5 5656   8.027   2.396   5.725 -0.8725  0.2473 -0.6329
  520ACTN    C2 5657   8.223   2.351   5.799 -0.1063 -0.5177  0.2080
  520ACTN    O1 5658   8.282   2.244   5.806 -0.5239 -0.1109 -0.2505
  520ACTN    C1 5659   8.246   2.466   5.896  1.1548 -0.3489 -0.0743
  520ACTN    H1 5660   8.320   2.538   5.862 -0.5919  1.9638  0.9016
  520ACTN    H2 5661   8.281   2.428   5.992 -0.6274 -1.1483  0.2689
  520ACTN    H3 5662   8.153   2.520   5.917  1.8665 -0.1393  2.7870
  521ACTN    H6 5663   5.818   2.714   1.234 -1.8302  0.1734 -2.7673
  521ACTN    C3 5664   5.852   2.613   1.211 -0.5562 -0.1358  0.2557
  521ACTN    H4 5665   5.955   2.614   1.176 -1.1858  0.1524 -1.6360
  521ACTN    H5 5666   5.844   2.560   1.306 -3.6125 -1.5602 -0.7322
  521ACTN    C2 5667   5.750   2.557   1.116  0.5954  1.1262 -0.1696
  521ACTN    O1 5668   5.666   2.485   1.170 -0.1032  0.2972  0.0465
  521ACTN    C1 5669   5.788   2.548   0.969  0.8339  0.3891 -0.1608
  521ACTN    H1 5670   5.771   2.644   0.921  0.4357 -0.8322 -2.5278
  521ACTN    H2 5671   5.734   2.471   0.914  0.0092  1.6534 -1.1629
  521ACTN    H3 5672   5.891   2.518   0.949  0.3844 -0.6391 -0.9874
  522ACTN    H6 5673   5.276   7.745   5.446  0.6420  0.4414  0.7599
  522ACTN    C3 5674   5.364   7.752   5.382  0.0170  0.5140 -0.1004
  522ACTN    H4 5675   5.330   7.744   5.278 -0.6837 -1.4310  0.2630
  522ACTN    H5 5676   5.404   7.853   5.394 -0.4990  0.7849 -0.6194
  522ACTN    C2 5677   5.469   7.647   5.405 -0.2161  0.0152 -0.1767
  522ACTN    O1 5678   5.553   7.670   5.493 -0.3084  0.1563  0.3829
  522ACTN    C1 5679   5.466   7.511   5.337  0.2531  0.0305  0.7244
  522ACTN    H1 5680   5.477   7.434   5.414  0.2112 -1.3557 -0.6428
  522ACTN    H2 5681   5.521   7.493   5.245  1.5379 -0.6995  1.6287
  522ACTN    H3 5682   5.361   7.497   5.313  0.0525 -0.6875  1.9552
  523ACTN    H6 5683   4.824   7.910   5.007 -0.5184  1.7290 -0.6937
  523ACTN    C3 5684   4.888   7.936   4.924  0.1928  0.7727 -0.4590
  523ACTN    H4 5685   4.953   8.013   4.966 -2.2740  2.1217  0.9850
  523ACTN    H5 5686   4.950   7.850   4.898  1.8521  0.8670  2.9164
  523ACTN    C2 5687   4.797   7.971   4.805  0.4760  0.4501 -0.2835
  523ACTN    O1 5688   4.842   8.037   4.713  0.1562 -1.0042  0.6186
  523ACTN    C1 5689   4.649   7.959   4.817  0.0174  0.3438 -0.3065
  523ACTN    H1 5690   4.618   7.927   4.916 -0.4333  0.7780 -0.3028
  523ACTN    H2 5691   4.610   7.883   4.749  0.0126  0.0001  0.0877
  523ACTN    H3 5692   4.601   8.057   4.803 -1.3616  0.1258  2.5880
  524ACTN    H6 5693   5.127   0.294   3.880  0.9206  0.4168  2.0033
  524ACTN    C3 5694   5.036   0.279   3.939 -0.5928 -0.2561 -0.3901
  524ACTN    H4 5695   4.964   0.266   3.859 -0.8665 -1.8168  0.0975
  524ACTN    H5 5696   5.002   0.371   3.987  0.6299 -0.2539  0.5229
  524ACTN    C2 5697   5.035   0.149   4.024  0.4505 -0.1033  0.0882
  524ACTN    O1 5698   5.042   0.034   3.973 -0.1192  0.3355  0.0677
  524ACTN    C1 5699   5.024   0.175   4.166 -0.0466 -0.2025  0.2707
  524ACTN    H1 5700   5.099   0.112   4.214  0.8623  2.0326  1.9075
  524ACTN    H2 5701   4.926   0.145   4.203 -1.2216  0.1465 -2.4760
  524ACTN    H3 5702   5.035   0.279   4.196 -1.0110 -0.1302  0.3790
  525ACTN    H6 5703   0.889   8.555   2.936 -1.2186 -1.4237  1.9730
  525ACTN    C3 5704   0.878   8.640   3.003 -0.9764  0.0274  0.1867
  525ACTN    H4 5705   0.958   8.709   2.976 -1.9975  1.0404 -0.2923
  525ACTN    H5 5706   0.784   8.695   2.996 -1.2053 -0.4368 -0.3540
  525ACTN    C2 5707   0.913   8.605   3.143 -0.0449 -0.3741  0.6087
  525ACTN    O1 5708   0.827   8.540   3.201 -0.6011 -0.9213  0.0574
  525ACTN    C1 5709   1.019   8.672   3.215  0.0660  0.0620  0.1600
  525ACTN    H1 5710   1.036   8.776   3.187  1.1161 -0.4173 -1.0247
  525ACTN    H2 5711   1.110   8.616   3.196  1.2324  1.8729  0.2696
  525ACTN    H3 5712   0.995   8.665   3.322 -0.8734 -1.0276 -0.1156
  526ACTN    H6 5713   6.290   3.714   4.498  1.0717 -1.5108  0.4756
  526ACTN    C3 5714   6.392   3.746   4.481  0.5014  0.4094  0.5287
  526ACTN    H4 5715   6.438   3.649   4.461 -2.1020 -0.8533  0.4402
  526ACTN    H5 5716   6.392   3.808   4.391  1.4697  0.4252  0.5312
  526ACTN    C2 5717   6.449   3.812   4.599 -0.0884  0.0097  0.0104
  526ACTN    O1 5718   6.574   3.821   4.602  0.1760  0.7807 -0.3910
  526ACTN    C1 5719   6.370   3.925   4.656 -0.7570  0.0875 -0.5429
  526ACTN    H1 5720   6.369   4.011   4.589 -1.7779  0.5665  0.0699
  526ACTN    H2 5721   6.410   3.960   4.752 -0.4526 -2.3808  0.2620
  526ACTN    H3 5722   6.269   3.887   4.672  0.7850 -3.9569  0.2350
  527ACTN    H6 5723   3.154   0.222   4.672  1.2952 -2.0774  2.3008
  527ACTN    C3 5724   3.172   0.314   4.727  0.4072 -0.0759 -0.6291
  527ACTN    H4 5725   3.237   0.379   4.669 -0.2580  1.2139  0.0413
  527ACTN    H5 5726   3.075   0.362   4.741  0.8385  0.2683  1.3092
  527ACTN    C2 5727   3.238   0.302   4.863  0.5638 -0.2365 -0.1362
  527ACTN    O1 5728   3.194   0.360   4.962 -0.2654  0.2518 -0.2147
  527ACTN    C1 5729   3.373   0.234   4.866  0.8847 -0.3556  0.1555
  527ACTN    H1 5730   3.377   0.162   4.948  3.5091  0.5967  0.9233
  527ACTN    H2 5731   3.454   0.306   4.883  0.6582 -0.4476  1.6867
  527ACTN    H3 5732   3.389   0.177   4.775 -1.3862  0.3937 -0.7340
  528ACTN    H6 5733   7.917   8.153   3.099  0.0927 -3.7632 -0.9927
  528ACTN    C3 5734   7.887   8.192   3.002  0.2467  0.2064  0.4502
  528ACTN    H4 5735   7.907   8.298   2.986 -0.1521  0.3330  0.7697
  528ACTN    H5 5736   7.947   8.127   2.937  0.5267  0.3345  0.5830
  528ACTN    C2 5737   7.742   8.151   2.973 -0.7649  0.2634  0.0700
  528ACTN    O1 5738   7.666   8.120   3.060  0.5985 -0.3753  0.6108
  528ACTN    C1 5739   7.697   8.185   2.826  0.5619 -0.2992  0.0488
  528ACTN    H1 5740   7.675   8.098   2.765 -0.0970 -0.2043  0.1505
  528ACTN    H2 5741   7.776   8.237   2.773  1.3711 -2.3370 -0.8042
  528ACTN    H3 5742   7.611   8.250   2.835  1.7999  1.0464  2.8797
  529ACTN    H6 5743   4.389   0.919   2.776 -2.2645 -1.8379 -0.6639
  529ACTN    C3 5744   4.466   0.856   2.731  0.6229  0.8749  0.2346
  529ACTN    H4 5745   4.562   0.874   2.778  1.5312 -2.1843 -0.3531
  529ACTN    H5 5746   4.472   0.892   2.628  0.8474  2.1290  0.6719
  529ACTN    C2 5747   4.428   0.714   2.737 -0.6947  0.1989  0.7439
  529ACTN    O1 5748   4.466   0.646   2.829  0.7262  0.0625 -0.0412
  529ACTN    C1 5749   4.341   0.654   2.627  0.3373  0.3162 -0.2511
  529ACTN    H1 5750   4.384   0.566   2.579 -0.8763 -0.5199  0.1438
  529ACTN    H2 5751   4.331   0.721   2.542  1.1295  0.6515 -0.0848
  529ACTN    H3 5752   4.243   0.619   2.662  1.1438 -0.7867  0.9616
  530ACTN    H6 5753   8.838   1.228   8.857  1.3145 -0.6322 -0.4943
  530ACTN    C3 5754   8.805   1.196   8.955  0.4800  0.0772 -0.5315
  530ACTN    H4 5755   8.701   1.227   8.962  0.5811  0.7754 -2.1302
  530ACTN    H5 5756   8.813   1.087   8.950 -3.2359 -0.3744  1.5456
  530ACTN    C2 5757   8.893   1.240   9.064 -0.0318 -0.4740  0.2708
  530ACTN    O1 5758   8.904   1.181   9.171  0.0561 -0.0890 -0.1693
  530ACTN    C1 5759   9.008   1.341   9.035 -0.1578  0.0139 -0.1626
  530ACTN    H1 5760   9.099   1.280   9.038 -0.3052 -0.1926  0.2598
  530ACTN    H2 5761   9.024   1.414   9.114 -1.7541  1.1869 -0.8861
  530ACTN    H3 5762   8.996   1.396   8.942 -1.7304  1.6237  0.9593
  531ACTN    H6 5763   7.099   6.064   0.670 -0.3343  0.7226 -1.4336
  531ACTN    C3 5764   7.012   6.006   0.700  0.4460  0.3250  0.1433
  531ACTN    H4 5765   6.939   6.076   0.740 -1.3361 -1.0084 -0.7021
  531ACTN    H5 5766   6.978   5.962   0.605 -2.4467  1.1788  0.7274
  531ACTN    C2 5767   7.047   5.890   0.792  0.4280  0.5692 -0.1039
  531ACTN    O1 5768   7.152   5.827   0.785 -0.2644 -0.0102  0.0383
  531ACTN    C1 5769   6.961   5.877   0.915 -0.3773  0.1082 -0.4514
  531ACTN    H1 5770   7.020   5.892   1.006  0.6257 -0.0744 -1.0610
  531ACTN    H2 5771   6.917   5.778   0.921 -0.4662  0.1218 -0.8451
  531ACTN    H3 5772   6.880   5.948   0.905 -0.8374 -0.1385  1.3891
  532ACTN    H6 5773   5.624   7.087   7.391  1.9115  0.2753 -1.1758
  532ACTN    C3 5774   5.664   7.001   7.445  0.4325 -0.0533 -0.5792
  532ACTN    H4 5775   5.770   7.004   7.420  0.6595 -0.5399  0.3153
  532ACTN    H5 5776   5.654   7.016   7.552 -0.5073  0.7954 -0.7783
  532ACTN    C2 5777   5.593   6.873   7.405 -0.6601 -0.0046  0.4316
  532ACTN    O1 5778   5.644   6.769   7.448  0.1886  0.1464  0.0369
  532ACTN    C1 5779   5.459   6.879   7.346  0.1885  0.2158 -0.4520
  532ACTN    H1 5780   5.468   6.816   7.257  3.9664 -0.6028  0.4364
  532ACTN    H2 5781   5.442   6.983   7.320 -0.3458  0.4128  0.6415
  532ACTN    H3 5782   5.384   6.852   7.421  0.9592 -0.5270  0.0630
  533ACTN    H6 5783   4.976   3.470   3.640 -0.3800 -0.1043  0.2848
  533ACTN    C3 5784   5.049   3.440   3.564 -0.5617  0.2442 -0.0304
  533ACTN    H4 5785   5.118   3.374   3.617 -0.2789  0.9590  0.5042
  533ACTN    H5 5786   5.002   3.396   3.476 -1.4927  1.3048 -0.0885
  533ACTN    C2 5787   5.114   3.573   3.529  0.1388  0.5080 -0.6579
  533ACTN    O1 5788   5.145   3.660   3.609  0.7635  0.0354  0.1196
  533ACTN    C1 5789   5.164   3.597   3.394 -0.8362 -0.3088  0.5247
  533ACTN    H1 5790   5.234   3.678   3.373  2.1299 -2.7265  0.6340
  533ACTN    H2 5791   5.074   3.614   3.335  0.0671  0.2967 -0.7096
  533ACTN    H3 5792   5.205   3.505   3.353 -0.2264  0.1642  0.0575
  534ACTN    H6 5793   7.017   0.831   5.499 -0.2849 -2.0673  0.6593
  534ACTN    C3 5794   6.945   0.862   5.574 -0.0802  0.2358 -0.0573
  534ACTN    H4 5795   6.847   0.870   5.527 -2.2351  0.9256  4.3120
  534ACTN    H5 5796   6.934   0.775   5.638  4.7473 -1.0091 -0.7459
  534ACTN    C2 5797   6.972   0.985   5.660 -1.4107 -0.1057 -0.3529
  534ACTN    O1 5798   7.026   0.972   5.767 -0.1590  0.0958  0.2867
  534ACTN    C1 5799   6.923   1.117   5.629  0.0471 -0.1578 -0.2742
  534ACTN    H1 5800   6.874   1.170   5.712  1.4077  1.4955 -0.4993
  534ACTN    H2 5801   6.863   1.115   5.538 -1.0117 -1.6201  0.4287
  534ACTN    H3 5802   7.010   1.176   5.603 -0.1390 -0.9141 -2.7264
  535ACTN    H6 5803   1.852   8.967   3.405  0.8240  0.7933  1.5033
  535ACTN    C3 5804   1.751   8.931   3.427  0.8949 -0.1537  0.3220
  535ACTN    H4 5805   1.727   8.925   3.533 -2.4059 -1.6258 -0.4779
  535ACTN    H5 5806   1.683   9.006   3.388  0.9840  0.2008  0.8402
  535ACTN    C2 5807   1.712   8.800   3.364 -0.2405 -0.2803  0.2717
  535ACTN    O1 5808   1.591   8.774   3.347  1.0677 -0.0348 -0.0656
  535ACTN    C1 5809   1.811   8.706   3.298 -0.2422  0.1910  0.3719
  535ACTN    H1 5810   1.858   8.756   3.214  1.5681 -3.0612 -0.6700
  535ACTN    H2 5811   1.762   8.618   3.258 -1.2223  0.2745  1.3674
  535ACTN    H3 5812   1.885   8.659   3.364  0.0559  2.7850  1.9211
  536ACTN    H6 5813   3.964   6.446   3.985 -1.3125 -0.9316  2.9456
  536ACTN    C3 5814   4.036   6.503   4.045  0.3844  0.1344  0.0270
  536ACTN    H4 5815   4.067   6.587   3.982 -0.1247  1.0268  0.9702
  536ACTN    H5 5816   3.990   6.542   4.135 -2.1267  0.5362 -1.3965
  536ACTN    C2 5817   4.155   6.419   4.081  0.0184 -0.4394 -0.4973
  536ACTN    O1 5818   4.143   6.297   4.085 -0.0487 -0.4288 -0.5037
  536ACTN    C1 5819   4.277   6.489   4.130  0.0403  0.5883 -0.0652
  536ACTN    H1 5820   4.350   6.410   4.113  0.5540  1.0216  0.1117
  536ACTN    H2 5821   4.268   6.509   4.237 -0.5561 -0.8839  0.1721
  536ACTN    H3 5822   4.301   6.576   4.068  0.4816  0.2145 -0.4170
  537ACTN    H6 5823   4.702   4.686   8.267 -0.8447  0.3227  2.5688
  537ACTN    C3 5824   4.786   4.753   8.285 -0.7010  0.7970  0.3225
  537ACTN    H4 5825   4.754   4.856   8.303  1.2507  1.2839  1.0634
  537ACTN    H5 5826   4.847   4.724   8.371 -1.9034 -1.1437  0.5507
  537ACTN    C2 5827   4.875   4.731   8.169 -0.0041  0.0209 -0.3459
  537ACTN    O1 5828   4.909   4.612   8.144  0.0134  0.3612  0.1825
  537ACTN    C1 5829   4.906   4.839   8.077 -0.8927 -1.0317  0.2650
  537ACTN    H1 5830   4.818   4.900   8.056  0.7776  2.2815  2.5976
  537ACTN    H2 5831   4.942   4.786   7.989 -1.0349 -2.7672  1.2308
  537ACTN    H3 5832   4.982   4.906   8.116 -1.3094  0.2049 -0.9693
  538ACTN    H6 5833   7.939   2.772   3.960  4.0942 -0.7229 -1.0375
  538ACTN    C3 5834   7.935   2.857   3.891  0.0347  0.5837  0.6627
  538ACTN    H4 5835   7.947   2.952   3.943  2.2884  0.5696  0.2137
  538ACTN    H5 5836   8.012   2.844   3.815 -1.7157 -0.6594 -0.9797
  538ACTN    C2 5837   7.797   2.868   3.823  0.4709 -0.3075 -0.2066
  538ACTN    O1 5838   7.758   2.974   3.782  0.0122  0.3458 -0.0482
  538ACTN    C1 5839   7.701   2.757   3.833  0.7366  0.3195  0.6105
  538ACTN    H1 5840   7.596   2.783   3.851  0.8565  0.8258  0.5770
  538ACTN    H2 5841   7.744   2.696   3.913  0.7626  0.3142  0.5923
  538ACTN    H3 5842   7.704   2.691   3.746 -0.5311  2.6820 -1.2688
  539ACTN    H6 5843   2.126   5.603   6.562  0.0951  0.4727  0.1366
  539ACTN    C3 5844   2.135   5.496   6.578  0.5098  0.4419 -0.3069
  539ACTN    H4 5845   2.041   5.444   6.562  0.9064 -0.4522  0.1920
  539ACTN    H5 5846   2.215   5.462   6.511 -0.5335  2.1077 -2.4588
  539ACTN    C2 5847   2.179   5.472   6.716 -0.6149  0.4267  0.0603
  539ACTN    O1 5848   2.180   5.353   6.753 -0.4821  0.3576  0.2077
  539ACTN    C1 5849   2.249   5.584   6.784 -0.2288 -0.0400 -0.2262
  539ACTN    H1 5850   2.343   5.608   6.734  1.0270  0.9554  2.4752
  539ACTN    H2 5851   2.287   5.564   6.884  1.8101 -0.0595 -0.9859
  539ACTN    H3 5852   2.187   5.674   6.788  0.9985  0.7806  1.1111
  540ACTN    H6 5853   5.398   8.391   5.073  1.6834  1.3649 -1.0047
  540ACTN    C3 5854   5.467   8.383   5.157  0.0714  0.5242  0.2687
  540ACTN    H4 5855   5.542   8.461   5.142  0.9614  0.1351  2.4745
  540ACTN    H5 5856   5.412   8.408   5.248  0.3147 -0.2573  0.6331
  540ACTN    C2 5857   5.538   8.250   5.170  0.6430 -0.1984  0.1594
  540ACTN    O1 5858   5.489   8.156   5.105  0.5339  0.3963  1.0475
  540ACTN    C1 5859   5.681   8.254   5.221  1.3775  0.1137  0.6595
  540ACTN    H1 5860   5.685   8.308   5.315  2.1317  0.2615  0.5500
  540ACTN    H2 5861   5.739   8.317   5.153 -1.4202  1.0580 -0.9585
  540ACTN    H3 5862   5.724   8.156   5.240  1.2193  0.0407  0.6419
  541ACTN    H6 5863   1.633   0.714   8.151  0.2222 -0.9972 -1.4147
  541ACTN    C3 5864   1.696   0.627   8.169  0.1127 -0.7720  0.0445
  541ACTN    H4 5865   1.711   0.572   8.076 -2.2633 -2.4381  0.5964
  541ACTN    H5 5866   1.656   0.559   8.245 -1.2866 -0.6757 -0.5925
  541ACTN    C2 5867   1.835   0.672   8.213 -0.3224 -0.3569 -0.2564
  541ACTN    O1 5868   1.912   0.699   8.122 -0.3225  0.1933  0.2151
  541ACTN    C1 5869   1.849   0.731   8.353  0.3443  0.6417 -0.0298
  541ACTN    H1 5870   1.856   0.641   8.412  1.9971 -0.8890 -2.4534
  541ACTN    H2 5871   1.761   0.787   8.384  1.0705  1.4456  0.6183
  541ACTN    H3 5872   1.940   0.788   8.372  0.8938  0.1753 -1.2119
  542ACTN    H6 5873   4.108   1.664   6.460 -0.4590  0.9873 -0.9249
  542ACTN    C3 5874   4.011   1.614   6.466 -0.0103  0.1311 -0.7099
  542ACTN    H4 5875   3.933   1.689   6.449 -2.9885 -2.4245  1.2432
  542ACTN    H5 5876   4.002   1.535   6.391 -2.9335 -1.0174  0.7865
  542ACTN    C2 5877   3.985   1.545   6.597  0.4968  0.1352 -0.2534
  542ACTN    O1 5878   3.980   1.593   6.708 -0.1273  0.2921 -0.0108
  542ACTN    C1 5879   3.968   1.397   6.588  0.6163  0.5279  0.3622
  542ACTN    H1 5880   3.893   1.373   6.512  1.3355  2.2959 -0.9472
  542ACTN    H2 5881   3.939   1.340   6.676 -0.7912  1.1008  0.2808
  542ACTN    H3 5882   4.062   1.358   6.549 -0.9644 -1.5611 -1.5292
  543ACTN    H6 5883   1.144   4.177   3.953 -0.6145  0.3334 -0.5713
  543ACTN    C3 5884   1.213   4.233   3.890 -0.0293  1.4027  0.9754
  543ACTN    H4 5885   1.205   4.337   3.920  0.7513  1.8683 -0.3936
  543ACTN    H5 5886   1.315   4.201   3.912 -0.0931 -1.2907 -2.1463
  543ACTN    C2 5887   1.176   4.208   3.747 -0.1370 -0.1829 -0.0336
  543ACTN    O1 5888   1.219   4.116   3.684  0.4845  0.4564 -0.1445
  543ACTN    C1 5889   1.084   4.306   3.685  0.0264 -0.3483 -0.1067
  543ACTN    H1 5890   1.035   4.276   3.592 -0.7974 -0.6152  0.4058
  543ACTN    H2 5891   1.141   4.395   3.658 -1.6450  0.3869 -1.3197
  543ACTN    H3 5892   1.002   4.338   3.751 -1.1661 -1.0843 -1.2036
  544ACTN    H6 5893   5.595   2.941   4.904  2.1884 -0.4347  0.8145
  544ACTN    C3 5894   5.596   3.046   4.932 -0.4403 -0.1103 -0.2276
  544ACTN    H4 5895   5.699   3.079   4.914  0.0671 -0.7412  1.4965
  544ACTN    H5 5896   5.532   3.101   4.862  1.8298 -1.6440 -3.6280
  544ACTN    C2 5897   5.554   3.089   5.067  0.3100 -0.3628 -0.1742
  544ACTN    O1 5898   5.504   3.011   5.152  0.4513 -0.4559 -0.3389
  544ACTN    C1 5899   5.545   3.234   5.098 -0.0777  0.1490  0.8260
  544ACTN    H1 5900   5.644   3.277   5.083 -0.7072  1.0289 -0.9498
  544ACTN    H2 5901   5.499   3.240   5.197  0.8970 -2.0416  1.4395
  544ACTN    H3 5902   5.481   3.285   5.026  0.2027  2.9434  2.4779
  545ACTN    H6 5903   6.644   1.613   2.915  2.3841 -0.8806  2.0390
  545ACTN    C3 5904   6.579   1.546   2.972 -0.0925 -0.0607  0.2802
  545ACTN    H4 5905   6.630   1.497   3.055 -0.3449 -0.2297  0.3348
  545ACTN    H5 5906   6.510   1.616   3.019  1.3142  1.0603  0.7210
  545ACTN    C2 5907   6.506   1.455   2.878  0.5190  0.1792 -0.1177
  545ACTN    O1 5908   6.553   1.420   2.775  0.1208  0.0004  0.3652
  545ACTN    C1 5909   6.386   1.388   2.938  0.1147  0.1072 -0.2813
  545ACTN    H1 5910   6.396   1.281   2.916 -0.9372 -0.6431  2.6213
  545ACTN    H2 5911   6.292   1.421   2.894  0.0292  1.7411  1.0995
  545ACTN    H3 5912   6.388   1.393   3.047 -0.0403 -1.2092 -0.2018
  546ACTN    H6 5913   0.034   4.410   7.038 -0.3825  0.5607  2.2225
  546ACTN    C3 5914   0.007   4.312   7.078  0.1111 -0.6880 -0.4075
  546ACTN    H4 5915  -0.016   4.336   7.181  1.8432  1.2439 -0.4267
  546ACTN    H5 5916   0.086   4.239   7.059 -0.8378 -1.7488 -0.3030
  546ACTN    C2 5917  -0.120   4.265   7.010  0.3230 -0.3125  0.6273
  546ACTN    O1 5918  -0.145   4.313   6.901 -0.3155  0.0787  0.1453
  546ACTN    C1 5919  -0.183   4.141   7.065 -0.0672 -0.2119 -0.3634
  546ACTN    H1 5920  -0.285   4.169   7.094 -0.4199 -0.5234 -1.3017
  546ACTN    H2 5921  -0.137   4.113   7.160  0.0028  0.2443 -0.2606
  546ACTN    H3 5922  -0.192   4.059   6.994  0.1790 -0.4502 -0.1214
  547ACTN    H6 5923   2.912   5.039   1.708 -1.0777 -0.2052  3.3652
  547ACTN    C3 5924   2.932   5.146   1.715 -0.3633 -0.0367 -0.2338
  547ACTN    H4 5925   3.040   5.153   1.715 -0.3836  0.9391  2.7456
  547ACTN    H5 5926   2.892   5.194   1.626 -2.7840 -0.5930  0.4904
  547ACTN    C2 5927   2.881   5.207   1.840 -0.3348  0.5409 -0.2582
  547ACTN    O1 5928   2.808   5.146   1.917  0.5675  0.0769  0.4426
  547ACTN    C1 5929   2.964   5.322   1.890  0.2308 -0.4064  0.6017
  547ACTN    H1 5930   2.983   5.388   1.806  0.4202  1.1664  1.8629
  547ACTN    H2 5931   3.051   5.279   1.940 -0.5164 -2.8401 -0.1317
  547ACTN    H3 5932   2.912   5.381   1.965 -0.7551 -0.0003 -0.3857
  548ACTN    H6 5933   6.208   3.013   4.494 -0.2601 -0.1182 -1.4802
  548ACTN    C3 5934   6.182   2.917   4.449 -0.8173 -0.4657 -0.4457
  548ACTN    H4 5935   6.182   2.843   4.529 -0.5179 -0.5044 -0.4780
  548ACTN    H5 5936   6.082   2.924   4.406 -0.5838  2.3623 -0.6615
  548ACTN    C2 5937   6.299   2.889   4.365  1.1798  0.5601  0.7037
  548ACTN    O1 5938   6.279   2.847   4.250 -0.3066 -0.2123  0.1098
  548ACTN    C1 5939   6.431   2.872   4.423  0.1813  0.2878  0.3979
  548ACTN    H1 5940   6.413   2.814   4.514  0.8525  1.3589  1.2426
  548ACTN    H2 5941   6.465   2.970   4.457  1.2233 -0.5458  1.8190
  548ACTN    H3 5942   6.508   2.834   4.356 -1.9736 -0.3232 -1.7931
  549ACTN    H6 5943   4.332   2.565   6.068 -0.2976 -0.6048 -0.0975
  549ACTN    C3 5944   4.297   2.626   5.985  0.0769 -0.6340 -0.2793
  549ACTN    H4 5945   4.387   2.657   5.933  1.3200 -0.4254  1.9194
  549ACTN    H5 5946   4.231   2.574   5.916  1.0776  0.4273 -2.0867
  549ACTN    C2 5947   4.218   2.740   6.055  0.1291  0.0191  0.4393
  549ACTN    O1 5948   4.101   2.711   6.081 -0.0725  0.3097  0.0387
  549ACTN    C1 5949   4.252   2.877   6.039 -0.1627  0.1558 -0.5791
  549ACTN    H1 5950   4.237   2.904   5.934 -0.9028 -1.5272 -0.9191
  549ACTN    H2 5951   4.358   2.881   6.063 -0.0254 -2.2414 -0.6710
  549ACTN    H3 5952   4.192   2.939   6.105 -2.2657  0.6329 -2.8561
  550ACTN    H6 5953   6.939   6.788   5.020 -0.2863  2.1441 -0.9537
  550ACTN    C3 5954   6.892   6.785   4.922 -0.1051  0.4631 -0.9992
  550ACTN    H4 5955   6.871   6.887   4.892  2.9731  0.7158 -2.4668
  550ACTN    H5 5956   6.802   6.724   4.918  0.9946 -1.2363 -0.3746
  550ACTN    C2 5957   7.002   6.742   4.830 -0.0696 -0.7423  0.3857
  550ACTN    O1 5958   7.112   6.719   4.875 -0.3366 -0.0420  0.3306
  550ACTN    C1 5959   6.962   6.734   4.684 -0.2941 -0.0321  0.2842
  550ACTN    H1 5960   6.853   6.732   4.676 -0.2721  3.0179 -1.6756
  550ACTN    H2 5961   7.002   6.646   4.633 -0.6146 -1.7393  2.8866
  550ACTN    H3 5962   7.002   6.822   4.632  0.2858  0.8488  2.1900
  551ACTN    H6 5963   7.619   3.659   6.911 -1.4372 -1.7687  1.7793
  551ACTN    C3 5964   7.567   3.751   6.935 -0.5971 -0.9617  0.6163
  551ACTN    H4 5965   7.642   3.828   6.951 -0.5642 -0.9499  0.4110
  551ACTN    H5 5966   7.514   3.723   7.027 -1.1800 -0.8017  0.3325
  551ACTN    C2 5967   7.476   3.803   6.823  0.5759 -0.4147 -0.1264
  551ACTN    O1 5968   7.399   3.727   6.769  0.4700  0.2142 -0.0831
  551ACTN    C1 5969   7.506   3.933   6.768 -0.8353 -0.1507  0.6477
  551ACTN    H1 5970   7.503   4.012   6.843  1.7613  1.1191 -0.5504
  551ACTN    H2 5971   7.431   3.953   6.692 -0.3632 -1.8597 -0.3161
  551ACTN    H3 5972   7.602   3.926   6.717 -1.3187 -1.0232 -0.1700
  552ACTN    H6 5973   1.562   7.747   7.905 -2.9827 -1.7104  0.6174
  552ACTN    C3 5974   1.593   7.665   7.840 -0.0941 -0.0665 -0.1610
  552ACTN    H4 5975   1.563   7.573   7.891  0.5626 -2.2069 -3.5343
  552ACTN    H5 5976   1.528   7.668   7.753 -0.4305 -1.8876 -0.0039
  552ACTN    C2 5977   1.742   7.664   7.810  0.5502 -0.1630 -0.0672
  552ACTN    O1 5978   1.826   7.669   7.900  0.1486  0.7779  0.1798
  552ACTN    C1 5979   1.782   7.662   7.670  0.1721  0.4161 -0.0542
  552ACTN    H1 5980   1.705   7.643   7.595 -1.1240 -0.2845  1.4182
  552ACTN    H2 5981   1.843   7.572   7.663 -2.2801 -1.3678  0.7235
  552ACTN    H3 5982   1.839   7.750   7.642 -1.1628  1.3709  0.1917
  553ACTN    H6 5983   6.921   7.192   2.139 -0.3436 -0.8964 -0.0816
  553ACTN    C3 5984   6.916   7.295   2.103  0.5715 -0.7420  0.2219
  553ACTN    H4 5985   6.810   7.311   2.083  0.7774 -0.1831 -0.4005
  553ACTN    H5 5986   6.940   7.355   2.191  0.2183 -0.3469  0.0475
  553ACTN    C2 5987   6.994   7.330   1.989 -0.4067 -0.1978 -0.5926
  553ACTN    O1 5988   6.967   7.431   1.928  1.1080  0.1800  0.2611
  553ACTN    C1 5989   7.095   7.231   1.944  0.0064  0.8598  0.4577
  553ACTN    H1 5990   7.077   7.126   1.965 -2.5063  0.9296 -1.1211
  553ACTN    H2 5991   7.184   7.251   2.004  1.5082 -3.4734 -0.1122
  553ACTN    H3 5992   7.106   7.239   1.836 -0.5290  0.3388  0.3638
  554ACTN    H6 5993   8.740   8.664   5.539  0.3202  1.2106 -2.1629
  554ACTN    C3 5994   8.651   8.727   5.531 -0.5020  0.4474  0.2743
  554ACTN    H4 5995   8.565   8.660   5.533  2.0360 -3.1028 -1.9031
  554ACTN    H5 5996   8.654   8.766   5.429 -0.1514  0.3346  0.2401
  554ACTN    C2 5997   8.654   8.824   5.644 -0.6375 -0.2163 -0.0328
  554ACTN    O1 5998   8.667   8.783   5.755  0.6010  0.1171 -0.0713
  554ACTN    C1 5999   8.612   8.965   5.618 -0.5810  0.4029  0.7944
  554ACTN    H1 6000   8.704   9.023   5.620  0.5820 -1.2977 -0.8716
  554ACTN    H2 6001   8.547   8.993   5.700 -0.9546 -1.1833  1.0657
  554ACTN    H3 6002   8.557   8.976   5.524 -0.6275  2.0200  0.9982
  555ACTN    H6 6003   6.696   2.707   6.313 -1.8041 -0.5768  0.8879
  555ACTN    C3 6004   6.627   2.697   6.230 -0.3508  0.1835 -0.4244
  555ACTN    H4 6005   6.682   2.711   6.137  0.3156 -0.8586 -0.1940
  555ACTN    H5 6006   6.588   2.595   6.230 -1.8546  0.7380 -0.7548
  555ACTN    C2 6007   6.511   2.797   6.249  0.0325 -0.7367  0.1572
  555ACTN    O1 6008   6.523   2.890   6.330 -0.3602  0.2671 -0.5624
  555ACTN    C1 6009   6.370   2.764   6.204 -0.0510 -0.5217 -1.0145
  555ACTN    H1 6010   6.366   2.663   6.163 -1.3228 -1.3179  0.9984
  555ACTN    H2 6011   6.325   2.832   6.132  3.6648  2.0466 -1.0425
  555ACTN    H3 6012   6.310   2.762   6.295 -1.0878  2.1742 -1.5889
  556ACTN    H6 6013   6.523   0.546   2.431  0.0026  0.4531 -0.6771
  556ACTN    C3 6014   6.447   0.494   2.373  0.4021 -0.6458 -0.2211
  556ACTN    H4 6015   6.466   0.503   2.266  0.3475 -0.7581 -0.2417
  556ACTN    H5 6016   6.456   0.387   2.393  0.2770 -0.4754  0.7718
  556ACTN    C2 6017   6.309   0.552   2.397 -0.1659  0.2334 -0.2858
  556ACTN    O1 6018   6.284   0.659   2.344  0.4196 -0.0364  0.4016
  556ACTN    C1 6019   6.215   0.468   2.470  0.4791 -0.1732  0.6201
  556ACTN    H1 6020   6.117   0.466   2.423  0.7277 -1.9841  0.1480
  556ACTN    H2 6021   6.203   0.510   2.570 -0.2830  0.2197  0.3659
  556ACTN    H3 6022   6.250   0.367   2.492  1.8488  0.3031  0.7119
  557ACTN    H6 6023   3.822   5.205   7.069  3.4526  1.8801  0.7610
  557ACTN    C3 6024   3.762   5.289   7.031  0.1150 -0.6787  0.1074
  557ACTN    H4 6025   3.825   5.353   6.969  0.0876  1.5659  2.3108
  557ACTN    H5 6026   3.683   5.248   6.968  0.5783 -2.3025  0.5401
  557ACTN    C2 6027   3.706   5.364   7.152  0.1517 -0.0371 -1.0724
  557ACTN    O1 6028   3.700   5.486   7.165  0.1236  0.1852  0.5174
  557ACTN    C1 6029   3.628   5.273   7.247 -0.5066  0.1397  0.0239
  557ACTN    H1 6030   3.660   5.284   7.351  1.0579 -1.0234 -0.3073
  557ACTN    H2 6031   3.634   5.168   7.217 -0.6006  1.4097 -4.8349
  557ACTN    H3 6032   3.523   5.299   7.243 -0.8431 -0.8922  1.6744
  558ACTN    H6 6033   6.484   6.205   6.175  0.4016  2.4220 -0.9615
  558ACTN    C3 6034   6.453   6.236   6.275  0.7679  0.2886 -0.1521
  558ACTN    H4 6035   6.538   6.271   6.335  1.2512 -0.3929 -0.4271
  558ACTN    H5 6036   6.387   6.322   6.264  0.4618  0.1459  0.5426
  558ACTN    C2 6037   6.375   6.135   6.357  0.2236 -0.4486 -0.0275
  558ACTN    O1 6038   6.430   6.067   6.442 -0.5130  0.2250  0.4702
  558ACTN    C1 6039   6.233   6.098   6.310 -0.0294 -0.5517  0.0777
  558ACTN    H1 6040   6.221   6.069   6.206 -2.4066  0.2703  0.0956
  558ACTN    H2 6041   6.166   6.183   6.325 -0.1182 -0.6143  0.0332
  558ACTN    H3 6042   6.201   6.010   6.365  2.5338 -1.6720 -0.1801
  559ACTN    H6 6043   8.429   6.193   7.507 -2.1737 -1.5814 -2.4487
  559ACTN    C3 6044   8.449   6.091   7.540  0.1448 -0.1913  0.6745
  559ACTN    H4 6045   8.456   6.081   7.648  1.7795 -1.4964  0.4577
  559ACTN    H5 6046   8.371   6.022   7.508  0.3606 -0.2787  0.3354
  559ACTN    C2 6047   8.582   6.053   7.479  0.0001  1.1516 -0.4622
  559ACTN    O1 6048   8.590   5.940   7.429  0.2334  0.6222  0.4833
  559ACTN    C1 6049   8.702   6.135   7.474  0.2089  0.4177  0.6202
  559ACTN    H1 6050   8.727   6.177   7.377  0.9426  0.0895  0.6651
  559ACTN    H2 6051   8.786   6.083   7.521  0.7884  1.3615  0.6173
  559ACTN    H3 6052   8.681   6.217   7.543 -0.1397 -1.6533  3.0767
  560ACTN    H6 6053   6.085   4.246   1.289  0.7376  0.7013  1.7039
  560ACTN    C3 6054   6.037   4.336   1.249  0.1546  0.0135  0.8265
  560ACTN    H4 6055   5.945   4.366   1.299 -1.5758 -0.9511 -1.7283
  560ACTN    H5 6056   6.115   4.412   1.257  0.8472 -0.4997 -0.9256
  560ACTN    C2 6057   6.008   4.296   1.108  0.1151  0.3515 -0.6571
  560ACTN    O1 6058   6.084   4.287   1.015 -0.1474  0.3181  0.4084
  560ACTN    C1 6059   5.859   4.264   1.088 -0.1393  0.8244  0.1535
  560ACTN    H1 6060   5.834   4.261   0.982  0.9471  0.2768 -0.0929
  560ACTN    H2 6061   5.803   4.349   1.128 -0.1615  1.0932 -0.4500
  560ACTN    H3 6062   5.818   4.179   1.143 -1.1106  1.2551  0.1062
  561ACTN    H6 6063   0.343   0.755   2.282  0.1660 -1.0096 -3.0899
  561ACTN    C3 6064   0.350   0.649   2.308  0.1864 -0.1171  0.7537
  561ACTN    H4 6065   0.449   0.612   2.335  0.7270 -0.1938 -1.2577
  561ACTN    H5 6066   0.282   0.634   2.392  2.4056 -1.2115  2.4118
  561ACTN    C2 6067   0.298   0.574   2.183 -0.4459  0.0875  0.5062
  561ACTN    O1 6068   0.385   0.539   2.103 -0.2388 -0.2346  0.5212
  561ACTN    C1 6069   0.157   0.579   2.153  0.1485  0.5748  0.3561
  561ACTN    H1 6070   0.101   0.657   2.203 -0.7411 -0.5598  1.1670
  561ACTN    H2 6071   0.115   0.482   2.180  2.5459 -1.1548 -1.9423
  561ACTN    H3 6072   0.150   0.595   2.045  1.2959  0.5494  0.2708
  562ACTN    H6 6073   5.963   0.839   7.196 -2.7384 -0.0664 -0.4563
  562ACTN    C3 6074   5.966   0.933   7.252 -0.1931 -0.2574 -0.2023
  562ACTN    H4 6075   6.039   0.931   7.333 -2.8810  1.2914  2.4046
  562ACTN    H5 6076   5.984   1.014   7.183 -0.1752 -2.4851 -2.9068
  562ACTN    C2 6077   5.826   0.945   7.304 -0.0638 -0.8453 -0.2254
  562ACTN    O1 6078   5.747   1.012   7.241 -0.3569  0.7094  0.0551
  562ACTN    C1 6079   5.793   0.868   7.428  0.0289  0.6701 -0.1972
  562ACTN    H1 6080   5.850   0.907   7.512  0.3993 -1.0351  0.3631
  562ACTN    H2 6081   5.820   0.762   7.422 -1.1177  0.3840 -0.6949
  562ACTN    H3 6082   5.688   0.874   7.458 -0.4809  0.9547 -1.9682
  563ACTN    H6 6083   7.376   5.403   1.063  0.1428  1.8210 -1.7929
  563ACTN    C3 6084   7.280   5.431   1.107  0.4659 -0.2969  0.4251
  563ACTN    H4 6085   7.273   5.400   1.211  1.6026  2.3638  1.3352
  563ACTN    H5 6086   7.280   5.540   1.103  1.9543 -0.3036  0.0298
  563ACTN    C2 6087   7.155   5.373   1.037 -0.8338  0.2410 -0.0220
  563ACTN    O1 6088   7.145   5.251   1.026 -0.2775  0.4733 -0.0131
  563ACTN    C1 6089   7.025   5.465   1.012  0.0109  0.0267  0.3007
  563ACTN    H1 6090   6.941   5.401   1.038  1.6641 -1.2453  2.8000
  563ACTN    H2 6091   7.013   5.490   0.907 -1.8843  1.7828  0.8927
  563ACTN    H3 6092   7.023   5.553   1.077 -1.0824 -0.1997  0.5844
  564ACTN    H6 6093   0.331   2.228   3.251  0.2432  0.3106  0.6577
  564ACTN    C3 6094   0.259   2.308   3.270 -0.0915  0.1459  0.0857
  564ACTN    H4 6095   0.276   2.336   3.374  0.2613  0.1000  0.0391
  564ACTN    H5 6096   0.159   2.265   3.260 -0.4830  1.0637 -0.0318
  564ACTN    C2 6097   0.270   2.427   3.178  0.2915 -0.1883  0.2864
  564ACTN    O1 6098   0.281   2.541   3.217 -0.2740 -0.2315 -0.2733
  564ACTN    C1 6099   0.215   2.404   3.047  0.0478 -0.7532 -0.0243
  564ACTN    H1 6100   0.294   2.430   2.976  1.4337 -0.1629  1.6998
  564ACTN    H2 6101   0.128   2.469   3.040  0.7283  0.3510  1.6147
  564ACTN    H3 6102   0.191   2.298   3.034  2.0820 -1.2252 -0.1086
  565ACTN    H6 6103   4.569   5.229   7.863 -1.1462 -1.5788  0.0376
  565ACTN    C3 6104   4.607   5.190   7.958  0.3196  0.9617  0.5621
  565ACTN    H4 6105   4.713   5.166   7.954 -0.4200 -2.7750  0.9891
  565ACTN    H5 6106   4.585   5.270   8.028  1.6646  0.7555  1.2474
  565ACTN    C2 6107   4.514   5.074   7.978  0.1132 -0.3795  0.3918
  565ACTN    O1 6108   4.501   5.026   8.092  0.0248  0.1638  0.3661
  565ACTN    C1 6109   4.494   4.985   7.860 -0.0509 -0.7071  0.5351
  565ACTN    H1 6110   4.593   4.944   7.837 -0.9196 -1.0591 -2.8813
  565ACTN    H2 6111   4.452   5.033   7.772  1.5947  0.1227  0.1735
  565ACTN    H3 6112   4.436   4.897   7.888  1.4460 -2.2924 -1.2053
  566ACTN    H6 6113   4.058   2.175   1.445  1.0807  0.8238  1.8684
  566ACTN    C3 6114   3.950   2.189   1.450  0.8303 -0.1061 -0.2223
  566ACTN    H4 6115   3.921   2.271   1.383 -2.3134  1.6266  3.1035
  566ACTN    H5 6116   3.915   2.091   1.420  2.6257 -1.1117  0.9201
  566ACTN    C2 6117   3.906   2.213   1.593 -0.0554  0.1436  0.3793
  566ACTN    O1 6118   3.962   2.297   1.658  0.3406 -0.5949  0.3776
  566ACTN    C1 6119   3.805   2.111   1.650 -0.0495 -0.4088  0.4104
  566ACTN    H1 6120   3.713   2.100   1.592  1.6518  1.6543 -2.8263
  566ACTN    H2 6121   3.780   2.143   1.751 -0.4721 -1.1620  0.5565
  566ACTN    H3 6122   3.858   2.016   1.662 -3.0436 -2.6972 -3.3553
  567ACTN    H6 6123   8.394   6.566   7.104  1.2147 -0.4410  2.5410
  567ACTN    C3 6124   8.331   6.478   7.115 -0.1425  0.0699 -0.5311
  567ACTN    H4 6125   8.232   6.520   7.129  0.8156  2.0757  0.4452
  567ACTN    H5 6126   8.332   6.413   7.027 -0.4704 -2.2023  1.0997
  567ACTN    C2 6127   8.391   6.405   7.235 -0.1829  0.9603 -0.4423
  567ACTN    O1 6128   8.459   6.306   7.219 -0.1455 -0.1386 -0.6421
  567ACTN    C1 6129   8.370   6.468   7.370  0.3279 -0.4041 -0.1165
  567ACTN    H1 6130   8.458   6.521   7.407  0.3747  0.0174 -0.8449
  567ACTN    H2 6131   8.334   6.399   7.447  1.2378 -1.7183 -0.8556
  567ACTN    H3 6132   8.299   6.550   7.361  1.0200 -0.1196 -3.4483
  568ACTN    H6 6133   3.975   3.754   5.529  0.4235  0.7324 -1.7666
  568ACTN    C3 6134   3.869   3.776   5.520  0.0865 -0.2412 -0.3085
  568ACTN    H4 6135   3.847   3.879   5.545 -0.7749 -0.0482 -1.7902
  568ACTN    H5 6136   3.835   3.751   5.419  0.1107 -0.8554 -0.1646
  568ACTN    C2 6137   3.782   3.687   5.602 -0.1885 -0.9768  0.0778
  568ACTN    O1 6138   3.803   3.564   5.597  0.6907 -0.0695  0.0904
  568ACTN    C1 6139   3.660   3.727   5.678 -0.1046  0.0728  0.9270
  568ACTN    H1 6140   3.578   3.658   5.659 -0.5906  1.0040 -0.4198
  568ACTN    H2 6141   3.632   3.831   5.662 -1.2675 -0.6561 -1.9656
  568ACTN    H3 6142   3.694   3.707   5.780  0.1512 -1.1417  0.6135
  569ACTN    H6 6143   2.505   4.778   8.330 -2.8313  2.4145 -0.5075
  569ACTN    C3 6144   2.462   4.710   8.256 -0.7658  0.0939  0.3327
  569ACTN    H4 6145   2.417   4.765   8.174  0.1660  0.2232 -0.0921
  569ACTN    H5 6146   2.546   4.655   8.215 -0.8961 -0.3529  0.6652
  569ACTN    C2 6147   2.370   4.603   8.308 -0.1302  0.1795 -0.4665
  569ACTN    O1 6148   2.386   4.570   8.427 -0.4922  0.2301  1.0704
  569ACTN    C1 6149   2.262   4.544   8.219 -0.6419 -0.7253  0.3109
  569ACTN    H1 6150   2.260   4.583   8.117  1.8451  3.0795  1.6147
  569ACTN    H2 6151   2.172   4.566   8.276 -0.3952 -0.0082  0.4270
  569ACTN    H3 6152   2.279   4.437   8.207  3.3401  0.1999 -3.6214
  570ACTN    H6 6153   6.013   7.136   6.230 -0.7375  1.1079 -0.0640
  570ACTN    C3 6154   5.972   7.119   6.130  0.3385  0.4611 -0.4085
  570ACTN    H4 6155   5.934   7.017   6.120  0.6834  0.3209 -0.2822
  570ACTN    H5 6156   5.886   7.186   6.122 -0.9112 -1.2844 -2.0261
  570ACTN    C2 6157   6.083   7.141   6.033 -0.2455 -0.2191 -0.3520
  570ACTN    O1 6158   6.093   7.241   5.964  0.6162 -0.2667 -0.4663
  570ACTN    C1 6159   6.190   7.034   6.020  0.0610 -1.0483  0.5123
  570ACTN    H1 6160   6.288   7.082   6.029  0.2941 -1.4847  0.2951
  570ACTN    H2 6161   6.186   6.974   5.929 -0.7777  0.4364 -0.4573
  570ACTN    H3 6162   6.194   6.964   6.103  0.5646 -0.5796  0.8859
  571ACTN    H6 6163   8.830   0.994   3.763 -0.0264 -1.2824 -2.9112
  571ACTN    C3 6164   8.727   1.019   3.737 -0.7299 -0.1034  0.7246
  571ACTN    H4 6165   8.712   1.109   3.678 -2.1318 -0.6052  0.3147
  571ACTN    H5 6166   8.685   0.939   3.676 -2.4304  1.0562  0.3450
  571ACTN    C2 6167   8.653   1.035   3.867  0.7434  0.2417 -0.5108
  571ACTN    O1 6168   8.573   0.949   3.904 -0.5003  0.8557 -0.7058
  571ACTN    C1 6169   8.697   1.162   3.945  0.0897  0.5908  0.0714
  571ACTN    H1 6170   8.757   1.133   4.031  0.0978 -1.9030 -0.7127
  571ACTN    H2 6171   8.605   1.213   3.974 -0.5532  0.3135 -1.4163
  571ACTN    H3 6172   8.759   1.221   3.878 -0.7601  0.1688 -1.0938
  572ACTN    H6 6173   8.653   0.333   2.988  0.6525 -0.4455 -1.9190
  572ACTN    C3 6174   8.725   0.413   2.999  0.1672 -0.1577 -0.7250
  572ACTN    H4 6175   8.812   0.368   3.046  1.3114  1.3906 -1.2890
  572ACTN    H5 6176   8.754   0.458   2.903  1.3885  0.5097 -0.0641
  572ACTN    C2 6177   8.688   0.518   3.103 -0.3844 -0.8449 -0.9665
  572ACTN    O1 6178   8.777   0.586   3.158  0.0391  0.9107 -0.0734
  572ACTN    C1 6179   8.541   0.539   3.141 -0.5625 -0.2493 -0.1763
  572ACTN    H1 6180   8.528   0.513   3.246  0.5063  0.2579  0.0946
  572ACTN    H2 6181   8.476   0.470   3.087  0.0703 -1.2404  0.3218
  572ACTN    H3 6182   8.497   0.639   3.134  1.5302  0.8436  1.3024
  573ACTN    H6 6183   0.445   5.318   7.522 -0.3805 -0.7998  0.4666
  573ACTN    C3 6184   0.492   5.410   7.556 -0.2570 -0.6401 -0.1511
  573ACTN    H4 6185   0.523   5.473   7.472 -0.5842  0.4358  0.5159
  573ACTN    H5 6186   0.415   5.459   7.615  0.5299  0.0836  0.2965
  573ACTN    C2 6187   0.618   5.394   7.640  0.5511 -0.7482  0.5470
  573ACTN    O1 6188   0.719   5.342   7.592  0.2345 -0.4429 -0.2492
  573ACTN    C1 6189   0.612   5.427   7.782  0.3932 -0.9661  0.6289
  573ACTN    H1 6190   0.619   5.535   7.798  0.5482 -1.1118  1.5411
  573ACTN    H2 6191   0.691   5.375   7.836 -0.2702 -2.4382  0.2033
  573ACTN    H3 6192   0.516   5.395   7.824 -0.1286 -0.4201 -0.1169
  574ACTN    H6 6193   1.510   3.113   8.659 -0.6072 -2.2330 -1.6267
  574ACTN    C3 6194   1.415   3.088   8.707 -0.5784  1.0014  0.2530
  574ACTN    H4 6195   1.436   3.018   8.788  0.6073  1.9542  0.7929
  574ACTN    H5 6196   1.380   3.176   8.762  0.2523 -0.2695  2.9276
  574ACTN    C2 6197   1.321   3.036   8.612  0.0665 -1.1893 -0.4498
  574ACTN    O1 6198   1.272   3.114   8.530 -0.4470 -0.8526 -0.1869
  574ACTN    C1 6199   1.294   2.889   8.601 -0.0474 -0.1848  0.2536
  574ACTN    H1 6200   1.187   2.869   8.615  0.3331 -1.9983  0.6658
  574ACTN    H2 6201   1.345   2.825   8.672 -1.3293 -0.5859  0.8382
  574ACTN    H3 6202   1.317   2.860   8.498  1.6755 -1.1354  0.9007
  575ACTN    H6 6203   3.093   4.121   7.516  1.6809 -0.4525 -1.9206
  575ACTN    C3 6204   3.185   4.164   7.557  0.3028  0.2435  0.5487
  575ACTN    H4 6205   3.171   4.269   7.583 -0.1550 -0.1768  2.0369
  575ACTN    H5 6206   3.208   4.119   7.653  0.1029  0.1209  0.5400
  575ACTN    C2 6207   3.284   4.150   7.445  0.3510  0.2219 -0.2112
  575ACTN    O1 6208   3.347   4.044   7.442 -0.4567  0.1067  0.0858
  575ACTN    C1 6209   3.335   4.281   7.385 -0.6498 -0.5459  1.0409
  575ACTN    H1 6210   3.441   4.292   7.406 -0.1768 -2.5046 -0.1648
  575ACTN    H2 6211   3.290   4.374   7.419  0.5589 -0.1530  1.5907
  575ACTN    H3 6212   3.304   4.288   7.281 -2.0704 -2.3538  1.3159
  576ACTN    H6 6213   4.643   1.524   8.166 -1.4866 -0.0390 -0.7499
  576ACTN    C3 6214   4.611   1.480   8.261 -0.2341  0.0950 -0.2554
  576ACTN    H4 6215   4.668   1.527   8.342  0.3709 -0.9582 -0.0707
  576ACTN    H5 6216   4.502   1.485   8.267 -0.2974 -1.4182 -0.0725
  576ACTN    C2 6217   4.640   1.338   8.254  0.2323 -0.3207  0.1603
  576ACTN    O1 6218   4.585   1.270   8.170  0.6085 -0.7552  0.5097
  576ACTN    C1 6219   4.722   1.270   8.358  0.6964  0.0581  0.3078
  576ACTN    H1 6220   4.659   1.202   8.415 -2.3887  1.6786 -1.0576
  576ACTN    H2 6221   4.770   1.331   8.435  0.0958 -1.7002  2.1252
  576ACTN    H3 6222   4.798   1.206   8.312  3.4385 -0.6072  5.3740
  577ACTN    H6 6223   0.373   4.791   0.982 -2.2494  1.1699  1.9085
  577ACTN    C3 6224   0.438   4.719   1.032 -0.9840  0.6478 -0.3890
  577ACTN    H4 6225   0.530   4.769   1.061 -0.1879 -0.7679 -0.3935
  577ACTN    H5 6226   0.384   4.688   1.122 -1.5205  0.8367 -0.6423
  577ACTN    C2 6227   0.465   4.589   0.973  0.8229 -0.7736 -0.0613
  577ACTN    O1 6228   0.424   4.552   0.864  0.7776 -0.6632  0.4449
  577ACTN    C1 6229   0.565   4.503   1.038 -0.2240  0.0834 -0.1060
  577ACTN    H1 6230   0.656   4.505   0.980 -0.6394  1.3021 -0.7448
  577ACTN    H2 6231   0.526   4.402   1.052  1.1607 -0.4863 -0.3843
  577ACTN    H3 6232   0.592   4.548   1.134 -4.0567 -0.1798  1.1880
  578ACTN    H6 6233   4.598   7.314   0.025  2.3600 -1.8976 -2.5484
  578ACTN    C3 6234   4.548   7.220   0.049 -0.2137  0.1533  0.5525
  578ACTN    H4 6235   4.626   7.144   0.060 -1.5276 -1.1388  1.0993
  578ACTN    H5 6236   4.506   7.223   0.149  0.0740 -0.7407  0.7120
  578ACTN    C2 6237   4.453   7.202  -0.061  0.6106 -1.2904 -0.1092
  578ACTN    O1 6238   4.461   7.091  -0.113  0.4038  0.5059 -0.7999
  578ACTN    C1 6239   4.327   7.288  -0.070  0.4283 -0.5004  0.5587
  578ACTN    H1 6240   4.283   7.294  -0.169  1.5245 -3.9776 -0.2255
  578ACTN    H2 6241   4.343   7.383  -0.018 -2.4571  0.2549  0.1529
  578ACTN    H3 6242   4.250   7.236  -0.013  0.9355 -1.0707  0.7322
  579ACTN    H6 6243   1.194   8.272   2.075  1.1822  2.2221 -1.4973
  579ACTN    C3 6244   1.182   8.226   1.977  0.2577 -0.0390 -0.3676
  579ACTN    H4 6245   1.271   8.260   1.923 -0.7590  1.3992 -1.1875
  579ACTN    H5 6246   1.174   8.118   1.988 -1.7012  0.1443  0.0754
  579ACTN    C2 6247   1.062   8.295   1.912  0.0570 -0.9679  0.3612
  579ACTN    O1 6248   1.073   8.416   1.899  0.4301  0.1736  0.9467
  579ACTN    C1 6249   0.956   8.223   1.836 -0.5254 -0.2867  0.4171
  579ACTN    H1 6250   0.895   8.174   1.911 -0.1756  1.6439  1.9934
  579ACTN    H2 6251   1.001   8.153   1.765 -0.4219  0.2588 -0.0620
  579ACTN    H3 6252   0.888   8.288   1.780 -0.4787 -0.0222  0.6623
  580ACTN    H6 6253   5.985   4.264   0.385  0.5362  0.6234  0.4328
  580ACTN    C3 6254   6.030   4.175   0.341  0.1441  0.7788 -0.2916
  580ACTN    H4 6255   5.965   4.090   0.358 -1.4485  2.3164  1.6581
  580ACTN    H5 6256   6.041   4.195   0.234 -0.1069  1.8419 -0.1321
  580ACTN    C2 6257   6.166   4.141   0.394  0.4418  0.5573 -0.0831
  580ACTN    O1 6258   6.193   4.175   0.508  0.7592  0.1620 -0.6933
  580ACTN    C1 6259   6.276   4.070   0.310 -0.0128  0.1258 -0.5899
  580ACTN    H1 6260   6.372   4.080   0.360 -0.6341 -1.1065  0.8947
  580ACTN    H2 6261   6.282   4.098   0.205 -1.9238 -0.5369 -0.9063
  580ACTN    H3 6262   6.267   3.961   0.317  1.1813  0.1243  1.0920
  581ACTN    H6 6263   8.731   6.742   6.305 -0.2128 -1.1864  1.0141
  581ACTN    C3 6264   8.679   6.789   6.388 -0.2073 -0.1303  0.4150
  581ACTN    H4 6265   8.582   6.745   6.411 -0.7487  0.3074 -1.0041
  581ACTN    H5 6266   8.741   6.782   6.477 -0.2937 -2.3483  0.3110
  581ACTN    C2 6267   8.657   6.935   6.346 -0.5874  0.0897  0.1213
  581ACTN    O1 6268   8.612   6.958   6.239  0.4002 -0.3749 -0.6245
  581ACTN    C1 6269   8.707   7.046   6.432 -0.3956 -0.1899  0.0241
  581ACTN    H1 6270   8.797   7.085   6.384  0.0386 -0.1688  0.8535
  581ACTN    H2 6271   8.737   7.026   6.534  2.2053 -2.0770 -1.0657
  581ACTN    H3 6272   8.632   7.125   6.447 -0.7590 -0.3047 -1.1306
  582ACTN    H6 6273   7.598   7.684   7.291  0.5085  0.5085 -0.4580
  582ACTN    C3 6274   7.575   7.587   7.246 -0.0873  0.4610 -0.0500
  582ACTN    H4 6275   7.520   7.602   7.152  0.2273 -0.0116 -0.3092
  582ACTN    H5 6276   7.668   7.532   7.235 -0.2078 -0.2410  2.1884
  582ACTN    C2 6277   7.497   7.504   7.341  0.6419  0.7755 -0.2654
  582ACTN    O1 6278   7.516   7.380   7.348 -0.0872  0.0308  0.4450
  582ACTN    C1 6279   7.418   7.574   7.453  0.3096  0.2690 -0.1528
  582ACTN    H1 6280   7.479   7.653   7.496 -0.0070  0.9842 -0.9892
  582ACTN    H2 6281   7.387   7.504   7.531 -1.2530 -0.8070 -1.6995
  582ACTN    H3 6282   7.324   7.610   7.411  0.0125 -2.6422 -2.0751
  583ACTN    H6 6283   3.984   6.934   0.001 -0.7088  1.8125 -0.7657
  583ACTN    C3 6284   4.089   6.960   0.014 -0.3359  0.0313 -0.1468
  583ACTN    H4 6285   4.100   7.057   0.061 -1.5884 -0.8285  2.0074
  583ACTN    H5 6286   4.138   6.890   0.083 -1.1871 -1.9045 -1.4441
  583ACTN    C2 6287   4.153   6.936  -0.130 -1.1159 -0.0265 -0.8103
  583ACTN    O1 6288   4.110   7.013  -0.218 -0.1371  0.5956  0.3839
  583ACTN    C1 6289   4.221   6.805  -0.162  0.0919 -0.6089  0.2834
  583ACTN    H1 6290   4.321   6.827  -0.200  0.0300 -0.0366  0.4432
  583ACTN    H2 6291   4.162   6.763  -0.243 -2.1035 -1.0074  2.0466
  583ACTN    H3 6292   4.214   6.746  -0.071  0.0077  2.0286  2.0400
  584ACTN    H6 6293   2.861   0.828   5.149 -0.7079  3.0266 -0.5697
  584ACTN    C3 6294   2.950   0.851   5.207 -0.0379  0.5413 -0.5546
  584ACTN    H4 6295   2.931   0.928   5.281  1.6768 -0.0433  0.5223
  584ACTN    H5 6296   2.976   0.763   5.266 -2.5094 -0.5525 -1.0383
  584ACTN    C2 6297   3.069   0.885   5.117 -0.7479 -0.9309 -0.4154
  584ACTN    O1 6298   3.185   0.874   5.158 -0.0625  0.3644  0.4940
  584ACTN    C1 6299   3.043   0.949   4.983  0.3500  0.4053  0.2926
  584ACTN    H1 6300   3.133   0.995   4.941 -1.2366  1.7448 -1.7512
  584ACTN    H2 6301   2.974   1.034   4.987 -0.2527  0.0634 -2.1899
  584ACTN    H3 6302   2.998   0.875   4.917 -0.2255  0.6360  0.4220
  585ACTN    H6 6303   1.148   0.011   5.032  1.7877 -2.2470 -2.2010
  585ACTN    C3 6304   1.055   0.031   4.977  0.6550 -0.6655  0.2221
  585ACTN    H4 6305   1.073   0.114   4.908 -1.9735 -0.0254  0.2471
  585ACTN    H5 6306   1.021  -0.053   4.917 -1.6562 -2.3301  3.6955
  585ACTN    C2 6307   0.953   0.060   5.072 -0.2004 -0.0803  0.1710
  585ACTN    O1 6308   0.867   0.142   5.050 -0.4068 -0.2127  0.0938
  585ACTN    C1 6309   0.943  -0.025   5.193 -0.2164  0.2066 -0.1098
  585ACTN    H1 6310   0.869  -0.094   5.153 -0.7204  0.5809  0.1877
  585ACTN    H2 6311   0.902   0.033   5.275 -0.6772  0.0802 -0.2487
  585ACTN    H3 6312   1.039  -0.071   5.218  0.9200  2.7235  0.2599
  586ACTN    H6 6313   2.617   5.815   8.801  0.0314  0.0688 -2.1233
  586ACTN    C3 6314   2.679   5.725   8.809 -0.9526 -0.4364  0.0848
  586ACTN    H4 6315   2.656   5.661   8.893 -0.6242  0.0671  0.5619
  586ACTN    H5 6316   2.678   5.664   8.718 -0.9473 -0.6467  0.2259
  586ACTN    C2 6317   2.825   5.775   8.823  0.2246 -0.5394  0.5299
  586ACTN    O1 6318   2.918   5.697   8.804 -0.3340 -0.0449 -0.7331
  586ACTN    C1 6319   2.852   5.913   8.869  0.9736 -0.4116 -0.6259
  586ACTN    H1 6320   2.886   5.930   8.972 -0.2638 -0.4440 -0.2075
  586ACTN    H2 6321   2.764   5.976   8.862  0.2117 -1.4729 -0.5842
  586ACTN    H3 6322   2.921   5.961   8.799 -0.1752  1.9353 -0.2106
  587ACTN    H6 6323   5.678   2.052   5.017 -1.5821  1.4875  1.0657
  587ACTN    C3 6324   5.775   2.100   5.002 -0.7674 -0.1187  1.0738
  587ACTN    H4 6325   5.826   2.045   4.923 -0.0186  1.8937  0.1510
  587ACTN    H5 6326   5.758   2.206   4.983  0.8098 -0.1315 -0.5523
  587ACTN    C2 6327   5.864   2.089   5.124 -0.1765  0.5563  0.7663
  587ACTN    O1 6328   5.978   2.128   5.115 -0.3844  0.5085 -0.7904
  587ACTN    C1 6329   5.812   2.101   5.263 -0.2128  0.5378  0.4346
  587ACTN    H1 6330   5.712   2.058   5.253 -0.2951  0.9765 -0.6865
  587ACTN    H2 6331   5.810   2.206   5.292  2.7951  0.7012  0.2035
  587ACTN    H3 6332   5.882   2.057   5.334  1.2400  2.7024  0.3640
  588ACTN    H6 6333   5.472   8.611   4.143 -0.2043  2.3707  1.8653
  588ACTN    C3 6334   5.434   8.656   4.051 -0.2608 -0.4329  0.4537
  588ACTN    H4 6335   5.459   8.584   3.973  0.5355 -0.1185  0.4086
  588ACTN    H5 6336   5.326   8.668   4.062 -0.3357 -0.0709 -0.6425
  588ACTN    C2 6337   5.492   8.795   4.037 -0.7385  0.4664 -0.4968
  588ACTN    O1 6338   5.554   8.833   4.133 -0.3070  0.5098 -0.1781
  588ACTN    C1 6339   5.446   8.893   3.937 -0.5471  0.5341  0.4537
  588ACTN    H1 6340   5.402   8.978   3.989  1.5445  1.3858  0.8756
  588ACTN    H2 6341   5.373   8.848   3.870  1.8440 -1.2978 -1.0458
  588ACTN    H3 6342   5.536   8.922   3.882  0.4591 -2.4659  0.4326
  589ACTN    H6 6343   0.682   1.924   3.449 -0.8076  0.7068 -3.0755
  589ACTN    C3 6344   0.684   1.822   3.410  0.8132 -0.4055 -0.2316
  589ACTN    H4 6345   0.647   1.756   3.489  1.6490  0.2073  0.6748
  589ACTN    H5 6346   0.787   1.793   3.393  0.9396  0.5706 -1.1532
  589ACTN    C2 6347   0.600   1.790   3.290 -0.6092  0.0734 -0.3619
  589ACTN    O1 6348   0.649   1.767   3.183  0.7280 -0.1361  1.0027
  589ACTN    C1 6349   0.450   1.814   3.315  0.0835 -0.4758 -0.2434
  589ACTN    H1 6350   0.419   1.911   3.275 -0.3418 -0.8830 -0.9026
  589ACTN    H2 6351   0.422   1.820   3.420  0.2156  2.3362 -0.3138
  589ACTN    H3 6352   0.402   1.736   3.256  0.5141 -0.4013 -0.6981
  590ACTN    H6 6353   0.656   1.624   5.245 -0.9807 -0.0385 -0.5063
  590ACTN    C3 6354   0.663   1.679   5.339  0.0477 -0.1061 -0.5330
  590ACTN    H4 6355   0.725   1.768   5.327 -0.4678  0.0947 -1.7694
  590ACTN    H5 6356   0.559   1.709   5.356 -0.2962 -1.5031 -0.1721
  590ACTN    C2 6357   0.714   1.593   5.453  0.3017 -0.4390  0.3396
  590ACTN    O1 6358   0.830   1.548   5.446  0.3247 -0.0337  0.0152
  590ACTN    C1 6359   0.621   1.552   5.562  0.4098  0.1146 -0.3291
  590ACTN    H1 6360   0.546   1.485   5.519 -2.4936  2.5385  0.8223
  590ACTN    H2 6361   0.574   1.635   5.615 -0.6324 -0.5462 -0.1989
  590ACTN    H3 6362   0.677   1.487   5.630 -0.1041 -2.9486 -2.7116
  591ACTN    H6 6363   7.208   0.008   6.114 -0.4918 -0.5389  0.7058
  591ACTN    C3 6364   7.137  -0.052   6.057 -0.3456 -0.2544  0.2250
  591ACTN    H4 6365   7.101  -0.124   6.130 -1.5004  0.9861  0.9174
  591ACTN    H5 6366   7.050   0.002   6.019 -0.0124  0.5877  0.6480
  591ACTN    C2 6367   7.209  -0.104   5.934 -0.1247 -0.8059  0.2983
  591ACTN    O1 6368   7.275  -0.204   5.937 -0.5349  0.4280 -0.1257
  591ACTN    C1 6369   7.226  -0.012   5.820 -0.5858  0.1127  0.7962
  591ACTN    H1 6370   7.158   0.073   5.819  0.0217  0.5886 -1.4992
  591ACTN    H2 6371   7.227  -0.061   5.723  2.3939 -1.5074  1.6002
  591ACTN    H3 6372   7.321   0.041   5.825 -0.1719 -0.6423  1.0527
  592ACTN    H6 6373   5.278   8.185   2.962  0.0552  0.7693  0.9703
  592ACTN    C3 6374   5.219   8.108   3.011  0.0970  0.1032 -0.0105
  592ACTN    H4 6375   5.176   8.047   2.932 -1.4462  0.7881  0.2856
  592ACTN    H5 6376   5.289   8.047   3.068  1.2025  1.1661 -0.1910
  592ACTN    C2 6377   5.105   8.180   3.078 -0.2655  0.1996  0.7123
  592ACTN    O1 6378   5.068   8.276   3.024  0.5387  0.4622 -0.4756
  592ACTN    C1 6379   5.050   8.144   3.209 -0.5652 -0.9492 -0.6502
  592ACTN    H1 6380   5.128   8.150   3.284 -0.5855 -0.9163 -0.6309
  592ACTN    H2 6381   5.019   8.040   3.205 -0.6313 -0.9376 -0.3828
  592ACTN    H3 6382   4.965   8.207   3.236 -1.1161 -1.3868 -1.3317
  593ACTN    H6 6383   2.948   6.126   7.428  1.3270 -2.5403  1.0453
  593ACTN    C3 6384   2.857   6.066   7.427 -0.3366 -0.0826 -0.6078
  593ACTN    H4 6385   2.776   6.122   7.381 -1.4513 -0.8738  0.3743
  593ACTN    H5 6386   2.876   5.983   7.359 -2.0009 -0.5673 -0.4959
  593ACTN    C2 6387   2.811   6.009   7.553 -0.1624  0.0974  0.0241
  593ACTN    O1 6388   2.832   6.077   7.653 -0.0681  0.3243  0.2130
  593ACTN    C1 6389   2.733   5.886   7.569 -0.6105  0.6499 -0.2065
  593ACTN    H1 6390   2.702   5.860   7.467  1.3096 -0.5599 -0.5181
  593ACTN    H2 6391   2.646   5.898   7.633  0.6143  0.0166  1.6067
  593ACTN    H3 6392   2.794   5.803   7.605 -0.3201  1.1428  0.4324
  594ACTN    H6 6393   8.027   8.111   3.736 -0.6728  1.2744  0.0562
  594ACTN    C3 6394   7.961   8.188   3.776 -0.9506  0.7574  0.6005
  594ACTN    H4 6395   8.020   8.279   3.774  1.6917 -0.9177 -0.0252
  594ACTN    H5 6396   7.870   8.191   3.715 -1.4749  1.1838  1.4011
  594ACTN    C2 6397   7.919   8.169   3.914  0.3075 -0.3945  1.0560
  594ACTN    O1 6398   7.797   8.168   3.936 -0.4981 -0.8809  0.2130
  594ACTN    C1 6399   8.018   8.185   4.026 -0.3177  0.0675 -0.2653
  594ACTN    H1 6400   8.102   8.116   4.025  2.0973  2.8457  1.8126
  594ACTN    H2 6401   7.975   8.175   4.126 -0.5246 -3.1848 -0.6420
  594ACTN    H3 6402   8.071   8.280   4.018  1.6070 -1.1796 -3.5325
  595ACTN    H6 6403   5.186   5.267   0.859 -3.6166  1.6752 -0.7237
  595ACTN    C3 6404   5.154   5.196   0.783 -0.5612  0.0168 -0.5273
  595ACTN    H4 6405   5.226   5.114   0.779  1.1602  1.4356  0.5777
  595ACTN    H5 6406   5.058   5.161   0.821 -0.6147  0.8764  0.1574
  595ACTN    C2 6407   5.143   5.274   0.653 -0.2661  0.0316 -0.7754
  595ACTN    O1 6408   5.124   5.226   0.542 -0.3104  0.6300  0.8469
  595ACTN    C1 6409   5.160   5.425   0.665  0.1078 -0.4240  0.0673
  595ACTN    H1 6410   5.265   5.442   0.642 -0.6571  1.7992 -2.0086
  595ACTN    H2 6411   5.137   5.463   0.765 -1.5744  2.1214 -1.2282
  595ACTN    H3 6412   5.095   5.477   0.594  1.6660 -0.0573 -1.1016
  596ACTN    H6 6413   7.773   0.117   3.074 -0.3721 -0.1839 -0.5384
  596ACTN    C3 6414   7.754   0.171   2.982 -0.0806 -0.0647 -0.5290
  596ACTN    H4 6415   7.835   0.134   2.919  0.4688 -1.9751  1.2441
  596ACTN    H5 6416   7.672   0.120   2.932 -1.4234  2.3307 -0.8639
  596ACTN    C2 6417   7.750   0.320   2.991 -0.4352  0.1993  0.2358
  596ACTN    O1 6418   7.779   0.395   2.897 -0.0638 -0.4982  0.7390
  596ACTN    C1 6419   7.711   0.371   3.126  0.5306 -0.3747  0.5716
  596ACTN    H1 6420   7.733   0.307   3.212  3.9608  0.7709  0.6359
  596ACTN    H2 6421   7.604   0.394   3.133  1.0636  2.2148  0.7597
  596ACTN    H3 6422   7.758   0.469   3.127  1.7032 -0.9091 -1.0901
  597ACTN    H6 6423   4.798   6.924   6.435 -1.7521 -2.1252 -0.0556
  597ACTN    C3 6424   4.874   6.846   6.439  0.0633 -0.4236 -0.4503
  597ACTN    H4 6425   4.941   6.851   6.353 -0.1756 -2.0136 -0.7337
  597ACTN    H5 6426   4.929   6.864   6.531 -2.1480  0.2067  0.7862
  597ACTN    C2 6427   4.802   6.720   6.437  0.1957  0.2039 -0.1568
  597ACTN    O1 6428   4.727   6.695   6.345  0.2218 -0.2706  0.3690
  597ACTN    C1 6429   4.821   6.631   6.555  0.5497 -0.0496 -0.0093
  597ACTN    H1 6430   4.914   6.647   6.611  0.9474 -0.5223 -0.5308
  597ACTN    H2 6431   4.815   6.524   6.540 -2.9640  0.0307  0.5375
  597ACTN    H3 6432   4.735   6.642   6.621 -0.4018 -0.8386 -1.0969
  598ACTN    H6 6433   2.779   8.948   4.867 -1.3649  0.4544 -1.6293
  598ACTN    C3 6434   2.824   8.864   4.813 -0.0047  0.4700 -0.5491
  598ACTN    H4 6435   2.916   8.834   4.863 -1.4136 -3.0182  0.0533
  598ACTN    H5 6436   2.752   8.782   4.814  0.4206  0.0943 -0.5602
  598ACTN    C2 6437   2.854   8.913   4.683 -0.1767 -0.3191 -0.0632
  598ACTN    O1 6438   2.794   9.014   4.643 -0.0601  0.1377 -0.5075
  598ACTN    C1 6439   2.975   8.867   4.617  1.2751  0.4301 -0.6975
  598ACTN    H1 6440   3.068   8.897   4.666 -0.2353  2.5733  0.9177
  598ACTN    H2 6441   2.973   8.887   4.510 -0.6253 -0.7873 -0.9178
  598ACTN    H3 6442   2.961   8.759   4.627  1.0662  0.5209 -0.0005
  599ACTN    H6 6443   3.482   6.127   1.170  0.1143 -0.1922  1.6348
  599ACTN    C3 6444   3.421   6.217   1.183  0.2649  0.1315  0.1251
  599ACTN    H4 6445   3.490   6.301   1.184  2.4301 -1.5972  0.8377
  599ACTN    H5 6446   3.356   6.221   1.095  0.7150  0.0129 -0.2161
  599ACTN    C2 6447   3.351   6.218   1.317  0.7353  0.2050 -0.2452
  599ACTN    O1 6448   3.278   6.314   1.354 -0.3794  0.2775 -0.6859
  599ACTN    C1 6449   3.388   6.111   1.414  0.3160 -0.9459  1.0409
  599ACTN    H1 6450   3.416   6.162   1.507  2.2331 -0.9474  0.4936
  599ACTN    H2 6451   3.471   6.043   1.393 -0.8883 -2.8092  2.2041
  599ACTN    H3 6452   3.301   6.050   1.436 -2.0758  1.1304 -2.2026
  600ACTN    H6 6453   7.075   1.318   2.382  1.6940  0.8628  1.0994
  600ACTN    C3 6454   7.051   1.301   2.487  0.4287  0.2144  0.7210
  600ACTN    H4 6455   7.138   1.324   2.550  0.1908 -0.8861  1.4833
  600ACTN    H5 6456   7.028   1.195   2.498  1.3378 -0.1573 -0.8339
  600ACTN    C2 6457   6.939   1.378   2.528  0.6518  0.2634  0.2066
  600ACTN    O1 6458   6.960   1.489   2.575  0.4208  0.4981 -0.5742
  600ACTN    C1 6459   6.804   1.315   2.533 -0.3012  0.0730  0.1296
  600ACTN    H1 6460   6.774   1.344   2.634  1.9328  1.8824  0.3192
  600ACTN    H2 6461   6.808   1.207   2.518  0.5178  0.2995 -1.3191
  600ACTN    H3 6462   6.730   1.358   2.466 -0.0037 -2.4764 -1.8971
  601ACTN    H6 6463   3.354   5.709   8.890 -0.8666 -0.1903  0.2355
  601ACTN    C3 6464   3.301   5.636   8.952  0.3273 -0.4879  0.9242
  601ACTN    H4 6465   3.313   5.656   9.059  1.3306  1.4377  0.4806
  601ACTN    H5 6466   3.196   5.646   8.924 -0.0506 -0.9901  2.1003
  601ACTN    C2 6467   3.359   5.504   8.924 -0.4053  0.0078  0.1672
  601ACTN    O1 6468   3.302   5.409   8.972 -0.1155 -0.1591  0.0559
  601ACTN    C1 6469   3.502   5.494   8.870  0.3233  0.1235  0.4270
  601ACTN    H1 6470   3.507   5.467   8.765 -0.5385 -1.0370  0.6774
  601ACTN    H2 6471   3.567   5.424   8.923 -0.1766  0.8569  2.0584
  601ACTN    H3 6472   3.552   5.591   8.862 -0.0284  0.2466 -0.2724
  602ACTN    H6 6473   5.351   3.908   7.271  2.2869  1.6625  1.6152
  602ACTN    C3 6474   5.280   3.885   7.350  0.8066 -0.0963 -0.1734
  602ACTN    H4 6475   5.335   3.859   7.440  1.1483 -1.2032 -0.7070
  602ACTN    H5 6476   5.229   3.979   7.373 -0.3412 -1.4193  3.0475
  602ACTN    C2 6477   5.179   3.782   7.318  0.2891 -0.8815 -0.4735
  602ACTN    O1 6478   5.219   3.665   7.318 -0.4030  0.7427  0.7140
  602ACTN    C1 6479   5.046   3.818   7.281  0.0261  0.2436 -0.3962
  602ACTN    H1 6480   4.990   3.880   7.351 -0.0401 -0.0379 -0.1990
  602ACTN    H2 6481   4.998   3.720   7.274 -1.2139  0.7671  0.6068
  602ACTN    H3 6482   5.045   3.863   7.181 -2.1914  1.7892  0.2899
  603ACTN    H6 6483   1.411   0.642   4.683 -2.9372  0.5766 -0.7061
  603ACTN    C3 6484   1.389   0.562   4.612 -0.1411 -0.4574 -0.4558
  603ACTN    H4 6485   1.337   0.490   4.674  4.7163 -1.7398  2.3987
  603ACTN    H5 6486   1.328   0.603   4.531 -0.1084 -1.5621 -1.0426
  603ACTN    C2 6487   1.516   0.513   4.569  0.8763  0.3861  0.2717
  603ACTN    O1 6488   1.575   0.420   4.620 -0.9615 -0.2330 -0.3649
  603ACTN    C1 6489   1.582   0.587   4.457  0.1516  0.6979 -0.8547
  603ACTN    H1 6490   1.682   0.618   4.488  1.1454 -0.7595 -2.5171
  603ACTN    H2 6491   1.523   0.678   4.450 -1.0559  0.0961  1.0947
  603ACTN    H3 6492   1.582   0.532   4.363  2.1283  0.4650 -0.7545
  604ACTN    H6 6493   4.975   5.421   1.054  0.3223 -0.9915  1.4952
  604ACTN    C3 6494   4.869   5.422   1.027  0.5823  0.2091  0.4819
  604ACTN    H4 6495   4.838   5.518   0.987  0.3991  0.6207  1.6049
  604ACTN    H5 6496   4.844   5.352   0.947 -1.6094 -0.5437  1.7769
  604ACTN    C2 6497   4.788   5.396   1.152  0.5289  0.5562  0.3012
  604ACTN    O1 6498   4.675   5.347   1.140 -0.2809  0.5644 -0.1532
  604ACTN    C1 6499   4.825   5.454   1.280 -0.0986 -0.4427 -1.1318
  604ACTN    H1 6500   4.926   5.428   1.311  0.6937  2.2427 -1.3763
  604ACTN    H2 6501   4.754   5.435   1.361 -0.2315  0.5657 -1.0058
  604ACTN    H3 6502   4.822   5.562   1.269  2.7468 -0.3435 -1.1018
  605ACTN    H6 6503   6.673   1.093   6.959  1.5341 -0.0757 -0.5866
  605ACTN    C3 6504   6.705   1.129   7.057  0.6464  0.8358 -0.6273
  605ACTN    H4 6505   6.814   1.120   7.060  0.4833 -1.1963 -0.1901
  605ACTN    H5 6506   6.678   1.233   7.077  0.4632  1.2512 -2.9575
  605ACTN    C2 6507   6.647   1.048   7.175 -0.4210  0.2905 -0.1187
  605ACTN    O1 6508   6.651   1.077   7.294  0.1962  0.3968  0.7952
  605ACTN    C1 6509   6.574   0.921   7.154  0.3789 -0.1969 -0.4442
  605ACTN    H1 6510   6.470   0.949   7.134 -0.0829 -1.1996  0.5615
  605ACTN    H2 6511   6.582   0.866   7.247 -0.4163 -0.0466 -0.2816
  605ACTN    H3 6512   6.615   0.853   7.079 -1.1808 -1.6310 -0.0155
  606ACTN    H6 6513   5.553   2.043   7.806  1.1343  1.1171  0.3712
  606ACTN    C3 6514   5.497   2.076   7.893 -0.1564  0.4321 -0.1820
  606ACTN    H4 6515   5.490   2.185   7.900 -0.4145  0.5991 -2.8718
  606ACTN    H5 6516   5.402   2.026   7.878  1.3881 -1.3464 -4.5166
  606ACTN    C2 6517   5.579   2.024   8.010  0.3383  0.1659  0.4880
  606ACTN    O1 6518   5.695   2.067   8.028  0.3016  0.3624  0.4292
  606ACTN    C1 6519   5.504   1.947   8.117  0.6850  0.0274  0.1264
  606ACTN    H1 6520   5.397   1.951   8.096  0.4952 -0.2588  1.0474
  606ACTN    H2 6521   5.518   1.991   8.215 -0.7734  2.5321 -0.7279
  606ACTN    H3 6522   5.548   1.849   8.129  2.0190  0.7119  0.9180
  607ACTN    H6 6523   8.665   8.023   4.931 -2.5278 -1.2966 -1.0004
  607ACTN    C3 6524   8.656   8.072   4.835 -0.0011  1.0634 -0.0700
  607ACTN    H4 6525   8.551   8.071   4.808 -0.3545 -1.4011  1.2933
  607ACTN    H5 6526   8.687   8.176   4.849  0.3013  1.0723 -0.7813
  607ACTN    C2 6527   8.739   7.994   4.731  0.0621 -0.3393 -0.1682
  607ACTN    O1 6528   8.839   8.051   4.688 -0.0124 -0.4933 -0.1385
  607ACTN    C1 6529   8.696   7.858   4.674  0.9546  0.2920  0.5629
  607ACTN    H1 6530   8.689   7.789   4.759 -1.7955  0.3435  0.4357
  607ACTN    H2 6531   8.767   7.821   4.600  0.2958  0.1849 -0.0312
  607ACTN    H3 6532   8.595   7.864   4.632  0.8259  0.4720  0.8910
  608ACTN    H6 6533   3.089   1.151   2.271  0.6827  1.1925 -0.2261
  608ACTN    C3 6534   2.998   1.165   2.212 -0.2758 -0.7003  0.7390
  608ACTN    H4 6535   2.917   1.105   2.253 -1.7668 -0.2999 -1.4975
  608ACTN    H5 6536   2.979   1.272   2.216 -0.0226 -0.6802  1.5041
  608ACTN    C2 6537   3.025   1.132   2.066  0.2185  0.2867  0.3350
  608ACTN    O1 6538   3.137   1.091   2.033 -0.6240  0.3998  0.2520
  608ACTN    C1 6539   2.919   1.157   1.956  0.5760 -0.0379  0.4473
  608ACTN    H1 6540   2.867   1.249   1.980  1.9910  0.2741  2.3970
  608ACTN    H2 6541   2.845   1.077   1.956 -1.2162  1.5902  0.2767
  608ACTN    H3 6542   2.972   1.162   1.861  1.2203 -2.2578  0.6510
  609ACTN    H6 6543   4.986   6.611   8.836  1.7225 -0.0376 -1.0590
  609ACTN    C3 6544   4.991   6.502   8.835  0.6107 -0.1092  0.4236
  609ACTN    H4 6545   5.039   6.469   8.743  0.4698  1.3159 -0.1857
  609ACTN    H5 6546   5.054   6.481   8.921  2.0159  2.2273  0.0183
  609ACTN    C2 6547   4.854   6.431   8.845 -0.6732  0.3965  0.0757
  609ACTN    O1 6548   4.848   6.309   8.850  0.1061  0.3939  0.4972
  609ACTN    C1 6549   4.739   6.520   8.811 -0.3448  0.4416  0.1021
  609ACTN    H1 6550   4.674   6.468   8.740  0.6021  0.1496 -0.5534
  609ACTN    H2 6551   4.774   6.615   8.770 -0.1513  0.1131 -0.4953
  609ACTN    H3 6552   4.681   6.545   8.900 -0.1781 -1.9239  0.9243
  610ACTN    H6 6553   6.165   0.942   6.233 -0.2168  1.9054  2.4577
  610ACTN    C3 6554   6.216   0.875   6.302 -0.1672 -0.4667  0.2002
  610ACTN    H4 6555   6.188   0.774   6.271  0.4458 -0.7094  0.4258
  610ACTN    H5 6556   6.324   0.886   6.295 -0.3921  0.9201 -1.0996
  610ACTN    C2 6557   6.164   0.898   6.433 -0.0549  0.5336 -0.1074
  610ACTN    O1 6558   6.197   0.832   6.528  0.0681 -0.7200  0.1279
  610ACTN    C1 6559   6.073   1.010   6.450  0.2383 -0.3271 -0.7887
  610ACTN    H1 6560   6.007   1.009   6.364 -0.0422  2.3500 -0.6618
  610ACTN    H2 6561   6.122   1.108   6.447 -2.0137  0.8927  0.6834
  610ACTN    H3 6562   6.007   1.001   6.536 -1.1383  1.2156 -1.6490
  611ACTN    H6 6563   2.697   5.488   6.900  0.5758 -2.5835  0.0973
  611ACTN    C3 6564   2.608   5.498   6.838  0.8545  0.1326  0.0975
  611ACTN    H4 6565   2.516   5.471   6.889  0.7381  0.2323 -0.0584
  611ACTN    H5 6566   2.593   5.606   6.828  1.1316  0.2215  0.6144
  611ACTN    C2 6567   2.623   5.420   6.711 -0.1775  0.2941 -0.5007
  611ACTN    O1 6568   2.571   5.459   6.607 -0.1889  0.3337  0.0112
  611ACTN    C1 6569   2.742   5.332   6.689 -0.1036 -0.5952 -0.1283
  611ACTN    H1 6570   2.828   5.399   6.683 -1.1388  1.0167  2.1603
  611ACTN    H2 6571   2.732   5.258   6.610  0.5815 -0.6199 -0.2018
  611ACTN    H3 6572   2.763   5.265   6.772 -0.3773 -1.3367 -0.6519
  612ACTN    H6 6573   2.576   6.028   7.894  1.4037 -3.2324  0.6601
  612ACTN    C3 6574   2.557   6.039   8.000  0.2119 -0.2832  0.2045
  612ACTN    H4 6575   2.620   5.961   8.044  1.6379  0.0426 -1.2165
  612ACTN    H5 6576   2.602   6.132   8.033 -1.3756  0.7696 -0.5320
  612ACTN    C2 6577   2.413   6.020   8.034 -0.4261  0.1507 -1.1483
  612ACTN    O1 6578   2.350   5.925   8.001  0.1133  0.0925 -0.3523
  612ACTN    C1 6579   2.347   6.128   8.122  0.0873  0.7263  0.5629
  612ACTN    H1 6580   2.409   6.147   8.209  2.7720 -1.9308 -0.6907
  612ACTN    H2 6581   2.252   6.085   8.154 -0.8828  1.0426 -1.8023
  612ACTN    H3 6582   2.327   6.220   8.066 -0.9549  1.2365  1.7599
  613ACTN    H6 6583   2.295   6.031   8.593  1.4891 -0.4552  2.0264
  613ACTN    C3 6584   2.315   5.957   8.515 -0.5266  0.4633  0.5796
  613ACTN    H4 6585   2.230   5.977   8.450  1.2799 -1.2039 -2.4282
  613ACTN    H5 6586   2.406   5.969   8.456 -0.9679  0.7255 -0.0539
  613ACTN    C2 6587   2.292   5.817   8.576  0.6310  0.1281  0.2796
  613ACTN    O1 6588   2.311   5.716   8.509 -0.0824 -0.6339 -0.0354
  613ACTN    C1 6589   2.249   5.792   8.721 -0.5078  0.5271 -0.0121
  613ACTN    H1 6590   2.148   5.826   8.743 -0.9742 -0.2964 -0.8607
  613ACTN    H2 6591   2.329   5.835   8.782  0.2715 -1.2834  0.2689
  613ACTN    H3 6592   2.245   5.684   8.731  0.5926  0.3564 -1.2594
  614ACTN    H6 6593   0.940   5.299   3.328 -1.2488 -0.7321  0.6865
  614ACTN    C3 6594   0.982   5.315   3.427  0.3633  0.7394 -0.2046
  614ACTN    H4 6595   1.090   5.323   3.416  0.3175 -0.4352 -1.6686
  614ACTN    H5 6596   0.937   5.407   3.465 -1.3909 -0.1013 -0.2116
  614ACTN    C2 6597   0.959   5.199   3.521 -0.4376 -0.3954 -0.3500
  614ACTN    O1 6598   0.957   5.220   3.640 -0.1367 -0.0118 -0.3284
  614ACTN    C1 6599   1.005   5.065   3.479 -0.4028 -0.5076 -0.4822
  614ACTN    H1 6600   1.108   5.042   3.506 -0.7118  1.3268  2.4544
  614ACTN    H2 6601   0.986   5.042   3.375  1.8190 -0.9256 -0.8047
  614ACTN    H3 6602   0.947   4.990   3.532  1.0272 -0.2394  1.5306
  615ACTN    H6 6603   4.517   7.684   8.187  1.2906 -0.1276 -0.4613
  615ACTN    C3 6604   4.529   7.581   8.220 -0.4954 -0.0318  0.5552
  615ACTN    H4 6605   4.458   7.520   8.165 -2.9995  1.0099  2.4852
  615ACTN    H5 6606   4.629   7.544   8.196 -0.8139 -0.3906 -0.2188
  615ACTN    C2 6607   4.524   7.564   8.363  0.6384  0.1247  0.9334
  615ACTN    O1 6608   4.571   7.655   8.423  0.1906 -0.4456 -0.2975
  615ACTN    C1 6609   4.426   7.468   8.420  0.1059  0.2077 -0.2721
  615ACTN    H1 6610   4.470   7.372   8.448  0.1837  0.5391  0.7676
  615ACTN    H2 6611   4.345   7.453   8.349  0.3697 -0.8811 -0.3430
  615ACTN    H3 6612   4.384   7.509   8.512 -0.0899 -2.3323  0.7890
  616ACTN    H6 6613   6.075   3.471   3.536  0.0046  2.0728  0.7726
  616ACTN    C3 6614   6.098   3.518   3.441 -0.1318 -0.4565 -0.5693
  616ACTN    H4 6615   6.005   3.565   3.408  0.7576  0.4591 -1.8490
  616ACTN    H5 6616   6.177   3.594   3.441  0.9998 -1.6043  1.1895
  616ACTN    C2 6617   6.143   3.406   3.355 -0.0369  0.5315 -0.1510
  616ACTN    O1 6618   6.055   3.344   3.292  0.1930 -0.3394  0.3884
  616ACTN    C1 6619   6.285   3.364   3.359 -0.8234  0.0301 -0.5736
  616ACTN    H1 6620   6.319   3.345   3.258  1.7006 -0.3805  0.3328
  616ACTN    H2 6621   6.305   3.273   3.415 -0.6420  0.1555 -0.4360
  616ACTN    H3 6622   6.355   3.440   3.393  1.5582 -1.8457 -1.1860
  617ACTN    H6 6623   4.740   4.537   0.733  0.0498  2.3668  1.0109
  617ACTN    C3 6624   4.638   4.529   0.772 -0.2259 -0.2301 -0.0885
  617ACTN    H4 6625   4.643   4.593   0.860  0.7586  0.7992 -0.8737
  617ACTN    H5 6626   4.567   4.569   0.700  1.0924  2.7924  0.2055
  617ACTN    C2 6627   4.608   4.390   0.806 -0.7318 -0.5385 -0.7991
  617ACTN    O1 6628   4.681   4.328   0.886 -0.5170 -0.0045 -0.0788
  617ACTN    C1 6629   4.480   4.332   0.761 -0.4743 -0.2738 -0.8396
  617ACTN    H1 6630   4.486   4.293   0.659  0.4297  0.1933 -0.9757
  617ACTN    H2 6631   4.405   4.411   0.773  1.3522  1.6693 -1.8322
  617ACTN    H3 6632   4.456   4.246   0.823  0.1535 -0.5723 -1.0079
  618ACTN    H6 6633   1.314   8.653   2.558  0.2940 -1.0894 -0.7386
  618ACTN    C3 6634   1.300   8.599   2.652  0.1476  0.6229  0.2658
  618ACTN    H4 6635   1.265   8.498   2.628 -0.5821  1.7330 -3.8263
  618ACTN    H5 6636   1.398   8.594   2.700 -0.2204 -2.8215  0.8218
  618ACTN    C2 6637   1.208   8.675   2.740 -0.2537 -0.7103  0.9242
  618ACTN    O1 6638   1.151   8.614   2.834 -0.3144  0.3408  0.2016
  618ACTN    C1 6639   1.188   8.818   2.702  0.3419 -0.4722  0.5193
  618ACTN    H1 6640   1.273   8.856   2.646  0.7736 -0.0471  1.4727
  618ACTN    H2 6641   1.161   8.882   2.786  0.3129  2.0922 -1.3879
  618ACTN    H3 6642   1.103   8.813   2.633 -1.6475  1.1001  2.7983
  619ACTN    H6 6643   1.337   1.702   2.346 -0.4377 -1.6290  1.4822
  619ACTN    C3 6644   1.311   1.780   2.417  0.7425  0.1980 -0.0381
  619ACTN    H4 6645   1.245   1.740   2.494 -0.8652  1.7640 -0.5434
  619ACTN    H5 6646   1.395   1.826   2.469 -0.5216  0.1295  2.1155
  619ACTN    C2 6647   1.241   1.895   2.347  0.3421 -0.0106 -0.3087
  619ACTN    O1 6648   1.226   2.002   2.406 -0.4917  0.5571  0.0366
  619ACTN    C1 6649   1.161   1.870   2.225 -1.2159 -0.7450 -0.3172
  619ACTN    H1 6650   1.057   1.851   2.254 -1.2245  0.7496  0.6802
  619ACTN    H2 6651   1.188   1.780   2.170  0.0499 -0.0467 -0.8588
  619ACTN    H3 6652   1.155   1.959   2.162  4.4157  1.2615  1.7141
  620ACTN    H6 6653   2.155   2.496   7.467 -0.0691 -0.2754  0.9985
  620ACTN    C3 6654   2.183   2.392   7.483  0.2653 -0.2780  0.4050
  620ACTN    H4 6655   2.261   2.402   7.558 -0.7888 -0.0461  1.4984
  620ACTN    H5 6656   2.087   2.348   7.512  1.1775 -0.6039  3.0567
  620ACTN    C2 6657   2.238   2.331   7.346 -0.3413 -0.5408 -0.1707
  620ACTN    O1 6658   2.277   2.412   7.261 -0.2735  0.2214 -0.0844
  620ACTN    C1 6659   2.162   2.204   7.309 -0.1814  0.9323  0.5765
  620ACTN    H1 6660   2.085   2.167   7.377  0.4436 -1.5539 -0.0243
  620ACTN    H2 6661   2.240   2.129   7.308  1.2586  2.4011  0.7790
  620ACTN    H3 6662   2.116   2.209   7.210  2.4695  0.4366 -0.7017
  621ACTN    H6 6663   4.816   5.121   1.424 -2.4195 -0.6124 -2.0656
  621ACTN    C3 6664   4.871   5.031   1.398 -0.3469  0.0989 -0.3040
  621ACTN    H4 6665   4.813   4.987   1.317 -0.3445  0.0169 -0.2619
  621ACTN    H5 6666   4.969   5.055   1.358 -0.5242  2.4160  0.5665
  621ACTN    C2 6667   4.899   4.932   1.510 -0.0333  0.0065  0.4103
  621ACTN    O1 6668   5.003   4.935   1.577  0.0916  0.1221 -0.5188
  621ACTN    C1 6669   4.800   4.832   1.548 -0.6415 -0.2828  0.4953
  621ACTN    H1 6670   4.703   4.880   1.548  0.0594  1.1903  1.6791
  621ACTN    H2 6671   4.817   4.791   1.648 -1.9632 -1.6477  0.1762
  621ACTN    H3 6672   4.812   4.754   1.473  2.8666  0.0890  0.5677
  622ACTN    H6 6673   6.414   7.869   3.510  0.8558  0.8413  0.4949
  622ACTN    C3 6674   6.380   7.894   3.611 -0.7025  0.0042  0.1944
  622ACTN    H4 6675   6.473   7.883   3.667 -0.0797 -2.4498 -1.2441
  622ACTN    H5 6676   6.348   7.998   3.609  1.7782  0.8238  0.6001
  622ACTN    C2 6677   6.269   7.794   3.643 -0.2620 -1.1682  0.3961
  622ACTN    O1 6678   6.152   7.826   3.619  1.0288  0.1029 -0.0425
  622ACTN    C1 6679   6.313   7.665   3.704 -0.3042 -0.2468  0.0976
  622ACTN    H1 6680   6.392   7.627   3.639 -0.8824 -0.6114 -0.3995
  622ACTN    H2 6681   6.225   7.602   3.714 -1.4049  1.5447  2.0190
  622ACTN    H3 6682   6.362   7.687   3.799 -0.1749 -0.7625  0.1488
  623ACTN    H6 6683   4.746   2.369   5.774  1.2073  2.0660  0.1974
  623ACTN    C3 6684   4.812   2.294   5.818 -0.3666  0.2674 -0.4539
  623ACTN    H4 6685   4.787   2.299   5.924 -0.6144 -1.0837 -0.4431
  623ACTN    H5 6686   4.791   2.193   5.783  2.4009 -0.1097 -1.1091
  623ACTN    C2 6687   4.959   2.310   5.801 -0.1638 -0.0326 -0.6542
  623ACTN    O1 6688   5.013   2.415   5.817 -0.1168  0.8407  0.2981
  623ACTN    C1 6689   5.028   2.197   5.739 -0.2198  0.3070 -0.5263
  623ACTN    H1 6690   5.018   2.112   5.806  2.1141  1.5823  1.5302
  623ACTN    H2 6691   5.134   2.220   5.736  0.4193 -2.1089  2.0344
  623ACTN    H3 6692   4.978   2.172   5.646 -0.4529  1.8906 -0.8438
  624ACTN    H6 6693   7.465   1.589   5.367  3.2575 -0.6049  1.8046
  624ACTN    C3 6694   7.451   1.483   5.345 -0.0954  0.1965 -0.3387
  624ACTN    H4 6695   7.394   1.479   5.252  1.4145 -1.0740 -1.2363
  624ACTN    H5 6696   7.547   1.438   5.322 -0.2606 -0.6538  0.6168
  624ACTN    C2 6697   7.368   1.421   5.450  0.0028 -0.2780 -0.5027
  624ACTN    O1 6698   7.273   1.348   5.425  1.1372 -0.7325  0.1731
  624ACTN    C1 6699   7.420   1.454   5.586 -0.2679  0.1030 -0.4597
  624ACTN    H1 6700   7.435   1.561   5.600 -1.7321  0.4063 -1.0544
  624ACTN    H2 6701   7.517   1.408   5.600 -0.8355 -1.0103 -0.1408
  624ACTN    H3 6702   7.346   1.426   5.661  2.7796  1.1307  3.0753
  625ACTN    H6 6703   3.006   1.767   0.069  0.2465 -0.6665 -0.0787
  625ACTN    C3 6704   2.940   1.780   0.154  0.0077 -0.1249 -0.3499
  625ACTN    H4 6705   2.837   1.771   0.119  0.0019  1.5302 -0.7956
  625ACTN    H5 6706   2.961   1.712   0.236  0.4620 -0.6377 -0.8912
  625ACTN    C2 6707   2.949   1.921   0.210  0.5316  0.4664 -0.2094
  625ACTN    O1 6708   2.867   2.009   0.185  0.3550 -0.4021  0.2588
  625ACTN    C1 6709   3.079   1.960   0.278  0.1956 -0.2563  0.3218
  625ACTN    H1 6710   3.053   2.056   0.323 -1.2728 -0.5408  0.1011
  625ACTN    H2 6711   3.167   1.975   0.215 -0.1142  2.7701  0.5126
  625ACTN    H3 6712   3.095   1.882   0.353 -2.1974 -0.3292  0.7851
  626ACTN    H6 6713   6.967   1.863   1.778 -1.9043  0.6417  1.5905
  626ACTN    C3 6714   7.027   1.938   1.831  0.2464 -0.0140  0.1531
  626ACTN    H4 6715   7.103   1.881   1.884 -0.4250 -2.7139 -1.6616
  626ACTN    H5 6716   7.076   1.996   1.753  0.5984 -0.3310  0.1395
  626ACTN    C2 6717   6.939   2.020   1.930  0.3415 -0.3874 -0.7585
  626ACTN    O1 6718   6.846   2.085   1.887  0.1053 -0.0398  0.1702
  626ACTN    C1 6719   6.991   2.026   2.069 -0.7545 -0.1023 -0.3844
  626ACTN    H1 6720   6.912   2.035   2.144  2.5166 -0.8680  3.3084
  626ACTN    H2 6721   7.054   2.114   2.077 -1.3669 -0.0012  4.8554
  626ACTN    H3 6722   7.043   1.935   2.095 -1.0859 -0.3504 -0.5842
  627ACTN    H6 6723   4.228   3.862   4.365 -0.0481 -2.0179  0.0300
  627ACTN    C3 6724   4.120   3.875   4.356  0.2710  0.3146 -0.6651
  627ACTN    H4 6725   4.089   3.948   4.430 -0.2488  2.2500 -2.7206
  627ACTN    H5 6726   4.093   3.929   4.265 -1.7907  0.5169  0.0552
  627ACTN    C2 6727   4.053   3.741   4.364 -0.4191  0.1819 -1.1543
  627ACTN    O1 6728   4.080   3.653   4.285 -0.7387  0.0522  0.1774
  627ACTN    C1 6729   3.967   3.716   4.479 -0.2691  0.7301  0.6146
  627ACTN    H1 6730   3.877   3.667   4.442  0.5030 -0.0278 -0.3265
  627ACTN    H2 6731   3.945   3.812   4.526  1.6151 -0.0585  3.2304
  627ACTN    H3 6732   4.017   3.649   4.550 -1.2892 -0.4876  0.1994
  628ACTN    H6 6733   6.444   1.417   7.373  1.8960  1.1427 -1.9826
  628ACTN    C3 6734   6.433   1.345   7.291 -0.5172 -0.5446 -0.2554
  628ACTN    H4 6735   6.532   1.341   7.245 -1.5070 -4.9995 -2.1895
  628ACTN    H5 6736   6.406   1.249   7.335 -0.6857 -1.3799 -2.1321
  628ACTN    C2 6737   6.336   1.398   7.198  0.4247 -0.9514  0.1919
  628ACTN    O1 6738   6.372   1.489   7.126 -0.2745 -0.2233 -0.1341
  628ACTN    C1 6739   6.208   1.331   7.170  0.2804 -0.0008 -0.2551
  628ACTN    H1 6740   6.227   1.234   7.125 -0.6198 -1.2023  1.8963
  628ACTN    H2 6741   6.145   1.394   7.107 -1.2295 -0.4719  0.7536
  628ACTN    H3 6742   6.155   1.317   7.264  1.5176  1.3445  0.6661
  629ACTN    H6 6743   8.511   1.943   5.550 -0.9263 -0.9417 -0.0618
  629ACTN    C3 6744   8.446   2.012   5.496 -0.5408 -0.5495 -0.0253
  629ACTN    H4 6745   8.406   1.961   5.408  1.5172 -0.6313 -0.9302
  629ACTN    H5 6746   8.369   2.049   5.564 -1.4271  0.1529 -1.4016
  629ACTN    C2 6747   8.528   2.130   5.452 -0.0007 -0.3133  0.5624
  629ACTN    O1 6748   8.562   2.154   5.337 -0.3217 -0.0065  0.1586
  629ACTN    C1 6749   8.560   2.222   5.563  0.3726  0.3744 -0.2326
  629ACTN    H1 6750   8.505   2.201   5.655  2.6801  0.7229  1.2774
  629ACTN    H2 6751   8.532   2.322   5.532 -1.3068 -0.2989 -0.9684
  629ACTN    H3 6752   8.665   2.221   5.595  0.6535  0.1129 -1.1515
  630ACTN    H6 6753   7.625   2.411   4.362  1.0913 -0.5668  0.0378
  630ACTN    C3 6754   7.567   2.369   4.445 -0.4046  0.7192 -0.3322
  630ACTN    H4 6755   7.616   2.279   4.483  0.0448  1.2985  0.4423
  630ACTN    H5 6756   7.562   2.445   4.522  2.7812  2.4478 -1.7694
  630ACTN    C2 6757   7.429   2.328   4.398 -0.2064  0.2841  0.2859
  630ACTN    O1 6758   7.377   2.371   4.296 -0.1453  0.3037 -0.4407
  630ACTN    C1 6759   7.355   2.225   4.466  0.3638 -1.1778  1.0554
  630ACTN    H1 6760   7.416   2.179   4.543  2.6030  0.1312  0.1266
  630ACTN    H2 6761   7.335   2.149   4.390 -1.6856  2.7543 -2.5785
  630ACTN    H3 6762   7.260   2.263   4.504  0.9524  0.2661  1.1269
  631ACTN    H6 6763   5.050   8.016   6.877  1.6863 -0.1808 -1.1504
  631ACTN    C3 6764   5.087   8.007   6.980 -0.2962 -0.6580 -0.4562
  631ACTN    H4 6765   5.025   8.067   7.046 -1.3961  0.0137 -2.0464
  631ACTN    H5 6766   5.192   8.036   6.980 -0.8376  1.4198 -1.2506
  631ACTN    C2 6767   5.054   7.864   7.026  0.1758 -0.7674 -0.0620
  631ACTN    O1 6768   4.938   7.828   7.026  0.2596  0.6235  0.7852
  631ACTN    C1 6769   5.166   7.773   7.070  0.4375 -0.3540 -0.6500
  631ACTN    H1 6770   5.260   7.829   7.077 -0.0339  0.3842 -0.0909
  631ACTN    H2 6771   5.173   7.687   7.004 -1.9461  0.3116 -1.8253
  631ACTN    H3 6772   5.134   7.732   7.166  0.1326  1.1235 -0.0947
  632ACTN    H6 6773   3.501   3.073   6.798 -2.1166  0.2471  3.7662
  632ACTN    C3 6774   3.504   3.182   6.788 -1.0183 -0.0699  0.0898
  632ACTN    H4 6775   3.605   3.198   6.751 -1.5101  0.7370 -0.9328
  632ACTN    H5 6776   3.433   3.214   6.711 -0.9151  0.0779  0.0571
  632ACTN    C2 6777   3.480   3.249   6.916  0.0696  0.5367 -0.8305
  632ACTN    O1 6778   3.478   3.176   7.018  0.7532 -0.0258 -0.0880
  632ACTN    C1 6779   3.453   3.390   6.924 -0.1289  0.1741 -0.0375
  632ACTN    H1 6780   3.429   3.448   6.834  0.7150  0.2652 -0.2100
  632ACTN    H2 6781   3.528   3.449   6.976 -1.3803  0.7280  1.1774
  632ACTN    H3 6782   3.372   3.405   6.995 -1.2356 -0.1490 -1.2190
  633ACTN    H6 6783   1.533   0.590   3.346  0.2604  0.6278  0.1723
  633ACTN    C3 6784   1.460   0.536   3.287  0.7449 -0.1798  0.3043
  633ACTN    H4 6785   1.367   0.558   3.341  0.5828 -2.1359  0.8904
  633ACTN    H5 6786   1.462   0.576   3.186  0.2616  0.0487  0.3812
  633ACTN    C2 6787   1.485   0.388   3.293  0.6353 -0.4163 -0.2244
  633ACTN    O1 6788   1.590   0.347   3.347 -0.4920 -0.3882  0.1975
  633ACTN    C1 6789   1.386   0.287   3.256  0.0183  0.6229 -0.0460
  633ACTN    H1 6790   1.290   0.334   3.233 -0.1727  0.3479  0.1881
  633ACTN    H2 6791   1.369   0.215   3.336 -1.1720  1.5231  0.5340
  633ACTN    H3 6792   1.416   0.225   3.172  2.0701  0.0008  1.1288
  634ACTN    H6 6793   2.615   4.150   0.389 -1.5027 -0.0666 -1.1773
  634ACTN    C3 6794   2.599   4.117   0.491  0.2257  0.1982 -0.8080
  634ACTN    H4 6795   2.643   4.197   0.550 -0.7805 -0.2364  0.5815
  634ACTN    H5 6796   2.492   4.118   0.511 -0.2455  1.6873 -3.1672
  634ACTN    C2 6797   2.677   3.992   0.520  0.3554 -0.0234 -0.5653
  634ACTN    O1 6798   2.619   3.892   0.553 -0.4786 -0.3088  0.0431
  634ACTN    C1 6799   2.815   3.972   0.486 -0.2438 -0.0982 -0.0809
  634ACTN    H1 6800   2.856   4.071   0.466 -1.5510  0.5921  0.5647
  634ACTN    H2 6801   2.833   3.901   0.406  1.7348 -1.3406  1.4184
  634ACTN    H3 6802   2.867   3.931   0.572  3.9522  0.3900 -2.2537
  635ACTN    H6 6803   6.344   6.627   2.874 -1.0125  1.7504  0.2743
  635ACTN    C3 6804   6.402   6.638   2.965 -0.5288 -0.3840  0.2461
  635ACTN    H4 6805   6.441   6.739   2.959 -0.0790 -0.6338 -1.1729
  635ACTN    H5 6806   6.333   6.642   3.050 -2.3565 -0.2009 -1.2141
  635ACTN    C2 6807   6.514   6.547   2.981  0.0675  0.0726  0.0287
  635ACTN    O1 6808   6.617   6.573   2.924  0.0040  0.0813  0.0556
  635ACTN    C1 6809   6.483   6.408   3.008 -0.3932 -0.0193  0.1426
  635ACTN    H1 6810   6.569   6.342   2.997 -0.8215 -0.5602  0.0253
  635ACTN    H2 6811   6.415   6.360   2.937  1.3018 -2.7371  0.2736
  635ACTN    H3 6812   6.432   6.385   3.102  1.1028 -0.1842  0.9271
  636ACTN    H6 6813   1.352   7.163   4.962 -1.0637  1.4284  1.1033
  636ACTN    C3 6814   1.345   7.099   5.050  0.6208  0.2254  0.3812
  636ACTN    H4 6815   1.312   7.001   5.018 -2.5099  0.4375  2.6313
  636ACTN    H5 6816   1.444   7.079   5.093 -0.2481 -3.1755  0.9167
  636ACTN    C2 6817   1.242   7.149   5.148  0.6280 -0.1551 -0.1926
  636ACTN    O1 6818   1.256   7.116   5.267  0.5592  0.3275  0.6013
  636ACTN    C1 6819   1.118   7.215   5.106 -0.6572  0.0630 -0.3831
  636ACTN    H1 6820   1.056   7.138   5.059 -1.7525  0.2743  0.6652
  636ACTN    H2 6821   1.149   7.294   5.039 -1.5508  1.9363  1.3518
  636ACTN    H3 6822   1.057   7.249   5.190  0.0054  0.0354  0.1074
  637ACTN    H6 6823   6.595   6.426   4.092 -0.7692 -1.0721  3.4946
  637ACTN    C3 6824   6.607   6.531   4.117  0.0654 -0.2043 -0.3369
  637ACTN    H4 6825   6.509   6.576   4.133  0.3231  0.3327 -0.2380
  637ACTN    H5 6826   6.657   6.534   4.213 -0.9204 -1.5919  0.2357
  637ACTN    C2 6827   6.696   6.615   4.024 -0.4303  0.6532 -0.1194
  637ACTN    O1 6828   6.654   6.653   3.917  0.3884  0.0086  0.2074
  637ACTN    C1 6829   6.846   6.603   4.046 -0.7809  0.3202 -0.4261
  637ACTN    H1 6830   6.900   6.617   3.952 -0.9738  0.7288 -0.4765
  637ACTN    H2 6831   6.877   6.505   4.082  0.4317  1.3570  1.4514
  637ACTN    H3 6832   6.875   6.671   4.126 -0.2639  0.0898 -0.4169
  638ACTN    H6 6833   1.379   2.530   2.045 -0.6436  1.5868  0.9527
  638ACTN    C3 6834   1.281   2.483   2.037  0.5376 -0.7317 -0.2152
  638ACTN    H4 6835   1.286   2.375   2.020  0.1502 -0.6457 -0.9069
  638ACTN    H5 6836   1.224   2.508   2.126 -0.5065  0.6624 -1.2606
  638ACTN    C2 6837   1.211   2.541   1.919  0.2667 -1.0013  0.1754
  638ACTN    O1 6838   1.271   2.571   1.817 -0.0772 -0.0649 -0.2665
  638ACTN    C1 6839   1.062   2.557   1.940  0.4290 -0.2606  0.1431
  638ACTN    H1 6840   1.020   2.571   1.840  0.6911 -1.2763 -0.1161
  638ACTN    H2 6841   1.042   2.646   1.999  2.8114  0.9403 -0.8300
  638ACTN    H3 6842   1.004   2.478   1.987  0.9658  1.6409  4.1951
  639ACTN    H6 6843   4.376   5.817   1.722  0.2440 -0.3918  0.3520
  639ACTN    C3 6844   4.270   5.791   1.722  0.3249 -0.7333  0.1687
  639ACTN    H4 6845   4.217   5.851   1.649 -0.2903  0.4744  1.5741
  639ACTN    H5 6846   4.265   5.683   1.708 -2.2455 -0.6810  0.3488
  639ACTN    C2 6847   4.221   5.829   1.857  0.0700 -0.2015 -0.7138
  639ACTN    O1 6848   4.209   5.948   1.887 -0.3863 -0.0008 -0.5233
  639ACTN    C1 6849   4.152   5.732   1.936  0.0484 -0.2250  0.0018
  639ACTN    H1 6850   4.227   5.665   1.980  2.3315  2.7537  0.7921
  639ACTN    H2 6851   4.080   5.676   1.876 -0.8789  1.0087 -0.0543
  639ACTN    H3 6852   4.092   5.775   2.015  2.3809 -0.8802  2.2046
  640ACTN    H6 6853   1.675   1.916   1.992 -1.9028 -0.7638  0.7395
  640ACTN    C3 6854   1.697   2.007   2.048  0.1531 -0.8695  0.1334
  640ACTN    H4 6855   1.658   2.083   1.980  1.1798  1.1503  1.7475
  640ACTN    H5 6856   1.633   2.002   2.136  1.7607  0.6400  1.4286
  640ACTN    C2 6857   1.843   2.022   2.085 -0.7941  0.3006 -0.0948
  640ACTN    O1 6858   1.876   2.049   2.202  0.1795  0.4515  0.1591
  640ACTN    C1 6859   1.946   2.021   1.979  0.5389  1.2649  0.3027
  640ACTN    H1 6860   2.046   1.989   2.007  0.5757  0.9798 -0.1631
  640ACTN    H2 6861   1.957   2.123   1.942  0.9913  1.9681  2.3007
  640ACTN    H3 6862   1.908   1.958   1.899 -1.9919  0.7754  1.8358
  641ACTN    H6 6863   8.316   7.977   4.370 -0.4933 -0.3280 -0.5282
  641ACTN    C3 6864   8.367   7.957   4.275 -0.1941 -0.0044 -0.4346
  641ACTN    H4 6865   8.404   8.055   4.245 -0.6364  0.0841 -0.6860
  641ACTN    H5 6866   8.300   7.924   4.196  0.1829 -3.4270  0.5754
  641ACTN    C2 6867   8.482   7.873   4.302 -0.3261 -1.3753 -0.0789
  641ACTN    O1 6868   8.587   7.925   4.333 -0.5870  0.2922  0.1898
  641ACTN    C1 6869   8.461   7.730   4.332 -0.4173  0.4927 -0.2198
  641ACTN    H1 6870   8.403   7.671   4.261 -0.2511 -1.5709  1.3152
  641ACTN    H2 6871   8.409   7.729   4.427  1.2749 -0.4121  0.7332
  641ACTN    H3 6872   8.549   7.669   4.352 -1.1595  0.4104  3.1111
  642ACTN    H6 6873   2.641   0.006   1.930 -2.0697  0.3978 -0.6032
  642ACTN    C3 6874   2.697   0.079   1.871  0.2558 -0.6687  0.2515
  642ACTN    H4 6875   2.806   0.073   1.878  0.0533 -2.1378  3.0740
  642ACTN    H5 6876   2.666   0.055   1.770 -0.7169 -0.1875  0.4331
  642ACTN    C2 6877   2.661   0.221   1.875  0.0876  0.5482  0.4092
  642ACTN    O1 6878   2.669   0.299   1.777 -0.1093  0.2543  0.1345
  642ACTN    C1 6879   2.595   0.268   2.004  0.2843  0.1441  0.2027
  642ACTN    H1 6880   2.502   0.211   2.011  0.8944 -0.8423  0.3691
  642ACTN    H2 6881   2.576   0.375   1.993  3.3565  0.9653  2.3894
  642ACTN    H3 6882   2.656   0.247   2.091  4.5813  1.5704 -2.3262
  643ACTN    H6 6883   1.528   1.756   3.444  1.0914 -0.0774  0.4195
  643ACTN    C3 6884   1.546   1.681   3.522 -0.6857 -0.2028  0.7159
  643ACTN    H4 6885   1.652   1.657   3.514 -0.6549  0.5029 -1.5579
  643ACTN    H5 6886   1.533   1.727   3.620 -1.3968  0.6314  0.2470
  643ACTN    C2 6887   1.470   1.554   3.499 -0.0293  0.8582 -0.0820
  643ACTN    O1 6888   1.454   1.518   3.379 -0.1004 -0.8691  0.7722
  643ACTN    C1 6889   1.420   1.478   3.614  0.0982  0.6656 -0.7157
  643ACTN    H1 6890   1.369   1.551   3.676 -1.2000 -0.8031 -0.0164
  643ACTN    H2 6891   1.503   1.437   3.672  0.4065 -1.6884 -2.7703
  643ACTN    H3 6892   1.354   1.395   3.589 -2.0726  2.4583 -1.0882
  644ACTN    H6 6893   7.562   6.268   0.551  1.2004  1.2261  0.3146
  644ACTN    C3 6894   7.573   6.221   0.649  0.0697 -0.7104 -0.4489
  644ACTN    H4 6895   7.633   6.131   0.642  1.6763 -0.0077  3.0489
  644ACTN    H5 6896   7.628   6.296   0.706 -2.7721  0.5534  0.7808
  644ACTN    C2 6897   7.441   6.189   0.713 -0.3517 -0.3022 -0.4172
  644ACTN    O1 6898   7.334   6.220   0.659  0.2708 -0.0611  0.1020
  644ACTN    C1 6899   7.432   6.114   0.846  0.1479 -0.4153  0.0631
  644ACTN    H1 6900   7.492   6.023   0.833  0.5076  0.3445 -4.4958
  644ACTN    H2 6901   7.329   6.084   0.867  0.4412 -2.9751 -1.8828
  644ACTN    H3 6902   7.477   6.177   0.922 -0.4602  1.0143 -0.7402
  645ACTN    H6 6903   1.212   0.617   6.019 -0.9707 -0.8495 -0.9151
  645ACTN    C3 6904   1.273   0.658   5.938  0.5997 -0.4125  0.4671
  645ACTN    H4 6905   1.374   0.619   5.953  1.3425  1.8247  1.4196
  645ACTN    H5 6906   1.239   0.614   5.844  1.2152 -0.4332  0.2499
  645ACTN    C2 6907   1.263   0.809   5.933 -0.1148 -0.7427  0.6153
  645ACTN    O1 6908   1.335   0.887   6.001 -0.2378 -0.0813 -0.5191
  645ACTN    C1 6909   1.169   0.855   5.840  0.2621 -0.8378  0.2775
  645ACTN    H1 6910   1.218   0.853   5.743 -0.2485  1.1706 -0.0621
  645ACTN    H2 6911   1.147   0.958   5.870  3.3321  0.2105 -0.9118
  645ACTN    H3 6912   1.076   0.799   5.839  0.0584 -0.5601  1.9142
  646ACTN    H6 6913   0.540   7.659   2.258  0.3870  1.8821  0.8868
  646ACTN    C3 6914   0.478   7.668   2.169  0.9984  0.2504  0.2840
  646ACTN    H4 6915   0.440   7.770   2.170  2.5932  0.8605  3.2226
  646ACTN    H5 6916   0.536   7.655   2.078  3.1855  0.8754  1.5665
  646ACTN    C2 6917   0.372   7.560   2.180  0.1609  0.2028 -0.5765
  646ACTN    O1 6918   0.273   7.582   2.248 -0.8114 -0.7630  0.8629
  646ACTN    C1 6919   0.402   7.417   2.136  0.3680 -0.2745  0.1352
  646ACTN    H1 6920   0.460   7.361   2.210  1.2501 -1.1129 -1.1734
  646ACTN    H2 6921   0.460   7.428   2.045  2.3649  1.0002  1.5227
  646ACTN    H3 6922   0.310   7.360   2.119  0.3189  0.2811 -1.5493
  647ACTN    H6 6923   8.541   3.474   4.194  2.9730 -1.8954 -0.0818
  647ACTN    C3 6924   8.576   3.539   4.114  0.2280  0.4668  0.5738
  647ACTN    H4 6925   8.592   3.486   4.020 -1.2477  0.1882  0.4803
  647ACTN    H5 6926   8.670   3.593   4.126  0.0957  0.9412 -0.4356
  647ACTN    C2 6927   8.477   3.645   4.083  0.2506 -0.0313  0.6313
  647ACTN    O1 6928   8.358   3.617   4.073  0.4281 -0.2530  0.1764
  647ACTN    C1 6929   8.525   3.790   4.093 -0.1975 -0.0885 -0.5588
  647ACTN    H1 6930   8.566   3.813   4.192 -1.8251  1.9288 -0.3133
  647ACTN    H2 6931   8.441   3.859   4.088  0.2795  0.3905 -2.1527
  647ACTN    H3 6932   8.600   3.819   4.019 -1.2800  0.1475 -1.5776
  648ACTN    H6 6933   6.002   7.786   4.163  1.1346 -0.4746  1.7586
  648ACTN    C3 6934   5.922   7.818   4.231 -0.0927 -0.2517  0.2414
  648ACTN    H4 6935   5.826   7.770   4.218 -0.8865  1.2828  0.2585
  648ACTN    H5 6936   5.952   7.780   4.328 -0.2188  0.2687  0.4875
  648ACTN    C2 6937   5.900   7.963   4.230  0.4637 -0.3698 -0.2186
  648ACTN    O1 6938   5.981   8.033   4.294 -0.1134 -0.5430 -0.4798
  648ACTN    C1 6939   5.832   8.012   4.107 -0.5056 -0.1249  0.2224
  648ACTN    H1 6940   5.905   8.014   4.026 -1.5604  0.4205 -0.7142
  648ACTN    H2 6941   5.790   8.111   4.124 -0.9828 -0.5241  1.4743
  648ACTN    H3 6942   5.753   7.943   4.078  1.7137 -2.3009 -0.7798
  649ACTN    H6 6943   2.916   7.161   1.215 -0.3648  0.0435 -0.0401
  649ACTN    C3 6944   2.878   7.063   1.189 -0.1858  0.0863 -0.4662
  649ACTN    H4 6945   2.950   6.981   1.196 -1.8829 -1.2347  2.0711
  649ACTN    H5 6946   2.798   7.042   1.259 -0.1247 -1.3264 -0.7979
  649ACTN    C2 6947   2.831   7.058   1.046 -0.0369 -0.0131  0.9634
  649ACTN    O1 6948   2.778   6.960   1.005 -0.3453 -0.2463 -0.2425
  649ACTN    C1 6949   2.850   7.178   0.960 -0.1764  0.1602  0.6091
  649ACTN    H1 6950   2.760   7.214   0.911 -1.2559 -1.7209  1.1764
  649ACTN    H2 6951   2.929   7.163   0.886 -0.2940 -1.1254  0.7286
  649ACTN    H3 6952   2.893   7.257   1.021  1.2303 -0.8490  0.9524
  650ACTN    H6 6953   4.574   8.269   8.596 -0.4470  0.8752  1.8877
  650ACTN    C3 6954   4.619   8.366   8.574  0.1695  0.1570 -0.1663
  650ACTN    H4 6955   4.540   8.429   8.533  1.8831  1.7189 -1.1334
  650ACTN    H5 6956   4.653   8.402   8.671  0.5238  3.9858 -1.6150
  650ACTN    C2 6957   4.730   8.362   8.468  0.3020 -0.6374 -0.3514
  650ACTN    O1 6958   4.764   8.252   8.432 -0.1552  0.2033 -0.6075
  650ACTN    C1 6959   4.795   8.481   8.403  0.1028 -0.5804  0.0147
  650ACTN    H1 6960   4.774   8.577   8.450 -0.6964 -0.9522  0.4260
  650ACTN    H2 6961   4.768   8.489   8.297  0.7931  0.6436 -0.0793
  650ACTN    H3 6962   4.903   8.471   8.418  0.2653 -1.4354 -1.6108
  651ACTN    H6 6963   1.494   6.655   1.864  0.7004 -1.4618  1.5179
  651ACTN    C3 6964   1.601   6.661   1.848  0.4842 -0.3275  0.4702
  651ACTN    H4 6965   1.637   6.684   1.948 -0.5373  1.8998  0.3524
  651ACTN    H5 6966   1.642   6.569   1.805 -1.9124 -0.8028 -0.9017
  651ACTN    C2 6967   1.629   6.776   1.751 -0.7926  0.3230  0.6162
  651ACTN    O1 6968   1.673   6.886   1.792  0.4255  0.5564  0.7420
  651ACTN    C1 6969   1.605   6.760   1.607  0.4320  0.1570  0.0803
  651ACTN    H1 6970   1.660   6.673   1.572 -0.3596 -0.1794 -0.3406
  651ACTN    H2 6971   1.636   6.855   1.564 -0.1348  1.3901  2.3046
  651ACTN    H3 6972   1.499   6.739   1.590  0.2781  0.0424  1.1477
  652ACTN    H6 6973   6.502   2.403   3.405  1.5125  0.8784 -1.1980
  652ACTN    C3 6974   6.441   2.357   3.327  0.3728 -0.0948  0.2366
  652ACTN    H4 6975   6.382   2.433   3.276  0.6644  0.0280  0.0784
  652ACTN    H5 6976   6.513   2.313   3.257  0.7504 -0.7456  1.0164
  652ACTN    C2 6977   6.360   2.251   3.388  0.3583 -0.3212  0.3660
  652ACTN    O1 6978   6.390   2.142   3.343  0.0974  0.0660  0.0447
  652ACTN    C1 6979   6.287   2.260   3.520  0.8560 -0.8903 -0.2388
  652ACTN    H1 6980   6.296   2.348   3.585  1.3079 -1.5370  0.5777
  652ACTN    H2 6981   6.309   2.167   3.572  1.1804 -0.6680  0.0236
  652ACTN    H3 6982   6.181   2.260   3.493  0.3005  0.1985  1.8314
  653ACTN    H6 6983   6.926   7.924   3.634 -0.1763 -0.2032 -0.1877
  653ACTN    C3 6984   6.934   7.941   3.526 -0.5927 -0.1273 -0.2102
  653ACTN    H4 6985   6.834   7.929   3.486 -1.2164 -1.7173  1.7061
  653ACTN    H5 6986   6.961   8.046   3.514 -3.1856  0.7714  1.4463
  653ACTN    C2 6987   7.035   7.857   3.462  0.2699 -0.1964 -0.8661
  653ACTN    O1 6988   7.010   7.765   3.385 -0.2224  0.1552 -0.4398
  653ACTN    C1 6989   7.178   7.899   3.468 -0.0899 -1.3785 -0.5919
  653ACTN    H1 6990   7.244   7.820   3.431  1.4044 -0.4600  0.0525
  653ACTN    H2 6991   7.206   7.928   3.569  0.9374  1.5081 -1.6653
  653ACTN    H3 6992   7.198   7.983   3.403 -0.8573 -0.8492 -0.1494
  654ACTN    H6 6993   5.426   5.392   0.513 -1.1772  0.7068 -1.1899
  654ACTN    C3 6994   5.504   5.467   0.507  0.0881 -0.3755  0.7679
  654ACTN    H4 6995   5.504   5.518   0.603  2.0188 -0.2132  0.7024
  654ACTN    H5 6996   5.593   5.410   0.482 -0.5126 -1.1345  0.3286
  654ACTN    C2 6997   5.460   5.560   0.396  0.6901 -0.0492 -0.5480
  654ACTN    O1 6998   5.505   5.537   0.282  0.8175  0.5666  0.4143
  654ACTN    C1 6999   5.387   5.683   0.428 -0.3923  0.2331  0.9117
  654ACTN    H1 7000   5.427   5.747   0.507  2.2275  1.0307 -1.0098
  654ACTN    H2 7001   5.293   5.643   0.468 -0.2278 -1.7275 -0.6062
  654ACTN    H3 7002   5.374   5.752   0.345 -0.3759 -0.8741 -0.0107
  655ACTN    H6 7003   1.461   2.412   1.026  0.8846  1.6283  0.6846
  655ACTN    C3 7004   1.386   2.469   0.971  0.1389  0.7447  0.7602
  655ACTN    H4 7005   1.398   2.465   0.863 -2.4449 -1.3768  0.5066
  655ACTN    H5 7006   1.285   2.437   0.997  0.2966 -0.2126  0.1935
  655ACTN    C2 7007   1.389   2.610   1.017  0.5247  0.2175  1.2258
  655ACTN    O1 7008   1.302   2.683   0.967  0.0266  0.3017 -0.4066
  655ACTN    C1 7009   1.498   2.658   1.107  0.0051 -0.0839  0.5611
  655ACTN    H1 7010   1.589   2.614   1.067 -1.1695 -0.4564 -1.7838
  655ACTN    H2 7011   1.489   2.619   1.209 -2.2298  0.3838  0.5612
  655ACTN    H3 7012   1.497   2.767   1.096  1.8466 -0.1315 -0.2135
  656ACTN    H6 7013   7.315   4.448   2.228  0.2289 -0.2790  0.2062
  656ACTN    C3 7014   7.424   4.447   2.235  0.2541  0.4536 -0.0624
  656ACTN    H4 7015   7.454   4.369   2.304  0.5608  0.6768  0.0534
  656ACTN    H5 7016   7.464   4.425   2.136  0.0802  2.0313 -0.5021
  656ACTN    C2 7017   7.468   4.575   2.293 -0.1589 -0.5873 -0.3362
  656ACTN    O1 7018   7.570   4.635   2.241  0.4297 -0.3568  0.0652
  656ACTN    C1 7019   7.418   4.624   2.434  0.1610  0.6722 -0.9071
  656ACTN    H1 7020   7.461   4.720   2.462 -1.9903  0.9829  1.4439
  656ACTN    H2 7021   7.454   4.552   2.507 -1.1061  2.1572  1.2525
  656ACTN    H3 7022   7.309   4.635   2.430  0.2415  2.2503  0.5470
  657ACTN    H6 7023   5.019   4.015   4.394 -1.2558  0.3219  0.0504
  657ACTN    C3 7024   4.980   3.921   4.355 -0.0135 -0.0308 -0.3825
  657ACTN    H4 7025   4.900   3.940   4.283  1.3366  0.3143 -1.7964
  657ACTN    H5 7026   5.062   3.882   4.296  0.2332  1.1583 -0.8513
  657ACTN    C2 7027   4.921   3.812   4.446  0.2008  0.0498 -0.3231
  657ACTN    O1 7028   4.959   3.696   4.449  0.7830  0.2527  0.2060
  657ACTN    C1 7029   4.818   3.872   4.536  0.4964 -0.1232 -0.6215
  657ACTN    H1 7030   4.871   3.933   4.609 -1.7650  1.6298 -0.3913
  657ACTN    H2 7031   4.774   3.787   4.588 -1.4071  0.5246 -1.1367
  657ACTN    H3 7032   4.739   3.924   4.482  1.1027 -1.2946 -2.7236
  658ACTN    H6 7033   7.365   4.673   5.958 -0.9525  0.6126 -1.1386
  658ACTN    C3 7034   7.421   4.598   5.902 -0.3861  0.0876  0.1150
  658ACTN    H4 7035   7.413   4.631   5.798  0.0610  0.4006  0.1771
  658ACTN    H5 7036   7.522   4.606   5.944 -1.0005  1.9602  1.3013
  658ACTN    C2 7037   7.354   4.465   5.907 -0.0272 -0.1293  0.3149
  658ACTN    O1 7038   7.368   4.399   6.006  0.0515  0.2834 -0.9581
  658ACTN    C1 7039   7.277   4.407   5.796 -0.3088  0.6144  0.2812
  658ACTN    H1 7040   7.197   4.478   5.778 -1.5208 -0.5222  1.1474
  658ACTN    H2 7041   7.238   4.310   5.826 -0.5229 -0.4464 -3.2942
  658ACTN    H3 7042   7.336   4.404   5.705  1.1227 -0.2555  1.2139
  659ACTN    H6 7043   6.582   7.187   7.009  1.3047 -1.0089  0.7981
  659ACTN    C3 7044   6.503   7.151   7.076 -0.1336 -0.0929 -0.3775
  659ACTN    H4 7045   6.517   7.210   7.166  0.7547 -3.0625  1.5000
  659ACTN    H5 7046   6.402   7.166   7.039 -0.1506 -0.1861 -0.3697
  659ACTN    C2 7047   6.515   7.004   7.116 -0.0846  0.4374  0.6426
  659ACTN    O1 7048   6.416   6.934   7.134  0.2030  0.3003  0.9121
  659ACTN    C1 7049   6.649   6.962   7.168  0.3528 -0.8817  0.0424
  659ACTN    H1 7050   6.696   6.885   7.106 -0.2734 -1.8138  0.7112
  659ACTN    H2 7051   6.640   6.918   7.267  0.9836  1.5988  1.2567
  659ACTN    H3 7052   6.709   7.053   7.177  1.1592 -1.4693  0.6476
  660ACTN    H6 7053   0.344   8.449   4.035  0.8631  0.8621 -1.1661
  660ACTN    C3 7054   0.294   8.393   3.956  0.4778 -0.2388 -0.1581
  660ACTN    H4 7055   0.366   8.392   3.874  0.9955 -0.6261  0.3027
  660ACTN    H5 7056   0.269   8.294   3.993 -0.6744  0.4473  0.9467
  660ACTN    C2 7057   0.187   8.479   3.889  0.0928  0.6560  0.7864
  660ACTN    O1 7058   0.068   8.454   3.907 -0.2178 -0.1076  0.1850
  660ACTN    C1 7059   0.237   8.590   3.796 -0.0933 -0.7475 -0.0625
  660ACTN    H1 7060   0.187   8.679   3.836  0.2886  0.4773 -2.2054
  660ACTN    H2 7061   0.195   8.575   3.697  0.2640  0.2512 -0.3709
  660ACTN    H3 7062   0.345   8.600   3.785 -0.1185 -1.1809 -0.7022
  661ACTN    H6 7063   7.718   0.612   7.199  1.6214 -0.1522 -0.1808
  661ACTN    C3 7064   7.735   0.560   7.294  0.3684  0.3277  0.3157
  661ACTN    H4 7065   7.843   0.551   7.296  0.2802 -0.3942  2.3213
  661ACTN    H5 7066   7.688   0.614   7.376  0.9109  0.7465  0.3491
  661ACTN    C2 7067   7.680   0.422   7.275 -0.1898 -0.2758 -0.9370
  661ACTN    O1 7068   7.589   0.403   7.191 -0.1729  0.4311  0.0310
  661ACTN    C1 7069   7.758   0.300   7.311 -0.3773  0.0206 -0.1937
  661ACTN    H1 7070   7.809   0.259   7.224  0.8645  2.4088 -0.6430
  661ACTN    H2 7071   7.698   0.222   7.358  2.5332 -1.6572  0.8156
  661ACTN    H3 7072   7.830   0.330   7.387  0.6047 -0.3144 -0.9851
  662ACTN    H6 7073   7.863   8.162   4.705  0.0039  0.6129  0.7680
  662ACTN    C3 7074   7.871   8.249   4.640 -0.4302 -0.0848 -0.2120
  662ACTN    H4 7075   7.819   8.329   4.692 -0.1601 -1.5185  2.3356
  662ACTN    H5 7076   7.979   8.266   4.639 -0.2331 -1.2431  0.3602
  662ACTN    C2 7077   7.824   8.212   4.501 -0.0671  0.1169  0.1342
  662ACTN    O1 7078   7.898   8.228   4.406  0.2970  0.2799 -0.7035
  662ACTN    C1 7079   7.672   8.181   4.488 -0.1306 -0.4564  0.2522
  662ACTN    H1 7080   7.642   8.083   4.526  1.9551 -1.1482  0.1603
  662ACTN    H2 7081   7.651   8.182   4.381  0.7895 -1.6582  0.0589
  662ACTN    H3 7082   7.620   8.265   4.534 -0.5709 -0.6113  0.0401
  663ACTN    H6 7083   5.101   6.690   3.894 -0.1569  0.3830 -0.8129
  663ACTN    C3 7084   5.059   6.774   3.950 -0.1458 -0.4965  0.5277
  663ACTN    H4 7085   5.003   6.838   3.882 -0.4890 -1.7474 -0.3914
  663ACTN    H5 7086   4.997   6.727   4.026  0.3653 -2.4449 -0.2174
  663ACTN    C2 7087   5.164   6.861   4.012 -0.1275  0.6261 -0.6285
  663ACTN    O1 7088   5.123   6.925   4.107 -0.6231 -0.1236 -0.1464
  663ACTN    C1 7089   5.301   6.892   3.948  0.3108 -0.1112  0.1227
  663ACTN    H1 7090   5.373   6.920   4.024  0.7060  1.3444 -0.7683
  663ACTN    H2 7091   5.291   6.975   3.878 -0.2162 -0.2333  0.0505
  663ACTN    H3 7092   5.324   6.799   3.895  0.8168  1.1338 -1.9083
  664ACTN    H6 7093   6.674   3.882   4.344  2.8640  2.1300  0.6990
  664ACTN    C3 7094   6.732   3.806   4.292 -0.1378  0.6377 -0.6060
  664ACTN    H4 7095   6.757   3.735   4.371 -0.8204  1.1126  0.0371
  664ACTN    H5 7096   6.677   3.741   4.223  1.3454 -0.9474 -0.3227
  664ACTN    C2 7097   6.851   3.869   4.243  0.2057  0.3334  0.3743
  664ACTN    O1 7098   6.956   3.801   4.226  0.1882 -0.6468 -0.0795
  664ACTN    C1 7099   6.846   4.011   4.224  0.2994 -0.2698  0.4538
  664ACTN    H1 7100   6.946   4.047   4.199 -0.0060  0.4587  0.2669
  664ACTN    H2 7101   6.829   4.057   4.321 -1.8252  0.4786 -0.2528
  664ACTN    H3 7102   6.772   4.047   4.152 -0.3474 -1.3792  0.5550
  665ACTN    H6 7103   4.244   1.635   6.874  0.1225 -0.5558  0.1556
  665ACTN    C3 7104   4.339   1.646   6.820  0.0529  0.7684  0.2967
  665ACTN    H4 7105   4.330   1.593   6.726  1.1428  2.9777 -1.0903
  665ACTN    H5 7106   4.346   1.753   6.798 -2.0414  0.4921 -1.8858
  665ACTN    C2 7107   4.456   1.607   6.906 -0.7424 -0.2475 -0.3516
  665ACTN    O1 7108   4.477   1.659   7.015  0.2037 -0.0836  0.2169
  665ACTN    C1 7109   4.539   1.495   6.861 -0.2551 -0.2284 -0.3289
  665ACTN    H1 7110   4.625   1.476   6.925 -2.1616 -2.0223  1.7712
  665ACTN    H2 7111   4.572   1.525   6.761  1.5475 -2.0437 -0.3141
  665ACTN    H3 7112   4.476   1.406   6.850 -1.8623  0.8929 -0.4516
  666ACTN    H6 7113   3.638   3.325   6.395 -1.4997  0.6727 -0.1546
  666ACTN    C3 7114   3.572   3.241   6.413 -0.3564 -0.3136 -0.5348
  666ACTN    H4 7115   3.630   3.176   6.479  2.2686  1.1285 -1.3971
  666ACTN    H5 7116   3.478   3.271   6.459  1.2192  1.0504  1.9152
  666ACTN    C2 7117   3.547   3.183   6.277 -0.5086 -1.5205  0.1270
  666ACTN    O1 7118   3.571   3.250   6.173  0.0092 -0.8384 -0.0751
  666ACTN    C1 7119   3.490   3.050   6.268  0.5566 -0.0928 -0.0399
  666ACTN    H1 7120   3.468   3.027   6.164  0.0715 -0.6683  0.1891
  666ACTN    H2 7121   3.405   3.047   6.336 -1.0555 -0.1366 -2.0298
  666ACTN    H3 7122   3.570   2.987   6.307 -1.2613 -2.0675  0.5748
  667ACTN    H6 7123   5.814   8.377   7.739  1.7748  0.5197 -0.2339
  667ACTN    C3 7124   5.798   8.481   7.712  0.2153  0.5220  0.6457
  667ACTN    H4 7125   5.705   8.517   7.755 -2.4559 -2.2716 -2.4435
  667ACTN    H5 7126   5.879   8.541   7.754  0.5878 -0.0006  0.6746
  667ACTN    C2 7127   5.783   8.504   7.560 -0.0035 -0.2128  0.1929
  667ACTN    O1 7128   5.886   8.485   7.495  0.1933 -0.1521  0.4803
  667ACTN    C1 7129   5.646   8.498   7.510 -0.3841 -0.3366 -0.0165
  667ACTN    H1 7130   5.622   8.393   7.492 -0.0441 -0.1283 -1.7104
  667ACTN    H2 7131   5.641   8.555   7.418  0.8326 -0.5742 -0.2360
  667ACTN    H3 7132   5.568   8.530   7.580 -0.4101 -2.7055  1.1003
  668ACTN    H6 7133   8.126   0.567   7.709 -0.1143 -0.1532  0.2972
  668ACTN    C3 7134   8.212   0.530   7.653 -0.7387 -0.5195 -0.4324
  668ACTN    H4 7135   8.223   0.593   7.565 -0.0946  0.9117  0.6596
  668ACTN    H5 7136   8.301   0.555   7.710 -0.9839  1.2821 -0.8116
  668ACTN    C2 7137   8.198   0.381   7.638 -0.0980  0.4120 -0.1563
  668ACTN    O1 7138   8.255   0.308   7.719  0.7345 -0.5903  0.1620
  668ACTN    C1 7139   8.081   0.324   7.559  0.3137  0.1759  1.0758
  668ACTN    H1 7140   8.062   0.371   7.463 -0.8875  0.2081  1.3274
  668ACTN    H2 7141   7.984   0.341   7.605 -1.6657 -1.3831 -2.3592
  668ACTN    H3 7142   8.098   0.219   7.534 -0.3125  0.6931 -1.7047
  669ACTN    H6 7143   1.570   3.448   6.736  1.2091 -2.0474  0.8695
  669ACTN    C3 7144   1.639   3.491   6.663 -0.1382  0.1055  0.8141
  669ACTN    H4 7145   1.704   3.561   6.716 -1.8267  2.3137  0.0493
  669ACTN    H5 7146   1.704   3.412   6.626  0.5895  0.4720  1.3034
  669ACTN    C2 7147   1.578   3.556   6.543  0.2015 -0.0079 -0.7344
  669ACTN    O1 7148   1.621   3.655   6.489  0.0964  0.3816  0.0766
  669ACTN    C1 7149   1.455   3.494   6.497  0.1335 -0.0652 -0.2107
  669ACTN    H1 7150   1.472   3.387   6.509  0.6558  0.1236  0.7060
  669ACTN    H2 7151   1.426   3.530   6.398  2.6062  2.7969  0.0317
  669ACTN    H3 7152   1.372   3.524   6.560 -1.7417  0.4231 -2.8164
  670ACTN    H6 7153   1.665   2.752   2.232 -2.0299  0.3606 -2.1057
  670ACTN    C3 7154   1.721   2.697   2.156  0.0472 -0.8473  0.2459
  670ACTN    H4 7155   1.807   2.660   2.212  1.2143  0.4296 -0.6595
  670ACTN    H5 7156   1.658   2.618   2.116 -0.0442 -0.2348 -0.8394
  670ACTN    C2 7157   1.773   2.785   2.044 -0.3195  0.5273  0.0795
  670ACTN    O1 7158   1.887   2.767   2.006  0.4399  0.4184 -0.3947
  670ACTN    C1 7159   1.687   2.883   1.979 -0.1813  0.4169 -0.2047
  670ACTN    H1 7160   1.596   2.839   1.938 -0.0017  0.2008 -0.3676
  670ACTN    H2 7161   1.745   2.931   1.901 -0.0178 -0.7153 -0.7851
  670ACTN    H3 7162   1.680   2.962   2.054  2.6288  1.0237 -0.5529
  671ACTN    H6 7163   3.833   8.374   5.304 -0.3739  1.7525  2.5384
  671ACTN    C3 7164   3.734   8.356   5.260  0.8317 -0.0743  0.4349
  671ACTN    H4 7165   3.659   8.412   5.315  0.6201 -0.6051  0.6952
  671ACTN    H5 7166   3.731   8.393   5.158  2.0005 -1.7294 -0.2252
  671ACTN    C2 7167   3.703   8.214   5.273 -0.1969  0.7099 -0.0326
  671ACTN    O1 7168   3.710   8.146   5.380 -0.2229 -0.2513  0.6848
  671ACTN    C1 7169   3.676   8.133   5.144 -0.2832 -0.6437  0.3186
  671ACTN    H1 7170   3.605   8.052   5.164 -1.5373  0.4197  0.2095
  671ACTN    H2 7171   3.774   8.088   5.126  0.9234  1.8109  0.5580
  671ACTN    H3 7172   3.643   8.194   5.060  0.7669 -0.2435  0.1847
  672ACTN    H6 7173   8.839   0.791   2.055  1.8558  0.1497  0.0279
  672ACTN    C3 7174   8.876   0.707   1.998  0.5011 -0.5045  0.0808
  672ACTN    H4 7175   8.826   0.709   1.901 -0.5618 -0.3109  0.6386
  672ACTN    H5 7176   8.985   0.707   1.986  0.6827 -0.0048  1.6534
  672ACTN    C2 7177   8.818   0.575   2.055  0.5536  0.4315  0.1333
  672ACTN    O1 7178   8.852   0.535   2.166  0.2274  0.4963 -0.5268
  672ACTN    C1 7179   8.728   0.484   1.972  0.0360  0.6861  0.7322
  672ACTN    H1 7180   8.626   0.508   2.002 -0.6148  1.6161 -2.0501
  672ACTN    H2 7181   8.750   0.380   1.997  1.4849  0.6285 -0.6453
  672ACTN    H3 7182   8.727   0.498   1.864 -1.6006  0.7477  0.7344
  673ACTN    H6 7183   8.911   7.814   6.462 -3.4296  0.8929 -0.6414
  673ACTN    C3 7184   8.946   7.908   6.418  0.0347 -0.3565 -0.7524
  673ACTN    H4 7185   9.032   7.888   6.355 -0.1414 -3.3619 -0.1110
  673ACTN    H5 7186   8.865   7.936   6.350 -2.4607 -4.0065  0.5082
  673ACTN    C2 7187   8.974   8.007   6.533 -0.1781  0.0619  0.5882
  673ACTN    O1 7188   8.890   8.092   6.560 -0.2799 -0.4797 -0.2976
  673ACTN    C1 7189   9.102   7.993   6.622 -0.0050  0.5824 -0.4568
  673ACTN    H1 7190   9.150   8.088   6.645 -0.1274  1.0970 -2.2566
  673ACTN    H2 7191   9.174   7.922   6.581 -0.2283  0.2931 -0.3541
  673ACTN    H3 7192   9.060   7.943   6.710  2.5690 -0.0511  0.4655
  674ACTN    H6 7193   1.189   7.938   3.383 -0.6018 -0.4237  0.2350
  674ACTN    C3 7194   1.154   8.035   3.419  0.1247 -0.0288 -0.1032
  674ACTN    H4 7195   1.184   8.049   3.523 -0.6619  0.9657 -0.0081
  674ACTN    H5 7196   1.197   8.110   3.354  0.2177 -1.5817 -1.8820
  674ACTN    C2 7197   1.007   8.030   3.407 -0.0067 -0.1267 -0.0727
  674ACTN    O1 7198   0.941   7.999   3.505  0.6514  0.0233 -0.8234
  674ACTN    C1 7199   0.945   8.095   3.289  0.0928  0.1479  0.4447
  674ACTN    H1 7200   0.879   8.027   3.236  0.5338 -0.2232  0.3605
  674ACTN    H2 7201   1.012   8.136   3.212 -0.2416 -0.7745 -0.3453
  674ACTN    H3 7202   0.898   8.192   3.306 -0.5941  0.0629 -0.9353
  675ACTN    H6 7203   2.140   8.824   7.894  1.1821 -2.5551 -1.0706
  675ACTN    C3 7204   2.246   8.841   7.910  0.6035  0.1865  0.0743
  675ACTN    H4 7205   2.312   8.774   7.855 -1.4105 -1.1262 -0.7728
  675ACTN    H5 7206   2.269   8.942   7.875  2.1791  0.2663  1.2594
  675ACTN    C2 7207   2.283   8.835   8.054  1.2720  0.0358  0.1581
  675ACTN    O1 7208   2.284   8.729   8.105  0.7062 -0.3064 -0.4523
  675ACTN    C1 7209   2.320   8.958   8.133 -0.4434  0.9598 -0.5402
  675ACTN    H1 7210   2.426   8.943   8.153 -0.9429 -1.0706  0.7626
  675ACTN    H2 7211   2.261   8.961   8.224  0.5933 -1.0799  0.2180
  675ACTN    H3 7212   2.310   9.047   8.071  0.7373  1.4554 -0.0237
  676ACTN    H6 7213   5.304   1.016   7.376 -3.1533 -0.9570 -1.4403
  676ACTN    C3 7214   5.259   1.063   7.463  0.5731 -0.6770  0.4115
  676ACTN    H4 7215   5.159   1.083   7.425  0.6504 -2.2871 -0.6699
  676ACTN    H5 7216   5.234   0.984   7.534 -2.4757  0.9103  1.2131
  676ACTN    C2 7217   5.321   1.183   7.531 -0.1709  0.7570 -0.1865
  676ACTN    O1 7218   5.256   1.279   7.569 -0.0151 -0.2604  0.1692
  676ACTN    C1 7219   5.459   1.168   7.566 -0.3779 -0.1671 -0.3061
  676ACTN    H1 7220   5.522   1.250   7.529 -0.8836  0.3853  0.0589
  676ACTN    H2 7221   5.493   1.080   7.512  1.1599 -0.2526  0.7775
  676ACTN    H3 7222   5.476   1.154   7.672 -1.5736  0.1017 -0.0732
  677ACTN    H6 7223   3.786   5.766   0.449 -0.4184 -0.2656  0.2084
  677ACTN    C3 7224   3.693   5.809   0.412 -0.1740  0.2004  0.1321
  677ACTN    H4 7225   3.629   5.830   0.498 -0.6304  0.2801 -0.2242
  677ACTN    H5 7226   3.711   5.905   0.364  1.2541 -0.0466  0.1663
  677ACTN    C2 7227   3.632   5.728   0.310 -0.0307  0.4711 -0.9667
  677ACTN    O1 7228   3.533   5.660   0.329  0.3761 -0.1919  0.7727
  677ACTN    C1 7229   3.692   5.711   0.174  0.5042 -0.0547 -0.5272
  677ACTN    H1 7230   3.702   5.608   0.141  1.6260 -0.8257  2.1719
  677ACTN    H2 7231   3.792   5.753   0.172  0.5119 -0.0171  0.6010
  677ACTN    H3 7232   3.638   5.764   0.095  0.7490  1.6771  0.4527
  678ACTN    H6 7233   8.331   1.133   3.377  3.1266 -1.7482 -1.2145
  678ACTN    C3 7234   8.393   1.148   3.465 -0.1335  0.1686  0.8807
  678ACTN    H4 7235   8.490   1.136   3.417  0.2811 -1.1785  1.9860
  678ACTN    H5 7236   8.369   1.243   3.512 -1.3327  0.2797  0.0476
  678ACTN    C2 7237   8.390   1.035   3.562 -0.4650  0.1936 -0.4244
  678ACTN    O1 7238   8.411   0.918   3.523 -0.4865  0.5844 -0.1104
  678ACTN    C1 7239   8.334   1.049   3.703  0.4608  0.1374  1.0077
  678ACTN    H1 7240   8.366   1.145   3.743  2.2828 -0.4087  0.9280
  678ACTN    H2 7241   8.368   0.962   3.759  0.0400  0.6109  2.0098
  678ACTN    H3 7242   8.225   1.049   3.698  0.4020  1.0991  2.0561
  679ACTN    H6 7243   6.579   1.464   4.922 -1.1447  1.6296  0.0275
  679ACTN    C3 7244   6.567   1.444   5.029 -0.5024  0.3548 -0.1215
  679ACTN    H4 7245   6.665   1.465   5.074  0.1420  1.0070 -1.7655
  679ACTN    H5 7246   6.493   1.511   5.071  0.0191  0.7611  0.1599
  679ACTN    C2 7247   6.519   1.303   5.045 -0.5915 -0.1876  0.0824
  679ACTN    O1 7248   6.579   1.223   5.110  0.6724  0.1628  0.0768
  679ACTN    C1 7249   6.392   1.283   4.966 -0.2696  0.4133 -0.3241
  679ACTN    H1 7250   6.407   1.276   4.858 -1.1948  2.3177 -0.6009
  679ACTN    H2 7251   6.323   1.361   4.996 -0.8117 -0.4180  0.6412
  679ACTN    H3 7252   6.349   1.185   4.990 -0.1948  0.4569 -0.0145
  680ACTN    H6 7253   8.890   8.797   3.623 -2.1859  0.2913 -0.6283
  680ACTN    C3 7254   8.853   8.740   3.708  0.0002 -0.1705  0.0663
  680ACTN    H4 7255   8.757   8.694   3.685  0.7009 -1.3383 -0.5224
  680ACTN    H5 7256   8.927   8.662   3.723 -2.8611 -2.8690  0.7004
  680ACTN    C2 7257   8.843   8.821   3.839 -0.7235  0.3115 -0.8530
  680ACTN    O1 7258   8.874   8.939   3.838 -0.6092  0.4332 -0.7496
  680ACTN    C1 7259   8.784   8.769   3.956  0.2734 -0.2377 -0.7594
  680ACTN    H1 7260   8.746   8.670   3.930  1.1014 -1.4423  2.3159
  680ACTN    H2 7261   8.706   8.837   3.991  0.4431 -1.1377  1.4784
  680ACTN    H3 7262   8.857   8.775   4.037  1.5190  1.2315 -1.9697
  681ACTN    H6 7263   7.691   7.662   3.055  0.3947 -0.1959 -0.1105
  681ACTN    C3 7264   7.791   7.653   3.012  0.2963  0.2885 -0.4399
  681ACTN    H4 7265   7.862   7.625   3.090  0.1892  1.4240  0.0810
  681ACTN    H5 7266   7.780   7.569   2.943 -3.7691  0.3567 -0.0117
  681ACTN    C2 7267   7.835   7.778   2.957  0.3435 -0.7941  0.2869
  681ACTN    O1 7268   7.921   7.850   3.013  0.0160 -0.0768 -0.1303
  681ACTN    C1 7269   7.781   7.800   2.821  0.3857  0.3587 -0.2595
  681ACTN    H1 7270   7.849   7.868   2.769  2.3055 -1.7508 -0.6270
  681ACTN    H2 7271   7.684   7.849   2.826  1.1396  1.8270  0.2013
  681ACTN    H3 7272   7.767   7.706   2.768 -3.6916  0.1451  1.0242
  682ACTN    H6 7273   1.481   1.004   4.649  0.5744 -1.0909  0.5491
  682ACTN    C3 7274   1.560   1.071   4.682 -0.3973  0.3949 -0.0742
  682ACTN    H4 7275   1.537   1.170   4.642 -0.3815  0.4759  0.1141
  682ACTN    H5 7276   1.575   1.083   4.790  2.5991  1.7600 -0.5934
  682ACTN    C2 7277   1.688   1.042   4.610  0.0264 -0.0045 -0.0973
  682ACTN    O1 7278   1.787   1.097   4.650  0.3380  0.3521  0.1397
  682ACTN    C1 7279   1.694   0.914   4.535 -0.5795 -0.2983  0.1800
  682ACTN    H1 7280   1.776   0.918   4.464  2.6725 -1.6290  3.7304
  682ACTN    H2 7281   1.602   0.906   4.477  0.7048  0.9585 -2.0758
  682ACTN    H3 7282   1.697   0.824   4.597  0.1685 -1.0563 -0.9389
  683ACTN    H6 7283   6.958   1.450   7.304  0.3189 -2.4858  0.2324
  683ACTN    C3 7284   6.883   1.453   7.225  0.5955 -0.0086  0.0361
  683ACTN    H4 7285   6.881   1.363   7.164 -1.1055 -1.1581  1.7570
  683ACTN    H5 7286   6.783   1.477   7.259  0.7249  0.6946 -0.0670
  683ACTN    C2 7287   6.937   1.559   7.141 -0.2911  0.1343 -0.1081
  683ACTN    O1 7288   6.921   1.556   7.020  0.5210 -0.6638 -0.2756
  683ACTN    C1 7289   6.978   1.693   7.204 -0.4122  1.5434 -0.6351
  683ACTN    H1 7290   6.972   1.699   7.312  1.0488 -1.0986 -0.3763
  683ACTN    H2 7291   6.922   1.773   7.155 -2.1652 -1.0321 -3.0145
  683ACTN    H3 7292   7.082   1.719   7.183  0.9910 -2.4536  0.9990
  684ACTN    H6 7293   8.761   7.442   3.894  1.6003  1.5363  1.7044
  684ACTN    C3 7294   8.709   7.536   3.881 -0.5391  0.1259 -0.1790
  684ACTN    H4 7295   8.749   7.586   3.793  0.8831 -0.7905 -0.0513
  684ACTN    H5 7296   8.603   7.516   3.864 -0.8812  0.3420  1.5714
  684ACTN    C2 7297   8.737   7.617   4.008 -0.1942  0.3167  0.7794
  684ACTN    O1 7298   8.803   7.718   4.002  0.1193  0.0189  0.0243
  684ACTN    C1 7299   8.685   7.566   4.135  0.4718  0.2406 -0.2101
  684ACTN    H1 7300   8.710   7.631   4.218 -0.1197 -2.4310  2.1562
  684ACTN    H2 7301   8.729   7.467   4.152 -1.8028 -0.2830  3.0905
  684ACTN    H3 7302   8.576   7.556   4.134  0.4115  0.9543 -0.5896
  685ACTN    H6 7303   6.389   4.147   6.114 -1.0490  0.3228  0.3946
  685ACTN    C3 7304   6.319   4.174   6.035  0.1985 -0.1067 -0.8721
  685ACTN    H4 7305   6.329   4.282   6.024 -1.2384  0.2803  1.3468
  685ACTN    H5 7306   6.353   4.120   5.947 -1.5151 -2.7584  0.0280
  685ACTN    C2 7307   6.186   4.137   6.069 -0.3497  0.6520  0.2510
  685ACTN    O1 7308   6.130   4.162   6.177  0.4182  0.3370  0.4701
  685ACTN    C1 7309   6.104   4.051   5.975  0.4922 -0.0905  0.8517
  685ACTN    H1 7310   6.136   3.948   5.987  0.1451 -0.1085  1.6054
  685ACTN    H2 7311   6.127   4.075   5.871  0.3611  2.0905  1.2913
  685ACTN    H3 7312   5.996   4.062   5.985  0.4418  0.1684  0.0840
  686ACTN    H6 7313   2.690   0.221   5.058 -0.0484 -0.5187  0.0709
  686ACTN    C3 7314   2.794   0.214   5.025 -0.0808 -0.1618 -0.1079
  686ACTN    H4 7315   2.819   0.113   4.995 -1.7481  0.4603 -3.8066
  686ACTN    H5 7316   2.810   0.278   4.938 -0.3104 -0.7874 -0.6042
  686ACTN    C2 7317   2.879   0.257   5.140  0.1410  0.0712 -0.3116
  686ACTN    O1 7318   2.930   0.162   5.201 -0.0869 -0.0450  0.3550
  686ACTN    C1 7319   2.895   0.406   5.175 -0.3669  0.1100  0.5759
  686ACTN    H1 7320   2.850   0.464   5.095 -3.3114 -1.7014  0.8576
  686ACTN    H2 7321   3.002   0.427   5.179 -0.0520 -0.8196 -1.9279
  686ACTN    H3 7322   2.850   0.419   5.273 -0.3046  0.7836  0.5153
  687ACTN    H6 7323   2.079   0.490   8.071  0.2263 -1.1847  1.9073
  687ACTN    C3 7324   2.164   0.435   8.031  0.1929  0.1275 -0.0706
  687ACTN    H4 7325   2.230   0.415   8.115 -1.2109 -1.1924  0.7475
  687ACTN    H5 7326   2.122   0.344   7.988  2.3297 -0.9070 -0.0307
  687ACTN    C2 7327   2.245   0.528   7.937 -0.4665  0.0833 -0.1849
  687ACTN    O1 7328   2.315   0.483   7.850  0.3437 -0.5303 -0.0265
  687ACTN    C1 7329   2.229   0.674   7.936 -0.2426 -0.0080 -0.2309
  687ACTN    H1 7330   2.191   0.711   7.841 -1.3725 -0.2989  0.0996
  687ACTN    H2 7331   2.329   0.717   7.943  0.1830 -0.4401 -3.1462
  687ACTN    H3 7332   2.156   0.710   8.009  0.2462  1.7556 -0.5853
  688ACTN    H6 7333   4.661   1.256   0.655 -0.6254  1.6202  0.9981
  688ACTN    C3 7334   4.755   1.311   0.648 -0.0767  0.5679 -0.2682
  688ACTN    H4 7335   4.828   1.255   0.590 -1.2595  2.2842 -3.4807
  688ACTN    H5 7336   4.734   1.408   0.605  0.9148  1.6152  1.5417
  688ACTN    C2 7337   4.799   1.331   0.791  0.1600 -0.7083  0.2843
  688ACTN    O1 7338   4.744   1.420   0.854  0.5104 -0.4770  0.4134
  688ACTN    C1 7339   4.884   1.228   0.867 -0.1223  0.8361 -0.5034
  688ACTN    H1 7340   4.852   1.130   0.833 -1.3431  0.9926  0.1982
  688ACTN    H2 7341   4.845   1.237   0.968  1.3060  1.3805  0.0180
  688ACTN    H3 7342   4.992   1.245   0.864 -0.1969  1.5116  0.3311
  689ACTN    H6 7343   1.756   1.362   2.399 -0.6911 -0.7852  0.6549
  689ACTN    C3 7344   1.783   1.457   2.445 -0.0377 -0.3711 -0.5533
  689ACTN    H4 7345   1.810   1.440   2.550  0.1346 -4.1674 -1.1304
  689ACTN    H5 7346   1.876   1.487   2.396  0.9735  0.2439  1.6721
  689ACTN    C2 7347   1.676   1.560   2.431 -0.3535 -0.0946 -0.6093
  689ACTN    O1 7348   1.555   1.525   2.435 -0.1120  0.4394  0.7359
  689ACTN    C1 7349   1.699   1.711   2.411  0.1079 -0.3880 -0.1592
  689ACTN    H1 7350   1.792   1.748   2.454  0.0151 -2.2612  1.7066
  689ACTN    H2 7351   1.616   1.758   2.464 -0.9873 -3.2445  0.7680
  689ACTN    H3 7352   1.685   1.743   2.308 -1.5430  1.2209  0.5451
  690ACTN    H6 7353   7.310   8.025   4.974  1.1238 -7.2067  1.2262
  690ACTN    C3 7354   7.379   8.053   5.054  0.0571 -0.0212 -0.0497
  690ACTN    H4 7355   7.466   8.113   5.026  1.7065 -2.1590  0.3669
  690ACTN    H5 7356   7.339   8.109   5.138  2.3845 -1.8576  2.3506
  690ACTN    C2 7357   7.444   7.927   5.104  0.2097  1.0355 -0.0429
  690ACTN    O1 7358   7.379   7.830   5.128  0.2287 -0.4474  0.2569
  690ACTN    C1 7359   7.593   7.919   5.142 -0.0727 -0.5452  0.5054
  690ACTN    H1 7360   7.633   7.821   5.166  0.1002 -0.0964  2.1104
  690ACTN    H2 7361   7.612   7.972   5.236 -0.2394 -1.0633  0.8316
  690ACTN    H3 7362   7.649   7.978   5.069 -0.4381 -0.0720  0.6013
  691ACTN    H6 7363   2.735   3.086   8.809  0.5841  0.6427  2.0121
  691ACTN    C3 7364   2.771   3.183   8.775  0.0846 -0.3154 -1.4140
  691ACTN    H4 7365   2.822   3.165   8.680 -0.4956 -0.4861 -1.6958
  691ACTN    H5 7366   2.680   3.241   8.767 -0.0382  0.0002  1.7709
  691ACTN    C2 7367   2.849   3.241   8.887  0.0239  0.2397 -0.4491
  691ACTN    O1 7368   2.820   3.232   9.004 -0.5342  0.0035  0.2340
  691ACTN    C1 7369   2.978   3.301   8.846  0.0743  0.0233 -0.0125
  691ACTN    H1 7370   3.037   3.219   8.806 -0.2500 -0.4560  0.4891
  691ACTN    H2 7371   3.039   3.352   8.920  0.8883 -2.8254  1.3401
  691ACTN    H3 7372   2.961   3.366   8.760 -0.1544 -0.8573 -0.6467
  692ACTN    H6 7373   3.965   7.219   0.522 -0.9291 -3.5735  0.6024
  692ACTN    C3 7374   4.055   7.197   0.465 -0.3164  0.1109  0.0281
  692ACTN    H4 7375   4.076   7.090   0.475  4.6431  0.9096 -0.5311
  692ACTN    H5 7376   4.021   7.222   0.364  1.1635  0.2343 -0.4556
  692ACTN    C2 7377   4.184   7.264   0.498  0.2109  0.3772  0.5655
  692ACTN    O1 7378   4.249   7.307   0.409 -0.6357 -0.4489 -0.6858
  692ACTN    C1 7379   4.248   7.265   0.636  0.6619  0.0929 -1.1614
  692ACTN    H1 7380   4.332   7.197   0.625 -1.4225 -2.5712 -1.1307
  692ACTN    H2 7381   4.174   7.233   0.709  0.0250  1.3251 -1.2436
  692ACTN    H3 7382   4.284   7.361   0.672 -0.3459 -0.2582  0.8465
  693ACTN    H6 7383   7.844   4.906   3.219 -0.1205  0.9918 -0.0480
  693ACTN    C3 7384   7.749   4.854   3.211  0.3293  0.1745 -0.0564
  693ACTN    H4 7385   7.717   4.817   3.308  2.3727 -0.9067  0.2502
  693ACTN    H5 7386   7.682   4.927   3.167  0.8290  1.5155  1.3770
  693ACTN    C2 7387   7.776   4.736   3.107  0.1386 -0.4078 -0.4508
  693ACTN    O1 7388   7.887   4.726   3.059 -0.5919 -0.1285 -0.4903
  693ACTN    C1 7389   7.676   4.626   3.097 -0.2566  0.6479  0.5049
  693ACTN    H1 7390   7.732   4.541   3.135 -1.7876 -1.3339 -1.4963
  693ACTN    H2 7391   7.645   4.609   2.994 -2.4864 -0.6752  1.3586
  693ACTN    H3 7392   7.585   4.628   3.156 -0.7120  0.4676 -0.1771
  694ACTN    H6 7393   0.937   5.713   6.600  0.6264 -0.8665  0.1405
  694ACTN    C3 7394   0.892   5.705   6.698 -0.0445 -0.7101 -0.1559
  694ACTN    H4 7395   0.853   5.806   6.711 -0.2398 -1.1303  2.9970
  694ACTN    H5 7396   0.967   5.681   6.773  0.6417  0.2406 -0.5283
  694ACTN    C2 7397   0.790   5.602   6.701  0.9637  0.5685  0.4026
  694ACTN    O1 7398   0.682   5.617   6.642 -0.1522 -0.3622 -0.4682
  694ACTN    C1 7399   0.814   5.472   6.775  0.3352  0.3651  0.7870
  694ACTN    H1 7400   0.724   5.437   6.825  1.4883 -2.4783  0.9447
  694ACTN    H2 7401   0.895   5.467   6.847  1.8013  0.3364 -0.8217
  694ACTN    H3 7402   0.843   5.393   6.705 -0.1605 -0.9673  2.0595
  695ACTN    H6 7403   4.983   7.328   1.099 -0.2455 -1.3972 -0.5436
  695ACTN    C3 7404   5.015   7.283   1.193 -0.0606 -0.9632 -0.3953
  695ACTN    H4 7405   5.106   7.335   1.223  0.8286 -2.6330 -0.1122
  695ACTN    H5 7406   4.937   7.291   1.268 -2.5561  2.0272 -3.1453
  695ACTN    C2 7407   5.047   7.142   1.163 -0.5222 -0.2463  0.2656
  695ACTN    O1 7408   5.142   7.106   1.095 -0.0475  0.6280 -0.4382
  695ACTN    C1 7409   4.933   7.041   1.162  0.2944  0.2922 -0.0973
  695ACTN    H1 7410   4.968   6.942   1.193  0.5339  0.3290 -0.2498
  695ACTN    H2 7411   4.897   7.040   1.060 -0.8031 -0.5735  0.2828
  695ACTN    H3 7412   4.860   7.076   1.235  1.9088  1.7885  0.8466
  696ACTN    H6 7413   6.388   3.360   4.140  0.2651 -1.8319 -0.2730
  696ACTN    C3 7414   6.344   3.428   4.066  0.4342 -0.8021  0.5630
  696ACTN    H4 7415   6.415   3.427   3.984  0.4473 -1.5769  0.5777
  696ACTN    H5 7416   6.246   3.400   4.027 -0.4608  1.8706  0.8142
  696ACTN    C2 7417   6.336   3.570   4.111  0.2010  0.4360 -0.3226
  696ACTN    O1 7418   6.265   3.596   4.204  0.2940  0.1577 -0.3158
  696ACTN    C1 7419   6.394   3.684   4.035  0.1019  0.3172 -0.7548
  696ACTN    H1 7420   6.445   3.646   3.946  2.0083  2.9083 -0.8353
  696ACTN    H2 7421   6.469   3.741   4.091 -1.9844  1.5601  0.8511
  696ACTN    H3 7422   6.318   3.751   3.995  0.6094  1.3007 -0.0885
  697ACTN    H6 7423   0.171   1.644   2.501 -0.3996  0.7368  0.3695
  697ACTN    C3 7424   0.201   1.727   2.564  0.2056  0.7766  0.0311
  697ACTN    H4 7425   0.227   1.692   2.664 -0.3457 -0.2101 -0.1658
  697ACTN    H5 7426   0.287   1.779   2.523 -0.2397  1.5042  0.0147
  697ACTN    C2 7427   0.076   1.814   2.572 -0.7762  0.0960 -0.2693
  697ACTN    O1 7428  -0.036   1.771   2.596  0.2137  0.3775 -0.0328
  697ACTN    C1 7429   0.100   1.958   2.553 -0.4193  0.3896  0.3976
  697ACTN    H1 7430   0.145   1.979   2.456 -1.7776 -0.8750 -0.5257
  697ACTN    H2 7431   0.162   1.991   2.636 -1.5685 -0.8466  1.7633
  697ACTN    H3 7432   0.003   2.007   2.563 -2.0174 -2.6051  0.0497
  698ACTN    H6 7433   2.778   2.197   0.714  1.0050 -0.1118 -1.2097
  698ACTN    C3 7434   2.795   2.090   0.701  0.6940 -0.3638  0.4442
  698ACTN    H4 7435   2.855   2.071   0.612 -0.8996 -1.6388 -0.3884
  698ACTN    H5 7436   2.849   2.054   0.789  2.4497  0.0540 -0.4289
  698ACTN    C2 7437   2.664   2.020   0.689 -0.7798  0.1427  0.2006
  698ACTN    O1 7438   2.579   2.020   0.774 -0.3335 -0.0022  0.2296
  698ACTN    C1 7439   2.636   1.948   0.560  0.0908 -0.0447  0.2336
  698ACTN    H1 7440   2.674   1.846   0.557 -2.0897 -0.9173  0.9785
  698ACTN    H2 7441   2.678   2.002   0.476  0.7178 -0.8803 -0.0027
  698ACTN    H3 7442   2.528   1.943   0.546 -0.2313  2.2784  1.6640
  699ACTN    H6 7443   2.931   7.491   2.320  0.1861  0.0843  1.3258
  699ACTN    C3 7444   2.837   7.519   2.272  1.0593 -0.2087 -0.6227
  699ACTN    H4 7445   2.769   7.563   2.345  1.4842  0.8617 -0.8689
  699ACTN    H5 7446   2.866   7.593   2.198  0.9934 -0.0792 -0.5190
  699ACTN    C2 7447   2.775   7.395   2.210  0.1415  0.4640  0.9886
  699ACTN    O1 7448   2.847   7.299   2.179  0.3841  0.3751 -0.1862
  699ACTN    C1 7449   2.623   7.379   2.216 -0.1734 -0.1891  0.1057
  699ACTN    H1 7450   2.594   7.343   2.117 -1.8056 -2.7141  1.4572
  699ACTN    H2 7451   2.577   7.475   2.239 -1.2017 -0.6989  0.1865
  699ACTN    H3 7452   2.587   7.306   2.288 -2.7780 -0.0623 -1.0492
  700ACTN    H6 7453   8.109   5.742   4.041 -0.0011 -0.6699  0.0939
  700ACTN    C3 7454   8.186   5.819   4.044 -0.0125 -0.6633  0.2671
  700ACTN    H4 7455   8.285   5.782   4.016 -0.2092  1.4991 -3.7025
  700ACTN    H5 7456   8.164   5.893   3.967 -0.1926 -1.2370 -0.2377
  700ACTN    C2 7457   8.189   5.882   4.176 -0.3178 -1.0381  1.0545
  700ACTN    O1 7458   8.298   5.923   4.219 -0.2468 -0.0341 -0.6356
  700ACTN    C1 7459   8.064   5.901   4.254 -0.3782  0.6632  0.6080
  700ACTN    H1 7460   7.972   5.869   4.205  0.4685 -1.5994  0.4428
  700ACTN    H2 7461   8.045   6.006   4.278  0.3633  1.2856 -1.4344
  700ACTN    H3 7462   8.072   5.847   4.348 -0.9210 -0.8308 -0.1858
  701ACTN    H6 7463   6.985   6.947   3.997 -3.7433 -1.0346 -2.0601
  701ACTN    C3 7464   7.015   7.021   3.923  0.5064  0.2266  0.7468
  701ACTN    H4 7465   6.925   7.049   3.868 -1.1679 -1.6575  2.4465
  701ACTN    H5 7466   7.067   7.107   3.964  0.2421  0.7745 -0.0519
  701ACTN    C2 7467   7.111   6.961   3.824 -0.5897 -0.0190 -0.5097
  701ACTN    O1 7468   7.114   6.997   3.711  0.4769  0.4382  0.3546
  701ACTN    C1 7469   7.218   6.875   3.872 -1.1562  0.6761 -0.2901
  701ACTN    H1 7470   7.235   6.905   3.975  1.2654  1.9473 -1.0184
  701ACTN    H2 7471   7.309   6.876   3.812 -0.3122 -1.1380  0.8734
  701ACTN    H3 7472   7.175   6.775   3.865  0.2968 -0.0940  1.1908
  702ACTN    H6 7473   4.644   5.482   4.329  0.3966 -0.0077  1.1214
  702ACTN    C3 7474   4.576   5.567   4.319 -0.0947 -0.4716  0.4859
  702ACTN    H4 7475   4.520   5.542   4.229 -0.9418  1.8104  0.3540
  702ACTN    H5 7476   4.516   5.575   4.409 -0.6765 -0.4926  0.0992
  702ACTN    C2 7477   4.667   5.690   4.295 -0.4943  0.2950  0.8933
  702ACTN    O1 7478   4.673   5.781   4.378 -0.1500 -0.5873 -0.6782
  702ACTN    C1 7479   4.767   5.695   4.177 -0.1668 -0.0857  0.3468
  702ACTN    H1 7480   4.755   5.786   4.118 -0.9453 -1.1173 -1.1355
  702ACTN    H2 7481   4.770   5.611   4.107 -1.8856  0.9499 -1.0273
  702ACTN    H3 7482   4.864   5.700   4.226  0.0358  0.8653 -0.1229
  703ACTN    H6 7483   0.318   2.118   8.479 -1.4977  1.3096  0.1533
  703ACTN    C3 7484   0.230   2.054   8.483 -0.1728 -0.5082  0.4757
  703ACTN    H4 7485   0.259   1.950   8.466 -2.2184 -0.8699 -0.9063
  703ACTN    H5 7486   0.198   2.057   8.587  1.2256 -2.2755  0.9922
  703ACTN    C2 7487   0.117   2.096   8.391 -0.1472 -0.5108 -0.0772
  703ACTN    O1 7488   0.091   2.215   8.367 -0.8579  0.1521 -0.3333
  703ACTN    C1 7489   0.032   1.989   8.338  0.3116 -0.0699 -0.1600
  703ACTN    H1 7490   0.005   2.000   8.232  0.8432  0.0058 -0.2904
  703ACTN    H2 7491  -0.048   1.959   8.406  1.1968 -2.0179  0.0522
  703ACTN    H3 7492   0.096   1.901   8.339 -0.7729 -0.9010 -1.0864
  704ACTN    H6 7493   6.331   1.128   5.484  0.0528  0.7136  0.1106
  704ACTN    C3 7494   6.348   1.161   5.382  0.0514  0.0702 -0.0980
  704ACTN    H4 7495   6.454   1.166   5.359  0.2022  1.0789  0.8390
  704ACTN    H5 7496   6.298   1.094   5.311  1.0630  0.5716 -1.3156
  704ACTN    C2 7497   6.305   1.302   5.379 -0.1657 -0.4646  0.1545
  704ACTN    O1 7498   6.195   1.331   5.331 -0.3826  0.4181  0.0009
  704ACTN    C1 7499   6.381   1.394   5.465  0.0384 -0.5469  0.0534
  704ACTN    H1 7500   6.318   1.426   5.548  1.2060 -0.0384  0.7462
  704ACTN    H2 7501   6.421   1.482   5.414 -0.6367  0.4858  1.2975
  704ACTN    H3 7502   6.470   1.347   5.507  0.6105  0.9148  0.4915
  705ACTN    H6 7503   5.467   1.579   5.298  0.8141 -0.3243 -0.9290
  705ACTN    C3 7504   5.514   1.637   5.377 -0.3412  0.3873 -0.7465
  705ACTN    H4 7505   5.433   1.695   5.420 -1.8023 -2.5078  0.5335
  705ACTN    H5 7506   5.543   1.559   5.447  3.4699  1.6991 -0.7430
  705ACTN    C2 7507   5.624   1.737   5.344 -0.3893  0.1391 -0.3101
  705ACTN    O1 7508   5.626   1.811   5.251 -0.5828  0.9752 -0.4996
  705ACTN    C1 7509   5.732   1.752   5.441  0.1786  0.6403  0.0985
  705ACTN    H1 7510   5.746   1.853   5.478 -2.3439 -0.0398  3.0783
  705ACTN    H2 7511   5.824   1.713   5.397  0.3125  0.1991  0.7684
  705ACTN    H3 7512   5.710   1.698   5.533  2.9429  1.2585  1.1901
  706ACTN    H6 7513   1.908   2.782   0.114  0.0759  0.1064  0.7063
  706ACTN    C3 7514   1.835   2.705   0.091  0.4509  0.1005 -0.4838
  706ACTN    H4 7515   1.854   2.663  -0.008 -1.4735 -0.1718 -0.7574
  706ACTN    H5 7516   1.855   2.625   0.162  0.1999  0.3581 -0.1170
  706ACTN    C2 7517   1.703   2.761   0.106  0.1634  0.0067 -0.5198
  706ACTN    O1 7518   1.633   2.729   0.197 -0.3267  0.6781  0.2404
  706ACTN    C1 7519   1.664   2.869   0.009  0.3645 -0.1226  0.3394
  706ACTN    H1 7520   1.596   2.831  -0.067  1.0151  1.6012 -1.1248
  706ACTN    H2 7521   1.753   2.895  -0.048  0.2505  0.7809  0.5781
  706ACTN    H3 7522   1.620   2.959   0.053  0.9803  0.2828  0.1259
  707ACTN    H6 7523   0.042   2.835   2.537  0.8046 -4.6805  2.5027
  707ACTN    C3 7524   0.108   2.886   2.607  0.4140 -0.6033  0.0941
  707ACTN    H4 7525   0.051   2.966   2.653  1.5907 -1.9551  4.1064
  707ACTN    H5 7526   0.132   2.813   2.685 -2.0450 -0.7963  0.6856
  707ACTN    C2 7527   0.229   2.937   2.538  0.0528  0.5394  0.2683
  707ACTN    O1 7528   0.261   2.896   2.424  0.4817  1.4775 -0.1993
  707ACTN    C1 7529   0.309   3.041   2.613 -0.5902 -0.1982 -0.2381
  707ACTN    H1 7530   0.398   3.070   2.558 -0.0285  1.3766  1.4408
  707ACTN    H2 7531   0.333   3.010   2.714 -2.2003  1.2431  0.6214
  707ACTN    H3 7532   0.250   3.132   2.630 -0.9880 -0.9514  2.5929
  708ACTN    H6 7533   5.280   6.120   1.697  4.2111  1.9154  2.6171
  708ACTN    C3 7534   5.210   6.134   1.780  0.2192  0.4634 -0.3438
  708ACTN    H4 7535   5.174   6.038   1.817  2.3245 -0.6594 -1.0861
  708ACTN    H5 7536   5.280   6.167   1.857 -1.1756  2.9200 -0.0760
  708ACTN    C2 7537   5.116   6.250   1.752 -0.7075 -0.1704  0.1168
  708ACTN    O1 7538   5.096   6.283   1.635 -0.0921  0.2563  0.1306
  708ACTN    C1 7539   5.042   6.316   1.865  0.2936 -0.9072 -0.4067
  708ACTN    H1 7540   5.053   6.424   1.879 -0.9691 -0.8582  0.3251
  708ACTN    H2 7541   5.083   6.275   1.958 -1.3560 -0.5731  0.4866
  708ACTN    H3 7542   4.941   6.276   1.865 -0.0622 -0.0460  1.2712
  709ACTN    H6 7543   1.480   4.519   7.852 -0.2833 -0.4333 -1.2877
  709ACTN    C3 7544   1.548   4.435   7.837  0.0732 -0.4071  0.1308
  709ACTN    H4 7545   1.594   4.430   7.936  2.5936  1.1721 -0.9283
  709ACTN    H5 7546   1.491   4.343   7.824  0.4835 -0.5440 -0.7119
  709ACTN    C2 7547   1.644   4.448   7.723  0.2177  0.6595 -0.5689
  709ACTN    O1 7548   1.684   4.564   7.696 -0.4368  0.0618 -0.6730
  709ACTN    C1 7549   1.721   4.334   7.664  0.2045 -0.1287 -0.5085
  709ACTN    H1 7550   1.666   4.248   7.626 -1.3044  0.1448  1.0096
  709ACTN    H2 7551   1.785   4.297   7.744 -0.1310  1.9532  0.7768
  709ACTN    H3 7552   1.789   4.371   7.587 -1.9460  2.1980 -1.3644
  710ACTN    H6 7553   8.709   0.971   2.686 -0.1084  0.8139  0.0442
  710ACTN    C3 7554   8.622   0.907   2.696 -0.1275  0.7750 -0.3689
  710ACTN    H4 7555   8.543   0.935   2.626 -0.8910 -1.2134 -0.3555
  710ACTN    H5 7556   8.660   0.809   2.667  0.2417  1.4618 -2.2717
  710ACTN    C2 7557   8.573   0.912   2.833 -0.1889 -0.2358  0.3928
  710ACTN    O1 7558   8.545   1.015   2.891  0.4241 -0.0701  0.3316
  710ACTN    C1 7559   8.524   0.783   2.885 -0.1494  0.1511 -0.6224
  710ACTN    H1 7560   8.503   0.778   2.992  0.5343  0.3096 -0.4737
  710ACTN    H2 7561   8.594   0.701   2.868 -0.4896 -0.2601 -0.0596
  710ACTN    H3 7562   8.428   0.753   2.844  0.8118 -2.7569 -0.8565
  711ACTN    H6 7563   5.026   2.723   4.852 -0.6024 -1.1061  0.8608
  711ACTN    C3 7564   5.072   2.655   4.780  0.0417 -0.1416  0.3545
  711ACTN    H4 7565   5.083   2.555   4.820 -0.5065  0.3586  1.7802
  711ACTN    H5 7566   4.996   2.647   4.702  1.2930  2.5039 -1.2401
  711ACTN    C2 7567   5.201   2.715   4.723  0.0793  0.1993 -0.0916
  711ACTN    O1 7568   5.248   2.822   4.769  0.5352  0.7152  0.0992
  711ACTN    C1 7569   5.254   2.671   4.588  0.0062 -0.0267  0.3020
  711ACTN    H1 7570   5.209   2.719   4.501 -2.1271  1.0147  1.9394
  711ACTN    H2 7571   5.244   2.563   4.572 -1.1075 -0.4081  3.2237
  711ACTN    H3 7572   5.361   2.685   4.571 -0.2636 -0.3931 -1.7800
  712ACTN    H6 7573   7.307   3.095   7.255 -2.8783 -1.8080  1.1475
  712ACTN    C3 7574   7.237   3.117   7.174 -0.6484  0.1850 -0.2888
  712ACTN    H4 7575   7.162   3.180   7.222 -1.3645 -0.5974 -0.3666
  712ACTN    H5 7576   7.281   3.174   7.092  2.1196 -0.8190  0.4256
  712ACTN    C2 7577   7.166   2.995   7.132  0.3766 -0.2714 -0.1988
  712ACTN    O1 7578   7.139   2.973   7.016  0.0911  0.5070  0.1128
  712ACTN    C1 7579   7.122   2.895   7.240  0.2288 -0.7040  0.8958
  712ACTN    H1 7580   7.042   2.927   7.307 -1.7548  0.0030 -1.7346
  712ACTN    H2 7581   7.211   2.882   7.302 -0.3709  1.9263  2.3825
  712ACTN    H3 7582   7.097   2.801   7.191 -0.1862  0.1575 -0.5435
  713ACTN    H6 7583   6.670   5.322   0.566 -1.6183  0.8341  0.7519
  713ACTN    C3 7584   6.727   5.378   0.641  0.4811 -0.3154  0.0376
  713ACTN    H4 7585   6.683   5.476   0.657 -2.2075 -1.1120 -1.9869
  713ACTN    H5 7586   6.722   5.320   0.733  1.0159 -1.7429 -0.8128
  713ACTN    C2 7587   6.872   5.405   0.601 -0.8012  0.4239 -0.2672
  713ACTN    O1 7588   6.925   5.513   0.624  0.4571 -0.2795 -0.2189
  713ACTN    C1 7589   6.966   5.296   0.563  0.0577 -0.0754 -0.0282
  713ACTN    H1 7590   6.914   5.205   0.532  3.2287 -1.4662 -1.4661
  713ACTN    H2 7591   7.023   5.265   0.650 -2.8458 -1.6542  1.3820
  713ACTN    H3 7592   7.044   5.311   0.488 -0.1507  1.6404  0.0941
  714ACTN    H6 7593   0.217   8.553   1.785  2.0582  1.1050  1.4577
  714ACTN    C3 7594   0.151   8.581   1.867 -0.6352  0.3606 -0.4005
  714ACTN    H4 7595   0.068   8.644   1.833 -0.4176  0.6192 -0.4523
  714ACTN    H5 7596   0.109   8.488   1.906  2.0184 -1.4821 -1.7258
  714ACTN    C2 7597   0.232   8.639   1.966  0.2937 -0.8251 -0.0464
  714ACTN    O1 7598   0.195   8.745   2.017  0.1247  0.3037  0.0711
  714ACTN    C1 7599   0.363   8.586   1.992 -0.1194  0.6839  0.3020
  714ACTN    H1 7600   0.387   8.597   2.098 -0.3607  0.6285  0.3639
  714ACTN    H2 7601   0.444   8.632   1.938  0.2339 -0.6520 -0.3375
  714ACTN    H3 7602   0.368   8.478   1.973 -1.6937  0.6357  0.0723
  715ACTN    H6 7603   4.915   2.907   2.454 -1.4314 -0.8868  0.3022
  715ACTN    C3 7604   4.918   2.914   2.563  0.6916 -0.2149  0.2286
  715ACTN    H4 7605   4.954   3.014   2.586  1.3750 -0.3997 -0.0252
  715ACTN    H5 7606   4.820   2.906   2.612  1.1420  3.0923  1.8496
  715ACTN    C2 7607   5.024   2.814   2.615  0.7845  0.2494  0.5453
  715ACTN    O1 7608   5.125   2.852   2.674  0.6971  0.4121  0.0564
  715ACTN    C1 7609   5.009   2.674   2.574 -0.6343  0.3061  0.2504
  715ACTN    H1 7610   5.006   2.601   2.655  1.0875 -0.9110 -0.7517
  715ACTN    H2 7611   5.088   2.639   2.508 -0.3121 -0.2632  0.9289
  715ACTN    H3 7612   4.917   2.658   2.518 -0.8893 -0.7001  0.9414
  716ACTN    H6 7613   0.077   3.923   5.621 -4.5307 -3.0215  1.7627
  716ACTN    C3 7614   0.126   3.900   5.716  0.1405 -0.2510  0.1625
  716ACTN    H4 7615   0.086   3.807   5.755  1.8763 -1.9492 -1.9567
  716ACTN    H5 7616   0.223   3.868   5.679 -0.1116 -0.1106 -0.6346
  716ACTN    C2 7617   0.120   4.019   5.815 -0.4040 -0.1562  0.4222
  716ACTN    O1 7618   0.031   4.102   5.806 -0.2776  0.2141  0.0038
  716ACTN    C1 7619   0.239   4.033   5.908  0.0553 -0.2331 -0.1109
  716ACTN    H1 7620   0.205   4.015   6.010 -0.4066 -2.0539 -0.5783
  716ACTN    H2 7621   0.283   4.133   5.901 -2.6031  1.1151  1.3777
  716ACTN    H3 7622   0.316   3.959   5.888  0.9853  0.2618  1.5024
  717ACTN    H6 7623   8.694   7.047   5.368 -2.8382 -0.1930  0.5879
  717ACTN    C3 7624   8.656   7.096   5.278  0.5121  0.1601 -0.6960
  717ACTN    H4 7625   8.586   7.024   5.237  0.4918 -0.3092  0.1508
  717ACTN    H5 7626   8.606   7.189   5.304  1.4707  0.7234 -0.8466
  717ACTN    C2 7627   8.762   7.126   5.174 -0.0986  0.3429 -0.0855
  717ACTN    O1 7628   8.881   7.086   5.193  0.5911  0.2312 -0.1950
  717ACTN    C1 7629   8.705   7.166   5.043 -0.7050  0.1245  0.4031
  717ACTN    H1 7630   8.610   7.114   5.034 -0.2623 -0.5646 -0.4388
  717ACTN    H2 7631   8.779   7.130   4.971 -0.7031  0.9564 -0.0091
  717ACTN    H3 7632   8.699   7.273   5.026  2.4094  0.4392  0.8564
  718ACTN    H6 7633   7.005   6.492   7.663 -1.6457 -0.1129  0.0486
  718ACTN    C3 7634   6.956   6.559   7.592  0.0153  1.1628  0.0851
  718ACTN    H4 7635   6.878   6.505   7.537  0.2241  0.6105  0.3255
  718ACTN    H5 7636   6.918   6.637   7.657  1.4154 -1.1123  3.7716
  718ACTN    C2 7637   7.046   6.615   7.489 -0.1389  0.0883 -0.5462
  718ACTN    O1 7638   6.998   6.680   7.395 -0.1401  0.2942  0.5593
  718ACTN    C1 7639   7.195   6.604   7.491  0.1116  0.5618  0.1590
  718ACTN    H1 7640   7.232   6.706   7.478  0.9331  0.0744 -1.5118
  718ACTN    H2 7641   7.240   6.533   7.421  1.1997 -0.6258  2.0168
  718ACTN    H3 7642   7.224   6.572   7.591 -0.0274  1.1879  0.3989
  719ACTN    H6 7643   0.053   0.692   0.101 -1.2952 -0.6235  0.9519
  719ACTN    C3 7644   0.073   0.697   0.208  0.6214  0.5136  0.5496
  719ACTN    H4 7645  -0.012   0.737   0.263  1.0896  0.6451  1.1859
  719ACTN    H5 7646   0.094   0.597   0.246  5.5710  0.5817 -1.5998
  719ACTN    C2 7647   0.196   0.775   0.228 -0.2535  0.2932 -0.0298
  719ACTN    O1 7648   0.309   0.733   0.213 -0.7778 -0.1440 -0.1331
  719ACTN    C1 7649   0.169   0.918   0.207  0.6672  0.1169  0.5545
  719ACTN    H1 7650   0.234   0.983   0.265  3.5210 -0.9927 -1.2872
  719ACTN    H2 7651   0.065   0.942   0.226  0.4967  1.0377 -1.3833
  719ACTN    H3 7652   0.186   0.942   0.102 -1.2330 -1.5139 -0.1493
  720ACTN    H6 7653   7.638   7.265   2.265  1.5640 -0.4149  0.6827
  720ACTN    C3 7654   7.643   7.295   2.370 -0.3979  0.8454  0.4350
  720ACTN    H4 7655   7.556   7.259   2.425  0.1306  0.0772  0.7823
  720ACTN    H5 7656   7.733   7.247   2.409 -0.0130 -1.0362 -2.6013
  720ACTN    C2 7657   7.654   7.439   2.389 -0.7120 -0.6048  0.3491
  720ACTN    O1 7658   7.593   7.507   2.473  0.0426 -0.2040  0.0713
  720ACTN    C1 7659   7.754   7.503   2.297 -0.1782 -0.0716  0.3529
  720ACTN    H1 7660   7.739   7.478   2.192 -1.2901  0.5200  0.3619
  720ACTN    H2 7661   7.853   7.466   2.322  0.2896  1.5017  0.8596
  720ACTN    H3 7662   7.740   7.610   2.308  1.8313  0.0915  1.3980
  721ACTN    H6 7663   7.612   8.970   5.138 -1.0269 -1.1314 -0.2386
  721ACTN    C3 7664   7.584   8.928   5.235 -0.0418 -0.2894  0.4209
  721ACTN    H4 7665   7.486   8.880   5.231 -1.3078  2.2369  0.1010
  721ACTN    H5 7666   7.652   8.847   5.259 -1.3732 -1.9176 -1.1645
  721ACTN    C2 7667   7.593   9.034   5.340 -0.3498  0.0908 -0.1417
  721ACTN    O1 7668   7.693   9.098   5.370  0.3451  0.5337  0.4089
  721ACTN    C1 7669   7.479   9.050   5.433 -0.1795 -0.0263 -0.0362
  721ACTN    H1 7670   7.384   9.056   5.379 -1.6505  0.0134  2.4715
  721ACTN    H2 7671   7.489   9.145   5.485  1.5543 -0.5905  0.7141
  721ACTN    H3 7672   7.478   8.972   5.510 -1.7732  1.7342  1.7892
  722ACTN    H6 7673   6.201   2.846   4.926  0.6950 -0.0944 -1.5065
  722ACTN    C3 7674   6.100   2.884   4.916  0.4597 -0.2287  0.2270
  722ACTN    H4 7675   6.039   2.794   4.900  2.1225 -1.4701  0.7414
  722ACTN    H5 7676   6.075   2.936   5.008 -0.4295 -0.8697  0.3584
  722ACTN    C2 7677   6.092   2.964   4.790  0.3142  0.5872 -0.9141
  722ACTN    O1 7678   6.197   3.012   4.752 -0.1180  0.0874  0.5302
  722ACTN    C1 7679   5.961   3.012   4.733  1.1323  0.9824 -0.0243
  722ACTN    H1 7680   5.944   2.967   4.636 -0.5132  0.6793  0.3867
  722ACTN    H2 7681   5.951   3.120   4.726  0.3907  0.9131 -0.1045
  722ACTN    H3 7682   5.883   2.973   4.799 -0.3021  2.7160 -0.6779
  723ACTN    H6 7683   6.535   7.442   0.432  0.8794 -0.7219 -0.0989
  723ACTN    C3 7684   6.512   7.409   0.534 -0.3410 -0.0425 -0.1512
  723ACTN    H4 7685   6.404   7.421   0.536 -0.0847  2.3594  1.4576
  723ACTN    H5 7686   6.561   7.480   0.600  1.2900  0.7698 -2.1717
  723ACTN    C2 7687   6.566   7.266   0.549 -0.1470 -0.2800 -0.2212
  723ACTN    O1 7688   6.569   7.190   0.455 -0.0229 -0.2477 -0.0962
  723ACTN    C1 7689   6.626   7.223   0.680  0.4391 -0.4988  1.2677
  723ACTN    H1 7690   6.734   7.214   0.669  0.1044 -1.0860 -2.2025
  723ACTN    H2 7691   6.588   7.125   0.710  0.1438 -0.2689  1.6417
  723ACTN    H3 7692   6.610   7.294   0.761  1.0867  1.7008 -0.4825
  724ACTN    H6 7693   2.547   7.050   2.712  1.7912 -1.2832  0.3799
  724ACTN    C3 7694   2.549   7.016   2.608  0.0791 -0.9326  0.2254
  724ACTN    H4 7695   2.609   6.925   2.609 -0.7263 -1.5196 -2.3861
  724ACTN    H5 7696   2.453   6.987   2.567 -1.8694  2.6247  2.0496
  724ACTN    C2 7697   2.622   7.117   2.520 -0.0794  0.4543 -0.5861
  724ACTN    O1 7698   2.581   7.230   2.531  0.0995  0.1627  0.3107
  724ACTN    C1 7699   2.712   7.071   2.406  0.3883 -0.2378 -0.0979
  724ACTN    H1 7700   2.792   7.144   2.394  0.8818 -0.3320  2.2848
  724ACTN    H2 7701   2.648   7.070   2.318  2.1563  1.3832 -1.4325
  724ACTN    H3 7702   2.752   6.974   2.437  0.9693  0.5593  1.6733
  725ACTN    H6 7703   2.257   3.743   5.192 -0.7581 -1.8261  1.3738
  725ACTN    C3 7704   2.284   3.792   5.285  0.2527  0.6470 -0.1598
  725ACTN    H4 7705   2.348   3.878   5.267 -1.0848  1.6081 -0.3965
  725ACTN    H5 7706   2.194   3.828   5.334 -1.2970 -2.1931 -0.7844
  725ACTN    C2 7707   2.358   3.705   5.377  0.6802  0.3041  0.1335
  725ACTN    O1 7708   2.396   3.592   5.338  0.2425  0.9006  0.0087
  725ACTN    C1 7709   2.343   3.730   5.526 -0.0200  0.8675  0.7063
  725ACTN    H1 7710   2.387   3.829   5.536 -0.9132  1.9512 -4.3899
  725ACTN    H2 7711   2.388   3.648   5.583 -1.2773  0.2021  0.7735
  725ACTN    H3 7712   2.240   3.740   5.558 -0.1850 -0.7037  0.7237
  726ACTN    H6 7713   1.980   4.464   4.345  1.0605  1.7036  0.4982
  726ACTN    C3 7714   1.994   4.441   4.451  1.2910 -1.0929 -0.1019
  726ACTN    H4 7715   1.965   4.531   4.504 -0.9190 -0.8390 -1.6837
  726ACTN    H5 7716   1.911   4.373   4.472 -0.9036  1.5660  0.1157
  726ACTN    C2 7717   2.119   4.387   4.485  0.8732 -0.6885  0.1022
  726ACTN    O1 7718   2.119   4.294   4.569  0.8551 -0.5950  0.0221
  726ACTN    C1 7719   2.246   4.405   4.404  0.4404  0.5760  0.4564
  726ACTN    H1 7720   2.255   4.316   4.342  0.4724 -1.4467  3.2699
  726ACTN    H2 7721   2.330   4.403   4.474  0.7944  2.3210  0.1082
  726ACTN    H3 7722   2.243   4.494   4.341  0.4675  0.3923  0.1944
  727ACTN    H6 7723   7.784   0.146   4.614 -1.1084 -1.1723  2.2610
  727ACTN    C3 7724   7.767   0.057   4.554  0.0287  0.0265  0.1162
  727ACTN    H4 7725   7.805  -0.027   4.612  0.7441  1.0527  1.1625
  727ACTN    H5 7726   7.662   0.058   4.523  0.5175 -0.9466 -1.6588
  727ACTN    C2 7727   7.850   0.065   4.430  0.3308 -0.2621 -0.5775
  727ACTN    O1 7728   7.968   0.089   4.430 -0.5125  0.0018  0.3000
  727ACTN    C1 7729   7.773   0.052   4.304  0.3088  0.0884 -0.1924
  727ACTN    H1 7730   7.783   0.140   4.241 -0.9107  0.2029 -0.2398
  727ACTN    H2 7731   7.665   0.059   4.320  1.0121  1.5704  4.8916
  727ACTN    H3 7732   7.797  -0.043   4.257 -2.6066 -1.6539  1.6357
  728ACTN    H6 7733   4.409   2.606   4.985  0.6903  0.1279  0.1590
  728ACTN    C3 7734   4.441   2.620   5.088  1.0312  0.4295  0.0102
  728ACTN    H4 7735   4.407   2.530   5.140  1.3916 -0.1916 -0.8261
  728ACTN    H5 7736   4.550   2.619   5.089  1.0759 -3.9364  0.6247
  728ACTN    C2 7737   4.405   2.751   5.150  0.3615  0.1569  0.0165
  728ACTN    O1 7738   4.361   2.842   5.082 -0.0992  0.1719 -0.2752
  728ACTN    C1 7739   4.423   2.762   5.301  0.6939 -0.2469 -0.1421
  728ACTN    H1 7740   4.443   2.666   5.349 -0.2891  0.7937  2.4348
  728ACTN    H2 7741   4.334   2.806   5.346 -1.6420 -2.2926 -2.5127
  728ACTN    H3 7742   4.510   2.819   5.332  0.2207  0.0844  0.5927
  729ACTN    H6 7743   8.647   0.086   2.285  1.3808  1.3449 -0.5296
  729ACTN    C3 7744   8.606   0.185   2.264 -0.5178  0.6519 -0.2100
  729ACTN    H4 7745   8.659   0.253   2.331  1.0889 -0.2831 -0.4908
  729ACTN    H5 7746   8.631   0.224   2.165 -1.0123  2.0769  0.2129
  729ACTN    C2 7747   8.457   0.195   2.283 -0.6044 -0.1572 -0.1985
  729ACTN    O1 7748   8.402   0.098   2.329 -0.0730 -0.3164  0.3906
  729ACTN    C1 7749   8.406   0.333   2.309 -0.0797  0.1075 -0.5766
  729ACTN    H1 7750   8.309   0.341   2.260 -1.9669  0.0026  3.0383
  729ACTN    H2 7751   8.471   0.410   2.268 -0.8280  1.4512  0.7323
  729ACTN    H3 7752   8.397   0.342   2.417  1.8640  1.2399 -0.4704
  730ACTN    H6 7753   1.156   2.615   6.942  1.0620  0.0598  1.0668
  730ACTN    C3 7754   1.120   2.712   6.979 -0.2454  0.0524 -0.1447
  730ACTN    H4 7755   1.085   2.706   7.082 -2.5421  2.9281 -0.6872
  730ACTN    H5 7756   1.213   2.768   6.986 -0.4675  0.4561 -0.4376
  730ACTN    C2 7757   1.035   2.784   6.878 -0.8261  0.2453 -1.4038
  730ACTN    O1 7758   1.069   2.901   6.837  0.4506  0.3637 -0.0111
  730ACTN    C1 7759   0.904   2.727   6.831 -0.0389  0.5037 -0.0499
  730ACTN    H1 7760   0.840   2.811   6.804  0.7831  1.3998  0.7746
  730ACTN    H2 7761   0.859   2.670   6.912  0.6146 -1.9957 -1.3943
  730ACTN    H3 7762   0.910   2.678   6.734 -1.2937  0.4476 -0.1135
  731ACTN    H6 7763   6.748   1.364   5.722 -1.5928  0.7525 -3.3204
  731ACTN    C3 7764   6.736   1.467   5.756  0.4340  0.0872 -0.3167
  731ACTN    H4 7765   6.824   1.500   5.811  0.5234 -0.8005  0.0867
  731ACTN    H5 7766   6.738   1.524   5.663 -0.7229  1.0087  0.2058
  731ACTN    C2 7767   6.607   1.477   5.833  0.6948  0.1127  0.4369
  731ACTN    O1 7768   6.508   1.420   5.789 -0.1301  0.4792  0.0201
  731ACTN    C1 7769   6.611   1.546   5.964 -0.5801 -0.0840  0.0486
  731ACTN    H1 7770   6.524   1.609   5.987 -1.3130 -1.1263  0.1957
  731ACTN    H2 7771   6.700   1.607   5.975  0.1704 -1.5501  2.4146
  731ACTN    H3 7772   6.621   1.474   6.046  0.3295 -0.4225 -0.3642
  732ACTN    H6 7773   5.272   1.470   3.584 -1.5998 -0.3286 -0.0155
  732ACTN    C3 7774   5.293   1.386   3.649 -0.4588  0.0194  0.0838
  732ACTN    H4 7775   5.352   1.407   3.738  4.5171 -2.4363 -2.4704
  732ACTN    H5 7776   5.196   1.351   3.686 -0.6439  0.0332 -0.3905
  732ACTN    C2 7777   5.372   1.289   3.567 -0.3086 -0.1705  0.0274
  732ACTN    O1 7778   5.469   1.335   3.504  0.0155 -0.5294  0.3942
  732ACTN    C1 7779   5.320   1.150   3.561  0.3666  0.2450 -0.1080
  732ACTN    H1 7780   5.215   1.151   3.531  0.1361  0.6109  0.6923
  732ACTN    H2 7781   5.327   1.095   3.656  0.8361  0.8642  0.2198
  732ACTN    H3 7782   5.369   1.090   3.485 -1.4292 -0.3437 -0.8382
  733ACTN    H6 7783   7.117   1.229   4.295  1.3397  1.0117  1.7702
  733ACTN    C3 7784   7.200   1.250   4.228 -0.0140  0.3600 -0.1571
  733ACTN    H4 7785   7.279   1.183   4.264  0.0838 -0.6678 -2.1862
  733ACTN    H5 7786   7.177   1.218   4.126 -0.9251 -0.9926  0.4639
  733ACTN    C2 7787   7.252   1.393   4.248  0.1784  0.2462  0.1208
  733ACTN    O1 7788   7.188   1.479   4.197 -0.5234  0.3002 -0.2746
  733ACTN    C1 7789   7.391   1.405   4.293  0.3259  1.0465 -0.0482
  733ACTN    H1 7790   7.448   1.313   4.296 -0.9242  0.2890  1.2994
  733ACTN    H2 7791   7.407   1.439   4.396  1.6636  0.1717  0.0417
  733ACTN    H3 7792   7.436   1.481   4.229  0.3594 -2.2443 -4.1299
  734ACTN    H6 7793   8.040   8.694   2.336 -2.3656  1.5888 -1.6052
  734ACTN    C3 7794   8.067   8.761   2.418 -0.1427 -0.6210 -0.4821
  734ACTN    H4 7795   8.031   8.714   2.510 -3.0696 -0.4388 -1.4622
  734ACTN    H5 7796   8.176   8.767   2.419 -0.0985 -0.7611 -2.8923
  734ACTN    C2 7797   7.998   8.897   2.389 -0.1193  0.1658 -0.1361
  734ACTN    O1 7798   7.928   8.951   2.468  0.4196 -0.4456 -0.4452
  734ACTN    C1 7799   8.030   8.965   2.263  0.8471  0.0986  0.3061
  734ACTN    H1 7800   8.139   8.969   2.251  1.2823 -0.2202  3.5572
  734ACTN    H2 7801   7.982   9.062   2.273 -0.4400 -0.4643 -0.3034
  734ACTN    H3 7802   7.983   8.912   2.181 -0.4731  0.2389  0.9697
  735ACTN    H6 7803   7.843   2.175   2.834  0.6989 -0.1223  0.2384
  735ACTN    C3 7804   7.881   2.166   2.733  0.3837 -0.4655  0.1464
  735ACTN    H4 7805   7.856   2.068   2.693  3.6116 -1.3051  0.0130
  735ACTN    H5 7806   7.843   2.246   2.669  0.3365 -1.0087 -0.5071
  735ACTN    C2 7807   8.032   2.186   2.729  0.0159  0.2011  0.3314
  735ACTN    O1 7808   8.097   2.111   2.661 -0.0819  0.6360  0.7499
  735ACTN    C1 7809   8.077   2.275   2.843 -0.5522  0.1432 -0.1579
  735ACTN    H1 7810   8.171   2.329   2.826 -0.9528  1.3366  1.2164
  735ACTN    H2 7811   8.091   2.206   2.926  1.2231  2.0058  1.1639
  735ACTN    H3 7812   8.003   2.345   2.881  1.2405  0.7987  2.2825
  736ACTN    H6 7813   8.616   8.722   3.115 -2.3542 -1.6025  0.1127
  736ACTN    C3 7814   8.638   8.654   3.033 -0.2962 -0.6497 -0.1785
  736ACTN    H4 7815   8.736   8.678   2.993 -0.3291  0.6765  0.5163
  736ACTN    H5 7816   8.644   8.554   3.076 -3.0227  0.2221  2.4577
  736ACTN    C2 7817   8.535   8.671   2.929  0.2915  0.1562 -0.0831
  736ACTN    O1 7818   8.558   8.748   2.831  0.2807  0.0575 -0.0742
  736ACTN    C1 7819   8.416   8.571   2.931  0.2203  0.8236  0.0490
  736ACTN    H1 7820   8.350   8.606   2.853  1.5714 -0.0473 -1.5220
  736ACTN    H2 7821   8.364   8.571   3.027 -2.6085  0.6263 -1.4581
  736ACTN    H3 7822   8.439   8.470   2.898 -0.0811  0.4316  1.0099
  737ACTN    H6 7823   8.806   1.449   3.203 -0.7145 -0.6917  0.5223
  737ACTN    C3 7824   8.760   1.529   3.261  0.3178 -0.0035  0.4181
  737ACTN    H4 7825   8.829   1.612   3.267  0.0598  0.4834 -2.5852
  737ACTN    H5 7826   8.668   1.563   3.212  1.5788  3.9745  0.6589
  737ACTN    C2 7827   8.717   1.488   3.397 -0.4554  0.7990 -0.1679
  737ACTN    O1 7828   8.673   1.377   3.430 -0.0945 -0.2005 -0.2113
  737ACTN    C1 7829   8.733   1.580   3.518 -0.3056  0.1144  0.2453
  737ACTN    H1 7830   8.792   1.532   3.596 -2.6130 -2.6471  0.3959
  737ACTN    H2 7831   8.639   1.611   3.564 -0.1903 -0.3457  0.7952
  737ACTN    H3 7832   8.785   1.672   3.494 -1.5280  0.2639 -1.9939
  738ACTN    H6 7833   2.117   0.274   6.966  0.2960 -0.2331  0.1591
  738ACTN    C3 7834   2.035   0.344   6.972  0.2137 -0.3286  0.1483
  738ACTN    H4 7835   1.941   0.298   6.942 -0.1362 -1.8440  3.3630
  738ACTN    H5 7836   2.008   0.359   7.077  1.1281  3.2065 -0.0554
  738ACTN    C2 7837   2.077   0.463   6.894  0.1449  0.0521 -0.2596
  738ACTN    O1 7838   2.033   0.487   6.783 -0.2970 -0.2227 -0.4054
  738ACTN    C1 7839   2.194   0.535   6.939 -0.2802 -0.2432  0.2765
  738ACTN    H1 7840   2.168   0.619   7.003  0.4362  1.0825 -1.1211
  738ACTN    H2 7841   2.251   0.586   6.861 -2.0953 -2.1082 -2.3540
  738ACTN    H3 7842   2.262   0.468   6.991 -1.4581 -2.0509 -0.4419
  739ACTN    H6 7843   3.016   0.040   6.017 -0.4346 -0.8154  2.8913
  739ACTN    C3 7844   2.920   0.000   5.985  0.0312 -0.1751  0.6076
  739ACTN    H4 7845   2.904  -0.097   6.032  0.5695 -1.2828 -1.4313
  739ACTN    H5 7846   2.836   0.062   6.014 -0.4277 -0.5579  0.1144
  739ACTN    C2 7847   2.910  -0.024   5.836  0.7902 -0.7341 -0.1358
  739ACTN    O1 7848   2.829   0.034   5.767  0.3167 -0.3493  0.3553
  739ACTN    C1 7849   3.014  -0.102   5.770 -0.1005  0.3793  0.0571
  739ACTN    H1 7850   3.085  -0.035   5.721  1.4267 -0.4655  1.0535
  739ACTN    H2 7851   2.960  -0.168   5.703 -0.8782  0.1489  0.9051
  739ACTN    H3 7852   3.064  -0.166   5.843 -2.3898 -1.5255  0.0067
  740ACTN    H6 7853   8.718   3.259   1.841  1.7406  0.1086  0.7884
  740ACTN    C3 7854   8.734   3.180   1.914 -0.4841 -0.3280  0.8188
  740ACTN    H4 7855   8.833   3.174   1.958  0.6526 -0.9114 -1.7483
  740ACTN    H5 7856   8.655   3.194   1.989 -2.5266  2.1778 -1.7054
  740ACTN    C2 7857   8.677   3.057   1.851 -0.2794 -0.4461  0.4409
  740ACTN    O1 7858   8.584   3.051   1.771 -0.5191 -0.5856 -0.0898
  740ACTN    C1 7859   8.749   2.927   1.882  0.2272  0.0905  0.5486
  740ACTN    H1 7860   8.808   2.936   1.973  0.1129 -2.5888  0.9302
  740ACTN    H2 7861   8.811   2.895   1.798 -0.6983  0.6772 -0.3733
  740ACTN    H3 7862   8.676   2.846   1.889  0.4952 -0.3910 -1.8783
  741ACTN    H6 7863   2.913   8.225   3.189 -0.4503 -0.5197  0.1622
  741ACTN    C3 7864   2.831   8.295   3.177  0.2254  0.2003 -0.2523
  741ACTN    H4 7865   2.733   8.265   3.216  0.5736 -1.2449 -0.4519
  741ACTN    H5 7866   2.867   8.378   3.237  3.2012 -0.3747 -1.1765
  741ACTN    C2 7867   2.813   8.321   3.034  0.2877 -0.2306 -0.4550
  741ACTN    O1 7868   2.714   8.386   3.000 -0.1919  0.3721  0.1825
  741ACTN    C1 7869   2.936   8.311   2.949  0.6900  0.2374  0.3312
  741ACTN    H1 7870   2.969   8.208   2.932  1.6013  0.8795 -2.0886
  741ACTN    H2 7871   3.018   8.368   2.993 -0.1661  0.4376  1.6764
  741ACTN    H3 7872   2.907   8.351   2.852 -0.7587  0.7860  0.9795
  742ACTN    H6 7873   8.951   7.300   2.528 -1.1911  0.4655  1.2467
  742ACTN    C3 7874   9.021   7.383   2.540 -0.1027 -0.2001 -0.4537
  742ACTN    H4 7875   9.120   7.337   2.552  1.3409  2.8650 -0.1455
  742ACTN    H5 7876   9.017   7.443   2.449 -0.3608 -1.1440 -1.0792
  742ACTN    C2 7877   8.990   7.472   2.658 -0.4928  0.2324  0.0300
  742ACTN    O1 7878   8.880   7.455   2.713  0.1353 -0.2974 -0.2546
  742ACTN    C1 7879   9.087   7.578   2.687 -0.0720 -0.3772  0.1602
  742ACTN    H1 7880   9.036   7.671   2.661 -0.1894  0.7902  4.2786
  742ACTN    H2 7881   9.180   7.575   2.630  0.0204 -1.0851  0.3341
  742ACTN    H3 7882   9.115   7.585   2.792 -0.9007  1.7431  0.2482
  743ACTN    H6 7883   8.628   8.515   2.392 -1.0253 -0.0806 -0.6690
  743ACTN    C3 7884   8.658   8.421   2.439 -0.1320  0.4889 -0.0831
  743ACTN    H4 7885   8.582   8.345   2.419  1.8530 -1.7781  0.8948
  743ACTN    H5 7886   8.749   8.388   2.389 -0.7734  0.2403 -1.0980
  743ACTN    C2 7887   8.676   8.451   2.586  0.1575 -0.7091 -0.0061
  743ACTN    O1 7888   8.577   8.430   2.656  0.0410 -0.4119  0.1446
  743ACTN    C1 7889   8.766   8.558   2.622 -0.6982 -0.6536 -0.5127
  743ACTN    H1 7890   8.759   8.568   2.730 -0.4594  0.7605 -0.6133
  743ACTN    H2 7891   8.737   8.646   2.565  1.2525 -0.8921 -1.9384
  743ACTN    H3 7892   8.864   8.524   2.588 -0.1591 -1.2749  1.5627
  744ACTN    H6 7893   6.352   4.413   3.707 -2.1655  2.2793 -0.0929
  744ACTN    C3 7894   6.402   4.476   3.634  0.3735 -0.2252 -0.6153
  744ACTN    H4 7895   6.379   4.442   3.533  1.3681  0.1012 -0.9546
  744ACTN    H5 7896   6.354   4.574   3.638 -1.3614 -1.0934  0.4097
  744ACTN    C2 7897   6.548   4.468   3.650 -0.3183  0.9361 -0.4210
  744ACTN    O1 7898   6.620   4.563   3.634  0.3585 -0.7781  0.2040
  744ACTN    C1 7899   6.610   4.333   3.663  0.4999  0.1036 -0.2857
  744ACTN    H1 7900   6.656   4.321   3.761 -0.9645 -0.7606  0.3092
  744ACTN    H2 7901   6.684   4.320   3.584  0.7740  1.6603 -0.2939
  744ACTN    H3 7902   6.536   4.254   3.649  1.0019 -0.4568  0.2211
  745ACTN    H6 7903   8.084   3.616   6.163  0.6025  0.0477  0.8486
  745ACTN    C3 7904   8.172   3.584   6.107  0.1742  0.1327  0.1220
  745ACTN    H4 7905   8.261   3.570   6.169  1.0895  1.6238 -0.8151
  745ACTN    H5 7906   8.142   3.490   6.061 -2.5378  0.3709  1.3418
  745ACTN    C2 7907   8.204   3.681   5.993  0.4534 -0.6215  0.5548
  745ACTN    O1 7908   8.121   3.698   5.906 -0.5681 -0.1477 -0.0753
  745ACTN    C1 7909   8.319   3.776   6.008  0.0852  0.5674  0.2244
  745ACTN    H1 7910   8.367   3.794   5.911 -2.3541 -1.3940 -1.3958
  745ACTN    H2 7911   8.390   3.734   6.079  1.0922  0.2149 -0.9720
  745ACTN    H3 7912   8.293   3.875   6.046 -2.5307 -0.2547  0.6422
  746ACTN    H6 7913   6.761   8.251   4.557  0.0810 -1.2621 -0.4986
  746ACTN    C3 7914   6.704   8.246   4.650 -0.2851  0.2393 -0.6343
  746ACTN    H4 7915   6.743   8.325   4.715  1.5816 -1.2361  0.1122
  746ACTN    H5 7916   6.600   8.265   4.625 -1.3399  1.2857  3.9843
  746ACTN    C2 7917   6.706   8.114   4.718  0.9161 -0.0355 -0.1178
  746ACTN    O1 7918   6.699   8.007   4.662  0.2967  0.3046  0.0112
  746ACTN    C1 7919   6.734   8.123   4.861 -0.3809  0.3668  0.2974
  746ACTN    H1 7920   6.776   8.029   4.896  0.6738  0.5062 -0.5788
  746ACTN    H2 7921   6.638   8.131   4.913  0.3351 -2.8582  2.3004
  746ACTN    H3 7922   6.796   8.203   4.902 -1.1140  0.0302  2.1013
  747ACTN    H6 7923   8.739   6.848   5.949 -0.9569  0.8922  0.0483
  747ACTN    C3 7924   8.846   6.845   5.971 -1.0384 -0.2542  0.2939
  747ACTN    H4 7925   8.855   6.832   6.079  1.4290 -1.5986 -0.0315
  747ACTN    H5 7926   8.876   6.753   5.920 -1.1374 -1.8355  2.9849
  747ACTN    C2 7927   8.922   6.965   5.918 -0.6328 -0.4789 -0.7042
  747ACTN    O1 7928   8.927   7.070   5.980 -0.1886  0.5085  0.7424
  747ACTN    C1 7929   8.984   6.970   5.782  0.1109 -0.8621 -0.1344
  747ACTN    H1 7930   9.028   7.067   5.758  0.3760 -0.6266  1.2874
  747ACTN    H2 7931   8.907   6.949   5.707 -0.2892  1.7792 -0.5157
  747ACTN    H3 7932   9.062   6.895   5.765 -0.6307 -1.9739  1.3027
  748ACTN    H6 7933   7.230   8.485   8.280  0.5996 -0.4284 -3.0436
  748ACTN    C3 7934   7.278   8.577   8.247  0.3526  0.8529  0.0339
  748ACTN    H4 7935   7.253   8.596   8.143  1.3859  1.9654 -0.0292
  748ACTN    H5 7936   7.241   8.660   8.307 -2.6357 -1.4571  1.5114
  748ACTN    C2 7937   7.419   8.565   8.274 -0.6358 -0.5155 -0.5188
  748ACTN    O1 7938   7.493   8.662   8.305  0.0431 -0.3166 -0.4405
  748ACTN    C1 7939   7.493   8.436   8.263  0.5980  1.2564 -1.0268
  748ACTN    H1 7940   7.420   8.366   8.222  0.0949  1.8733 -1.1910
  748ACTN    H2 7941   7.520   8.396   8.361 -0.9394  0.3516 -0.9578
  748ACTN    H3 7942   7.575   8.447   8.192  1.7807 -1.3103 -0.0938
  749ACTN    H6 7943   6.900   2.858   7.864 -0.5420  0.3607 -0.5387
  749ACTN    C3 7944   6.960   2.938   7.906 -0.3030 -0.2152  0.2208
  749ACTN    H4 7945   7.067   2.918   7.899 -0.1796  0.8066 -1.1960
  749ACTN    H5 7946   6.944   3.024   7.840 -0.4191  0.0534  0.5975
  749ACTN    C2 7947   6.928   2.952   8.053  0.1027 -0.7771 -0.0726
  749ACTN    O1 7948   6.945   2.858   8.127 -0.1438 -0.2792 -0.2019
  749ACTN    C1 7949   6.859   3.076   8.100 -0.6598  0.0355  0.7610
  749ACTN    H1 7950   6.908   3.168   8.070  0.2350 -1.1840 -1.7122
  749ACTN    H2 7951   6.846   3.066   8.207  0.0674 -2.8479  0.6261
  749ACTN    H3 7952   6.762   3.076   8.050  0.0793 -0.7806 -0.7202
  750ACTN    H6 7953   5.774   0.261   1.663  0.3748 -0.5573  0.4480
  750ACTN    C3 7954   5.715   0.341   1.706  0.5399 -0.3604  0.3062
  750ACTN    H4 7955   5.719   0.426   1.637  1.8351 -0.7354 -0.0910
  750ACTN    H5 7956   5.611   0.310   1.710  0.1779  0.9885  2.0287
  750ACTN    C2 7957   5.768   0.375   1.839 -0.6912  0.4128 -0.6662
  750ACTN    O1 7958   5.882   0.348   1.866 -0.5532 -0.4378 -0.3260
  750ACTN    C1 7959   5.682   0.460   1.916  0.5871 -0.2569  0.7985
  750ACTN    H1 7960   5.578   0.428   1.921 -0.1521  1.9347  0.1605
  750ACTN    H2 7961   5.693   0.559   1.872  1.6760 -0.5782  0.3449
  750ACTN    H3 7962   5.711   0.463   2.021  1.2028 -0.9457  0.6472
  751ACTN    H6 7963   1.804   8.629   6.926  0.5513  1.3910  2.0619
  751ACTN    C3 7964   1.699   8.600   6.921  0.8797  0.2883  1.1717
  751ACTN    H4 7965   1.643   8.677   6.974  2.4937  1.5117  1.1654
  751ACTN    H5 7966   1.656   8.591   6.822 -0.7509  2.7176  1.6146
  751ACTN    C2 7967   1.691   8.476   7.012  0.3625 -0.7668 -0.1884
  751ACTN    O1 7968   1.666   8.478   7.133 -0.9420 -0.2520  0.6786
  751ACTN    C1 7969   1.712   8.348   6.943 -0.3124 -0.1206 -0.5167
  751ACTN    H1 7970   1.809   8.330   6.898  0.0076  3.1906 -1.2724
  751ACTN    H2 7971   1.632   8.338   6.869 -2.3514 -0.4104  1.6394
  751ACTN    H3 7972   1.690   8.266   7.012 -0.5721  2.3085  2.3798
  752ACTN    H6 7973   6.086   8.849   4.093 -2.0540  1.2786  0.8337
  752ACTN    C3 7974   6.122   8.952   4.097  0.4855  0.4320  0.5456
  752ACTN    H4 7975   6.182   8.982   4.012  1.1768  1.0693  1.2510
  752ACTN    H5 7976   6.038   9.020   4.106 -3.5689 -3.5888 -4.0887
  752ACTN    C2 7977   6.205   8.953   4.223 -0.4282 -0.3753  0.3491
  752ACTN    O1 7978   6.325   8.971   4.228 -0.1244  0.8870  0.4051
  752ACTN    C1 7979   6.130   8.938   4.357 -0.6800 -0.0124  0.0544
  752ACTN    H1 7980   6.060   9.022   4.365  0.5378  0.9982  0.3183
  752ACTN    H2 7981   6.192   8.939   4.447 -1.3806 -1.4175  0.5793
  752ACTN    H3 7982   6.069   8.849   4.369  0.1479 -0.7623 -1.2927
  753ACTN    H6 7983   7.675   0.155   6.178 -3.0911  1.6372 -1.8178
  753ACTN    C3 7984   7.693   0.221   6.262  0.3978 -1.3168 -0.1105
  753ACTN    H4 7985   7.798   0.252   6.268 -0.5793  2.1345  0.1753
  753ACTN    H5 7986   7.638   0.314   6.247  0.1119 -1.4409  0.1642
  753ACTN    C2 7987   7.637   0.175   6.393  0.0355  0.1676  0.4022
  753ACTN    O1 7988   7.566   0.237   6.464  0.4346  0.0767  0.2274
  753ACTN    C1 7989   7.688   0.045   6.438 -0.6705 -0.5443 -0.1224
  753ACTN    H1 7990   7.627  -0.042   6.412 -0.1128 -0.5584 -1.4160
  753ACTN    H2 7991   7.696   0.036   6.547  1.6895 -1.4926 -0.3328
  753ACTN    H3 7992   7.790   0.038   6.399  0.2638  1.2442  1.9220
  754ACTN    H6 7993   0.091   2.645   6.151  3.0731  0.8704  0.1044
  754ACTN    C3 7994   0.115   2.591   6.242  0.9700  0.5664  0.5105
  754ACTN    H4 7995   0.196   2.642   6.293  0.0972 -0.1186  2.6628
  754ACTN    H5 7996   0.022   2.595   6.299 -0.4081  1.5200 -1.7329
  754ACTN    C2 7997   0.149   2.453   6.212 -0.4540  0.1517  0.3271
  754ACTN    O1 7998   0.252   2.429   6.146  0.0034  0.1495  0.0594
  754ACTN    C1 7999   0.053   2.349   6.230  0.1021  0.8952 -0.2986
  754ACTN    H1 8000   0.009   2.352   6.330  1.5026  0.1553  0.3613
  754ACTN    H2 8001   0.097   2.250   6.217 -1.0700  0.4958 -1.3074
  754ACTN    H3 8002  -0.024   2.365   6.154  2.3245  4.5974 -1.8565
  755ACTN    H6 8003   1.668   7.133   2.593  2.3931 -0.3355 -1.4932
  755ACTN    C3 8004   1.656   7.027   2.619 -0.1781  0.2000 -0.3101
  755ACTN    H4 8005   1.582   7.020   2.698  1.1378  1.9555  1.1135
  755ACTN    H5 8006   1.619   6.982   2.527  2.6924  0.7537 -1.8103
  755ACTN    C2 8007   1.788   6.966   2.654  0.2981  0.6377 -0.5602
  755ACTN    O1 8008   1.870   6.948   2.563  0.4184 -0.0712 -0.0774
  755ACTN    C1 8009   1.825   6.938   2.795  0.0071 -0.3291  0.2743
  755ACTN    H1 8010   1.922   6.971   2.831 -0.6937  0.9884  0.9936
  755ACTN    H2 8011   1.811   6.834   2.825  1.8454 -0.4827  0.6683
  755ACTN    H3 8012   1.765   6.998   2.864  0.2074 -0.7096  0.7917
  756ACTN    H6 8013   1.223   1.069   3.455 -0.2235 -0.2277 -0.8303
  756ACTN    C3 8014   1.180   1.006   3.377 -0.4065 -0.9490 -0.1552
  756ACTN    H4 8015   1.150   0.910   3.420 -1.7660  0.2179  1.5282
  756ACTN    H5 8016   1.095   1.055   3.329 -1.6978 -1.6095  1.4244
  756ACTN    C2 8017   1.295   0.986   3.286  0.1770  0.6118  0.2555
  756ACTN    O1 8018   1.346   1.074   3.225 -0.7290  0.1371  0.3298
  756ACTN    C1 8019   1.344   0.841   3.272  0.1455  0.2814 -0.5217
  756ACTN    H1 8020   1.451   0.821   3.275  0.0415 -1.1243 -4.2028
  756ACTN    H2 8021   1.319   0.799   3.175 -1.0186  0.9028 -0.4989
  756ACTN    H3 8022   1.301   0.775   3.348 -1.1593  0.6134 -0.9559
  757ACTN    H6 8023   8.982   1.707   5.434  0.4261 -0.5602  0.6408
  757ACTN    C3 8024   9.007   1.804   5.392 -0.0550 -0.8672 -0.3535
  757ACTN    H4 8025   9.094   1.828   5.452 -0.7421 -0.3534  0.4367
  757ACTN    H5 8026   9.041   1.800   5.288 -2.3287 -1.8553 -1.0904
  757ACTN    C2 8027   8.889   1.898   5.395  0.1500  0.5476  0.1577
  757ACTN    O1 8028   8.776   1.854   5.386 -0.3145  0.3661  0.0214
  757ACTN    C1 8029   8.911   2.040   5.406 -0.2454 -1.1614  0.3158
  757ACTN    H1 8030   8.944   2.073   5.505  1.9387 -2.3231  0.0217
  757ACTN    H2 8031   8.820   2.088   5.370 -0.1956 -2.2226 -1.2947
  757ACTN    H3 8032   8.980   2.070   5.328 -0.9801 -2.7352 -0.9698
  758ACTN    H6 8033   1.863   3.149   0.476  1.5587  0.7797  1.1282
  758ACTN    C3 8034   1.891   3.245   0.434 -0.2938  0.4706 -0.9120
  758ACTN    H4 8035   1.964   3.297   0.497  0.5860 -1.9313  0.1034
  758ACTN    H5 8036   1.947   3.233   0.341  2.4926 -0.7303  0.8583
  758ACTN    C2 8037   1.764   3.319   0.419 -0.1952  0.0924  0.9329
  758ACTN    O1 8038   1.749   3.421   0.480 -0.6605  0.0916 -0.1215
  758ACTN    C1 8039   1.657   3.286   0.329 -0.3096  0.0003  0.4567
  758ACTN    H1 8040   1.566   3.345   0.334  0.0391  0.5899 -0.1142
  758ACTN    H2 8041   1.641   3.178   0.329  0.0407 -0.0554  0.0544
  758ACTN    H3 8042   1.696   3.314   0.231  0.2222 -1.9380  0.0774
  759ACTN    H6 8043   3.581   8.290   2.630 -0.6315  2.1866  0.5615
  759ACTN    C3 8044   3.477   8.293   2.665 -0.7783 -0.3282  0.4174
  759ACTN    H4 8045   3.442   8.391   2.633  2.8736  0.8115 -0.3300
  759ACTN    H5 8046   3.420   8.211   2.622 -1.9034  1.1341 -0.9418
  759ACTN    C2 8047   3.489   8.291   2.817  0.6650  0.2131  0.1917
  759ACTN    O1 8048   3.572   8.230   2.880 -0.5713  0.1435  0.1125
  759ACTN    C1 8049   3.398   8.383   2.900 -0.3149 -0.6783 -0.0494
  759ACTN    H1 8050   3.424   8.488   2.895 -0.2196 -0.6787  0.5275
  759ACTN    H2 8051   3.408   8.363   3.006  1.2636 -1.0982 -0.2717
  759ACTN    H3 8052   3.293   8.378   2.868 -0.4447  0.2862  0.2154
  760ACTN    H6 8053   2.395   8.386   4.115 -1.8611 -1.8832  2.4942
  760ACTN    C3 8054   2.477   8.314   4.107  0.1619  0.6397 -0.5253
  760ACTN    H4 8055   2.570   8.371   4.110  0.0344  0.7835  2.0988
  760ACTN    H5 8056   2.474   8.247   4.192  2.6223  0.9826 -0.1395
  760ACTN    C2 8057   2.444   8.237   3.980  0.4512 -0.5347 -0.5105
  760ACTN    O1 8058   2.415   8.291   3.874 -0.8357  0.0075  0.2223
  760ACTN    C1 8059   2.438   8.088   3.998  0.5561 -0.3204  0.4653
  760ACTN    H1 8060   2.440   8.033   3.904  1.0357 -1.6125  1.2142
  760ACTN    H2 8061   2.342   8.068   4.046  0.1712  3.5099  1.4948
  760ACTN    H3 8062   2.524   8.059   4.058  1.3827  1.8126  0.3723
  761ACTN    H6 8063   7.446   8.073   4.772  3.3029 -0.3142  2.0131
  761ACTN    C3 8064   7.453   7.970   4.736  0.6522  0.3509 -0.5516
  761ACTN    H4 8065   7.551   7.937   4.769  0.4858 -0.6554 -1.0410
  761ACTN    H5 8066   7.376   7.910   4.785 -0.9757  0.8895 -2.3898
  761ACTN    C2 8067   7.430   7.973   4.585  0.1170  0.1642 -0.3890
  761ACTN    O1 8068   7.492   7.895   4.517  0.3332  0.1824  0.6676
  761ACTN    C1 8069   7.299   8.019   4.539  0.0080 -0.1764  0.5264
  761ACTN    H1 8070   7.222   7.948   4.571 -0.1860 -0.4949 -0.6270
  761ACTN    H2 8071   7.293   8.040   4.432  0.7957  2.1732  0.9096
  761ACTN    H3 8072   7.270   8.108   4.594  1.8815  1.1756 -0.6066
  762ACTN    H6 8073   4.980   2.930   5.037 -0.8412 -0.6393  2.0821
  762ACTN    C3 8074   5.048   2.979   5.107  0.6070 -0.4188  0.5390
  762ACTN    H4 8075   5.027   2.942   5.207  2.2576  0.1541  1.1192
  762ACTN    H5 8076   5.151   2.952   5.086  0.8640 -0.4204  1.7740
  762ACTN    C2 8077   5.051   3.124   5.089 -0.0674 -0.1729 -0.6875
  762ACTN    O1 8078   5.116   3.178   5.001 -0.0933 -0.4350  0.9330
  762ACTN    C1 8079   4.978   3.209   5.183  0.1331 -0.0962  0.3912
  762ACTN    H1 8080   4.975   3.164   5.283 -2.3207 -0.2367  0.2772
  762ACTN    H2 8081   4.875   3.207   5.149  0.8995 -1.7876 -2.0222
  762ACTN    H3 8082   5.017   3.310   5.179  0.7895 -0.3831 -0.5444
  763ACTN    H6 8083   6.058   5.107   4.097 -2.4098 -2.2046  0.6001
  763ACTN    C3 8084   6.096   5.016   4.050  0.8926 -0.6625  0.1035
  763ACTN    H4 8085   6.101   4.936   4.123 -0.0798 -2.1432 -1.4212
  763ACTN    H5 8086   6.014   4.992   3.982  1.5823 -1.7517 -0.3501
  763ACTN    C2 8087   6.228   5.034   3.975 -0.9813  0.2289 -0.3657
  763ACTN    O1 8088   6.334   5.008   4.032  0.5792 -0.0846 -0.0381
  763ACTN    C1 8089   6.238   5.118   3.847 -0.4684 -0.0005  0.5395
  763ACTN    H1 8090   6.141   5.165   3.829 -0.8918 -0.6160  1.2301
  763ACTN    H2 8091   6.272   5.066   3.757 -1.5413  0.5637 -0.2029
  763ACTN    H3 8092   6.308   5.201   3.862  0.0135 -0.7119  2.3097
  764ACTN    H6 8093   3.545   4.764   1.191  1.9873  0.0866 -0.5951
  764ACTN    C3 8094   3.552   4.820   1.284 -0.3437 -0.3641 -0.1052
  764ACTN    H4 8095   3.583   4.743   1.355 -0.7888 -1.4170 -1.0465
  764ACTN    H5 8096   3.631   4.894   1.266  0.6700 -1.4025  0.0142
  764ACTN    C2 8097   3.417   4.889   1.320 -0.1176 -0.7104 -0.3005
  764ACTN    O1 8098   3.307   4.852   1.278  0.4123  0.2349  0.0640
  764ACTN    C1 8099   3.440   5.023   1.385 -0.8731  0.1316 -0.4742
  764ACTN    H1 8100   3.351   5.072   1.426 -0.5451 -0.8329  1.4313
  764ACTN    H2 8101   3.481   5.089   1.308  0.3168 -2.7616 -2.4192
  764ACTN    H3 8102   3.514   5.014   1.464 -1.0994  1.9520 -0.0340
  765ACTN    H6 8103   1.606   8.313   5.676 -0.8563  0.8670 -1.4040
  765ACTN    C3 8104   1.584   8.409   5.722 -0.2052  0.6651 -0.6594
  765ACTN    H4 8105   1.530   8.472   5.652 -3.3469 -1.4379 -0.2445
  765ACTN    H5 8106   1.516   8.385   5.804  1.8835  0.4042  1.0352
  765ACTN    C2 8107   1.710   8.479   5.761 -0.8118  2.1084  0.1033
  765ACTN    O1 8108   1.824   8.423   5.760  0.5183 -0.4127  0.1927
  765ACTN    C1 8109   1.691   8.613   5.794 -0.1477 -0.1993 -0.2264
  765ACTN    H1 8110   1.788   8.660   5.803  0.5127 -1.4681 -0.6388
  765ACTN    H2 8111   1.643   8.626   5.891  1.3566  0.7473  0.4114
  765ACTN    H3 8112   1.627   8.657   5.717  1.7013  1.2966 -0.9523
  766ACTN    H6 8113   4.826   5.829   8.877  0.0295  0.1747  0.4620
  766ACTN    C3 8114   4.848   5.726   8.849  0.3171  0.2277  0.4941
  766ACTN    H4 8115   4.893   5.723   8.749  0.9737 -3.5309  0.8294
  766ACTN    H5 8116   4.923   5.682   8.914  1.9867  1.1407 -0.7736
  766ACTN    C2 8117   4.719   5.649   8.847  0.1324  0.3403 -0.2584
  766ACTN    O1 8118   4.710   5.539   8.900  0.5485 -0.1131 -0.7955
  766ACTN    C1 8119   4.600   5.699   8.773 -0.4415 -0.6074  0.2424
  766ACTN    H1 8120   4.568   5.640   8.687 -3.7157  1.8009 -0.3020
  766ACTN    H2 8121   4.613   5.802   8.740  0.7656 -0.6090  0.6827
  766ACTN    H3 8122   4.517   5.705   8.844  0.9223  0.1573  1.8188
  767ACTN    H6 8123   5.203   2.246   8.206 -1.5024 -0.8651  1.5362
  767ACTN    C3 8124   5.287   2.287   8.263 -0.5322  0.1091 -0.5448
  767ACTN    H4 8125   5.379   2.250   8.216  0.4454  2.2022 -0.3464
  767ACTN    H5 8126   5.281   2.395   8.248  1.0740  0.5812  1.9175
  767ACTN    C2 8127   5.280   2.256   8.414 -0.1967  0.0273  0.4311
  767ACTN    O1 8128   5.377   2.207   8.466 -0.3223 -0.3529 -0.3451
  767ACTN    C1 8129   5.166   2.285   8.491 -0.4972  0.3318  0.0931
  767ACTN    H1 8130   5.174   2.352   8.577  0.4280 -0.6235  0.7647
  767ACTN    H2 8131   5.131   2.191   8.535 -1.1983  0.2382 -0.6647
  767ACTN    H3 8132   5.089   2.326   8.427 -1.0368 -0.9431 -0.0909
  768ACTN    H6 8133   5.933   1.610   2.634  2.1067 -0.2014  1.1135
  768ACTN    C3 8134   5.993   1.648   2.551  0.4159  0.2563  0.0618
  768ACTN    H4 8135   5.938   1.630   2.459 -0.7624  0.8821  0.6228
  768ACTN    H5 8136   6.018   1.754   2.558 -2.4087  0.8047  3.2693
  768ACTN    C2 8137   6.127   1.589   2.550  0.1979  0.2645  0.8034
  768ACTN    O1 8138   6.178   1.525   2.456  0.0772  0.2585 -0.1477
  768ACTN    C1 8139   6.189   1.556   2.682  0.2303  0.4003 -0.2365
  768ACTN    H1 8140   6.270   1.484   2.669  0.2611  0.5736 -1.0516
  768ACTN    H2 8141   6.111   1.517   2.747  1.1405  3.6779  2.9930
  768ACTN    H3 8142   6.226   1.640   2.742  0.9797  0.1828 -0.3884
  769ACTN    H6 8143   4.791   6.475   1.741  0.0956 -0.1267 -0.5283
  769ACTN    C3 8144   4.762   6.453   1.638 -0.3664 -0.3263 -0.3565
  769ACTN    H4 8145   4.852   6.436   1.579 -1.0572 -0.6577 -1.3235
  769ACTN    H5 8146   4.706   6.359   1.638 -0.5294 -0.2312 -0.9223
  769ACTN    C2 8147   4.671   6.562   1.589 -0.2864 -0.4402 -0.4263
  769ACTN    O1 8148   4.688   6.624   1.485  0.0416  0.4403  0.0428
  769ACTN    C1 8149   4.548   6.587   1.664  0.4166  0.1971  0.1155
  769ACTN    H1 8150   4.531   6.512   1.742 -0.6511  0.8843  0.5593
  769ACTN    H2 8151   4.479   6.602   1.582 -0.3780  0.6278  0.8495
  769ACTN    H3 8152   4.550   6.685   1.713  3.3011 -0.5210  1.5970
  770ACTN    H6 8153   1.473   3.202   5.297  0.6318  3.7212 -2.2599
  770ACTN    C3 8154   1.562   3.164   5.248  0.2868  0.0741 -0.2405
  770ACTN    H4 8155   1.537   3.155   5.142 -0.3534  2.1035 -0.2860
  770ACTN    H5 8156   1.650   3.228   5.251 -1.9666  3.2858  0.4877
  770ACTN    C2 8157   1.592   3.027   5.296  0.0664  0.4558 -0.1447
  770ACTN    O1 8158   1.710   2.991   5.320  0.5523 -0.4045  0.6164
  770ACTN    C1 8159   1.479   2.933   5.325 -0.2805  0.4866 -0.2466
  770ACTN    H1 8160   1.501   2.832   5.291  0.7753  0.2006  1.2411
  770ACTN    H2 8161   1.396   2.978   5.270 -0.0051  1.0454 -0.2097
  770ACTN    H3 8162   1.461   2.926   5.432 -2.3210 -3.2325 -0.7634
  771ACTN    H6 8163   5.526   5.356   3.662 -2.0230 -1.0968  0.9193
  771ACTN    C3 8164   5.567   5.257   3.644 -0.4252 -0.2636 -0.1943
  771ACTN    H4 8165   5.637   5.239   3.726  1.6458  1.4964 -1.5483
  771ACTN    H5 8166   5.479   5.195   3.663 -0.3881 -0.0463  0.7487
  771ACTN    C2 8167   5.614   5.237   3.500  0.0283 -0.9754 -0.1175
  771ACTN    O1 8168   5.736   5.238   3.476  0.0363  0.3537  0.0869
  771ACTN    C1 8169   5.526   5.266   3.387  0.0267  0.3926  0.1157
  771ACTN    H1 8170   5.533   5.372   3.362  1.4133  0.2226 -0.2166
  771ACTN    H2 8171   5.420   5.241   3.397  0.0052  1.0552  1.7025
  771ACTN    H3 8172   5.557   5.214   3.297  2.4082  0.9432  0.6012
  772ACTN    H6 8173   0.158   1.453   8.170  1.4836  2.4229  0.3503
  772ACTN    C3 8174   0.073   1.513   8.205  0.2229  0.5227  0.6288
  772ACTN    H4 8175  -0.016   1.457   8.176 -0.4327  0.2230  3.0838
  772ACTN    H5 8176   0.080   1.519   8.313 -1.8149 -3.4693  1.1006
  772ACTN    C2 8177   0.074   1.647   8.123  0.3404 -0.1523 -1.1229
  772ACTN    O1 8178   0.182   1.689   8.081  0.3862 -0.5362 -0.2451
  772ACTN    C1 8179  -0.055   1.724   8.096 -0.3076  0.8037  0.3459
  772ACTN    H1 8180  -0.123   1.645   8.065  0.5604  0.2171 -0.0740
  772ACTN    H2 8181  -0.045   1.801   8.019  0.8628  0.9066  0.5814
  772ACTN    H3 8182  -0.098   1.769   8.186  0.9421  0.8401  0.9421
  773ACTN    H6 8183   5.339   4.699   6.602  1.6848  0.7167  0.4814
  773ACTN    C3 8184   5.276   4.779   6.563  0.2498 -0.4930  0.2535
  773ACTN    H4 8185   5.312   4.802   6.462 -0.3829  0.8335  0.3129
  773ACTN    H5 8186   5.172   4.749   6.558  0.1596 -0.8319  3.4909
  773ACTN    C2 8187   5.282   4.906   6.650  0.4116 -0.5496 -0.6437
  773ACTN    O1 8188   5.372   4.985   6.634 -0.4883 -0.8320  0.2507
  773ACTN    C1 8189   5.179   4.933   6.751 -0.2011 -0.0271 -0.5040
  773ACTN    H1 8190   5.114   5.018   6.727  0.4401  1.0380  1.4111
  773ACTN    H2 8191   5.222   4.948   6.850  0.0717 -1.8470 -0.3389
  773ACTN    H3 8192   5.115   4.849   6.774  0.2931 -0.5887 -1.1652
  774ACTN    H6 8193   6.892   7.262   3.738 -0.3948  0.9971  0.1066
  774ACTN    C3 8194   6.846   7.344   3.792 -0.6298  0.3201  0.9508
  774ACTN    H4 8195   6.778   7.391   3.721  1.4333  0.6398 -0.8790
  774ACTN    H5 8196   6.796   7.308   3.882 -1.2890 -2.1049 -0.3463
  774ACTN    C2 8197   6.959   7.429   3.836 -0.2572  0.2462  0.0176
  774ACTN    O1 8198   7.018   7.505   3.764 -0.4053 -0.0740 -0.4146
  774ACTN    C1 8199   6.997   7.414   3.984  0.2100  0.0505  0.6004
  774ACTN    H1 8200   7.015   7.310   4.011  0.0266 -0.3167 -0.6707
  774ACTN    H2 8201   6.920   7.453   4.050  0.7678  0.2043  1.1662
  774ACTN    H3 8202   7.088   7.472   4.002 -0.5703  1.4021  0.2391
  775ACTN    H6 8203   7.788   6.317   4.264  0.0772 -2.1293  0.0559
  775ACTN    C3 8204   7.853   6.325   4.351  0.1072 -0.0476 -0.1314
  775ACTN    H4 8205   7.956   6.326   4.314  0.1029 -0.5216 -0.1550
  775ACTN    H5 8206   7.832   6.424   4.392 -0.1765  0.3514 -1.2128
  775ACTN    C2 8207   7.839   6.211   4.447 -0.4837  0.2787 -0.1352
  775ACTN    O1 8208   7.748   6.129   4.438 -0.5364 -0.1710  0.1226
  775ACTN    C1 8209   7.931   6.190   4.568  0.9498  0.2419 -0.9123
  775ACTN    H1 8210   7.986   6.096   4.563  0.8922  0.3088 -3.2296
  775ACTN    H2 8211   7.877   6.184   4.663 -0.1322 -2.4934 -1.6460
  775ACTN    H3 8212   7.997   6.276   4.556  0.9156 -0.1733 -4.5453
  776ACTN    H6 8213   1.139   8.335   6.741  1.0374  2.8354  0.3089
  776ACTN    C3 8214   1.086   8.352   6.835  0.5742 -0.4155  0.6704
  776ACTN    H4 8215   1.110   8.450   6.876 -0.4006 -0.0110  0.2925
  776ACTN    H5 8216   0.978   8.337   6.826  0.7534 -0.9718 -0.6918
  776ACTN    C2 8217   1.148   8.249   6.927 -0.3256  0.4710 -0.1122
  776ACTN    O1 8218   1.079   8.182   7.005 -0.2705 -0.1542  0.1774
  776ACTN    C1 8219   1.298   8.242   6.953  0.1599 -0.1721  0.2819
  776ACTN    H1 8220   1.321   8.304   7.040 -1.6582 -0.2155  0.8111
  776ACTN    H2 8221   1.340   8.288   6.863  1.8222 -3.0416 -0.4882
  776ACTN    H3 8222   1.333   8.139   6.964 -1.7046 -0.8156  0.3922
  777ACTN    H6 8223   3.715   2.444   1.756  2.3309  2.1446  0.0733
  777ACTN    C3 8224   3.658   2.525   1.711 -0.5815  0.3040  0.3227
  777ACTN    H4 8225   3.684   2.618   1.760  0.0747  0.1317  0.3029
  777ACTN    H5 8226   3.552   2.510   1.731 -0.3041  0.5796  2.0212
  777ACTN    C2 8227   3.696   2.540   1.566 -0.0686 -0.1833 -0.0213
  777ACTN    O1 8228   3.791   2.605   1.529  0.4239  0.4211 -0.0602
  777ACTN    C1 8229   3.608   2.478   1.464  0.4208 -0.4567 -0.1467
  777ACTN    H1 8230   3.552   2.566   1.430  1.1978  0.6657  1.4538
  777ACTN    H2 8231   3.550   2.414   1.531  4.4107 -3.9427  0.1932
  777ACTN    H3 8232   3.653   2.416   1.387 -2.1485  0.7104 -2.6905
  778ACTN    H6 8233   8.923   7.063   2.036 -1.1690  0.5497 -0.2562
  778ACTN    C3 8234   8.897   7.008   2.127 -0.7763 -0.0632 -0.5109
  778ACTN    H4 8235   8.808   7.055   2.168  0.4623  1.7073  0.2159
  778ACTN    H5 8236   8.869   6.904   2.111  2.0407 -0.7178 -1.6074
  778ACTN    C2 8237   9.015   7.023   2.224 -0.4060  0.3592  0.1588
  778ACTN    O1 8238   9.013   6.977   2.339  0.1252  0.2254  0.5962
  778ACTN    C1 8239   9.132   7.107   2.179 -0.0056 -0.0023  0.1727
  778ACTN    H1 8240   9.180   7.049   2.100  1.8143 -1.6079  2.3849
  778ACTN    H2 8241   9.206   7.119   2.258 -0.7596 -2.9843  1.3912
  778ACTN    H3 8242   9.103   7.203   2.136 -1.0217 -1.4188 -2.4610
  779ACTN    H6 8243   5.420   3.565   3.647 -1.0935 -0.0702  0.6618
  779ACTN    C3 8244   5.513   3.621   3.640 -0.8202 -0.5383  0.5319
  779ACTN    H4 8245   5.579   3.600   3.724 -0.2849  1.6063  0.6720
  779ACTN    H5 8246   5.563   3.580   3.552  0.5470 -0.7349  1.3823
  779ACTN    C2 8247   5.497   3.765   3.610  1.0743 -0.3193 -0.3161
  779ACTN    O1 8248   5.552   3.825   3.515  0.1338 -0.0869  0.2117
  779ACTN    C1 8249   5.421   3.854   3.708  0.5032 -0.1234 -0.2837
  779ACTN    H1 8250   5.481   3.868   3.798  0.8279 -1.0846 -0.3397
  779ACTN    H2 8251   5.330   3.800   3.736 -1.0615  1.8662 -1.4031
  779ACTN    H3 8252   5.389   3.947   3.661  1.6217  1.8906  2.8052
  780ACTN    H6 8253   1.220   5.164   5.708 -2.2459 -0.1607 -2.3047
  780ACTN    C3 8254   1.295   5.126   5.639 -0.0502 -0.2909  0.0809
  780ACTN    H4 8255   1.259   5.146   5.538  0.7438 -2.4512 -0.6548
  780ACTN    H5 8256   1.386   5.185   5.651 -0.3715 -0.3039  2.8941
  780ACTN    C2 8257   1.319   4.977   5.654 -0.2216  0.4010 -0.2357
  780ACTN    O1 8258   1.392   4.911   5.580  0.0247 -0.2333 -0.4193
  780ACTN    C1 8259   1.264   4.900   5.772 -0.8832 -1.0531 -1.0921
  780ACTN    H1 8260   1.350   4.851   5.818  0.0957 -0.5633 -2.3703
  780ACTN    H2 8261   1.192   4.824   5.741 -2.1032 -0.3069 -0.1312
  780ACTN    H3 8262   1.214   4.969   5.839 -0.2235 -1.5699 -0.0442
  781ACTN    H6 8263   6.067   7.380   5.261  0.9670 -0.7092 -0.8977
  781ACTN    C3 8264   6.000   7.430   5.191  0.4076 -0.8542 -0.4680
  781ACTN    H4 8265   6.043   7.454   5.093 -0.5367  1.4770 -0.3364
  781ACTN    H5 8266   5.931   7.349   5.169  0.7041 -1.4496  0.7918
  781ACTN    C2 8267   5.938   7.550   5.263  0.1078  0.1506 -0.2615
  781ACTN    O1 8268   5.998   7.602   5.360 -0.6422  0.0224 -0.5740
  781ACTN    C1 8269   5.796   7.569   5.239 -0.7604  0.2549  0.5623
  781ACTN    H1 8270   5.742   7.500   5.303 -0.5741  0.3183  0.7886
  781ACTN    H2 8271   5.774   7.554   5.133 -0.4451  2.1546  0.2072
  781ACTN    H3 8272   5.769   7.673   5.257  0.8650  0.5360  1.4533
  782ACTN    H6 8273   1.387   1.342   2.719  0.3870 -0.3871 -2.6515
  782ACTN    C3 8274   1.475   1.398   2.751 -0.3142 -0.6052 -0.2710
  782ACTN    H4 8275   1.515   1.344   2.836  0.3260 -2.2845 -1.6124
  782ACTN    H5 8276   1.540   1.389   2.664 -0.5760 -0.2734 -0.5030
  782ACTN    C2 8277   1.447   1.537   2.785  0.5052  0.1899 -0.0835
  782ACTN    O1 8278   1.469   1.587   2.891 -0.2582 -0.1918 -0.5465
  782ACTN    C1 8279   1.370   1.618   2.684 -0.1111 -0.3907 -0.0685
  782ACTN    H1 8280   1.408   1.719   2.668 -2.1430  1.0247  3.6480
  782ACTN    H2 8281   1.269   1.634   2.721  0.3218  2.5042 -0.0315
  782ACTN    H3 8282   1.360   1.562   2.590 -0.3210 -0.0952 -0.2213
  783ACTN    H6 8283   3.740   8.021   3.793  0.6912 -0.9571  0.2492
  783ACTN    C3 8284   3.747   8.048   3.898 -0.2648  0.6893 -0.1027
  783ACTN    H4 8285   3.734   8.156   3.902  1.0780  0.8390  0.2998
  783ACTN    H5 8286   3.661   8.005   3.949  1.3501  0.8054  2.8176
  783ACTN    C2 8287   3.874   8.009   3.965  0.3352 -0.2644  0.7944
  783ACTN    O1 8288   3.974   8.039   3.900  0.5064 -0.1036 -0.1176
  783ACTN    C1 8289   3.876   7.950   4.103 -0.1696 -0.2157 -0.3816
  783ACTN    H1 8290   3.863   8.009   4.194  0.8245 -1.1442  0.3687
  783ACTN    H2 8291   3.972   7.901   4.116 -0.1494 -0.0759 -0.0076
  783ACTN    H3 8292   3.801   7.871   4.106  0.0634 -0.4372 -0.3960
  784ACTN    H6 8293   2.902   5.466   0.923 -2.0076  0.0341 -0.1902
  784ACTN    C3 8294   2.909   5.378   0.859 -0.1335  0.5398 -0.7170
  784ACTN    H4 8295   2.857   5.301   0.918 -1.5949  0.5568 -1.9562
  784ACTN    H5 8296   2.861   5.393   0.763 -1.5852 -0.2483 -0.1392
  784ACTN    C2 8297   3.051   5.337   0.838 -0.2537 -0.4979  0.4985
  784ACTN    O1 8298   3.110   5.375   0.734  0.9916  0.3229 -0.1233
  784ACTN    C1 8299   3.135   5.266   0.946 -0.2241 -0.3876 -0.1355
  784ACTN    H1 8300   3.143   5.161   0.920 -0.8267 -1.0505  2.1955
  784ACTN    H2 8301   3.087   5.280   1.043  0.4699  2.4302 -0.1507
  784ACTN    H3 8302   3.234   5.310   0.951  0.4228 -1.9704  1.4054
  785ACTN    H6 8303   5.833   8.833   2.620  1.1586 -2.1167  0.4750
  785ACTN    C3 8304   5.767   8.777   2.554  0.4204  0.5519 -1.1234
  785ACTN    H4 8305   5.813   8.679   2.547  0.3514  0.3730  0.7587
  785ACTN    H5 8306   5.667   8.771   2.598  1.7390  0.4357  1.9866
  785ACTN    C2 8307   5.768   8.835   2.415  0.6828 -0.1988 -0.0335
  785ACTN    O1 8308   5.708   8.939   2.405 -0.5259 -0.2791 -0.2403
  785ACTN    C1 8309   5.816   8.765   2.294  0.3602  0.1455 -0.0999
  785ACTN    H1 8310   5.810   8.657   2.309  2.9112 -0.0596 -0.3715
  785ACTN    H2 8311   5.916   8.796   2.264  1.1635 -0.8321  1.5085
  785ACTN    H3 8312   5.746   8.782   2.212  1.5674  2.9648 -0.5933
  786ACTN    H6 8313   5.951   4.564   6.799 -1.4614  2.1880  1.5531
  786ACTN    C3 8314   5.950   4.482   6.871 -0.1137  0.6865 -0.0827
  786ACTN    H4 8315   6.049   4.448   6.900  0.4530  1.5705 -0.9546
  786ACTN    H5 8316   5.906   4.531   6.958 -1.4172 -0.0045 -0.3357
  786ACTN    C2 8317   5.850   4.382   6.833  0.2751 -0.2178  0.2667
  786ACTN    O1 8318   5.879   4.268   6.847 -0.2136  0.3236  0.6125
  786ACTN    C1 8319   5.740   4.414   6.740  1.0730  0.4494 -0.4577
  786ACTN    H1 8320   5.642   4.405   6.788 -0.0027  1.0064 -2.5061
  786ACTN    H2 8321   5.732   4.350   6.652 -2.2575  0.1810 -0.0254
  786ACTN    H3 8322   5.748   4.514   6.698  2.6621 -0.4238 -2.2805
  787ACTN    H6 8323   0.462   2.306   1.591  1.0383  2.0985  0.5184
  787ACTN    C3 8324   0.531   2.227   1.622 -0.8708  0.2592  0.1738
  787ACTN    H4 8325   0.478   2.143   1.668 -0.9733  0.9341  1.3037
  787ACTN    H5 8326   0.595   2.198   1.539  1.0763  1.1547  1.3062
  787ACTN    C2 8327   0.632   2.278   1.727  0.5198  0.0766 -0.9350
  787ACTN    O1 8328   0.719   2.205   1.777 -0.3211  0.5808  0.2702
  787ACTN    C1 8329   0.620   2.416   1.773  0.3062 -0.3019  0.2585
  787ACTN    H1 8330   0.631   2.484   1.689  0.3279  2.2102  2.2076
  787ACTN    H2 8331   0.699   2.442   1.843  0.7825 -0.6984 -0.1335
  787ACTN    H3 8332   0.521   2.435   1.815 -0.8721 -3.5692 -0.9023
  788ACTN    H6 8333   8.658   4.718   8.222  1.4598  0.5398 -0.5915
  788ACTN    C3 8334   8.656   4.760   8.322  0.0414  0.2461 -0.4855
  788ACTN    H4 8335   8.589   4.847   8.326  1.3422  1.2172  0.4860
  788ACTN    H5 8336   8.617   4.679   8.384 -4.5364  2.3891 -0.3557
  788ACTN    C2 8337   8.799   4.799   8.349 -0.3063  0.4570  0.3444
  788ACTN    O1 8338   8.854   4.842   8.240  0.1281  0.4456 -0.0337
  788ACTN    C1 8339   8.854   4.854   8.475  0.1003 -0.2276 -0.3479
  788ACTN    H1 8340   8.811   4.805   8.563 -0.8786  3.0251  1.0901
  788ACTN    H2 8341   8.833   4.961   8.483 -1.1424 -0.4947  0.1992
  788ACTN    H3 8342   8.962   4.842   8.487  0.0981 -0.5373 -0.6482
  789ACTN    H6 8343   8.481   0.364   8.627 -0.7216  0.0896 -0.3738
  789ACTN    C3 8344   8.457   0.458   8.576 -0.3087  0.0143 -0.7072
  789ACTN    H4 8345   8.393   0.523   8.636 -0.9902  0.2691 -1.6934
  789ACTN    H5 8346   8.548   0.516   8.559 -1.8432  2.0195 -2.3989
  789ACTN    C2 8347   8.400   0.425   8.445  1.1112 -0.3387 -0.4327
  789ACTN    O1 8348   8.469   0.408   8.348 -0.5843  0.7499  0.5864
  789ACTN    C1 8349   8.246   0.399   8.439 -1.2336 -0.1470  0.2143
  789ACTN    H1 8350   8.202   0.493   8.471 -1.0653  0.1755 -0.4905
  789ACTN    H2 8351   8.205   0.329   8.512 -0.8409  1.4226  1.9859
  789ACTN    H3 8352   8.209   0.383   8.338  0.3225  1.0484 -0.5721
  790ACTN    H6 8353   0.134   7.153   7.881 -1.4020  1.0050 -0.0792
  790ACTN    C3 8354   0.089   7.143   7.980 -0.3953  0.0775  0.2968
  790ACTN    H4 8355   0.107   7.244   8.016 -0.9390 -0.4360  2.0475
  790ACTN    H5 8356  -0.020   7.134   7.978 -0.4025 -0.0800  1.2943
  790ACTN    C2 8357   0.144   7.028   8.052 -0.5579 -0.1112  0.3082
  790ACTN    O1 8358   0.264   7.009   8.058 -0.5833  0.2554  0.1170
  790ACTN    C1 8359   0.048   6.925   8.100  0.4368 -0.2119  0.4957
  790ACTN    H1 8360  -0.054   6.957   8.079 -0.2151 -1.2862  1.9908
  790ACTN    H2 8361   0.055   6.912   8.208  0.3502  0.1912  0.5502
  790ACTN    H3 8362   0.056   6.828   8.051  0.8920 -0.7434  1.6187
  791ACTN    H6 8363   0.905   3.252   1.950  0.0911 -3.3336  0.4501
  791ACTN    C3 8364   1.007   3.269   1.983 -0.4621 -0.0354  0.6772
  791ACTN    H4 8365   1.015   3.239   2.088 -1.2311  2.8889  1.6142
  791ACTN    H5 8366   1.073   3.203   1.926 -3.4303 -0.9551 -1.7935
  791ACTN    C2 8367   1.051   3.415   1.962 -0.4956  0.5811 -0.4740
  791ACTN    O1 8368   1.037   3.492   2.058 -0.9328 -0.3337 -0.1996
  791ACTN    C1 8369   1.100   3.469   1.826  0.3900  0.6608  0.6010
  791ACTN    H1 8370   1.203   3.502   1.837  0.5539  0.2243  0.4011
  791ACTN    H2 8371   1.050   3.555   1.782 -3.1474 -0.7778  1.5824
  791ACTN    H3 8372   1.099   3.380   1.762  0.3961  2.0814 -1.4418
  792ACTN    H6 8373   6.631   6.653   2.602  0.8252  0.3678 -1.0804
  792ACTN    C3 8374   6.563   6.672   2.519  0.2906  0.3819 -0.6414
  792ACTN    H4 8375   6.536   6.778   2.518  1.1208  0.6095  0.3915
  792ACTN    H5 8376   6.478   6.606   2.534  0.0599  0.4281 -1.7157
  792ACTN    C2 8377   6.618   6.632   2.381 -0.1023 -0.1254 -1.1546
  792ACTN    O1 8378   6.715   6.689   2.335  0.1938  0.6141  0.1366
  792ACTN    C1 8379   6.562   6.519   2.302 -0.2071 -0.4098  0.5103
  792ACTN    H1 8380   6.550   6.428   2.361  0.1531 -0.9822 -0.3041
  792ACTN    H2 8381   6.622   6.481   2.220  1.7445 -0.9989  2.1591
  792ACTN    H3 8382   6.468   6.545   2.253 -1.2150 -0.9346  2.0827
  793ACTN    H6 8383   3.216   6.000   2.149  0.8496  0.5083  1.3884
  793ACTN    C3 8384   3.213   5.894   2.175 -0.0494  0.0716 -0.4248
  793ACTN    H4 8385   3.114   5.876   2.218  1.2077 -0.0910  2.4913
  793ACTN    H5 8386   3.215   5.834   2.084 -1.6987  1.2507 -1.2791
  793ACTN    C2 8387   3.322   5.868   2.272  0.4066  0.1416 -0.3809
  793ACTN    O1 8388   3.437   5.922   2.268 -0.5435 -0.2676 -0.0597
  793ACTN    C1 8389   3.284   5.756   2.373 -0.6402 -0.4736  0.9231
  793ACTN    H1 8390   3.210   5.795   2.444 -0.6685 -0.2656  0.7801
  793ACTN    H2 8391   3.380   5.728   2.416 -0.2075 -1.0068 -0.3698
  793ACTN    H3 8392   3.250   5.669   2.317 -2.2822  0.4971  0.3723
  794ACTN    H6 8393   1.036   3.445   0.728  1.0395 -0.4126 -2.4051
  794ACTN    C3 8394   0.943   3.406   0.685 -0.0417 -0.1383 -0.3523
  794ACTN    H4 8395   0.952   3.304   0.648 -3.2584  0.2124 -2.2850
  794ACTN    H5 8396   0.867   3.408   0.763 -0.2344 -0.5916 -0.5287
  794ACTN    C2 8397   0.898   3.488   0.574  0.5506 -0.2268  0.4734
  794ACTN    O1 8398   0.779   3.495   0.539 -0.6628 -0.2966  0.4088
  794ACTN    C1 8399   1.006   3.533   0.479  0.2041 -0.0636  0.1983
  794ACTN    H1 8400   1.105   3.508   0.519  0.3586  0.6053  0.2479
  794ACTN    H2 8401   1.014   3.642   0.471  1.8016 -0.0883  1.1805
  794ACTN    H3 8402   0.983   3.481   0.386 -3.6127 -0.2430  1.1713
  795ACTN    H6 8403   4.550   7.346   3.021  0.9015 -2.5524 -0.8931
  795ACTN    C3 8404   4.507   7.364   2.923 -0.2994 -0.1072  0.0381
  795ACTN    H4 8405   4.579   7.324   2.851 -1.7788  1.3313 -2.3238
  795ACTN    H5 8406   4.411   7.318   2.901 -0.5647  0.0484  0.8738
  795ACTN    C2 8407   4.505   7.511   2.883 -0.5179 -1.0073  0.1714
  795ACTN    O1 8408   4.431   7.590   2.939  0.5199  0.5029 -0.7005
  795ACTN    C1 8409   4.583   7.558   2.763  0.3242 -0.8045 -0.6446
  795ACTN    H1 8410   4.685   7.522   2.755 -0.4506 -3.1747 -0.0526
  795ACTN    H2 8411   4.583   7.667   2.758 -0.9118 -0.7822 -0.3843
  795ACTN    H3 8412   4.527   7.527   2.675 -1.5630 -0.9918  0.5963
  796ACTN    H6 8413   3.842   3.683   4.898 -0.8053  1.7671 -1.7086
  796ACTN    C3 8414   3.946   3.672   4.868 -0.2254  0.5132  0.5760
  796ACTN    H4 8415   3.957   3.582   4.809  0.7739  2.3970 -2.2340
  796ACTN    H5 8416   3.969   3.752   4.798 -4.4314  1.2294 -0.1463
  796ACTN    C2 8417   4.039   3.663   4.987 -0.5355  0.0927 -0.3009
  796ACTN    O1 8418   3.993   3.628   5.096 -0.5547  0.2312 -0.2623
  796ACTN    C1 8419   4.190   3.693   4.979  0.4049  0.3286 -0.1254
  796ACTN    H1 8420   4.217   3.765   5.056 -0.3423  0.9449 -0.4234
  796ACTN    H2 8421   4.224   3.730   4.883  1.1772  0.3098  0.1430
  796ACTN    H3 8422   4.245   3.605   5.011 -1.2621 -0.0536  1.8431
  797ACTN    H6 8423   1.050   3.501   7.180  0.1689  0.2936  0.6702
  797ACTN    C3 8424   1.010   3.404   7.211  0.2204  0.1734  0.3538
  797ACTN    H4 8425   0.932   3.373   7.142 -1.3206 -1.7062  2.8667
  797ACTN    H5 8426   1.088   3.329   7.222 -0.4449 -1.0403 -2.7187
  797ACTN    C2 8427   0.925   3.418   7.336 -0.2799  0.1335  0.6338
  797ACTN    O1 8428   0.826   3.352   7.372 -0.4969 -0.0328 -0.5068
  797ACTN    C1 8429   0.979   3.513   7.436 -0.1573 -0.2793  0.2367
  797ACTN    H1 8430   0.907   3.587   7.471  0.4057  0.1311  0.5561
  797ACTN    H2 8431   1.057   3.579   7.399  0.4692 -1.3808 -0.4296
  797ACTN    H3 8432   1.021   3.470   7.527  0.8055 -2.0281 -1.0066
  798ACTN    H6 8433   5.421   5.083   4.324 -0.3626 -0.0817  0.0411
  798ACTN    C3 8434   5.324   5.048   4.288  0.0786 -0.1578 -1.0857
  798ACTN    H4 8435   5.255   5.062   4.372 -1.0801 -0.8879 -1.8961
  798ACTN    H5 8436   5.294   5.121   4.213 -0.2724  2.5561  1.5752
  798ACTN    C2 8437   5.334   4.902   4.250 -0.0910 -0.4222 -0.5039
  798ACTN    O1 8438   5.335   4.875   4.134  0.1404  0.1370 -0.4421
  798ACTN    C1 8439   5.391   4.816   4.358  0.2893  0.6673 -0.0536
  798ACTN    H1 8440   5.485   4.859   4.395  0.3720  0.7217 -0.3253
  798ACTN    H2 8441   5.430   4.722   4.319  0.2726  0.7591 -0.2871
  798ACTN    H3 8442   5.320   4.804   4.440  0.5997 -0.5670  0.0447
  799ACTN    H6 8443   2.169   1.988   7.130 -2.8217 -0.6745  1.3372
  799ACTN    C3 8444   2.162   1.886   7.093 -0.4514 -0.5492  0.4761
  799ACTN    H4 8445   2.082   1.865   7.021  0.8075 -2.5382 -0.4015
  799ACTN    H5 8446   2.262   1.856   7.060 -0.2061  1.2506 -0.4577
  799ACTN    C2 8447   2.130   1.805   7.213  0.0661  0.0223  0.7601
  799ACTN    O1 8448   2.049   1.845   7.301 -0.0298 -0.2781  0.1784
  799ACTN    C1 8449   2.138   1.656   7.199  0.3276 -0.1547 -0.2712
  799ACTN    H1 8450   2.241   1.629   7.177 -0.0897  0.1823 -2.7300
  799ACTN    H2 8451   2.061   1.619   7.132 -1.6536 -0.7589  2.2361
  799ACTN    H3 8452   2.121   1.603   7.293 -0.9216  0.3544 -0.2019
  800ACTN    H6 8453   2.734   1.010   4.825  1.0242 -0.8649  0.2347
  800ACTN    C3 8454   2.675   0.920   4.808 -0.2808  0.0940 -0.4915
  800ACTN    H4 8455   2.568   0.941   4.800 -0.3009  0.5635  0.8622
  800ACTN    H5 8456   2.711   0.883   4.712 -0.3087  1.8734 -1.2064
  800ACTN    C2 8457   2.682   0.813   4.911 -0.4521 -0.0728 -0.3503
  800ACTN    O1 8458   2.635   0.833   5.024 -0.4031 -0.6692 -0.2250
  800ACTN    C1 8459   2.717   0.667   4.877  0.7572 -0.2710  0.1951
  800ACTN    H1 8460   2.621   0.616   4.862  1.0139 -0.6629 -0.1308
  800ACTN    H2 8461   2.775   0.619   4.956  1.7367 -0.9465 -0.9154
  800ACTN    H3 8462   2.768   0.676   4.781  1.0598 -0.7224  0.3146
  801ACTN    H6 8463   6.617   0.604   3.409  0.9219 -1.1018 -3.3936
  801ACTN    C3 8464   6.677   0.693   3.388 -0.6164  0.5865 -0.9751
  801ACTN    H4 8465   6.680   0.700   3.279 -0.8178 -2.1894 -1.2084
  801ACTN    H5 8466   6.777   0.685   3.431 -0.3532  3.3968 -0.9728
  801ACTN    C2 8467   6.608   0.811   3.439  0.0603 -0.0887  0.6953
  801ACTN    O1 8468   6.494   0.806   3.481  0.2358 -0.2420 -0.4338
  801ACTN    C1 8469   6.670   0.950   3.434 -0.1648 -0.0399 -1.0194
  801ACTN    H1 8470   6.685   0.982   3.537 -2.3026  1.4365 -1.1428
  801ACTN    H2 8471   6.612   1.021   3.375  0.0174 -0.3581 -1.5882
  801ACTN    H3 8472   6.772   0.954   3.394 -0.2146 -1.4648 -1.3134
  802ACTN    H6 8473   8.559   0.807   1.706  0.9563  0.4739  1.4553
  802ACTN    C3 8474   8.556   0.713   1.761  0.5441 -1.0673 -1.1360
  802ACTN    H4 8475   8.512   0.630   1.706 -2.5997 -0.1090 -0.1434
  802ACTN    H5 8476   8.658   0.679   1.783  0.6431 -2.3807 -3.4369
  802ACTN    C2 8477   8.472   0.742   1.886  0.0619 -0.3727  0.0532
  802ACTN    O1 8478   8.523   0.814   1.972  0.5034 -0.3313  0.1980
  802ACTN    C1 8479   8.333   0.692   1.916  0.4079 -0.3436 -0.5562
  802ACTN    H1 8480   8.306   0.614   1.845 -0.6364  0.2852 -0.8613
  802ACTN    H2 8481   8.259   0.771   1.901  1.4524  0.8967  0.6863
  802ACTN    H3 8482   8.351   0.658   2.018  0.3182  1.5392  0.1124
  803ACTN    H6 8483   8.751   7.249   2.250  0.3767  0.0327  1.8313
  803ACTN    C3 8484   8.715   7.347   2.280  0.3327  0.6268 -0.0644
  803ACTN    H4 8485   8.660   7.332   2.373  1.7212 -1.0089  0.5128
  803ACTN    H5 8486   8.801   7.410   2.302 -1.3507  1.6632  4.0468
  803ACTN    C2 8487   8.633   7.409   2.171 -0.4522  0.5016 -0.2710
  803ACTN    O1 8488   8.536   7.351   2.123 -0.0979  0.3927 -0.0551
  803ACTN    C1 8489   8.676   7.549   2.134 -0.4524  0.2396  0.6495
  803ACTN    H1 8490   8.626   7.590   2.046  1.5827 -0.3327 -0.8154
  803ACTN    H2 8491   8.779   7.553   2.098 -0.1662 -1.2524  1.2370
  803ACTN    H3 8492   8.653   7.620   2.213 -0.7699 -0.8154  1.5102
  804ACTN    H6 8493   5.082   2.554   6.205  1.9170 -1.2294 -1.7586
  804ACTN    C3 8494   5.182   2.572   6.243  0.9069  0.1585  0.3329
  804ACTN    H4 8495   5.210   2.497   6.317  1.0585 -0.6061 -0.4878
  804ACTN    H5 8496   5.248   2.552   6.159  0.2476 -1.2641  0.1485
  804ACTN    C2 8497   5.211   2.712   6.285 -0.7547  0.6324 -0.2660
  804ACTN    O1 8498   5.163   2.756   6.386 -0.0339  0.1998  0.1499
  804ACTN    C1 8499   5.297   2.809   6.200 -0.0872  0.1676 -0.0331
  804ACTN    H1 8500   5.328   2.894   6.261 -2.6839  1.2369 -0.1267
  804ACTN    H2 8501   5.243   2.844   6.113 -2.3638 -3.7885 -0.3516
  804ACTN    H3 8502   5.392   2.769   6.164 -0.0488  0.1681  0.0666
  805ACTN    H6 8503   0.760   0.034   5.836  1.4760  0.9774 -1.4380
  805ACTN    C3 8504   0.732  -0.050   5.773 -0.0636  0.2899  0.1170
  805ACTN    H4 8505   0.624  -0.052   5.763 -0.0457  0.7763 -0.2337
  805ACTN    H5 8506   0.762  -0.145   5.816 -0.4075  0.8999  1.7425
  805ACTN    C2 8507   0.789  -0.028   5.636  0.2935  0.2131  0.5260
  805ACTN    O1 8508   0.855  -0.113   5.584 -0.3704  0.0608  0.4172
  805ACTN    C1 8509   0.791   0.105   5.583 -0.0101 -0.6374 -0.4368
  805ACTN    H1 8510   0.732   0.176   5.641  0.3227 -1.3568  0.7936
  805ACTN    H2 8511   0.758   0.104   5.479  1.4041 -0.5869 -0.9085
  805ACTN    H3 8512   0.890   0.153   5.582  0.2257 -1.1225 -1.2509
  806ACTN    H6 8513   8.660   2.735   2.098  0.2497  0.7980  0.5753
  806ACTN    C3 8514   8.612   2.784   2.183 -1.0535 -0.0418  0.3277
  806ACTN    H4 8515   8.574   2.881   2.152  1.4603  1.1222  0.7735
  806ACTN    H5 8516   8.522   2.734   2.220 -1.2531  0.7616  0.9357
  806ACTN    C2 8517   8.719   2.806   2.282 -0.4484  0.3265 -0.8581
  806ACTN    O1 8518   8.801   2.896   2.273 -0.1428 -0.6518 -0.2039
  806ACTN    C1 8519   8.740   2.701   2.384  0.2305 -0.7014  0.3118
  806ACTN    H1 8520   8.825   2.721   2.450  1.5191 -3.3838 -0.4615
  806ACTN    H2 8521   8.779   2.616   2.327  1.0372 -0.0397 -0.1351
  806ACTN    H3 8522   8.652   2.679   2.443 -0.2168 -0.8623 -0.4185
  807ACTN    H6 8523   5.051   0.186   6.271  1.1091  0.1616  0.3427
  807ACTN    C3 8524   5.058   0.121   6.183 -0.9512 -0.3032  0.4939
  807ACTN    H4 8525   4.962   0.073   6.162 -1.4979  0.0073  2.1532
  807ACTN    H5 8526   5.085   0.184   6.099  0.6786 -2.2711 -0.4900
  807ACTN    C2 8527   5.164   0.018   6.214 -0.6465 -0.0032  0.0908
  807ACTN    O1 8528   5.143  -0.103   6.189  0.1679  0.0573  0.3864
  807ACTN    C1 8529   5.306   0.049   6.264 -0.3992 -0.4801 -0.3994
  807ACTN    H1 8530   5.318   0.036   6.372  1.0627 -0.6709 -0.5677
  807ACTN    H2 8531   5.329   0.149   6.228  1.3679 -1.2378 -1.4349
  807ACTN    H3 8532   5.374  -0.015   6.207 -0.3489  0.0140 -0.8865
  808ACTN    H6 8533   1.425   2.390   2.481 -1.7277 -3.0611 -0.0859
  808ACTN    C3 8534   1.445   2.393   2.374  0.4376  0.5778  0.3064
  808ACTN    H4 8535   1.370   2.341   2.315  0.4977  1.3471 -0.4610
  808ACTN    H5 8536   1.442   2.497   2.341 -0.0102 -0.2955 -2.5382
  808ACTN    C2 8537   1.576   2.319   2.350  0.4988  0.6340  0.6691
  808ACTN    O1 8538   1.675   2.377   2.320  0.0272  0.1744 -0.2082
  808ACTN    C1 8539   1.572   2.169   2.345 -0.2646  0.2595 -0.7964
  808ACTN    H1 8540   1.671   2.129   2.322 -0.0491  0.2800  0.0618
  808ACTN    H2 8541   1.501   2.136   2.270  1.4641 -3.1029 -1.0723
  808ACTN    H3 8542   1.545   2.144   2.448  0.4672 -1.9696 -1.1180
  809ACTN    H6 8543   4.346   8.357   0.545 -0.0857  1.0737  0.9691
  809ACTN    C3 8544   4.288   8.421   0.479  0.1612  0.5054  0.1974
  809ACTN    H4 8545   4.290   8.523   0.517  0.6054  0.8368 -0.6894
  809ACTN    H5 8546   4.332   8.431   0.379  3.3892 -1.1441  1.4102
  809ACTN    C2 8547   4.148   8.368   0.452 -0.7491 -0.3123  0.0499
  809ACTN    O1 8548   4.052   8.445   0.433 -0.8214  0.4639 -0.0170
  809ACTN    C1 8549   4.128   8.222   0.438  0.3099 -0.5335  0.5009
  809ACTN    H1 8550   4.223   8.170   0.426  0.3650 -0.4109  0.4146
  809ACTN    H2 8551   4.069   8.207   0.347  1.6043  0.8085 -0.5719
  809ACTN    H3 8552   4.072   8.192   0.527 -0.4467  0.3526  0.3305
  810ACTN    H6 8553   5.535   0.527   7.332  0.3752 -1.1266 -0.9482
  810ACTN    C3 8554   5.636   0.500   7.359  0.5240  0.3728  0.0384
  810ACTN    H4 8555   5.699   0.507   7.270  0.7073 -0.1282  0.1239
  810ACTN    H5 8556   5.688   0.564   7.431 -2.1981  0.7704  1.7410
  810ACTN    C2 8557   5.640   0.359   7.402 -0.1161  0.3289  0.6931
  810ACTN    O1 8558   5.633   0.274   7.318 -0.4465 -0.0315 -0.3567
  810ACTN    C1 8559   5.674   0.323   7.542 -0.9504  0.2046 -0.0054
  810ACTN    H1 8560   5.688   0.216   7.560 -0.4845  0.2095 -0.3290
  810ACTN    H2 8561   5.589   0.357   7.600 -0.8082  0.2873  0.1539
  810ACTN    H3 8562   5.758   0.378   7.585 -0.4848 -2.2679  2.3780
  811ACTN    H6 8563   6.461   7.690   4.659  0.7423  1.5387  2.9806
  811ACTN    C3 8564   6.389   7.764   4.625  0.3053 -0.2517 -0.2016
  811ACTN    H4 8565   6.328   7.785   4.713  0.4188 -1.0726  0.0727
  811ACTN    H5 8566   6.445   7.857   4.614 -0.0224 -0.0002  0.1997
  811ACTN    C2 8567   6.316   7.726   4.503 -0.1201  0.0060  0.1394
  811ACTN    O1 8568   6.309   7.609   4.458  0.0206  0.3154 -0.0415
  811ACTN    C1 8569   6.236   7.832   4.438  0.3475  0.0481 -0.0226
  811ACTN    H1 8570   6.226   7.917   4.506 -1.0059  0.0338 -0.1924
  811ACTN    H2 8571   6.139   7.791   4.408  0.2229  3.3532 -4.6566
  811ACTN    H3 8572   6.278   7.874   4.347 -0.6169  0.1604 -0.4276
  812ACTN    H6 8573   6.447   3.473   0.003  0.4490 -1.1043  1.5041
  812ACTN    C3 8574   6.402   3.385  -0.041  0.0825 -0.4084  0.4745
  812ACTN    H4 8575   6.477   3.327  -0.094  0.2127 -1.4558  1.7658
  812ACTN    H5 8576   6.371   3.313   0.036 -1.1675 -1.1995 -0.7324
  812ACTN    C2 8577   6.286   3.423  -0.129  0.4169  0.6812  0.4873
  812ACTN    O1 8578   6.293   3.500  -0.220  0.2437 -0.6692  0.1013
  812ACTN    C1 8579   6.153   3.355  -0.105  0.1641  0.4594 -0.1187
  812ACTN    H1 8580   6.075   3.390  -0.173 -0.3534  1.1228  0.8073
  812ACTN    H2 8581   6.124   3.370  -0.001 -0.6195  1.5095 -0.4709
  812ACTN    H3 8582   6.173   3.250  -0.125 -1.8629  0.2117 -0.9317
  813ACTN    H6 8583   2.911   4.934   4.213  1.5531  0.3981 -0.0346
  813ACTN    C3 8584   2.892   5.002   4.129  0.0586 -0.2573 -0.2590
  813ACTN    H4 8585   2.796   4.980   4.083  0.6614  0.7883 -2.0504
  813ACTN    H5 8586   2.903   5.104   4.166  3.4388 -2.0444  4.1426
  813ACTN    C2 8587   2.985   4.991   4.013 -0.7846 -0.6913  0.2734
  813ACTN    O1 8588   3.091   4.919   4.019  0.1256 -0.5153 -0.3990
  813ACTN    C1 8589   2.929   5.059   3.890 -1.0610  0.0339  0.2939
  813ACTN    H1 8590   2.863   4.992   3.836  0.2265 -1.3403  0.3892
  813ACTN    H2 8591   3.011   5.086   3.824 -1.5762  0.3064 -0.2354
  813ACTN    H3 8592   2.877   5.151   3.915 -0.0826  0.5024  0.6195
  814ACTN    H6 8593   4.183   2.965   6.491  1.0285  0.6185 -0.2613
  814ACTN    C3 8594   4.189   3.062   6.541  0.0095  0.3463  0.4275
  814ACTN    H4 8595   4.101   3.121   6.517 -0.5684 -0.7463 -0.1577
  814ACTN    H5 8596   4.198   3.050   6.649  1.0863 -1.0883  0.1983
  814ACTN    C2 8597   4.303   3.145   6.508  0.4185 -0.2991  0.1184
  814ACTN    O1 8598   4.415   3.117   6.543  0.0678 -0.1773  0.0224
  814ACTN    C1 8599   4.281   3.245   6.398  0.7195 -0.2391  0.4414
  814ACTN    H1 8600   4.225   3.207   6.312 -1.8249  0.8036  1.5900
  814ACTN    H2 8601   4.381   3.274   6.365  0.2376 -0.5874 -1.3997
  814ACTN    H3 8602   4.232   3.332   6.441 -0.1299 -1.0279  1.0758
  815ACTN    H6 8603   8.662   1.025   3.269  0.6667  1.9969  1.3000
  815ACTN    C3 8604   8.718   0.941   3.310 -0.6147  0.0216 -0.8422
  815ACTN    H4 8605   8.668   0.908   3.401  0.1198 -1.9351 -1.1271
  815ACTN    H5 8606   8.722   0.862   3.235  1.1045  0.1873 -0.9457
  815ACTN    C2 8607   8.864   0.983   3.337  1.1653  0.4767 -0.1430
  815ACTN    O1 8608   8.936   0.894   3.374 -0.6029  0.3799 -0.7461
  815ACTN    C1 8609   8.927   1.116   3.289 -0.6400 -0.1760 -0.8765
  815ACTN    H1 8610   9.003   1.097   3.213 -1.2933  0.8363 -1.7963
  815ACTN    H2 8611   8.976   1.172   3.369  0.1332 -1.6818 -0.2799
  815ACTN    H3 8612   8.867   1.191   3.238 -0.9563 -0.2179 -0.5593
  816ACTN    H6 8613   1.463   8.148   3.644  1.2350  0.7053  0.9120
  816ACTN    C3 8614   1.531   8.063   3.653  0.1103 -0.3315 -0.2576
  816ACTN    H4 8615   1.611   8.098   3.718  0.3610 -0.8241 -0.2980
  816ACTN    H5 8616   1.481   7.974   3.692 -0.2085 -0.4382 -0.8991
  816ACTN    C2 8617   1.600   8.028   3.527 -0.8603 -0.0458  0.2106
  816ACTN    O1 8618   1.695   7.953   3.531  0.3359 -0.3381  0.4720
  816ACTN    C1 8619   1.579   8.118   3.417 -0.1588  0.0437 -0.2592
  816ACTN    H1 8620   1.514   8.204   3.438 -1.3591 -0.0918 -3.1743
  816ACTN    H2 8621   1.538   8.059   3.335  1.3121 -0.5491 -0.5826
  816ACTN    H3 8622   1.678   8.153   3.389  1.6903 -0.4760  5.1476
  817ACTN    H6 8623   1.516   0.226   8.449 -0.8100 -2.5994  4.6897
  817ACTN    C3 8624   1.595   0.162   8.410 -0.8468  0.1074 -0.3395
  817ACTN    H4 8625   1.672   0.172   8.487 -0.6565  2.0638 -0.7639
  817ACTN    H5 8626   1.571   0.056   8.408  0.1737 -0.1248 -0.5780
  817ACTN    C2 8627   1.643   0.217   8.281 -0.5008  0.2760 -0.0793
  817ACTN    O1 8628   1.756   0.268   8.265 -0.6215 -0.6973  0.4184
  817ACTN    C1 8629   1.561   0.201   8.160  0.3683 -0.3950 -0.6223
  817ACTN    H1 8630   1.620   0.136   8.094 -1.4344 -3.2781  0.5194
  817ACTN    H2 8631   1.551   0.303   8.123  1.0466 -0.5530 -1.2549
  817ACTN    H3 8632   1.462   0.158   8.171 -0.0263  0.8791  0.9613
  818ACTN    H6 8633   8.603   2.316   3.231 -0.2706  1.5128 -0.2477
  818ACTN    C3 8634   8.623   2.235   3.161  0.0189  0.4351  1.0509
  818ACTN    H4 8635   8.587   2.143   3.205  1.1162  1.2024  3.6442
  818ACTN    H5 8636   8.731   2.223   3.157 -0.1267 -1.4978  2.4160
  818ACTN    C2 8637   8.565   2.269   3.024  0.1498 -0.0594  0.0117
  818ACTN    O1 8638   8.446   2.261   3.007 -0.0920 -0.9455 -0.3824
  818ACTN    C1 8639   8.668   2.312   2.926  0.1088  0.5720  0.5691
  818ACTN    H1 8640   8.730   2.397   2.955  1.4654 -0.7132  1.4931
  818ACTN    H2 8641   8.603   2.347   2.846  1.8967 -0.5582 -1.4441
  818ACTN    H3 8642   8.727   2.230   2.884 -0.5527  0.0618  0.6118
  819ACTN    H6 8643   8.782   1.133   8.042  0.1751 -0.1918 -0.0102
  819ACTN    C3 8644   8.746   1.095   8.138 -0.2270  0.0220 -0.0771
  819ACTN    H4 8645   8.638   1.092   8.130 -0.1359 -1.2876 -0.8411
  819ACTN    H5 8646   8.776   0.991   8.150 -1.4397 -0.4125 -0.7803
  819ACTN    C2 8647   8.786   1.198   8.237 -0.1450  0.5363  0.0372
  819ACTN    O1 8648   8.741   1.311   8.214 -0.3290  0.1791  0.4664
  819ACTN    C1 8649   8.862   1.168   8.362 -0.5556  0.8863  0.2083
  819ACTN    H1 8650   8.909   1.070   8.354  0.9302  1.7339 -1.6888
  819ACTN    H2 8651   8.790   1.157   8.444 -0.8969 -0.7514 -0.2921
  819ACTN    H3 8652   8.924   1.250   8.397 -0.7439  0.8124  0.7343
  820ACTN    H6 8653   5.901   8.045   5.058  0.7047  1.8691 -1.5172
  820ACTN    C3 8654   5.999   8.070   5.098  0.6969  0.2420 -0.4555
  820ACTN    H4 8655   6.075   8.014   5.043 -0.4681 -1.5839 -0.2554
  820ACTN    H5 8656   6.003   8.178   5.085 -0.8608  0.5981  1.6408
  820ACTN    C2 8657   6.001   8.038   5.243  0.3819  0.2861  0.0151
  820ACTN    O1 8658   6.028   8.128   5.324 -0.5262 -0.2043 -0.0947
  820ACTN    C1 8659   5.944   7.917   5.296  0.2665  0.2512 -0.9438
  820ACTN    H1 8660   5.854   7.944   5.351  1.8855  2.8023  0.5513
  820ACTN    H2 8661   6.018   7.874   5.364 -1.4099 -0.6636  0.3350
  820ACTN    H3 8662   5.915   7.846   5.219 -0.1070  2.1098 -2.5470
  821ACTN    H6 8663   4.833   2.976   4.654 -0.1541  2.0167 -1.8387
  821ACTN    C3 8664   4.938   2.985   4.626  0.3349  0.3530 -0.5797
  821ACTN    H4 8665   4.974   3.088   4.631  1.6864 -0.1570  0.8401
  821ACTN    H5 8666   5.005   2.936   4.697  2.1065  2.5251 -0.6873
  821ACTN    C2 8667   4.961   2.926   4.493 -1.1663 -0.4376  0.4189
  821ACTN    O1 8668   4.871   2.869   4.431  0.9413  0.0265 -0.3401
  821ACTN    C1 8669   5.093   2.956   4.426 -0.5738  0.5501 -0.3645
  821ACTN    H1 8670   5.175   2.987   4.490 -0.0560 -0.2121 -0.6591
  821ACTN    H2 8671   5.069   3.034   4.353 -0.2872 -0.2858 -1.3646
  821ACTN    H3 8672   5.122   2.870   4.366  1.8137  0.6047  0.6849
  822ACTN    H6 8673   6.041   0.266   2.549  1.2694 -0.7956  0.2391
  822ACTN    C3 8674   6.038   0.268   2.658 -0.0078 -0.0066  0.2015
  822ACTN    H4 8675   6.122   0.213   2.701  1.6370 -0.4329 -3.4100
  822ACTN    H5 8676   6.047   0.372   2.687 -0.7799  0.9206 -2.7119
  822ACTN    C2 8677   5.908   0.221   2.705  0.1786  0.0921  0.5223
  822ACTN    O1 8678   5.892   0.149   2.796  0.1355  0.6428 -0.5075
  822ACTN    C1 8679   5.797   0.251   2.605  0.2904  0.9767 -0.3754
  822ACTN    H1 8680   5.748   0.158   2.578  1.0769  0.1867  0.8677
  822ACTN    H2 8681   5.832   0.310   2.520 -1.1235  2.6390  0.1520
  822ACTN    H3 8682   5.720   0.312   2.653 -0.6814  2.0170 -3.1745
  823ACTN    H6 8683   5.834   3.814   3.617  0.3559  0.4528 -0.6357
  823ACTN    C3 8684   5.903   3.734   3.643 -0.1854  0.1109 -0.2180
  823ACTN    H4 8685   5.862   3.644   3.597  1.1923 -0.9936  0.6854
  823ACTN    H5 8686   5.995   3.756   3.589 -0.3478 -0.0116 -0.5478
  823ACTN    C2 8687   5.910   3.704   3.793  0.0915  0.1661 -0.5823
  823ACTN    O1 8688   5.802   3.674   3.853  0.0939 -0.0747  0.0791
  823ACTN    C1 8689   6.041   3.692   3.849  0.1350  0.2494 -0.1554
  823ACTN    H1 8690   6.103   3.620   3.795 -0.2362  0.1025 -0.3809
  823ACTN    H2 8691   6.032   3.651   3.950 -2.1230  2.6332  0.6379
  823ACTN    H3 8692   6.096   3.786   3.854  1.5097 -0.6067  1.7717
  824ACTN    H6 8693   6.362   1.958   1.482 -0.8121  0.4600  0.9445
  824ACTN    C3 8694   6.326   1.858   1.509 -0.2796  0.1955  0.6823
  824ACTN    H4 8695   6.218   1.853   1.496 -0.1523  1.5596 -1.1872
  824ACTN    H5 8696   6.382   1.781   1.455 -1.5345 -0.6809  0.6165
  824ACTN    C2 8697   6.358   1.834   1.648 -0.4874 -0.6484 -0.5755
  824ACTN    O1 8698   6.476   1.842   1.686 -0.3575  0.0515  0.2863
  824ACTN    C1 8699   6.250   1.770   1.740 -0.5922 -0.5419 -0.0725
  824ACTN    H1 8700   6.158   1.748   1.687  0.1051 -0.7907 -1.1916
  824ACTN    H2 8701   6.228   1.840   1.820 -0.6532  0.8536 -1.2939
  824ACTN    H3 8702   6.290   1.676   1.779  0.0783 -0.5734 -0.8330
  825ACTN    H6 8703   1.862   1.619   2.110 -1.2250 -0.1102  0.2221
  825ACTN    C3 8704   1.929   1.700   2.141 -0.9652 -0.4105  0.4454
  825ACTN    H4 8705   1.981   1.741   2.055  1.6056 -3.5004  0.4304
  825ACTN    H5 8706   1.876   1.784   2.186  1.7803  0.9593  1.2059
  825ACTN    C2 8707   2.034   1.661   2.237 -0.4483  1.0011 -0.6008
  825ACTN    O1 8708   2.030   1.703   2.352 -0.2060  0.3178  0.3851
  825ACTN    C1 8709   2.136   1.555   2.196 -0.9158  0.2358  0.2211
  825ACTN    H1 8710   2.181   1.580   2.100 -0.5779 -0.4096  0.2147
  825ACTN    H2 8711   2.093   1.456   2.183  4.6250 -2.0226 -2.2059
  825ACTN    H3 8712   2.217   1.547   2.268  1.0402  3.2458 -1.5382
  826ACTN    H6 8713   5.650   7.581   4.762  0.7472  0.3656  2.8516
  826ACTN    C3 8714   5.748   7.569   4.717 -0.5717 -0.1552 -0.0218
  826ACTN    H4 8715   5.812   7.544   4.802  1.2017 -1.1283 -1.6011
  826ACTN    H5 8716   5.757   7.482   4.653  2.4016  0.1869 -0.1702
  826ACTN    C2 8717   5.809   7.681   4.641 -1.0858 -0.4777 -0.8777
  826ACTN    O1 8718   5.928   7.677   4.613 -0.0284  0.4011  0.3958
  826ACTN    C1 8719   5.725   7.791   4.583 -0.6374 -0.3236 -0.0063
  826ACTN    H1 8720   5.655   7.742   4.516 -1.4374  1.8932 -0.8321
  826ACTN    H2 8721   5.777   7.875   4.538  0.3152 -0.1584  1.3665
  826ACTN    H3 8722   5.674   7.835   4.669  1.3277  0.4238  0.8019
  827ACTN    H6 8723   3.497   7.222   1.212 -1.4175 -1.7788 -0.6713
  827ACTN    C3 8724   3.394   7.258   1.207 -0.9067 -0.3112 -0.5407
  827ACTN    H4 8725   3.360   7.294   1.304 -1.4093 -1.1261 -0.4102
  827ACTN    H5 8726   3.412   7.346   1.144 -0.8969 -0.3113 -0.5368
  827ACTN    C2 8727   3.296   7.181   1.133  0.3640  0.6062 -0.4321
  827ACTN    O1 8728   3.258   7.222   1.025  0.7407 -0.6716 -0.0703
  827ACTN    C1 8729   3.216   7.075   1.198 -0.6048 -0.6314 -0.0191
  827ACTN    H1 8730   3.153   7.014   1.133  0.1414 -0.9335 -0.4673
  827ACTN    H2 8731   3.148   7.129   1.264  2.4006 -0.4645  3.1120
  827ACTN    H3 8732   3.281   7.018   1.265 -1.2272 -0.1274  1.0352
  828ACTN    H6 8733   0.111   3.117   0.805  1.0434  0.5109 -0.1545
  828ACTN    C3 8734   0.075   3.207   0.854  0.7023  0.4044 -0.2083
  828ACTN    H4 8735   0.150   3.282   0.832  0.9637 -0.0189 -0.7581
  828ACTN    H5 8736  -0.018   3.235   0.805  0.1514 -2.3872 -0.8614
  828ACTN    C2 8737   0.072   3.182   1.003  0.3073  0.3324 -0.4904
  828ACTN    O1 8738  -0.044   3.175   1.051  0.1997 -0.0320  0.1167
  828ACTN    C1 8739   0.192   3.185   1.083 -0.3355  0.2815  0.2600
  828ACTN    H1 8740   0.280   3.139   1.038  0.1992  1.8515 -0.3509
  828ACTN    H2 8741   0.184   3.148   1.185 -1.7612  0.0693  0.0737
  828ACTN    H3 8742   0.221   3.290   1.097 -1.1102  0.3939  1.0991
  829ACTN    H6 8743   6.181   1.589   6.168  0.3710  1.3690  0.0082
  829ACTN    C3 8744   6.284   1.556   6.166 -0.0249  0.1342 -0.1458
  829ACTN    H4 8745   6.286   1.452   6.133 -0.2085 -0.5357  1.8673
  829ACTN    H5 8746   6.339   1.621   6.098  1.2634 -0.3564  0.4061
  829ACTN    C2 8747   6.362   1.566   6.299 -0.2534  0.1008 -0.0761
  829ACTN    O1 8748   6.477   1.533   6.326  0.1014 -0.6681  0.5946
  829ACTN    C1 8749   6.277   1.612   6.417 -0.1956  0.0716  0.0112
  829ACTN    H1 8750   6.346   1.644   6.495  0.7126  0.5559 -0.9834
  829ACTN    H2 8751   6.216   1.531   6.456  2.4941 -1.4272  1.2254
  829ACTN    H3 8752   6.218   1.699   6.388 -1.5008 -1.1186 -0.9817
  830ACTN    H6 8753   4.804   8.802   4.543 -0.6696 -3.0297  0.8420
  830ACTN    C3 8754   4.779   8.773   4.440  0.2060 -0.5536 -0.1049
  830ACTN    H4 8755   4.674   8.801   4.430  0.3698 -0.3524 -1.2628
  830ACTN    H5 8756   4.837   8.834   4.371 -0.8127 -2.1556 -2.4033
  830ACTN    C2 8757   4.792   8.624   4.426 -0.5710  0.0993 -0.1665
  830ACTN    O1 8758   4.907   8.576   4.425  0.1511 -0.2828  0.5438
  830ACTN    C1 8759   4.678   8.528   4.425  0.5988 -0.6763 -0.8019
  830ACTN    H1 8760   4.614   8.525   4.513  0.0925  0.2104 -1.1347
  830ACTN    H2 8761   4.717   8.427   4.413  1.3331 -0.3547 -1.1118
  830ACTN    H3 8762   4.616   8.543   4.336 -2.0859 -1.5565  0.8655
  831ACTN    H6 8763   0.787   1.261   5.287 -0.2204 -0.9804 -0.8330
  831ACTN    C3 8764   0.828   1.184   5.353 -0.8366 -0.0633  0.6525
  831ACTN    H4 8765   0.835   1.226   5.453  0.4253  1.7774 -0.1793
  831ACTN    H5 8766   0.758   1.101   5.346  0.9214 -1.5660  0.6651
  831ACTN    C2 8767   0.955   1.136   5.297  0.1422  0.5313 -0.1510
  831ACTN    O1 8768   1.048   1.102   5.371  0.0373 -0.7930  0.4226
  831ACTN    C1 8769   0.958   1.074   5.156  0.0347  0.4519  0.7057
  831ACTN    H1 8770   0.938   0.967   5.156  0.3187  0.3975  0.4693
  831ACTN    H2 8771   1.056   1.088   5.111 -0.1409  1.8783  0.7330
  831ACTN    H3 8772   0.881   1.120   5.093 -1.8042 -0.1959  2.4217
  832ACTN    H6 8773   5.731   0.783   6.418 -2.0854 -2.6702  0.0106
  832ACTN    C3 8774   5.794   0.715   6.475  0.8938 -0.4816 -0.4920
  832ACTN    H4 8775   5.850   0.760   6.556 -1.5293  4.0134 -1.1522
  832ACTN    H5 8776   5.726   0.652   6.533 -1.5346 -0.5806 -3.3075
  832ACTN    C2 8777   5.879   0.628   6.390 -0.3894 -0.1412 -0.1055
  832ACTN    O1 8778   5.896   0.658   6.272  0.3032  0.2455  0.1428
  832ACTN    C1 8779   5.913   0.495   6.436  0.2451 -0.5081  0.5623
  832ACTN    H1 8780   5.827   0.434   6.464  2.3385 -3.3138  1.1027
  832ACTN    H2 8781   5.979   0.494   6.523  0.9505  2.2131  0.1087
  832ACTN    H3 8782   5.960   0.435   6.358 -1.8092  0.2649 -1.3317
  833ACTN    H6 8783   6.727   8.022   2.260  0.2399 -2.4943  0.2169
  833ACTN    C3 8784   6.832   8.049   2.247 -0.5620  0.1609 -1.1378
  833ACTN    H4 8785   6.882   7.955   2.269  0.7185  0.9440 -0.6908
  833ACTN    H5 8786   6.850   8.071   2.142 -0.0739 -0.9094 -1.2822
  833ACTN    C2 8787   6.879   8.169   2.333 -0.1770 -0.1785  1.0382
  833ACTN    O1 8788   6.939   8.263   2.276  0.0478  0.4462  1.2245
  833ACTN    C1 8789   6.852   8.180   2.477 -0.0306 -0.5023 -0.3656
  833ACTN    H1 8790   6.934   8.155   2.544 -2.1682 -0.4761  2.3187
  833ACTN    H2 8791   6.769   8.112   2.497 -1.3600  0.5442 -2.0992
  833ACTN    H3 8792   6.809   8.275   2.509  1.9083  0.0128  0.7914
  834ACTN    H6 8793   5.257   5.100   1.552 -0.6589  2.3256 -2.9596
  834ACTN    C3 8794   5.319   5.182   1.589  0.5328  0.1074  0.1913
  834ACTN    H4 8795   5.344   5.243   1.502 -0.7859 -1.5666 -1.4025
  834ACTN    H5 8796   5.262   5.247   1.656  1.7761  1.5758 -0.1449
  834ACTN    C2 8797   5.439   5.136   1.656  0.0090  0.3618  0.4188
  834ACTN    O1 8798   5.461   5.184   1.767  0.2062  0.0650  0.2660
  834ACTN    C1 8799   5.532   5.031   1.596 -0.2085 -0.5858 -0.2419
  834ACTN    H1 8800   5.561   5.056   1.495  0.6672 -0.9864 -0.0948
  834ACTN    H2 8801   5.491   4.930   1.594  0.7898 -1.0355  0.9185
  834ACTN    H3 8802   5.619   5.023   1.662 -0.0700  0.4887 -0.2997
  835ACTN    H6 8803   6.870   2.021   5.351 -3.4433 -0.5086 -0.6194
  835ACTN    C3 8804   6.897   1.950   5.429 -0.5301  0.2509 -0.8889
  835ACTN    H4 8805   6.900   1.846   5.395  0.0911  0.1798 -0.6249
  835ACTN    H5 8806   7.003   1.961   5.452 -0.9388 -0.1791  1.3198
  835ACTN    C2 8807   6.800   1.954   5.544 -0.0398  0.2243 -0.0457
  835ACTN    O1 8808   6.751   1.854   5.595  0.1270  0.3776 -0.4503
  835ACTN    C1 8809   6.796   2.084   5.618  0.1377 -0.0488 -0.1899
  835ACTN    H1 8810   6.890   2.091   5.672 -0.3331 -0.0960  0.6327
  835ACTN    H2 8811   6.711   2.090   5.686 -1.3765  1.7719 -2.1444
  835ACTN    H3 8812   6.789   2.162   5.541 -0.3639 -0.6477 -0.7604
  836ACTN    H6 8813   4.799   8.344   4.667 -0.2387 -2.3135  1.1305
  836ACTN    C3 8814   4.860   8.384   4.748 -0.3629 -0.1220  0.1784
  836ACTN    H4 8815   4.954   8.330   4.757  0.8210  1.7942 -0.4113
  836ACTN    H5 8816   4.886   8.487   4.724 -1.1350 -0.2184 -1.0855
  836ACTN    C2 8817   4.776   8.381   4.878 -0.9459  0.8131  0.5663
  836ACTN    O1 8818   4.667   8.338   4.879  0.1839 -0.2106 -0.2900
  836ACTN    C1 8819   4.842   8.439   4.998 -0.1220  0.4502 -0.0584
  836ACTN    H1 8820   4.809   8.398   5.093 -0.1523 -0.0733 -0.2974
  836ACTN    H2 8821   4.808   8.543   4.993  0.0823  0.4374 -1.9625
  836ACTN    H3 8822   4.951   8.441   4.997 -0.0336 -0.6288  2.9181
  837ACTN    H6 8823   1.859   8.196   5.661  0.2220 -0.5326  0.0737
  837ACTN    C3 8824   1.801   8.114   5.619 -0.0709  0.0355 -0.6506
  837ACTN    H4 8825   1.765   8.048   5.698 -1.3103 -1.9587 -2.8279
  837ACTN    H5 8826   1.711   8.145   5.566 -0.6648  0.1255  0.3904
  837ACTN    C2 8827   1.892   8.030   5.533 -0.1579  0.1066  0.2434
  837ACTN    O1 8828   1.944   8.073   5.435  0.4165  0.0944  0.1824
  837ACTN    C1 8829   1.918   7.887   5.567  0.5463 -0.6224  0.4307
  837ACTN    H1 8830   1.950   7.825   5.484 -2.2706 -1.0289 -0.4154
  837ACTN    H2 8831   1.828   7.845   5.613 -0.1845  0.4899  0.0393
  837ACTN    H3 8832   1.996   7.883   5.643 -0.8280  1.6997  2.0532
  838ACTN    H6 8833   3.190   4.146   4.573  0.2730 -0.0234 -0.2413
  838ACTN    C3 8834   3.122   4.219   4.617 -0.0746 -0.1768 -0.5201
  838ACTN    H4 8835   3.028   4.223   4.562 -0.5318  0.3107  0.2851
  838ACTN    H5 8836   3.100   4.200   4.722  3.6335 -0.3895  0.2948
  838ACTN    C2 8837   3.184   4.360   4.616  0.1321 -0.2325 -0.0360
  838ACTN    O1 8838   3.127   4.445   4.685 -0.3935  0.1474 -0.1385
  838ACTN    C1 8839   3.328   4.386   4.596  0.0788  0.0574 -0.8428
  838ACTN    H1 8840   3.356   4.489   4.573 -1.9132  0.7717 -0.2020
  838ACTN    H2 8841   3.380   4.325   4.522  5.3311  2.2786  0.8145
  838ACTN    H3 8842   3.380   4.362   4.688 -0.8422  1.5355  0.0880
  839ACTN    H6 8843   3.391   8.268   6.221 -0.7429  1.7985 -2.8646
  839ACTN    C3 8844   3.286   8.289   6.243 -0.5940 -0.3046  0.0346
  839ACTN    H4 8845   3.254   8.247   6.338  0.0809  1.1596  0.9173
  839ACTN    H5 8846   3.269   8.396   6.248 -2.3479 -0.6127  1.4653
  839ACTN    C2 8847   3.213   8.243   6.118 -0.4287  0.4702 -0.5010
  839ACTN    O1 8848   3.188   8.128   6.102  0.3582 -0.0458  0.2566
  839ACTN    C1 8849   3.161   8.340   6.027  0.0520  0.4367 -0.2095
  839ACTN    H1 8850   3.062   8.304   6.000  0.3231 -0.6785  0.2767
  839ACTN    H2 8851   3.221   8.347   5.936  2.4316  0.2993  1.3059
  839ACTN    H3 8852   3.143   8.440   6.067  0.5634 -0.4594  2.3400
  840ACTN    H6 8853   3.294   3.280   4.172  1.2006  1.2502 -1.9426
  840ACTN    C3 8854   3.400   3.291   4.195  0.7986  0.0559  0.7203
  840ACTN    H4 8855   3.411   3.369   4.271  2.5878  0.5162  0.0085
  840ACTN    H5 8856   3.450   3.198   4.221  0.9295  0.4720  1.9805
  840ACTN    C2 8857   3.460   3.349   4.068  0.3613 -0.4433 -0.0369
  840ACTN    O1 8858   3.577   3.328   4.039  0.3611  0.6533  0.7658
  840ACTN    C1 8859   3.372   3.414   3.962  0.5552 -0.2539  0.0547
  840ACTN    H1 8860   3.386   3.362   3.867 -1.6317  1.5385 -1.2586
  840ACTN    H2 8861   3.403   3.516   3.944 -1.9520 -0.1336 -4.0436
  840ACTN    H3 8862   3.268   3.399   3.989  0.3159 -2.0424 -1.7308
  841ACTN    H6 8863   2.967   3.167   1.167  1.4618 -0.1305 -0.4662
  841ACTN    C3 8864   2.949   3.070   1.121 -0.6562  0.2053 -0.3900
  841ACTN    H4 8865   2.849   3.071   1.078 -0.5585  0.6960 -0.6056
  841ACTN    H5 8866   3.022   3.078   1.040 -0.5257  1.1060 -0.1871
  841ACTN    C2 8867   2.976   2.961   1.228 -0.0091  0.7521 -0.9995
  841ACTN    O1 8868   3.087   2.930   1.260  0.0094 -0.2897 -0.4671
  841ACTN    C1 8869   2.855   2.918   1.309 -0.7320 -0.3767 -0.1271
  841ACTN    H1 8870   2.812   2.819   1.295 -3.4397  0.7169  0.0836
  841ACTN    H2 8871   2.771   2.982   1.281  0.7781  0.6956 -2.3165
  841ACTN    H3 8872   2.874   2.949   1.411 -0.1386 -1.2596  0.0332
  842ACTN    H6 8873   5.216   7.588   4.098  0.6644  2.0823  0.2583
  842ACTN    C3 8874   5.127   7.608   4.038  0.5344 -0.2642 -0.3728
  842ACTN    H4 8875   5.039   7.605   4.103 -0.1908 -2.9332 -1.4079
  842ACTN    H5 8876   5.130   7.710   4.000  0.2550 -0.1092  0.0197
  842ACTN    C2 8877   5.111   7.495   3.940  0.0233  0.4165  0.0387
  842ACTN    O1 8878   5.207   7.482   3.870 -0.1930 -0.3975 -0.0627
  842ACTN    C1 8879   4.980   7.445   3.891  0.4798 -0.0669 -0.5431
  842ACTN    H1 8880   4.900   7.480   3.955  0.8092 -0.1242 -0.1006
  842ACTN    H2 8881   4.971   7.337   3.892  0.6102 -0.0830 -0.9253
  842ACTN    H3 8882   4.952   7.477   3.790  1.7453  1.9293 -0.2877
  843ACTN    H6 8883   6.850   8.968   2.089  2.8582 -2.2932 -0.6341
  843ACTN    C3 8884   6.927   9.045   2.092  0.5176  0.0786  0.2733
  843ACTN    H4 8885   6.947   9.078   2.193 -1.7196  0.9337  0.4672
  843ACTN    H5 8886   7.017   9.001   2.048  0.3330  1.9552 -2.1145
  843ACTN    C2 8887   6.880   9.162   2.001 -0.2765  0.6926 -0.4354
  843ACTN    O1 8888   6.963   9.225   1.937 -0.1645 -1.0332  0.3312
  843ACTN    C1 8889   6.730   9.175   1.976 -0.2250 -0.4274 -0.4789
  843ACTN    H1 8890   6.676   9.109   2.044  2.1937  0.2588  2.1849
  843ACTN    H2 8891   6.705   9.152   1.872  0.4935 -2.0251 -0.3094
  843ACTN    H3 8892   6.700   9.277   1.999 -1.7669 -1.1992  1.0995
  844ACTN    H6 8893   6.555   0.442   5.585  2.1134 -0.9887 -1.2013
  844ACTN    C3 8894   6.545   0.379   5.674 -0.2294 -0.0420 -0.7552
  844ACTN    H4 8895   6.442   0.343   5.677 -1.4544  3.3529  1.6368
  844ACTN    H5 8896   6.621   0.303   5.657 -1.2022 -1.4369  0.9567
  844ACTN    C2 8897   6.579   0.454   5.791  0.3196 -0.0271 -0.2405
  844ACTN    O1 8898   6.605   0.391   5.896  0.0813  0.3388  0.0022
  844ACTN    C1 8899   6.620   0.599   5.780 -0.2053  0.1929 -0.3046
  844ACTN    H1 8900   6.612   0.622   5.673  1.1303 -1.8151 -0.8703
  844ACTN    H2 8901   6.726   0.600   5.805 -0.3730  0.6485  0.3831
  844ACTN    H3 8902   6.566   0.669   5.843  0.7879  0.3118  0.4092
  845ACTN    H6 8903   5.969   2.308   3.503 -0.4062  0.7666  0.7244
  845ACTN    C3 8904   5.887   2.239   3.484  0.4891 -0.0089 -0.3529
  845ACTN    H4 8905   5.904   2.201   3.383 -0.9901 -0.1033 -0.5870
  845ACTN    H5 8906   5.888   2.157   3.556  2.2404  0.3449  0.0452
  845ACTN    C2 8907   5.773   2.337   3.504 -0.1161 -0.3843 -0.0332
  845ACTN    O1 8908   5.677   2.341   3.430 -0.2589 -0.3639 -0.0544
  845ACTN    C1 8909   5.764   2.410   3.633 -0.3299 -0.4963  0.2660
  845ACTN    H1 8910   5.784   2.517   3.624 -3.1188  0.2381  2.3383
  845ACTN    H2 8911   5.842   2.360   3.691  1.7988  0.9362 -1.2731
  845ACTN    H3 8912   5.667   2.397   3.680 -0.4720  0.5621  0.2687
  846ACTN    H6 8913   6.364   7.184   7.916 -0.8715 -0.8020 -1.5495
  846ACTN    C3 8914   6.334   7.079   7.924 -0.3231 -0.8514  0.1009
  846ACTN    H4 8915   6.225   7.078   7.925 -0.3882  1.1931 -1.3336
  846ACTN    H5 8916   6.365   7.020   7.838  0.2220  0.9768 -0.9815
  846ACTN    C2 8917   6.387   7.011   8.044  0.3428 -0.1212 -0.6123
  846ACTN    O1 8918   6.313   6.955   8.122  0.4275 -0.2431  0.7488
  846ACTN    C1 8919   6.530   6.992   8.060 -0.2560  0.0299 -0.2561
  846ACTN    H1 8920   6.562   6.891   8.084  4.1555  1.1848 -0.8041
  846ACTN    H2 8921   6.578   7.060   8.131  0.4932 -3.1124  2.3512
  846ACTN    H3 8922   6.585   7.011   7.968  0.1070  3.1875  0.5546
  847ACTN    H6 8923   3.965   4.742   3.313  0.9778  0.4901 -1.3214
  847ACTN    C3 8924   4.023   4.670   3.371 -0.1539  0.2792 -0.4326
  847ACTN    H4 8925   4.120   4.720   3.376 -0.9212  1.7990 -0.4928
  847ACTN    H5 8926   3.981   4.674   3.471  0.4143  2.4684 -0.2447
  847ACTN    C2 8927   4.040   4.532   3.307  0.6907 -0.1733  0.4119
  847ACTN    O1 8928   4.087   4.440   3.375  0.9059  0.1206 -0.1117
  847ACTN    C1 8929   3.990   4.504   3.170 -0.0142  0.6496 -0.4412
  847ACTN    H1 8930   4.073   4.453   3.120 -1.9447 -2.3863 -0.6563
  847ACTN    H2 8931   3.979   4.597   3.113 -2.5919  0.2452 -0.6532
  847ACTN    H3 8932   3.903   4.439   3.167  0.7862 -0.4171 -0.8503
  848ACTN    H6 8933   1.340   3.140   1.906  0.3336 -2.3740  1.7766
  848ACTN    C3 8934   1.339   3.082   1.814  0.3602 -0.2393  0.4134
  848ACTN    H4 8935   1.272   2.997   1.825 -1.3834  0.8294 -1.3893
  848ACTN    H5 8936   1.284   3.153   1.751 -1.1538 -1.9122 -0.1856
  848ACTN    C2 8937   1.474   3.052   1.762 -0.1831  0.1562 -0.3732
  848ACTN    O1 8938   1.505   2.938   1.728 -0.1917 -0.1073  0.2809
  848ACTN    C1 8939   1.560   3.166   1.713  0.3185  0.0287 -0.0430
  848ACTN    H1 8940   1.654   3.128   1.674 -0.4540 -0.5840 -1.3814
  848ACTN    H2 8941   1.583   3.233   1.795  1.7901 -1.3921  0.7188
  848ACTN    H3 8942   1.509   3.225   1.636  0.6735 -0.3051 -0.5428
  849ACTN    H6 8943   8.349   2.180   7.897 -0.0910 -0.6028  0.7695
  849ACTN    C3 8944   8.456   2.199   7.907 -0.2166  0.2581  0.4815
  849ACTN    H4 8945   8.480   2.306   7.912 -0.9407  0.5683 -1.7838
  849ACTN    H5 8946   8.481   2.160   8.005  2.4633  2.7091  0.8480
  849ACTN    C2 8947   8.539   2.124   7.803  0.0231  0.1631  0.2921
  849ACTN    O1 8948   8.657   2.127   7.801 -0.7183 -0.6680 -0.1659
  849ACTN    C1 8949   8.465   2.044   7.702 -0.3754 -0.0232  0.0153
  849ACTN    H1 8950   8.526   1.966   7.655 -0.7774 -1.9337  2.5550
  849ACTN    H2 8951   8.409   2.101   7.628 -0.0187 -0.0342 -0.2663
  849ACTN    H3 8952   8.398   1.985   7.764 -0.1413 -0.2512  0.0518
  850ACTN    H6 8953   1.806   3.344   1.018  1.7630 -2.1447 -2.1016
  850ACTN    C3 8954   1.717   3.281   1.028  0.0026  0.6066  0.3562
  850ACTN    H4 8955   1.745   3.177   1.046 -0.4935  0.3748 -0.2149
  850ACTN    H5 8956   1.670   3.285   0.930 -0.9993  0.3940  0.8274
  850ACTN    C2 8957   1.631   3.330   1.130  0.0860  0.2016 -0.6002
  850ACTN    O1 8958   1.634   3.294   1.245  0.0626 -0.0797  0.2701
  850ACTN    C1 8959   1.533   3.444   1.103  0.3704 -0.4136  0.3890
  850ACTN    H1 8960   1.568   3.509   1.023 -0.2390  0.7721  1.0713
  850ACTN    H2 8961   1.521   3.509   1.190  0.2604  0.9140 -0.6002
  850ACTN    H3 8962   1.433   3.409   1.083 -0.0228  0.9441 -0.1077
  851ACTN    H6 8963   8.376   1.983   1.261  2.9340  0.7572  1.1956
  851ACTN    C3 8964   8.317   1.945   1.344  0.3395  0.7442 -0.6105
  851ACTN    H4 8965   8.383   1.928   1.429 -1.0872 -0.2671  0.3145
  851ACTN    H5 8966   8.266   2.035   1.379  0.4996  0.1597  1.1334
  851ACTN    C2 8967   8.228   1.826   1.317  0.1720  0.5118 -0.0408
  851ACTN    O1 8968   8.277   1.719   1.338  0.1392  0.7833 -0.0577
  851ACTN    C1 8969   8.077   1.844   1.308 -0.2564 -0.6319 -0.0159
  851ACTN    H1 8970   8.036   1.939   1.342 -0.1162 -0.7293  0.4316
  851ACTN    H2 8971   8.028   1.775   1.376  1.7767 -0.7388  1.3925
  851ACTN    H3 8972   8.033   1.833   1.209 -4.0890  1.8105  1.3159
  852ACTN    H6 8973   3.221   0.902   8.162  0.2730 -0.5074 -0.7791
  852ACTN    C3 8974   3.164   0.878   8.252 -0.2896  1.1469 -0.6567
  852ACTN    H4 8975   3.211   0.792   8.301 -0.4191  0.3091 -1.9880
  852ACTN    H5 8976   3.171   0.961   8.322 -0.7841  0.1372  0.6276
  852ACTN    C2 8977   3.028   0.851   8.228 -0.4223  0.4200 -0.3974
  852ACTN    O1 8978   2.966   0.772   8.300 -0.0591  0.4073  0.1646
  852ACTN    C1 8979   2.963   0.890   8.098  0.3856  0.1298 -0.6352
  852ACTN    H1 8980   3.027   0.949   8.033  1.2309  1.8545  1.7110
  852ACTN    H2 8981   2.876   0.949   8.127  0.4129 -0.2486  0.2340
  852ACTN    H3 8982   2.935   0.803   8.038 -0.5042  0.1087 -0.1970
  853ACTN    H6 8983   5.854   5.782   1.277  0.6113  2.4786  1.0003
  853ACTN    C3 8984   5.833   5.752   1.379 -0.1368  0.4962  0.2870
  853ACTN    H4 8985   5.774   5.660   1.370 -0.8100  1.1517 -2.1710
  853ACTN    H5 8986   5.923   5.717   1.430  0.6374  2.6454  0.4433
  853ACTN    C2 8987   5.762   5.852   1.467 -0.1784  0.3229 -0.2664
  853ACTN    O1 8988   5.813   5.895   1.573  0.1170  0.6407  0.7434
  853ACTN    C1 8989   5.621   5.885   1.435 -0.2580  0.6058 -0.3232
  853ACTN    H1 8990   5.604   5.992   1.450  1.3631  0.9437 -0.7992
  853ACTN    H2 8991   5.550   5.834   1.500 -0.3611  1.5813  0.3569
  853ACTN    H3 8992   5.597   5.854   1.334 -1.6533 -0.5589  0.3524
  854ACTN    H6 8993   0.713   6.884   3.524 -2.2717  1.8460  0.5768
  854ACTN    C3 8994   0.641   6.804   3.541 -0.3963  0.0110  0.1195
  854ACTN    H4 8995   0.543   6.848   3.560 -0.3647 -0.7200  2.0543
  854ACTN    H5 8996   0.642   6.756   3.443 -0.8618  0.8891 -0.3215
  854ACTN    C2 8997   0.698   6.709   3.638 -0.0409 -0.5963  0.2105
  854ACTN    O1 8998   0.797   6.639   3.615 -0.1569 -0.5441 -0.9306
  854ACTN    C1 8999   0.620   6.698   3.768 -0.3520 -0.0204  0.3020
  854ACTN    H1 9000   0.518   6.672   3.738  0.3555  0.8595 -3.1319
  854ACTN    H2 9001   0.616   6.793   3.821 -2.2948 -0.3385  0.7579
  854ACTN    H3 9002   0.664   6.622   3.832  2.5915  1.4228  0.0688
  855ACTN    H6 9003   6.167   0.564   3.886 -0.9308 -0.7689 -1.0398
  855ACTN    C3 9004   6.129   0.665   3.869 -0.0202 -0.3168 -0.4103
  855ACTN    H4 9005   6.128   0.708   3.969 -4.1542 -0.4376 -0.2971
  855ACTN    H5 9006   6.198   0.726   3.810  0.9768  0.8387  1.8866
  855ACTN    C2 9007   5.996   0.655   3.812  0.1226  0.0968 -0.1007
  855ACTN    O1 9008   5.923   0.559   3.827  0.0182 -0.3104 -0.4349
  855ACTN    C1 9009   5.945   0.791   3.767  0.5560 -0.7493  0.6221
  855ACTN    H1 9010   5.942   0.855   3.855  0.3740  0.1369 -0.0240
  855ACTN    H2 9011   5.840   0.773   3.741  0.0552  0.5344  1.7280
  855ACTN    H3 9012   5.996   0.839   3.684 -0.6605  0.4719  0.5616
  856ACTN    H6 9013   2.670   6.313   0.419  1.1223 -1.1477 -0.5420
  856ACTN    C3 9014   2.608   6.225   0.406 -0.0290 -0.4471  0.1444
  856ACTN    H4 9015   2.577   6.188   0.504  0.3063  1.4217  0.9739
  856ACTN    H5 9016   2.513   6.256   0.363 -0.3235 -1.9632 -0.3556
  856ACTN    C2 9017   2.675   6.117   0.328 -0.4927 -0.2589 -0.3413
  856ACTN    O1 9018   2.685   6.115   0.204  0.4478 -0.1848  0.1445
  856ACTN    C1 9019   2.749   6.006   0.396 -0.5452 -0.1370  0.2103
  856ACTN    H1 9020   2.773   6.014   0.502  2.2793 -0.8244 -0.3252
  856ACTN    H2 9021   2.851   6.005   0.358 -0.4680 -2.4375  0.4253
  856ACTN    H3 9022   2.700   5.910   0.382 -0.5042  0.1274 -2.0305
  857ACTN    H6 9023   4.003   4.307   1.248  1.8468  0.4323 -2.6456
  857ACTN    C3 9024   3.943   4.238   1.189 -0.2681  0.1149 -0.2030
  857ACTN    H4 9025   4.004   4.196   1.109  1.5787  1.7114  0.3181
  857ACTN    H5 9026   3.912   4.154   1.251 -2.4839  0.0339 -1.3835
  857ACTN    C2 9027   3.823   4.295   1.119 -0.0649  0.0223  0.1875
  857ACTN    O1 9028   3.813   4.414   1.096 -0.1812 -0.3638 -0.1430
  857ACTN    C1 9029   3.711   4.199   1.094  0.3190 -0.2849  0.0595
  857ACTN    H1 9030   3.722   4.101   1.139  0.0619 -0.8438 -1.0636
  857ACTN    H2 9031   3.681   4.193   0.989  0.7445 -4.1602  0.1181
  857ACTN    H3 9032   3.627   4.251   1.141  1.8646  2.7346 -0.4052
  858ACTN    H6 9033   1.722   5.678   4.055  0.2224 -1.2231 -1.1521
  858ACTN    C3 9034   1.655   5.611   4.109 -0.2579  0.1169 -0.0738
  858ACTN    H4 9035   1.565   5.663   4.142 -0.4829  0.4905 -1.2655
  858ACTN    H5 9036   1.616   5.531   4.046 -1.0091 -0.2883  0.8885
  858ACTN    C2 9037   1.735   5.534   4.215  0.2036  0.3116 -0.6028
  858ACTN    O1 9038   1.816   5.450   4.184  0.6167  0.4471 -0.0794
  858ACTN    C1 9039   1.735   5.599   4.348  0.5425  0.3388  0.1603
  858ACTN    H1 9040   1.777   5.523   4.414 -2.1710 -1.1797  0.1972
  858ACTN    H2 9041   1.630   5.612   4.374  0.0835 -3.7848  0.6758
  858ACTN    H3 9042   1.792   5.691   4.357  1.4562 -0.1749 -0.3722
  859ACTN    H6 9043   1.300   0.650   3.596 -0.2391  0.4578 -2.6901
  859ACTN    C3 9044   1.244   0.557   3.602  0.8652 -0.0957 -0.8666
  859ACTN    H4 9045   1.315   0.482   3.565  1.8197  0.7295 -0.7330
  859ACTN    H5 9046   1.232   0.543   3.710  1.6333  1.0141 -0.6318
  859ACTN    C2 9047   1.116   0.562   3.525 -0.1116 -0.5818  0.5599
  859ACTN    O1 9048   1.057   0.666   3.505  0.3470  0.0819 -0.7646
  859ACTN    C1 9049   1.071   0.430   3.476 -0.3177 -0.6529  0.0945
  859ACTN    H1 9050   0.969   0.443   3.440 -0.0175  1.7448  0.0117
  859ACTN    H2 9051   1.071   0.363   3.562  0.6118 -0.8821 -0.0693
  859ACTN    H3 9052   1.132   0.385   3.398 -0.2491 -2.8117  1.3247
  860ACTN    H6 9053   6.452   2.540   3.074  1.3429 -0.9750 -0.3924
  860ACTN    C3 9054   6.433   2.546   2.967  0.0376 -0.1561 -0.1256
  860ACTN    H4 9055   6.499   2.617   2.919 -0.3856 -0.7721 -1.6450
  860ACTN    H5 9056   6.456   2.451   2.919 -1.6086  0.7613 -2.8668
  860ACTN    C2 9057   6.285   2.589   2.944 -0.1555 -0.3460  0.4667
  860ACTN    O1 9058   6.270   2.684   2.867 -0.8291  0.2499 -0.5988
  860ACTN    C1 9059   6.173   2.502   2.998  0.0160 -0.5838  0.1440
  860ACTN    H1 9060   6.178   2.465   3.100  0.9654  0.8388  0.6237
  860ACTN    H2 9061   6.173   2.412   2.935  3.4238 -1.7195  1.6745
  860ACTN    H3 9062   6.077   2.552   2.989  0.2856 -0.1379 -0.2637
  861ACTN    H6 9063   8.001   0.312   1.339 -1.8248 -1.3162  0.9113
  861ACTN    C3 9064   8.036   0.298   1.441 -0.1102 -0.0674  0.5137
  861ACTN    H4 9065   7.966   0.347   1.509 -1.2527 -0.4376 -0.3747
  861ACTN    H5 9066   8.033   0.191   1.459  2.3284 -0.2598 -0.1027
  861ACTN    C2 9067   8.180   0.349   1.459  0.5860  0.1481  0.0825
  861ACTN    O1 9068   8.266   0.323   1.372 -0.1682 -0.7989 -0.3085
  861ACTN    C1 9069   8.213   0.355   1.605 -0.9248 -0.4536 -0.5191
  861ACTN    H1 9070   8.154   0.285   1.664 -1.4964  0.5929  0.1591
  861ACTN    H2 9071   8.184   0.457   1.628 -0.9921 -0.9377  1.6152
  861ACTN    H3 9072   8.321   0.347   1.622 -1.2411  0.4392  2.0634
  862ACTN    H6 9073   5.115   6.292   5.515 -1.8860 -1.2725 -1.7079
  862ACTN    C3 9074   5.130   6.208   5.582  0.0953 -0.1180 -0.6335
  862ACTN    H4 9075   5.056   6.129   5.568  1.2523 -1.4203  0.4279
  862ACTN    H5 9076   5.220   6.159   5.544 -0.2269 -0.2806 -1.2045
  862ACTN    C2 9077   5.134   6.249   5.728 -0.3402 -0.2398  0.0236
  862ACTN    O1 9078   5.191   6.353   5.768 -0.3421  0.2627  0.5068
  862ACTN    C1 9079   5.091   6.147   5.825 -0.4046 -0.1815 -0.9809
  862ACTN    H1 9080   5.050   6.053   5.787  2.8445 -2.0646 -0.0372
  862ACTN    H2 9081   5.023   6.186   5.901  0.4942 -0.5653  0.0373
  862ACTN    H3 9082   5.176   6.115   5.886 -2.1137 -2.7768  0.1423
  863ACTN    H6 9083   6.520   6.914   3.946 -1.2909  1.2745  1.3267
  863ACTN    C3 9084   6.529   6.984   3.863  0.0823 -0.0817  0.3114
  863ACTN    H4 9085   6.606   6.946   3.796 -0.5276 -2.3047  0.8278
  863ACTN    H5 9086   6.433   6.987   3.811 -1.1797 -2.2409  2.4195
  863ACTN    C2 9087   6.575   7.118   3.905 -0.7292 -0.7080 -0.1115
  863ACTN    O1 9088   6.673   7.121   3.978 -0.0208  0.0574  0.3024
  863ACTN    C1 9089   6.494   7.235   3.867  0.6156 -0.0798 -0.0427
  863ACTN    H1 9090   6.438   7.205   3.778 -0.3129 -2.1182  1.2047
  863ACTN    H2 9091   6.550   7.328   3.855  0.3738  0.2712  1.4182
  863ACTN    H3 9092   6.418   7.255   3.943  0.5863  2.5504 -0.7088
  864ACTN    H6 9093   0.556   6.416   3.816 -0.5574  0.4766  1.0638
  864ACTN    C3 9094   0.525   6.316   3.786  0.0310  0.6545 -0.1500
  864ACTN    H4 9095   0.579   6.250   3.854 -0.6067  0.9579  0.6574
  864ACTN    H5 9096   0.421   6.294   3.811  0.3990  1.1823  1.9429
  864ACTN    C2 9097   0.547   6.285   3.638 -0.2152 -0.1771 -0.7272
  864ACTN    O1 9098   0.556   6.167   3.607  0.4975  0.0391  0.4221
  864ACTN    C1 9099   0.525   6.401   3.550 -0.3688  0.0698  0.3016
  864ACTN    H1 9100   0.418   6.420   3.554 -0.4145 -0.2380  0.6038
  864ACTN    H2 9101   0.552   6.369   3.449 -0.0135  0.1394  0.3727
  864ACTN    H3 9102   0.584   6.489   3.574 -1.0496  0.7303 -0.4434
  865ACTN    H6 9103   7.292   2.572   7.518  1.0115 -1.6098 -0.4338
  865ACTN    C3 9104   7.213   2.521   7.462 -0.2724 -0.0153 -0.1169
  865ACTN    H4 9105   7.145   2.601   7.430 -1.1454 -0.3538  0.8637
  865ACTN    H5 9106   7.258   2.479   7.373 -0.3833 -1.6423  0.5838
  865ACTN    C2 9107   7.153   2.422   7.555  0.1152  0.4891 -0.1709
  865ACTN    O1 9108   7.154   2.301   7.524 -0.6572 -0.1153 -0.7907
  865ACTN    C1 9109   7.119   2.466   7.695 -0.3041 -0.1956 -0.0751
  865ACTN    H1 9110   7.068   2.562   7.698 -0.5571 -0.3658  1.2843
  865ACTN    H2 9111   7.206   2.466   7.761 -0.5783  2.1330  0.3381
  865ACTN    H3 9112   7.046   2.393   7.729  0.9568 -1.9008 -0.9764
  866ACTN    H6 9113   5.232   1.141   0.643 -0.3482  0.4154  0.0964
  866ACTN    C3 9114   5.303   1.103   0.717 -0.0317  0.4000 -0.2129
  866ACTN    H4 9115   5.402   1.127   0.680  0.0290 -2.0693 -1.7436
  866ACTN    H5 9116   5.273   1.147   0.812 -0.4845 -0.0894 -0.1237
  866ACTN    C2 9117   5.267   0.957   0.738  0.1040  0.1915  0.0336
  866ACTN    O1 9118   5.150   0.920   0.736  0.0077  0.2371  0.2932
  866ACTN    C1 9119   5.375   0.875   0.803 -0.4896 -0.0610  0.3934
  866ACTN    H1 9120   5.391   0.780   0.752 -0.8124  0.2632 -0.3053
  866ACTN    H2 9121   5.344   0.853   0.906 -0.7771  0.3336  0.3905
  866ACTN    H3 9122   5.468   0.930   0.799  1.5051 -3.3733 -1.1211
  867ACTN    H6 9123   7.821   2.444   3.928 -0.5903  1.3597  0.1240
  867ACTN    C3 9124   7.814   2.408   3.825  1.0288 -0.0413  0.4856
  867ACTN    H4 9125   7.830   2.491   3.756  3.5441  1.6410  2.9767
  867ACTN    H5 9126   7.895   2.336   3.813  0.7006 -0.2155 -0.7480
  867ACTN    C2 9127   7.685   2.340   3.795 -0.2400 -0.2391  0.5930
  867ACTN    O1 9128   7.588   2.356   3.867  0.3516  0.2897  0.2478
  867ACTN    C1 9129   7.664   2.279   3.657 -0.1626  0.6159  0.7015
  867ACTN    H1 9130   7.656   2.358   3.583  2.1668  0.8049  0.5978
  867ACTN    H2 9131   7.581   2.210   3.643  0.0757  0.5799 -0.6162
  867ACTN    H3 9132   7.758   2.228   3.633  0.0221  0.5556  1.5141
  868ACTN    H6 9133   5.594   3.159   2.766  1.2871 -0.8783 -0.3778
  868ACTN    C3 9134   5.615   3.215   2.675 -0.1534 -0.0567 -0.2202
  868ACTN    H4 9135   5.541   3.291   2.654 -0.1562 -0.2258 -0.8346
  868ACTN    H5 9136   5.715   3.253   2.700 -0.1627 -1.0187  1.3241
  868ACTN    C2 9137   5.617   3.107   2.568  0.5036  0.6074  0.1753
  868ACTN    O1 9138   5.518   3.034   2.549 -0.0175  0.5825 -0.0116
  868ACTN    C1 9139   5.753   3.062   2.521  0.0059 -0.2062  0.1373
  868ACTN    H1 9140   5.746   2.981   2.449 -2.5493 -0.1816  0.3230
  868ACTN    H2 9141   5.803   3.018   2.608 -0.2513  1.0940  0.9628
  868ACTN    H3 9142   5.809   3.151   2.494  0.2721  0.0579  1.5040
  869ACTN    H6 9143   8.915   4.668   3.672  0.1256 -0.4196 -0.6640
  869ACTN    C3 9144   8.941   4.580   3.731 -0.9660 -0.3585 -0.0645
  869ACTN    H4 9145   8.971   4.500   3.663  2.5195  1.3809 -0.7135
  869ACTN    H5 9146   9.023   4.610   3.796  1.3855 -1.4479 -2.4225
  869ACTN    C2 9147   8.821   4.543   3.816  0.1876 -0.4479 -0.1559
  869ACTN    O1 9148   8.834   4.555   3.937 -0.5523 -0.0881  0.1784
  869ACTN    C1 9149   8.700   4.467   3.764  0.0517  0.0660  0.2591
  869ACTN    H1 9150   8.635   4.449   3.850  2.9312 -0.6838  2.3337
  869ACTN    H2 9151   8.730   4.367   3.734 -0.8048 -0.7362  1.9891
  869ACTN    H3 9152   8.645   4.518   3.684  2.5319 -0.0133 -1.5629
  870ACTN    H6 9153   0.473   8.449   3.492 -0.9799  0.3046  1.9167
  870ACTN    C3 9154   0.553   8.396   3.544  0.3493 -0.1545 -0.5218
  870ACTN    H4 9155   0.647   8.405   3.490  1.8538 -3.2682  1.4271
  870ACTN    H5 9156   0.570   8.442   3.642  0.5690  0.7700 -0.9885
  870ACTN    C2 9157   0.532   8.247   3.569  0.2193  0.1293  0.3456
  870ACTN    O1 9158   0.512   8.210   3.683 -0.1550 -0.6142  0.4229
  870ACTN    C1 9159   0.539   8.141   3.469 -0.4537  0.6740 -0.0097
  870ACTN    H1 9160   0.534   8.194   3.374 -0.9356 -0.5008 -0.6382
  870ACTN    H2 9161   0.451   8.077   3.471 -0.5709  0.8091 -0.8508
  870ACTN    H3 9162   0.633   8.089   3.487 -1.5297 -0.4235  2.7134
  871ACTN    H6 9163   1.738   8.447   2.731 -0.5435  0.4613 -0.8476
  871ACTN    C3 9164   1.695   8.464   2.830 -0.6741 -0.6667 -0.7012
  871ACTN    H4 9165   1.711   8.566   2.865 -0.0827 -1.2601  0.7936
  871ACTN    H5 9166   1.588   8.446   2.823 -0.7274 -1.4073  1.5929
  871ACTN    C2 9167   1.750   8.372   2.929 -0.2515  0.3378  0.0534
  871ACTN    O1 9168   1.827   8.283   2.894  0.0717  0.2345 -0.4854
  871ACTN    C1 9169   1.698   8.388   3.073 -0.4218 -0.3689  0.2104
  871ACTN    H1 9170   1.776   8.338   3.130 -0.8787 -1.5309 -0.1656
  871ACTN    H2 9171   1.608   8.329   3.092 -0.9742  0.3252 -0.2258
  871ACTN    H3 9172   1.678   8.493   3.095 -2.1453 -0.9184  1.3778
  872ACTN    H6 9173   8.405   3.458   2.788 -0.7439  1.0154 -0.2558
  872ACTN    C3 9174   8.304   3.441   2.826 -0.5152 -0.5115 -0.2913
  872ACTN    H4 9175   8.322   3.436   2.934 -2.0277  1.0379  0.0515
  872ACTN    H5 9176   8.242   3.529   2.809  1.2048  0.6791 -0.6144
  872ACTN    C2 9177   8.251   3.316   2.773 -0.7596 -0.1513 -0.1184
  872ACTN    O1 9178   8.299   3.206   2.778 -0.4592 -1.2946 -0.4430
  872ACTN    C1 9179   8.120   3.333   2.698 -0.6303 -0.0565  0.5529
  872ACTN    H1 9180   8.033   3.354   2.760  0.0686  1.4260  1.0451
  872ACTN    H2 9181   8.094   3.251   2.631  0.4585 -0.6850  0.8768
  872ACTN    H3 9182   8.136   3.416   2.629 -2.1146  0.6703  1.0683
  873ACTN    H6 9183   6.800   2.660   2.268  1.5753 -3.2828  0.7811
  873ACTN    C3 9184   6.893   2.710   2.295  0.0489  0.0821 -0.0340
  873ACTN    H4 9185   6.868   2.814   2.273 -0.0595  0.4397  1.6667
  873ACTN    H5 9186   6.898   2.704   2.404  1.9932 -2.4593 -0.2317
  873ACTN    C2 9187   7.017   2.662   2.225  0.2297  0.2493  0.0139
  873ACTN    O1 9188   7.025   2.708   2.112 -0.6794  0.2165 -0.6074
  873ACTN    C1 9189   7.139   2.617   2.299 -0.2671  0.8164  0.4526
  873ACTN    H1 9190   7.128   2.625   2.408 -0.3018 -1.1308  0.6195
  873ACTN    H2 9191   7.228   2.673   2.270  0.1559 -0.3661 -0.5739
  873ACTN    H3 9192   7.155   2.509   2.296 -1.1273  0.4884  4.7357
  874ACTN    H6 9193   8.644   0.111   8.281 -0.2518  2.8835  0.6021
  874ACTN    C3 9194   8.673   0.128   8.177  0.4655 -0.7201  0.1571
  874ACTN    H4 9195   8.668   0.235   8.160  1.3122 -0.2928  2.4176
  874ACTN    H5 9196   8.774   0.090   8.163  0.7688 -0.0214  0.4596
  874ACTN    C2 9197   8.573   0.052   8.088  0.0786  0.1277  0.5974
  874ACTN    O1 9198   8.528  -0.051   8.143  0.2576  0.0707 -0.0465
  874ACTN    C1 9199   8.501   0.110   7.971  0.2084 -0.4811  0.1999
  874ACTN    H1 9200   8.439   0.030   7.931 -3.0293  2.0339 -0.0394
  874ACTN    H2 9201   8.568   0.146   7.893  1.0548 -0.0898  1.0910
  874ACTN    H3 9202   8.438   0.191   8.010 -0.5824 -0.7477 -0.5193
  875ACTN    H6 9203   4.717   0.996   5.056 -0.3521  0.2107  0.7479
  875ACTN    C3 9204   4.821   1.026   5.072 -0.1016 -0.2741  0.0441
  875ACTN    H4 9205   4.866   1.061   4.979  0.1380 -0.7922 -0.0364
  875ACTN    H5 9206   4.823   1.103   5.149 -1.0081 -0.1610 -0.0405
  875ACTN    C2 9207   4.907   0.917   5.124  0.0411 -0.4529 -0.7442
  875ACTN    O1 9208   4.896   0.870   5.238  0.2589 -0.2025 -0.2404
  875ACTN    C1 9209   5.016   0.876   5.040 -0.1923 -0.3607 -0.0662
  875ACTN    H1 9210   5.015   0.767   5.043  2.2759 -0.4851 -2.1489
  875ACTN    H2 9211   5.110   0.924   5.069  0.0472  1.8095 -4.0791
  875ACTN    H3 9212   4.997   0.897   4.935  0.7141  2.7883  0.3413
  876ACTN    H6 9213   7.900   0.002   5.063  0.2954 -0.3796 -0.9423
  876ACTN    C3 9214   7.878  -0.100   5.033 -0.4408 -0.7161  0.7359
  876ACTN    H4 9215   7.898  -0.159   5.123  0.3412 -1.3907  0.1253
  876ACTN    H5 9216   7.775  -0.112   4.998  0.5448 -3.0078 -1.4943
  876ACTN    C2 9217   7.962  -0.132   4.914 -0.8580  0.7541  0.3726
  876ACTN    O1 9218   7.946  -0.227   4.844  0.2126  0.4148  0.4553
  876ACTN    C1 9219   8.056  -0.029   4.868 -0.6809  0.6002 -0.4372
  876ACTN    H1 9220   8.136  -0.009   4.940  0.3083  1.3205 -1.7059
  876ACTN    H2 9221   8.013   0.070   4.851  1.9492  1.6610 -1.2423
  876ACTN    H3 9222   8.100  -0.063   4.774  1.8216 -1.8676  1.5417
  877ACTN    H6 9223   8.792   6.580   4.674 -1.1960  1.9579  0.9758
  877ACTN    C3 9224   8.779   6.512   4.758 -0.5169  0.5470 -0.0295
  877ACTN    H4 9225   8.748   6.576   4.841  2.4059  1.1332  0.6531
  877ACTN    H5 9226   8.710   6.431   4.734 -0.4921  0.4313  0.2879
  877ACTN    C2 9227   8.913   6.446   4.785 -0.0616 -0.1326 -0.3593
  877ACTN    O1 9228   8.946   6.361   4.704 -0.3519 -0.1114  0.0035
  877ACTN    C1 9229   8.989   6.460   4.912 -0.1711 -0.1578 -0.2289
  877ACTN    H1 9230   8.929   6.509   4.989 -2.1603 -2.6061 -0.1418
  877ACTN    H2 9231   9.087   6.507   4.906 -0.8331  1.0318 -2.0905
  877ACTN    H3 9232   9.011   6.358   4.945  0.7134  0.5517  1.4449
  878ACTN    H6 9233   8.993   7.136   2.860  1.4517 -1.3934 -0.9022
  878ACTN    C3 9234   8.971   7.066   2.941 -0.2992 -0.1160 -0.2289
  878ACTN    H4 9235   8.865   7.042   2.933  0.2209 -1.7580 -2.9101
  878ACTN    H5 9236   9.024   6.974   2.919 -0.1991  0.0059 -0.5044
  878ACTN    C2 9237   9.015   7.116   3.073  0.5752  0.0542  0.4618
  878ACTN    O1 9238   8.991   7.052   3.176  0.0661  0.2337  0.1659
  878ACTN    C1 9239   9.098   7.240   3.090  0.5365  0.3369 -0.6345
  878ACTN    H1 9240   9.066   7.302   3.006  0.6935  0.6109 -0.4900
  878ACTN    H2 9241   9.205   7.225   3.080  0.7434  0.4673  1.2153
  878ACTN    H3 9242   9.083   7.290   3.186  0.6520  0.0177 -0.4486
  879ACTN    H6 9243   3.782   0.805   1.650  2.6200  0.5968  3.8000
  879ACTN    C3 9244   3.791   0.697   1.659  0.6309  0.0481  0.1220
  879ACTN    H4 9245   3.899   0.679   1.664  0.6258  0.6210  2.7215
  879ACTN    H5 9246   3.758   0.664   1.757  1.8277 -0.2535  0.4331
  879ACTN    C2 9247   3.733   0.608   1.551  0.6035  0.3991 -0.3262
  879ACTN    O1 9248   3.636   0.642   1.492  0.1851 -0.6789  0.5612
  879ACTN    C1 9249   3.772   0.463   1.561  0.1065 -0.7107  0.9024
  879ACTN    H1 9250   3.794   0.440   1.456  1.6766 -0.3412  1.1485
  879ACTN    H2 9251   3.681   0.413   1.595 -0.0665 -0.7062  0.4527
  879ACTN    H3 9252   3.857   0.450   1.627 -0.7698  2.2637  2.7244
  880ACTN    H6 9253   5.035   1.159   4.261 -0.0460 -1.3358 -1.0866
  880ACTN    C3 9254   5.126   1.148   4.321  0.0015  0.4264 -0.8263
  880ACTN    H4 9255   5.106   1.064   4.387  0.7948  1.4234  0.6986
  880ACTN    H5 9256   5.211   1.121   4.258 -0.0670 -1.6729 -0.0399
  880ACTN    C2 9257   5.156   1.271   4.387  0.0709  0.2267 -0.5173
  880ACTN    O1 9258   5.086   1.372   4.367 -0.1466 -0.4402 -0.3158
  880ACTN    C1 9259   5.276   1.287   4.479 -0.9653 -0.0940 -0.0798
  880ACTN    H1 9260   5.247   1.312   4.581  0.8465  0.3621  0.3516
  880ACTN    H2 9261   5.335   1.372   4.444 -1.5304  0.2479 -0.2082
  880ACTN    H3 9262   5.342   1.201   4.492 -1.6717 -0.7714 -0.9351
  881ACTN    H6 9263   3.347   7.196   5.366  0.6740  0.1264  1.4678
  881ACTN    C3 9264   3.330   7.090   5.387 -0.6508 -0.0969 -0.6116
  881ACTN    H4 9265   3.224   7.064   5.381 -1.0717  1.0709  1.3714
  881ACTN    H5 9266   3.364   7.036   5.298  1.2485 -1.8981  1.1607
  881ACTN    C2 9267   3.392   7.021   5.505 -0.5494 -0.1259  0.3985
  881ACTN    O1 9268   3.444   6.907   5.488 -0.3405 -0.2845 -0.1997
  881ACTN    C1 9269   3.341   7.073   5.640 -0.1959 -0.3306  0.0393
  881ACTN    H1 9270   3.265   7.151   5.640  1.5600  1.4187  0.6731
  881ACTN    H2 9271   3.426   7.128   5.680  1.5130 -2.2070 -0.9293
  881ACTN    H3 9272   3.303   6.998   5.709 -0.0010  0.8563  1.4501
  882ACTN    H6 9273   3.192   0.572   8.847 -0.4924  0.9182 -0.1598
  882ACTN    C3 9274   3.300   0.578   8.862 -0.5096 -0.2096  0.4321
  882ACTN    H4 9275   3.348   0.502   8.800  0.0401  0.5585 -0.0861
  882ACTN    H5 9276   3.323   0.680   8.834 -2.4649 -0.3407 -1.7755
  882ACTN    C2 9277   3.345   0.543   8.999  0.4255  0.4568  0.6075
  882ACTN    O1 9278   3.268   0.546   9.090  0.2350 -0.3143 -0.8418
  882ACTN    C1 9279   3.488   0.509   9.019 -0.4309 -0.3676 -0.1902
  882ACTN    H1 9280   3.554   0.595   9.009 -3.5068  2.2629  1.1654
  882ACTN    H2 9281   3.522   0.433   8.949 -0.2624  1.0875 -1.7089
  882ACTN    H3 9282   3.504   0.483   9.124 -0.8075 -0.5988 -0.1926
  883ACTN    H6 9283   3.567   1.150   8.098 -1.1705  1.8100  1.2526
  883ACTN    C3 9284   3.639   1.135   8.179  0.1798 -0.6415 -0.3276
  883ACTN    H4 9285   3.723   1.202   8.167 -0.3673 -0.0555 -0.9370
  883ACTN    H5 9286   3.591   1.142   8.277 -1.6611  0.5558 -1.2805
  883ACTN    C2 9287   3.684   0.992   8.158  0.0359  0.2911 -0.6863
  883ACTN    O1 9288   3.715   0.931   8.259 -0.3203 -0.0220  0.2027
  883ACTN    C1 9289   3.692   0.931   8.023  1.0335  0.1393  0.4675
  883ACTN    H1 9290   3.782   0.964   7.971 -0.0832  0.0810 -1.5293
  883ACTN    H2 9291   3.606   0.960   7.963  0.6380  1.2132  1.5260
  883ACTN    H3 9292   3.686   0.822   8.027 -0.5411  0.2785  3.0537
  884ACTN    H6 9293   1.138   4.291   7.791  0.0330 -1.9831  1.5347
  884ACTN    C3 9294   1.043   4.321   7.834  0.0504 -0.3842  0.4902
  884ACTN    H4 9295   1.060   4.361   7.934  2.1041  0.9624 -0.3703
  884ACTN    H5 9296   0.992   4.395   7.773 -1.3650  1.0786  3.3237
  884ACTN    C2 9297   0.961   4.199   7.840 -0.1410  0.0713 -0.1243
  884ACTN    O1 9298   0.904   4.165   7.947 -0.6004 -0.4209 -0.4571
  884ACTN    C1 9299   1.006   4.085   7.752 -0.4091 -0.0589  0.6697
  884ACTN    H1 9300   1.072   4.130   7.678 -0.1850  0.3141  1.0922
  884ACTN    H2 9301   0.921   4.039   7.702  0.9864 -1.7305 -0.2156
  884ACTN    H3 9302   1.052   4.006   7.811 -1.2822 -1.3339 -0.3388
  885ACTN    H6 9303   7.974   6.984   1.299 -1.2982 -1.5880  2.1572
  885ACTN    C3 9304   7.993   6.889   1.248 -0.1157 -0.2160 -0.0153
  885ACTN    H4 9305   8.092   6.849   1.269 -0.5896  0.1870  3.3396
  885ACTN    H5 9306   7.918   6.822   1.290 -1.2507 -0.0583 -1.7276
  885ACTN    C2 9307   7.968   6.906   1.102 -0.1719  0.1706  0.0118
  885ACTN    O1 9308   7.892   6.987   1.057 -0.3142 -0.2925  0.0697
  885ACTN    C1 9309   8.058   6.834   1.009 -0.6508  0.9433  0.7944
  885ACTN    H1 9310   8.029   6.729   1.014 -0.7620  0.9203 -0.3408
  885ACTN    H2 9311   8.158   6.862   1.041  1.3871 -2.3134 -2.3972
  885ACTN    H3 9312   8.048   6.862   0.904 -0.9304 -0.1430  0.5263
  886ACTN    H6 9313   2.515   1.009   4.588  0.7978  2.7769 -0.1848
  886ACTN    C3 9314   2.509   1.014   4.480  0.1903  0.6746 -0.2829
  886ACTN    H4 9315   2.571   1.094   4.439  0.6627 -0.4519 -1.8124
  886ACTN    H5 9316   2.403   1.034   4.464  0.1989  0.4396 -0.6508
  886ACTN    C2 9317   2.551   0.886   4.431 -0.6838 -0.0179  0.5293
  886ACTN    O1 9318   2.660   0.840   4.470  0.9179  0.2461  0.4736
  886ACTN    C1 9319   2.483   0.829   4.310 -0.6736  0.0150 -0.2954
  886ACTN    H1 9320   2.381   0.869   4.310 -1.1060 -1.0653 -0.2668
  886ACTN    H2 9321   2.475   0.721   4.302 -1.2790  0.0611 -0.3280
  886ACTN    H3 9322   2.526   0.867   4.217  1.8611 -0.8969  0.4857
  887ACTN    H6 9323   2.970   0.486   0.346 -0.3545 -1.2830  1.3318
  887ACTN    C3 9324   2.938   0.573   0.402  0.1494 -0.2125  0.0080
  887ACTN    H4 9325   2.836   0.555   0.436 -0.3436  2.1183 -0.1420
  887ACTN    H5 9326   3.003   0.589   0.488  0.3676  0.3787 -0.2622
  887ACTN    C2 9327   2.963   0.705   0.330 -0.5871 -0.7552 -0.2195
  887ACTN    O1 9328   2.969   0.803   0.398  0.6915 -0.1233 -0.5406
  887ACTN    C1 9329   2.960   0.706   0.173 -0.2428  0.8945  0.3537
  887ACTN    H1 9330   2.853   0.691   0.154  0.2498 -0.1500 -1.7302
  887ACTN    H2 9331   3.009   0.614   0.139 -0.3799  0.8002  0.4072
  887ACTN    H3 9332   3.005   0.795   0.129  0.6832  0.2239 -0.0705
  888ACTN    H6 9333   0.753   8.773   2.746  1.4224 -0.3048  1.8787
  888ACTN    C3 9334   0.819   8.717   2.680 -0.3671 -0.1224 -0.0909
  888ACTN    H4 9335   0.813   8.769   2.584 -0.7578 -0.2532 -0.1399
  888ACTN    H5 9336   0.921   8.727   2.718 -1.0893  0.0915  1.8076
  888ACTN    C2 9337   0.779   8.580   2.675  0.0487  0.2051  0.3342
  888ACTN    O1 9338   0.666   8.548   2.705 -0.4904 -0.2949 -0.4305
  888ACTN    C1 9339   0.882   8.482   2.618 -0.1474  0.8401 -0.0091
  888ACTN    H1 9340   0.829   8.432   2.537 -1.2943  1.2443  0.4843
  888ACTN    H2 9341   0.902   8.399   2.685  0.5358  1.9084  1.1374
  888ACTN    H3 9342   0.974   8.532   2.589  1.3747 -2.2670 -0.6666
  889ACTN    H6 9343   5.793   6.777   4.378 -0.5779  0.7184 -2.2099
  889ACTN    C3 9344   5.735   6.865   4.405  0.0332  0.3979  0.3084
  889ACTN    H4 9345   5.732   6.856   4.513 -2.8822 -1.8332  0.1105
  889ACTN    H5 9346   5.801   6.947   4.375  0.3248 -0.1639 -0.6153
  889ACTN    C2 9347   5.598   6.883   4.337 -0.2008 -0.0091 -0.1782
  889ACTN    O1 9348   5.518   6.791   4.341  0.2217  0.5307  0.0973
  889ACTN    C1 9349   5.550   7.017   4.277  0.6069 -0.8851  0.1472
  889ACTN    H1 9350   5.579   7.030   4.173  1.1760 -0.2243  0.3913
  889ACTN    H2 9351   5.586   7.102   4.334 -1.4870 -0.6984  1.2202
  889ACTN    H3 9352   5.442   7.018   4.289  0.7966  0.0882  1.8451
  890ACTN    H6 9353   3.534   0.192   1.078 -0.2259  2.0152 -0.6801
  890ACTN    C3 9354   3.637   0.221   1.097  0.0926  0.4727 -0.0147
  890ACTN    H4 9355   3.682   0.164   1.178  1.0354  2.3752  0.8220
  890ACTN    H5 9356   3.697   0.205   1.007  1.2563 -0.1584  0.8601
  890ACTN    C2 9357   3.629   0.367   1.126  0.2877 -0.3321 -0.2317
  890ACTN    O1 9358   3.686   0.454   1.053  0.0425 -0.0909  0.1473
  890ACTN    C1 9359   3.513   0.411   1.204  0.2540  0.1497 -0.2324
  890ACTN    H1 9360   3.419   0.389   1.152 -1.4866  2.1572  1.9582
  890ACTN    H2 9361   3.509   0.517   1.229  2.7058  0.4241 -0.8777
  890ACTN    H3 9362   3.508   0.350   1.295  1.7515  1.5736  0.8262
  891ACTN    H6 9363   2.772   7.951   4.856  3.1371  4.0095  3.8486
  891ACTN    C3 9364   2.733   7.892   4.940  0.2063  0.3393  0.1129
  891ACTN    H4 9365   2.680   7.808   4.894  0.4550  0.3058 -0.1177
  891ACTN    H5 9366   2.810   7.841   4.997 -0.9226 -6.3806 -3.8470
  891ACTN    C2 9367   2.635   7.962   5.037  0.2356  0.4505 -0.1911
  891ACTN    O1 9368   2.589   7.908   5.138  0.1473  0.4114  0.5960
  891ACTN    C1 9369   2.587   8.100   5.009 -0.4896  0.7759 -0.0546
  891ACTN    H1 9370   2.480   8.098   5.028 -0.4104 -1.4101  0.2870
  891ACTN    H2 9371   2.596   8.150   4.912 -1.1120 -0.0827 -0.5634
  891ACTN    H3 9372   2.623   8.170   5.084  0.5540  0.1481  0.0364
  892ACTN    H6 9373   1.563   0.656   2.376 -0.7224 -0.1808 -1.6521
  892ACTN    C3 9374   1.600   0.553   2.376 -0.3086 -0.0748  0.8418
  892ACTN    H4 9375   1.703   0.548   2.410 -0.0466  0.0171  0.0790
  892ACTN    H5 9376   1.532   0.490   2.433  0.3092 -1.1108  0.4492
  892ACTN    C2 9377   1.591   0.503   2.232  0.4652 -0.3726  0.0902
  892ACTN    O1 9378   1.659   0.406   2.196  0.0237 -0.7792 -0.1987
  892ACTN    C1 9379   1.530   0.593   2.131  0.1169 -0.6246  0.6191
  892ACTN    H1 9380   1.608   0.663   2.103  1.2949 -0.7588  3.4028
  892ACTN    H2 9381   1.447   0.656   2.163  0.4191 -0.2273  0.6214
  892ACTN    H3 9382   1.498   0.537   2.042  0.0528  0.5783 -0.1228
  893ACTN    H6 9383   7.617   1.340   3.925  2.9813  0.3012  0.5696
  893ACTN    C3 9384   7.595   1.314   4.029 -0.4637  0.5776 -0.0289
  893ACTN    H4 9385   7.689   1.320   4.084  0.8545 -0.3670 -2.1076
  893ACTN    H5 9386   7.518   1.384   4.063 -1.3395 -0.8223  0.9068
  893ACTN    C2 9387   7.552   1.162   4.036 -0.6648  0.8182  0.1711
  893ACTN    O1 9388   7.451   1.117   4.092 -0.4663  0.0751  0.2230
  893ACTN    C1 9389   7.634   1.059   3.951 -0.2931  0.3465  0.0042
  893ACTN    H1 9390   7.667   1.106   3.859  0.2058  0.5838  0.3011
  893ACTN    H2 9391   7.584   0.968   3.918  0.1226  0.0001  0.3239
  893ACTN    H3 9392   7.715   1.014   4.009 -0.7237  1.3731  1.4302
  894ACTN    H6 9393   5.976   2.850   3.923 -1.1316 -0.3152  0.8669
  894ACTN    C3 9394   6.068   2.795   3.944 -0.2643  0.8548  0.2135
  894ACTN    H4 9395   6.146   2.845   3.886  0.3288 -0.6187 -0.2788
  894ACTN    H5 9396   6.085   2.800   4.051  1.0531  1.2191  0.0049
  894ACTN    C2 9397   6.067   2.653   3.893 -0.0925 -1.0229  0.1673
  894ACTN    O1 9398   5.961   2.613   3.844 -0.8656 -0.2854 -0.2593
  894ACTN    C1 9399   6.192   2.569   3.881  0.5579 -0.2489  0.4677
  894ACTN    H1 9400   6.168   2.467   3.854 -1.4362  0.8740 -2.2067
  894ACTN    H2 9401   6.254   2.569   3.971  1.4196  2.5284 -0.0681
  894ACTN    H3 9402   6.252   2.609   3.799 -0.3706 -1.2590 -0.7287
  895ACTN    H6 9403   5.120   2.322   2.630 -0.7260  0.3185  0.5193
  895ACTN    C3 9404   5.041   2.275   2.571 -0.1609 -0.2810  0.2224
  895ACTN    H4 9405   5.023   2.176   2.613  1.1628 -1.5549 -2.1417
  895ACTN    H5 9406   4.948   2.332   2.581  0.0678  0.2147 -0.4696
  895ACTN    C2 9407   5.077   2.252   2.427 -0.7974 -0.7580 -0.2894
  895ACTN    O1 9408   5.072   2.354   2.354 -0.4130 -0.3173  0.0821
  895ACTN    C1 9409   5.128   2.112   2.380 -0.0354 -0.4280 -0.4863
  895ACTN    H1 9410   5.048   2.053   2.425 -0.7307  1.9146  1.4221
  895ACTN    H2 9411   5.225   2.067   2.402  1.0851  1.5144 -1.3334
  895ACTN    H3 9412   5.117   2.115   2.271  0.9907  1.9425 -0.5616
  896ACTN    H6 9413   6.357   6.883   0.904 -2.8604 -1.2323 -0.5530
  896ACTN    C3 9414   6.283   6.942   0.958 -0.6353  0.5778  0.6094
  896ACTN    H4 9415   6.317   7.046   0.958  0.6355  0.1855 -1.1248
  896ACTN    H5 9416   6.194   6.927   0.898 -0.1278  1.4919 -0.3835
  896ACTN    C2 9417   6.274   6.885   1.098  0.7681  0.1777 -0.8335
  896ACTN    O1 9418   6.316   6.951   1.193 -0.4289  0.8481 -0.6708
  896ACTN    C1 9419   6.206   6.761   1.138 -0.7102 -0.3532 -0.3666
  896ACTN    H1 9420   6.121   6.777   1.204  0.4050  1.0043  0.7718
  896ACTN    H2 9421   6.275   6.698   1.194  2.0168  1.0454 -2.0625
  896ACTN    H3 9422   6.166   6.708   1.052 -1.4935 -0.5408  0.1105
  897ACTN    H6 9423   1.409   2.911   1.417 -0.5283  0.6206 -1.5940
  897ACTN    C3 9424   1.311   2.953   1.439 -0.4923 -0.0052 -0.1705
  897ACTN    H4 9425   1.314   3.062   1.434  0.4870 -0.1250 -3.2593
  897ACTN    H5 9426   1.286   2.920   1.540  0.6385 -2.5801 -0.6959
  897ACTN    C2 9427   1.206   2.920   1.338  0.2226  0.1530  0.3631
  897ACTN    O1 9428   1.092   2.968   1.352 -0.1173 -0.0758  0.6386
  897ACTN    C1 9429   1.242   2.820   1.236  0.2809  0.2026 -0.3451
  897ACTN    H1 9430   1.271   2.726   1.284  2.1145  0.1784 -1.4497
  897ACTN    H2 9431   1.318   2.844   1.162  0.2383 -0.3573 -0.5772
  897ACTN    H3 9432   1.155   2.801   1.174  0.7682  0.2363 -1.0373
  898ACTN    H6 9433   8.868   1.220   2.324  0.9799 -0.5159  2.1670
  898ACTN    C3 9434   8.895   1.326   2.333 -0.7312  0.1159  0.3050
  898ACTN    H4 9435   8.911   1.366   2.233 -1.0242  1.3706  0.7485
  898ACTN    H5 9436   8.818   1.391   2.375 -0.5898  0.6604 -0.2865
  898ACTN    C2 9437   9.011   1.324   2.425  0.7961  0.5002 -0.1003
  898ACTN    O1 9438   9.123   1.364   2.395 -0.1507 -0.0012 -0.5143
  898ACTN    C1 9439   8.983   1.271   2.566 -1.0477  0.1951  0.5571
  898ACTN    H1 9440   9.055   1.197   2.601  2.6036  3.0240 -0.6352
  898ACTN    H2 9441   8.883   1.231   2.580 -0.0703 -1.6312  2.5845
  898ACTN    H3 9442   8.998   1.351   2.638  0.4387  0.1088  0.3558
  899ACTN    H6 9443   2.385   7.319   2.280 -0.6462  1.0199 -0.2403
  899ACTN    C3 9444   2.282   7.294   2.254 -0.1170 -0.4630 -0.9391
  899ACTN    H4 9445   2.254   7.214   2.324  2.9958 -2.1084 -1.4755
  899ACTN    H5 9446   2.231   7.388   2.275  1.3769  0.2963 -0.6427
  899ACTN    C2 9447   2.271   7.262   2.113 -0.1058 -0.0783 -0.8016
  899ACTN    O1 9448   2.311   7.151   2.073 -0.2344 -0.0844 -0.0873
  899ACTN    C1 9449   2.210   7.357   2.018  0.4406  0.2452  0.7232
  899ACTN    H1 9450   2.161   7.436   2.076 -0.2257 -0.1775  0.7482
  899ACTN    H2 9451   2.135   7.308   1.955  0.0381  0.1474  1.2729
  899ACTN    H3 9452   2.283   7.402   1.950 -1.6071 -0.7284 -2.2222
  900ACTN    H6 9453   8.121   3.406   7.466 -1.4120 -3.4606  1.5469
  900ACTN    C3 9454   8.038   3.466   7.504 -0.1578 -0.8078  0.2109
  900ACTN    H4 9455   8.062   3.573   7.501  1.0136 -1.0601  0.2948
  900ACTN    H5 9456   7.945   3.454   7.449 -0.0689 -0.3588 -0.0418
  900ACTN    C2 9457   8.003   3.436   7.644  0.5913 -0.0360  0.1749
  900ACTN    O1 9458   8.085   3.470   7.729  0.4875  0.1067 -0.3766
  900ACTN    C1 9459   7.873   3.362   7.673 -0.2725  0.4305 -1.1588
  900ACTN    H1 9460   7.796   3.431   7.708  0.8262  0.1313  2.0127
  900ACTN    H2 9461   7.890   3.294   7.757  1.6900  0.6595 -1.3529
  900ACTN    H3 9462   7.843   3.303   7.586 -1.9038  1.2694 -1.1890
  901ACTN    H6 9463   6.582   7.864   0.185 -2.0281 -2.1254 -0.1997
  901ACTN    C3 9464   6.604   7.826   0.284 -0.3773 -0.6132  0.0338
  901ACTN    H4 9465   6.652   7.901   0.348  2.8342 -0.0741 -2.8588
  901ACTN    H5 9466   6.508   7.802   0.331 -0.4117 -2.0654 -0.7600
  901ACTN    C2 9467   6.697   7.710   0.266 -0.6651 -0.5518 -0.7301
  901ACTN    O1 9468   6.802   7.700   0.332  0.2443 -0.0135  0.1342
  901ACTN    C1 9469   6.673   7.610   0.157 -0.2505  0.3408  0.4432
  901ACTN    H1 9470   6.584   7.553   0.184  1.2098 -1.9864  0.5070
  901ACTN    H2 9471   6.758   7.543   0.143  0.5868  1.5731 -0.4611
  901ACTN    H3 9472   6.656   7.662   0.063 -0.6548 -2.7069 -1.2303
  902ACTN    H6 9473   4.608   5.163   1.838 -0.1354 -1.5424 -0.0033
  902ACTN    C3 9474   4.662   5.111   1.759 -0.1556 -0.6906 -0.5828
  902ACTN    H4 9475   4.594   5.038   1.715  0.3054  0.2631 -2.9227
  902ACTN    H5 9476   4.748   5.059   1.802  1.3893  1.5260 -0.9033
  902ACTN    C2 9477   4.713   5.214   1.663 -0.0191 -0.2823  0.7385
  902ACTN    O1 9478   4.646   5.259   1.574 -0.5150 -0.5231 -0.3805
  902ACTN    C1 9479   4.854   5.259   1.687 -0.6173  0.5417 -0.1098
  902ACTN    H1 9480   4.886   5.227   1.786  2.0557 -1.8536 -1.6656
  902ACTN    H2 9481   4.870   5.366   1.679  2.8012  0.0226 -1.1675
  902ACTN    H3 9482   4.914   5.215   1.608  1.0651 -1.7622  2.3543
  903ACTN    H6 9483   4.212   8.802   3.893 -1.1541  2.2363 -2.4902
  903ACTN    C3 9484   4.223   8.766   3.791 -0.2066 -0.2742 -1.5352
  903ACTN    H4 9485   4.143   8.695   3.770 -0.0548 -0.8407 -0.1950
  903ACTN    H5 9486   4.208   8.847   3.719 -0.9504 -0.4403 -1.5716
  903ACTN    C2 9487   4.363   8.711   3.757 -0.1074 -0.2819 -0.1416
  903ACTN    O1 9488   4.375   8.594   3.728  0.1075 -0.1957 -0.4581
  903ACTN    C1 9489   4.478   8.794   3.796 -0.6638 -0.2457 -0.4697
  903ACTN    H1 9490   4.521   8.841   3.707  0.8355 -0.3074  0.2177
  903ACTN    H2 9491   4.551   8.735   3.850  2.4799  2.1459 -1.9294
  903ACTN    H3 9492   4.442   8.873   3.862  0.8200 -1.8938  2.4245
  904ACTN    H6 9493   8.095   2.661   4.016 -0.1370 -1.4610 -0.9994
  904ACTN    C3 9494   8.199   2.633   3.997 -0.0021 -0.9162 -1.0611
  904ACTN    H4 9495   8.219   2.623   3.890  2.4929  1.2476 -0.8304
  904ACTN    H5 9496   8.232   2.541   4.046  0.3590 -0.4712 -0.4672
  904ACTN    C2 9497   8.275   2.737   4.062 -0.2411  0.0308  0.4817
  904ACTN    O1 9498   8.398   2.744   4.031  0.2389  0.5955 -1.2113
  904ACTN    C1 9499   8.210   2.846   4.143 -0.2190 -0.6598 -0.0695
  904ACTN    H1 9500   8.266   2.938   4.128 -1.5967  0.5003  1.6079
  904ACTN    H2 9501   8.203   2.834   4.251  2.1064 -1.3653  0.0334
  904ACTN    H3 9502   8.109   2.867   4.108 -0.2737 -0.3112  0.2891
  905ACTN    H6 9503   7.339   1.766   2.401 -0.8170  1.8834  1.9060
  905ACTN    C3 9504   7.439   1.791   2.436  0.0658  0.3427  0.5469
  905ACTN    H4 9505   7.482   1.697   2.471  0.8822  0.5903  0.2256
  905ACTN    H5 9506   7.497   1.811   2.345 -1.0714  0.6140 -0.1299
  905ACTN    C2 9507   7.442   1.898   2.538 -0.7569  0.8909  0.2107
  905ACTN    O1 9508   7.339   1.947   2.585  0.5806  0.0113  0.0948
  905ACTN    C1 9509   7.577   1.912   2.614 -0.0808 -0.3145 -0.2740
  905ACTN    H1 9510   7.593   1.828   2.682  1.6834  0.5334  0.3829
  905ACTN    H2 9511   7.576   2.001   2.677 -0.3099 -0.1257 -0.5458
  905ACTN    H3 9512   7.658   1.924   2.543  0.4007 -1.1163  0.1363
  906ACTN    H6 9513   6.008   5.821   3.908 -0.3794 -1.3283  0.1468
  906ACTN    C3 9514   5.912   5.809   3.859 -0.6174  0.0883  0.2719
  906ACTN    H4 9515   5.922   5.737   3.778  1.6021  1.3167 -0.5940
  906ACTN    H5 9516   5.843   5.782   3.940  0.5686 -0.6002  1.0618
  906ACTN    C2 9517   5.857   5.932   3.792 -0.5737  0.3909 -0.0223
  906ACTN    O1 9518   5.764   6.002   3.836  0.6495  0.4227  0.0715
  906ACTN    C1 9519   5.911   5.958   3.657 -0.5152  0.5652 -0.4645
  906ACTN    H1 9520   6.011   5.980   3.693 -0.8673  3.4297 -1.1598
  906ACTN    H2 9521   5.875   6.041   3.597  2.4261  1.0430 -1.6400
  906ACTN    H3 9522   5.931   5.870   3.596 -0.3512  1.7053 -2.0773
  907ACTN    H6 9523   7.280   2.582   6.918 -0.4800 -3.0500 -2.1621
  907ACTN    C3 9524   7.277   2.522   7.009  0.2613 -0.2375 -0.2135
  907ACTN    H4 9525   7.381   2.512   7.041  1.3020 -1.8879 -3.8756
  907ACTN    H5 9526   7.233   2.581   7.090 -0.9407 -3.1756  1.3655
  907ACTN    C2 9527   7.204   2.391   6.991  0.9929 -0.0842 -0.4676
  907ACTN    O1 9528   7.098   2.387   6.932 -0.3133 -0.2478  0.0216
  907ACTN    C1 9529   7.251   2.263   7.055  0.6446 -0.2839 -0.0239
  907ACTN    H1 9530   7.349   2.280   7.100  0.9601 -1.5656 -0.2240
  907ACTN    H2 9531   7.265   2.188   6.977 -2.3204 -0.0022 -0.8666
  907ACTN    H3 9532   7.180   2.230   7.131  0.3747 -0.1685 -0.2247
  908ACTN    H6 9533   0.859   8.021   2.863  0.8652 -0.9302  1.7741
  908ACTN    C3 9534   0.907   8.101   2.807 -0.6674 -0.6531  0.8280
  908ACTN    H4 9535   0.836   8.118   2.727  0.6205  1.3357  0.0544
  908ACTN    H5 9536   0.923   8.195   2.860 -2.5942 -0.2290  0.7044
  908ACTN    C2 9537   1.041   8.049   2.755  0.3762  0.4783 -0.1309
  908ACTN    O1 9538   1.095   8.115   2.667 -0.4970  0.4856 -0.4752
  908ACTN    C1 9539   1.098   7.913   2.779 -0.7980  0.3632 -0.0385
  908ACTN    H1 9540   1.051   7.832   2.724 -1.5662  0.8318 -0.0906
  908ACTN    H2 9541   1.078   7.887   2.882  0.6505 -0.1875  0.1154
  908ACTN    H3 9542   1.204   7.903   2.754 -1.2135 -3.7251 -0.4499
  909ACTN    H6 9543   5.587   2.599   5.852 -0.1120 -2.3445  2.1704
  909ACTN    C3 9544   5.620   2.502   5.815  0.6804 -1.0724 -0.5834
  909ACTN    H4 9545   5.535   2.434   5.806 -0.8031  0.5165  0.9942
  909ACTN    H5 9546   5.639   2.510   5.708  0.4761  1.8934 -0.4587
  909ACTN    C2 9547   5.729   2.435   5.889 -0.6777 -0.1832 -1.0628
  909ACTN    O1 9548   5.819   2.503   5.934  0.3526 -0.3077  0.4100
  909ACTN    C1 9549   5.749   2.286   5.890  0.6835  0.3210  0.2209
  909ACTN    H1 9550   5.835   2.258   5.829 -0.6270 -1.4432 -0.8479
  909ACTN    H2 9551   5.656   2.246   5.848  0.6091  0.2053  0.5007
  909ACTN    H3 9552   5.757   2.246   5.990 -1.0995  1.0879  0.6972
  910ACTN    H6 9553   2.600   5.055   2.621  1.0444 -0.5067 -1.7921
  910ACTN    C3 9554   2.605   5.149   2.566  0.9257  0.9550  0.6369
  910ACTN    H4 9555   2.699   5.150   2.510  0.5725  0.1585  0.0271
  910ACTN    H5 9556   2.520   5.155   2.499 -0.0003 -1.4675  1.5249
  910ACTN    C2 9557   2.588   5.268   2.663  0.3058 -0.3016  0.0025
  910ACTN    O1 9558   2.687   5.329   2.708 -0.4516 -0.3490  0.0318
  910ACTN    C1 9559   2.448   5.280   2.723  0.3233  0.2251  0.1538
  910ACTN    H1 9560   2.453   5.260   2.830  0.3338  1.5739  0.4125
  910ACTN    H2 9561   2.380   5.204   2.683 -0.7540 -0.0732  2.4546
  910ACTN    H3 9562   2.410   5.378   2.696 -1.4704 -0.7668 -1.0336
  911ACTN    H6 9563   7.504   0.801   4.897 -0.3353  0.4441 -1.2354
  911ACTN    C3 9564   7.497   0.698   4.860 -0.5862 -0.0016  0.0179
  911ACTN    H4 9565   7.520   0.624   4.936 -0.0714  0.0680 -0.0642
  911ACTN    H5 9566   7.393   0.683   4.830 -0.2734  0.3508 -1.2856
  911ACTN    C2 9567   7.583   0.682   4.738  0.0227 -0.3533  1.3306
  911ACTN    O1 9568   7.589   0.765   4.645 -0.2345  0.0689  0.3430
  911ACTN    C1 9569   7.659   0.558   4.731  0.0156 -0.5348  0.0388
  911ACTN    H1 9570   7.763   0.584   4.711 -0.9390  1.8229 -2.0650
  911ACTN    H2 9571   7.631   0.485   4.655  0.4207 -1.8017  1.0803
  911ACTN    H3 9572   7.657   0.501   4.824 -2.5927  2.3221  1.8382
  912ACTN    H6 9573   4.684   1.828   0.842 -1.0120 -0.1041 -0.4189
  912ACTN    C3 9574   4.783   1.873   0.847 -0.9034 -0.3960  0.1851
  912ACTN    H4 9575   4.826   1.855   0.748 -2.3679  0.4555 -0.6296
  912ACTN    H5 9576   4.764   1.979   0.863  1.6345  0.2051 -0.5698
  912ACTN    C2 9577   4.873   1.806   0.954 -0.7644 -0.2228  1.1668
  912ACTN    O1 9578   4.847   1.688   0.975  0.4409  0.3618  0.0329
  912ACTN    C1 9579   4.955   1.884   1.049  0.5040 -0.6741  0.0296
  912ACTN    H1 9580   4.906   1.974   1.086  0.9338 -0.9597  1.3224
  912ACTN    H2 9581   5.058   1.901   1.015  0.5233  2.1793  1.3338
  912ACTN    H3 9582   4.975   1.824   1.138  1.5194  0.1192  0.3451
  913ACTN    H6 9583   0.761   8.032   2.458  0.0639  1.0936  1.5823
  913ACTN    C3 9584   0.852   8.086   2.432  0.3801 -0.1960 -0.1369
  913ACTN    H4 9585   0.847   8.191   2.462  0.6108 -0.6188  1.4483
  913ACTN    H5 9586   0.938   8.031   2.469  0.1891  0.2193  0.9681
  913ACTN    C2 9587   0.862   8.090   2.285 -0.0522  0.9463  0.0093
  913ACTN    O1 9588   0.963   8.127   2.230 -0.9413 -0.4242 -0.1538
  913ACTN    C1 9589   0.742   8.084   2.202  0.6701  0.7424  0.0018
  913ACTN    H1 9590   0.695   7.987   2.216  1.7306  0.3645  1.0459
  913ACTN    H2 9591   0.758   8.097   2.095  2.3526  2.1842  0.4023
  913ACTN    H3 9592   0.672   8.162   2.230  1.1600  0.7172  1.3330
  914ACTN    H6 9593   0.211   6.334   4.095 -2.6374  1.1039  0.3814
  914ACTN    C3 9594   0.218   6.359   4.200  0.2699  0.1888  0.4484
  914ACTN    H4 9595   0.313   6.409   4.217 -0.1055  0.7103  1.0678
  914ACTN    H5 9596   0.137   6.431   4.217  1.5702  1.8612 -0.3662
  914ACTN    C2 9597   0.207   6.240   4.295 -0.4857 -0.3316 -0.4351
  914ACTN    O1 9598   0.097   6.208   4.342 -0.9621 -0.5896 -0.0197
  914ACTN    C1 9599   0.326   6.170   4.352 -0.3286  0.2458 -0.2327
  914ACTN    H1 9600   0.382   6.237   4.418  1.5072 -2.3147  0.8964
  914ACTN    H2 9601   0.391   6.146   4.267 -1.1356  0.9268 -1.0497
  914ACTN    H3 9602   0.303   6.078   4.406 -0.6999  0.4934  0.0274
  915ACTN    H6 9603   6.260   8.354   1.273 -0.4407  1.9758 -0.2071
  915ACTN    C3 9604   6.174   8.333   1.209 -0.2923 -0.3407  0.3088
  915ACTN    H4 9605   6.209   8.343   1.106  2.3881  0.6160  1.2550
  915ACTN    H5 9606   6.092   8.396   1.244  0.9926  0.6258  1.7218
  915ACTN    C2 9607   6.136   8.191   1.231  0.1689  0.1366  0.0967
  915ACTN    O1 9608   6.180   8.119   1.325  0.5932 -0.4772 -0.3504
  915ACTN    C1 9609   6.019   8.139   1.144 -0.4513  0.1937  0.6692
  915ACTN    H1 9610   5.995   8.038   1.176  1.3643 -0.8985 -1.2951
  915ACTN    H2 9611   6.033   8.131   1.037  0.3897  3.3720  0.4761
  915ACTN    H3 9612   5.931   8.203   1.156 -0.7311  0.1630 -1.2025
  916ACTN    H6 9613   0.673   7.053   5.067 -1.7679 -0.3848  3.4365
  916ACTN    C3 9614   0.571   7.036   5.033 -0.7911  0.3487 -0.1164
  916ACTN    H4 9615   0.540   6.950   5.092  2.2732 -1.2530 -0.7302
  916ACTN    H5 9616   0.511   7.122   5.064  0.3259  0.8820  0.5924
  916ACTN    C2 9617   0.541   7.009   4.895 -0.1005 -0.2261  0.4453
  916ACTN    O1 9618   0.523   7.104   4.819  0.5624  0.1887 -0.3296
  916ACTN    C1 9619   0.532   6.862   4.843  0.6364 -0.3160  0.3957
  916ACTN    H1 9620   0.592   6.850   4.752  2.6526  1.2418  1.4800
  916ACTN    H2 9621   0.429   6.836   4.821  0.3844 -0.2232  1.4450
  916ACTN    H3 9622   0.572   6.787   4.911 -0.7371 -0.1063  1.4423
  917ACTN    H6 9623   1.661   8.044   8.110 -0.1157 -0.1603 -0.1393
  917ACTN    C3 9624   1.561   8.078   8.139 -0.1639 -0.6616  0.2880
  917ACTN    H4 9625   1.585   8.130   8.232  1.7569 -0.9800  0.0054
  917ACTN    H5 9626   1.511   8.140   8.066 -0.5743 -1.7838 -0.3868
  917ACTN    C2 9627   1.453   7.973   8.167 -0.6806  0.3432 -0.0086
  917ACTN    O1 9628   1.466   7.854   8.119 -0.0954 -0.3167 -0.5446
  917ACTN    C1 9629   1.337   8.016   8.253  0.4874 -0.6350  0.2588
  917ACTN    H1 9630   1.288   8.104   8.212  1.0131 -0.3014  0.3500
  917ACTN    H2 9631   1.362   8.034   8.358  1.3016 -0.7809  0.0868
  917ACTN    H3 9632   1.260   7.939   8.257  0.0890 -0.2408  0.2081
  918ACTN    H6 9633   6.669   4.829   3.787  0.7072  0.8204  0.5132
  918ACTN    C3 9634   6.593   4.907   3.780 -0.4045 -0.3383 -0.4617
  918ACTN    H4 9635   6.535   4.876   3.693  1.3739 -1.6969 -1.2066
  918ACTN    H5 9636   6.526   4.893   3.865 -1.2697 -1.7383 -1.3400
  918ACTN    C2 9637   6.643   5.044   3.775 -0.3766  0.4619  0.1695
  918ACTN    O1 9638   6.622   5.113   3.674 -0.0403  0.3592  0.9076
  918ACTN    C1 9639   6.727   5.105   3.884  0.5020  0.4544  0.4888
  918ACTN    H1 9640   6.826   5.059   3.890 -0.5380 -2.1144 -0.8667
  918ACTN    H2 9641   6.683   5.083   3.981  0.5416  2.4051  0.9618
  918ACTN    H3 9642   6.740   5.212   3.872 -0.3010  1.0756  4.5052
  919ACTN    H6 9643   8.211   1.083   1.122 -0.6696 -0.6731 -0.5289
  919ACTN    C3 9644   8.149   1.169   1.098  0.1767  0.1255  0.1300
  919ACTN    H4 9645   8.186   1.214   1.006 -0.5762  2.4720  0.9241
  919ACTN    H5 9646   8.045   1.142   1.078 -0.0066  0.0899  1.1084
  919ACTN    C2 9647   8.157   1.278   1.201 -0.0296 -0.4365  0.0395
  919ACTN    O1 9648   8.107   1.390   1.178  0.5866  0.0686  0.7777
  919ACTN    C1 9649   8.219   1.256   1.330  0.1090  0.2684  0.1969
  919ACTN    H1 9650   8.284   1.342   1.343  1.9444 -0.9946 -0.3508
  919ACTN    H2 9651   8.274   1.162   1.320 -0.7965 -0.3798  1.2528
  919ACTN    H3 9652   8.145   1.247   1.409  0.3024  0.2162  0.3749
  920ACTN    H6 9653   0.882   6.950   4.126  0.8865  3.0315  0.9646
  920ACTN    C3 9654   0.927   6.955   4.027  0.0618  0.1569  0.3695
  920ACTN    H4 9655   0.864   7.011   3.959 -2.0976 -3.9683 -1.1584
  920ACTN    H5 9656   1.027   7.000   4.032 -0.0083  0.2962  0.5271
  920ACTN    C2 9657   0.939   6.815   3.978  0.6841  0.2709  0.3794
  920ACTN    O1 9658   1.018   6.789   3.883 -0.0633  0.0473 -0.4775
  920ACTN    C1 9659   0.854   6.702   4.020  0.0393  0.2561 -0.1011
  920ACTN    H1 9660   0.853   6.703   4.129 -2.1017 -2.2285 -0.0507
  920ACTN    H2 9661   0.861   6.598   3.986  0.3565 -0.5528  2.3393
  920ACTN    H3 9662   0.751   6.727   3.998  0.4183  1.5085 -0.4950
  921ACTN    H6 9663   8.171   6.896   7.180  0.5044 -0.2869 -0.2896
  921ACTN    C3 9664   8.145   7.000   7.162  0.5047 -0.3139 -0.4453
  921ACTN    H4 9665   8.210   7.045   7.087  1.6165 -2.0887 -0.5596
  921ACTN    H5 9666   8.047   6.980   7.120  0.7972 -1.1451 -0.7411
  921ACTN    C2 9667   8.132   7.076   7.291  0.4028  0.6174  0.3375
  921ACTN    O1 9668   8.026   7.066   7.355  0.8791 -1.0452  0.0265
  921ACTN    C1 9669   8.240   7.173   7.331  0.1376  0.0547 -0.3455
  921ACTN    H1 9670   8.202   7.274   7.348 -2.7662 -1.3199  1.5118
  921ACTN    H2 9671   8.309   7.180   7.246  0.1169  4.4844 -0.1075
  921ACTN    H3 9672   8.296   7.136   7.417  1.3531 -4.1430 -2.8005
  922ACTN    H6 9673   2.675   8.451   4.376 -1.6970 -0.4089 -0.4805
  922ACTN    C3 9674   2.637   8.407   4.468  0.0992  0.0025  0.4910
  922ACTN    H4 9675   2.545   8.364   4.429 -0.8722 -0.3967  3.1100
  922ACTN    H5 9676   2.703   8.326   4.497  4.7789  2.9519 -1.4528
  922ACTN    C2 9677   2.623   8.508   4.582  0.3811 -0.0474  0.4583
  922ACTN    O1 9678   2.681   8.618   4.586 -0.0345 -0.7567 -0.0084
  922ACTN    C1 9679   2.536   8.455   4.692 -0.1230  0.5760 -0.2100
  922ACTN    H1 9680   2.596   8.416   4.774 -0.0582  0.7552 -0.1726
  922ACTN    H2 9681   2.465   8.377   4.664 -1.2802  0.9822  1.5347
  922ACTN    H3 9682   2.477   8.536   4.735  0.1753  0.5872  0.1789
  923ACTN    H6 9683   6.800   6.854   7.764 -2.5786  1.8919  1.5623
  923ACTN    C3 9684   6.801   6.801   7.859  0.3797 -0.5283  0.2651
  923ACTN    H4 9685   6.898   6.755   7.878  0.8201 -0.8853 -2.7308
  923ACTN    H5 9686   6.784   6.874   7.938 -0.3690  0.3378 -0.6897
  923ACTN    C2 9687   6.690   6.698   7.870 -0.4676  0.9054  0.5616
  923ACTN    O1 9688   6.645   6.672   7.979  0.1803  0.2227  0.4758
  923ACTN    C1 9689   6.617   6.651   7.747 -0.4264  0.1942  0.2201
  923ACTN    H1 9690   6.683   6.633   7.663 -1.2726 -0.0708 -0.3935
  923ACTN    H2 9691   6.533   6.719   7.730 -0.6684  0.1514  1.1797
  923ACTN    H3 9692   6.565   6.559   7.775 -1.3353  1.0778  1.5414
  924ACTN    H6 9693   5.883   0.390   1.046 -0.4192 -0.6353  0.5607
  924ACTN    C3 9694   5.800   0.360   0.981 -0.0997  0.6524 -0.4675
  924ACTN    H4 9695   5.784   0.433   0.902 -1.2589  1.6281  0.6505
  924ACTN    H5 9696   5.820   0.267   0.929 -2.1171  1.3895 -2.6382
  924ACTN    C2 9697   5.684   0.339   1.074  0.2157  0.1950 -0.5911
  924ACTN    O1 9698   5.697   0.385   1.190 -0.6019 -0.4061 -0.1944
  924ACTN    C1 9699   5.562   0.252   1.034 -0.3267  0.2047 -0.2205
  924ACTN    H1 9700   5.590   0.154   0.995 -0.0845  0.0124  0.4396
  924ACTN    H2 9701   5.497   0.295   0.957 -2.6537 -0.8254  1.1131
  924ACTN    H3 9702   5.498   0.237   1.121 -1.2826 -1.6284 -1.2064
  925ACTN    H6 9703   7.256   0.834   2.070  0.2408 -0.2262  0.5979
  925ACTN    C3 9704   7.208   0.837   2.168 -0.3189  0.2424  0.3115
  925ACTN    H4 9705   7.117   0.781   2.187  1.4712 -2.0464  2.5326
  925ACTN    H5 9706   7.293   0.793   2.220  1.6261  1.3967 -1.8053
  925ACTN    C2 9707   7.207   0.976   2.200 -0.3063 -0.1085  0.0472
  925ACTN    O1 9708   7.123   1.046   2.145 -0.0622  0.1997  0.1502
  925ACTN    C1 9709   7.279   1.020   2.324 -1.3477 -0.0352 -0.2497
  925ACTN    H1 9710   7.315   1.123   2.318 -2.7644  0.4709 -0.2009
  925ACTN    H2 9711   7.365   0.954   2.339 -1.5336 -0.2299 -0.0521
  925ACTN    H3 9712   7.204   1.001   2.401  0.1556 -2.1291  0.7583
  926ACTN    H6 9713   8.200   3.020   0.587  0.1802 -1.1143 -1.0890
  926ACTN    C3 9714   8.242   3.003   0.686 -0.2364 -0.4917 -0.8029
  926ACTN    H4 9715   8.176   3.035   0.766  2.1806 -0.3172  1.2060
  926ACTN    H5 9716   8.249   2.895   0.700 -2.6228 -0.4660  0.7966
  926ACTN    C2 9717   8.372   3.064   0.709 -0.7424 -0.5542  0.3325
  926ACTN    O1 9718   8.449   3.081   0.617  0.4325 -0.4753  0.8303
  926ACTN    C1 9719   8.404   3.110   0.849  0.9241  0.2053 -0.5250
  926ACTN    H1 9720   8.315   3.115   0.911  0.1508 -1.4512 -1.4637
  926ACTN    H2 9721   8.458   3.205   0.849  0.0483  0.7012 -0.4017
  926ACTN    H3 9722   8.462   3.029   0.893 -0.8966 -1.7342 -1.5872
  927ACTN    H6 9723   7.846   2.065   8.467  0.0950  0.5892 -0.2488
  927ACTN    C3 9724   7.787   2.013   8.391  0.1147 -0.6612  0.5789
  927ACTN    H4 9725   7.710   2.084   8.359  0.9644 -0.2946 -0.6637
  927ACTN    H5 9726   7.860   1.994   8.313  0.3869  0.3650  0.5747
  927ACTN    C2 9727   7.720   1.890   8.447 -0.0285  0.2449 -0.4393
  927ACTN    O1 9728   7.789   1.808   8.511  0.4948 -0.2842  0.3947
  927ACTN    C1 9729   7.562   1.880   8.459 -0.0080  0.0869  0.3621
  927ACTN    H1 9730   7.524   1.963   8.519  0.4657 -0.4349  1.3953
  927ACTN    H2 9731   7.533   1.789   8.511  0.0231  0.8179  1.6952
  927ACTN    H3 9732   7.516   1.895   8.362  0.3344  1.0965  0.3439
  928ACTN    H6 9733   6.990   0.961   7.358  1.0064 -1.0077  0.6789
  928ACTN    C3 9734   6.942   0.977   7.455 -0.3042  0.3504 -0.1562
  928ACTN    H4 9735   6.837   1.003   7.449 -0.7043 -0.3423  2.9488
  928ACTN    H5 9736   6.959   0.891   7.520 -0.5270  2.1538  2.3567
  928ACTN    C2 9737   7.016   1.089   7.522  0.2666 -0.1844  0.5184
  928ACTN    O1 9738   7.017   1.200   7.469 -0.1867  0.5133 -0.2746
  928ACTN    C1 9739   7.101   1.062   7.647 -0.2385 -0.2395 -0.0492
  928ACTN    H1 9740   7.205   1.047   7.620 -0.1109  0.5350  0.0219
  928ACTN    H2 9741   7.061   0.974   7.697 -1.6058  0.5893  0.3454
  928ACTN    H3 9742   7.101   1.146   7.716 -1.1286 -1.5805  1.6290
  929ACTN    H6 9743   5.084   4.084   3.988 -0.5866  1.0664 -1.0344
  929ACTN    C3 9744   5.164   4.129   3.929  0.6178  0.0511 -0.2070
  929ACTN    H4 9745   5.259   4.099   3.973  0.1092  1.1056  1.6539
  929ACTN    H5 9746   5.157   4.109   3.822 -0.2198  1.9022 -0.5185
  929ACTN    C2 9747   5.155   4.275   3.955 -0.2586 -0.2847  0.0610
  929ACTN    O1 9748   5.216   4.323   4.055  0.6076 -0.5062  0.4432
  929ACTN    C1 9749   5.113   4.372   3.845  0.0851 -0.0371 -0.5617
  929ACTN    H1 9750   5.201   4.405   3.791  1.1586 -1.8523  0.0126
  929ACTN    H2 9751   5.064   4.460   3.886 -0.0362 -0.1181 -0.5295
  929ACTN    H3 9752   5.045   4.330   3.770 -0.4774  0.6285 -0.4267
  930ACTN    H6 9753   7.807   4.232   1.776 -3.4774  1.2582 -3.0523
  930ACTN    C3 9754   7.887   4.232   1.702 -0.7043 -0.4761 -0.1718
  930ACTN    H4 9755   7.968   4.294   1.741 -0.8454 -1.5588  1.8762
  930ACTN    H5 9756   7.925   4.130   1.690  0.0802 -0.1330 -0.6818
  930ACTN    C2 9757   7.827   4.297   1.577  0.5330  0.8467 -0.0462
  930ACTN    O1 9758   7.722   4.248   1.539  0.1011 -0.4121  0.2251
  930ACTN    C1 9759   7.881   4.434   1.543 -0.5137 -0.1760  0.2196
  930ACTN    H1 9760   7.799   4.506   1.535 -1.6160 -1.4309  0.1002
  930ACTN    H2 9761   7.935   4.433   1.448  0.6796  0.2697  0.8893
  930ACTN    H3 9762   7.948   4.473   1.619 -0.6501 -0.0110  0.2567
  931ACTN    H6 9763   6.169   3.413   4.503 -0.8629  1.0381  0.3409
  931ACTN    C3 9764   6.070   3.379   4.470  0.1773 -1.3597 -0.4309
  931ACTN    H4 9765   6.014   3.332   4.550 -2.1090 -0.3836 -1.4295
  931ACTN    H5 9766   6.006   3.464   4.446  1.9593 -0.4973 -2.2664
  931ACTN    C2 9767   6.080   3.287   4.357 -0.8438 -0.8877  0.0190
  931ACTN    O1 9768   6.189   3.236   4.329 -0.8438 -0.0892 -0.3302
  931ACTN    C1 9769   5.955   3.229   4.306  0.5804  0.1681 -0.0312
  931ACTN    H1 9770   5.862   3.277   4.335  1.6628  2.6139 -0.4970
  931ACTN    H2 9771   5.962   3.128   4.347  0.0062  0.4563  0.7818
  931ACTN    H3 9772   5.960   3.227   4.197 -1.4078 -0.7487 -0.1295
  932ACTN    H6 9773   0.816   8.235   7.657 -0.8608  1.3403  0.9862
  932ACTN    C3 9774   0.828   8.323   7.594  0.2848  0.4973  0.0128
  932ACTN    H4 9775   0.855   8.281   7.497 -2.3549  0.0472 -0.5663
  932ACTN    H5 9776   0.733   8.377   7.587  0.9583  2.2498  3.4050
  932ACTN    C2 9777   0.932   8.424   7.640  0.3038 -0.1279  0.3303
  932ACTN    O1 9778   0.921   8.452   7.758  0.3951  0.2666  0.1005
  932ACTN    C1 9779   1.039   8.474   7.556  0.0771  0.2677 -0.7191
  932ACTN    H1 9780   1.039   8.430   7.456  3.9022  1.1804 -1.2152
  932ACTN    H2 9781   1.134   8.432   7.589 -0.0854  1.0144  0.7320
  932ACTN    H3 9782   1.051   8.583   7.553  0.6621  0.1931 -1.2038
  933ACTN    H6 9783   1.418   3.341   1.929 -1.3456 -2.0592  3.2140
  933ACTN    C3 9784   1.435   3.426   1.995  0.2747  0.1217  0.1572
  933ACTN    H4 9785   1.538   3.458   1.982  1.7364 -3.4130  2.1997
  933ACTN    H5 9786   1.361   3.502   1.974 -0.5266 -1.0481 -1.3216
  933ACTN    C2 9787   1.432   3.369   2.134  0.5376 -0.1395 -0.6485
  933ACTN    O1 9788   1.385   3.255   2.149  0.1663  0.5707 -0.4628
  933ACTN    C1 9789   1.471   3.457   2.254 -0.5976 -0.6117  0.0273
  933ACTN    H1 9790   1.562   3.414   2.297 -1.7453  0.7680  3.9752
  933ACTN    H2 9791   1.389   3.448   2.325 -1.3010 -2.6576 -0.9760
  933ACTN    H3 9792   1.486   3.563   2.234  0.6047 -0.5574  1.1440
  934ACTN    H6 9793   5.521   7.440   5.879 -2.8857  2.6927  2.5776
  934ACTN    C3 9794   5.501   7.481   5.780  1.0118  0.5416  0.8050
  934ACTN    H4 9795   5.554   7.574   5.764  1.8660  0.3975  2.6157
  934ACTN    H5 9796   5.523   7.414   5.697  1.3583  0.0390  1.3001
  934ACTN    C2 9797   5.352   7.497   5.792 -0.1490  0.3217  0.4572
  934ACTN    O1 9798   5.304   7.480   5.900  0.3564  0.6876  0.2254
  934ACTN    C1 9799   5.262   7.527   5.672 -0.7415  0.1550  0.8296
  934ACTN    H1 9800   5.268   7.441   5.605  0.8724  1.2851 -0.5013
  934ACTN    H2 9801   5.310   7.607   5.615 -1.5874  1.6661  2.1918
  934ACTN    H3 9802   5.163   7.569   5.693  0.2429  3.9804 -1.6023
  935ACTN    H6 9803   0.591   0.549   2.524  1.1778 -1.5970  2.2288
  935ACTN    C3 9804   0.511   0.599   2.579 -0.0426  0.2460 -1.0876
  935ACTN    H4 9805   0.498   0.702   2.547 -0.2728  0.8750  0.9857
  935ACTN    H5 9806   0.422   0.544   2.549  0.8308 -1.6558 -0.2733
  935ACTN    C2 9807   0.539   0.586   2.723  0.5468 -0.4757 -0.0368
  935ACTN    O1 9808   0.586   0.684   2.778 -0.5221  0.9451 -0.1144
  935ACTN    C1 9809   0.535   0.458   2.800 -0.1694  0.0144 -0.1632
  935ACTN    H1 9810   0.560   0.470   2.905  2.5350 -1.1639 -0.6104
  935ACTN    H2 9811   0.605   0.381   2.766 -1.0637 -2.9533  4.3108
  935ACTN    H3 9812   0.435   0.416   2.802 -0.6289  1.0072 -1.4928
  936ACTN    H6 9813   0.093   5.402   5.783 -1.4485  1.0215  0.0101
  936ACTN    C3 9814   0.073   5.361   5.683  0.4715  0.6554 -0.2395
  936ACTN    H4 9815  -0.022   5.310   5.671  1.6156 -1.2535 -1.3921
  936ACTN    H5 9816   0.094   5.437   5.609  0.2081  0.1424 -0.8436
  936ACTN    C2 9817   0.173   5.252   5.657  0.4366 -0.1094 -0.4951
  936ACTN    O1 9818   0.196   5.221   5.541  0.5275  0.1456 -0.1149
  936ACTN    C1 9819   0.198   5.163   5.771  0.0087  0.6920 -0.4383
  936ACTN    H1 9820   0.211   5.217   5.865 -4.3189  1.7047 -0.3527
  936ACTN    H2 9821   0.287   5.102   5.755  0.9522  1.8298  0.3592
  936ACTN    H3 9822   0.119   5.089   5.786  2.1863 -1.7266 -0.4901
  937ACTN    H6 9823   4.605   5.021   8.344 -0.2228 -1.0551  1.0766
  937ACTN    C3 9824   4.682   5.059   8.412 -0.1226  0.0779  0.3453
  937ACTN    H4 9825   4.700   4.994   8.497  0.3618  1.2808  1.1719
  937ACTN    H5 9826   4.768   5.058   8.344  0.8873 -1.4176  1.6151
  937ACTN    C2 9827   4.651   5.196   8.461 -0.1872  0.1328  0.9880
  937ACTN    O1 9828   4.697   5.297   8.411  0.4103 -0.5316 -0.3258
  937ACTN    C1 9829   4.559   5.219   8.576 -0.3805 -0.2238  0.6501
  937ACTN    H1 9830   4.504   5.134   8.616  1.3419 -1.1702  1.0200
  937ACTN    H2 9831   4.487   5.299   8.561 -0.6442 -0.7263 -0.8685
  937ACTN    H3 9832   4.616   5.253   8.663 -1.6018 -2.2422  2.2744
  938ACTN    H6 9833   8.479   3.987   8.650  2.9860 -0.0262 -1.1203
  938ACTN    C3 9834   8.486   3.879   8.668  0.6774 -0.0738 -0.3674
  938ACTN    H4 9835   8.589   3.845   8.657  1.2270  1.4471 -0.0519
  938ACTN    H5 9836   8.458   3.866   8.773 -1.6535  2.0845 -0.6457
  938ACTN    C2 9837   8.387   3.801   8.580 -0.6829 -1.1374  0.5642
  938ACTN    O1 9838   8.273   3.843   8.567  0.1270 -0.4009 -1.0602
  938ACTN    C1 9839   8.448   3.692   8.496 -0.0746 -0.2996 -0.3241
  938ACTN    H1 9840   8.447   3.597   8.549  0.2423 -2.0707 -3.3828
  938ACTN    H2 9841   8.551   3.715   8.469 -0.0003  0.0939  0.2925
  938ACTN    H3 9842   8.396   3.672   8.402  0.5158  1.6191 -1.0799
  939ACTN    H6 9843   4.599   5.769   6.805  1.9521  0.0530  2.1616
  939ACTN    C3 9844   4.674   5.720   6.742  0.3940  0.2343  0.1327
  939ACTN    H4 9845   4.765   5.714   6.801  0.9686  0.8786 -0.6829
  939ACTN    H5 9846   4.650   5.615   6.723  0.7946  0.2492 -0.4717
  939ACTN    C2 9847   4.698   5.796   6.619  0.1165 -0.0459  0.7119
  939ACTN    O1 9848   4.702   5.739   6.511  0.0567 -0.5095 -0.1197
  939ACTN    C1 9849   4.698   5.944   6.621 -0.0073 -0.1860 -0.2454
  939ACTN    H1 9850   4.598   5.987   6.632 -0.6178 -1.9037  1.1746
  939ACTN    H2 9851   4.750   5.985   6.534  0.6360  0.2907  0.3609
  939ACTN    H3 9852   4.757   5.986   6.702 -0.9917  2.2907 -0.7591
  940ACTN    H6 9853   8.087   4.429   7.346 -1.1232 -1.4710 -1.0620
  940ACTN    C3 9854   7.984   4.464   7.347 -0.4282  0.6218 -0.1543
  940ACTN    H4 9855   7.949   4.477   7.450  0.3598 -0.4119  0.2536
  940ACTN    H5 9856   7.984   4.555   7.288 -1.2625 -0.2888 -1.5822
  940ACTN    C2 9857   7.899   4.352   7.283 -0.1455  0.3402  0.0527
  940ACTN    O1 9858   7.805   4.377   7.215 -0.1881 -0.5345 -0.3886
  940ACTN    C1 9859   7.931   4.206   7.303  0.3445  0.0459 -0.6745
  940ACTN    H1 9860   8.026   4.182   7.353 -1.0355 -1.1900  1.4376
  940ACTN    H2 9861   7.940   4.160   7.204  0.2492  0.1638 -0.7359
  940ACTN    H3 9862   7.846   4.157   7.350  1.7363 -1.6933  0.1256
  941ACTN    H6 9863   8.257   7.751   1.460 -1.1309  1.4169 -3.5867
  941ACTN    C3 9864   8.311   7.666   1.418 -0.4689  0.3011 -0.6120
  941ACTN    H4 9865   8.341   7.681   1.314  0.1379 -0.6470 -0.5758
  941ACTN    H5 9866   8.401   7.637   1.471  0.4690 -0.0924 -2.4013
  941ACTN    C2 9867   8.222   7.538   1.405 -0.0040  0.0140 -0.2563
  941ACTN    O1 9868   8.101   7.554   1.417  0.3946 -0.1906 -0.1948
  941ACTN    C1 9869   8.273   7.409   1.357  0.4289 -0.4510 -0.3629
  941ACTN    H1 9870   8.376   7.399   1.392  0.7147 -0.3970 -1.1763
  941ACTN    H2 9871   8.274   7.418   1.248  1.9737  3.3228 -0.1406
  941ACTN    H3 9872   8.215   7.325   1.393 -0.7480  1.2684  1.8724
  942ACTN    H6 9873   5.037   3.339   1.677  0.5635  1.6661  1.8782
  942ACTN    C3 9874   4.987   3.258   1.730  0.0896  0.0545 -0.9368
  942ACTN    H4 9875   4.893   3.222   1.688 -0.1258  0.3210 -0.6837
  942ACTN    H5 9876   4.954   3.285   1.830 -1.5757 -0.2394 -1.3933
  942ACTN    C2 9877   5.086   3.148   1.753 -0.1844 -0.7901 -0.7708
  942ACTN    O1 9878   5.185   3.163   1.836 -0.0682  0.2248 -0.3298
  942ACTN    C1 9879   5.080   3.029   1.671 -0.0536  0.0666  0.6158
  942ACTN    H1 9880   4.984   2.982   1.693 -1.5811  0.8092 -4.0009
  942ACTN    H2 9881   5.153   2.952   1.696 -1.6322 -1.2182  1.3602
  942ACTN    H3 9882   5.089   3.045   1.564 -0.8785 -0.0407  0.5236
  943ACTN    H6 9883   8.749   6.158   8.225 -0.1514  0.4431 -1.1010
  943ACTN    C3 9884   8.805   6.081   8.172 -0.8189 -1.0174  0.2706
  943ACTN    H4 9885   8.890   6.046   8.230 -0.6190 -2.4965 -0.8835
  943ACTN    H5 9886   8.739   5.995   8.161 -1.3828 -0.4721 -0.6655
  943ACTN    C2 9887   8.842   6.138   8.038 -0.0547 -0.0107 -0.4265
  943ACTN    O1 9888   8.939   6.094   7.980 -0.2554 -0.3256 -0.1469
  943ACTN    C1 9889   8.745   6.212   7.958  0.1445 -0.8491 -0.1179
  943ACTN    H1 9890   8.743   6.175   7.856  0.5798 -1.6938  0.1735
  943ACTN    H2 9891   8.775   6.316   7.957  2.8176 -1.6005 -1.0766
  943ACTN    H3 9892   8.644   6.209   7.999  0.2236  0.4018  0.1627
  944ACTN    H6 9893   8.089   6.292   0.340  0.6188 -1.0983 -0.0670
  944ACTN    C3 9894   7.986   6.277   0.308  0.5135 -0.5097 -0.0174
  944ACTN    H4 9895   7.945   6.363   0.256  1.7230 -0.5604 -1.0863
  944ACTN    H5 9896   7.984   6.192   0.240 -0.2239  0.2955 -1.0209
  944ACTN    C2 9897   7.888   6.233   0.419 -1.0063 -0.7971 -0.0918
  944ACTN    O1 9898   7.774   6.252   0.399 -0.0481 -0.1930 -0.4789
  944ACTN    C1 9899   7.946   6.184   0.549  0.1110  0.0728  0.5866
  944ACTN    H1 9900   8.039   6.239   0.562 -0.8474  3.2946 -4.6220
  944ACTN    H2 9901   7.963   6.077   0.551 -2.6803 -0.4035  0.9439
  944ACTN    H3 9902   7.883   6.212   0.634  1.9006  1.7733  1.3668
  945ACTN    H6 9903   2.663   2.196   7.502  0.0024 -0.0609  0.2276
  945ACTN    C3 9904   2.604   2.234   7.418 -0.2733 -0.1614  0.3720
  945ACTN    H4 9905   2.638   2.181   7.329 -3.0009  1.9447 -1.9976
  945ACTN    H5 9906   2.497   2.216   7.427 -0.1703 -0.1326  1.8054
  945ACTN    C2 9907   2.635   2.378   7.396  1.0566 -0.1419 -0.0524
  945ACTN    O1 9908   2.549   2.455   7.433  0.3032 -0.6488  0.0829
  945ACTN    C1 9909   2.768   2.418   7.339 -0.1693 -0.8667 -0.5738
  945ACTN    H1 9910   2.834   2.333   7.324 -0.3220 -0.5335 -3.4078
  945ACTN    H2 9911   2.816   2.493   7.402 -2.5911  0.5486 -0.3547
  945ACTN    H3 9912   2.746   2.456   7.239 -1.0728 -0.2156 -0.1272
  946ACTN    H6 9913   1.554   1.998   1.128  0.6787  0.7041  0.5351
  946ACTN    C3 9914   1.508   1.993   1.227  0.9540  0.1243  0.6352
  946ACTN    H4 9915   1.400   1.994   1.214  1.1003  0.9480 -0.5874
  946ACTN    H5 9916   1.534   1.896   1.269  0.1711  0.2333  1.3877
  946ACTN    C2 9917   1.537   2.114   1.306 -0.4970 -0.4741 -0.1338
  946ACTN    O1 9918   1.540   2.223   1.256  0.5591 -0.4150  0.4355
  946ACTN    C1 9919   1.528   2.097   1.457 -0.5517 -0.0488 -1.1479
  946ACTN    H1 9920   1.598   2.159   1.515 -2.0005  1.7876 -1.3233
  946ACTN    H2 9921   1.546   1.994   1.488  0.7847  0.7675  0.8960
  946ACTN    H3 9922   1.428   2.129   1.484  0.5901  2.3241  0.5085
  947ACTN    H6 9923   3.891   0.145   3.384 -0.7311  2.7294  0.1391
  947ACTN    C3 9924   3.904   0.150   3.492  0.5871 -0.2308  0.1514
  947ACTN    H4 9925   3.803   0.172   3.525  0.2852 -0.9784 -0.2511
  947ACTN    H5 9926   3.973   0.232   3.509  0.6484 -0.6601  2.0957
  947ACTN    C2 9927   3.950   0.030   3.561 -0.3903 -0.3386 -0.6371
  947ACTN    O1 9928   3.991  -0.070   3.501 -0.0312 -0.5444  0.4152
  947ACTN    C1 9929   3.954   0.034   3.709 -0.2842 -0.0154  0.0035
  947ACTN    H1 9930   3.994  -0.060   3.749  1.3162  1.9950  3.3112
  947ACTN    H2 9931   3.855   0.049   3.752 -0.2325  0.2180  0.0384
  947ACTN    H3 9932   4.029   0.110   3.728 -0.1982 -0.4918  1.6584
  948ACTN    H6 9933   0.600   7.435   3.361  1.7442 -0.8315  3.8056
  948ACTN    C3 9934   0.530   7.510   3.398  0.8937  0.2034  0.2832
  948ACTN    H4 9935   0.468   7.456   3.470  0.0308 -0.3023 -0.8230
  948ACTN    H5 9936   0.587   7.584   3.454  0.5272 -0.2289  1.2376
  948ACTN    C2 9937   0.466   7.576   3.283 -0.5486  0.5438  0.6768
  948ACTN    O1 9938   0.478   7.696   3.273  0.4079  0.3258  0.1701
  948ACTN    C1 9939   0.384   7.496   3.185  0.1602 -0.5899  0.7249
  948ACTN    H1 9940   0.342   7.551   3.101  0.2081 -1.0728  0.3834
  948ACTN    H2 9941   0.305   7.450   3.243  0.5332 -2.0426  0.0976
  948ACTN    H3 9942   0.447   7.423   3.134  0.0916 -0.6534  0.7299
  949ACTN    H6 9943   6.054   3.507   7.811  0.7708 -1.6470 -1.8405
  949ACTN    C3 9944   6.044   3.432   7.889  0.1321  0.0871 -0.2264
  949ACTN    H4 9945   5.953   3.460   7.941  0.9421 -1.9922  2.4535
  949ACTN    H5 9946   6.027   3.332   7.850 -1.6862 -0.1230  1.0463
  949ACTN    C2 9947   6.155   3.435   7.990  0.1735 -0.4296  1.1865
  949ACTN    O1 9948   6.197   3.544   8.031 -0.5167 -0.2847  0.2206
  949ACTN    C1 9949   6.192   3.299   8.034 -0.1224  0.2131 -0.5383
  949ACTN    H1 9950   6.108   3.235   8.058 -0.7683  1.2877  0.1053
  949ACTN    H2 9951   6.263   3.307   8.117  0.9758  3.5546 -1.6979
  949ACTN    H3 9952   6.242   3.253   7.949 -0.8651 -0.9761 -0.3372
  950ACTN    H6 9953   4.874   0.028   3.585  0.2694  0.1276 -0.0277
  950ACTN    C3 9954   4.766   0.032   3.586  0.2468 -0.4339 -0.0461
  950ACTN    H4 9955   4.728  -0.008   3.680 -1.2726 -0.0066 -0.4571
  950ACTN    H5 9956   4.730   0.135   3.580 -0.3199 -0.6014  0.3808
  950ACTN    C2 9957   4.704  -0.036   3.472  0.0252 -0.4070 -0.2923
  950ACTN    O1 9958   4.585  -0.022   3.460  0.0611  0.4302 -0.2067
  950ACTN    C1 9959   4.787  -0.096   3.359 -0.6120 -0.0442 -0.1254
  950ACTN    H1 9960   4.875  -0.047   3.317  1.3705 -0.8642  2.8595
  950ACTN    H2 9961   4.724  -0.129   3.277 -0.9765 -2.2040  0.9744
  950ACTN    H3 9962   4.828  -0.186   3.405 -0.0429 -0.3542 -1.2261
  951ACTN    H6 9963   0.137   0.053   2.548 -1.0718  1.0128  3.4048
  951ACTN    C3 9964   0.097  -0.048   2.563  0.8722 -0.3190  0.0854
  951ACTN    H4 9965   0.113  -0.110   2.475 -1.4942 -0.3978 -0.3307
  951ACTN    H5 9966   0.140  -0.087   2.655  0.6286  2.4224  1.4258
  951ACTN    C2 9967  -0.052  -0.052   2.584 -0.2654  0.3628  0.1564
  951ACTN    O1 9968  -0.126  -0.001   2.500  0.1524 -0.1430  0.0204
  951ACTN    C1 9969  -0.115  -0.103   2.713 -0.1293  0.0530  0.6601
  951ACTN    H1 9970  -0.118  -0.212   2.717 -1.5202 -0.0102 -1.2696
  951ACTN    H2 9971  -0.214  -0.061   2.727  0.7438  2.0474  0.9829
  951ACTN    H3 9972  -0.056  -0.062   2.795 -0.1144 -0.1767  0.7655
  952ACTN    H6 9973   6.053   2.935   6.783 -2.1135  1.2213  0.1708
  952ACTN    C3 9974   6.012   2.921   6.683  0.0347  0.7175 -0.6491
  952ACTN    H4 9975   5.926   2.857   6.702  1.1565 -0.1514  1.7647
  952ACTN    H5 9976   5.986   3.020   6.646  1.5754  0.3063 -2.9633
  952ACTN    C2 9977   6.106   2.838   6.604 -0.0735 -0.7960 -0.2578
  952ACTN    O1 9978   6.109   2.844   6.476  0.1135 -0.3501  0.7679
  952ACTN    C1 9979   6.223   2.775   6.677  0.6520 -0.9319  0.6274
  952ACTN    H1 9980   6.313   2.773   6.616 -0.6026  0.0293 -1.2755
  952ACTN    H2 9981   6.183   2.676   6.701 -0.0121 -0.4931  1.3739
  952ACTN    H3 9982   6.243   2.817   6.775  0.8401  1.4706 -0.4273
  953ACTN    H6 9983   2.579   2.472   5.361  1.4676  0.6898 -1.5911
  953ACTN    C3 9984   2.597   2.575   5.391  0.4372  0.4885 -0.2007
  953ACTN    H4 9985   2.537   2.581   5.481 -1.0328 -2.0380 -0.9741
  953ACTN    H5 9986   2.703   2.593   5.410  0.0617  2.1560  0.4714
  953ACTN    C2 9987   2.546   2.662   5.282 -0.1565 -0.3710  0.4901
  953ACTN    O1 9988   2.538   2.628   5.162  0.1745 -0.4392  0.3905
  953ACTN    C1 9989   2.463   2.778   5.322  0.0251 -0.6716 -0.5539
  953ACTN    H1 9990   2.500   2.868   5.274  1.2631 -0.8184  0.1107
  953ACTN    H2 9991   2.479   2.789   5.429 -1.3865 -1.1460 -0.2772
  953ACTN    H3 9992   2.361   2.759   5.286  0.6122 -1.2321 -1.9578
  954ACTN    H6 9993   0.021   4.529   8.213 -1.4181 -1.7757  0.0763
  954ACTN    C3 9994   0.112   4.483   8.253 -0.3843  0.4782  0.3488
  954ACTN    H4 9995   0.085   4.378   8.245 -0.0330  0.3367  0.9771
  954ACTN    H5 9996   0.192   4.498   8.181 -1.1134 -1.8648 -1.0011
  954ACTN    C2 9997   0.142   4.517   8.390 -0.1792  0.0367 -0.5818
  954ACTN    O1 9998   0.058   4.561   8.471  0.6902 -0.4084 -0.4616
  954ACTN    C1 9999   0.276   4.473   8.449  0.5735  0.8282  0.4479
  954ACTN    H110000   0.350   4.550   8.470  1.4660  0.1791 -0.2547
  954ACTN    H210001   0.331   4.411   8.378  0.3925  1.2894 -0.0972
  954ACTN    H310002   0.270   4.420   8.544 -0.0819 -0.8744 -0.5167
  955ACTN    H610003   5.210   2.042   3.556 -0.3142  0.4627 -1.0528
  955ACTN    C310004   5.116   2.096   3.550 -0.7806 -0.2681 -0.3393
  955ACTN    H410005   5.073   2.094   3.450 -0.7195 -0.1701 -0.3677
  955ACTN    H510006   5.050   2.051   3.625  0.0572  1.4625  1.4756
  955ACTN    C210007   5.155   2.232   3.609  0.4442 -0.6838  0.2465
  955ACTN    O110008   5.187   2.251   3.728 -0.0724 -0.3316 -0.5258
  955ACTN    C110009   5.160   2.341   3.514 -0.0342  0.0630  0.1485
  955ACTN    H110010   5.255   2.333   3.460  1.6693  0.0641  3.0142
  955ACTN    H210011   5.161   2.434   3.570  0.7452  0.4835 -0.5462
  955ACTN    H310012   5.083   2.338   3.437  0.8970 -3.4171 -0.7754
  956ACTN    H610013   1.628   8.745   4.233 -1.9274  2.0389 -2.8062
  956ACTN    C310014   1.708   8.810   4.196  0.3536  0.6532 -0.5051
  956ACTN    H410015   1.660   8.903   4.165  0.5896  0.7058 -0.7002
  956ACTN    H510016   1.768   8.836   4.283  0.4472  2.4514 -1.0893
  956ACTN    C210017   1.796   8.752   4.093  0.5322  0.2455 -0.4735
  956ACTN    O110018   1.855   8.641   4.113  0.0501  0.1289  0.0273
  956ACTN    C110019   1.826   8.841   3.982  0.1748 -0.7734 -0.0279
  956ACTN    H110020   1.743   8.832   3.912  0.4068 -0.0274 -0.4155
  956ACTN    H210021   1.916   8.815   3.925 -1.3109 -0.5758 -2.5517
  956ACTN    H310022   1.849   8.943   4.016 -0.9161 -0.7904  0.7586
  957ACTN    H610023   1.020   5.884   3.426  0.6100  1.1623  0.1927
  957ACTN    C310024   1.066   5.930   3.338  0.3390 -0.1400 -0.6400
  957ACTN    H410025   1.166   5.966   3.360 -0.7289  0.8872  2.8791
  957ACTN    H510026   1.071   5.862   3.253  1.3029 -1.3907  0.3965
  957ACTN    C210027   0.978   6.041   3.297  0.0304  0.1820  0.0826
  957ACTN    O110028   0.996   6.106   3.202 -0.6793  0.3109 -0.4117
  957ACTN    C110029   0.868   6.065   3.390 -0.2651 -0.2589 -0.0908
  957ACTN    H110030   0.771   6.050   3.344 -0.1315 -1.1896 -0.0778
  957ACTN    H210031   0.862   6.169   3.421 -1.1182 -0.4827  0.5087
  957ACTN    H310032   0.868   6.006   3.481  1.8453  3.8729  2.6978
  958ACTN    H610033   5.394   3.633   6.779  0.0169  0.1473 -0.8864
  958ACTN    C310034   5.425   3.605   6.678  0.4193 -0.1903 -0.6694
  958ACTN    H410035   5.525   3.643   6.656 -0.2099  0.6470 -2.1762
  958ACTN    H510036   5.349   3.648   6.613  0.0511  0.9108  0.4796
  958ACTN    C210037   5.418   3.451   6.667  0.4640 -0.4336  0.0104
  958ACTN    O110038   5.346   3.396   6.747  0.3662  0.5219  0.5739
  958ACTN    C110039   5.485   3.382   6.551  0.0226 -0.5630 -0.8117
  958ACTN    H110040   5.590   3.385   6.578 -0.0503  1.2940 -0.6685
  958ACTN    H210041   5.474   3.429   6.454  0.4208  0.5808 -0.3170
  958ACTN    H310042   5.462   3.276   6.542  3.4952 -1.3833 -0.8105
  959ACTN    H610043   0.134   6.341   6.230  0.1381  0.1261 -1.3984
  959ACTN    C310044   0.227   6.381   6.271 -0.2346 -0.3581 -0.0738
  959ACTN    H410045   0.227   6.486   6.241  0.9997  0.1838  1.7656
  959ACTN    H510046   0.229   6.372   6.380  3.6172  1.4276  0.0672
  959ACTN    C210047   0.345   6.313   6.217 -0.3996 -0.3959  0.3354
  959ACTN    O110048   0.462   6.345   6.252 -0.2820 -0.1845  0.0286
  959ACTN    C110049   0.328   6.172   6.166  0.2639  0.0352  0.0083
  959ACTN    H110050   0.250   6.162   6.090 -0.7006 -0.9339  1.1062
  959ACTN    H210051   0.302   6.105   6.248 -0.6576  1.7917  1.1828
  959ACTN    H310052   0.415   6.127   6.119  1.4373 -0.0700  2.2055
  960ACTN    H610053   5.259   2.449   0.992 -1.2692  2.0302  0.9952
  960ACTN    C310054   5.320   2.510   0.926 -0.3939  0.2023  0.0705
  960ACTN    H410055   5.340   2.599   0.986  0.5630  0.4660 -0.6244
  960ACTN    H510056   5.415   2.461   0.904  0.4389  0.5929  2.5531
  960ACTN    C210057   5.266   2.547   0.790 -0.5027  0.0038  0.6509
  960ACTN    O110058   5.346   2.614   0.720  0.3323  0.6044  0.4243
  960ACTN    C110059   5.128   2.508   0.741 -0.0524 -0.2735 -0.1171
  960ACTN    H110060   5.121   2.422   0.674 -2.0475 -0.0576 -0.2034
  960ACTN    H210061   5.082   2.591   0.688 -0.0633 -1.0292 -1.3291
  960ACTN    H310062   5.067   2.488   0.829  0.6298 -3.3306 -0.2743
  961ACTN    H610063   4.993   7.011   3.109  0.0979  0.8360  0.7240
  961ACTN    C310064   5.070   7.006   3.033 -0.0857  0.4381  0.5646
  961ACTN    H410065   5.102   6.901   3.027 -1.6672  0.0237 -1.0915
  961ACTN    H510066   5.156   7.064   3.068  0.6562 -0.0458 -0.4177
  961ACTN    C210067   5.026   7.070   2.902  0.1968 -0.1989  0.0159
  961ACTN    O110068   5.113   7.091   2.817 -0.3281 -0.0924 -0.1941
  961ACTN    C110069   4.876   7.058   2.875  0.1613 -0.1977  0.5243
  961ACTN    H110070   4.855   7.053   2.769  1.3087  0.6440  0.2459
  961ACTN    H210071   4.825   7.148   2.909  1.2345  0.2671  0.9195
  961ACTN    H310072   4.830   6.970   2.920 -1.5910  0.8019  0.7454
  962ACTN    H610073   0.476   4.639   5.624 -2.7514  1.7609  5.0268
  962ACTN    C310074   0.400   4.562   5.611 -0.5996  0.3201 -0.5603
  962ACTN    H410075   0.300   4.607   5.604 -0.2003  1.4460  0.7658
  962ACTN    H510076   0.410   4.500   5.523 -2.5650  0.4622 -0.9129
  962ACTN    C210077   0.386   4.473   5.728 -0.3925 -0.2897  0.1893
  962ACTN    O110078   0.477   4.466   5.809  0.0156  0.2628 -0.3169
  962ACTN    C110079   0.286   4.366   5.720  0.2439  0.3456 -0.4316
  962ACTN    H110080   0.343   4.274   5.731  0.1747  0.3372 -0.1480
  962ACTN    H210081   0.235   4.360   5.624  0.1298 -2.0404 -0.2437
  962ACTN    H310082   0.207   4.372   5.794 -2.0656 -0.3741 -2.7579
  963ACTN    H610083   1.166   8.239   7.818 -1.5876  0.5030  0.2003
  963ACTN    C310084   1.101   8.152   7.809 -0.4722 -0.3323  0.0981
  963ACTN    H410085   1.023   8.169   7.884  0.6192 -0.3775  1.2558
  963ACTN    H510086   1.054   8.155   7.710 -0.2442  0.4633  0.0058
  963ACTN    C210087   1.178   8.029   7.836  0.4697 -0.2761  0.0274
  963ACTN    O110088   1.262   7.987   7.762  0.1212  1.2449  0.0041
  963ACTN    C110089   1.135   7.950   7.959 -0.1371 -0.0704 -0.2738
  963ACTN    H110090   1.193   7.857   7.961 -0.2876 -0.2036 -1.5670
  963ACTN    H210091   1.034   7.918   7.934  0.3728 -2.9082  1.0585
  963ACTN    H310092   1.136   8.001   8.055  3.0497  0.1635 -0.3724
  964ACTN    H610093   1.059   8.335   3.524  2.1315 -1.3413 -0.9156
  964ACTN    C310094   1.109   8.429   3.550  0.0784 -0.5283  0.2037
  964ACTN    H410095   1.215   8.414   3.572  0.7970  1.5464 -1.6845
  964ACTN    H510096   1.101   8.490   3.461  0.1271 -0.6997  0.0807
  964ACTN    C210097   1.033   8.488   3.669  0.0322 -0.1082  0.3337
  964ACTN    O110098   1.078   8.481   3.781 -0.2199 -0.5796 -0.0068
  964ACTN    C110099   0.902   8.557   3.638 -0.5801 -0.3979 -0.2614
  964ACTN    H110100   0.948   8.647   3.597  3.4406 -1.7173  1.0953
  964ACTN    H210101   0.843   8.589   3.723  0.7998  1.0783  0.1743
  964ACTN    H310102   0.838   8.516   3.560  1.4018 -0.7984 -1.7045
  965ACTN    H610103   3.771   6.258   7.590 -1.2883 -1.8196  1.3091
  965ACTN    C310104   3.730   6.347   7.637  0.6325 -0.0658 -0.1994
  965ACTN    H410105   3.701   6.413   7.556 -0.5881  0.1191  0.3761
  965ACTN    H510106   3.636   6.318   7.685  1.4701 -1.7693  0.4526
  965ACTN    C210107   3.830   6.415   7.730  0.2255 -1.2528  0.4108
  965ACTN    O110108   3.938   6.446   7.688  0.2447  0.0392 -0.6852
  965ACTN    C110109   3.770   6.470   7.858 -0.0843  0.3329 -0.4952
  965ACTN    H110110   3.794   6.399   7.938  2.1570  1.3295 -0.2470
  965ACTN    H210111   3.661   6.472   7.868 -0.0498  1.5997 -0.2721
  965ACTN    H310112   3.815   6.565   7.885 -2.5405  1.7303 -1.2193
  966ACTN    H610113   4.974   0.505   1.515  1.4902  2.1129  0.7760
  966ACTN    C310114   5.004   0.544   1.418 -0.3644  0.7764 -0.3800
  966ACTN    H410115   4.958   0.496   1.332  1.2409 -1.4363 -0.0522
  966ACTN    H510116   4.968   0.647   1.410  1.6338  1.7344  2.1635
  966ACTN    C210117   5.152   0.539   1.418  0.5655  0.0940 -0.5797
  966ACTN    O110118   5.207   0.601   1.324 -0.4278 -0.1527  0.2080
  966ACTN    C110119   5.214   0.427   1.502 -0.0534 -0.9045  0.0833
  966ACTN    H110120   5.238   0.465   1.600 -1.7795  0.7663 -0.1072
  966ACTN    H210121   5.307   0.401   1.452 -0.1578  0.8306 -1.0483
  966ACTN    H310122   5.146   0.341   1.504 -2.7146  1.0775 -1.5519
  967ACTN    H610123   6.766   7.789   4.079 -1.4456 -0.4567 -0.7037
  967ACTN    C310124   6.791   7.755   3.979  0.2324  0.3654 -0.5831
  967ACTN    H410125   6.893   7.783   3.955  0.5919 -1.8737 -1.8663
  967ACTN    H510126   6.775   7.647   3.974 -1.6290  0.6523 -1.2547
  967ACTN    C210127   6.709   7.828   3.878  0.4439 -0.1935  0.7436
  967ACTN    O110128   6.678   7.771   3.777  0.7374  0.4862 -0.2322
  967ACTN    C110129   6.646   7.957   3.926  0.5388 -0.1661 -0.8745
  967ACTN    H110130   6.722   8.019   3.974 -0.2813  1.0798 -1.1805
  967ACTN    H210131   6.566   7.944   3.998  0.1359 -2.9236 -1.7664
  967ACTN    H310132   6.603   8.011   3.842 -0.2772 -0.1379 -0.4326
  968ACTN    H610133   3.370   0.008   2.649  0.8185 -0.3886  0.8515
  968ACTN    C310134   3.300   0.089   2.671  0.1075 -0.4898 -0.8944
  968ACTN    H410135   3.232   0.102   2.587  1.0768 -1.3365 -1.8318
  968ACTN    H510136   3.247   0.075   2.766 -0.8075  1.4704 -1.0991
  968ACTN    C210137   3.383   0.212   2.686  0.0355 -0.3953  0.1640
  968ACTN    O110138   3.334   0.320   2.723  0.3668  0.2751 -0.0045
  968ACTN    C110139   3.513   0.220   2.611  0.4416  0.2538  0.2943
  968ACTN    H110140   3.499   0.229   2.503 -0.5777  0.6389  0.4578
  968ACTN    H210141   3.575   0.132   2.629  0.2626  0.2687  1.0214
  968ACTN    H310142   3.573   0.304   2.647  1.3091  0.9743 -2.7376
  969ACTN    H610143   0.598   8.226   2.515  0.1272 -0.9780 -1.2103
  969ACTN    C310144   0.496   8.196   2.539  0.1143 -0.2558 -0.2882
  969ACTN    H410145   0.491   8.128   2.624  0.0788  0.2336  0.0958
  969ACTN    H510146   0.423   8.275   2.556 -1.3834 -0.8210 -3.6161
  969ACTN    C210147   0.445   8.123   2.415  0.7954 -0.5239 -0.1507
  969ACTN    O110148   0.470   8.002   2.402 -0.3141 -0.6131 -0.2894
  969ACTN    C110149   0.327   8.175   2.338  0.7362 -0.0845 -0.1253
  969ACTN    H110150   0.270   8.232   2.411  0.1849 -1.5435  0.6006
  969ACTN    H210151   0.269   8.102   2.282  0.5066  0.9258 -1.2243
  969ACTN    H310152   0.375   8.248   2.273  2.0206 -0.5213  0.3182
  970ACTN    H610153   6.191   0.940   3.089 -0.6782  0.7463  1.2731
  970ACTN    C310154   6.256   0.858   3.120 -0.8731  0.0940 -0.0163
  970ACTN    H410155   6.259   0.863   3.228  2.5710  2.0428 -0.1279
  970ACTN    H510156   6.218   0.764   3.080  2.8892 -1.3686 -0.3648
  970ACTN    C210157   6.396   0.867   3.072 -0.9743 -0.0869  0.2495
  970ACTN    O110158   6.481   0.776   3.102  0.5156  0.0240  0.3811
  970ACTN    C110159   6.432   0.974   2.969 -0.7482 -0.1452  0.0268
  970ACTN    H110160   6.420   1.074   3.011 -1.3231 -0.4091  0.4881
  970ACTN    H210161   6.371   0.980   2.879 -1.7629 -1.2920  0.6316
  970ACTN    H310162   6.538   0.965   2.945 -0.5370 -3.2415  1.9420
  971ACTN    H610163   1.946   5.363   1.446  0.1816  0.2411  0.3243
  971ACTN    C310164   2.054   5.352   1.457  0.2257  0.0678 -0.2362
  971ACTN    H410165   2.067   5.243   1.460  0.1059  0.0089 -1.6851
  971ACTN    H510166   2.098   5.389   1.365  0.4048 -1.4872 -0.7993
  971ACTN    C210167   2.104   5.437   1.570 -0.8879 -0.8346  0.2765
  971ACTN    O110168   2.069   5.556   1.580  0.3179  0.2671 -0.4062
  971ACTN    C110169   2.188   5.373   1.674 -0.1034 -0.1601 -0.0090
  971ACTN    H110170   2.131   5.318   1.749  0.9491  0.0750  0.9818
  971ACTN    H210171   2.244   5.442   1.737  0.4703 -0.0588 -0.6244
  971ACTN    H310172   2.259   5.297   1.640  2.0577  2.0239 -0.5598
  972ACTN    H610173   6.519   1.057   5.627 -1.1043  0.7963  0.7408
  972ACTN    C310174   6.506   1.035   5.733 -0.3531 -0.4332  0.5888
  972ACTN    H410175   6.607   1.012   5.766 -0.2700 -0.4975  0.2852
  972ACTN    H510176   6.467   1.121   5.786  1.8190  0.8078  0.2113
  972ACTN    C210177   6.416   0.911   5.756  0.3336 -0.2560 -0.1429
  972ACTN    O110178   6.381   0.835   5.661  0.3922 -0.0568 -0.7459
  972ACTN    C110179   6.364   0.890   5.898 -0.0160  0.0596  0.4260
  972ACTN    H110180   6.259   0.860   5.889  0.0372 -0.3463  1.0860
  972ACTN    H210181   6.378   0.982   5.955  1.6115 -0.5059  0.9584
  972ACTN    H310182   6.414   0.803   5.941 -1.9062 -0.6649  1.1978
  973ACTN    H610183   3.828   4.338   1.460  1.0657  0.6628 -1.9913
  973ACTN    C310184   3.883   4.419   1.508  0.1538 -0.2473  0.6903
  973ACTN    H410185   3.898   4.499   1.436  0.0357 -1.0050 -0.1874
  973ACTN    H510186   3.821   4.461   1.588 -0.7709  0.1672 -0.2189
  973ACTN    C210187   4.011   4.370   1.578  0.0147 -0.2580  0.3154
  973ACTN    O110188   4.018   4.258   1.618 -0.2652 -0.6395  0.4853
  973ACTN    C110189   4.132   4.451   1.612  0.8636  0.8360  0.4022
  973ACTN    H110190   4.197   4.400   1.683  1.6288  0.4466 -0.5661
  973ACTN    H210191   4.089   4.537   1.663 -2.7426 -0.9369  0.5000
  973ACTN    H310192   4.191   4.475   1.523 -0.8290 -0.2191 -1.0454
  974ACTN    H610193   4.692   6.605   8.486 -0.2279 -1.5972 -0.0324
  974ACTN    C310194   4.799   6.597   8.469 -0.1326  0.3472 -0.3759
  974ACTN    H410195   4.836   6.664   8.547  0.2210 -0.8013  0.4528
  974ACTN    H510196   4.832   6.496   8.493  0.4670  1.3688  3.5384
  974ACTN    C210197   4.844   6.638   8.335 -0.1755 -0.7222 -0.0617
  974ACTN    O110198   4.776   6.608   8.240 -0.0357 -0.5740  0.8022
  974ACTN    C110199   4.965   6.724   8.327 -0.3433 -0.2262  0.0580
  974ACTN    H110200   4.934   6.825   8.302  2.8718  0.4448 -1.5042
  974ACTN    H210201   5.026   6.692   8.243  1.1245  1.3103  0.5233
  974ACTN    H310202   5.037   6.731   8.409  0.4268  0.5358 -0.6799
  975ACTN    H610203   3.955   8.417   6.831  1.4335 -0.1111 -0.2953
  975ACTN    C310204   3.927   8.313   6.845  0.4607  0.1134 -0.5532
  975ACTN    H410205   3.948   8.281   6.947  1.3297  0.7580 -0.5219
  975ACTN    H510206   3.818   8.306   6.840  0.1081  3.8203  0.3978
  975ACTN    C210207   3.996   8.225   6.740 -0.3790  0.5494  0.6521
  975ACTN    O110208   4.087   8.159   6.775  0.4542  0.1341  0.3196
  975ACTN    C110209   3.934   8.205   6.600  0.3027 -0.2706  0.3604
  975ACTN    H110210   3.900   8.103   6.582  2.0663 -0.5422 -1.5613
  975ACTN    H210211   4.012   8.224   6.526  0.9802  1.0141  1.3610
  975ACTN    H310212   3.853   8.277   6.591 -1.2027 -1.6720  2.3441
  976ACTN    H610213   6.093   6.410   4.940  0.1098  1.2595  0.7212
  976ACTN    C310214   6.036   6.401   4.848  0.2222 -0.1344  0.7736
  976ACTN    H410215   6.008   6.297   4.831  2.3211 -0.5536 -0.4580
  976ACTN    H510216   5.948   6.464   4.857 -0.1241 -0.7335  1.5740
  976ACTN    C210217   6.126   6.437   4.735 -0.6821 -0.8541  0.1470
  976ACTN    O110218   6.153   6.368   4.645 -0.2016  0.0854  0.2663
  976ACTN    C110219   6.177   6.580   4.731  0.6762  0.3927 -0.1067
  976ACTN    H110220   6.167   6.613   4.628 -0.0932 -2.2126 -0.9056
  976ACTN    H210221   6.280   6.585   4.766  0.6038  0.8380  0.0465
  976ACTN    H310222   6.112   6.637   4.798 -0.5207 -0.2475 -0.6956
  977ACTN    H610223   1.391   3.941   7.281 -1.5497  1.8924 -0.8545
  977ACTN    C310224   1.321   3.864   7.311  0.1233  0.3982 -0.6872
  977ACTN    H410225   1.322   3.854   7.420 -1.8460 -2.0781 -0.8424
  977ACTN    H510226   1.221   3.893   7.280 -0.2194  0.7871  0.7199
  977ACTN    C210227   1.359   3.733   7.253 -0.5164 -0.4142 -0.2646
  977ACTN    O110228   1.288   3.668   7.176 -0.2303 -0.7872 -0.2371
  977ACTN    C110229   1.485   3.679   7.302  0.1943 -0.5533  0.3470
  977ACTN    H110230   1.480   3.571   7.286  1.5431 -0.3810 -1.4727
  977ACTN    H210231   1.503   3.689   7.409 -0.1807  0.3444  0.3333
  977ACTN    H310232   1.569   3.712   7.241  1.0185 -2.3958  0.4349
  978ACTN    H610233   3.223   1.318   7.952  0.6008  0.9160 -0.7661
  978ACTN    C310234   3.311   1.291   7.893  0.3449 -0.2042 -0.6588
  978ACTN    H410235   3.318   1.345   7.799 -1.2294 -0.0700 -0.7216
  978ACTN    H510236   3.395   1.323   7.954  0.9190 -3.0709  0.1151
  978ACTN    C210237   3.320   1.142   7.858  0.3592  0.1310 -0.1319
  978ACTN    O110238   3.292   1.056   7.943  0.3316  0.4615 -0.7688
  978ACTN    C110239   3.406   1.100   7.748 -0.6007 -0.2968 -0.4143
  978ACTN    H110240   3.367   1.007   7.706 -1.3977  0.2548 -0.8999
  978ACTN    H210241   3.508   1.093   7.785 -0.9785  1.2720  1.0033
  978ACTN    H310242   3.404   1.174   7.668  0.3891  0.3658  0.1706
  979ACTN    H610243   1.238   3.023   2.346  0.8626  0.8026  0.3544
  979ACTN    C310244   1.320   2.962   2.383  0.2789 -0.1034  0.1516
  979ACTN    H410245   1.400   3.033   2.403  0.0299  1.0200 -2.5892
  979ACTN    H510246   1.281   2.916   2.473  0.8576  0.3343  0.6301
  979ACTN    C210247   1.344   2.862   2.279  0.3396  0.4495  0.4246
  979ACTN    O110248   1.370   2.748   2.320 -0.1542 -0.1876  0.7374
  979ACTN    C110249   1.368   2.902   2.144 -0.0636  0.6059 -0.5748
  979ACTN    H110250   1.282   2.859   2.093 -0.4850 -1.5554  1.7997
  979ACTN    H210251   1.452   2.842   2.108  1.2558  2.6306 -0.9859
  979ACTN    H310252   1.379   3.009   2.130 -1.9517  0.8680 -0.0927
  980ACTN    H610253   7.674   1.274   8.051 -2.4632  0.1412 -0.4589
  980ACTN    C310254   7.647   1.180   8.098  0.1637 -0.2073  0.4545
  980ACTN    H410255   7.602   1.194   8.196  2.9491 -0.7740  1.8715
  980ACTN    H510256   7.572   1.131   8.035 -0.6046  0.1814  1.0552
  980ACTN    C210257   7.763   1.092   8.117 -0.3099 -0.4223 -0.0218
  980ACTN    O110258   7.862   1.115   8.059 -0.3212 -0.0133  0.5168
  980ACTN    C110259   7.734   0.944   8.159 -0.3538  0.0171 -0.3312
  980ACTN    H110260   7.826   0.892   8.184  1.2935  3.3726  0.9410
  980ACTN    H210261   7.671   0.888   8.090 -0.9778 -1.4330  1.3492
  980ACTN    H310262   7.676   0.940   8.252 -0.6436  0.8355 -0.4742
  981ACTN    H610263   0.331   6.588   0.103  1.0220 -0.1095  0.0961
  981ACTN    C310264   0.402   6.633   0.171  0.8305  0.3289  0.0092
  981ACTN    H410265   0.385   6.588   0.269  0.5484  1.0331  0.2823
  981ACTN    H510266   0.505   6.617   0.140  0.5565  0.3075 -0.8816
  981ACTN    C210267   0.384   6.784   0.179  0.1956  0.8676 -0.2404
  981ACTN    O110268   0.265   6.822   0.196 -0.1920  0.1569 -0.6647
  981ACTN    C110269   0.493   6.875   0.161  0.2970  0.0753  0.2785
  981ACTN    H110270   0.454   6.934   0.078 -0.7487 -0.2562  0.5141
  981ACTN    H210271   0.581   6.823   0.124 -0.3925 -2.0353  1.5579
  981ACTN    H310272   0.501   6.930   0.255  0.2374  1.0661 -0.2872
  982ACTN    H610273   4.246   8.621   5.182  0.2948  0.1205  0.0105
  982ACTN    C310274   4.215   8.669   5.274  0.6243 -0.0360  0.2035
  982ACTN    H410275   4.261   8.767   5.285  1.3346 -0.2924 -0.5001
  982ACTN    H510276   4.111   8.695   5.257  0.0746 -2.0991  0.2738
  982ACTN    C210277   4.242   8.574   5.383  0.2953  0.3655 -0.9378
  982ACTN    O110278   4.313   8.600   5.481  0.1141  0.6153 -0.0797
  982ACTN    C110279   4.196   8.430   5.377  0.3558  0.1384  0.8459
  982ACTN    H110280   4.087   8.439   5.384  0.4595  2.4707 -0.1472
  982ACTN    H210281   4.229   8.360   5.453  0.5271 -0.5932  0.1034
  982ACTN    H310282   4.214   8.383   5.280  0.3463  2.8687 -0.5294
  983ACTN    H610283   4.469   5.124   2.118  1.7551 -0.7784 -3.2793
  983ACTN    C310284   4.573   5.135   2.148  0.4749  0.5634  0.9621
  983ACTN    H410285   4.582   5.052   2.217 -1.0998 -0.0647  0.4234
  983ACTN    H510286   4.646   5.124   2.067 -1.9184  1.9860 -1.4708
  983ACTN    C210287   4.593   5.276   2.207  0.1392 -0.4250 -0.0814
  983ACTN    O110288   4.703   5.324   2.218 -0.3181 -0.4300  0.3502
  983ACTN    C110289   4.469   5.353   2.235 -1.2570  0.0757  0.3630
  983ACTN    H110290   4.400   5.340   2.150 -2.4490  2.1358  0.9794
  983ACTN    H210291   4.483   5.460   2.244 -1.4359  0.0501  0.9852
  983ACTN    H310292   4.417   5.317   2.324 -1.0221 -1.1878  0.0051
  984ACTN    H610293   5.947   4.692   0.466 -1.2787 -0.5915 -1.4722
  984ACTN    C310294   6.007   4.708   0.376  0.4767  0.4168 -0.1499
  984ACTN    H410295   5.951   4.780   0.316  0.6483 -0.3407 -1.2164
  984ACTN    H510296   6.102   4.752   0.405  0.8279  0.3807 -1.2434
  984ACTN    C210297   6.026   4.574   0.298  0.4061  0.1672 -0.1608
  984ACTN    O110298   6.116   4.505   0.338  0.3481 -0.5486 -0.2526
  984ACTN    C110299   5.949   4.558   0.166 -0.5378  0.2482  0.1976
  984ACTN    H110300   6.014   4.539   0.080  2.2808  2.0738  1.8529
  984ACTN    H210301   5.882   4.642   0.151 -2.0279 -0.4483  2.6021
  984ACTN    H310302   5.884   4.473   0.186  0.1996 -0.9338 -2.2043
  985ACTN    H610303   2.008   0.920   3.607 -0.5219 -0.6198  1.9776
  985ACTN    C310304   2.071   0.988   3.663  0.1177  0.6115 -0.2014
  985ACTN    H410305   2.154   0.925   3.696 -2.4250 -1.2186  2.9580
  985ACTN    H510306   2.110   1.064   3.596 -0.0863 -0.0291 -1.0525
  985ACTN    C210307   2.002   1.055   3.780  0.3463  0.5805  0.0482
  985ACTN    O110308   1.879   1.049   3.800  0.0915  0.3120 -0.4841
  985ACTN    C110309   2.095   1.107   3.888 -0.1466 -0.0200 -0.9042
  985ACTN    H110310   2.052   1.099   3.988 -2.4175  0.1454 -1.8352
  985ACTN    H210311   2.124   1.208   3.861  1.4178 -0.1058  0.3706
  985ACTN    H310312   2.188   1.051   3.892 -0.2280 -0.0490  1.3055
  986ACTN    H610313   4.947   6.802   5.061  0.5596  0.8849  0.7036
  986ACTN    C310314   5.007   6.762   5.142  0.3636 -0.3933  0.2326
  986ACTN    H410315   5.105   6.805   5.127 -0.4646  1.9670  1.3990
  986ACTN    H510316   4.962   6.793   5.236  0.0589 -0.9046  0.2577
  986ACTN    C210317   4.991   6.615   5.144 -0.7176 -0.3303  0.6349
  986ACTN    O110318   4.874   6.565   5.144  0.3582  0.0282  0.5160
  986ACTN    C110319   5.103   6.524   5.149 -0.0504  0.5789  0.2942
  986ACTN    H110320   5.107   6.461   5.061  0.2562  0.2064  0.5700
  986ACTN    H210321   5.084   6.461   5.237 -3.2862  0.6775 -0.2807
  986ACTN    H310322   5.197   6.579   5.158 -0.1604  1.4394 -3.1361
  987ACTN    H610323   5.212   1.058   2.213 -0.2065 -0.0147 -0.0325
  987ACTN    C310324   5.217   0.949   2.210  0.2061  0.0048  0.0354
  987ACTN    H410325   5.128   0.913   2.260 -0.4173 -2.5847 -2.7912
  987ACTN    H510326   5.223   0.926   2.103  1.5346  0.7473 -0.0624
  987ACTN    C210327   5.346   0.904   2.277 -0.3449  0.1414  0.3030
  987ACTN    O110328   5.397   0.955   2.366  0.4747 -0.2451  0.5831
  987ACTN    C110329   5.422   0.787   2.208  0.4386 -0.3970  0.5037
  987ACTN    H110330   5.511   0.763   2.267  1.1819 -1.3708 -0.9619
  987ACTN    H210331   5.449   0.809   2.105 -1.6674  0.1715  0.0581
  987ACTN    H310332   5.362   0.696   2.208 -0.2006  0.0115 -1.0058
  988ACTN    H610333   7.509   3.517   4.289 -1.2860 -2.2409  0.1493
  988ACTN    C310334   7.609   3.483   4.319 -0.4112  0.1005 -0.0320
  988ACTN    H410335   7.596   3.375   4.326 -0.6482  0.2695  2.5097
  988ACTN    H510336   7.681   3.509   4.241  0.0058  0.9087  0.6105
  988ACTN    C210337   7.653   3.543   4.450 -0.1387  0.1334  0.0206
  988ACTN    O110338   7.686   3.460   4.535  0.1960 -0.1346 -0.2510
  988ACTN    C110339   7.626   3.687   4.486  0.0566  0.3028 -0.8132
  988ACTN    H110340   7.686   3.745   4.415  0.0475  0.6268 -0.5580
  988ACTN    H210341   7.671   3.716   4.581 -0.2431 -1.5944 -0.0767
  988ACTN    H310342   7.525   3.728   4.482 -0.3012 -0.5235 -0.4375
  989ACTN    H610343   1.571   4.954   7.054  3.5169 -1.7216 -2.7959
  989ACTN    C310344   1.493   4.888   7.014 -0.4276  0.1863  1.2703
  989ACTN    H410345   1.532   4.848   6.920  0.0384 -1.0515  1.9807
  989ACTN    H510346   1.481   4.810   7.089  1.6170 -1.5091 -0.1310
  989ACTN    C210347   1.363   4.962   6.977  0.9352 -0.7642  0.3886
  989ACTN    O110348   1.285   4.894   6.919  0.2827  0.0400 -0.0953
  989ACTN    C110349   1.361   5.114   6.994 -0.4265 -1.0997 -0.4584
  989ACTN    H110350   1.261   5.154   7.004  0.5768  1.1605  0.9210
  989ACTN    H210351   1.408   5.168   6.912 -0.8615  0.9814  0.6499
  989ACTN    H310352   1.413   5.138   7.087 -1.9456 -4.7572  1.4327
  990ACTN    H610353   4.487   6.106   5.558  0.4028 -0.7737 -0.6017
  990ACTN    C310354   4.563   6.082   5.632  0.2870  0.6223 -0.0260
  990ACTN    H410355   4.626   6.000   5.598 -1.2532 -0.5346 -0.1141
  990ACTN    H510356   4.629   6.169   5.640  1.4766 -0.4948  3.1890
  990ACTN    C210357   4.488   6.037   5.753 -0.2878  0.4616 -0.1615
  990ACTN    O110358   4.479   6.102   5.856 -0.0960 -0.4313 -0.4631
  990ACTN    C110359   4.424   5.902   5.748 -0.0376  0.3226  0.6949
  990ACTN    H110360   4.325   5.915   5.791 -0.1675  0.2281  0.4320
  990ACTN    H210361   4.486   5.820   5.783  0.1864  0.6933  1.1615
  990ACTN    H310362   4.410   5.884   5.641  0.9440  1.3004  0.3913
  991ACTN    H610363   1.144   5.362   4.498  0.0549 -1.1571  0.5037
  991ACTN    C310364   1.149   5.363   4.607  0.3218 -0.3446  0.4936
  991ACTN    H410365   1.202   5.270   4.628 -0.2788 -0.8086  0.0025
  991ACTN    H510366   1.048   5.350   4.647  1.3988 -0.9501  3.1012
  991ACTN    C210367   1.238   5.475   4.660 -0.0626  0.4709 -0.6438
  991ACTN    O110368   1.221   5.590   4.624  0.2220  0.6713 -0.0565
  991ACTN    C110369   1.316   5.449   4.783 -0.7504 -0.1110 -0.0422
  991ACTN    H110370   1.424   5.463   4.776 -1.0171  1.5539 -1.0966
  991ACTN    H210371   1.294   5.346   4.810  0.1521 -0.0186  1.0647
  991ACTN    H310372   1.281   5.500   4.873 -2.3330 -0.7102 -0.3008
  992ACTN    H610373   1.405   8.872   4.157  0.9980 -0.4128  1.3231
  992ACTN    C310374   1.342   8.786   4.137 -0.3244  0.7534  0.3429
  992ACTN    H410375   1.347   8.722   4.225  2.0777  0.7793  0.2477
  992ACTN    H510376   1.244   8.833   4.124 -0.9793 -0.7492 -0.3722
  992ACTN    C210377   1.372   8.719   4.009 -0.3783  0.3030  0.2506
  992ACTN    O110378   1.407   8.785   3.913 -0.3733  0.2976 -0.1309
  992ACTN    C110379   1.415   8.573   4.009  0.1972  0.9707 -0.2485
  992ACTN    H110380   1.334   8.514   4.052 -0.3561  2.9106  1.4479
  992ACTN    H210381   1.504   8.572   4.073  0.2083  1.1136 -0.2611
  992ACTN    H310382   1.444   8.546   3.908  0.5971  0.2898  0.0388
  993ACTN    H610383   4.247   8.652   7.794  0.9373  0.6001  1.4973
  993ACTN    C310384   4.273   8.718   7.711 -0.0627 -0.7126  0.1225
  993ACTN    H410385   4.245   8.674   7.615 -0.4688 -1.7019  0.6824
  993ACTN    H510386   4.224   8.811   7.741 -0.1871 -0.8674  0.4110
  993ACTN    C210387   4.421   8.743   7.714  0.3653  0.2879  0.6410
  993ACTN    O110388   4.464   8.860   7.705 -0.2991  0.2968  0.2812
  993ACTN    C110389   4.515   8.624   7.741 -0.0135 -0.2402 -0.5175
  993ACTN    H110390   4.491   8.579   7.837  1.6565  0.2083  0.1212
  993ACTN    H210391   4.617   8.661   7.742  0.4734 -1.5544 -0.3999
  993ACTN    H310392   4.507   8.556   7.655 -2.6817  1.7237 -1.9193
  994ACTN    H610393   0.072   1.204   7.620  0.8210  0.3125 -1.1834
  994ACTN    C310394   0.063   1.312   7.606  0.2490  0.3333 -0.6617
  994ACTN    H410395   0.020   1.332   7.508  1.7037  0.9935 -1.1745
  994ACTN    H510396   0.160   1.358   7.624 -0.0373  0.4948  0.5531
  994ACTN    C210397  -0.028   1.357   7.721  1.2280 -0.1915  0.6979
  994ACTN    O110398  -0.083   1.463   7.717 -0.4466  0.1543 -0.1846
  994ACTN    C110399  -0.032   1.277   7.851  0.3742  1.1128 -0.2753
  994ACTN    H110400  -0.059   1.173   7.833  0.4057  0.5136  2.9164
  994ACTN    H210401  -0.098   1.320   7.926 -0.2561  1.0885 -0.8160
  994ACTN    H310402   0.063   1.284   7.905  0.6718 -0.6253 -0.5632
  995ACTN    H610403   7.464   3.086   2.542  0.6173 -0.2942  1.3212
  995ACTN    C310404   7.515   3.010   2.482 -0.4721 -0.1968  0.2603
  995ACTN    H410405   7.599   3.054   2.430  0.6099 -0.9045  1.3733
  995ACTN    H510406   7.553   2.941   2.558  0.3921  1.6393  1.5334
  995ACTN    C210407   7.421   2.945   2.387  0.4002 -0.6092  0.1053
  995ACTN    O110408   7.367   2.838   2.406  0.0635 -0.4224 -0.0477
  995ACTN    C110409   7.391   3.015   2.255  0.2161 -0.4618 -0.2700
  995ACTN    H110410   7.450   3.105   2.237 -0.3801 -0.0229 -0.0569
  995ACTN    H210411   7.285   3.035   2.239  0.6069  1.1445 -0.9299
  995ACTN    H310412   7.426   2.945   2.180 -1.5751 -0.9101 -0.7182
  996ACTN    H610413   6.445   5.858   0.451  1.2605 -1.2232  1.3266
  996ACTN    C310414   6.500   5.932   0.509  0.1539  0.6101  0.0868
  996ACTN    H410415   6.578   5.971   0.444 -1.1447 -0.5348 -2.2252
  996ACTN    H510416   6.429   6.009   0.539  1.3617  1.2125  1.5016
  996ACTN    C210417   6.556   5.861   0.622  0.5515 -0.4850 -0.2112
  996ACTN    O110418   6.497   5.835   0.724  0.0915 -0.2587  0.1535
  996ACTN    C110419   6.702   5.832   0.614 -1.0466 -0.0501 -0.4029
  996ACTN    H110420   6.727   5.788   0.517 -2.7450 -0.3486 -0.7242
  996ACTN    H210421   6.732   5.769   0.698  1.9540  0.2950 -1.1360
  996ACTN    H310422   6.768   5.919   0.622 -0.2507 -0.7600  1.0608
  997ACTN    H610423   6.635   2.610   4.083 -0.5948 -0.7325 -0.8757
  997ACTN    C310424   6.528   2.619   4.103 -0.4464  0.2813 -0.5079
  997ACTN    H410425   6.478   2.715   4.115  1.8303  1.8537 -2.7785
  997ACTN    H510426   6.488   2.577   4.011  1.6823  1.9851 -2.2938
  997ACTN    C210427   6.493   2.533   4.222 -0.4989  0.0246  0.1547
  997ACTN    O110428   6.582   2.513   4.299  0.0531 -0.2074 -0.2396
  997ACTN    C110429   6.349   2.486   4.254  0.0665  0.3207  0.6815
  997ACTN    H110430   6.344   2.382   4.286 -0.0329 -1.5194 -4.8065
  997ACTN    H210431   6.286   2.502   4.167  0.0148 -0.2469  0.6130
  997ACTN    H310432   6.314   2.555   4.330  0.6681  0.3960  0.8949
  998ACTN    H610433   5.323   3.265   2.893 -0.3749  0.0191 -1.7130
  998ACTN    C310434   5.327   3.156   2.903 -0.0564  0.1655 -0.1480
  998ACTN    H410435   5.345   3.126   2.800 -0.8250 -1.2410  0.1225
  998ACTN    H510436   5.222   3.132   2.922 -0.2563  1.7857  0.9010
  998ACTN    C210437   5.401   3.101   3.017  0.1472 -0.4042  0.5257
  998ACTN    O110438   5.458   3.182   3.094  0.3891  0.0411  0.2906
  998ACTN    C110439   5.416   2.954   3.039 -0.2793  0.4769  0.7620
  998ACTN    H110440   5.501   2.919   2.980 -0.5942 -0.2899  0.7610
  998ACTN    H210441   5.321   2.908   3.014  0.9280 -1.2024 -0.8426
  998ACTN    H310442   5.440   2.944   3.145  0.2820 -0.5406  0.5382
  999ACTN    H610443   5.329   2.912   3.400  1.3550 -0.6418 -3.4847
  999ACTN    C310444   5.247   2.853   3.360 -0.6000 -0.7008  0.3258
  999ACTN    H410445   5.282   2.807   3.267 -0.3021 -1.5024  0.8359
  999ACTN    H510446   5.239   2.775   3.435  0.6670  0.5887  1.8332
  999ACTN    C210447   5.127   2.939   3.345  0.5252  0.3585  0.9572
  999ACTN    O110448   5.043   2.915   3.262  0.1720  0.6412 -0.8605
  999ACTN    C110449   5.128   3.084   3.396  0.5442  0.1341  0.4227
  999ACTN    H110450   5.211   3.117   3.460 -0.8674  1.0075  1.8295
  999ACTN    H210451   5.031   3.102   3.441  0.2297 -0.2027 -0.1164
  999ACTN    H310452   5.139   3.153   3.312 -1.0977 -0.9874 -0.7194
 1000ACTN    H610453   2.728   2.752   5.755  1.9761  1.2012  2.7135
 1000ACTN    C310454   2.786   2.659   5.757 -0.0746 -0.1886 -0.1904
 1000ACTN    H410455   2.709   2.582   5.747 -1.2805  0.9304  0.1676
 1000ACTN    H510456   2.861   2.666   5.679  2.0726  2.1539  1.9905
 1000ACTN    C210457   2.874   2.644   5.874  0.0853  0.2730 -0.3864
 1000ACTN    O110458   2.850   2.553   5.956 -0.2203  0.0948 -0.1164
 1000ACTN    C110459   3.006   2.723   5.879 -1.1480 -0.2049  0.2492
 1000ACTN    H110460   3.094   2.662   5.898 -0.7226  0.2272 -0.3101
 1000ACTN    H210461   3.010   2.795   5.962 -1.6538  1.1891 -0.9115
 1000ACTN    H310462   3.022   2.775   5.784 -1.7622 -0.0733  0.2149
 1001ACTN    H610463   4.637   8.192   1.688  2.1716 -0.5677  1.6893
 1001ACTN    C310464   4.643   8.090   1.650 -0.3623 -0.1420 -0.0319
 1001ACTN    H410465   4.731   8.086   1.585 -0.8587  0.8446 -0.7870
 1001ACTN    H510466   4.671   8.031   1.737  1.3469  0.8589  0.1274
 1001ACTN    C210467   4.514   8.043   1.591  0.1411 -0.4876 -0.0902
 1001ACTN    O110468   4.411   8.097   1.617 -0.2156 -0.5627  0.3981
 1001ACTN    C110469   4.525   7.927   1.506  0.6306  0.2332 -0.6788
 1001ACTN    H110470   4.567   7.947   1.408 -1.7901 -0.3436 -1.8832
 1001ACTN    H210471   4.424   7.886   1.495  0.8463 -1.8765  3.9679
 1001ACTN    H310472   4.580   7.853   1.564 -0.6083  0.6476  1.1124
 1002ACTN    H610473   8.764   1.756   4.509  0.6092 -1.1260  1.5154
 1002ACTN    C310474   8.802   1.669   4.456 -0.1438 -0.4892 -0.0911
 1002ACTN    H410475   8.729   1.589   4.471 -3.7540  2.5022 -0.9371
 1002ACTN    H510476   8.797   1.692   4.349 -2.0495 -0.4069 -0.0028
 1002ACTN    C210477   8.945   1.631   4.501  0.1902 -0.0134 -0.0831
 1002ACTN    O110478   9.029   1.719   4.519 -0.8932  0.1239 -0.6876
 1002ACTN    C110479   8.959   1.495   4.571  0.6098 -0.0953 -0.1951
 1002ACTN    H110480   8.894   1.420   4.525  0.2446  1.3393 -2.0872
 1002ACTN    H210481   8.926   1.502   4.674  3.2443  1.5068  0.5993
 1002ACTN    H310482   9.064   1.464   4.573  0.5779 -0.2986 -1.0091
 1003ACTN    H610483   2.525   5.976   5.801 -1.6469 -0.4367 -1.2426
 1003ACTN    C310484   2.520   5.873   5.838 -0.2588 -0.1763 -0.3226
 1003ACTN    H410485   2.534   5.883   5.946 -1.3180  0.4457 -0.2335
 1003ACTN    H510486   2.426   5.829   5.806 -0.5489  0.7107 -0.7189
 1003ACTN    C210487   2.630   5.801   5.761  0.3927  0.4934 -0.3369
 1003ACTN    O110488   2.600   5.750   5.654 -0.6393 -0.2067  0.7601
 1003ACTN    C110489   2.769   5.783   5.822 -0.2175  0.2507 -0.6747
 1003ACTN    H110490   2.785   5.677   5.841 -2.1683  0.0305 -0.1671
 1003ACTN    H210491   2.779   5.826   5.921  0.7036  1.6719 -1.3708
 1003ACTN    H310492   2.851   5.819   5.759  0.5206  0.5568  0.4587
 1004ACTN    H610493   5.453   6.670   2.528 -1.2846  0.9102 -1.4165
 1004ACTN    C310494   5.458   6.587   2.458 -0.4057 -0.0436 -0.2391
 1004ACTN    H410495   5.449   6.499   2.522  1.6071  1.7155  2.6130
 1004ACTN    H510496   5.371   6.594   2.393  0.0212  2.0204 -0.6426
 1004ACTN    C210497   5.585   6.582   2.377  0.7289 -0.9411 -0.3935
 1004ACTN    O110498   5.669   6.667   2.394 -0.3483 -0.4234 -0.5693
 1004ACTN    C110499   5.607   6.465   2.290  0.3575 -0.2529 -0.1436
 1004ACTN    H110500   5.692   6.480   2.223  0.8531  0.6147  0.6677
 1004ACTN    H210501   5.519   6.459   2.226 -0.9785 -1.5345  1.7367
 1004ACTN    H310502   5.616   6.373   2.347  3.4283 -0.4592 -0.8909
 1005ACTN    H610503   1.924   4.624   1.321 -0.5520 -0.7432  1.9959
 1005ACTN    C310504   1.836   4.578   1.276 -0.3156  0.4909  0.2342
 1005ACTN    H410505   1.840   4.608   1.171 -0.1636  2.5436  0.7957
 1005ACTN    H510506   1.741   4.620   1.312 -0.6761  1.8187 -2.1798
 1005ACTN    C210507   1.849   4.431   1.300 -0.8176 -0.1536 -0.1815
 1005ACTN    O110508   1.783   4.378   1.392 -0.4177 -0.2364 -0.2632
 1005ACTN    C110509   1.918   4.335   1.200 -0.3694  0.4438  1.2573
 1005ACTN    H110510   2.005   4.381   1.152 -1.0928  2.1051  1.4966
 1005ACTN    H210511   1.848   4.305   1.122  1.2403  0.5517 -0.2564
 1005ACTN    H310512   1.948   4.244   1.251 -2.6693 -0.2882  1.3247
 1006ACTN    H610513   3.277   3.115   0.217 -1.3809 -0.6866  0.0453
 1006ACTN    C310514   3.196   3.188   0.214 -0.6188  0.2242  1.0593
 1006ACTN    H410515   3.166   3.204   0.110 -0.6915 -1.6070  0.7864
 1006ACTN    H510516   3.111   3.134   0.255 -1.6285  0.4611 -0.6531
 1006ACTN    C210517   3.209   3.324   0.279 -0.4269  0.1317  0.2898
 1006ACTN    O110518   3.120   3.373   0.353 -0.2287  0.0599  0.3070
 1006ACTN    C110519   3.325   3.405   0.234  0.7596 -0.2292 -0.6336
 1006ACTN    H110520   3.366   3.465   0.316 -0.4204 -0.8753  0.4540
 1006ACTN    H210521   3.295   3.472   0.154 -1.3519  0.9846  1.0957
 1006ACTN    H310522   3.411   3.350   0.195  1.2788 -0.8847  1.3749
 1007ACTN    H610523   1.415   5.825   0.994 -1.6354  0.6820 -1.7612
 1007ACTN    C310524   1.477   5.779   0.918 -0.3021  1.0940 -0.9468
 1007ACTN    H410525   1.440   5.680   0.890 -0.0093  1.2415 -1.9085
 1007ACTN    H510526   1.466   5.848   0.834 -0.3237  1.0339 -0.9939
 1007ACTN    C210527   1.624   5.777   0.931  0.0119  1.0630 -0.4107
 1007ACTN    O110528   1.672   5.778   1.040  0.0028  0.1593 -0.4755
 1007ACTN    C110529   1.711   5.753   0.819 -0.2133 -0.3453  0.6788
 1007ACTN    H110530   1.756   5.654   0.827  1.7920  0.7094  2.9660
 1007ACTN    H210531   1.795   5.821   0.815  1.5683 -2.4621  1.1166
 1007ACTN    H310532   1.659   5.758   0.723  1.8883  0.6189 -0.4482
 1008ACTN    H610533   7.335   7.718   4.357  1.1944 -0.5363  0.0415
 1008ACTN    C310534   7.273   7.682   4.275  0.5276  0.5095  0.0774
 1008ACTN    H410535   7.335   7.614   4.217  1.4955  1.9146 -0.5666
 1008ACTN    H510536   7.189   7.618   4.303  0.2900  0.8095  0.0623
 1008ACTN    C210537   7.219   7.788   4.183  0.2717  0.4010 -0.0502
 1008ACTN    O110538   7.249   7.905   4.182  0.3790  0.2562  0.5925
 1008ACTN    C110539   7.123   7.747   4.075  0.2580  0.5259 -0.0030
 1008ACTN    H110540   7.033   7.698   4.112  0.0563  0.9876  0.1117
 1008ACTN    H210541   7.175   7.672   4.014 -0.0687  1.1991 -1.1240
 1008ACTN    H310542   7.092   7.837   4.023 -1.4613 -1.3162 -2.3190
 1009ACTN    H610543   6.820   8.725   4.935 -0.2269  0.7882 -1.4738
 1009ACTN    C310544   6.867   8.776   5.019 -0.6081 -0.2675 -0.6032
 1009ACTN    H410545   6.861   8.703   5.099  1.0226  1.7557  1.4148
 1009ACTN    H510546   6.973   8.793   4.999  0.5911 -1.8273  3.9287
 1009ACTN    C210547   6.804   8.901   5.068  0.7638  0.0746  0.2753
 1009ACTN    O110548   6.706   8.951   5.014 -0.1128 -0.1205  0.5724
 1009ACTN    C110549   6.873   8.976   5.175  0.3345 -0.0924  0.0150
 1009ACTN    H110550   6.911   9.071   5.136 -1.3644  0.6370  0.1021
 1009ACTN    H210551   6.959   8.911   5.193 -0.3442 -0.9750  0.0921
 1009ACTN    H310552   6.815   8.989   5.266 -0.7377  2.7643 -0.9966
 1010ACTN    H610553   0.594   6.837   2.763 -0.7698 -1.2351 -1.3246
 1010ACTN    C310554   0.537   6.773   2.831  0.5743 -1.0204  0.0414
 1010ACTN    H410555   0.553   6.666   2.813  1.6369 -0.9868  0.7489
 1010ACTN    H510556   0.560   6.803   2.933  2.3961 -0.1939 -0.5937
 1010ACTN    C210557   0.389   6.812   2.820 -0.0140  0.0300  0.3829
 1010ACTN    O110558   0.330   6.833   2.716 -0.4084  0.0637  0.5622
 1010ACTN    C110559   0.305   6.803   2.939 -0.3371  0.5835 -0.7475
 1010ACTN    H110560   0.357   6.750   3.018 -1.9695 -0.3823 -0.3002
 1010ACTN    H210561   0.205   6.762   2.923  0.2526 -0.6577 -1.2537
 1010ACTN    H310562   0.278   6.904   2.970 -2.6574 -0.9905  2.6883
 1011ACTN    H610563   2.093   2.732   7.708 -1.6778  0.2262 -2.4814
 1011ACTN    C310564   2.003   2.718   7.769 -0.2772  0.0025 -0.4151
 1011ACTN    H410565   2.001   2.805   7.835 -1.2666 -0.2454 -0.1153
 1011ACTN    H510566   1.920   2.721   7.699 -0.6440 -1.6242 -0.0754
 1011ACTN    C210567   1.993   2.579   7.837  0.2818  0.2476  0.0982
 1011ACTN    O110568   1.894   2.541   7.897  0.7293 -0.2884  0.4124
 1011ACTN    C110569   2.112   2.482   7.833 -0.0903  0.0266  0.3802
 1011ACTN    H110570   2.138   2.444   7.932 -0.1762 -1.0399  0.0070
 1011ACTN    H210571   2.198   2.530   7.788 -2.2372  2.3466 -1.4015
 1011ACTN    H310572   2.081   2.399   7.769 -0.8502  1.6222 -1.3641
 1012ACTN    H610573   1.606   7.426   5.150  0.6328  1.4406 -0.6315
 1012ACTN    C310574   1.636   7.394   5.250 -0.0733  0.2683 -0.7852
 1012ACTN    H410575   1.726   7.451   5.274  0.2572 -0.9429  0.9761
 1012ACTN    H510576   1.562   7.417   5.327  0.3691  0.8469 -0.5287
 1012ACTN    C210577   1.662   7.246   5.252  0.1253 -0.3148  0.1879
 1012ACTN    O110578   1.724   7.191   5.153 -0.3023 -0.2616  0.2200
 1012ACTN    C110579   1.594   7.159   5.356 -0.7796 -0.2328 -0.4672
 1012ACTN    H110580   1.488   7.184   5.366 -0.5540  0.8453 -0.6834
 1012ACTN    H210581   1.630   7.188   5.455  0.5417  0.6397 -1.1896
 1012ACTN    H310582   1.607   7.056   5.323 -2.1439 -0.7151  0.4517
 1013ACTN    H610583   3.313   0.112   8.474 -2.4900  2.2830 -1.7593
 1013ACTN    C310584   3.257   0.120   8.567 -0.1981 -0.0666 -0.1154
 1013ACTN    H410585   3.325   0.137   8.650  0.6558  1.7813 -1.1778
 1013ACTN    H510586   3.196   0.210   8.562  1.8358  1.3454  0.2214
 1013ACTN    C210587   3.188  -0.004   8.594  0.0166  0.1301  0.6011
 1013ACTN    O110588   3.193  -0.096   8.514  0.2154 -0.2085 -0.1017
 1013ACTN    C110589   3.086   0.005   8.703  0.3559 -0.3686 -0.1163
 1013ACTN    H110590   3.040  -0.087   8.741  1.5446 -1.5048 -1.3544
 1013ACTN    H210591   3.007   0.066   8.661  1.5126  0.9914 -0.3470
 1013ACTN    H310592   3.121   0.063   8.788  2.6488 -1.7848 -0.0382
 1014ACTN    H610593   6.464   7.717   5.371 -0.2591 -1.2162  0.5130
 1014ACTN    C310594   6.383   7.671   5.315  0.3603  0.0012 -1.4224
 1014ACTN    H410595   6.284   7.671   5.362  0.6741 -1.5335 -0.7606
 1014ACTN    H510596   6.403   7.565   5.298 -0.8015 -0.5386  0.3791
 1014ACTN    C210597   6.357   7.745   5.187 -0.6093  0.0869  0.5640
 1014ACTN    O110598   6.318   7.681   5.091 -0.0579 -0.2238 -0.3404
 1014ACTN    C110599   6.347   7.895   5.174  0.6363 -0.1779 -0.8612
 1014ACTN    H110600   6.248   7.921   5.136  0.6765 -4.2371 -4.0097
 1014ACTN    H210601   6.423   7.925   5.101 -0.7882  1.2127 -1.8176
 1014ACTN    H310602   6.363   7.946   5.269  1.4742  0.4083 -1.3047
 1015ACTN    H610603   1.264   6.173   5.009  0.5357  2.2340  1.8442
 1015ACTN    C310604   1.317   6.233   4.936 -0.1758  0.5313 -0.1255
 1015ACTN    H410605   1.245   6.249   4.856  1.4960  2.2070 -1.3454
 1015ACTN    H510606   1.405   6.178   4.902  0.9437  1.3884  1.3004
 1015ACTN    C210607   1.358   6.352   5.012 -0.2747 -0.6683  0.0061
 1015ACTN    O110608   1.450   6.418   4.970  0.6391  0.7804  0.0958
 1015ACTN    C110609   1.305   6.386   5.146  0.2712 -0.0193 -0.1310
 1015ACTN    H110610   1.378   6.365   5.224  0.3617 -0.2743 -0.2832
 1015ACTN    H210611   1.215   6.335   5.181 -0.5098  0.4967 -1.3461
 1015ACTN    H310612   1.277   6.491   5.157 -1.0754 -0.3983  0.1870
 1016ACTN    H610613   0.355   6.158   7.641  0.1143  0.1154  0.4697
 1016ACTN    C310614   0.432   6.152   7.564 -0.7203 -0.6185 -0.3077
 1016ACTN    H410615   0.397   6.208   7.478  0.2040  0.8311  0.2577
 1016ACTN    H510616   0.444   6.049   7.530  0.2451 -0.8459  0.6783
 1016ACTN    C210617   0.561   6.196   7.624  0.0165 -0.3776  0.6439
 1016ACTN    O110618   0.599   6.314   7.611 -0.1079  0.6295 -0.6068
 1016ACTN    C110619   0.619   6.120   7.741 -0.0726  0.0665  0.0810
 1016ACTN    H110620   0.719   6.084   7.715 -0.1070  0.7399 -1.0115
 1016ACTN    H210621   0.565   6.028   7.764  1.6411 -0.3244  2.6875
 1016ACTN    H310622   0.628   6.185   7.828 -1.5245  2.7213 -1.6868
 1017ACTN    H610623   2.792   6.184   3.070 -1.0933 -0.4775  0.3922
 1017ACTN    C310624   2.740   6.232   3.153 -0.8017  0.2618  0.1592
 1017ACTN    H410625   2.680   6.317   3.121 -0.7414  1.0598  2.0780
 1017ACTN    H510626   2.686   6.156   3.209 -2.5529  0.5384 -1.1276
 1017ACTN    C210627   2.857   6.285   3.237  0.2615 -0.2873  0.7285
 1017ACTN    O110628   2.907   6.211   3.319  0.0073 -0.6910 -0.5246
 1017ACTN    C110629   2.869   6.434   3.248  0.2892  0.5646  0.4074
 1017ACTN    H110630   2.774   6.473   3.284  0.5816  0.8284  0.8961
 1017ACTN    H210631   2.878   6.489   3.154 -3.6279 -0.6045 -0.7320
 1017ACTN    H310632   2.948   6.474   3.311  1.1841 -0.3149 -0.1382
 1018ACTN    H610633   1.977   7.022   3.802  0.0742 -2.5498 -0.0795
 1018ACTN    C310634   2.075   7.012   3.756  0.5237  0.2928  0.1876
 1018ACTN    H410635   2.098   6.912   3.719  0.5852 -0.5962  2.5882
 1018ACTN    H510636   2.072   7.084   3.675 -1.2059 -0.6585 -0.6215
 1018ACTN    C210637   2.189   7.060   3.846 -0.2010  0.2668 -0.1652
 1018ACTN    O110638   2.173   7.130   3.944  0.2860 -0.1262  0.2607
 1018ACTN    C110639   2.325   7.020   3.803  0.7519 -0.0450 -0.1630
 1018ACTN    H110640   2.349   6.923   3.847 -1.5693 -1.0591 -1.0646
 1018ACTN    H210641   2.400   7.094   3.833  2.5724 -2.3506  1.1446
 1018ACTN    H310642   2.327   7.005   3.695  1.0541 -1.2227  0.0042
 1019ACTN    H610643   4.449   3.733   4.448 -3.9067 -1.0730 -1.6304
 1019ACTN    C310644   4.402   3.757   4.544  0.2752  0.0274  0.2279
 1019ACTN    H410645   4.364   3.859   4.537  0.5853  0.0236 -2.1450
 1019ACTN    H510646   4.318   3.690   4.558 -1.7487  2.3052 -0.6514
 1019ACTN    C210647   4.497   3.737   4.659  0.5487 -0.2764  0.4004
 1019ACTN    O110648   4.502   3.821   4.750 -0.2007  0.1062 -0.0845
 1019ACTN    C110649   4.569   3.607   4.663  0.3044  1.3233  0.3007
 1019ACTN    H110650   4.624   3.594   4.569  0.5492  0.4311  0.5592
 1019ACTN    H210651   4.491   3.531   4.664  2.2000 -0.6462  1.7260
 1019ACTN    H310652   4.635   3.577   4.744  2.6781  1.2729 -1.6087
 1020ACTN    H610653   0.981   7.613   8.368  0.1585  1.6528 -0.0766
 1020ACTN    C310654   1.087   7.622   8.394  0.4286  0.5628 -0.7570
 1020ACTN    H410655   1.131   7.720   8.410 -0.2086  0.7187  0.0992
 1020ACTN    H510656   1.082   7.579   8.494 -0.9702 -0.8025 -1.3888
 1020ACTN    C210657   1.153   7.529   8.299  0.0623 -0.3015  0.0768
 1020ACTN    O110658   1.280   7.539   8.289 -0.4175 -0.1557  0.0052
 1020ACTN    C110659   1.083   7.409   8.233 -0.3489 -0.1306 -0.4141
 1020ACTN    H110660   0.999   7.449   8.175  0.3096  0.5209 -0.9268
 1020ACTN    H210661   1.058   7.330   8.304  1.3149  1.0250  1.4849
 1020ACTN    H310662   1.148   7.369   8.156 -0.2745  0.9133 -0.8987
 1021ACTN    H610663   1.891   4.763   4.433  2.1470  1.4311  0.2778
 1021ACTN    C310664   1.838   4.790   4.525  0.5775  0.6494 -0.3781
 1021ACTN    H410665   1.739   4.745   4.526  1.0444 -0.6417 -3.5404
 1021ACTN    H510666   1.900   4.754   4.607  0.2402 -0.8922 -0.7853
 1021ACTN    C210667   1.821   4.942   4.534 -0.8424 -0.0770 -1.3917
 1021ACTN    O110668   1.800   5.012   4.432  0.5554  0.1718  0.0582
 1021ACTN    C110669   1.831   4.997   4.676  0.8491  0.6428  0.6555
 1021ACTN    H110670   1.934   4.994   4.711  0.6283  0.6348  1.3107
 1021ACTN    H210671   1.774   4.937   4.747  1.8984  1.4645  2.2277
 1021ACTN    H310672   1.792   5.098   4.672  0.5827  0.5060 -0.4077
 1022ACTN    H610673   7.378   7.536   3.031 -0.3263 -0.1960 -0.4319
 1022ACTN    C310674   7.353   7.634   2.990 -0.8592  0.2026  0.8021
 1022ACTN    H410675   7.405   7.705   3.054  0.0938 -0.0433  0.3097
 1022ACTN    H510676   7.398   7.635   2.890  1.4348  0.0841  1.7895
 1022ACTN    C210677   7.207   7.659   2.999 -0.1132 -0.4176 -0.5661
 1022ACTN    O110678   7.176   7.768   3.052 -0.6558 -0.0097  0.0819
 1022ACTN    C110679   7.113   7.541   2.972 -0.1218 -0.4894  0.1233
 1022ACTN    H110680   7.017   7.573   3.011  0.6901  1.6013  0.5149
 1022ACTN    H210681   7.148   7.454   3.027  1.2218 -1.2224 -1.8260
 1022ACTN    H310682   7.122   7.527   2.864  2.2024  0.8786  0.0959
 1023ACTN    H610683   8.740   3.968   0.346 -1.1371 -0.8864  0.0831
 1023ACTN    C310684   8.788   3.886   0.398 -0.1207 -0.2801  0.1076
 1023ACTN    H410685   8.888   3.863   0.360 -0.1199 -0.7039  0.3595
 1023ACTN    H510686   8.796   3.911   0.504  1.5770 -1.4556  0.2815
 1023ACTN    C210687   8.708   3.753   0.373  0.2342  0.4106 -0.5211
 1023ACTN    O110688   8.586   3.762   0.381 -0.1488  0.1708 -0.4921
 1023ACTN    C110689   8.769   3.623   0.351  0.5208  0.3940 -0.6816
 1023ACTN    H110690   8.865   3.633   0.403 -0.8530  2.3874  1.5898
 1023ACTN    H210691   8.789   3.595   0.248 -1.4560 -3.1632 -0.1856
 1023ACTN    H310692   8.726   3.538   0.403  0.5883 -0.6360 -2.2867
 1024ACTN    H610693   4.790   3.746   3.408  1.2807 -1.3458 -0.3516
 1024ACTN    C310694   4.855   3.832   3.394 -0.1704 -0.2420 -0.4742
 1024ACTN    H410695   4.957   3.795   3.402  0.2842  0.9027 -0.8297
 1024ACTN    H510696   4.844   3.880   3.297 -0.4484  0.3079 -0.1750
 1024ACTN    C210697   4.828   3.932   3.501 -0.1402  0.0421 -0.2660
 1024ACTN    O110698   4.711   3.963   3.506  0.4202 -0.6027 -0.3980
 1024ACTN    C110699   4.937   3.972   3.597 -0.6608 -0.1219 -1.0730
 1024ACTN    H110700   4.878   4.006   3.681 -0.0584  1.2446 -1.1872
 1024ACTN    H210701   4.984   4.062   3.558  0.1134 -0.6822 -1.4693
 1024ACTN    H310702   5.009   3.893   3.620  1.2872  1.3748 -1.9238
 1025ACTN    H610703   1.271   1.722   2.929  1.3699 -0.2161  1.6880
 1025ACTN    C310704   1.193   1.705   3.003  0.4087 -0.2380  0.6847
 1025ACTN    H410705   1.210   1.777   3.083 -1.1218  0.1472  0.6616
 1025ACTN    H510706   1.206   1.604   3.043  1.9356 -0.0077  0.8228
 1025ACTN    C210707   1.051   1.715   2.945 -0.1534 -0.4758 -0.0724
 1025ACTN    O110708   1.030   1.698   2.827 -0.5533  0.6196  0.3146
 1025ACTN    C110709   0.931   1.722   3.037  0.0888  0.9276  0.2930
 1025ACTN    H110710   0.914   1.825   3.069 -0.4916  0.8833  0.1279
 1025ACTN    H210711   0.944   1.660   3.125  0.3782  0.9697  0.2795
 1025ACTN    H310712   0.839   1.693   2.987  0.8441 -3.1174  1.0822
 1026ACTN    H610713   0.759   8.533   2.003  0.6052 -0.6277  0.4783
 1026ACTN    C310714   0.702   8.461   2.061  0.4374 -0.1447  0.9205
 1026ACTN    H410715   0.597   8.490   2.067  0.3478 -0.5963  1.5743
 1026ACTN    H510716   0.711   8.364   2.013  3.2337 -0.1982  1.4900
 1026ACTN    C210717   0.760   8.460   2.196  0.1541 -0.1291 -0.9298
 1026ACTN    O110718   0.700   8.396   2.282 -0.4169  0.1774  0.0028
 1026ACTN    C110719   0.876   8.557   2.230 -1.0920  0.1897  0.0331
 1026ACTN    H110720   0.834   8.648   2.273 -0.5583  1.4919 -2.1489
 1026ACTN    H210721   0.931   8.584   2.139 -1.3007  2.6740  0.6088
 1026ACTN    H310722   0.942   8.514   2.305  1.1724  4.4210  0.6408
 1027ACTN    H610723   6.432   6.840   3.299 -0.4456  0.2963 -0.9897
 1027ACTN    C310724   6.519   6.898   3.268 -0.0387  0.1600 -0.1134
 1027ACTN    H410725   6.602   6.835   3.235  0.3984  0.7479 -0.1411
 1027ACTN    H510726   6.487   6.964   3.188 -1.5238  0.2983  0.5827
 1027ACTN    C210727   6.581   6.981   3.376  0.3720 -0.9259  0.0531
 1027ACTN    O110728   6.533   6.984   3.486 -0.1715  0.0629  0.0061
 1027ACTN    C110729   6.714   7.038   3.348  0.4935  0.1950 -0.2665
 1027ACTN    H110730   6.803   6.975   3.352  1.8169  2.1208  1.2643
 1027ACTN    H210731   6.725   7.112   3.427 -0.2568 -0.9519  0.9254
 1027ACTN    H310732   6.719   7.098   3.256 -2.5513 -1.7420 -1.7814
 1028ACTN    H610733   6.480   0.849   1.682  2.2845 -0.0436  0.6266
 1028ACTN    C310734   6.462   0.889   1.781 -0.0228  0.2904  0.1161
 1028ACTN    H410735   6.529   0.832   1.845  1.1252  0.8122 -0.6130
 1028ACTN    H510736   6.501   0.991   1.787 -0.2346  0.3038  1.6856
 1028ACTN    C210737   6.319   0.894   1.834 -0.2934 -0.1353  0.3465
 1028ACTN    O110738   6.223   0.885   1.755 -0.6936  0.2794 -0.5927
 1028ACTN    C110739   6.299   0.957   1.965  0.3580 -0.0564  0.3090
 1028ACTN    H110740   6.223   0.898   2.015 -1.0794 -3.0032 -4.9798
 1028ACTN    H210741   6.267   1.061   1.956  1.3969  0.1746 -0.8547
 1028ACTN    H310742   6.388   0.953   2.029 -0.7226  2.8594  2.0940
 1029ACTN    H610743   7.056   2.110   0.583 -0.2373 -0.8546 -0.8177
 1029ACTN    C310744   6.951   2.130   0.605  0.0260 -0.1606 -0.1952
 1029ACTN    H410745   6.916   2.206   0.535 -0.7758  0.8237  1.2347
 1029ACTN    H510746   6.895   2.038   0.594  0.0399 -0.2551  0.5081
 1029ACTN    C210747   6.933   2.182   0.748  0.7228  0.3509 -0.0260
 1029ACTN    O110748   7.031   2.186   0.822 -0.1427  0.4822  0.0926
 1029ACTN    C110749   6.797   2.236   0.777 -0.3417  0.1402  0.0518
 1029ACTN    H110750   6.711   2.180   0.741  0.7121 -0.9643 -0.7781
 1029ACTN    H210751   6.782   2.333   0.730  1.3387  1.3997  2.0250
 1029ACTN    H310752   6.774   2.238   0.884  1.8005 -0.4777  0.5407
 1030ACTN    H610753   4.538   7.491   1.691 -0.5797 -0.1352  0.7038
 1030ACTN    C310754   4.528   7.598   1.672 -0.3966 -0.2937 -0.3384
 1030ACTN    H410755   4.587   7.617   1.583 -1.6163  0.1976 -1.0468
 1030ACTN    H510756   4.424   7.620   1.647 -0.6196  0.9217  1.5401
 1030ACTN    C210757   4.585   7.674   1.787 -0.6405 -1.3049 -0.7184
 1030ACTN    O110758   4.509   7.722   1.869 -1.3727  0.3618 -0.3173
 1030ACTN    C110759   4.733   7.688   1.807 -0.7072  0.0100 -0.6004
 1030ACTN    H110760   4.780   7.614   1.742 -1.3367  0.7336 -1.8978
 1030ACTN    H210761   4.759   7.670   1.911  0.1557  1.3307 -0.5792
 1030ACTN    H310762   4.774   7.784   1.777  0.6402 -0.2560  0.3396
 1031ACTN    H610763   3.006   4.546   1.961  0.1355 -1.5407  0.5143
 1031ACTN    C310764   3.070   4.472   1.913  0.8467 -0.9150  0.4845
 1031ACTN    H410765   3.005   4.387   1.891  0.6014  0.1039 -3.0783
 1031ACTN    H510766   3.103   4.506   1.814  1.0547  0.6169  1.0563
 1031ACTN    C210767   3.197   4.450   1.995  0.4177  0.0983 -0.4316
 1031ACTN    O110768   3.287   4.534   2.020  0.9397 -0.1952 -0.1933
 1031ACTN    C110769   3.201   4.309   2.055 -0.7990  0.2541 -0.0788
 1031ACTN    H110770   3.260   4.241   1.994 -2.0594 -1.8529  0.9907
 1031ACTN    H210771   3.101   4.265   2.056 -1.4093  1.5506 -1.2774
 1031ACTN    H310772   3.237   4.297   2.157 -0.4527 -2.1456 -0.4684
 1032ACTN    H610773   7.296   4.658   7.519  2.3249  2.7629 -1.3687
 1032ACTN    C310774   7.318   4.677   7.624 -0.4835  0.6827 -0.3469
 1032ACTN    H410775   7.219   4.703   7.661 -0.2968  1.1386 -0.1617
 1032ACTN    H510776   7.355   4.589   7.676 -1.3468 -0.1258 -1.0869
 1032ACTN    C210777   7.404   4.801   7.639  0.1151  0.7238 -0.3802
 1032ACTN    O110778   7.378   4.902   7.568 -0.5158  0.1570 -0.4351
 1032ACTN    C110779   7.518   4.799   7.737 -0.6168  0.4734 -0.1738
 1032ACTN    H110780   7.550   4.897   7.771  0.8534  0.5233 -1.6597
 1032ACTN    H210781   7.611   4.765   7.693 -0.8864  0.7670 -0.9676
 1032ACTN    H310782   7.499   4.736   7.824 -0.9713  1.9699  0.8498
 1033ACTN    H610783   5.378   4.981   3.167 -0.4973  0.6772  1.6135
 1033ACTN    C310784   5.293   5.039   3.130 -0.2701 -0.0497 -0.0616
 1033ACTN    H410785   5.305   5.147   3.141  2.1764 -0.1081 -1.6238
 1033ACTN    H510786   5.290   5.015   3.023  0.6339 -0.9334  0.0967
 1033ACTN    C210787   5.165   4.999   3.198  0.0734 -0.0373 -0.1524
 1033ACTN    O110788   5.081   4.940   3.129 -0.0336 -0.5958 -0.1920
 1033ACTN    C110789   5.157   5.009   3.345  0.1626 -0.4311 -0.2596
 1033ACTN    H110790   5.213   5.092   3.386 -0.5054 -0.2537  0.3072
 1033ACTN    H210791   5.197   4.919   3.391  0.3674 -0.9820 -1.4882
 1033ACTN    H310792   5.053   5.012   3.379  0.3875 -0.9080  0.4711
 1034ACTN    H610793   6.837   3.576   4.172 -0.4649  0.9444  0.5731
 1034ACTN    C310794   6.817   3.540   4.071  0.0451 -0.9642  1.1305
 1034ACTN    H410795   6.764   3.621   4.021  2.2860  0.7912  1.4917
 1034ACTN    H510796   6.914   3.546   4.022  0.5419 -0.3378  2.1547
 1034ACTN    C210797   6.758   3.403   4.061 -0.0167 -0.0995  0.2076
 1034ACTN    O110798   6.657   3.383   3.995 -0.1421  0.3886 -0.7140
 1034ACTN    C110799   6.814   3.284   4.140 -0.5227 -0.0127  0.0775
 1034ACTN    H110800   6.752   3.279   4.230 -1.5258  2.0559 -0.4667
 1034ACTN    H210801   6.920   3.298   4.158 -0.7395 -0.4187  1.7992
 1034ACTN    H310802   6.790   3.196   4.080  0.4110 -0.1782 -0.0508
 1035ACTN    H610803   7.477   1.702   2.078  0.4281 -0.3147  3.4683
 1035ACTN    C310804   7.468   1.595   2.094  0.4334 -0.8514  0.2660
 1035ACTN    H410805   7.490   1.543   2.000 -1.9676 -0.1917 -0.6946
 1035ACTN    H510806   7.544   1.561   2.164  1.0643 -0.7645 -0.3730
 1035ACTN    C210807   7.329   1.575   2.142  0.6296 -0.0991 -0.1222
 1035ACTN    O110808   7.255   1.674   2.135  0.2778  0.0570 -0.4694
 1035ACTN    C110809   7.293   1.465   2.234 -0.4898  0.0053 -0.3623
 1035ACTN    H110810   7.376   1.396   2.250  0.2379  0.1577 -3.1177
 1035ACTN    H210811   7.212   1.406   2.190 -0.5672 -1.2050  1.3751
 1035ACTN    H310812   7.263   1.510   2.328 -1.6056  0.9536 -1.1579
 1036ACTN    H610813   0.988   0.169   2.346 -1.7494 -0.8243 -0.7572
 1036ACTN    C310814   1.036   0.084   2.297  0.4963 -0.5024  0.7771
 1036ACTN    H410815   1.052   0.113   2.194  2.2232  0.0068  1.1746
 1036ACTN    H510816   1.134   0.074   2.343 -0.4938  0.3388  3.2035
 1036ACTN    C210817   0.950  -0.039   2.310 -0.1868  0.0310 -0.2733
 1036ACTN    O110818   0.996  -0.140   2.360 -0.4857  0.9423 -0.0884
 1036ACTN    C110819   0.814  -0.035   2.246 -0.1479  0.0923 -0.2220
 1036ACTN    H110820   0.804   0.054   2.184  1.1915  0.1253 -0.4054
 1036ACTN    H210821   0.730  -0.042   2.316 -0.9515  3.6321 -0.7571
 1036ACTN    H310822   0.816  -0.125   2.184 -1.1686 -0.7303  0.9045
 1037ACTN    H610823   6.126   7.348   1.468  0.0682  1.0994  0.6279
 1037ACTN    C310824   6.217   7.406   1.454  0.6253  0.0789 -0.1423
 1037ACTN    H410825   6.295   7.345   1.409  0.5502 -0.4570  0.4526
 1037ACTN    H510826   6.193   7.484   1.382  0.7088 -1.0139 -1.3557
 1037ACTN    C210827   6.254   7.453   1.593 -0.3801 -0.4405  1.0517
 1037ACTN    O110828   6.324   7.555   1.602  0.0307  0.3207 -0.1387
 1037ACTN    C110829   6.230   7.359   1.706 -0.0628  1.0185 -0.2197
 1037ACTN    H110830   6.154   7.407   1.768 -0.1759 -1.8033  1.9380
 1037ACTN    H210831   6.315   7.326   1.767 -0.1818 -3.7578 -2.4120
 1037ACTN    H310832   6.191   7.267   1.663 -0.0302  1.7612 -1.8582
 1038ACTN    H610833   4.495   0.473   5.504  0.0888 -0.8563 -1.4641
 1038ACTN    C310834   4.388   0.490   5.502  0.1825 -0.0578 -0.3397
 1038ACTN    H410835   4.365   0.546   5.593 -1.6516  0.2642 -0.9773
 1038ACTN    H510836   4.364   0.555   5.418  0.4850  0.9963  0.3793
 1038ACTN    C210837   4.302   0.365   5.498 -0.1749 -0.2229 -0.1991
 1038ACTN    O110838   4.299   0.307   5.391  0.2012 -0.2099  0.4399
 1038ACTN    C110839   4.229   0.313   5.617  0.5289  0.4534 -0.6555
 1038ACTN    H110840   4.253   0.381   5.699  0.3881 -0.5367  0.2251
 1038ACTN    H210841   4.265   0.216   5.650  1.6495  0.7370 -1.0396
 1038ACTN    H310842   4.121   0.309   5.603  0.6881  1.2281 -2.2170
 1039ACTN    H610843   0.419   2.399   4.550 -3.2839  0.4481  0.4149
 1039ACTN    C310844   0.405   2.356   4.649  0.4773 -0.4765  0.6268
 1039ACTN    H410845   0.318   2.292   4.654 -1.0003  1.5949  2.9699
 1039ACTN    H510846   0.490   2.293   4.677 -1.2403 -3.0699  0.1280
 1039ACTN    C210847   0.383   2.459   4.758  0.0261  0.6979  0.0593
 1039ACTN    O110848   0.423   2.438   4.874 -0.8565 -0.7064 -0.0726
 1039ACTN    C110849   0.324   2.589   4.727 -0.0905 -0.0185  0.4752
 1039ACTN    H110850   0.320   2.602   4.619 -1.3256  0.4535  0.5703
 1039ACTN    H210851   0.384   2.672   4.763  1.4672 -0.2803 -1.3877
 1039ACTN    H310852   0.224   2.595   4.768  1.0663  4.0318  2.9389
 1040ACTN    H610853   6.749   3.595   6.331 -1.3764  0.0930 -0.4502
 1040ACTN    C310854   6.770   3.506   6.272  1.0433  0.4061 -0.0833
 1040ACTN    H410855   6.720   3.508   6.175  0.1929  2.5001  0.3895
 1040ACTN    H510856   6.878   3.494   6.257  1.2588 -2.0869  2.8873
 1040ACTN    C210857   6.725   3.388   6.348  0.3175 -0.1005  0.0389
 1040ACTN    O110858   6.653   3.408   6.443  0.0198  0.1862 -0.0781
 1040ACTN    C110859   6.753   3.257   6.280 -0.3055  0.8524  0.7422
 1040ACTN    H110860   6.676   3.239   6.205  0.6338  1.0394 -0.2810
 1040ACTN    H210861   6.755   3.174   6.350 -1.1240  0.5525  0.4158
 1040ACTN    H310862   6.853   3.269   6.239  0.0252  1.0786  1.6051
 1041ACTN    H610863   1.923   8.242   5.013  0.6235 -1.7782  1.3722
 1041ACTN    C310864   2.001   8.221   4.940  0.0732  0.1496  0.1872
 1041ACTN    H410865   1.947   8.181   4.854  2.1742 -0.0546 -1.0917
 1041ACTN    H510866   2.054   8.312   4.912 -0.8647  1.1465  1.6018
 1041ACTN    C210867   2.111   8.141   5.000  0.2886  0.5817  0.4665
 1041ACTN    O110868   2.197   8.199   5.062 -0.0712 -0.2129 -1.0591
 1041ACTN    C110869   2.139   7.998   4.973  0.0788  0.4811  0.9046
 1041ACTN    H110870   2.055   7.963   4.912 -0.0580 -0.9737  1.9231
 1041ACTN    H210871   2.155   7.931   5.057 -0.6151  0.1203  0.7508
 1041ACTN    H310872   2.232   7.989   4.918 -0.9274  0.1356 -0.7777
 1042ACTN    H610873   2.862   0.610   6.178  1.0891  1.5296  3.0624
 1042ACTN    C310874   2.875   0.508   6.214  0.4827  0.5343  0.5985
 1042ACTN    H410875   2.941   0.501   6.301 -0.0873 -0.3637  0.9762
 1042ACTN    H510876   2.777   0.471   6.245 -0.1030  2.4394  1.0376
 1042ACTN    C210877   2.924   0.414   6.103 -0.5069  0.3031 -0.9261
 1042ACTN    O110878   3.032   0.361   6.132 -0.0757 -0.1701  0.1602
 1042ACTN    C110879   2.832   0.371   5.992 -0.0009 -0.2326 -0.4143
 1042ACTN    H110880   2.727   0.383   6.020  0.5050  0.7816  1.1122
 1042ACTN    H210881   2.849   0.266   5.967  1.3742 -0.0002 -0.4749
 1042ACTN    H310882   2.843   0.413   5.893 -0.2136  0.8013 -0.0001
 1043ACTN    H610883   4.028   7.541   7.117 -0.6488  0.2529 -1.5330
 1043ACTN    C310884   3.945   7.602   7.152 -0.4679 -0.5437  0.3471
 1043ACTN    H410885   3.942   7.684   7.080 -0.8414  0.5641  1.5896
 1043ACTN    H510886   3.851   7.548   7.150 -0.5282 -0.4421  0.4729
 1043ACTN    C210887   3.977   7.655   7.289 -0.3503 -0.8471 -0.2962
 1043ACTN    O110888   3.887   7.644   7.371 -0.6589  0.0331  0.0102
 1043ACTN    C110889   4.094   7.754   7.313 -0.0199 -0.3180 -0.1003
 1043ACTN    H110890   4.062   7.842   7.368  2.1590  0.0641  0.6323
 1043ACTN    H210891   4.125   7.799   7.219 -0.1789 -0.0150 -0.0080
 1043ACTN    H310892   4.183   7.713   7.361  0.7099  0.4896 -0.7575
 1044ACTN    H610893   6.800   0.968   2.215 -1.0312 -0.6220  0.5376
 1044ACTN    C310894   6.716   0.991   2.150 -0.3873  0.1961 -0.0092
 1044ACTN    H410895   6.679   0.900   2.102 -0.1103 -0.9794  1.9849
 1044ACTN    H510896   6.635   1.027   2.213 -0.9772 -0.9837 -0.0822
 1044ACTN    C210897   6.755   1.092   2.048 -0.4984 -0.0847 -0.4951
 1044ACTN    O110898   6.765   1.054   1.929  0.2102 -0.5145  0.0892
 1044ACTN    C110899   6.737   1.240   2.089  0.2505  0.2885 -0.1621
 1044ACTN    H110900   6.808   1.293   2.026  2.7176 -2.0396  0.5963
 1044ACTN    H210901   6.762   1.262   2.192  0.4673  0.1359 -0.1837
 1044ACTN    H310902   6.634   1.272   2.072  0.9557  2.3503 -0.7546
 1045ACTN    H610903   6.587   7.503   2.308  0.6434  0.8422  1.0828
 1045ACTN    C310904   6.516   7.577   2.345 -0.4590  0.0123  0.6377
 1045ACTN    H410905   6.568   7.665   2.382 -1.8548  1.8238 -1.5777
 1045ACTN    H510906   6.455   7.611   2.261  1.0310  1.1423 -0.0143
 1045ACTN    C210907   6.430   7.511   2.446  0.1188  0.2863 -0.1752
 1045ACTN    O110908   6.443   7.532   2.564 -0.3750 -0.0304  0.3206
 1045ACTN    C110909   6.322   7.419   2.407 -0.3343  0.6123  0.4673
 1045ACTN    H110910   6.250   7.398   2.487 -0.3533  0.2462  0.3530
 1045ACTN    H210911   6.354   7.321   2.372  2.6277  1.7605 -0.1800
 1045ACTN    H310912   6.263   7.463   2.327 -2.2311  2.7926  2.9864
 1046ACTN    H610913   5.594   6.687   8.175  1.9003  1.1203  3.4692
 1046ACTN    C310914   5.602   6.584   8.210  0.1792 -0.1189  0.4348
 1046ACTN    H410915   5.518   6.526   8.173 -2.4954  2.8510  1.6618
 1046ACTN    H510916   5.697   6.550   8.168 -0.3699  3.2626 -3.9741
 1046ACTN    C210917   5.577   6.579   8.362  0.3042  0.7870  0.0892
 1046ACTN    O110918   5.618   6.485   8.434  0.1927 -0.1222  0.3582
 1046ACTN    C110919   5.516   6.695   8.436 -0.2021 -0.4577 -0.3481
 1046ACTN    H110920   5.604   6.730   8.490 -0.2222 -0.6983 -0.1562
 1046ACTN    H210921   5.438   6.661   8.504  1.2134 -0.6296  1.2126
 1046ACTN    H310922   5.479   6.775   8.372  1.2037 -1.7113 -2.8202
 1047ACTN    H610923   2.349   1.371   6.178  4.6976  1.0709  0.5864
 1047ACTN    C310924   2.361   1.263   6.178  0.9239  0.5962  0.2653
 1047ACTN    H410925   2.385   1.224   6.079  0.3658 -0.2164  0.4445
 1047ACTN    H510926   2.447   1.237   6.240  1.2033  0.0259 -0.3481
 1047ACTN    C210927   2.230   1.196   6.227  0.4808  0.2263 -0.4148
 1047ACTN    O110928   2.152   1.150   6.147 -0.0524  0.5415  0.5174
 1047ACTN    C110929   2.185   1.242   6.361  0.1978 -0.1772 -0.2155
 1047ACTN    H110930   2.097   1.187   6.395  0.2376  0.6245  1.2189
 1047ACTN    H210931   2.162   1.348   6.360  1.9294  0.2045 -0.9697
 1047ACTN    H310932   2.260   1.233   6.439  0.5137  2.4144 -0.1854
 1048ACTN    H610933   2.146   5.325   2.056 -0.7758  2.2007  0.0117
 1048ACTN    C310934   2.235   5.387   2.069  0.3816  0.5371  0.2420
 1048ACTN    H410935   2.303   5.330   2.133  0.7899 -1.3463 -1.8225
 1048ACTN    H510936   2.273   5.404   1.969 -1.0329 -0.4883 -0.4803
 1048ACTN    C210937   2.208   5.509   2.145  0.2577  0.3272 -0.1859
 1048ACTN    O110938   2.094   5.529   2.185 -0.0382  0.0069 -0.2601
 1048ACTN    C110939   2.315   5.604   2.182  0.5562  0.0315 -0.7170
 1048ACTN    H110940   2.412   5.556   2.170  1.1845  0.7743  1.1824
 1048ACTN    H210941   2.298   5.640   2.284 -0.1301  0.6006 -1.0212
 1048ACTN    H310942   2.307   5.698   2.128 -0.6294  0.8306  0.7745
 1049ACTN    H610943   6.467   5.745   1.662  0.4947  0.6321  0.0060
 1049ACTN    C310944   6.371   5.779   1.623  0.0671  0.3639  0.8140
 1049ACTN    H410945   6.306   5.706   1.671  3.4057 -1.9029  2.0888
 1049ACTN    H510946   6.361   5.879   1.666 -1.8072 -0.3172  2.0016
 1049ACTN    C210947   6.362   5.776   1.474  0.1018  0.4519  0.0665
 1049ACTN    O110948   6.462   5.799   1.409  0.2045 -0.0042  0.5144
 1049ACTN    C110949   6.234   5.741   1.405  0.3452  0.8713 -0.7519
 1049ACTN    H110950   6.168   5.705   1.484  0.4222  1.4255 -0.4294
 1049ACTN    H210951   6.232   5.660   1.332 -1.8162  2.2080 -2.2266
 1049ACTN    H310952   6.185   5.825   1.355  1.1397  1.4036 -0.6566
 1050ACTN    H610953   1.695   6.092   8.525 -0.4927  0.6259 -1.1540
 1050ACTN    C310954   1.787   6.034   8.531 -0.4763  0.6819 -0.8511
 1050ACTN    H410955   1.788   5.983   8.627  1.9819  1.1822 -0.5640
 1050ACTN    H510956   1.795   5.958   8.453  5.4361  1.3699 -1.1309
 1050ACTN    C210957   1.903   6.125   8.505  0.5539  0.1082  0.5789
 1050ACTN    O110958   1.981   6.150   8.591 -0.0534 -0.3714 -0.2138
 1050ACTN    C110959   1.926   6.164   8.363  0.1601  0.2645 -0.3973
 1050ACTN    H110960   1.913   6.079   8.297 -1.6678 -0.5924  1.0107
 1050ACTN    H210961   2.025   6.207   8.348  0.4664 -0.2380  0.1796
 1050ACTN    H310962   1.843   6.228   8.331 -0.9401 -1.0934 -0.2946
 1051ACTN    H610963   5.567   2.520   6.462  2.0225  1.1245  1.5338
 1051ACTN    C310964   5.616   2.549   6.369 -0.0683  0.2978  0.1111
 1051ACTN    H410965   5.627   2.458   6.311 -1.2117  0.3626 -0.2060
 1051ACTN    H510966   5.544   2.614   6.320 -1.7903 -0.8438  1.1034
 1051ACTN    C210967   5.748   2.622   6.403 -0.0467 -0.2816 -1.0655
 1051ACTN    O110968   5.783   2.717   6.333  0.0872 -0.0462  0.4312
 1051ACTN    C110969   5.843   2.547   6.492 -0.2046 -0.4474 -0.4090
 1051ACTN    H110970   5.949   2.569   6.480 -0.1391  0.7293  2.0818
 1051ACTN    H210971   5.813   2.563   6.595 -2.7970  1.4506 -1.4295
 1051ACTN    H310972   5.834   2.439   6.478 -0.4464 -0.3151 -1.3147
 1052ACTN    H610973   3.110   7.327   8.443  0.0457 -0.7454  0.6611
 1052ACTN    C310974   3.074   7.231   8.404 -0.5557 -0.5510  0.7308
 1052ACTN    H410975   3.089   7.156   8.481  0.2772 -0.4418  0.6812
 1052ACTN    H510976   2.970   7.254   8.380 -0.0558  0.5288 -0.4823
 1052ACTN    C210977   3.144   7.185   8.276 -0.4155 -0.1146  0.9193
 1052ACTN    O110978   3.169   7.277   8.192 -0.2081  0.0535 -0.0570
 1052ACTN    C110979   3.215   7.050   8.272 -0.6268 -0.1367  0.2662
 1052ACTN    H110980   3.317   7.060   8.309 -0.2584 -0.3439 -0.6750
 1052ACTN    H210981   3.222   7.014   8.170  0.1401  0.0106  0.2658
 1052ACTN    H310982   3.166   6.974   8.334 -0.0537  1.0869  2.2725
 1053ACTN    H610983   6.074   8.088   4.598 -1.3140  0.7798 -0.5201
 1053ACTN    C310984   6.118   8.187   4.594  0.0581  0.2039  0.1253
 1053ACTN    H410985   6.164   8.209   4.498 -0.1174 -1.1188 -0.2707
 1053ACTN    H510986   6.036   8.253   4.621  1.0705  1.4860  0.1022
 1053ACTN    C210987   6.230   8.200   4.700 -0.3655 -0.5770  0.4985
 1053ACTN    O110988   6.315   8.290   4.682 -0.0937 -0.4710 -0.3477
 1053ACTN    C110989   6.204   8.155   4.839  0.4815 -0.8147 -0.5393
 1053ACTN    H110990   6.290   8.167   4.905 -1.1945 -1.6783  1.9135
 1053ACTN    H210991   6.167   8.053   4.844  0.6067 -0.7889  1.8972
 1053ACTN    H310992   6.122   8.219   4.874 -0.6647 -1.1815 -2.4911
 1054ACTN    H610993   1.263   2.979   0.872  1.1291 -0.2077 -0.4101
 1054ACTN    C310994   1.215   3.067   0.831  0.0409 -0.7002 -0.2115
 1054ACTN    H410995   1.136   3.101   0.898 -0.3811 -2.5325  0.2253
 1054ACTN    H510996   1.291   3.145   0.819 -0.4766  0.0454  1.3024
 1054ACTN    C210997   1.165   3.028   0.704 -0.0556  0.1805  0.3463
 1054ACTN    O110998   1.162   3.106   0.609  0.2551 -0.7042  0.2048
 1054ACTN    C110999   1.126   2.885   0.687  0.0279 -0.1207 -0.6256
 1054ACTN    H111000   1.214   2.829   0.655  0.9899  0.3718  1.0616
 1054ACTN    H211001   1.053   2.876   0.606  0.3798  2.6192 -1.2956
 1054ACTN    H311002   1.085   2.844   0.779  1.2749  0.2091  0.0842
 1055ACTN    H611003   1.031   4.123   5.753 -1.8128 -0.1055 -1.7407
 1055ACTN    C311004   1.107   4.172   5.693 -0.2076  0.7411  0.9090
 1055ACTN    H411005   1.051   4.243   5.632 -2.0317 -0.3062  1.3386
 1055ACTN    H511006   1.171   4.220   5.768 -0.2900  1.6288  0.4092
 1055ACTN    C211007   1.201   4.080   5.619 -0.4764  0.0990  0.5884
 1055ACTN    O111008   1.183   3.960   5.610  0.4526  0.7063  0.7902
 1055ACTN    C111009   1.325   4.142   5.550 -0.5509 -0.5651  0.0629
 1055ACTN    H111010   1.300   4.208   5.467 -1.4987  1.2944  1.7751
 1055ACTN    H211011   1.397   4.064   5.525  1.9625  1.8577 -0.5372
 1055ACTN    H311012   1.375   4.209   5.620 -1.5795  1.2197 -0.8916
 1056ACTN    H611013   8.218   2.734   7.929  0.4024 -0.1907 -0.4052
 1056ACTN    C311014   8.184   2.740   7.826  0.1197 -0.6071 -0.3393
 1056ACTN    H411015   8.083   2.780   7.821  1.2520  2.3221 -0.9528
 1056ACTN    H511016   8.245   2.813   7.772  0.8404 -1.1300 -0.2276
 1056ACTN    C211017   8.199   2.607   7.761 -0.7607 -0.3400 -0.0934
 1056ACTN    O111018   8.108   2.565   7.702  0.1993  0.4295 -0.3327
 1056ACTN    C111019   8.323   2.534   7.769 -0.3481  0.3946  0.1808
 1056ACTN    H111020   8.305   2.433   7.733 -0.3862  1.1948 -2.1068
 1056ACTN    H211021   8.364   2.535   7.870 -1.6863  0.9717  0.7355
 1056ACTN    H311022   8.398   2.586   7.709  0.4061 -1.2036 -0.2765
 1057ACTN    H611023   1.863   7.275   2.568  0.7048  1.6884  2.0385
 1057ACTN    C311024   1.883   7.364   2.509 -0.2384  0.0600 -0.8772
 1057ACTN    H411025   1.984   7.398   2.531  0.8900 -2.6623 -1.6409
 1057ACTN    H511026   1.816   7.440   2.548  0.1840  0.5055 -1.0191
 1057ACTN    C211027   1.884   7.356   2.360 -0.0000  0.3977  0.1718
 1057ACTN    O111028   1.945   7.260   2.310  0.8097 -0.3620 -0.3811
 1057ACTN    C111029   1.822   7.472   2.286  0.3201 -0.2736 -0.2214
 1057ACTN    H111030   1.787   7.552   2.350 -3.8868 -2.2026  0.0196
 1057ACTN    H211031   1.737   7.432   2.231  0.5317  0.1920 -0.9005
 1057ACTN    H311032   1.896   7.511   2.216  0.2557 -0.8644 -0.6227
 1058ACTN    H611033   0.348   0.762   1.627  0.3180  0.7732 -0.5564
 1058ACTN    C311034   0.263   0.822   1.592 -0.3991  0.0588 -0.0646
 1058ACTN    H411035   0.173   0.772   1.626 -1.4375  2.9751  1.6331
 1058ACTN    H511036   0.268   0.920   1.639 -1.1293 -0.2260  0.6063
 1058ACTN    C211037   0.254   0.833   1.440  0.9229  0.0746  0.3260
 1058ACTN    O111038   0.271   0.731   1.375 -0.3032  0.5800  0.2614
 1058ACTN    C111039   0.189   0.953   1.381 -1.0153  0.0738  0.4984
 1058ACTN    H111040   0.112   0.929   1.308 -0.1241 -0.0652 -0.4183
 1058ACTN    H211041   0.248   1.032   1.334 -1.0137  0.6537  1.4736
 1058ACTN    H311042   0.135   1.005   1.459 -0.8410  0.9118  0.0666
 1059ACTN    H611043   6.389   5.377   8.000 -0.7201  1.1580  0.8544
 1059ACTN    C311044   6.346   5.435   7.919 -0.2717  0.3189  0.0016
 1059ACTN    H411045   6.362   5.542   7.935 -0.2119 -0.0734  2.7406
 1059ACTN    H511046   6.399   5.397   7.832 -0.7255 -0.5593  0.0943
 1059ACTN    C211047   6.202   5.400   7.901  0.4372  0.0885 -0.9116
 1059ACTN    O111048   6.128   5.442   7.988  0.4643 -0.3164 -0.4937
 1059ACTN    C111049   6.156   5.329   7.779 -0.0043 -0.7078  0.2943
 1059ACTN    H111050   6.156   5.409   7.705  1.4443 -0.5127  0.4972
 1059ACTN    H211051   6.061   5.279   7.798  0.3489 -0.7065  2.1546
 1059ACTN    H311052   6.234   5.257   7.754 -0.3950 -0.8145 -0.6513
 1060ACTN    H611053   2.667   1.982   8.500 -0.2250  0.4354 -0.2503
 1060ACTN    C311054   2.729   1.916   8.560 -0.2426  0.4440 -0.2222
 1060ACTN    H411055   2.677   1.882   8.650 -0.5831  3.0882  0.6302
 1060ACTN    H511056   2.738   1.823   8.504 -1.5676 -0.0390  0.3474
 1060ACTN    C211057   2.869   1.973   8.580 -0.5660 -0.0560  0.1103
 1060ACTN    O111058   2.910   2.079   8.531 -0.3371  0.2286 -0.7850
 1060ACTN    C111059   2.961   1.886   8.665 -0.4864 -0.7247 -0.0537
 1060ACTN    H111060   2.973   1.781   8.637  3.8750 -0.4049  0.2942
 1060ACTN    H211061   2.930   1.887   8.769 -0.5322 -0.6247 -0.0680
 1060ACTN    H311062   3.063   1.922   8.667 -1.3212  1.6404  1.8941
 1061ACTN    H611063   8.528   3.815   2.881  0.1888 -1.3420 -1.0652
 1061ACTN    C311064   8.440   3.750   2.887 -0.5499 -0.2599  0.0566
 1061ACTN    H411065   8.398   3.768   2.789  1.3103 -0.9821 -0.8953
 1061ACTN    H511066   8.474   3.647   2.897 -0.4289 -0.0445  2.2264
 1061ACTN    C211067   8.348   3.780   2.996  0.2905 -0.0470 -0.6616
 1061ACTN    O111068   8.231   3.796   2.976 -0.3092 -0.3811  0.2312
 1061ACTN    C111069   8.413   3.806   3.130 -0.8529 -0.6222  0.6414
 1061ACTN    H111070   8.378   3.734   3.204 -2.9655 -0.9912 -0.6588
 1061ACTN    H211071   8.406   3.905   3.175  1.5845 -0.3425  0.4924
 1061ACTN    H311072   8.519   3.781   3.125 -0.3266  1.4939  0.9429
 1062ACTN    H611073   1.837   1.437   3.572  0.1689  0.9261 -0.4975
 1062ACTN    C311074   1.930   1.491   3.587  0.5802  0.0048  0.3416
 1062ACTN    H411075   1.984   1.491   3.493 -0.8212 -0.8429 -0.4699
 1062ACTN    H511076   1.910   1.598   3.598 -1.2077 -0.2671 -0.0494
 1062ACTN    C211077   2.012   1.419   3.688 -0.2809 -0.3482 -0.9050
 1062ACTN    O111078   2.103   1.351   3.645  0.6556 -0.1518 -0.2049
 1062ACTN    C111079   1.972   1.424   3.830 -0.4200  0.2748  0.4938
 1062ACTN    H111080   1.943   1.528   3.845  0.7488  0.6032  0.5113
 1062ACTN    H211081   2.060   1.393   3.887  0.1803  0.5803 -0.2611
 1062ACTN    H311082   1.888   1.364   3.865 -0.0263 -0.8547 -0.4912
 1063ACTN    H611083   8.351   5.754   4.425  1.0266 -0.1747 -0.1859
 1063ACTN    C311084   8.352   5.785   4.529  0.6261  0.1876 -0.2918
 1063ACTN    H411085   8.344   5.700   4.597 -0.8891  0.2583 -0.3528
 1063ACTN    H511086   8.453   5.824   4.537  0.2919  0.7544  1.3343
 1063ACTN    C211087   8.245   5.889   4.561  0.2481  0.3577 -0.2048
 1063ACTN    O111088   8.128   5.853   4.579  0.4016 -0.2604  0.0270
 1063ACTN    C111089   8.285   6.036   4.559  0.5607  0.2443  0.2773
 1063ACTN    H111090   8.358   6.043   4.639 -1.6034  0.2464  2.2901
 1063ACTN    H211091   8.208   6.111   4.574  0.7922  0.5641 -0.1333
 1063ACTN    H311092   8.338   6.055   4.465 -0.2982  1.1220 -0.0387
 1064ACTN    H611093   1.108   3.810   0.105 -0.3748 -0.9384  0.3349
 1064ACTN    C311094   1.100   3.865   0.199  0.2344 -0.0227 -0.1455
 1064ACTN    H411095   1.002   3.913   0.206 -0.6128 -1.7865  0.2694
 1064ACTN    H511096   1.131   3.796   0.277 -0.5339 -1.4518 -1.0857
 1064ACTN    C211097   1.200   3.973   0.182 -0.5593 -0.6528 -0.4730
 1064ACTN    O111098   1.322   3.945   0.182  0.0492 -0.2971  0.3247
 1064ACTN    C111099   1.163   4.119   0.189  0.4383  0.2757 -0.4789
 1064ACTN    H111100   1.130   4.134   0.292  0.6138 -1.6937 -0.1041
 1064ACTN    H211101   1.076   4.138   0.125 -0.7350 -2.6913  0.1265
 1064ACTN    H311102   1.248   4.182   0.162  0.1994 -0.4504 -3.1318
 1065ACTN    H611103   5.629   0.781   5.288 -0.9002  3.1013 -2.1240
 1065ACTN    C311104   5.703   0.734   5.223 -0.6230  0.8906 -0.2794
 1065ACTN    H411105   5.797   0.732   5.277 -1.5485 -0.1298  1.3351
 1065ACTN    H511106   5.684   0.627   5.209 -1.4156  1.1975 -1.6101
 1065ACTN    C211107   5.714   0.809   5.088  0.4637  0.1160 -0.1294
 1065ACTN    O111108   5.777   0.917   5.094  0.0128 -0.1440 -0.1497
 1065ACTN    C111109   5.665   0.758   4.960 -0.9624 -0.2422 -0.5108
 1065ACTN    H111110   5.748   0.742   4.891 -0.3635 -2.2005  0.6368
 1065ACTN    H211111   5.592   0.829   4.921 -0.7628 -0.0060 -0.4529
 1065ACTN    H311112   5.613   0.663   4.969 -3.0128  0.9095  0.1607
 1066ACTN    H611113   7.847   4.154   3.570 -0.1274 -2.4844  2.2588
 1066ACTN    C311114   7.739   4.160   3.558  0.2278  0.0275 -0.3685
 1066ACTN    H411115   7.695   4.117   3.648 -0.1773 -2.8609 -1.8938
 1066ACTN    H511116   7.713   4.265   3.570 -1.0559 -0.3762  0.5385
 1066ACTN    C211117   7.675   4.093   3.444  0.1603  0.2305  0.7710
 1066ACTN    O111118   7.608   3.991   3.456 -0.2155  0.1069 -0.3751
 1066ACTN    C111119   7.714   4.145   3.308  0.8056  0.4628 -0.0691
 1066ACTN    H111120   7.775   4.235   3.317  0.6529  0.7056 -1.4470
 1066ACTN    H211121   7.624   4.172   3.253 -0.4674 -0.4037  1.5307
 1066ACTN    H311122   7.777   4.075   3.254 -0.7996 -0.4778 -0.7482
 1067ACTN    H611123   0.986   1.871   1.442 -1.2622 -1.4932 -1.5907
 1067ACTN    C311124   0.979   1.957   1.374 -0.0066 -0.9524 -1.0496
 1067ACTN    H411125   1.023   1.921   1.281  1.0626 -1.4777 -0.3649
 1067ACTN    H511126   0.877   1.994   1.369  0.4825  0.1422 -3.2340
 1067ACTN    C211127   1.071   2.066   1.426 -0.4921  0.2326  0.1770
 1067ACTN    O111128   1.163   2.103   1.354 -0.0600 -0.1872 -0.2754
 1067ACTN    C111129   1.022   2.146   1.538 -0.7868 -0.4266 -0.0749
 1067ACTN    H111130   0.929   2.200   1.521  0.9628  1.4562 -4.2935
 1067ACTN    H211131   1.103   2.212   1.569  0.7466 -2.4901  0.4497
 1067ACTN    H311132   1.011   2.074   1.619  1.9072  1.0920  1.7123
 1068ACTN    H611133   7.917   5.754   4.484 -0.2189 -0.1489 -1.6402
 1068ACTN    C311134   7.836   5.766   4.411 -0.7219 -0.1732 -1.0913
 1068ACTN    H411135   7.750   5.769   4.477  0.5757 -0.6446  0.6823
 1068ACTN    H511136   7.846   5.860   4.356  0.6337  1.4130  1.7246
 1068ACTN    C211137   7.830   5.651   4.319  0.2069 -0.0667  0.8900
 1068ACTN    O111138   7.805   5.668   4.200 -0.3550 -0.1833 -0.1644
 1068ACTN    C111139   7.816   5.512   4.374 -0.2903 -0.0256 -0.1318
 1068ACTN    H111140   7.836   5.520   4.481  0.1923 -1.9897 -0.0479
 1068ACTN    H211141   7.893   5.445   4.336 -0.4165 -0.6928  0.7635
 1068ACTN    H311142   7.717   5.471   4.353 -0.1552 -0.0914 -0.6341
 1069ACTN    H611143   4.988   0.566   1.098  1.7683 -0.2309 -2.6141
 1069ACTN    C311144   4.963   0.659   1.048 -0.0854  0.6796 -0.0878
 1069ACTN    H411145   4.909   0.635   0.957 -0.2305 -0.2508  0.2404
 1069ACTN    H511146   5.053   0.718   1.035  0.6811 -0.8856 -2.0585
 1069ACTN    C211147   4.867   0.738   1.132  1.1726 -0.6400  0.1117
 1069ACTN    O111148   4.755   0.697   1.163 -0.2563 -1.0380 -0.4107
 1069ACTN    C111149   4.918   0.862   1.187 -0.1357 -0.2003  0.3654
 1069ACTN    H111150   4.877   0.890   1.284 -0.8996 -1.4977  0.4403
 1069ACTN    H211151   4.899   0.947   1.122  1.5771 -0.0012  0.1045
 1069ACTN    H311152   5.025   0.858   1.208 -0.5690  0.7048  2.7945
 1070ACTN    H611153   4.676   5.698   1.631  0.7222  0.8821  1.2185
 1070ACTN    C311154   4.771   5.685   1.580  0.0830 -0.4410  0.3320
 1070ACTN    H411155   4.812   5.590   1.613 -2.0190 -0.5360  2.7907
 1070ACTN    H511156   4.763   5.679   1.471  1.0635 -0.4537  0.2541
 1070ACTN    C211157   4.875   5.791   1.618 -0.0303 -0.0729  0.4365
 1070ACTN    O111158   4.974   5.756   1.677  0.2283  0.1444 -0.6211
 1070ACTN    C111159   4.862   5.934   1.585 -0.6791  0.8622 -0.5446
 1070ACTN    H111160   4.832   5.987   1.675  1.4635  2.0756 -0.5035
 1070ACTN    H211161   4.790   5.944   1.504 -2.3095 -1.2309  0.6051
 1070ACTN    H311162   4.957   5.981   1.558 -0.2388  1.1296  1.4049
 1071ACTN    H611163   3.824   3.417   5.172 -1.0323 -1.3049  0.0385
 1071ACTN    C311164   3.731   3.457   5.213 -0.1963  0.1472  0.5596
 1071ACTN    H411165   3.740   3.559   5.252  1.1782 -0.5503  2.1550
 1071ACTN    H511166   3.667   3.463   5.125  1.7803 -0.1874 -0.9425
 1071ACTN    C211167   3.671   3.367   5.309 -0.1680 -0.6295 -0.1437
 1071ACTN    O111168   3.549   3.347   5.303 -0.3238 -0.4335 -0.5287
 1071ACTN    C111169   3.768   3.293   5.402 -0.3376 -0.0869  0.5809
 1071ACTN    H111170   3.835   3.359   5.456  1.1267  0.1653 -1.4853
 1071ACTN    H211171   3.831   3.219   5.352  0.5267  1.3252 -0.4491
 1071ACTN    H311172   3.714   3.235   5.476 -1.5597 -0.4686 -0.5839
 1072ACTN    H611173   3.576   6.613   6.442  3.0434 -3.6087  1.5073
 1072ACTN    C311174   3.517   6.537   6.390 -0.8809  0.0425  0.3525
 1072ACTN    H411175   3.530   6.537   6.282 -2.7128 -0.4741  0.1285
 1072ACTN    H511176   3.555   6.445   6.435  0.0920  0.5858  0.6564
 1072ACTN    C211177   3.372   6.555   6.421  0.2222  0.2904 -0.4750
 1072ACTN    O111178   3.340   6.659   6.476  0.1092  0.4096 -0.1827
 1072ACTN    C111179   3.284   6.434   6.430  0.1779  0.1552  0.3045
 1072ACTN    H111180   3.179   6.462   6.440  0.0954 -0.4919  1.3137
 1072ACTN    H211181   3.318   6.371   6.513  0.4887 -1.4464 -1.0181
 1072ACTN    H311182   3.294   6.379   6.337  2.1409 -0.4949  0.8595
 1073ACTN    H611183   0.052   8.950   0.584  0.2063  0.5244 -1.5846
 1073ACTN    C311184   0.068   8.854   0.536  0.0848 -0.4096  0.1913
 1073ACTN    H411185   0.157   8.848   0.472 -0.1001 -0.8198 -0.0352
 1073ACTN    H511186   0.074   8.771   0.606 -0.8738 -1.7432 -1.2603
 1073ACTN    C211187  -0.058   8.822   0.449  0.3780  0.3099 -0.8584
 1073ACTN    O111188  -0.040   8.754   0.351  0.3824 -0.2399  0.1746
 1073ACTN    C111189  -0.195   8.860   0.505 -0.4575  0.1721  0.1194
 1073ACTN    H111190  -0.218   8.792   0.587  0.3135  3.2568  3.0167
 1073ACTN    H211191  -0.282   8.858   0.440  0.5029  0.7782 -1.1983
 1073ACTN    H311192  -0.189   8.957   0.555  3.0527 -1.0394  2.2463
 1074ACTN    H611193   4.058   3.237   5.151 -2.1238 -1.0112  0.0388
 1074ACTN    C311194   4.103   3.179   5.232  0.4695  1.1162  0.1898
 1074ACTN    H411195   4.027   3.157   5.306  2.4316 -0.3453  1.8366
 1074ACTN    H511196   4.127   3.084   5.184  0.6805  2.9793 -3.6508
 1074ACTN    C211197   4.213   3.254   5.297  0.0510  0.2931 -0.1629
 1074ACTN    O111198   4.295   3.201   5.369  0.0539  0.6272 -0.5358
 1074ACTN    C111199   4.234   3.393   5.252  0.8308 -0.6594  0.4332
 1074ACTN    H111200   4.137   3.435   5.224  1.1242 -0.0760  0.2786
 1074ACTN    H211201   4.302   3.391   5.167 -0.5831  1.3742 -0.8059
 1074ACTN    H311202   4.285   3.452   5.327  0.7445  1.6535 -1.2614
 1075ACTN    H611203   6.517   0.934   6.697  0.6576  2.0242 -1.2830
 1075ACTN    C311204   6.620   0.898   6.703  0.0051  0.3662  0.3209
 1075ACTN    H411205   6.654   0.876   6.601 -0.8910 -1.8000  0.4650
 1075ACTN    H511206   6.678   0.988   6.727  0.3115  0.9292 -2.3427
 1075ACTN    C211207   6.637   0.779   6.790 -0.6112 -0.7026  0.5660
 1075ACTN    O111208   6.729   0.780   6.867 -0.6106  0.0200  0.4464
 1075ACTN    C111209   6.572   0.654   6.760 -0.2621  0.0467 -0.0022
 1075ACTN    H111210   6.615   0.605   6.673  1.4461  2.7357 -0.7503
 1075ACTN    H211211   6.465   0.672   6.751 -0.9830 -2.2899  3.0968
 1075ACTN    H311212   6.566   0.585   6.844 -1.9468  0.1613 -0.0121
 1076ACTN    H611213   3.628   6.161   6.484 -0.4377 -0.1944  0.7044
 1076ACTN    C311214   3.610   6.154   6.591  0.1708 -0.4533  0.7971
 1076ACTN    H411215   3.506   6.188   6.599  0.1691  0.1460 -1.3361
 1076ACTN    H511216   3.681   6.212   6.650  0.0922 -0.2893  0.7318
 1076ACTN    C211217   3.626   6.018   6.621 -0.9390  0.2595  0.0942
 1076ACTN    O111218   3.546   5.964   6.704 -0.3668 -0.6983  0.2837
 1076ACTN    C111219   3.721   5.932   6.550 -0.1094  0.7015 -0.2996
 1076ACTN    H111220   3.703   5.930   6.442  2.0102  1.9360 -0.7093
 1076ACTN    H211221   3.725   5.831   6.590 -1.1276  0.5811 -0.4921
 1076ACTN    H311222   3.818   5.980   6.564 -0.3238  0.8223  0.7438
 1077ACTN    H611223   8.169   8.987   8.730  0.9143 -0.2964 -1.4859
 1077ACTN    C311224   8.147   9.094   8.731  0.6436 -0.3675  0.5448
 1077ACTN    H411225   8.221   9.154   8.679  0.3987  0.7217  1.4294
 1077ACTN    H511226   8.053   9.092   8.675  0.5054 -0.6419  0.7878
 1077ACTN    C211227   8.126   9.142   8.874 -0.5139 -0.2008  0.0748
 1077ACTN    O111228   8.196   9.234   8.913  0.3737 -0.0080 -0.3252
 1077ACTN    C111229   8.050   9.062   8.966 -0.2046  0.1248 -0.3193
 1077ACTN    H111230   8.115   8.984   9.005 -0.9111  0.1407  0.9228
 1077ACTN    H211231   7.970   9.018   8.906 -0.2751 -2.1424  1.4057
 1077ACTN    H311232   8.003   9.121   9.045 -2.9490 -0.3567 -1.5405
 1078ACTN    H611233   0.690   0.593   6.496  0.9471 -1.3489  0.1221
 1078ACTN    C311234   0.770   0.652   6.452 -0.2196  0.2872  0.1652
 1078ACTN    H411235   0.832   0.575   6.407 -2.6226 -0.7450 -1.4373
 1078ACTN    H511236   0.739   0.718   6.371  1.5972 -1.4768 -2.0092
 1078ACTN    C211237   0.842   0.722   6.567 -0.2382  0.2838 -0.1021
 1078ACTN    O111238   0.845   0.659   6.678 -0.3311 -0.2712 -0.3400
 1078ACTN    C111239   0.919   0.847   6.548 -0.3447 -0.1586  0.0265
 1078ACTN    H111240   1.027   0.841   6.562 -0.1550 -1.5064 -1.8420
 1078ACTN    H211241   0.879   0.928   6.609  2.9270  1.7065 -0.1747
 1078ACTN    H311242   0.902   0.877   6.445  0.9776  1.5644  0.2836
 1079ACTN    H611243   0.073   7.821   6.005  1.2919  1.4684  1.2425
 1079ACTN    C311244   0.142   7.742   6.036  0.3635 -0.0593 -0.5168
 1079ACTN    H411245   0.244   7.760   6.004  0.5347 -0.8395 -0.4145
 1079ACTN    H511246   0.130   7.734   6.144 -2.8572  1.7879 -0.6513
 1079ACTN    C211247   0.098   7.610   5.987 -0.2564  0.3221 -0.3741
 1079ACTN    O111248   0.051   7.597   5.877  0.0552 -0.4998 -0.1350
 1079ACTN    C111249   0.103   7.488   6.073 -0.2517 -0.0901 -0.1713
 1079ACTN    H111250   0.052   7.505   6.167 -0.1987 -0.1267 -0.1359
 1079ACTN    H211251   0.208   7.470   6.097  0.2456  1.7794 -0.8186
 1079ACTN    H311252   0.061   7.403   6.020  2.8476 -1.5266 -0.4199
 1080ACTN    H611253   1.769   5.212   5.908 -1.3935  2.2184  1.1857
 1080ACTN    C311254   1.715   5.143   5.972 -0.2099 -0.1443 -0.2830
 1080ACTN    H411255   1.778   5.090   6.043  0.9903 -1.4986 -2.2912
 1080ACTN    H511256   1.631   5.187   6.026  1.3169  2.8277 -0.2681
 1080ACTN    C211257   1.653   5.033   5.884 -0.0159  0.1729 -0.2479
 1080ACTN    O111258   1.592   4.948   5.940 -0.0696 -0.0193 -0.2742
 1080ACTN    C111259   1.685   5.036   5.738  0.1226  0.4392 -0.4903
 1080ACTN    H111260   1.765   5.107   5.721  1.0367 -1.0116 -2.3698
 1080ACTN    H211261   1.595   5.063   5.684 -0.0287  0.1183 -0.4028
 1080ACTN    H311262   1.732   4.941   5.712 -0.6383 -0.0251 -0.1981
 1081ACTN    H611263   0.941   2.083   4.587 -0.3316 -0.0702  0.2016
 1081ACTN    C311264   0.997   2.098   4.679 -0.5903 -0.3897  0.4122
 1081ACTN    H411265   1.041   2.001   4.702  0.0085 -0.3825 -0.6809
 1081ACTN    H511266   1.075   2.171   4.658  0.9277 -1.9635  0.4561
 1081ACTN    C211267   0.892   2.136   4.778 -0.2137  0.1975 -0.6473
 1081ACTN    O111268   0.772   2.095   4.774  0.0489 -1.0350  0.8373
 1081ACTN    C111269   0.927   2.227   4.883  0.4810  0.3830 -0.1311
 1081ACTN    H111270   0.920   2.165   4.972 -0.1025  0.1698 -0.3291
 1081ACTN    H211271   0.852   2.305   4.898 -0.4996 -0.7937  1.2165
 1081ACTN    H311272   1.029   2.267   4.883 -0.0618  1.8549  1.3673
 1082ACTN    H611273   5.567   1.799   7.577 -0.3705 -2.0061  0.3563
 1082ACTN    C311274   5.662   1.768   7.620  0.4100  0.0495  0.1648
 1082ACTN    H411275   5.708   1.864   7.643 -1.5878  0.8554  0.9110
 1082ACTN    H511276   5.643   1.714   7.713  1.7277  1.3619  1.2309
 1082ACTN    C211277   5.735   1.684   7.518 -0.6058  0.7167 -0.6952
 1082ACTN    O111278   5.679   1.578   7.485 -0.0876 -0.4099 -0.6042
 1082ACTN    C111279   5.881   1.712   7.484  0.9160  0.1735  0.2149
 1082ACTN    H111280   5.924   1.652   7.403  0.6760  0.2555  0.0252
 1082ACTN    H211281   5.943   1.706   7.573  0.6911  1.7611  0.4844
 1082ACTN    H311282   5.888   1.818   7.461  0.2061 -0.4574 -3.1687
 1083ACTN    H611283   5.460   4.362   5.386 -0.7708  4.2540 -1.6722
 1083ACTN    C311284   5.386   4.372   5.466  0.0791  0.2520 -0.2667
 1083ACTN    H411285   5.343   4.271   5.459 -1.9275  1.0865 -0.2921
 1083ACTN    H511286   5.430   4.380   5.565 -1.7343 -1.8968  0.7686
 1083ACTN    C211287   5.295   4.486   5.424 -0.0421  0.0682  0.1646
 1083ACTN    O111288   5.233   4.477   5.318 -0.3591  0.0035 -0.1710
 1083ACTN    C111289   5.274   4.611   5.508 -0.5302  0.0111 -0.2073
 1083ACTN    H111290   5.216   4.588   5.597 -0.3083  0.0635 -0.0516
 1083ACTN    H211291   5.243   4.699   5.450 -0.8320  0.4169  0.5654
 1083ACTN    H311292   5.373   4.639   5.543 -1.2131 -0.1830  1.9147
 1084ACTN    H611293   8.736   3.939   2.456 -1.7710 -0.8150  1.3722
 1084ACTN    C311294   8.674   4.027   2.437  0.2178  0.2860 -0.2172
 1084ACTN    H411295   8.699   4.095   2.518 -1.3564  2.0590 -1.1558
 1084ACTN    H511296   8.680   4.067   2.336  0.5721  2.3619  0.6034
 1084ACTN    C211297   8.530   3.981   2.458 -0.0020 -0.5189 -0.1312
 1084ACTN    O111298   8.492   3.876   2.503 -0.6580 -0.1782 -0.1056
 1084ACTN    C111299   8.418   4.073   2.410 -0.0770 -0.6129  0.3654
 1084ACTN    H111300   8.348   4.096   2.490 -1.1139 -0.8214 -0.4555
 1084ACTN    H211301   8.370   4.037   2.318  1.5597 -3.1044  0.4616
 1084ACTN    H311302   8.462   4.169   2.384 -0.7366  0.1567  2.0503
 1085ACTN    H611303   3.241   7.392   8.596  0.4818  0.7272  1.0125
 1085ACTN    C311304   3.326   7.416   8.532 -0.2648  0.8035  0.0257
 1085ACTN    H411305   3.419   7.395   8.586 -1.5502  0.6014  2.2138
 1085ACTN    H511306   3.321   7.365   8.436  0.1387 -0.0148  0.4412
 1085ACTN    C211307   3.337   7.561   8.508 -0.3027 -0.3763  0.6019
 1085ACTN    O111308   3.399   7.629   8.594  0.1041 -0.5925 -0.1249
 1085ACTN    C111309   3.264   7.630   8.393 -0.2309  0.3781  0.0419
 1085ACTN    H111310   3.182   7.692   8.428 -0.4371 -0.5593  1.2814
 1085ACTN    H211311   3.214   7.553   8.334  2.0151 -2.5775  1.7814
 1085ACTN    H311312   3.332   7.677   8.322 -1.2238 -2.7645 -3.1011
 1086ACTN    H611313   7.485   1.486   7.005 -1.7392  1.0024 -0.3115
 1086ACTN    C311314   7.438   1.388   7.012 -0.1775  0.2937  0.6852
 1086ACTN    H411315   7.398   1.364   6.914 -0.5790  0.6986  0.7516
 1086ACTN    H511316   7.516   1.317   7.039 -1.3356 -0.3360  2.4803
 1086ACTN    C211317   7.324   1.405   7.108  0.2357 -0.3519  0.0201
 1086ACTN    O111318   7.311   1.511   7.171 -1.2299  0.1139 -0.1158
 1086ACTN    C111319   7.203   1.321   7.100  0.2637 -0.6512  0.1675
 1086ACTN    H111320   7.232   1.234   7.041 -2.2183  0.1381 -2.3069
 1086ACTN    H211321   7.115   1.366   7.054 -1.3461 -2.0095  1.8520
 1086ACTN    H311322   7.180   1.284   7.200  1.2781 -1.5639  0.0711
 1087ACTN    H611323   8.456   5.282   8.222 -2.0580 -0.2986  1.0122
 1087ACTN    C311324   8.498   5.182   8.235 -0.1941  0.2497 -0.5189
 1087ACTN    H411325   8.427   5.105   8.206  0.3106  0.7342 -3.2084
 1087ACTN    H511326   8.584   5.167   8.170  0.0149 -0.3889 -0.0980
 1087ACTN    C211327   8.557   5.178   8.375  0.1376 -0.5744 -0.5114
 1087ACTN    O111328   8.555   5.074   8.441 -0.2380  0.5388 -0.1528
 1087ACTN    C111329   8.645   5.290   8.404  0.9137 -0.5411  0.6595
 1087ACTN    H111330   8.742   5.258   8.442  0.9429 -1.0274  0.1648
 1087ACTN    H211331   8.599   5.348   8.484  2.9159 -0.0855  1.5387
 1087ACTN    H311332   8.666   5.351   8.316  0.2231  0.2003  1.0018
 1088ACTN    H611333   1.418   2.068   6.015  2.5646  0.9524 -1.0227
 1088ACTN    C311334   1.451   2.077   6.118  0.4207 -0.1003 -0.2176
 1088ACTN    H411335   1.360   2.065   6.177  2.0542  0.3613  2.4901
 1088ACTN    H511336   1.509   1.988   6.143 -1.5174 -1.1183  0.7559
 1088ACTN    C211337   1.528   2.201   6.155 -0.2907  0.1153  0.5120
 1088ACTN    O111338   1.475   2.310   6.157 -0.3788 -0.3111 -0.1310
 1088ACTN    C111339   1.656   2.184   6.225  0.1987  0.6103  0.2027
 1088ACTN    H111340   1.738   2.244   6.186  0.2382  0.2839 -0.2236
 1088ACTN    H211341   1.690   2.081   6.211  1.5109  1.3299 -2.2071
 1088ACTN    H311342   1.642   2.208   6.330 -3.0439  1.7528 -0.4047
 1089ACTN    H611343   4.579   5.628   7.916  1.3292 -3.1119 -0.1485
 1089ACTN    C311344   4.592   5.636   7.808  1.2716  0.0917  0.0307
 1089ACTN    H411345   4.533   5.558   7.760  1.1754  0.9064 -1.1795
 1089ACTN    H511346   4.534   5.723   7.778 -0.5929 -2.2528 -3.4700
 1089ACTN    C211347   4.726   5.645   7.754 -0.5582  0.0191 -0.0952
 1089ACTN    O111348   4.766   5.751   7.717 -0.3169 -0.0274 -0.0392
 1089ACTN    C111349   4.830   5.534   7.767 -0.4491  0.1243 -0.2698
 1089ACTN    H111350   4.839   5.512   7.874 -0.3588  0.6678 -0.1653
 1089ACTN    H211351   4.925   5.580   7.742 -1.3767  1.6557 -0.9908
 1089ACTN    H311352   4.804   5.453   7.698  0.5211 -0.5005  0.0791
 1090ACTN    H611353   7.441   7.206   0.961 -1.3395 -0.7566  0.1177
 1090ACTN    C311354   7.454   7.119   0.897  0.3014 -0.4168 -0.0201
 1090ACTN    H411355   7.430   7.145   0.794 -1.8886  0.3364  0.6623
 1090ACTN    H511356   7.558   7.085   0.903  0.0992 -1.1943 -0.8505
 1090ACTN    C211357   7.360   7.014   0.938 -0.1641 -0.0061  0.3925
 1090ACTN    O111358   7.337   6.930   0.852 -0.1096 -0.5281  0.4945
 1090ACTN    C111359   7.278   7.042   1.061 -0.1342 -0.5989 -0.5450
 1090ACTN    H111360   7.243   7.145   1.054 -1.8347 -1.1478 -0.4026
 1090ACTN    H211361   7.333   7.035   1.154 -1.2563  0.6220  0.2300
 1090ACTN    H311362   7.198   6.968   1.053 -0.4320 -0.4747  1.1068
 1091ACTN    H611363   4.755   6.960   6.211 -1.0850  1.0090  0.1043
 1091ACTN    C311364   4.696   6.955   6.120  0.0262 -0.2489 -0.5656
 1091ACTN    H411365   4.644   6.861   6.100  0.8468 -0.9790  0.6986
 1091ACTN    H511366   4.619   7.031   6.135  0.5112 -0.0353  0.8538
 1091ACTN    C211367   4.786   6.991   6.003 -0.3161 -0.1610 -0.1269
 1091ACTN    O111368   4.740   7.046   5.908  0.2485 -0.4034  0.4084
 1091ACTN    C111369   4.934   6.943   5.994  0.7280 -0.2146 -0.6148
 1091ACTN    H111370   5.002   7.019   5.955  0.4382  0.6964  0.6340
 1091ACTN    H211371   4.952   6.845   5.950  1.7206 -0.6273  0.6676
 1091ACTN    H311372   4.976   6.923   6.093 -1.2546 -1.7690 -0.0536
 1092ACTN    H611373   1.675   4.826   3.036 -0.6400 -0.6681  0.6328
 1092ACTN    C311374   1.605   4.876   2.970  0.0352 -0.2299  0.2452
 1092ACTN    H411375   1.664   4.929   2.895 -1.9214  1.6195 -0.0594
 1092ACTN    H511376   1.537   4.806   2.922  2.9962 -1.5249 -2.2544
 1092ACTN    C211377   1.528   4.974   3.054 -0.3689  0.3147  0.2276
 1092ACTN    O111378   1.517   4.960   3.175  0.1227  0.2269  0.1435
 1092ACTN    C111379   1.448   5.072   2.975 -0.2040  0.7358 -0.7918
 1092ACTN    H111380   1.402   5.149   3.037 -2.6475 -1.1060 -0.2314
 1092ACTN    H211381   1.370   5.008   2.932 -1.0739  1.7544 -0.7641
 1092ACTN    H311382   1.496   5.114   2.887  0.9856  2.4987  0.6840
 1093ACTN    H611383   0.090   8.583   5.588  0.0936 -0.6023 -0.7211
 1093ACTN    C311384   0.057   8.675   5.539  0.0875  0.0202  0.4578
 1093ACTN    H411385   0.127   8.703   5.460  0.5453  0.6981  1.0897
 1093ACTN    H511386  -0.041   8.654   5.496  0.6257  0.4191 -0.9814
 1093ACTN    C211387   0.050   8.782   5.648  0.4321  0.5245 -0.1229
 1093ACTN    O111388   0.041   8.904   5.626 -0.8233  0.8909  0.0268
 1093ACTN    C111389   0.058   8.733   5.787  0.2651 -0.3913 -0.3441
 1093ACTN    H111390   0.106   8.808   5.849  0.5192 -2.0797  1.5499
 1093ACTN    H211391   0.124   8.647   5.797 -0.3774 -0.8744 -0.1486
 1093ACTN    H311392  -0.042   8.708   5.824  0.2431 -2.7543 -1.8748
 1094ACTN    H611393   0.237   5.415   2.000  0.5995 -0.0544  1.0526
 1094ACTN    C311394   0.158   5.343   2.021  1.0319 -0.7983  0.1520
 1094ACTN    H411395   0.115   5.359   2.120 -0.9757  1.2676 -1.0173
 1094ACTN    H511396   0.073   5.364   1.957  0.9398  0.5010  0.7043
 1094ACTN    C211397   0.216   5.209   2.001  0.2113 -0.2490 -0.2859
 1094ACTN    O111398   0.335   5.188   2.023  0.5144 -0.7222  0.5601
 1094ACTN    C111399   0.135   5.097   1.957 -0.4685  0.8143 -0.4721
 1094ACTN    H111400   0.109   5.092   1.851 -1.1228  0.4353 -0.2995
 1094ACTN    H211401   0.037   5.107   2.004  0.0644 -1.4333  1.2062
 1094ACTN    H311402   0.177   5.001   1.988 -1.9304 -0.2387 -1.6826
 1095ACTN    H611403   4.457   4.660   7.779  0.1512  0.6665 -0.2792
 1095ACTN    C311404   4.385   4.641   7.700 -0.2620  0.8712  0.0460
 1095ACTN    H411405   4.285   4.680   7.719 -0.7557 -0.3336 -0.0151
 1095ACTN    H511406   4.423   4.678   7.605 -1.8720 -3.8885 -2.6160
 1095ACTN    C211407   4.382   4.489   7.682  0.2916 -0.0593 -0.1033
 1095ACTN    O111408   4.272   4.430   7.699 -0.0781  0.0652 -0.1356
 1095ACTN    C111409   4.494   4.411   7.629  0.5465  0.0190 -0.4321
 1095ACTN    H111410   4.565   4.476   7.578 -1.4879  1.2131 -1.8043
 1095ACTN    H211411   4.459   4.337   7.557 -0.7218 -0.1848  0.3906
 1095ACTN    H311412   4.551   4.367   7.711  1.1040 -0.0351 -0.8403
 1096ACTN    H611413   1.114   7.724   2.200 -1.4115  0.6570 -0.6618
 1096ACTN    C311414   1.137   7.781   2.110 -0.2011  0.1024 -0.7127
 1096ACTN    H411415   1.160   7.884   2.136  2.9482 -0.9670  1.0819
 1096ACTN    H511416   1.231   7.741   2.070  0.2181 -1.1002  1.4041
 1096ACTN    C211417   1.017   7.788   2.021  0.4490  0.1974  0.1650
 1096ACTN    O111418   0.910   7.821   2.070 -0.5064  0.5585 -0.6754
 1096ACTN    C111419   1.042   7.779   1.871  0.3670  0.1996  0.2277
 1096ACTN    H111420   1.103   7.863   1.841 -0.3109  0.4413 -0.4976
 1096ACTN    H211421   0.951   7.774   1.811 -0.4307  0.2557  1.4198
 1096ACTN    H311422   1.094   7.685   1.849  1.2439  0.8508 -0.4878
 1097ACTN    H611423   0.002   7.477   7.430 -0.2059 -1.0856  0.0855
 1097ACTN    C311424   0.054   7.419   7.507  0.7066  0.0772  0.3623
 1097ACTN    H411425   0.130   7.361   7.454 -1.6490 -0.1870 -2.8631
 1097ACTN    H511426   0.114   7.475   7.579 -2.3924 -0.2315  3.2722
 1097ACTN    C211427  -0.047   7.338   7.578  0.1901  0.2086 -0.1935
 1097ACTN    O111428  -0.163   7.345   7.550 -0.0371  0.0186 -0.1809
 1097ACTN    C111429  -0.006   7.262   7.699 -0.7301 -0.0777 -0.4372
 1097ACTN    H111430  -0.010   7.336   7.779  1.8275  1.0054 -1.2471
 1097ACTN    H211431   0.099   7.233   7.698 -0.6247  0.3118 -0.8873
 1097ACTN    H311432  -0.065   7.175   7.728 -1.5356  0.0915 -1.5758
 1098ACTN    H611433   6.288   7.509   5.821  1.9447  1.1119 -2.6356
 1098ACTN    C311434   6.205   7.489   5.753 -0.2487 -0.0678  0.2680
 1098ACTN    H411435   6.122   7.455   5.814 -0.4624 -0.1057 -0.0439
 1098ACTN    H511436   6.178   7.579   5.698  0.6151 -0.1659 -0.3341
 1098ACTN    C211437   6.255   7.389   5.655 -0.4546 -0.3339 -1.5178
 1098ACTN    O111438   6.227   7.397   5.535 -0.1240 -0.0712  0.1978
 1098ACTN    C111439   6.327   7.275   5.718 -0.4460 -0.8849 -0.0965
 1098ACTN    H111440   6.274   7.185   5.686  0.0956  0.4089 -5.0950
 1098ACTN    H211441   6.327   7.279   5.827 -0.7619 -0.6257 -0.1058
 1098ACTN    H311442   6.432   7.259   5.690 -0.9933 -1.5471 -1.8386
 1099ACTN    H611443   5.846   1.249   1.422  0.0476 -1.2105 -0.5188
 1099ACTN    C311444   5.856   1.322   1.341 -0.0495 -0.5616  0.0466
 1099ACTN    H411445   5.758   1.350   1.304  0.3445  0.4492 -0.2457
 1099ACTN    H511446   5.916   1.406   1.375 -0.5362  0.3025 -1.2148
 1099ACTN    C211447   5.930   1.266   1.226  0.4072  0.1041  0.2802
 1099ACTN    O111448   5.983   1.162   1.245  0.1641  0.3825  0.0984
 1099ACTN    C111449   5.948   1.354   1.103 -0.4308 -0.6893 -0.3026
 1099ACTN    H111450   5.884   1.441   1.114  0.2933  0.0151 -1.5395
 1099ACTN    H211451   5.915   1.298   1.015  0.0426 -1.5467  0.0585
 1099ACTN    H311452   6.054   1.381   1.095 -0.9997  1.0129 -2.4975
 1100ACTN    H611453   2.544   4.261   4.942  3.2871 -0.4259  1.5854
 1100ACTN    C311454   2.545   4.167   4.887 -0.1208  0.3623  0.0804
 1100ACTN    H411455   2.501   4.095   4.955  1.9143 -0.7187  0.2678
 1100ACTN    H511456   2.490   4.160   4.793 -0.2582  0.8479  0.1207
 1100ACTN    C211457   2.694   4.136   4.864 -0.4102  0.1755 -0.0199
 1100ACTN    O111458   2.713   4.037   4.801  0.9276 -0.0697  0.5861
 1100ACTN    C111459   2.804   4.225   4.891  0.1669 -0.0018 -0.3837
 1100ACTN    H111460   2.877   4.170   4.949  0.8328  1.7308  0.4847
 1100ACTN    H211461   2.773   4.323   4.928  2.2556  1.2927 -1.9776
 1100ACTN    H311462   2.853   4.250   4.797  1.6617  0.6539  0.5579
 1101ACTN    H611463   3.573   7.717   2.218 -0.1619  1.3346  0.7194
 1101ACTN    C311464   3.471   7.695   2.188  0.3023  0.1452 -0.0476
 1101ACTN    H411465   3.447   7.769   2.111  0.3128  1.5657  1.2934
 1101ACTN    H511466   3.481   7.596   2.144 -1.6581 -0.6592  1.2390
 1101ACTN    C211467   3.392   7.697   2.313 -0.3021 -0.2902 -0.6585
 1101ACTN    O111468   3.402   7.785   2.399 -0.2982  0.7021  0.0320
 1101ACTN    C111469   3.271   7.611   2.304  0.4113  0.1999  0.6464
 1101ACTN    H111470   3.290   7.516   2.254  1.2570  0.4982  0.3832
 1101ACTN    H211471   3.193   7.669   2.257  0.4567 -0.3946 -0.1640
 1101ACTN    H311472   3.237   7.579   2.403 -0.4183 -2.7976 -0.5444
 1102ACTN    H611473   7.941   0.838   0.398  0.6468 -0.3346 -2.1412
 1102ACTN    C311474   7.964   0.741   0.442  0.5065  0.3494 -0.5461
 1102ACTN    H411475   8.030   0.679   0.381 -1.0154 -0.2256 -1.6309
 1102ACTN    H511476   8.018   0.764   0.534  0.7712  3.8196 -1.4926
 1102ACTN    C211477   7.836   0.662   0.473  0.0052  0.3942 -0.2647
 1102ACTN    O111478   7.757   0.619   0.395 -0.2030 -0.3724  0.5329
 1102ACTN    C111479   7.810   0.643   0.618 -0.6268  1.1974  0.2129
 1102ACTN    H111480   7.703   0.638   0.639 -0.4036  2.9011  1.9474
 1102ACTN    H211481   7.839   0.728   0.681  1.2152 -0.1720  1.2790
 1102ACTN    H311482   7.849   0.550   0.660 -2.6172 -0.4740 -1.6099
 1103ACTN    H611483   7.450   6.963   6.822  2.5454  1.2172 -1.6072
 1103ACTN    C311484   7.394   7.057   6.818  0.2709 -0.0777 -0.9416
 1103ACTN    H411485   7.461   7.139   6.790 -0.7770  0.9735 -0.3934
 1103ACTN    H511486   7.321   7.053   6.736  0.4039 -0.0433 -1.0631
 1103ACTN    C211487   7.328   7.079   6.948  0.0990 -0.0700  0.1115
 1103ACTN    O111488   7.270   6.986   7.010 -0.0089 -0.5212 -0.2982
 1103ACTN    C111489   7.327   7.219   7.010 -0.2820  0.5324 -0.1730
 1103ACTN    H111490   7.356   7.220   7.115 -0.8960  0.2952  0.0026
 1103ACTN    H211491   7.219   7.237   7.015 -0.2948  0.8026 -1.2342
 1103ACTN    H311492   7.367   7.301   6.951  3.3755 -0.9901  0.0977
 1104ACTN    H611493   1.886   0.576   2.228 -0.4906  0.9732 -0.9796
 1104ACTN    C311494   1.942   0.597   2.137  0.7397  0.2030 -0.4148
 1104ACTN    H411495   2.027   0.529   2.138  0.1242 -0.5683  0.7701
 1104ACTN    H511496   1.874   0.563   2.058 -1.0046  1.9376  0.3127
 1104ACTN    C211497   1.984   0.737   2.125 -1.1901 -0.0138 -0.0032
 1104ACTN    O111498   2.055   0.769   2.031  0.0509  0.5250  0.2095
 1104ACTN    C111499   1.941   0.835   2.223 -0.0214 -0.2967  0.1718
 1104ACTN    H111500   1.958   0.933   2.179 -0.4250 -1.8613 -3.5842
 1104ACTN    H211501   2.001   0.830   2.315 -0.4358  1.0857  0.5371
 1104ACTN    H311502   1.833   0.834   2.238 -0.3663 -1.1651 -2.2817
 1105ACTN    H611503   0.811   6.251   0.108  3.2735 -0.8650  2.1085
 1105ACTN    C311504   0.776   6.149   0.126 -0.2527 -0.0053  0.4887
 1105ACTN    H411505   0.738   6.134   0.025  1.8337 -2.1003 -0.0254
 1105ACTN    H511506   0.854   6.079   0.157 -0.2332 -0.1153  0.1884
 1105ACTN    C211507   0.670   6.157   0.226 -0.0521  0.1786 -0.0690
 1105ACTN    O111508   0.635   6.051   0.283 -0.7430  0.0535 -0.2102
 1105ACTN    C111509   0.595   6.281   0.262 -0.0694  0.5469  0.9920
 1105ACTN    H111510   0.604   6.357   0.185  0.7689 -0.3014  0.2532
 1105ACTN    H211511   0.639   6.315   0.356 -1.1423  1.6572  1.1031
 1105ACTN    H311512   0.491   6.254   0.282  1.1050 -2.1204  4.0630
 1106ACTN    H611513   3.356   6.262   0.013 -0.9819  0.0320  0.4274
 1106ACTN    C311514   3.405   6.179  -0.037  0.3270  0.6224  0.7261
 1106ACTN    H411515   3.489   6.219  -0.094 -0.6161  0.2593 -0.9365
 1106ACTN    H511516   3.442   6.108   0.037  1.7321  1.0898  0.4848
 1106ACTN    C211517   3.295   6.113  -0.116 -0.2104 -0.3169  0.3839
 1106ACTN    O111518   3.320   6.010  -0.183 -0.0393 -0.0401  0.3059
 1106ACTN    C111519   3.154   6.162  -0.116 -0.2774 -0.4886 -0.1377
 1106ACTN    H111520   3.100   6.086  -0.060  1.7683 -0.8725  1.3196
 1106ACTN    H211521   3.109   6.174  -0.215 -0.7558  1.5248  0.2975
 1106ACTN    H311522   3.151   6.257  -0.063  0.8525 -0.5365  0.0057
 1107ACTN    H611523   2.296   0.359   1.064 -0.7140 -0.0921 -0.9930
 1107ACTN    C311524   2.257   0.272   1.117  0.3658 -0.3374 -0.6050
 1107ACTN    H411525   2.327   0.252   1.198  0.3724  1.6731 -0.0930
 1107ACTN    H511526   2.159   0.296   1.159 -0.6499 -3.3901 -1.1150
 1107ACTN    C211527   2.249   0.151   1.025  0.5197 -0.2998 -0.4920
 1107ACTN    O111528   2.170   0.155   0.930  0.1740  0.1471 -0.0426
 1107ACTN    C111529   2.324   0.029   1.055 -0.1804 -0.2592  0.1459
 1107ACTN    H111530   2.302   0.002   1.158  1.2560  0.3939  0.6270
 1107ACTN    H211531   2.432   0.037   1.059 -0.2938  1.3469  0.2780
 1107ACTN    H311532   2.296  -0.056   0.993  0.7556  1.3485 -2.5614
 1108ACTN    H611533   0.361   1.895   7.544  1.1278 -0.2377  0.9493
 1108ACTN    C311534   0.441   1.965   7.518  0.6931 -0.4246 -0.9583
 1108ACTN    H411535   0.523   1.915   7.466  0.2063  0.9715 -3.1011
 1108ACTN    H511536   0.398   2.034   7.446  0.9618 -1.8202 -2.4862
 1108ACTN    C211537   0.480   2.035   7.642 -0.1995 -0.2874  0.0355
 1108ACTN    O111538   0.572   2.004   7.705 -0.2163 -0.0413 -0.6771
 1108ACTN    C111539   0.383   2.123   7.707  0.0713  0.0911  0.1869
 1108ACTN    H111540   0.388   2.228   7.676  1.0170  0.0917  0.3492
 1108ACTN    H211541   0.377   2.113   7.815  1.6158 -0.0798  0.2650
 1108ACTN    H311542   0.286   2.088   7.671 -0.2218  1.1357 -0.0713
 1109ACTN    H611543   5.162   0.166   5.620 -0.8922  2.3273  0.3552
 1109ACTN    C311544   5.123   0.114   5.708  0.3490  0.7244 -0.0146
 1109ACTN    H411545   5.068   0.194   5.758 -0.6538  1.0719 -1.6227
 1109ACTN    H511546   5.053   0.037   5.675 -0.4578  0.9429  1.1489
 1109ACTN    C211547   5.235   0.058   5.781 -1.3962  0.4543 -0.6368
 1109ACTN    O111548   5.240  -0.060   5.824  0.5726 -0.3066  0.4889
 1109ACTN    C111549   5.356   0.149   5.796 -0.2126  0.2789  0.1745
 1109ACTN    H111550   5.433   0.127   5.870 -1.0506 -1.0632  0.6679
 1109ACTN    H211551   5.326   0.252   5.815 -0.2852  0.5561 -1.4219
 1109ACTN    H311552   5.410   0.156   5.702  0.0492 -0.5132  0.2542
 1110ACTN    H611553   3.378   0.505   3.294  2.0384  1.4965  1.3775
 1110ACTN    C311554   3.384   0.567   3.205  0.0838 -0.3554 -0.0937
 1110ACTN    H411555   3.476   0.538   3.155  1.0534 -0.7180  1.8687
 1110ACTN    H511556   3.298   0.566   3.138 -0.0545  0.7888  0.0557
 1110ACTN    C211557   3.412   0.710   3.253  0.0142  0.0914 -0.4061
 1110ACTN    O111558   3.444   0.741   3.370 -0.0341 -0.5143 -0.1309
 1110ACTN    C111559   3.414   0.818   3.146  0.0314 -0.6280 -0.5350
 1110ACTN    H111560   3.455   0.777   3.053 -0.7738  0.6796 -1.4822
 1110ACTN    H211561   3.478   0.901   3.173  1.1852 -1.5929 -0.2585
 1110ACTN    H311562   3.317   0.866   3.137  0.8612  1.8840  3.1551
 1111ACTN    H611563   5.486   5.032   1.135 -0.6753  1.0108  0.1310
 1111ACTN    C311564   5.471   5.012   1.241  0.1244 -0.5277 -0.0259
 1111ACTN    H411565   5.527   4.925   1.275 -0.2487 -1.0920 -0.8555
 1111ACTN    H511566   5.505   5.095   1.303 -1.3466 -0.8716  1.2826
 1111ACTN    C211567   5.327   4.987   1.258  0.1765 -0.7558 -0.4532
 1111ACTN    O111568   5.249   5.082   1.273 -0.1923 -0.0958 -0.0749
 1111ACTN    C111569   5.277   4.845   1.214 -0.0062  0.1544 -0.6363
 1111ACTN    H111570   5.169   4.831   1.211 -0.1057  0.4149  1.1752
 1111ACTN    H211571   5.317   4.775   1.287  2.3526  3.1898  1.1039
 1111ACTN    H311572   5.317   4.814   1.117  0.5317  0.4389 -0.5091
 1112ACTN    H611573   1.732   3.908   5.245  1.9206  0.7517 -1.3194
 1112ACTN    C311574   1.669   3.900   5.156 -0.0023  0.0389  0.0611
 1112ACTN    H411575   1.563   3.888   5.175  0.0803 -1.6008 -0.4038
 1112ACTN    H511576   1.684   3.987   5.092 -2.1142 -1.9089 -3.2124
 1112ACTN    C211577   1.714   3.768   5.095 -0.0789  0.2412  0.5135
 1112ACTN    O111578   1.658   3.725   4.995 -0.4076  0.0518 -0.3064
 1112ACTN    C111579   1.832   3.689   5.153 -0.6491 -0.8670  0.0275
 1112ACTN    H111580   1.794   3.605   5.212  0.6793  0.0857  2.2735
 1112ACTN    H211581   1.897   3.759   5.205 -2.0016 -0.5363  1.3173
 1112ACTN    H311582   1.885   3.642   5.071  0.7855  0.0229  0.4342
 1113ACTN    H611583   2.793   5.447   8.861 -0.6972 -0.0823 -0.1037
 1113ACTN    C311584   2.773   5.350   8.907 -0.1304 -0.2824 -0.2787
 1113ACTN    H411585   2.815   5.340   9.007  0.2282  2.4811 -0.1024
 1113ACTN    H511586   2.665   5.340   8.913 -0.3738  2.4720  0.6818
 1113ACTN    C211587   2.828   5.235   8.831  0.1243  0.2647 -0.1735
 1113ACTN    O111588   2.777   5.214   8.720 -0.0427 -0.2801 -0.0367
 1113ACTN    C111589   2.974   5.203   8.830  0.0464 -0.0681 -1.2386
 1113ACTN    H111590   3.035   5.212   8.740  1.3129 -2.6716 -0.7190
 1113ACTN    H211591   2.988   5.101   8.866 -1.2934  0.3283  0.4793
 1113ACTN    H311592   3.026   5.277   8.890 -0.3680  0.0554 -1.0314
 1114ACTN    H611593   8.826   2.482   7.139 -0.3043  2.7549  0.4921
 1114ACTN    C311594   8.867   2.465   7.039  0.0539  0.4695  1.0023
 1114ACTN    H411595   8.962   2.518   7.028 -0.1353  0.3748 -1.1140
 1114ACTN    H511596   8.791   2.509   6.975  0.5190  0.5049  0.4688
 1114ACTN    C211597   8.891   2.321   7.013 -0.4117  0.1166 -0.4333
 1114ACTN    O111598   8.804   2.250   6.966  0.3286  0.1575  0.3154
 1114ACTN    C111599   9.032   2.277   7.037  0.0039  0.4120 -0.3352
 1114ACTN    H111600   9.092   2.354   7.087  0.4627 -0.3145  0.2543
 1114ACTN    H211601   9.079   2.249   6.943 -1.7198  1.6807 -1.5849
 1114ACTN    H311602   9.024   2.187   7.099  0.7014  2.8750  3.5559
 1115ACTN    H611603   8.246   1.854   3.000 -2.0818  0.3250  1.1347
 1115ACTN    C311604   8.195   1.882   2.908 -0.1997 -0.7833 -0.2820
 1115ACTN    H411605   8.091   1.849   2.917 -1.1602  2.2189  0.2148
 1115ACTN    H511606   8.197   1.990   2.898  0.2738 -0.6989  0.6248
 1115ACTN    C211607   8.266   1.833   2.793  0.1142  0.1529  0.5208
 1115ACTN    O111608   8.253   1.716   2.774 -0.3448 -0.3477  0.1887
 1115ACTN    C111609   8.362   1.913   2.715 -0.7049 -0.1257 -0.4792
 1115ACTN    H111610   8.398   1.996   2.776  1.4139 -0.4321 -1.2923
 1115ACTN    H211611   8.322   1.944   2.618 -0.6701  0.5598 -0.2767
 1115ACTN    H311612   8.450   1.856   2.686 -1.6970 -1.9281 -0.0071
 1116ACTN    H611613   8.138   7.806   2.722  1.9705 -1.1172  0.9346
 1116ACTN    C311614   8.121   7.699   2.730 -0.4690 -0.8150  0.1194
 1116ACTN    H411615   8.216   7.651   2.706 -0.1947 -0.9450  1.4490
 1116ACTN    H511616   8.100   7.680   2.835 -3.5839 -0.3622 -0.3648
 1116ACTN    C211617   8.022   7.651   2.633  0.3539  0.0752  1.4687
 1116ACTN    O111618   7.982   7.733   2.552  0.1757  0.0779  0.9628
 1116ACTN    C111619   8.033   7.512   2.580  0.1238  0.0015 -0.2015
 1116ACTN    H111620   7.953   7.470   2.519  1.5228 -0.5883 -1.6782
 1116ACTN    H211621   8.028   7.442   2.663 -2.5436 -0.7639 -0.9634
 1116ACTN    H311622   8.122   7.492   2.520 -0.1683 -0.1824 -0.5756
 1117ACTN    H611623   2.180   7.500   8.150 -1.2232  1.6684  0.7352
 1117ACTN    C311624   2.257   7.551   8.091 -0.5130  0.0726  0.2516
 1117ACTN    H411625   2.353   7.511   8.124 -0.2351  0.7896  0.3002
 1117ACTN    H511626   2.248   7.523   7.986 -0.1459 -0.6968  0.4160
 1117ACTN    C211627   2.256   7.693   8.104  0.7526  0.9153 -0.6689
 1117ACTN    O111628   2.263   7.741   8.217 -0.3218  0.3409  0.5425
 1117ACTN    C111629   2.246   7.789   7.989 -0.3886 -0.2711  0.4348
 1117ACTN    H111630   2.327   7.775   7.917 -1.3652 -0.7851 -0.5893
 1117ACTN    H211631   2.242   7.886   8.037  0.1384 -0.3710  0.6793
 1117ACTN    H311632   2.153   7.778   7.932 -2.2922 -0.7838  3.5466
 1118ACTN    H611633   0.170   5.428   0.007  2.0921 -3.5848  1.1798
 1118ACTN    C311634   0.245   5.501   0.035 -0.7084 -0.0071 -0.1858
 1118ACTN    H411635   0.249   5.577  -0.043 -0.2669 -0.8694 -1.0246
 1118ACTN    H511636   0.228   5.546   0.133 -1.3473  1.1415 -0.8082
 1118ACTN    C211637   0.380   5.442   0.019  0.1217  0.1394  0.2038
 1118ACTN    O111638   0.414   5.387  -0.086  0.3983  0.4349  0.0317
 1118ACTN    C111639   0.469   5.418   0.136  1.0977  0.5682  0.9776
 1118ACTN    H111640   0.467   5.506   0.200 -2.4837  0.2168  1.4635
 1118ACTN    H211641   0.571   5.392   0.106  0.8389  2.6519 -1.9232
 1118ACTN    H311642   0.424   5.338   0.194  0.6687  1.5604  2.0165
 1119ACTN    H611643   8.758   6.385   3.561 -0.8244 -1.3648  0.9906
 1119ACTN    C311644   8.672   6.358   3.499  0.0002 -0.5101 -0.5628
 1119ACTN    H411645   8.662   6.445   3.434 -1.8373  0.3623  0.8507
 1119ACTN    H511646   8.696   6.272   3.437 -1.1985 -2.0004  1.0059
 1119ACTN    C211647   8.547   6.352   3.576 -0.1858  0.0459 -0.2197
 1119ACTN    O111648   8.510   6.240   3.609 -0.0196  0.1743  0.0480
 1119ACTN    C111649   8.439   6.460   3.567 -0.3028 -0.1718  0.1214
 1119ACTN    H111650   8.398   6.454   3.466 -0.8830 -0.0889  0.3502
 1119ACTN    H211651   8.479   6.561   3.581  1.0638 -0.5550 -0.8774
 1119ACTN    H311652   8.356   6.457   3.637  0.4512 -1.4300  0.9747
 1120ACTN    H611653   2.654   8.483   7.927 -0.1844 -0.9959 -0.2123
 1120ACTN    C311654   2.601   8.470   7.833 -0.3489  0.3074 -0.3118
 1120ACTN    H411655   2.499   8.447   7.861 -0.2153 -1.4355 -1.2218
 1120ACTN    H511656   2.598   8.564   7.777  0.3198  1.4119  1.4540
 1120ACTN    C211657   2.679   8.379   7.743 -0.1303 -0.1275  0.0045
 1120ACTN    O111658   2.733   8.413   7.637 -0.3777  0.1541  0.2019
 1120ACTN    C111659   2.705   8.249   7.800  0.3104  0.0348 -0.6432
 1120ACTN    H111660   2.623   8.226   7.868  0.0767  0.0997 -0.9005
 1120ACTN    H211661   2.798   8.247   7.855  0.2974  0.8133 -0.5908
 1120ACTN    H311662   2.705   8.178   7.717 -2.0436  0.1676 -0.8059
 1121ACTN    H611663   7.621   6.464   0.214 -1.1815 -0.6680  1.5102
 1121ACTN    C311664   7.621   6.549   0.283  0.5778  0.1748  0.5119
 1121ACTN    H411665   7.526   6.603   0.271 -0.2749 -1.1613  1.1138
 1121ACTN    H511666   7.623   6.504   0.382 -1.7381  0.0759  0.5474
 1121ACTN    C211667   7.743   6.632   0.253  0.3424 -0.1353 -0.4183
 1121ACTN    O111668   7.783   6.710   0.339  0.1186 -0.2424  0.1533
 1121ACTN    C111669   7.824   6.611   0.134 -0.0726  0.0612 -0.2038
 1121ACTN    H111670   7.808   6.699   0.072 -1.6664  0.0112  0.1223
 1121ACTN    H211671   7.810   6.518   0.080 -2.6377  0.2783  0.0350
 1121ACTN    H311672   7.926   6.615   0.172 -0.1831 -2.8967  0.5339
 1122ACTN    H611673   2.658   4.483   4.749  1.7412  1.6006  2.0096
 1122ACTN    C311674   2.691   4.533   4.657  0.0594 -0.6630  0.1097
 1122ACTN    H411675   2.602   4.563   4.603  0.0297  2.5651  1.8706
 1122ACTN    H511676   2.744   4.620   4.695 -0.6492 -0.5249  0.7946
 1122ACTN    C211677   2.792   4.452   4.578  0.0634  0.2837 -0.0438
 1122ACTN    O111678   2.779   4.328   4.572  0.0901  0.0105 -0.4716
 1122ACTN    C111679   2.860   4.526   4.468 -0.3144 -0.2333 -0.5170
 1122ACTN    H111680   2.945   4.588   4.498  0.0002  0.2523 -2.3436
 1122ACTN    H211681   2.787   4.586   4.413 -0.2098 -1.3653 -1.9332
 1122ACTN    H311682   2.909   4.460   4.396  0.5932  0.1189 -0.2331
 1123ACTN    H611683   3.053   5.705   1.035  1.6736 -0.1827  0.7710
 1123ACTN    C311684   3.094   5.689   0.935  0.0952  0.4247 -0.0010
 1123ACTN    H411685   3.196   5.728   0.936  0.2576  0.0095 -0.1295
 1123ACTN    H511686   3.093   5.582   0.915 -0.2230  0.7857 -1.9582
 1123ACTN    C211687   3.027   5.770   0.832  0.1444  0.4441  0.0383
 1123ACTN    O111688   3.049   5.750   0.715  0.7605 -0.2397  0.2777
 1123ACTN    C111689   2.937   5.880   0.876 -0.0086 -0.9928 -0.2553
 1123ACTN    H111690   2.854   5.899   0.809 -0.8157  0.5564  1.1474
 1123ACTN    H211691   2.989   5.975   0.887 -1.4742  0.1521 -2.8750
 1123ACTN    H311692   2.897   5.850   0.973 -1.2855 -0.7308 -0.6974
 1124ACTN    H611693   0.261   1.492   7.424  0.0595  0.0658 -1.1963
 1124ACTN    C311694   0.287   1.598   7.428 -0.0489  0.0497  0.3592
 1124ACTN    H411695   0.371   1.614   7.361  1.5599 -3.0490  1.5203
 1124ACTN    H511696   0.316   1.620   7.531  0.1589 -1.5785  0.6728
 1124ACTN    C211697   0.181   1.682   7.371  1.0359  0.1438  0.5389
 1124ACTN    O111698   0.151   1.787   7.429  0.0877 -0.5237 -0.2602
 1124ACTN    C111699   0.154   1.674   7.225 -0.0114 -0.2131 -0.0830
 1124ACTN    H111700   0.062   1.619   7.208 -0.4101  1.0032 -2.1368
 1124ACTN    H211701   0.244   1.632   7.181 -0.6203 -0.4604 -1.1100
 1124ACTN    H311702   0.138   1.767   7.170  0.1603  0.9575  1.7866
 1125ACTN    H611703   5.457   3.679   7.298 -1.1765 -1.7597  0.9813
 1125ACTN    C311704   5.542   3.623   7.259 -1.0091 -1.0671  0.3478
 1125ACTN    H411705   5.628   3.640   7.324 -1.2451  2.1903 -0.0902
 1125ACTN    H511706   5.521   3.518   7.277 -0.5067 -1.4181 -1.0615
 1125ACTN    C211707   5.587   3.665   7.119  0.1123 -0.3312 -0.4898
 1125ACTN    O111708   5.636   3.590   7.038  0.4019  0.8912  0.0452
 1125ACTN    C111709   5.526   3.789   7.064  0.1914 -0.1607  0.3039
 1125ACTN    H111710   5.420   3.777   7.045 -0.2075  1.0889  1.6612
 1125ACTN    H211711   5.571   3.804   6.966  1.1035 -0.5173  0.6602
 1125ACTN    H311712   5.541   3.871   7.134  1.9586 -0.8214  0.7415
 1126ACTN    H611713   1.639   1.203   8.299  1.0838  2.0282 -1.7938
 1126ACTN    C311714   1.717   1.127   8.297 -0.2304  0.5847  0.1376
 1126ACTN    H411715   1.685   1.037   8.350 -2.0255 -0.1797 -2.1665
 1126ACTN    H511716   1.724   1.100   8.192  0.2796 -1.8093  0.7495
 1126ACTN    C211717   1.851   1.166   8.346  0.4931  0.2005  0.4997
 1126ACTN    O111718   1.862   1.203   8.462  0.7049 -0.3693  0.5892
 1126ACTN    C111719   1.972   1.172   8.253  0.4431  0.1443 -0.3298
 1126ACTN    H111720   1.958   1.113   8.162 -0.0663  0.6576 -0.5786
 1126ACTN    H211721   2.056   1.127   8.308 -0.5944 -1.1978  0.1806
 1126ACTN    H311722   1.998   1.275   8.230  0.3981 -0.1306 -1.6115
 1127ACTN    H611723   8.954   5.701   8.058  0.2391  0.9280 -1.0867
 1127ACTN    C311724   9.001   5.654   7.971 -0.0520 -0.7648 -0.3551
 1127ACTN    H411725   8.976   5.549   7.979 -0.4513 -0.4590  3.1959
 1127ACTN    H511726   8.966   5.697   7.877  2.1954  1.0512 -0.4369
 1127ACTN    C211727   9.148   5.678   7.987  0.3762 -0.3892 -0.1388
 1127ACTN    O111728   9.229   5.583   7.965  1.1643 -0.0749  0.2939
 1127ACTN    C111729   9.197   5.813   8.030  0.0072  0.5010  0.3306
 1127ACTN    H111730   9.122   5.859   8.093 -0.2075  0.1105  0.3640
 1127ACTN    H211731   9.208   5.875   7.941 -1.9564 -0.6802 -0.7752
 1127ACTN    H311732   9.293   5.815   8.082 -0.9493 -0.5517  2.1561
 1128ACTN    H611733   7.789   8.561   3.531  0.5246 -0.8731 -0.4175
 1128ACTN    C311734   7.717   8.529   3.456 -0.0433 -0.1663 -0.1831
 1128ACTN    H411735   7.776   8.527   3.364  0.0991 -1.1177 -0.0754
 1128ACTN    H511736   7.697   8.422   3.468  0.9879 -0.2070  1.3252
 1128ACTN    C211737   7.592   8.617   3.441 -0.5049 -0.1010 -0.3610
 1128ACTN    O111738   7.506   8.571   3.367 -0.6659  0.1221 -0.0970
 1128ACTN    C111739   7.564   8.727   3.535  0.6462 -0.2533 -0.4572
 1128ACTN    H111740   7.501   8.690   3.617  1.0515  0.5215  0.2093
 1128ACTN    H211741   7.513   8.800   3.472  2.1013  0.9268 -0.2948
 1128ACTN    H311742   7.653   8.780   3.569 -0.1584  0.3318  0.7636
 1129ACTN    H611743   8.897   7.583   5.319  0.5147  1.7439 -2.7074
 1129ACTN    C311744   9.006   7.585   5.321  0.5580 -0.1540 -0.4550
 1129ACTN    H411745   9.035   7.655   5.243  1.2602 -0.7695 -0.7539
 1129ACTN    H511746   9.036   7.628   5.416 -1.1800 -0.0193  0.0531
 1129ACTN    C211747   9.067   7.448   5.296 -0.3453 -0.3534  0.1527
 1129ACTN    O111748   9.014   7.352   5.346  0.1134  0.2965 -0.4016
 1129ACTN    C111749   9.161   7.449   5.178  0.1874  0.1172 -0.3833
 1129ACTN    H111750   9.118   7.493   5.088  0.8300  3.4140  0.8530
 1129ACTN    H211751   9.178   7.344   5.155  1.1201 -0.0007  0.8263
 1129ACTN    H311752   9.261   7.491   5.188  0.3697 -0.5487  0.6202
 1130ACTN    H611753   5.525   5.070   0.478 -0.4733  0.5744 -3.0224
 1130ACTN    C311754   5.428   5.024   0.460 -0.6503  0.0511 -0.8615
 1130ACTN    H411755   5.357   5.103   0.486  0.9112  1.0108  0.5528
 1130ACTN    H511756   5.410   5.006   0.354 -0.5725  2.7254 -1.3685
 1130ACTN    C211757   5.417   4.890   0.528  0.5041 -0.3857 -0.0621
 1130ACTN    O111758   5.505   4.806   0.521 -0.2025  0.1907  0.3632
 1130ACTN    C111759   5.277   4.859   0.579 -0.0527 -0.0089 -0.4374
 1130ACTN    H111760   5.261   4.754   0.555 -0.3456 -0.0618 -0.0108
 1130ACTN    H211761   5.203   4.931   0.543  1.0072 -0.0486 -2.7658
 1130ACTN    H311762   5.274   4.869   0.687 -1.8097  1.2247 -0.5867
 1131ACTN    H611763   8.966   0.263   2.290 -1.7205 -0.9347 -0.3638
 1131ACTN    C311764   8.992   0.195   2.209 -0.3835  0.1280 -0.8430
 1131ACTN    H411765   8.934   0.104   2.224  3.0504 -1.8710  1.0220
 1131ACTN    H511766   8.974   0.242   2.112  0.8124 -0.6245 -1.4433
 1131ACTN    C211767   9.137   0.159   2.225 -0.1561 -0.7703  0.2079
 1131ACTN    O111768   9.213   0.243   2.265 -0.0731 -0.1038 -0.2661
 1131ACTN    C111769   9.183   0.029   2.192 -0.3167  0.3301 -0.2140
 1131ACTN    H111770   9.099  -0.040   2.206 -0.2385  0.7239  2.5239
 1131ACTN    H211771   9.256   0.003   2.268 -1.1976 -0.5218  0.3606
 1131ACTN    H311772   9.225   0.029   2.091 -1.8646  1.0989 -0.8781
 1132ACTN    H611773   0.576   1.792   4.077  0.1332  0.9153 -0.4892
 1132ACTN    C311774   0.490   1.827   4.020 -0.0611  0.8325 -0.2484
 1132ACTN    H411775   0.466   1.751   3.946  0.1977  2.4770 -2.0718
 1132ACTN    H511776   0.401   1.842   4.081 -1.1032 -1.1888 -1.2317
 1132ACTN    C211777   0.520   1.960   3.958 -0.2806  0.1336  0.1264
 1132ACTN    O111778   0.561   1.969   3.840  0.1115 -0.1174  0.2490
 1132ACTN    C111779   0.456   2.074   4.019 -0.1242 -0.0886  0.0895
 1132ACTN    H111780   0.518   2.162   4.003 -0.2048  0.4706  2.6317
 1132ACTN    H211781   0.445   2.062   4.127 -1.6751  0.3933 -0.0062
 1132ACTN    H311782   0.357   2.099   3.981  0.3628  0.2211 -0.9714
 1133ACTN    H611783   5.988   6.697   5.827  0.7372 -0.2308 -0.7311
 1133ACTN    C311784   5.895   6.669   5.779  0.2650 -0.1797  0.1360
 1133ACTN    H411785   5.916   6.605   5.693 -0.1729 -0.5220  0.2826
 1133ACTN    H511786   5.826   6.615   5.843 -2.0644  0.4510 -1.7338
 1133ACTN    C211787   5.821   6.792   5.738 -1.0029 -0.2911  0.0136
 1133ACTN    O111788   5.752   6.785   5.642  0.3785 -0.1847  0.6207
 1133ACTN    C111789   5.832   6.912   5.824  0.2597  0.8514 -0.1320
 1133ACTN    H111790   5.784   6.998   5.777  1.2771  1.4042 -0.1707
 1133ACTN    H211791   5.930   6.955   5.844 -0.3120  2.6349 -1.0778
 1133ACTN    H311792   5.797   6.885   5.923  0.9816  0.1802 -0.0528
 1134ACTN    H611793   8.653   2.818   6.904  0.5293 -0.6600 -0.0979
 1134ACTN    C311794   8.695   2.899   6.965  0.0248 -0.2684 -0.2719
 1134ACTN    H411795   8.750   2.846   7.042  3.6201  2.3844 -0.9298
 1134ACTN    H511796   8.759   2.962   6.904 -1.8410  1.8863 -0.0708
 1134ACTN    C211797   8.579   2.984   7.016 -0.2397  0.0687 -0.4528
 1134ACTN    O111798   8.581   3.011   7.135  0.1942  0.1817  0.0248
 1134ACTN    C111799   8.450   2.987   6.933 -0.0152 -0.1643  0.3736
 1134ACTN    H111800   8.429   2.892   6.886  0.6727  1.4934 -3.4487
 1134ACTN    H211801   8.462   3.061   6.854  0.9723  0.2245  0.8731
 1134ACTN    H311802   8.374   3.021   7.004  0.7756  1.5437  0.4356
 1135ACTN    H611803   5.736   0.720   6.068  0.4029  0.8490 -1.6442
 1135ACTN    C311804   5.628   0.727   6.061  0.1893 -0.1747  0.4280
 1135ACTN    H411805   5.594   0.711   5.959 -1.8984 -0.9684  1.2247
 1135ACTN    H511806   5.581   0.651   6.123  0.3003 -0.4550  0.1682
 1135ACTN    C211807   5.586   0.868   6.101  0.2301  0.4172 -0.1379
 1135ACTN    O111808   5.647   0.961   6.051 -0.2292  0.8288 -0.7365
 1135ACTN    C111809   5.466   0.901   6.181 -0.5371  0.3364  0.3024
 1135ACTN    H111810   5.434   0.816   6.241 -1.0572  0.6764  0.5133
 1135ACTN    H211811   5.388   0.927   6.109 -0.5083  1.5920  0.7108
 1135ACTN    H311812   5.494   0.984   6.246  0.9263 -0.0924  0.2391
 1136ACTN    H611813   7.855   7.152   1.841  0.0282 -0.4400  0.4790
 1136ACTN    C311814   7.937   7.155   1.769 -0.7207  0.0224 -0.3722
 1136ACTN    H411815   7.916   7.217   1.682  2.5488 -0.4515 -1.5935
 1136ACTN    H511816   8.015   7.204   1.828 -0.1547 -1.0961 -0.1668
 1136ACTN    C211817   7.978   7.013   1.738 -0.8764  0.6751  0.3811
 1136ACTN    O111818   7.966   6.957   1.630 -0.7202  0.5232 -0.1556
 1136ACTN    C111819   8.020   6.930   1.849  0.5403  0.6359 -0.1971
 1136ACTN    H111820   8.129   6.935   1.857  0.8671  0.3629 -3.8844
 1136ACTN    H211821   7.995   6.824   1.839  0.9580  0.6061 -0.9957
 1136ACTN    H311822   7.979   6.965   1.944 -1.2944  0.3648 -0.8795
 1137ACTN    H611823   5.356   8.720   1.539  0.1337 -0.5208  0.6240
 1137ACTN    C311824   5.371   8.821   1.578  0.6005 -0.2403 -0.2865
 1137ACTN    H411825   5.465   8.863   1.541 -1.1327  1.8102 -2.5338
 1137ACTN    H511826   5.288   8.882   1.541  0.0706 -0.2300  0.9035
 1137ACTN    C211827   5.370   8.840   1.724 -0.7132  0.4933 -0.0069
 1137ACTN    O111828   5.473   8.824   1.789 -0.4697  0.3476  0.4127
 1137ACTN    C111829   5.245   8.868   1.805  0.1351  0.3077  0.3959
 1137ACTN    H111830   5.271   8.883   1.909 -2.2764 -0.8658  1.2006
 1137ACTN    H211831   5.171   8.788   1.799 -0.0817  0.4299  1.4990
 1137ACTN    H311832   5.199   8.957   1.761 -0.5687 -0.3919 -0.2885
 1138ACTN    H611833   8.079   2.065   0.963  1.6326 -0.2094 -2.2424
 1138ACTN    C311834   8.067   2.173   0.971  0.2151 -0.5382  0.3455
 1138ACTN    H411835   8.035   2.200   1.072  1.4594  0.3246  0.5176
 1138ACTN    H511836   8.163   2.222   0.956 -1.0352  1.7635 -0.4311
 1138ACTN    C211837   7.963   2.214   0.873  0.1189  0.0779 -0.0099
 1138ACTN    O111838   7.848   2.252   0.900 -0.1533 -0.4763 -0.2977
 1138ACTN    C111839   8.000   2.199   0.728 -0.3081 -0.5610  0.1488
 1138ACTN    H111840   7.923   2.150   0.669 -1.3770  2.3557 -0.9836
 1138ACTN    H211841   8.074   2.120   0.715  2.0924  1.5938  0.3326
 1138ACTN    H311842   8.049   2.283   0.679  0.8403 -1.8587 -0.9781
 1139ACTN    H611843   2.164   3.115   7.400 -2.6069 -2.3693 -0.3655
 1139ACTN    C311844   2.106   3.190   7.347  0.4394 -0.0895 -0.5789
 1139ACTN    H411845   2.076   3.257   7.428 -0.1610 -0.6691 -0.3226
 1139ACTN    H511846   2.173   3.255   7.289 -0.0806  0.8956 -0.0932
 1139ACTN    C211847   1.986   3.144   7.273 -1.1475 -0.7074  0.0538
 1139ACTN    O111848   1.874   3.165   7.313 -0.4683 -0.6369 -0.2819
 1139ACTN    C111849   1.996   3.080   7.140  0.5575 -0.7508  0.4454
 1139ACTN    H111850   1.973   2.973   7.150  1.1764 -1.2534 -3.0322
 1139ACTN    H211851   2.098   3.090   7.104  0.4824 -2.7486 -0.4099
 1139ACTN    H311852   1.930   3.115   7.061  1.5212  1.4911  0.6159
 1140ACTN    H611853   6.433   0.791   0.367  0.1867 -2.1371  1.0787
 1140ACTN    C311854   6.476   0.795   0.468 -0.2895 -0.1037  1.2117
 1140ACTN    H411855   6.395   0.786   0.540 -0.0193 -1.4252  1.3463
 1140ACTN    H511856   6.540   0.710   0.490 -1.8696 -1.4873  0.6050
 1140ACTN    C211857   6.539   0.926   0.493  0.1752 -0.3973 -0.1478
 1140ACTN    O111858   6.652   0.937   0.541 -0.1898  0.3592 -0.0001
 1140ACTN    C111859   6.453   1.048   0.488  0.1429  0.0132 -0.3027
 1140ACTN    H111860   6.349   1.034   0.461  0.4469 -2.3999 -0.2653
 1140ACTN    H211861   6.485   1.121   0.413  1.6395 -2.0209 -1.6867
 1140ACTN    H311862   6.449   1.089   0.589 -2.0549 -0.6581 -0.0873
 1141ACTN    H611863   5.922   7.559   3.351 -2.1759  0.6962 -1.0048
 1141ACTN    C311864   5.856   7.538   3.435  0.1080 -0.6299  0.5254
 1141ACTN    H411865   5.893   7.591   3.523  1.1329  0.6282 -0.6556
 1141ACTN    H511866   5.756   7.572   3.408 -0.1335  1.2864  3.5271
 1141ACTN    C211867   5.850   7.393   3.455 -0.2151 -0.6246  0.2820
 1141ACTN    O111868   5.899   7.336   3.550  0.1518 -0.0584  0.6584
 1141ACTN    C111869   5.810   7.313   3.336  0.4257 -0.6205  0.2246
 1141ACTN    H111870   5.786   7.376   3.250  1.6329  0.3324  0.5675
 1141ACTN    H211871   5.719   7.260   3.359  0.1075  0.0349  0.4857
 1141ACTN    H311872   5.879   7.236   3.301  0.2174  0.5363 -2.9067
 1142ACTN    H611873   5.673   8.787   4.953  1.3963  0.0666  0.4496
 1142ACTN    C311874   5.646   8.870   5.019 -0.3005  0.3023 -0.5090
 1142ACTN    H411875   5.719   8.865   5.100  1.2048  0.6471 -1.8174
 1142ACTN    H511876   5.662   8.970   4.978  0.9464  1.7721  3.3700
 1142ACTN    C211877   5.512   8.861   5.082 -0.1846 -0.0727  0.1577
 1142ACTN    O111878   5.467   8.963   5.134  0.6033  0.0741  0.2166
 1142ACTN    C111879   5.418   8.742   5.053  0.5947  0.7737  0.0398
 1142ACTN    H111880   5.341   8.765   4.980 -0.1248 -1.2890  0.0947
 1142ACTN    H211881   5.366   8.718   5.146  2.2491  1.3260  1.1288
 1142ACTN    H311882   5.480   8.655   5.029 -1.1930 -0.2590 -0.9623
 1143ACTN    H611883   4.810   0.290   4.845 -1.1335  0.4387  0.1981
 1143ACTN    C311884   4.831   0.370   4.916  0.2389  0.4716 -0.2289
 1143ACTN    H411885   4.742   0.422   4.952  0.8042  0.8297  0.6568
 1143ACTN    H511886   4.875   0.330   5.007 -0.6442  1.2085  0.5421
 1143ACTN    C211887   4.930   0.460   4.844  0.6873  0.6985 -0.5683
 1143ACTN    O111888   5.046   0.422   4.831 -0.5402  0.8448  0.1681
 1143ACTN    C111889   4.893   0.597   4.800  0.6972  0.1332 -0.8335
 1143ACTN    H111890   4.839   0.650   4.877 -0.8645 -0.3451 -1.5740
 1143ACTN    H211891   4.825   0.598   4.715 -1.2124  0.3460  0.6806
 1143ACTN    H311892   4.977   0.659   4.770  0.8205 -0.3775 -1.5831
 1144ACTN    H611893   3.430   0.828   0.653  0.6604  1.0947  0.2896
 1144ACTN    C311894   3.499   0.776   0.587 -0.0136 -0.0271  0.4480
 1144ACTN    H411895   3.588   0.741   0.640  1.7204  4.2876  0.6315
 1144ACTN    H511896   3.448   0.691   0.543 -0.4951 -0.1282  1.1967
 1144ACTN    C211897   3.549   0.872   0.485  0.1620 -0.2695  0.0822
 1144ACTN    O111898   3.649   0.938   0.511  0.1959  0.5365  0.2213
 1144ACTN    C111899   3.500   0.859   0.342  0.9512 -0.1294  0.1514
 1144ACTN    H111900   3.515   0.757   0.306 -1.2282 -0.3397 -0.2359
 1144ACTN    H211901   3.555   0.930   0.281  0.3454  0.8128  0.6909
 1144ACTN    H311902   3.392   0.868   0.346  1.0527  0.9558  0.6339
 1145ACTN    H611903   6.936   1.475   5.609  1.2100  0.8245  0.1358
 1145ACTN    C311904   6.964   1.496   5.505  0.4610  0.4196 -0.1518
 1145ACTN    H411905   7.016   1.591   5.512  1.2574 -0.1839  2.8011
 1145ACTN    H511906   7.036   1.421   5.472  0.0178  0.9424 -2.3985
 1145ACTN    C211907   6.843   1.501   5.421 -0.1624  0.2263 -0.1586
 1145ACTN    O111908   6.805   1.608   5.378 -0.6919 -0.0289 -0.1785
 1145ACTN    C111909   6.763   1.379   5.382  0.0666  0.2019  0.4531
 1145ACTN    H111910   6.825   1.294   5.355  0.1264  0.3900 -0.0101
 1145ACTN    H211911   6.697   1.410   5.301  0.5952 -0.0995 -0.0965
 1145ACTN    H311912   6.698   1.346   5.463 -1.0083  1.2046  0.0087
 1146ACTN    H611913   1.626   8.999   5.760  1.2275 -1.0368  2.3025
 1146ACTN    C311914   1.730   9.032   5.749  0.5783  0.3493  0.0760
 1146ACTN    H411915   1.736   9.118   5.815 -2.3448  1.0445 -0.4841
 1146ACTN    H511916   1.796   8.951   5.779  0.4894 -0.8817 -2.8454
 1146ACTN    C211917   1.747   9.075   5.610  0.9156  0.4043  0.0289
 1146ACTN    O111918   1.759   8.996   5.519 -0.8257 -0.2674  0.1404
 1146ACTN    C111919   1.774   9.215   5.588  0.2546 -0.3001  0.4388
 1146ACTN    H111920   1.716   9.280   5.654  2.6880  3.6821 -1.1625
 1146ACTN    H211921   1.752   9.244   5.485  3.6516  1.4953  0.1211
 1146ACTN    H311922   1.882   9.225   5.600  0.8883 -3.7566 -1.7485
 1147ACTN    H611923   1.969   5.166   4.865 -2.9315 -2.0493 -0.9201
 1147ACTN    C311924   1.913   5.235   4.928 -0.4359 -0.6677 -0.1638
 1147ACTN    H411925   1.977   5.317   4.959 -0.1084 -0.4811 -1.3195
 1147ACTN    H511926   1.842   5.289   4.865  0.4065 -1.4912 -1.8553
 1147ACTN    C211927   1.851   5.166   5.053  0.2582  0.6422  0.5796
 1147ACTN    O111928   1.929   5.109   5.134 -0.1969  0.4328 -0.0397
 1147ACTN    C111929   1.704   5.145   5.065 -0.4417  0.4424 -0.0308
 1147ACTN    H111930   1.668   5.092   4.977  2.2323  2.6737 -2.5988
 1147ACTN    H211931   1.646   5.237   5.069 -2.5748 -0.9379  1.1991
 1147ACTN    H311932   1.682   5.092   5.157  0.0175 -1.3192 -0.9096
 1148ACTN    H611933   7.168   8.643   5.234 -0.3910  0.1506 -1.6943
 1148ACTN    C311934   7.271   8.638   5.198 -0.0717 -0.4790 -0.7005
 1148ACTN    H411935   7.332   8.686   5.275  1.4390 -0.6976 -1.7442
 1148ACTN    H511936   7.293   8.531   5.188  0.5661 -0.2687 -1.6678
 1148ACTN    C211937   7.275   8.722   5.074  0.2193  0.1258 -0.3271
 1148ACTN    O111938   7.210   8.828   5.069 -0.1674 -0.1342  0.8620
 1148ACTN    C111939   7.386   8.714   4.974 -0.1643 -0.4609 -0.0276
 1148ACTN    H111940   7.379   8.804   4.913  2.5055  1.3554  2.2212
 1148ACTN    H211941   7.373   8.630   4.905  0.0242 -0.8411  0.4041
 1148ACTN    H311942   7.482   8.708   5.024  0.1189 -2.9194 -0.8231
 1149ACTN    H611943   0.369   0.511   1.692  0.5108 -0.8593  0.0659
 1149ACTN    C311944   0.333   0.450   1.775  0.3033 -0.3895  0.3192
 1149ACTN    H411945   0.368   0.348   1.758  0.9454  0.1987 -2.0319
 1149ACTN    H511946   0.364   0.480   1.875  2.7992 -0.2016 -0.4748
 1149ACTN    C211947   0.182   0.453   1.762  0.7437  0.3443 -0.7182
 1149ACTN    O111948   0.121   0.557   1.757  0.4091 -0.2585 -0.3365
 1149ACTN    C111949   0.111   0.321   1.772  0.5045 -0.1686  0.1499
 1149ACTN    H111950   0.034   0.306   1.697 -0.3594 -1.4826  1.2720
 1149ACTN    H211951   0.058   0.325   1.868  0.9779 -0.7802  0.4442
 1149ACTN    H311952   0.185   0.241   1.768  1.4954  0.8327 -2.6605
 1150ACTN    H611953   0.589   7.251   1.723 -0.9052  1.2001  0.4089
 1150ACTN    C311954   0.530   7.246   1.632  0.7543 -0.4069 -0.5959
 1150ACTN    H411955   0.497   7.146   1.604  0.2831 -0.8921  1.6556
 1150ACTN    H511956   0.448   7.315   1.651 -0.1921 -2.3176  2.5582
 1150ACTN    C211957   0.610   7.295   1.519  0.0438  0.7177  0.0331
 1150ACTN    O111958   0.728   7.257   1.500 -0.4266  0.1936 -0.0031
 1150ACTN    C111959   0.562   7.413   1.438  0.2314 -0.3780  0.0852
 1150ACTN    H111960   0.625   7.446   1.356 -1.3741  1.5585 -0.4063
 1150ACTN    H211961   0.546   7.503   1.497 -2.3742 -0.1495 -0.9229
 1150ACTN    H311962   0.468   7.395   1.387 -0.2261  1.0686  0.3950
 1151ACTN    H611963   2.171   8.117   4.299  0.2402 -0.1963  0.7945
 1151ACTN    C311964   2.096   8.102   4.221  0.6058 -0.2555  0.4519
 1151ACTN    H411965   1.996   8.121   4.260 -0.0452 -0.5618 -1.0321
 1151ACTN    H511966   2.091   7.997   4.193 -3.2392 -0.7466  2.5899
 1151ACTN    C211967   2.087   8.206   4.110  1.0136  0.1601  0.3774
 1151ACTN    O111968   2.157   8.308   4.109 -0.4874  0.3762  0.3084
 1151ACTN    C111969   1.995   8.188   4.000 -0.2809  0.0241  0.7778
 1151ACTN    H111970   1.944   8.092   4.006  1.0373 -0.6114  2.0919
 1151ACTN    H211971   2.051   8.194   3.907  0.1377  2.8879  1.1813
 1151ACTN    H311972   1.923   8.270   4.001  0.1682  0.4508 -1.1509
 1152ACTN    H611973   7.082   7.952   6.945  0.4534  0.1542  0.0377
 1152ACTN    C311974   7.146   7.898   6.875  0.5139 -0.2413  0.3974
 1152ACTN    H411975   7.094   7.809   6.839  0.4189  0.8019 -2.1387
 1152ACTN    H511976   7.156   7.964   6.788  1.6056 -1.6488 -0.5752
 1152ACTN    C211977   7.274   7.883   6.938 -0.9385 -0.3288 -0.0415
 1152ACTN    O111978   7.317   7.771   6.956 -0.4197  0.3440 -0.5187
 1152ACTN    C111979   7.355   7.999   6.989 -0.7176 -0.2253  0.0315
 1152ACTN    H111980   7.295   8.059   7.058 -0.9435  0.2264 -0.5523
 1152ACTN    H211981   7.382   8.058   6.902  2.4324 -0.3729  0.8408
 1152ACTN    H311982   7.447   7.961   7.034  0.7911  2.0393 -1.0445
 1153ACTN    H611983   8.549   4.187   3.291  0.3897  2.9970  1.7239
 1153ACTN    C311984   8.503   4.256   3.219 -0.6114  0.7888  0.1876
 1153ACTN    H411985   8.419   4.297   3.275 -0.2549 -0.4984  1.6997
 1153ACTN    H511986   8.463   4.201   3.134  0.2368 -0.2525  0.4358
 1153ACTN    C211987   8.603   4.348   3.168  0.4731  0.1160  0.6190
 1153ACTN    O111988   8.713   4.367   3.215  0.1873  0.1487  0.2036
 1153ACTN    C111989   8.552   4.431   3.059 -0.3679 -0.6149  0.1116
 1153ACTN    H111990   8.549   4.538   3.077  0.0615 -0.5884  0.0353
 1153ACTN    H211991   8.450   4.400   3.038 -0.7102 -0.6494  1.7630
 1153ACTN    H311992   8.619   4.426   2.974  0.4937  0.0006  0.7426
 1154ACTN    H611993   4.939   5.357   4.478  0.4911  0.2853 -2.3357
 1154ACTN    C311994   5.023   5.316   4.422  1.2757 -0.3192 -0.7600
 1154ACTN    H411995   5.068   5.230   4.472  1.9968  0.0161 -0.8206
 1154ACTN    H511996   5.101   5.392   4.411  0.1593  0.8367 -0.7281
 1154ACTN    C211997   4.977   5.268   4.287 -0.0325  0.0229  0.1632
 1154ACTN    O111998   5.003   5.153   4.258  0.0025  0.4367  0.3769
 1154ACTN    C111999   4.904   5.346   4.189 -0.1324 -0.5038  0.7379
 1154ACTN    H112000   4.965   5.429   4.153  0.3693 -1.1685  0.0331
 1154ACTN    H212001   4.815   5.384   4.238  0.0090  1.3109 -0.3884
 1154ACTN    H312002   4.880   5.281   4.105 -2.1185  2.0662 -0.7039
 1155ACTN    H612003   5.999   7.405   4.504 -1.6491  0.8494 -1.3804
 1155ACTN    C312004   5.931   7.324   4.480 -0.1425 -0.8540 -0.0940
 1155ACTN    H412005   5.977   7.226   4.493 -1.0356 -1.2872 -0.1588
 1155ACTN    H512006   5.841   7.318   4.542 -0.3297  1.0751 -0.1337
 1155ACTN    C212007   5.891   7.339   4.329 -0.7619  0.2465 -0.6190
 1155ACTN    O112008   5.822   7.249   4.285  0.4307  1.0502  0.3286
 1155ACTN    C112009   5.935   7.454   4.237  0.4813  0.6543 -0.6353
 1155ACTN    H112010   5.889   7.437   4.140  0.5954  1.2482 -0.7951
 1155ACTN    H212011   6.042   7.445   4.221  0.2241 -0.0247 -2.0442
 1155ACTN    H312012   5.904   7.548   4.283 -1.0984 -1.9132  3.8853
 1156ACTN    H612013   8.916   6.458   7.203 -1.3878  3.0325 -0.6208
 1156ACTN    C312014   8.820   6.444   7.253 -0.4695 -0.2635  0.3640
 1156ACTN    H412015   8.737   6.480   7.192 -0.6815  0.9815  1.3707
 1156ACTN    H512016   8.809   6.337   7.267  0.1947 -0.3657  0.1100
 1156ACTN    C212017   8.813   6.512   7.388  0.6612 -0.8997 -0.6146
 1156ACTN    O112018   8.716   6.577   7.420 -0.3218  0.1149  0.4207
 1156ACTN    C112019   8.919   6.482   7.494 -0.4952 -0.4316  0.0033
 1156ACTN    H112020   8.990   6.407   7.461 -0.9503  0.0914 -2.2515
 1156ACTN    H212021   8.886   6.451   7.593  1.6609  2.0606  1.5675
 1156ACTN    H312022   8.978   6.571   7.514 -0.2106 -0.7151  0.4157
 1157ACTN    H612023   4.056   3.183   7.032  1.9388  0.3237  0.3462
 1157ACTN    C312024   4.038   3.290   7.042 -1.1647 -0.1966  0.8663
 1157ACTN    H412025   4.041   3.314   7.149 -1.2339 -0.6759  0.9760
 1157ACTN    H512026   4.120   3.342   6.993 -2.0140 -0.6728 -1.1045
 1157ACTN    C212027   3.903   3.337   6.993 -0.1434  0.0443 -0.5798
 1157ACTN    O112028   3.845   3.281   6.899 -0.7768 -0.1712  0.2309
 1157ACTN    C112029   3.835   3.446   7.069 -0.2490 -0.1441  0.3689
 1157ACTN    H112030   3.749   3.412   7.127 -1.6805 -0.4883 -1.8732
 1157ACTN    H212031   3.814   3.533   7.006  4.5961  0.2897 -0.8528
 1157ACTN    H312032   3.905   3.482   7.145 -2.6213  1.7796  1.7219
 1158ACTN    H612033   0.952   6.231   7.343 -2.0855 -0.4467  3.1177
 1158ACTN    C312034   1.004   6.294   7.415  0.8807  0.9027 -0.0557
 1158ACTN    H412035   0.958   6.284   7.513  0.7346  2.0039  0.0002
 1158ACTN    H512036   1.110   6.270   7.414  0.9705  1.2426 -2.9970
 1158ACTN    C212037   0.981   6.421   7.356  0.0386  0.8938 -0.3956
 1158ACTN    O112038   1.048   6.447   7.258  0.1031  0.4035  0.2163
 1158ACTN    C112039   0.895   6.527   7.423  0.3636  0.9841 -0.1642
 1158ACTN    H112040   0.830   6.552   7.338  0.4149  1.2351 -0.1306
 1158ACTN    H212041   0.960   6.606   7.460  0.3336  0.8592  0.1541
 1158ACTN    H312042   0.843   6.482   7.507 -0.7004  2.9355  0.2740
 1159ACTN    H612043   5.089   0.573   6.233 -0.0666 -0.5457 -1.6741
 1159ACTN    C312044   5.123   0.658   6.175  0.7670 -0.1008 -0.5410
 1159ACTN    H412045   5.029   0.707   6.149  0.2610 -0.0370  1.2926
 1159ACTN    H512046   5.198   0.713   6.233  1.1243 -1.2587  0.1160
 1159ACTN    C212047   5.195   0.606   6.049  0.3715 -0.6341 -0.0698
 1159ACTN    O112048   5.213   0.684   5.956 -0.0762 -0.0839  0.5402
 1159ACTN    C112049   5.267   0.483   6.062  0.1225 -0.3357 -0.0308
 1159ACTN    H112050   5.373   0.501   6.083 -0.0362  1.7409 -0.9049
 1159ACTN    H212051   5.268   0.435   5.964 -0.1991 -1.5471  0.5456
 1159ACTN    H312052   5.216   0.413   6.127 -1.5115 -1.8332 -2.8279
 1160ACTN    H612053   5.044   8.708   4.905  0.5153  0.0880 -0.4567
 1160ACTN    C312054   5.068   8.813   4.917 -0.3107  0.2950 -0.5763
 1160ACTN    H412055   5.101   8.837   5.019  1.5806  3.2845 -1.8175
 1160ACTN    H512056   5.157   8.830   4.857 -0.0301 -1.5311 -0.6895
 1160ACTN    C212057   4.970   8.913   4.868  0.0775  0.5124  0.4823
 1160ACTN    O112058   4.953   8.925   4.748 -0.1791 -0.5884  0.1890
 1160ACTN    C112059   4.928   9.030   4.959  0.1716  0.2246  0.1811
 1160ACTN    H112060   4.980   9.027   5.055 -0.0259  2.1689  0.3741
 1160ACTN    H212061   4.820   9.032   4.976  0.1354  1.8065 -0.1287
 1160ACTN    H312062   4.957   9.125   4.914  0.4294  1.4186  2.7807
 1161ACTN    H612063   7.329   3.230   6.827  1.7099  2.7975  0.8277
 1161ACTN    C312064   7.236   3.283   6.805  0.0805 -0.3595 -0.1613
 1161ACTN    H412065   7.249   3.339   6.713  1.2468 -1.4088 -0.6477
 1161ACTN    H512066   7.155   3.214   6.781  1.7869 -2.2405 -0.6511
 1161ACTN    C212067   7.196   3.368   6.930  0.1670  0.2886 -0.6042
 1161ACTN    O112068   7.077   3.370   6.973  0.3640 -0.3518 -0.2621
 1161ACTN    C112069   7.291   3.473   6.973  0.1001 -0.2669 -0.4488
 1161ACTN    H112070   7.372   3.437   7.037  0.9918  1.6979 -0.4190
 1161ACTN    H212071   7.239   3.546   7.035  2.0001  0.9281 -0.1993
 1161ACTN    H312072   7.353   3.523   6.898 -1.2760  2.1237 -0.0372
 1162ACTN    H612073   2.443   8.056   4.312 -0.1355 -1.7599 -1.9194
 1162ACTN    C312074   2.422   7.974   4.381 -0.2477 -0.3027 -0.1726
 1162ACTN    H412075   2.324   7.934   4.354  0.9441 -2.5863 -1.2838
 1162ACTN    H512076   2.500   7.898   4.373  0.8776  0.8639 -0.3464
 1162ACTN    C212077   2.415   8.026   4.520  0.3046  0.2185 -0.6514
 1162ACTN    O112078   2.343   8.122   4.545  0.4623  0.1231 -0.1216
 1162ACTN    C112079   2.510   7.971   4.617 -0.4664 -0.2055 -0.0058
 1162ACTN    H112080   2.467   7.927   4.707  0.6297 -0.7389  0.2750
 1162ACTN    H212081   2.573   8.049   4.661  1.9630 -2.4428  0.6231
 1162ACTN    H312082   2.578   7.897   4.576  1.9341  2.0054 -0.1546
 1163ACTN    H612083   6.306   0.250   1.438  4.6035  0.4165  0.3101
 1163ACTN    C312084   6.303   0.209   1.337 -0.0019  0.5899  0.2644
 1163ACTN    H412085   6.321   0.294   1.271  1.8024 -0.8731 -1.1693
 1163ACTN    H512086   6.385   0.138   1.323  0.0660  0.4563  1.3104
 1163ACTN    C212087   6.164   0.159   1.301  0.0366 -0.6081  0.4222
 1163ACTN    O112088   6.069   0.174   1.375 -0.0973  0.4776 -0.1359
 1163ACTN    C112089   6.130   0.113   1.160  0.2032  0.0572 -0.3316
 1163ACTN    H112090   6.139   0.186   1.080 -1.3208  2.5013  1.6682
 1163ACTN    H212091   6.027   0.076   1.157  0.6146 -1.1293 -0.0473
 1163ACTN    H312092   6.189   0.025   1.134 -1.3228 -1.3563  0.8513
 1164ACTN    H612093   4.158   1.274   1.302 -1.5768  0.8915  1.5136
 1164ACTN    C312094   4.141   1.168   1.322  0.8194  0.0603 -0.5274
 1164ACTN    H412095   4.234   1.122   1.356  0.1969 -0.1640  0.9083
 1164ACTN    H512096   4.070   1.161   1.405  2.0344 -0.8660  0.4525
 1164ACTN    C212097   4.085   1.101   1.202 -0.5916  0.8611  0.1335
 1164ACTN    O112098   3.999   1.014   1.218 -0.7024 -0.0210  0.3791
 1164ACTN    C112099   4.095   1.187   1.081  0.5251 -0.4802 -0.0297
 1164ACTN    H112100   4.166   1.141   1.012  1.7821  0.9727  0.2756
 1164ACTN    H212101   4.135   1.287   1.096  1.8367 -0.8180 -1.1735
 1164ACTN    H312102   4.005   1.202   1.021  1.2002  0.4571 -0.8332
 1165ACTN    H612103   0.584   4.142   1.044  0.2229  0.7012 -0.3367
 1165ACTN    C312104   0.679   4.091   1.060 -0.2881 -0.1956 -0.1368
 1165ACTN    H412105   0.657   4.069   1.164  1.3938 -1.9700 -0.1152
 1165ACTN    H512106   0.687   4.005   0.993  0.4264 -0.7315  0.6167
 1165ACTN    C212107   0.793   4.185   1.052 -0.2485  0.4745 -0.0351
 1165ACTN    O112108   0.810   4.242   0.944  0.4598  0.1814  0.2584
 1165ACTN    C112109   0.848   4.239   1.176 -0.9448 -0.8826 -0.9248
 1165ACTN    H112110   0.778   4.297   1.235 -0.6741  1.0431 -2.4239
 1165ACTN    H212111   0.937   4.302   1.171  0.0215 -2.2268 -0.7456
 1165ACTN    H312112   0.874   4.152   1.236 -0.4582 -0.4959 -0.5733
 1166ACTN    H612113   6.971   2.943   3.349  0.7519  0.5597 -0.5113
 1166ACTN    C312114   6.931   2.933   3.450  0.3330  0.1217 -0.7135
 1166ACTN    H412115   6.962   3.022   3.506  3.8540 -1.3848 -0.1100
 1166ACTN    H512116   6.823   2.923   3.447  0.4098 -0.6858 -0.7399
 1166ACTN    C212117   6.980   2.810   3.513 -0.3104 -0.6245  0.2474
 1166ACTN    O112118   6.932   2.701   3.480  0.2952  0.2756  0.4180
 1166ACTN    C112119   7.072   2.821   3.627  0.5268 -0.2646 -0.1292
 1166ACTN    H112120   7.091   2.923   3.661 -0.3151  0.4673 -1.7540
 1166ACTN    H212121   7.162   2.764   3.604 -0.8585 -2.7645  0.4646
 1166ACTN    H312122   7.023   2.768   3.708  1.2669 -1.2049 -0.2938
 1167ACTN    H612123   5.036   3.208   6.242 -0.5227  0.9430 -0.0842
 1167ACTN    C312124   5.143   3.225   6.253 -0.3208 -0.4899  0.2474
 1167ACTN    H412125   5.172   3.328   6.274 -0.5490 -0.8626  2.4564
 1167ACTN    H512126   5.190   3.156   6.323 -1.1618 -0.8207  0.4960
 1167ACTN    C212127   5.196   3.197   6.116 -0.0485 -1.2423  0.0813
 1167ACTN    O112128   5.289   3.262   6.066 -0.4070 -0.0599 -0.5074
 1167ACTN    C112129   5.138   3.088   6.031 -0.1448  0.1905  0.0096
 1167ACTN    H112130   5.094   3.128   5.939  0.8776 -0.2204 -0.6760
 1167ACTN    H212131   5.069   3.027   6.088 -2.0987  2.2530 -0.1030
 1167ACTN    H312132   5.226   3.030   6.001  0.9346 -0.0164  3.3393
 1168ACTN    H612133   0.397   7.093   5.948  1.2838  0.1993 -1.1972
 1168ACTN    C312134   0.350   7.191   5.957  0.1943 -0.4263  0.2373
 1168ACTN    H412135   0.245   7.178   5.979  0.0598  1.1915  0.5771
 1168ACTN    H512136   0.389   7.250   6.040  0.2085 -1.5688  1.0559
 1168ACTN    C212137   0.364   7.272   5.828 -0.7067  0.4520  0.1651
 1168ACTN    O112138   0.473   7.288   5.771 -0.1539  0.3626  0.2626
 1168ACTN    C112139   0.246   7.335   5.761 -0.5210 -0.0128 -0.5058
 1168ACTN    H112140   0.204   7.410   5.829  0.3060 -0.6083  0.6715
 1168ACTN    H212141   0.176   7.254   5.742  1.0228 -1.7411  1.0625
 1168ACTN    H312142   0.274   7.391   5.671 -3.9442  0.3100 -1.4564
 1169ACTN    H612143   7.532   7.881   0.159  3.0074 -0.7462  1.9013
 1169ACTN    C312144   7.466   7.870   0.245  0.2272 -0.2829 -0.0968
 1169ACTN    H412145   7.519   7.891   0.338 -1.3827 -1.9025  1.2260
 1169ACTN    H512146   7.459   7.761   0.252  2.4203 -0.3592  1.7559
 1169ACTN    C212147   7.333   7.933   0.233 -0.4297 -0.8106  0.0791
 1169ACTN    O112148   7.280   7.935   0.122  0.0191  0.0961 -0.0338
 1169ACTN    C112149   7.262   7.980   0.359  0.7065 -0.9855  0.2252
 1169ACTN    H112150   7.232   8.085   0.356  0.2787 -1.1336 -0.6963
 1169ACTN    H212151   7.318   7.971   0.453 -0.7205 -0.7583  1.1218
 1169ACTN    H312152   7.176   7.913   0.369 -0.7520  0.6045 -1.2446
 1170ACTN    H612153   6.787   1.809   3.315 -0.8366 -0.0970 -0.6311
 1170ACTN    C312154   6.791   1.701   3.329  0.5052  0.0009 -0.1395
 1170ACTN    H412155   6.832   1.658   3.238  1.5747  0.7742 -0.0280
 1170ACTN    H512156   6.856   1.685   3.415  0.4531  2.6473  0.4441
 1170ACTN    C212157   6.662   1.641   3.378 -0.5380  0.1371  0.2277
 1170ACTN    O112158   6.560   1.705   3.385  0.1677  0.1707 -0.6738
 1170ACTN    C112159   6.650   1.501   3.416  0.2252  0.0685  0.2239
 1170ACTN    H112160   6.560   1.491   3.478 -0.9171  0.1453 -1.3781
 1170ACTN    H212161   6.730   1.449   3.469 -0.6020  1.3569  2.8265
 1170ACTN    H312162   6.635   1.445   3.323 -1.1060 -1.0411  1.0796
 1171ACTN    H612163   8.039   0.212   3.026  0.8032 -1.8405  0.6260
 1171ACTN    C312164   8.108   0.268   3.090 -0.8270  0.3365  0.5237
 1171ACTN    H412165   8.077   0.265   3.194  0.2070 -2.2430  0.7956
 1171ACTN    H512166   8.206   0.222   3.093 -1.1548 -0.3701  0.4207
 1171ACTN    C212167   8.119   0.407   3.035  0.0404 -0.0451 -0.3679
 1171ACTN    O112168   8.056   0.497   3.093  0.4007  0.0543 -0.1082
 1171ACTN    C112169   8.172   0.436   2.900 -0.0254 -0.0366  0.0424
 1171ACTN    H112170   8.110   0.392   2.822  0.2186  1.5271 -1.0658
 1171ACTN    H212171   8.268   0.387   2.888 -0.9270 -1.6205 -0.7823
 1171ACTN    H312172   8.182   0.544   2.885 -1.6496  0.2359  0.8080
 1172ACTN    H612173   6.005   0.268   5.016  0.8609  0.2011  0.3567
 1172ACTN    C312174   5.917   0.285   5.078  0.5295  0.2531 -0.1288
 1172ACTN    H412175   5.910   0.190   5.132 -0.5798  0.1741 -0.4011
 1172ACTN    H512176   5.923   0.374   5.141 -1.1937 -1.1705  2.1314
 1172ACTN    C212177   5.794   0.302   4.995 -0.3780 -0.0464 -0.3352
 1172ACTN    O112178   5.806   0.343   4.879 -0.4551  0.2582 -0.2126
 1172ACTN    C112179   5.660   0.260   5.038 -0.1668 -0.0094 -0.3376
 1172ACTN    H112180   5.602   0.348   5.064  0.1120  0.4834 -1.3502
 1172ACTN    H212181   5.654   0.198   5.128  0.4619  0.2932 -0.0898
 1172ACTN    H312182   5.608   0.205   4.959  0.3951 -0.9891 -0.0342
 1173ACTN    H612183   7.256   4.969   1.377  0.5477 -1.9841 -0.9543
 1173ACTN    C312184   7.350   5.008   1.337 -0.1784 -0.4590 -1.2466
 1173ACTN    H412185   7.351   4.968   1.235 -0.4612 -0.4363 -1.2606
 1173ACTN    H512186   7.346   5.116   1.326 -0.4291 -0.1455  1.5057
 1173ACTN    C212187   7.461   4.961   1.419 -0.8562 -0.0203  0.4911
 1173ACTN    O112188   7.576   4.977   1.376 -0.3419  0.2951  0.5276
 1173ACTN    C112189   7.446   4.899   1.543  0.5019 -1.2338 -0.4230
 1173ACTN    H112190   7.506   4.808   1.544  1.6373 -0.5018  0.5439
 1173ACTN    H212191   7.341   4.883   1.568  0.8898 -1.3159  1.2517
 1173ACTN    H312192   7.486   4.959   1.626  2.8129 -1.6160 -1.2374
 1174ACTN    H612193   0.735   3.568   1.448  1.7133 -0.3964  0.2719
 1174ACTN    C312194   0.770   3.655   1.504  0.7150  0.2165 -0.0354
 1174ACTN    H412195   0.704   3.658   1.591 -0.1791 -0.6259 -0.6756
 1174ACTN    H512196   0.866   3.630   1.549  0.2808  0.0590  0.8208
 1174ACTN    C212197   0.766   3.784   1.426 -0.0139 -0.7036  1.0817
 1174ACTN    O112198   0.844   3.873   1.439  0.6500 -0.8150 -0.4317
 1174ACTN    C112199   0.670   3.795   1.314 -0.9863  0.3753 -0.2784
 1174ACTN    H112200   0.636   3.897   1.293 -0.7617  0.3660 -0.6738
 1174ACTN    H212201   0.583   3.731   1.329 -0.4480  0.0026  1.3975
 1174ACTN    H312202   0.726   3.756   1.230 -0.1254  3.7750 -1.3615
 1175ACTN    H612203   7.855   6.681   2.970 -0.3089 -1.2091 -1.3853
 1175ACTN    C312204   7.831   6.768   2.908  0.6105 -0.0233 -0.1146
 1175ACTN    H412205   7.816   6.729   2.807 -0.2481  0.0613 -0.0245
 1175ACTN    H512206   7.738   6.811   2.943 -0.0802 -3.3962  2.4444
 1175ACTN    C212207   7.934   6.876   2.903  0.2259 -1.1452 -0.3700
 1175ACTN    O112208   7.997   6.901   2.794  0.0499 -0.4576  0.4612
 1175ACTN    C112209   7.983   6.928   3.035  0.4468  0.7080 -0.5911
 1175ACTN    H112210   7.920   6.888   3.115  1.3505 -0.6307 -0.5398
 1175ACTN    H212211   7.970   7.036   3.041 -1.3727  0.4878 -0.1164
 1175ACTN    H312212   8.086   6.899   3.053  1.3324  3.6332 -0.8371
 1176ACTN    H612213   5.867   8.876   1.154  3.7999  2.3819  0.9032
 1176ACTN    C312214   5.868   8.841   1.258  0.0555  0.2959  0.3381
 1176ACTN    H412215   5.896   8.736   1.260 -0.5319  0.1619  1.3239
 1176ACTN    H512216   5.956   8.888   1.302  0.8589 -1.1793  0.3317
 1176ACTN    C212217   5.738   8.875   1.330  0.4552 -0.9518  0.1277
 1176ACTN    O112218   5.642   8.793   1.345 -0.4715 -0.2083 -0.2728
 1176ACTN    C112219   5.724   9.006   1.388  0.8686 -0.2107 -1.0427
 1176ACTN    H112220   5.818   9.058   1.374  1.1137  0.0161  1.1783
 1176ACTN    H212221   5.704   9.002   1.496  0.4602  2.0695 -0.9972
 1176ACTN    H312222   5.643   9.061   1.341 -0.9922 -0.6218  1.5423
 1177ACTN    H612223   0.050   5.266   7.443 -1.2815  0.2440 -0.1239
 1177ACTN    C312224   0.052   5.215   7.539 -0.2748  0.1972 -0.1702
 1177ACTN    H412225  -0.003   5.123   7.522 -0.4194  0.0392  1.1077
 1177ACTN    H512226   0.153   5.195   7.575 -0.1509  1.7442  0.3829
 1177ACTN    C212227  -0.021   5.313   7.637 -0.4109  0.7599 -0.3979
 1177ACTN    O112228   0.004   5.436   7.635  0.2903 -0.6950 -0.5779
 1177ACTN    C112229  -0.120   5.262   7.735  0.6668 -0.6058 -0.5910
 1177ACTN    H112230  -0.121   5.153   7.732 -0.2069 -0.6632  0.9524
 1177ACTN    H212231  -0.220   5.300   7.718 -0.6974 -2.8933  1.9068
 1177ACTN    H312232  -0.088   5.293   7.835 -2.0145 -0.3331  0.2129
 1178ACTN    H612233   5.384   3.424   4.917 -0.9290  0.0336 -1.2590
 1178ACTN    C312234   5.442   3.514   4.897 -0.4629  0.1709  0.6585
 1178ACTN    H412235   5.538   3.485   4.853 -0.7743 -1.0964  0.8043
 1178ACTN    H512236   5.392   3.569   4.817 -1.0226  0.4660  1.2020
 1178ACTN    C212237   5.463   3.611   5.005 -0.1794  0.0289  0.0523
 1178ACTN    O112238   5.571   3.651   5.028 -0.1986 -0.0436 -0.1774
 1178ACTN    C112239   5.340   3.686   5.048 -0.1552 -0.4106 -0.3727
 1178ACTN    H112240   5.361   3.732   5.145  0.1027  0.5088 -0.8663
 1178ACTN    H212241   5.254   3.618   5.041 -0.6332  0.5163 -4.2414
 1178ACTN    H312242   5.322   3.768   4.980 -0.9047  1.7591  2.3384
 1179ACTN    H612243   8.012   2.512   3.274 -2.1850  1.4793  0.3846
 1179ACTN    C312244   8.061   2.589   3.214  0.3215 -0.0311  0.4144
 1179ACTN    H412245   8.056   2.683   3.270 -3.9371  0.0341  0.1013
 1179ACTN    H512246   8.165   2.563   3.196 -0.0588 -0.0834 -1.7741
 1179ACTN    C212247   7.967   2.617   3.101  0.2673 -0.3906  0.0330
 1179ACTN    O112248   8.007   2.615   2.985  0.0592 -0.1609  0.4742
 1179ACTN    C112249   7.824   2.635   3.135  0.0190  0.8356  0.0296
 1179ACTN    H112250   7.753   2.553   3.120  1.5444 -0.3862 -0.5707
 1179ACTN    H212251   7.785   2.726   3.090  1.4971  0.4323 -2.1637
 1179ACTN    H312252   7.823   2.645   3.243  2.8884  1.2089  0.0596
 1180ACTN    H612253   0.523   6.631   5.118  0.1716  1.8685  1.5476
 1180ACTN    C312254   0.417   6.613   5.133  0.1565 -0.1119 -0.5121
 1180ACTN    H412255   0.396   6.584   5.237  0.0323  1.4040 -0.1042
 1180ACTN    H512256   0.374   6.713   5.122  1.1755  0.8457  3.3290
 1180ACTN    C212257   0.367   6.514   5.038  0.6246 -0.9807 -0.3758
 1180ACTN    O112258   0.357   6.547   4.921  0.4122 -0.2654  0.3115
 1180ACTN    C112259   0.293   6.389   5.094 -0.1732 -0.0894 -0.8765
 1180ACTN    H112260   0.292   6.397   5.202 -1.1335  1.5310 -0.9887
 1180ACTN    H212261   0.346   6.296   5.076 -0.3188 -0.3382 -0.0143
 1180ACTN    H312262   0.190   6.374   5.061 -1.3086  0.5772  2.1920
 1181ACTN    H612263   0.598   6.902   4.548 -0.3003  0.0811 -0.5744
 1181ACTN    C312264   0.522   6.911   4.470 -0.6398 -0.7082 -0.3301
 1181ACTN    H412265   0.438   6.962   4.516  1.3444 -0.9034  3.7574
 1181ACTN    H512266   0.562   6.981   4.397 -0.3939  1.1210  1.5103
 1181ACTN    C212267   0.479   6.786   4.409  0.4842 -1.1884 -0.0190
 1181ACTN    O112268   0.381   6.782   4.333 -0.2248 -0.5642 -0.4571
 1181ACTN    C112269   0.557   6.661   4.428 -0.3240  0.2139  0.7520
 1181ACTN    H112270   0.488   6.586   4.470 -0.7364  0.2902  0.2095
 1181ACTN    H212271   0.624   6.675   4.513  1.2225 -1.1989 -0.2236
 1181ACTN    H312272   0.618   6.631   4.343 -1.4146  0.7219 -0.2248
 1182ACTN    H612273   5.863   4.617   6.404 -2.2878 -2.1737  2.9679
 1182ACTN    C312274   5.951   4.607   6.467  0.7039 -0.2269 -0.7143
 1182ACTN    H412275   5.924   4.628   6.571  2.8510 -1.1527  0.0715
 1182ACTN    H512276   5.976   4.501   6.459 -0.1198 -0.6108  1.5430
 1182ACTN    C212277   6.065   4.686   6.423 -0.0244 -0.3165  0.3041
 1182ACTN    O112278   6.173   4.694   6.480  0.6494 -0.3626 -0.7681
 1182ACTN    C112279   6.033   4.785   6.319  0.5099  0.5829  0.0352
 1182ACTN    H112280   6.100   4.783   6.234 -1.7165 -0.4738 -1.7374
 1182ACTN    H212281   6.029   4.886   6.360 -1.2006  0.1820  0.9015
 1182ACTN    H312282   5.940   4.773   6.263  0.7828  0.9392 -0.4897
 1183ACTN    H612283   7.005   7.539   6.717  0.7573 -0.7780  1.8300
 1183ACTN    C312284   6.902   7.514   6.741  0.1156 -0.4532 -0.4032
 1183ACTN    H412285   6.833   7.576   6.685 -0.1214 -1.4736 -1.2558
 1183ACTN    H512286   6.886   7.411   6.711  0.7509 -0.8204  0.4911
 1183ACTN    C212287   6.882   7.536   6.891 -0.0283  0.0700  0.1992
 1183ACTN    O112288   6.769   7.569   6.931  0.3731  0.1424 -0.5258
 1183ACTN    C112289   6.987   7.523   6.998  0.2110  0.4116 -0.6484
 1183ACTN    H112290   6.991   7.619   7.051 -1.2305 -0.5568  1.2608
 1183ACTN    H212291   7.089   7.503   6.965  0.1473 -1.7271  0.4137
 1183ACTN    H312292   6.944   7.448   7.063  1.2443  1.9541  1.9115
 1184ACTN    H612293   3.331   3.444   4.757  0.7575 -1.2139 -3.1696
 1184ACTN    C312294   3.251   3.513   4.728  1.0110  0.3242 -0.3813
 1184ACTN    H412295   3.288   3.591   4.662  0.5807  0.4552 -0.4633
 1184ACTN    H512296   3.211   3.552   4.821  3.4230 -1.0937  1.3234
 1184ACTN    C212297   3.157   3.436   4.642 -0.1917  0.9156  0.7759
 1184ACTN    O112298   3.035   3.447   4.652  0.4586 -0.1328 -0.9401
 1184ACTN    C112299   3.212   3.322   4.554 -0.6299  0.4732  0.1370
 1184ACTN    H112300   3.133   3.283   4.490 -0.3798  0.9056 -0.4441
 1184ACTN    H212301   3.239   3.236   4.616 -1.9576 -1.0322 -1.3181
 1184ACTN    H312302   3.303   3.347   4.501 -0.5580 -0.3588 -0.1344
 1185ACTN    H612303   2.068   8.666   4.792 -0.3812 -0.0402 -0.4169
 1185ACTN    C312304   2.122   8.572   4.799 -0.2280  0.0969  0.2590
 1185ACTN    H412305   2.054   8.491   4.770 -0.6854  0.8181 -0.7430
 1185ACTN    H512306   2.204   8.566   4.727 -2.1405  0.3641 -1.9984
 1185ACTN    C212307   2.164   8.556   4.942  0.0624  0.1015 -0.2939
 1185ACTN    O112308   2.082   8.562   5.030 -0.7843  0.1333  0.0749
 1185ACTN    C112309   2.301   8.519   4.978 -0.2041 -0.1751 -0.4941
 1185ACTN    H112310   2.305   8.544   5.084 -0.0913 -0.2771 -0.4744
 1185ACTN    H212311   2.373   8.574   4.918 -0.4407 -0.1923 -0.7956
 1185ACTN    H312312   2.323   8.413   4.963  2.0496  0.2977 -0.7256
 1186ACTN    H612313   0.925   0.839   2.936  1.2591  0.6847  3.0178
 1186ACTN    C312314   0.955   0.938   2.903  1.3818 -0.2138  0.2855
 1186ACTN    H412315   0.868   0.996   2.872  0.8168  0.3031  2.6923
 1186ACTN    H512316   0.989   0.989   2.994 -1.7737  3.5209 -0.4983
 1186ACTN    C212317   1.061   0.910   2.802  0.5938 -0.0805 -0.5276
 1186ACTN    O112318   1.173   0.953   2.824  0.1837 -1.0979 -0.3294
 1186ACTN    C112319   1.021   0.872   2.667 -0.2228 -0.6957 -0.1469
 1186ACTN    H112320   1.092   0.916   2.597  0.8225 -3.0448 -0.6134
 1186ACTN    H212321   0.919   0.894   2.635  0.0934  1.1902  0.0891
 1186ACTN    H312322   1.038   0.764   2.667 -0.7924 -0.7911 -1.7772
 1187ACTN    H612323   6.914   1.694   0.236 -0.4646  0.9134 -1.0631
 1187ACTN    C312324   7.021   1.716   0.242 -0.3607  0.2704 -0.4546
 1187ACTN    H412325   7.073   1.622   0.259  1.1991  0.9075 -1.6076
 1187ACTN    H512326   7.047   1.790   0.317 -0.4529  0.6940 -0.8431
 1187ACTN    C212327   7.055   1.747   0.100 -0.5973  0.6090  0.9552
 1187ACTN    O112328   7.171   1.731   0.057 -0.3440  0.2378 -0.2630
 1187ACTN    C112329   6.942   1.811   0.012  0.3538  0.2916 -0.2967
 1187ACTN    H112330   6.902   1.904   0.051 -2.9865 -0.9780 -0.5420
 1187ACTN    H212331   6.865   1.733   0.017  1.6604 -0.9448  1.0521
 1187ACTN    H312332   6.972   1.829  -0.091 -2.7368  0.9912 -1.1333
 1188ACTN    H612333   2.095   0.473   4.553 -1.3827 -1.4216 -3.4355
 1188ACTN    C312334   2.097   0.572   4.508 -0.7080  0.2246  0.0298
 1188ACTN    H412335   2.024   0.641   4.548 -1.4799  0.7211 -2.1499
 1188ACTN    H512336   2.194   0.614   4.534 -0.7779 -0.2690  1.1196
 1188ACTN    C212337   2.074   0.556   4.364 -0.2986  0.1506  0.7806
 1188ACTN    O112338   2.023   0.644   4.294 -0.0060  0.1336 -0.5843
 1188ACTN    C112339   2.152   0.452   4.296 -0.3840  0.4089  0.3010
 1188ACTN    H112340   2.244   0.505   4.272 -0.5571 -0.2378 -1.8926
 1188ACTN    H212341   2.093   0.423   4.209 -0.4406  2.1630 -0.2803
 1188ACTN    H312342   2.175   0.366   4.358  0.4321 -0.2955 -0.9521
 1189ACTN    H612343   1.277   7.987   5.576 -0.2094  1.9902 -0.9192
 1189ACTN    C312344   1.175   7.998   5.613  0.2755  0.8318  0.7898
 1189ACTN    H412345   1.108   8.034   5.536 -0.3149  0.9420  1.3501
 1189ACTN    H512346   1.141   7.897   5.640 -1.6867  0.7163 -1.9534
 1189ACTN    C212347   1.175   8.101   5.723  0.3310 -0.1936  0.1785
 1189ACTN    O112348   1.278   8.164   5.736 -0.2054  0.2683 -0.4652
 1189ACTN    C112349   1.048   8.142   5.790 -0.2232 -0.3066  0.0218
 1189ACTN    H112350   0.962   8.085   5.755 -0.6071  0.0962  0.3001
 1189ACTN    H212351   1.025   8.247   5.771 -0.6891 -0.3723  0.2432
 1189ACTN    H312352   1.060   8.139   5.898  4.8381  1.5737 -0.3133
 1190ACTN    H612353   6.266   1.904   0.069  0.3227  1.6495 -0.4711
 1190ACTN    C312354   6.241   1.958   0.161 -0.5244  0.0751  0.2528
 1190ACTN    H412355   6.162   1.901   0.211 -1.8043  2.1770  0.6674
 1190ACTN    H512356   6.208   2.059   0.135 -0.1306  0.6624  2.0228
 1190ACTN    C212357   6.370   1.973   0.231 -0.1790  0.1519 -0.2749
 1190ACTN    O112358   6.403   2.086   0.270  0.2897  0.0991 -0.1550
 1190ACTN    C112359   6.435   1.847   0.281 -0.2233 -0.8051  0.1973
 1190ACTN    H112360   6.511   1.872   0.355  0.9880 -2.1445 -0.5626
 1190ACTN    H212361   6.480   1.788   0.201  3.0953 -0.3624  1.6661
 1190ACTN    H312362   6.360   1.785   0.331  0.7221 -1.4300  0.8591
 1191ACTN    H612363   4.168   0.064   7.405  0.5317 -2.1468 -0.8754
 1191ACTN    C312364   4.142   0.021   7.502  0.0436  0.5168  0.1941
 1191ACTN    H412365   4.213  -0.059   7.525 -0.3392  0.0793 -0.1517
 1191ACTN    H512366   4.158   0.101   7.574  2.7628  0.0282  0.1834
 1191ACTN    C212367   4.005  -0.036   7.529  0.7448 -0.5524  0.5262
 1191ACTN    O112368   3.936  -0.061   7.431  0.0428 -0.4512  0.1496
 1191ACTN    C112369   3.948  -0.050   7.662  0.0352  0.5268 -0.0791
 1191ACTN    H112370   4.024  -0.028   7.737  0.9804  0.8052 -1.1112
 1191ACTN    H212371   3.906  -0.146   7.693 -0.4515  1.2768  1.6581
 1191ACTN    H312372   3.865   0.018   7.683  0.0369  0.0862  1.4337
 1192ACTN    H612373   6.169   3.733   2.681 -0.3003 -0.0892  0.5184
 1192ACTN    C312374   6.257   3.735   2.745  0.1416 -0.1771 -0.0815
 1192ACTN    H412375   6.281   3.837   2.773  0.4517  0.0802 -1.2492
 1192ACTN    H512376   6.224   3.685   2.836 -1.7396  0.1037 -0.5833
 1192ACTN    C212377   6.386   3.671   2.690 -0.3355  0.1628 -0.8738
 1192ACTN    O112378   6.474   3.634   2.767  0.3459  0.1348 -0.2112
 1192ACTN    C112379   6.397   3.640   2.545  0.7262  0.3747 -0.1404
 1192ACTN    H112380   6.313   3.665   2.480 -0.4614 -1.7085  0.5372
 1192ACTN    H212381   6.419   3.534   2.531  0.3886  0.2771  0.0574
 1192ACTN    H312382   6.486   3.688   2.505  1.5046 -1.3349 -0.5002
 1193ACTN    H612383   5.208   4.505   0.738  0.1061  1.6076 -0.3359
 1193ACTN    C312384   5.300   4.526   0.794  0.2743 -0.2077  0.1191
 1193ACTN    H412385   5.355   4.612   0.756  1.7840 -0.2291  2.2113
 1193ACTN    H512386   5.274   4.542   0.898  0.9005 -0.4405  0.3065
 1193ACTN    C212387   5.380   4.396   0.782 -0.2977  0.1369 -0.3623
 1193ACTN    O112388   5.413   4.340   0.888  0.2954 -0.1192  0.1146
 1193ACTN    C112389   5.428   4.358   0.644  0.4139 -0.6368  0.4567
 1193ACTN    H112390   5.384   4.260   0.627  1.9044 -0.8631 -2.3565
 1193ACTN    H212391   5.536   4.346   0.648  0.2011 -2.1478  2.3688
 1193ACTN    H312392   5.399   4.431   0.568  2.7892  0.8869  0.9350
 1194ACTN    H612393   5.684   0.938   2.944 -0.3982  1.5924 -0.3398
 1194ACTN    C312394   5.592   0.933   3.001 -0.3570  0.5523 -0.3581
 1194ACTN    H412395   5.507   0.907   2.938  0.6346 -0.1405 -1.4191
 1194ACTN    H512396   5.624   0.855   3.069  0.6330  0.3734 -1.0181
 1194ACTN    C212397   5.573   1.063   3.076  0.5581  0.0055  0.4053
 1194ACTN    O112398   5.653   1.156   3.057 -0.2750  0.3331 -0.4947
 1194ACTN    C112399   5.472   1.072   3.186  0.1167 -0.2327 -0.0783
 1194ACTN    H112400   5.370   1.059   3.151 -0.4114  0.5177  1.1479
 1194ACTN    H212401   5.483   1.170   3.233 -0.2120  0.2478 -0.9950
 1194ACTN    H312402   5.488   0.996   3.263  1.8579  0.8480  0.6579
 1195ACTN    H612403   5.353   6.748   7.890 -0.4511  1.1408 -0.7481
 1195ACTN    C312404   5.462   6.746   7.880 -0.3436  0.5436  0.4980
 1195ACTN    H412405   5.496   6.708   7.977 -0.9627 -1.3953 -0.0124
 1195ACTN    H512406   5.484   6.674   7.801 -0.3386 -1.3676  2.1780
 1195ACTN    C212407   5.518   6.884   7.852 -0.4723 -0.1659 -0.1932
 1195ACTN    O112408   5.474   6.949   7.756 -0.8138  0.4785  0.2259
 1195ACTN    C112409   5.630   6.937   7.940  0.1554  0.1085 -0.0479
 1195ACTN    H112410   5.605   7.029   7.992 -0.0665 -0.7207  1.3438
 1195ACTN    H212411   5.716   6.945   7.874 -1.3986 -2.2589 -2.4468
 1195ACTN    H312412   5.661   6.866   8.017 -0.2267  1.4704  1.3875
 1196ACTN    H612413   8.801   4.975   1.888 -3.5665  0.2560 -0.4416
 1196ACTN    C312414   8.815   5.012   1.787  0.2080 -0.0802 -0.1372
 1196ACTN    H412415   8.785   5.117   1.782 -0.4427 -0.1894  1.2394
 1196ACTN    H512416   8.920   5.000   1.764  0.7699  0.5294  1.9806
 1196ACTN    C212417   8.734   4.923   1.696 -0.3937  0.2930  0.3322
 1196ACTN    O112418   8.666   4.828   1.746 -0.2655  0.6609 -0.4371
 1196ACTN    C112419   8.734   4.936   1.548 -0.0201 -0.1937  0.1671
 1196ACTN    H112420   8.648   4.996   1.518  0.2139 -0.7906 -1.7351
 1196ACTN    H212421   8.735   4.845   1.489  1.1135  0.9492 -1.6124
 1196ACTN    H312422   8.818   4.995   1.513 -0.2463  1.5301  2.4038
 1197ACTN    H612423   2.473   5.575   3.837  1.7565  1.0872 -1.0157
 1197ACTN    C312424   2.445   5.643   3.918 -0.4995 -0.5363 -0.3852
 1197ACTN    H412425   2.362   5.600   3.973 -1.6129  0.2048 -1.4721
 1197ACTN    H512426   2.521   5.647   3.996  1.2882 -0.1713 -2.1164
 1197ACTN    C212427   2.424   5.780   3.873  0.3601  0.1784 -0.0085
 1197ACTN    O112428   2.468   5.874   3.937 -0.3190  0.1465 -0.6424
 1197ACTN    C112429   2.381   5.802   3.730 -0.0690  0.0702 -0.7739
 1197ACTN    H112430   2.374   5.909   3.709  1.1024 -0.2691 -3.0271
 1197ACTN    H212431   2.288   5.746   3.719  1.2569 -2.2267 -0.5424
 1197ACTN    H312432   2.454   5.756   3.663  0.6413  0.0219  0.0189
 1198ACTN    H612433   5.271   7.932   0.590 -0.5902 -0.2453 -1.0469
 1198ACTN    C312434   5.187   7.871   0.624  0.2077 -0.3255  0.7978
 1198ACTN    H412435   5.102   7.913   0.572  1.4464 -1.3015 -2.1204
 1198ACTN    H512436   5.214   7.776   0.578  0.3971  0.2701 -0.3369
 1198ACTN    C212437   5.187   7.879   0.769 -0.5508 -0.2268 -0.5865
 1198ACTN    O112438   5.094   7.937   0.823  0.3963 -0.1570  0.5724
 1198ACTN    C112439   5.285   7.797   0.844 -0.4417 -0.1762 -0.2773
 1198ACTN    H112440   5.380   7.795   0.790 -0.4077 -0.8254 -0.2067
 1198ACTN    H212441   5.249   7.695   0.856  1.0631 -0.8858 -1.6679
 1198ACTN    H312442   5.306   7.843   0.941 -0.5210 -0.5475 -0.0819
 1199ACTN    H612443   6.301   2.535   6.536 -0.9787 -1.3147  0.4273
 1199ACTN    C312444   6.279   2.449   6.473 -0.1365 -0.4764 -1.0396
 1199ACTN    H412445   6.257   2.369   6.544  0.4917  1.1363  1.0071
 1199ACTN    H512446   6.196   2.478   6.409 -0.7483  1.6805  0.6625
 1199ACTN    C212447   6.389   2.391   6.398  0.7822  0.0820 -0.0718
 1199ACTN    O112448   6.505   2.411   6.437  0.3093  0.2320  0.2528
 1199ACTN    C112449   6.361   2.348   6.255 -0.0178 -0.1814 -0.6696
 1199ACTN    H112450   6.328   2.432   6.194  2.6814 -0.0234 -1.9918
 1199ACTN    H212451   6.289   2.267   6.242 -0.4242  0.4701 -2.6685
 1199ACTN    H312452   6.456   2.317   6.212  1.3627  1.6019  1.0322
 1200ACTN    H612453   6.158   7.981   6.635 -0.5360 -2.1733 -0.0561
 1200ACTN    C312454   6.051   7.999   6.632 -0.2789 -0.4437  0.1635
 1200ACTN    H412455   6.035   8.054   6.724  0.4200 -0.1503  0.1067
 1200ACTN    H512456   6.038   8.060   6.542  1.1520 -0.0300  0.2246
 1200ACTN    C212457   5.976   7.877   6.621  0.0994 -0.1569 -0.0308
 1200ACTN    O112458   5.862   7.885   6.663 -0.3477 -0.1029 -0.2738
 1200ACTN    C112459   6.035   7.745   6.575  0.3409 -0.3362 -0.3839
 1200ACTN    H112460   6.143   7.735   6.564  0.1045 -0.2679 -3.0440
 1200ACTN    H212461   5.980   7.724   6.483 -0.0202  3.0938 -1.0030
 1200ACTN    H312462   6.013   7.671   6.652  1.2942  0.4504  0.6603
 1201ACTN    H612463   7.314   1.750   5.668  0.4579  0.2305  1.5004
 1201ACTN    C312464   7.375   1.840   5.660 -0.2664  0.6287  0.3633
 1201ACTN    H412465   7.354   1.885   5.757 -1.3268  0.1099  0.3766
 1201ACTN    H512466   7.480   1.809   5.661 -0.3980  0.1766 -0.0247
 1201ACTN    C212467   7.335   1.927   5.541  0.1372  0.0042  0.0556
 1201ACTN    O112468   7.354   1.888   5.426 -0.8153  0.3735  0.1269
 1201ACTN    C112469   7.249   2.043   5.565  0.0184 -0.6106 -0.2753
 1201ACTN    H112470   7.224   2.091   5.471 -1.3528 -1.7986 -0.5432
 1201ACTN    H212471   7.304   2.108   5.633 -0.0128 -0.2682 -0.5803
 1201ACTN    H312472   7.157   2.017   5.617  0.4468 -0.3028  0.6573
 1202ACTN    H612473   0.834   6.046   8.362  0.1553 -0.7023  1.0182
 1202ACTN    C312474   0.870   5.972   8.291  0.7643  0.7330 -0.2134
 1202ACTN    H412475   0.786   5.910   8.258  1.2113  0.2011 -0.3659
 1202ACTN    H512476   0.915   6.021   8.205  1.3864  1.4925  0.5403
 1202ACTN    C212477   0.966   5.883   8.369  0.2958  0.6150  0.2014
 1202ACTN    O112478   0.932   5.795   8.444 -0.0261  0.3236 -0.9936
 1202ACTN    C112479   1.096   5.873   8.303 -0.1119 -0.1665 -0.4383
 1202ACTN    H112480   1.133   5.973   8.280 -0.8683 -0.1341 -1.5839
 1202ACTN    H212481   1.073   5.832   8.204 -1.2309 -1.6446  0.4115
 1202ACTN    H312482   1.167   5.809   8.355 -0.7236 -0.6873 -0.2344
 1203ACTN    H612483   5.579   7.358   4.455  1.0233  1.4470 -0.6794
 1203ACTN    C312484   5.518   7.433   4.405  0.0755  1.1518  0.0130
 1203ACTN    H412485   5.430   7.453   4.466  2.1106 -0.2038  3.5264
 1203ACTN    H512486   5.575   7.523   4.383  1.0073  0.0863 -2.2111
 1203ACTN    C212487   5.470   7.374   4.262 -0.1765  0.3024 -0.3032
 1203ACTN    O112488   5.390   7.283   4.258 -0.0783 -0.1778 -0.1096
 1203ACTN    C112489   5.491   7.455   4.141 -0.8335 -0.3567 -0.1291
 1203ACTN    H112490   5.412   7.445   4.066  1.0170 -0.6431 -2.1105
 1203ACTN    H212491   5.583   7.420   4.093  0.9799 -1.1613  3.7570
 1203ACTN    H312492   5.507   7.559   4.167  0.3625 -0.3950 -0.6687
 1204ACTN    H612493   3.553   0.260   3.970  0.3668 -0.8935 -0.3900
 1204ACTN    C312494   3.446   0.240   3.957  0.1938 -0.1124 -0.2017
 1204ACTN    H412495   3.391   0.326   3.919  0.3852  0.8961  1.7175
 1204ACTN    H512496   3.431   0.156   3.889 -0.7771  0.2142 -0.3976
 1204ACTN    C212497   3.383   0.213   4.091  0.6268  0.5850  0.0964
 1204ACTN    O112498   3.330   0.102   4.115 -0.4007  0.0077 -0.4173
 1204ACTN    C112499   3.368   0.315   4.195  0.8821 -0.0030 -0.3517
 1204ACTN    H112500   3.265   0.350   4.205  0.9945  1.0556 -2.7643
 1204ACTN    H212501   3.422   0.406   4.170  1.5520  0.9385  4.0046
 1204ACTN    H312502   3.399   0.272   4.291  0.2566  0.1162 -0.0925
 1205ACTN    H612503   1.987   1.093   1.752  0.0457 -0.1705  1.0419
 1205ACTN    C312504   1.902   1.047   1.803 -0.4126  0.0126  0.4508
 1205ACTN    H412505   1.881   0.952   1.754 -0.2785  0.2270 -0.0281
 1205ACTN    H512506   1.943   1.012   1.898  0.5581 -0.5843 -0.1764
 1205ACTN    C212507   1.770   1.121   1.806 -0.2622  0.3757 -0.8166
 1205ACTN    O112508   1.741   1.187   1.903 -0.4162  0.1265 -0.4938
 1205ACTN    C112509   1.670   1.104   1.694 -0.0998 -0.7015 -0.6694
 1205ACTN    H112510   1.706   1.030   1.622 -3.6873 -2.0632 -1.1739
 1205ACTN    H212511   1.650   1.200   1.647 -1.6863 -0.9739 -0.5802
 1205ACTN    H312512   1.572   1.074   1.730  0.0094 -0.9889 -0.6086
 1206ACTN    H612513   6.338   0.675   7.065 -0.7517  1.3442  0.8477
 1206ACTN    C312514   6.278   0.602   7.119  0.0485  0.2612  0.2985
 1206ACTN    H412515   6.202   0.662   7.169  0.6670  3.4764 -2.4172
 1206ACTN    H512516   6.222   0.532   7.058 -0.2984  0.8255 -0.0272
 1206ACTN    C212517   6.351   0.527   7.225  0.5259 -0.5408 -0.3742
 1206ACTN    O112518   6.292   0.447   7.293  0.0819  0.4098 -0.1006
 1206ACTN    C112519   6.501   0.544   7.229 -0.2849 -0.1221 -0.1906
 1206ACTN    H112520   6.539   0.491   7.317 -1.2023 -0.2055  0.1586
 1206ACTN    H212521   6.517   0.650   7.252 -0.1324 -0.5647  1.8437
 1206ACTN    H312522   6.554   0.518   7.138  1.5657 -0.7703  1.0310
 1207ACTN    H612523   3.783   7.677   8.608  0.6553 -0.8666 -2.7371
 1207ACTN    C312524   3.822   7.582   8.646 -0.4911 -0.0860  0.6067
 1207ACTN    H412525   3.908   7.605   8.709 -1.2592  1.1321  1.2384
 1207ACTN    H512526   3.750   7.525   8.704 -1.1068 -0.5623 -0.6137
 1207ACTN    C212527   3.860   7.501   8.521 -0.1635 -0.9509 -0.9811
 1207ACTN    O112528   3.775   7.449   8.455 -0.3539 -0.2727  0.1842
 1207ACTN    C112529   4.005   7.460   8.500  0.3271 -0.7298 -0.4697
 1207ACTN    H112530   4.012   7.385   8.421 -0.2546 -0.3709 -0.8640
 1207ACTN    H212531   4.049   7.409   8.585  0.5379 -2.0418 -1.3431
 1207ACTN    H312532   4.063   7.546   8.466  0.4015 -0.7388 -0.3621
 1208ACTN    H612533   3.079   4.007   3.566 -2.3763  0.6795  3.6647
 1208ACTN    C312534   3.010   4.072   3.512  0.1259  0.4853  0.0592
 1208ACTN    H412535   3.069   4.161   3.489  0.1905 -0.0826 -2.0751
 1208ACTN    H512536   2.968   4.031   3.421  1.5537 -2.8956  0.8521
 1208ACTN    C212537   2.908   4.126   3.605 -0.2373  0.2760  0.2772
 1208ACTN    O112538   2.827   4.205   3.563  0.2544 -0.2483  0.1968
 1208ACTN    C112539   2.901   4.074   3.746  0.3255  0.1437 -0.1967
 1208ACTN    H112540   2.799   4.086   3.781  1.6245  2.3955  3.0273
 1208ACTN    H212541   2.976   4.113   3.815 -1.2079 -0.4701  1.8827
 1208ACTN    H312542   2.922   3.967   3.748  0.2811  0.1464  0.9642
 1209ACTN    H612543   6.678   7.767   4.853  0.2611  0.9031  0.1005
 1209ACTN    C312544   6.716   7.713   4.940 -0.0347  0.5572  0.0146
 1209ACTN    H412545   6.817   7.744   4.965 -0.7531  2.2923  0.8338
 1209ACTN    H512546   6.650   7.744   5.021  1.0605  0.1704  1.0625
 1209ACTN    C212547   6.709   7.555   4.926 -0.0873 -0.1776  0.0368
 1209ACTN    O112548   6.680   7.501   4.818 -0.1845  0.0527 -0.0559
 1209ACTN    C112549   6.739   7.474   5.050  1.0413 -0.1492  0.4112
 1209ACTN    H112550   6.698   7.373   5.054  0.0271  0.1798 -1.2889
 1209ACTN    H212551   6.701   7.522   5.140  0.2755 -0.2825  0.1619
 1209ACTN    H312552   6.847   7.467   5.060  1.1227 -0.3173 -0.5517
 1210ACTN    H612553   4.215   8.118   1.220 -0.2860 -3.4567  1.0065
 1210ACTN    C312554   4.320   8.132   1.245 -0.5496 -0.1606  0.5526
 1210ACTN    H412555   4.367   8.044   1.288  0.1749 -0.4887 -0.8952
 1210ACTN    H512556   4.377   8.144   1.154 -2.3344 -0.6669 -0.6540
 1210ACTN    C212557   4.341   8.254   1.335 -0.8124 -0.7007  0.1329
 1210ACTN    O112558   4.456   8.309   1.337  0.4062 -0.1843 -0.0999
 1210ACTN    C112559   4.223   8.318   1.401 -0.6365  0.8271 -0.1319
 1210ACTN    H112560   4.217   8.426   1.385  1.8420  1.5718  3.3468
 1210ACTN    H212561   4.243   8.308   1.508  0.6971  0.2556 -0.4295
 1210ACTN    H312562   4.133   8.264   1.371 -0.4363  0.2052  0.3842
 1211ACTN    H612563   1.284   5.465   5.078 -0.9455  0.7537  0.8084
 1211ACTN    C312564   1.258   5.362   5.099  0.0272  0.1145 -0.9795
 1211ACTN    H412565   1.285   5.340   5.203 -1.5210 -3.0596 -1.1687
 1211ACTN    H512566   1.316   5.301   5.030  1.7222 -0.1833  0.6385
 1211ACTN    C212567   1.113   5.345   5.070 -0.0766 -0.0593 -0.2539
 1211ACTN    O112568   1.035   5.399   5.147  0.1576 -0.4836 -0.2322
 1211ACTN    C112569   1.063   5.255   4.961 -0.5766 -0.3812 -0.2676
 1211ACTN    H112570   1.146   5.207   4.909 -2.3879 -0.7034 -2.9474
 1211ACTN    H212571   1.016   5.328   4.894  0.6311  0.9601  0.3119
 1211ACTN    H312572   0.987   5.187   4.998 -1.2402  0.3502 -0.2645
 1212ACTN    H612573   8.276   8.284   7.886  0.4148  0.8384 -0.6336
 1212ACTN    C312574   8.379   8.301   7.919  0.3234 -0.1528  0.1834
 1212ACTN    H412575   8.378   8.354   8.014 -2.5994  1.6158 -0.7771
 1212ACTN    H512576   8.425   8.368   7.846 -1.4786  0.0774 -0.7604
 1212ACTN    C212577   8.467   8.186   7.920  0.1853  0.0444 -0.1760
 1212ACTN    O112578   8.497   8.135   8.023 -0.6099 -0.1861  0.2149
 1212ACTN    C112579   8.502   8.122   7.789 -0.1465  0.7024  0.0941
 1212ACTN    H112580   8.434   8.041   7.764 -0.2475  1.0346 -0.7203
 1212ACTN    H212581   8.603   8.081   7.787 -0.6170 -0.4529 -2.0203
 1212ACTN    H312582   8.511   8.188   7.703 -0.5453  0.1686 -0.3682
 1213ACTN    H612583   6.805   6.640   5.425 -0.4322  1.8878 -1.7541
 1213ACTN    C312584   6.906   6.666   5.460 -0.4649  0.0633 -0.2540
 1213ACTN    H412585   6.898   6.773   5.479 -0.3329 -0.0821  0.6530
 1213ACTN    H512586   6.927   6.605   5.548 -0.7865 -1.8880 -1.4917
 1213ACTN    C212587   7.018   6.633   5.368 -0.0001  0.8919  0.5318
 1213ACTN    O112588   6.990   6.590   5.256 -0.0455  0.0298 -0.2057
 1213ACTN    C112589   7.160   6.657   5.407 -0.3138 -0.0376 -0.6496
 1213ACTN    H112590   7.213   6.712   5.330 -0.7229 -1.4005 -1.9336
 1213ACTN    H212591   7.205   6.562   5.437 -1.8684 -0.2286  1.1443
 1213ACTN    H312592   7.158   6.717   5.498 -1.7508  0.6047 -1.0961
 1214ACTN    H612593   0.375   5.791   8.685 -0.5154  2.2521 -0.1884
 1214ACTN    C312594   0.456   5.773   8.756 -0.9462 -0.6281 -0.3681
 1214ACTN    H412595   0.413   5.823   8.844 -1.8308 -0.8560 -0.6668
 1214ACTN    H512596   0.463   5.667   8.779 -0.2537 -0.4235  0.4075
 1214ACTN    C212597   0.596   5.825   8.729 -0.0105  0.0643 -1.2770
 1214ACTN    O112598   0.616   5.914   8.652  0.3949  0.1716 -0.0543
 1214ACTN    C112599   0.696   5.803   8.828 -0.0081 -0.0569 -0.1915
 1214ACTN    H112600   0.683   5.865   8.917  0.9114  2.2901 -1.6481
 1214ACTN    H212601   0.796   5.825   8.792 -0.0647 -0.5356 -0.6531
 1214ACTN    H312602   0.695   5.699   8.860  1.1348  0.1877  0.6566
 1215ACTN    H612603   2.822   6.897   4.105 -2.7251  1.1436  1.1771
 1215ACTN    C312604   2.886   6.956   4.171  0.4089 -0.7069 -0.0709
 1215ACTN    H412605   2.977   6.897   4.181 -0.0975 -1.4464  0.2710
 1215ACTN    H512606   2.922   7.046   4.122  2.1278  0.0574  2.4963
 1215ACTN    C212607   2.829   6.975   4.303  0.1423 -0.8352 -0.3919
 1215ACTN    O112608   2.716   7.028   4.313  0.3024 -0.0914 -0.0761
 1215ACTN    C112609   2.901   6.932   4.427 -0.2753  0.7602  0.2086
 1215ACTN    H112610   2.998   6.982   4.419 -0.4376  1.2947  1.3921
 1215ACTN    H212611   2.912   6.824   4.436 -1.2694  0.7342  1.2634
 1215ACTN    H312612   2.858   6.973   4.519 -0.8216 -1.0965  0.8014
 1216ACTN    H612613   5.416   7.978   4.881 -0.5962  0.0720 -2.3644
 1216ACTN    C312614   5.518   7.962   4.848  0.1001 -0.5875 -0.0187
 1216ACTN    H412615   5.510   7.929   4.744 -0.3825  1.8798 -0.7809
 1216ACTN    H512616   5.585   8.047   4.857  2.7471 -2.5263 -0.7107
 1216ACTN    C212617   5.575   7.854   4.933 -0.0262  0.1598  0.7296
 1216ACTN    O112618   5.696   7.846   4.952 -0.3048  0.0453  0.0947
 1216ACTN    C112619   5.485   7.756   5.006 -0.9216 -0.6764  0.6511
 1216ACTN    H112620   5.547   7.666   5.013  1.1257  0.4997 -1.5442
 1216ACTN    H212621   5.401   7.714   4.951  1.5716 -1.6960 -2.5434
 1216ACTN    H312622   5.450   7.794   5.101  0.6874  2.3417  0.1013
 1217ACTN    H612623   4.789   5.339   0.737 -1.4871  0.8213 -0.0129
 1217ACTN    C312624   4.777   5.385   0.639 -0.1483 -0.2078 -0.6730
 1217ACTN    H412625   4.864   5.448   0.623 -1.6941  1.7184 -1.8148
 1217ACTN    H512626   4.788   5.300   0.571 -1.2317 -0.3080 -0.7362
 1217ACTN    C212627   4.658   5.477   0.615 -0.7467  0.4026 -0.1977
 1217ACTN    O112628   4.660   5.536   0.507 -0.8193  0.0262 -0.0752
 1217ACTN    C112629   4.564   5.527   0.723  0.1179 -0.2852 -0.4307
 1217ACTN    H112630   4.461   5.533   0.687  0.6784  0.8215 -1.9068
 1217ACTN    H212631   4.579   5.629   0.759 -1.3036  0.2140 -1.2014
 1217ACTN    H312632   4.571   5.455   0.805 -2.9583  1.0719  1.1409
 1218ACTN    H612633   4.531   2.783   1.728  2.5160  0.4112 -0.4766
 1218ACTN    C312634   4.541   2.725   1.821  0.1405  0.4584 -0.1820
 1218ACTN    H412635   4.648   2.711   1.826  0.2656  0.6660 -1.7334
 1218ACTN    H512636   4.500   2.778   1.907  0.2977  0.5377 -0.1557
 1218ACTN    C212637   4.493   2.585   1.813  0.0715  0.7403 -0.1812
 1218ACTN    O112638   4.439   2.542   1.920 -0.0729  0.3697 -0.1403
 1218ACTN    C112639   4.525   2.493   1.695 -0.3532 -0.2513 -0.0388
 1218ACTN    H112640   4.556   2.555   1.610 -0.5246 -1.6736 -1.1468
 1218ACTN    H212641   4.437   2.433   1.674 -0.8327  0.4458 -0.0465
 1218ACTN    H312642   4.603   2.423   1.721  1.6970  0.5834 -3.5307
 1219ACTN    H612643   0.845   3.447   1.246 -0.2947 -0.2671  0.4336
 1219ACTN    C312644   0.947   3.478   1.269 -0.2074  0.3395 -0.7348
 1219ACTN    H412645   0.952   3.583   1.241  0.1675  1.0936  2.0562
 1219ACTN    H512646   0.969   3.481   1.375 -0.5022  0.4885 -0.6786
 1219ACTN    C212647   1.049   3.413   1.175  0.3869 -0.0327 -0.3656
 1219ACTN    O112648   1.171   3.399   1.205  0.1554 -0.2882  0.2934
 1219ACTN    C112649   0.990   3.352   1.057 -0.8808  0.3826 -0.3657
 1219ACTN    H112650   0.885   3.383   1.052 -0.5436  2.1154  2.3117
 1219ACTN    H212651   1.008   3.246   1.074  1.9401  0.7723 -0.6505
 1219ACTN    H312652   1.038   3.384   0.964  0.4034  1.0002  0.4856
 1220ACTN    H612653   2.124   7.207   2.670 -1.1099  0.4353 -2.3424
 1220ACTN    C312654   2.230   7.184   2.658 -0.8498  0.1945  0.1845
 1220ACTN    H412655   2.231   7.077   2.635  0.8233  0.4924 -1.2619
 1220ACTN    H512656   2.276   7.240   2.577  1.1659 -2.3563 -0.5121
 1220ACTN    C212657   2.292   7.207   2.788 -0.1329  0.2400 -0.3698
 1220ACTN    O112658   2.387   7.283   2.797 -0.4605  0.1323 -0.1988
 1220ACTN    C112659   2.244   7.133   2.906  0.1612 -0.0912 -0.1012
 1220ACTN    H112660   2.285   7.032   2.914  0.3828 -0.1187 -1.4308
 1220ACTN    H212661   2.137   7.128   2.886  0.2618  0.6462 -0.8414
 1220ACTN    H312662   2.249   7.186   3.001  1.8638  0.7316 -0.6213
 1221ACTN    H612663   3.948   8.499   3.824 -1.0450 -1.3898  0.2339
 1221ACTN    C312664   3.916   8.551   3.915 -0.5248 -0.5140 -0.0853
 1221ACTN    H412665   3.883   8.483   3.992  0.5071 -0.9143  0.0208
 1221ACTN    H512666   3.998   8.613   3.952 -1.0967 -1.6983  3.2630
 1221ACTN    C212667   3.815   8.654   3.866  0.4425 -0.3560 -0.2772
 1221ACTN    O112668   3.823   8.772   3.901  0.4854  0.4082  0.4232
 1221ACTN    C112669   3.715   8.613   3.766  0.1441 -0.6831 -0.0432
 1221ACTN    H112670   3.631   8.561   3.812 -1.7582  1.5248 -0.8913
 1221ACTN    H212671   3.766   8.554   3.690 -0.9288 -0.4303 -0.9794
 1221ACTN    H312672   3.681   8.703   3.715  1.0609  1.2365  2.6256
 1222ACTN    H612673   6.699   2.160   3.012  1.1522  0.4981  0.7878
 1222ACTN    C312674   6.615   2.119   3.067  0.8557 -0.0299 -0.0567
 1222ACTN    H412675   6.640   2.131   3.172 -0.2617  1.5937  0.0398
 1222ACTN    H512676   6.525   2.170   3.032  1.2479  0.1818 -0.7584
 1222ACTN    C212677   6.618   1.966   3.044  0.5125 -0.3674  0.1342
 1222ACTN    O112678   6.520   1.894   3.053 -0.3114  0.1314  0.0529
 1222ACTN    C112679   6.741   1.914   2.975 -0.3585 -0.5444  0.9074
 1222ACTN    H112680   6.727   1.896   2.868 -0.4652  1.2704  0.6067
 1222ACTN    H212681   6.760   1.813   3.011 -1.1402 -0.9110  0.3208
 1222ACTN    H312682   6.828   1.976   2.993  0.4101 -1.8641  1.8016
 1223ACTN    H612683   5.895   1.589   3.004 -0.4321  2.0186 -0.9603
 1223ACTN    C312684   5.952   1.602   3.096 -0.3760 -0.4583 -0.6292
 1223ACTN    H412685   5.959   1.505   3.147  2.1517  1.1218  2.1813
 1223ACTN    H512686   6.052   1.637   3.069 -0.0852  0.0328  1.0097
 1223ACTN    C212687   5.877   1.697   3.191 -0.0061  0.2348 -0.1549
 1223ACTN    O112688   5.775   1.751   3.154  0.7297 -0.0014 -0.2791
 1223ACTN    C112689   5.928   1.700   3.334  0.1756 -0.0072  0.1800
 1223ACTN    H112690   5.862   1.761   3.395  2.3065  0.0290  2.5072
 1223ACTN    H212691   6.025   1.747   3.345  0.4297 -0.7249  1.0173
 1223ACTN    H312692   5.918   1.600   3.376 -0.3277  1.3136  3.3272
 1224ACTN    H612693   8.292   5.308   0.835  2.1224 -4.2886  0.3176
 1224ACTN    C312694   8.235   5.277   0.922 -0.0650 -0.2045  0.4877
 1224ACTN    H412695   8.277   5.181   0.953  1.9871  0.3427 -0.5231
 1224ACTN    H512696   8.130   5.259   0.900  0.0389  0.7722 -0.8545
 1224ACTN    C212697   8.245   5.372   1.046  0.7700 -0.2001  0.8816
 1224ACTN    O112698   8.297   5.344   1.150  0.0535 -0.1238 -0.1941
 1224ACTN    C112699   8.188   5.509   1.022 -0.8272  0.2025 -0.3069
 1224ACTN    H112700   8.081   5.496   1.034 -0.7848  2.1098  2.6530
 1224ACTN    H212701   8.211   5.545   0.922 -2.0336  0.0489 -0.6426
 1224ACTN    H312702   8.230   5.575   1.098  0.8304 -1.2791  0.1248
 1225ACTN    H612703   8.169   2.210   2.107  1.1768 -2.1771  1.5154
 1225ACTN    C312704   8.268   2.253   2.092 -0.0164  0.2393  0.3412
 1225ACTN    H412705   8.337   2.184   2.140 -0.9474 -1.4095 -0.6293
 1225ACTN    H512706   8.289   2.241   1.986 -1.0101 -2.2566  0.4061
 1225ACTN    C212707   8.292   2.397   2.135  0.3327  0.0030 -0.5157
 1225ACTN    O112708   8.402   2.448   2.118  0.1041  1.2029 -0.0115
 1225ACTN    C112709   8.175   2.472   2.182  0.2274 -0.2842 -0.4664
 1225ACTN    H112710   8.087   2.408   2.193  1.8824 -2.2954  1.6474
 1225ACTN    H212711   8.139   2.548   2.113  0.2052 -0.2722 -0.4410
 1225ACTN    H312712   8.195   2.517   2.279 -0.1167  0.5815 -0.8000
 1226ACTN    H612713   5.051   8.417   4.050  1.9672  0.0898  2.3486
 1226ACTN    C312714   4.981   8.370   4.120 -0.0746 -0.3923  0.0490
 1226ACTN    H412715   4.912   8.449   4.150 -1.8052 -2.3614  1.3481
 1226ACTN    H512716   4.929   8.298   4.057  1.8785  0.2219 -2.3492
 1226ACTN    C212717   5.057   8.308   4.231 -0.1911  1.4511  0.0697
 1226ACTN    O112718   5.181   8.324   4.249 -0.5423 -0.4610  0.7076
 1226ACTN    C112719   4.977   8.228   4.336 -0.5010  0.0767 -0.0326
 1226ACTN    H112720   4.872   8.255   4.329 -1.1464 -2.1584  0.3894
 1226ACTN    H212721   5.018   8.233   4.437 -3.0268  1.4913  0.9604
 1226ACTN    H312722   4.970   8.121   4.313 -0.1688 -0.5299  2.5102
 1227ACTN    H612723   8.981   5.775   3.232 -0.3488 -1.6002  0.1382
 1227ACTN    C312724   8.942   5.838   3.312  0.6426 -0.0046 -0.5975
 1227ACTN    H412725   9.014   5.833   3.393  1.1753 -0.8630 -1.1174
 1227ACTN    H512726   8.933   5.943   3.284  1.0619  0.4658  0.9746
 1227ACTN    C212727   8.823   5.786   3.373  0.0182  1.0451 -0.1937
 1227ACTN    O112728   8.763   5.697   3.314 -0.3927 -0.1210  0.1492
 1227ACTN    C112729   8.783   5.833   3.507  0.2471  0.2969 -0.0423
 1227ACTN    H112730   8.707   5.766   3.548  1.1446 -0.2896  0.6861
 1227ACTN    H212731   8.744   5.935   3.504  0.0545  0.2183 -0.1795
 1227ACTN    H312732   8.875   5.827   3.565  0.9198  2.8947 -0.7740
 1228ACTN    H612733   2.823   3.910   5.403 -0.4085 -1.7387  0.8211
 1228ACTN    C312734   2.719   3.887   5.423 -0.6410 -1.0376  0.4082
 1228ACTN    H412735   2.701   3.821   5.507  1.6385 -1.0348  0.9257
 1228ACTN    H512736   2.664   3.980   5.439 -0.8806 -1.3921  1.6681
 1228ACTN    C212737   2.673   3.825   5.292 -0.2932 -0.0608  0.1436
 1228ACTN    O112738   2.687   3.706   5.285  0.1698 -0.1610 -0.5503
 1228ACTN    C112739   2.670   3.909   5.164  0.3171  1.0413 -0.4534
 1228ACTN    H112740   2.731   3.867   5.084  3.7181 -0.1490  2.6052
 1228ACTN    H212741   2.699   4.012   5.183  0.2206  1.3599 -1.9581
 1228ACTN    H312742   2.567   3.918   5.131  0.1671 -0.9346 -0.6172
 1229ACTN    H612743   8.175   3.047   1.788 -2.3732 -0.4275  0.4147
 1229ACTN    C312744   8.175   2.962   1.720 -0.0296  0.2566 -0.4879
 1229ACTN    H412745   8.078   2.957   1.672  0.5468  1.1239 -1.7900
 1229ACTN    H512746   8.247   2.988   1.641 -0.8356  1.9529 -0.6869
 1229ACTN    C212747   8.219   2.842   1.791  0.1103  0.2819  0.4267
 1229ACTN    O112748   8.172   2.727   1.768  0.1488 -0.1972 -0.3683
 1229ACTN    C112749   8.304   2.872   1.906  0.5367  0.4149 -0.5073
 1229ACTN    H112750   8.287   2.800   1.986 -1.7329  0.7446 -0.6431
 1229ACTN    H212751   8.278   2.973   1.939  0.9782  0.9358 -1.7126
 1229ACTN    H312752   8.408   2.869   1.873  0.5578  0.5746 -0.4577
 1230ACTN    H612753   6.489   0.357   3.084  0.0882  1.8247  0.8352
 1230ACTN    C312754   6.466   0.283   3.160  0.8912  0.1791 -0.4953
 1230ACTN    H412755   6.405   0.201   3.121  0.9683 -1.3180  2.3171
 1230ACTN    H512756   6.559   0.241   3.199  0.0874 -0.3027  0.9638
 1230ACTN    C212757   6.394   0.363   3.266 -0.4970 -0.1941  0.1163
 1230ACTN    O112758   6.442   0.368   3.379 -0.5855  0.2807  0.3949
 1230ACTN    C112759   6.261   0.431   3.245  0.2752  0.5831  1.0693
 1230ACTN    H112760   6.178   0.387   3.300  0.9219  0.2518  1.7872
 1230ACTN    H212761   6.226   0.418   3.142  0.2343  0.0362  1.1517
 1230ACTN    H312762   6.271   0.539   3.256  0.2335  0.7451 -0.3442
 1231ACTN    H612763   0.315   7.944   3.647  2.1916  1.3052  0.6536
 1231ACTN    C312764   0.313   7.852   3.705  0.0463  0.7060 -0.3099
 1231ACTN    H412765   0.378   7.779   3.658 -1.5680 -0.3764 -0.8816
 1231ACTN    H512766   0.351   7.864   3.807 -0.4665 -0.6379  0.0453
 1231ACTN    C212767   0.176   7.788   3.695 -0.3332 -0.4182 -0.5679
 1231ACTN    O112768   0.093   7.837   3.616  0.5208 -0.2336  0.2695
 1231ACTN    C112769   0.146   7.667   3.774  0.2880  0.3123 -0.4583
 1231ACTN    H112770   0.057   7.621   3.733 -0.1840  1.3973 -0.6630
 1231ACTN    H212771   0.116   7.683   3.877 -0.7939  2.9123 -1.1430
 1231ACTN    H312772   0.226   7.592   3.773 -0.2416 -0.2665  0.1745
 1232ACTN    H612773   8.346   8.731   2.100 -0.4970  0.5015  2.3057
 1232ACTN    C312774   8.244   8.710   2.067  0.4301 -0.9845  0.2856
 1232ACTN    H412775   8.173   8.739   2.144  1.9230  1.7299  0.7101
 1232ACTN    H512776   8.224   8.774   1.981 -1.9272 -0.9943  0.7995
 1232ACTN    C212777   8.223   8.565   2.035 -0.1191 -0.5604 -0.6805
 1232ACTN    O112778   8.214   8.491   2.131 -0.1025  0.2738 -0.5784
 1232ACTN    C112779   8.156   8.538   1.908  0.6336 -0.0450  0.3039
 1232ACTN    H112780   8.047   8.543   1.902  0.5605  1.3914  2.1309
 1232ACTN    H212781   8.193   8.441   1.876 -0.5274 -0.0495 -1.1069
 1232ACTN    H312782   8.181   8.599   1.821  2.6280 -1.3952 -0.0981
 1233ACTN    H612783   0.933   0.092   2.598  0.4232 -0.0923 -0.6340
 1233ACTN    C312784   0.835   0.134   2.622  0.6891  0.1102  0.0982
 1233ACTN    H412785   0.759   0.083   2.564  1.1783 -1.2199  0.6078
 1233ACTN    H512786   0.827   0.111   2.729 -0.6860  3.9866  0.9042
 1233ACTN    C212787   0.835   0.279   2.588 -0.0425  0.1426  1.3174
 1233ACTN    O112788   0.875   0.353   2.672  0.4562 -0.3791 -0.5815
 1233ACTN    C112789   0.750   0.334   2.482  0.4007  0.1846 -0.1455
 1233ACTN    H112790   0.644   0.326   2.507  0.3584  1.6088  0.1593
 1233ACTN    H212791   0.750   0.277   2.389  1.3402  0.0058 -0.0434
 1233ACTN    H312792   0.760   0.440   2.459 -1.4475  0.9537  2.3891
 1234ACTN    H612793   7.885   7.535   8.472 -1.8382  3.8406  0.9232
 1234ACTN    C312794   7.937   7.530   8.568 -0.2264 -0.0466 -0.0638
 1234ACTN    H412795   8.040   7.554   8.544  0.6668 -1.1848  2.4990
 1234ACTN    H512796   7.900   7.600   8.642 -0.6953 -1.2994  0.9097
 1234ACTN    C212797   7.910   7.385   8.615 -0.6109  0.2077 -0.5148
 1234ACTN    O112798   7.812   7.321   8.574 -0.5721  0.2344  0.2018
 1234ACTN    C112799   7.978   7.341   8.744 -0.7148 -0.4126 -1.0272
 1234ACTN    H112800   8.074   7.392   8.750 -2.4218  2.7841  0.3564
 1234ACTN    H212801   8.003   7.236   8.756 -2.3031 -0.4911  2.0905
 1234ACTN    H312802   7.912   7.372   8.825  2.0960  0.3472  1.0152
 1235ACTN    H612803   7.151   3.364   0.572 -0.2621  1.8938 -1.6009
 1235ACTN    C312804   7.052   3.395   0.605 -0.5738 -0.1790 -0.4906
 1235ACTN    H412805   7.054   3.402   0.714 -1.6942  0.0865 -0.4827
 1235ACTN    H512806   7.049   3.498   0.571  1.0634 -0.2780 -0.9707
 1235ACTN    C212807   6.945   3.307   0.551 -0.1880 -0.5086 -0.3102
 1235ACTN    O112808   6.831   3.335   0.569 -0.2680 -0.3497  0.4066
 1235ACTN    C112809   6.983   3.175   0.488 -0.4355  0.8841  0.1817
 1235ACTN    H112810   6.920   3.166   0.399 -0.5307  4.1784 -0.1544
 1235ACTN    H212811   6.961   3.097   0.560 -1.7922  1.3096  0.2419
 1235ACTN    H312812   7.089   3.166   0.468 -0.2002 -1.2325  2.1700
 1236ACTN    H612813   7.301   8.547   6.862  2.3666 -1.9028  0.7326
 1236ACTN    C312814   7.226   8.469   6.855 -0.0219  0.4635 -0.6131
 1236ACTN    H412815   7.202   8.420   6.949  1.6885 -0.5568 -0.6902
 1236ACTN    H512816   7.135   8.520   6.821  0.4120  1.9572  0.4410
 1236ACTN    C212817   7.271   8.368   6.750 -0.4354  0.6704 -0.7499
 1236ACTN    O112818   7.369   8.291   6.769 -0.7660 -0.1951 -0.2595
 1236ACTN    C112819   7.231   8.403   6.612 -0.0243 -0.1184  0.0758
 1236ACTN    H112820   7.142   8.464   6.597  1.6454  2.5988  0.7201
 1236ACTN    H212821   7.224   8.312   6.553 -0.0325  0.4457 -0.8005
 1236ACTN    H312822   7.307   8.466   6.564  0.0691  0.8720  1.4922
 1237ACTN    H612823   5.899   5.038   1.519 -0.0357 -0.3058  0.5715
 1237ACTN    C312824   5.874   5.023   1.414 -0.3931 -0.0389  0.6200
 1237ACTN    H412825   5.784   4.964   1.398 -0.5035  0.6011 -1.1891
 1237ACTN    H512826   5.952   4.974   1.357 -2.3984 -4.4536  1.4232
 1237ACTN    C212827   5.852   5.162   1.361  0.3422 -0.2702 -0.6078
 1237ACTN    O112828   5.739   5.203   1.345 -0.5509  0.1099 -0.0436
 1237ACTN    C112829   5.962   5.257   1.344  0.6541  0.2332  0.6131
 1237ACTN    H112830   5.928   5.360   1.340 -1.9036 -0.6241 -0.5596
 1237ACTN    H212831   6.020   5.228   1.255 -2.1309 -2.4287 -0.4176
 1237ACTN    H312832   6.037   5.256   1.423  1.4303  1.4435 -0.0884
 1238ACTN    H612833   8.734   6.693   3.515 -0.3694 -0.7618  0.1174
 1238ACTN    C312834   8.679   6.784   3.491  1.0346  0.0266 -0.1628
 1238ACTN    H412835   8.740   6.859   3.440 -1.3288  2.5482  0.5907
 1238ACTN    H512836   8.605   6.752   3.418  1.1394 -2.1221  0.6406
 1238ACTN    C212837   8.595   6.843   3.606 -0.6487  0.3228 -0.2909
 1238ACTN    O112838   8.593   6.773   3.705  0.3084  0.3684  0.4227
 1238ACTN    C112839   8.529   6.970   3.602 -0.7351 -0.6610 -0.6549
 1238ACTN    H112840   8.422   6.949   3.610 -0.6214 -0.8892  0.3276
 1238ACTN    H212841   8.554   7.024   3.511  0.4468  3.2932  1.8708
 1238ACTN    H312842   8.559   7.025   3.691  0.1884 -1.7811 -0.2674
 1239ACTN    H612843   8.758   2.809   0.879 -2.8639  2.0439  2.7895
 1239ACTN    C312844   8.831   2.877   0.923  0.2455 -0.0194  1.0623
 1239ACTN    H412845   8.797   2.981   0.933 -1.3598 -0.3407 -0.7740
 1239ACTN    H512846   8.851   2.841   1.024 -0.7252  3.0036  2.3863
 1239ACTN    C212847   8.951   2.885   0.836 -0.2884 -0.5348  0.4360
 1239ACTN    O112848   8.939   2.924   0.724  0.6603  1.1097  0.6222
 1239ACTN    C112849   9.078   2.825   0.885  1.1304  0.4178  0.4515
 1239ACTN    H112850   9.154   2.834   0.807 -0.2579 -1.7829 -1.2171
 1239ACTN    H212851   9.064   2.723   0.922 -1.3748  0.5164 -0.1712
 1239ACTN    H312852   9.113   2.880   0.972  0.5919 -1.1219  1.6626
 1240ACTN    H612853   5.270   8.948   2.436  1.7746  1.5154  0.4461
 1240ACTN    C312854   5.341   8.869   2.413  0.3217  0.0381  0.9571
 1240ACTN    H412855   5.307   8.785   2.474 -1.6938 -0.3097 -0.6231
 1240ACTN    H512856   5.436   8.904   2.455  1.4906 -0.8295 -0.9130
 1240ACTN    C212857   5.347   8.846   2.264 -0.2257 -0.3903  0.0936
 1240ACTN    O112858   5.256   8.893   2.188  0.4759 -0.5897 -0.3473
 1240ACTN    C112859   5.455   8.770   2.221 -0.1004  0.0635  0.4360
 1240ACTN    H112860   5.455   8.678   2.279 -0.5709 -1.2049 -1.5385
 1240ACTN    H212861   5.556   8.809   2.235 -1.0733  2.1923  1.7367
 1240ACTN    H312862   5.446   8.734   2.118 -0.3845  0.4132  0.3343
 1241ACTN    H612863   4.030   7.454   5.623 -3.8389  0.3119 -0.4879
 1241ACTN    C312864   4.013   7.500   5.720  0.6718 -0.0807  0.5895
 1241ACTN    H412865   4.010   7.607   5.700 -3.2901 -0.7423 -3.1928
 1241ACTN    H512866   3.911   7.481   5.754 -0.1751  0.6135 -1.4749
 1241ACTN    C212867   4.123   7.451   5.810  0.0875 -0.1572 -0.3415
 1241ACTN    O112868   4.154   7.512   5.913 -0.7203  0.5635 -0.1105
 1241ACTN    C112869   4.213   7.335   5.770  0.0621 -0.1737  0.2865
 1241ACTN    H112870   4.301   7.363   5.712 -0.4558  1.3559  0.2124
 1241ACTN    H212871   4.149   7.268   5.713  0.3484  1.0284 -1.4933
 1241ACTN    H312872   4.252   7.286   5.859  0.3310 -1.1756 -0.3704
 1242ACTN    H612873   2.764   0.669   4.241  0.0922  1.0607 -0.9979
 1242ACTN    C312874   2.745   0.628   4.142 -0.1535  0.2788 -0.6311
 1242ACTN    H412875   2.704   0.710   4.082  0.0751  2.4679  2.1073
 1242ACTN    H512876   2.843   0.599   4.105  0.9806  1.2361  1.5547
 1242ACTN    C212877   2.639   0.521   4.150  0.3956 -0.4165  0.0642
 1242ACTN    O112878   2.591   0.480   4.261  0.2074 -0.1852  0.3505
 1242ACTN    C112879   2.600   0.441   4.035  0.2524 -0.2208  0.1679
 1242ACTN    H112880   2.499   0.407   4.055  0.7808 -1.1866  1.2117
 1242ACTN    H212881   2.651   0.347   4.014  0.5904 -0.2441  1.0717
 1242ACTN    H312882   2.577   0.494   3.942 -0.5037 -0.3658  0.2739
 1243ACTN    H612883   0.237   7.257   1.926  1.5504 -0.8729 -1.5516
 1243ACTN    C312884   0.149   7.284   1.867  0.0686 -0.4742  0.7914
 1243ACTN    H412885   0.182   7.306   1.766 -4.0373 -1.5872 -0.8943
 1243ACTN    H512886   0.084   7.197   1.857 -1.1956  0.4645  0.6508
 1243ACTN    C212887   0.074   7.398   1.921  0.3724 -0.0442 -0.4121
 1243ACTN    O112888  -0.022   7.381   2.000 -0.1570  0.0031 -0.4121
 1243ACTN    C112889   0.127   7.537   1.902  0.3843  0.2098  0.2429
 1243ACTN    H112890   0.046   7.606   1.926 -1.9297 -2.4013  0.1942
 1243ACTN    H212891   0.156   7.552   1.798  2.4549  2.2305  1.0771
 1243ACTN    H312892   0.212   7.567   1.963 -1.0521  3.7466  0.6295
 1244ACTN    H612893   2.387   3.488   7.034 -1.1620 -1.2749  0.1907
 1244ACTN    C312894   2.307   3.561   7.050 -0.1607 -0.1217  0.0399
 1244ACTN    H412895   2.287   3.576   7.156  0.9382  0.7011  0.1359
 1244ACTN    H512896   2.337   3.657   7.008  0.9207 -0.4934 -0.0663
 1244ACTN    C212897   2.188   3.516   6.980  0.2015  0.4520  0.5284
 1244ACTN    O112898   2.150   3.397   6.990 -0.1351 -0.3068  0.4673
 1244ACTN    C112899   2.120   3.620   6.898  0.5089  0.1751  0.0899
 1244ACTN    H112900   2.107   3.707   6.963 -0.4842  0.6512 -0.7460
 1244ACTN    H212901   2.019   3.587   6.875 -0.5751  0.5385  3.9530
 1244ACTN    H312902   2.176   3.635   6.806 -1.7637 -0.1565 -1.3799
 1245ACTN    H612903   4.223   3.225   1.782  3.7725 -1.0140 -1.4954
 1245ACTN    C312904   4.187   3.122   1.790  0.8049  0.0530 -0.3029
 1245ACTN    H412905   4.170   3.061   1.701 -1.8001 -0.9454  0.8438
 1245ACTN    H512906   4.270   3.078   1.845 -0.1363  0.3021  1.3265
 1245ACTN    C212907   4.065   3.121   1.880 -0.8406  0.1316  0.6611
 1245ACTN    O112908   4.085   3.067   1.988  0.3081 -0.1008  0.0027
 1245ACTN    C112909   3.943   3.197   1.828 -0.2749 -1.1729 -0.2704
 1245ACTN    H112910   3.908   3.274   1.896 -0.1379 -1.6453  0.3414
 1245ACTN    H212911   3.869   3.118   1.813 -2.4413  0.5992  0.8337
 1245ACTN    H312912   3.959   3.239   1.729 -0.9033  1.5087  0.7183
 1246ACTN    H612913   5.240   5.142   7.782  0.2544  1.1351 -0.6556
 1246ACTN    C312914   5.270   5.227   7.844 -0.0758  0.0422  1.0224
 1246ACTN    H412915   5.323   5.188   7.931 -0.5177 -0.4179  1.0911
 1246ACTN    H512916   5.347   5.284   7.794  1.7171 -0.3777  3.2371
 1246ACTN    C212917   5.150   5.308   7.879 -0.3365  0.1603 -0.2842
 1246ACTN    O112918   5.155   5.428   7.878 -0.4518  0.0264  0.1390
 1246ACTN    C112919   5.057   5.250   7.983 -0.0050 -0.0076 -0.2547
 1246ACTN    H112920   5.027   5.147   7.959  1.3300 -0.1706 -1.3148
 1246ACTN    H212921   4.963   5.305   7.980  0.3305  0.5520 -0.6209
 1246ACTN    H312922   5.095   5.255   8.084 -0.1094 -1.0527 -0.1584
 1247ACTN    H612923   7.584   1.621   2.846 -0.6169  0.1730  1.5814
 1247ACTN    C312924   7.559   1.515   2.847  0.2579 -0.0580  0.5043
 1247ACTN    H412925   7.492   1.500   2.762 -1.5589  0.0760  1.8726
 1247ACTN    H512926   7.646   1.454   2.825 -1.4737 -2.5602  0.4565
 1247ACTN    C212927   7.509   1.473   2.974  0.4046  0.8003 -0.4511
 1247ACTN    O112928   7.568   1.508   3.079 -0.1436 -0.2264 -0.1743
 1247ACTN    C112929   7.364   1.417   2.984  0.0553  0.3203 -0.4543
 1247ACTN    H112930   7.291   1.481   2.933 -0.3445  0.8799  0.7981
 1247ACTN    H212931   7.335   1.406   3.088 -0.4495  2.2260 -0.3757
 1247ACTN    H312932   7.364   1.317   2.941 -0.1986  0.8283 -1.6755
 1248ACTN    H612933   6.738   4.070   8.532 -1.2402  1.2613 -2.1086
 1248ACTN    C312934   6.648   4.023   8.573  0.2772  0.1653  0.0421
 1248ACTN    H412935   6.642   4.050   8.678  0.5961  1.6590 -0.3116
 1248ACTN    H512936   6.570   4.065   8.510  0.0543  0.2815  0.3990
 1248ACTN    C212937   6.660   3.877   8.565 -0.2898 -0.4592 -0.3342
 1248ACTN    O112938   6.765   3.816   8.595  0.3548  0.0199 -0.0886
 1248ACTN    C112939   6.534   3.801   8.540  0.2669 -0.0385 -0.0570
 1248ACTN    H112940   6.534   3.761   8.439  0.2158  0.7048 -0.3483
 1248ACTN    H212941   6.447   3.866   8.545 -0.3908 -0.9561  0.6657
 1248ACTN    H312942   6.526   3.717   8.610 -1.1870  0.7529  0.7434
 1249ACTN    H612943   4.087   0.109   6.717  0.8785 -1.2239  1.6903
 1249ACTN    C312944   4.194   0.119   6.736  0.9754  0.4060  0.4669
 1249ACTN    H412945   4.218   0.209   6.793  0.6780  0.6219  0.2488
 1249ACTN    H512946   4.231   0.026   6.782  0.8062 -0.3310 -0.8764
 1249ACTN    C212947   4.258   0.118   6.603  0.2809 -0.1756 -0.3252
 1249ACTN    O112948   4.330   0.212   6.572  0.0751  0.0866 -0.6748
 1249ACTN    C112949   4.259  -0.014   6.533 -0.1359  0.0915  0.0452
 1249ACTN    H112950   4.328  -0.011   6.449  0.1464  1.9839  0.3078
 1249ACTN    H212951   4.160  -0.015   6.488 -0.0280 -0.4418 -0.1823
 1249ACTN    H312952   4.257  -0.098   6.602 -2.2439  1.1635  1.3735
 1250ACTN    H612953   2.351   8.914   6.619  1.5599 -1.6999 -0.3857
 1250ACTN    C312954   2.442   8.957   6.576  0.1959  0.6471 -1.0569
 1250ACTN    H412955   2.516   8.877   6.574 -0.4318  0.0579 -1.9889
 1250ACTN    H512956   2.432   8.989   6.472  1.3041  2.7250 -0.5395
 1250ACTN    C212957   2.482   9.077   6.658 -0.0428 -0.6898 -0.3440
 1250ACTN    O112958   2.592   9.087   6.708  0.1145  0.7230 -0.5055
 1250ACTN    C112959   2.364   9.148   6.721 -0.0113 -0.0275  0.0255
 1250ACTN    H112960   2.391   9.244   6.764 -2.6749 -0.8068  3.6388
 1250ACTN    H212961   2.311   9.091   6.797  2.7017  1.5042  3.1844
 1250ACTN    H312962   2.289   9.166   6.644  0.7180  1.2663 -0.3887
 1251ACTN    H612963   8.865   8.600   6.448  1.2831  1.0970  1.5330
 1251ACTN    C312964   8.793   8.682   6.452 -0.0275  0.0620 -0.3226
 1251ACTN    H412965   8.844   8.763   6.505  1.0439 -0.9542  0.2046
 1251ACTN    H512966   8.767   8.701   6.347  0.5450  0.3252 -0.4177
 1251ACTN    C212967   8.670   8.626   6.524 -0.3223  0.0884 -0.6321
 1251ACTN    O112968   8.680   8.599   6.643  0.2471 -0.1615  0.1970
 1251ACTN    C112969   8.536   8.652   6.461  0.4654  0.2134  0.2241
 1251ACTN    H112970   8.462   8.620   6.534  0.3348  0.6104  0.2644
 1251ACTN    H212971   8.531   8.590   6.372  0.0983  0.5734 -0.0036
 1251ACTN    H312972   8.528   8.759   6.445  0.3914  0.3548  1.1484
 1252ACTN    H612973   5.292   6.605   3.367  1.3128  1.0889 -0.4529
 1252ACTN    C312974   5.294   6.626   3.474  0.2158 -0.0678 -0.1918
 1252ACTN    H412975   5.215   6.695   3.503  0.7617 -0.0245  1.2023
 1252ACTN    H512976   5.276   6.531   3.524  0.8634  0.3719  0.9040
 1252ACTN    C212977   5.428   6.673   3.523  0.4192  0.3824  0.4140
 1252ACTN    O112978   5.528   6.611   3.490  0.4866 -0.4925 -0.1137
 1252ACTN    C112979   5.439   6.794   3.603 -0.4791  0.1044 -0.9229
 1252ACTN    H112980   5.495   6.778   3.695  1.5035  0.3032 -2.0525
 1252ACTN    H212981   5.342   6.836   3.630  0.6145  0.7310  2.3063
 1252ACTN    H312982   5.496   6.862   3.540  1.7714 -0.1081  0.8101
 1253ACTN    H612983   0.123   5.608   0.818  0.9443  0.7992  1.1934
 1253ACTN    C312984   0.059   5.687   0.857 -0.9122 -0.3474  0.5449
 1253ACTN    H412985   0.076   5.694   0.964 -1.3761  0.6900  0.5556
 1253ACTN    H512986   0.088   5.782   0.812 -0.5938 -0.3778  0.6805
 1253ACTN    C212987  -0.083   5.653   0.836  0.6929  0.9733  0.3825
 1253ACTN    O112988  -0.169   5.720   0.776  0.5564  0.1287  0.8041
 1253ACTN    C112989  -0.124   5.513   0.876  0.8254  0.1954  0.5815
 1253ACTN    H112990  -0.045   5.461   0.930  0.8612 -1.2888 -0.8705
 1253ACTN    H212991  -0.147   5.452   0.789 -0.3594  0.8391  0.4310
 1253ACTN    H312992  -0.217   5.513   0.933 -0.1031  1.1332 -0.9191
 1254ACTN    H612993   8.221   2.137   8.173 -1.5216 -1.3298  1.9731
 1254ACTN    C312994   8.125   2.173   8.135 -0.3071 -0.2108 -0.1351
 1254ACTN    H412995   8.098   2.104   8.055  1.4711  1.1129 -1.9312
 1254ACTN    H512996   8.046   2.160   8.210 -1.0582 -1.7148 -1.1780
 1254ACTN    C212997   8.129   2.320   8.098  0.3386  0.1403 -0.2312
 1254ACTN    O112998   8.046   2.375   8.027  0.3610  0.0786 -0.1163
 1254ACTN    C112999   8.253   2.388   8.138  0.0665 -0.4000  0.0310
 1254ACTN    H113000   8.338   2.320   8.142  1.5403  1.3631 -0.6979
 1254ACTN    H213001   8.245   2.438   8.235  2.4014  1.0845 -0.5215
 1254ACTN    H313002   8.269   2.469   8.067  0.6512  0.0902  0.7201
 1255ACTN    H613003   8.302   2.816   3.067 -0.7780  0.9994 -1.1432
 1255ACTN    C313004   8.267   2.858   3.161  0.7696  0.2084 -0.1897
 1255ACTN    H413005   8.167   2.903   3.160  0.1790 -1.1014 -0.4918
 1255ACTN    H513006   8.250   2.776   3.230 -4.8540  0.6802 -0.7307
 1255ACTN    C213007   8.355   2.968   3.219  0.0241  0.7510 -1.3467
 1255ACTN    O113008   8.444   2.940   3.292  0.2397 -0.4607 -0.2913
 1255ACTN    C113009   8.339   3.101   3.164  0.4072 -0.1067  0.4071
 1255ACTN    H113010   8.282   3.086   3.073 -1.7649  0.7946  1.6044
 1255ACTN    H213011   8.433   3.152   3.142  0.2516 -0.6703 -1.6495
 1255ACTN    H313012   8.282   3.158   3.238 -1.4377 -0.1447 -0.9715
 1256ACTN    H613013   3.919   8.423   7.763 -0.2227 -0.0592  0.0236
 1256ACTN    C313014   3.962   8.519   7.736  0.4577 -0.3754 -0.0365
 1256ACTN    H413015   4.068   8.494   7.731 -0.1109 -2.9514  0.0155
 1256ACTN    H513016   3.935   8.563   7.640 -1.2526 -1.4662 -0.0688
 1256ACTN    C213017   3.922   8.602   7.862 -0.0167  0.1918  0.2218
 1256ACTN    O113018   4.004   8.626   7.946 -0.1950 -0.2285 -0.3183
 1256ACTN    C113019   3.785   8.659   7.884 -0.3496  0.0399 -0.3717
 1256ACTN    H113020   3.776   8.727   7.968 -1.7237 -0.9804  0.3206
 1256ACTN    H213021   3.709   8.586   7.912 -0.8200  0.9660  0.7971
 1256ACTN    H313022   3.758   8.708   7.790  0.3875 -1.6773 -1.5243
 1257ACTN    H613023   2.055   1.019   4.527 -1.3771 -0.7491 -0.4805
 1257ACTN    C313024   2.062   0.916   4.564 -0.1118 -0.5111 -0.0372
 1257ACTN    H413025   1.995   0.854   4.506  1.6045 -0.4614 -2.1415
 1257ACTN    H513026   2.163   0.879   4.546  0.4156  0.7741  0.1843
 1257ACTN    C213027   2.025   0.908   4.711 -0.5107  0.5699 -0.7359
 1257ACTN    O113028   1.949   0.823   4.752 -0.1475 -0.3697 -0.1120
 1257ACTN    C113029   2.111   0.994   4.804 -0.7262 -0.4939 -0.4784
 1257ACTN    H113030   2.190   1.051   4.756 -1.5626  0.7530 -0.3885
 1257ACTN    H213031   2.155   0.930   4.880 -0.4699 -0.9245 -0.9833
 1257ACTN    H313032   2.048   1.069   4.852 -0.1291  0.5061 -1.2369
 1258ACTN    H613033   2.955   8.109   8.035 -0.2941  1.4918  2.1280
 1258ACTN    C313034   3.062   8.124   8.020 -0.3790  0.0374 -0.0253
 1258ACTN    H413035   3.105   8.171   8.108 -1.1709  1.7309 -0.5143
 1258ACTN    H513036   3.125   8.036   8.005 -0.0315  0.1727  0.6401
 1258ACTN    C213037   3.070   8.214   7.898 -0.4122 -0.5664 -0.1199
 1258ACTN    O113038   3.081   8.335   7.914  0.3850  0.1054 -0.0766
 1258ACTN    C113039   3.115   8.149   7.764 -0.0522 -0.2274  0.4840
 1258ACTN    H113040   3.203   8.085   7.776  0.1317 -0.0378  0.1266
 1258ACTN    H213041   3.132   8.221   7.685  1.3220  0.6714  1.5827
 1258ACTN    H313042   3.031   8.088   7.731 -1.1210  1.1563  0.5947
 1259ACTN    H613043   7.044   1.830   3.012  1.1628 -2.7401 -0.6061
 1259ACTN    C313044   7.136   1.885   2.992 -0.0517 -0.4883 -0.1177
 1259ACTN    H413045   7.115   1.928   2.894  0.1848  1.1065  0.5136
 1259ACTN    H513046   7.143   1.970   3.061 -3.3168 -0.4378  0.2467
 1259ACTN    C213047   7.264   1.802   2.978 -0.7024 -0.2392 -0.5098
 1259ACTN    O113048   7.270   1.726   2.887 -0.2004  0.3695 -0.9973
 1259ACTN    C113049   7.395   1.847   3.040 -0.9339  0.5316 -0.3638
 1259ACTN    H113050   7.461   1.912   2.983 -1.2555 -1.9442 -3.7279
 1259ACTN    H213051   7.458   1.760   3.060  1.2969  2.6257  2.0045
 1259ACTN    H313052   7.373   1.883   3.141  1.5440  3.4812 -0.8237
 1260ACTN    H613053   0.732   2.194   1.337  1.2355 -0.2789  0.6942
 1260ACTN    C313054   0.749   2.296   1.302 -0.9053 -0.1319  0.0131
 1260ACTN    H413055   0.748   2.362   1.389  1.3432 -0.5488  0.3948
 1260ACTN    H513056   0.850   2.288   1.263 -1.2360 -0.9440 -0.6884
 1260ACTN    C213057   0.647   2.338   1.206  0.5386  0.6544 -0.2569
 1260ACTN    O113058   0.568   2.259   1.160 -0.0862  0.8640 -0.1559
 1260ACTN    C113059   0.658   2.464   1.130  0.1324  0.5447 -0.1317
 1260ACTN    H113060   0.753   2.451   1.078  0.1404  1.9362 -0.4730
 1260ACTN    H213061   0.662   2.540   1.208  1.6538  1.2944 -0.9142
 1260ACTN    H313062   0.588   2.485   1.049  0.2529  3.0799  0.3723
 1261ACTN    H613063   8.188   6.327   6.047  0.0872 -1.1423 -3.0118
 1261ACTN    C313064   8.292   6.295   6.051  0.2229 -0.5138 -0.1975
 1261ACTN    H413065   8.345   6.370   5.992 -2.9263  0.6869 -1.6152
 1261ACTN    H513066   8.296   6.199   5.999  0.5724  0.3871 -1.8776
 1261ACTN    C213067   8.348   6.297   6.181 -0.7525  0.1333  0.5525
 1261ACTN    O113068   8.414   6.200   6.207  0.2429 -0.5253 -0.0076
 1261ACTN    C113069   8.333   6.414   6.278  0.7575 -0.5771 -0.3663
 1261ACTN    H113070   8.366   6.512   6.244  1.9585 -0.9507 -0.3004
 1261ACTN    H213071   8.383   6.399   6.374  0.3978 -0.0145 -0.0893
 1261ACTN    H313072   8.229   6.429   6.306  0.6386 -0.9648 -0.5882
 1262ACTN    H613073   5.889   1.911   6.160 -0.7171 -1.7508  1.4113
 1262ACTN    C313074   5.944   1.956   6.243  0.0414  0.5876 -0.3083
 1262ACTN    H413075   5.881   1.976   6.329 -0.3957 -0.0764 -0.4717
 1262ACTN    H513076   6.025   1.887   6.265 -1.4601 -1.1245 -0.0398
 1262ACTN    C213077   5.990   2.090   6.192 -0.4650 -0.7781 -0.2632
 1262ACTN    O113078   6.069   2.084   6.104 -0.0074  0.0210 -0.0968
 1262ACTN    C113079   5.959   2.223   6.262 -0.1146 -0.7476  0.6115
 1262ACTN    H113080   5.854   2.231   6.290  0.0816 -1.5620  1.6121
 1262ACTN    H213081   6.002   2.307   6.208  0.9340 -1.9209 -0.4014
 1262ACTN    H313082   6.024   2.226   6.350  2.6952 -0.4357 -1.3950
 1263ACTN    H613083   7.900   1.290   3.972  1.1214  0.9597  0.3288
 1263ACTN    C313084   7.946   1.194   3.995  0.6177  0.6974  0.2417
 1263ACTN    H413085   8.035   1.219   4.052  0.8144  1.3333 -0.3336
 1263ACTN    H513086   7.877   1.140   4.061  0.0209  0.2688 -0.7185
 1263ACTN    C213087   7.972   1.113   3.871 -0.7306  0.7674  0.1850
 1263ACTN    O113088   7.940   1.144   3.758 -0.2932 -0.3681 -0.4790
 1263ACTN    C113089   8.020   0.979   3.902  0.1256  0.5664 -0.4696
 1263ACTN    H113090   7.935   0.912   3.886  1.1425 -0.6436 -0.9563
 1263ACTN    H213091   8.058   0.973   4.004 -0.0494 -0.1987 -0.4467
 1263ACTN    H313092   8.103   0.965   3.832  1.1814  0.4500  0.7914
 1264ACTN    H613093   1.567   0.209   4.284 -2.0280 -1.0474  0.7980
 1264ACTN    C313094   1.590   0.139   4.364  0.2504  0.1428  1.2509
 1264ACTN    H413095   1.507   0.148   4.435 -1.9015 -1.4993 -0.9650
 1264ACTN    H513096   1.575   0.036   4.332 -3.6296  1.5655 -1.9075
 1264ACTN    C213097   1.721   0.160   4.423 -0.4439  0.5365  0.2408
 1264ACTN    O113098   1.744   0.119   4.535  0.1760 -0.0515  0.0788
 1264ACTN    C113099   1.834   0.206   4.335 -0.0960 -0.0898 -0.5619
 1264ACTN    H113100   1.883   0.121   4.286 -0.9489 -0.7966 -0.1929
 1264ACTN    H213101   1.903   0.265   4.395 -2.8102  0.7009  1.8589
 1264ACTN    H313102   1.799   0.269   4.254 -0.1956 -0.3428 -0.7150
 1265ACTN    H613103   0.501   6.428   7.397 -2.1720 -0.8632  0.2411
 1265ACTN    C313104   0.492   6.421   7.288 -0.0791  0.3747 -0.0444
 1265ACTN    H413105   0.403   6.361   7.270 -0.0535  0.5936 -0.9205
 1265ACTN    H513106   0.464   6.516   7.242 -0.7517  0.5519  0.6963
 1265ACTN    C213107   0.616   6.361   7.234  0.2758 -0.2048  0.5993
 1265ACTN    O113108   0.657   6.389   7.126 -0.6721  0.2524 -0.3180
 1265ACTN    C113109   0.658   6.229   7.283 -1.1411  0.0993 -1.0117
 1265ACTN    H113110   0.586   6.150   7.264  0.0885 -0.3295 -4.2702
 1265ACTN    H213111   0.683   6.229   7.389  1.5536  0.4741 -1.5983
 1265ACTN    H313112   0.753   6.204   7.235 -1.1314 -0.9361 -0.4630
 1266ACTN    H613113   2.061   7.185   3.285  1.0992  0.0699 -0.0165
 1266ACTN    C313114   2.032   7.099   3.225  0.1053  0.2295  0.2236
 1266ACTN    H413115   2.106   7.073   3.149  0.8373  0.3926  0.8734
 1266ACTN    H513116   2.017   7.016   3.293 -2.4207  1.5876  1.4051
 1266ACTN    C213117   1.900   7.132   3.160 -0.7025  0.5029 -0.0992
 1266ACTN    O113118   1.898   7.170   3.050  0.5319 -0.4752  0.4009
 1266ACTN    C113119   1.777   7.164   3.248 -0.2017 -0.5653  0.0685
 1266ACTN    H113120   1.696   7.191   3.181  1.2475  2.0754 -0.7201
 1266ACTN    H213121   1.792   7.249   3.315  0.9153  1.0589 -2.1658
 1266ACTN    H313122   1.752   7.073   3.301 -0.5313  0.9339  2.5931
 1267ACTN    H613123   0.593   2.850   0.747 -2.2160 -0.0638 -1.7381
 1267ACTN    C313124   0.639   2.935   0.695  0.1767 -0.1964  0.0780
 1267ACTN    H413125   0.712   2.896   0.624  0.4575 -0.6713  0.6230
 1267ACTN    H513126   0.556   2.983   0.644 -1.1863 -1.7127  0.8180
 1267ACTN    C213127   0.700   3.022   0.797 -0.2185 -0.1838  0.0271
 1267ACTN    O113128   0.718   3.141   0.763  0.0437 -0.0213  0.0740
 1267ACTN    C113129   0.724   2.959   0.933  0.7183  1.0255  0.1663
 1267ACTN    H113130   0.633   2.976   0.990 -0.0485 -0.2373 -0.6535
 1267ACTN    H213131   0.806   3.011   0.983  0.1217  0.3776  1.8540
 1267ACTN    H313132   0.722   2.850   0.930 -0.9751  1.0687 -1.4003
 1268ACTN    H613133   5.178   3.298   2.236  1.4868 -2.5888 -1.7091
 1268ACTN    C313134   5.229   3.366   2.168  0.3751  0.2722  0.2370
 1268ACTN    H413135   5.186   3.352   2.068  3.4930 -1.4162 -0.9200
 1268ACTN    H513136   5.220   3.472   2.193  1.4219  0.7243 -1.2028
 1268ACTN    C213137   5.378   3.351   2.152  0.1981 -0.0622 -0.3352
 1268ACTN    O113138   5.451   3.351   2.252  0.2647  0.1218 -0.4396
 1268ACTN    C113139   5.438   3.352   2.018 -0.1487  0.2977  0.4238
 1268ACTN    H113140   5.411   3.439   1.960 -0.6244  0.0642  0.2962
 1268ACTN    H213141   5.415   3.261   1.963  1.0005 -0.1959  0.7331
 1268ACTN    H313142   5.547   3.353   2.024 -0.1760  3.6308  1.1786
 1269ACTN    H613143   0.854   5.319   4.377 -1.2131 -0.4155 -0.6292
 1269ACTN    C313144   0.788   5.405   4.363  0.0078  0.6335 -0.0299
 1269ACTN    H413145   0.759   5.438   4.463  3.8205 -0.0183  1.3562
 1269ACTN    H513146   0.843   5.489   4.322 -1.2384  1.2651 -0.4411
 1269ACTN    C213147   0.682   5.370   4.264 -0.1517  0.5505 -0.3514
 1269ACTN    O113148   0.652   5.447   4.179  0.1490 -0.2743  0.2899
 1269ACTN    C113149   0.640   5.233   4.258  0.5852 -0.2876  0.6282
 1269ACTN    H113150   0.665   5.207   4.155  1.0894  1.7230  0.2272
 1269ACTN    H213151   0.534   5.221   4.282  0.3802 -0.9012 -0.5301
 1269ACTN    H313152   0.705   5.170   4.318 -0.2899 -3.0897 -1.2595
 1270ACTN    H613153   4.553   7.017   5.135  0.0443  1.1063  0.9436
 1270ACTN    C313154   4.495   6.970   5.213 -0.1143 -0.2420  0.0362
 1270ACTN    H413155   4.545   6.978   5.310 -1.0230  0.0568  0.4948
 1270ACTN    H513156   4.400   7.023   5.218 -0.4147 -0.6277 -1.2974
 1270ACTN    C213157   4.477   6.826   5.159  0.1771  0.2182  0.5292
 1270ACTN    O113158   4.370   6.795   5.105  0.0315 -0.2231  0.3079
 1270ACTN    C113159   4.550   6.704   5.213  0.3580 -0.4026  0.5756
 1270ACTN    H113160   4.642   6.692   5.157 -1.1547 -1.5866 -1.7471
 1270ACTN    H213161   4.493   6.612   5.200 -1.2768  0.9793 -2.4451
 1270ACTN    H313162   4.569   6.715   5.320 -2.0162  1.0942  0.8711
 1271ACTN    H613163   5.938   2.548   5.137 -1.0145 -2.2383 -0.6765
 1271ACTN    C313164   5.999   2.506   5.217 -0.8540  1.0426  0.9938
 1271ACTN    H413165   5.941   2.457   5.295  1.4864 -1.9723  0.9155
 1271ACTN    H513166   6.043   2.422   5.164  1.6197  1.3082  2.5252
 1271ACTN    C213167   6.102   2.601   5.252  0.8261 -0.4633  0.3530
 1271ACTN    O113168   6.164   2.646   5.159 -0.2418  0.3612  0.7588
 1271ACTN    C113169   6.112   2.654   5.400 -0.5288 -0.2013 -0.8374
 1271ACTN    H113170   6.022   2.637   5.459  0.4065 -2.6870 -0.0682
 1271ACTN    H213171   6.127   2.761   5.391  0.2961 -0.3398 -1.1830
 1271ACTN    H313172   6.200   2.610   5.446  0.5977  0.3195 -2.4236
 1272ACTN    H613173   5.598   1.846   6.540 -1.7896 -0.6656  0.8498
 1272ACTN    C313174   5.638   1.748   6.565  0.4110  0.0377  0.2166
 1272ACTN    H413175   5.559   1.674   6.572 -0.6955  1.3266  1.9033
 1272ACTN    H513176   5.712   1.723   6.489  0.3600 -0.2331  0.2554
 1272ACTN    C213177   5.717   1.753   6.693 -0.2612  0.1347  0.5684
 1272ACTN    O113178   5.701   1.840   6.771  0.0910  0.1589  0.3875
 1272ACTN    C113179   5.812   1.635   6.713 -0.1764 -0.6195  0.8016
 1272ACTN    H113180   5.757   1.541   6.705 -1.3058  0.1126 -0.2121
 1272ACTN    H213181   5.870   1.648   6.805  0.8773  2.1273 -0.2266
 1272ACTN    H313182   5.887   1.632   6.634 -0.7494  1.2942  0.1597
 1273ACTN    H613183   6.489   5.507   1.250 -1.9572  0.1213  0.1416
 1273ACTN    C313184   6.433   5.552   1.168 -0.7928  0.1574 -0.6454
 1273ACTN    H413185   6.343   5.492   1.156 -0.2936 -0.5066 -1.0815
 1273ACTN    H513186   6.409   5.654   1.199  2.7379  0.7274  0.3535
 1273ACTN    C213187   6.518   5.548   1.045 -0.4799  0.4367  0.2694
 1273ACTN    O113188   6.510   5.455   0.967 -0.4021 -0.0219 -0.5854
 1273ACTN    C113189   6.613   5.659   1.020 -0.1122 -0.4154 -0.8053
 1273ACTN    H113190   6.709   5.622   0.983  1.2404  0.5389  1.6869
 1273ACTN    H213191   6.643   5.717   1.107  0.0590  0.9134 -1.7217
 1273ACTN    H313192   6.570   5.733   0.952  1.7882 -0.2448 -1.8576
 1274ACTN    H613193   4.068   7.760   3.190 -0.2358 -0.0276 -1.5944
 1274ACTN    C313194   4.078   7.864   3.223  0.0550 -0.6161  0.2453
 1274ACTN    H413195   3.981   7.893   3.263 -0.4151 -1.6511 -0.1239
 1274ACTN    H513196   4.149   7.880   3.304  3.6927 -1.1671 -2.6851
 1274ACTN    C213197   4.100   7.952   3.104 -0.9515  1.1406  0.3248
 1274ACTN    O113198   4.044   7.934   2.995  0.2753  0.5291 -0.3111
 1274ACTN    C113199   4.200   8.063   3.123  0.1700 -0.4033 -0.0036
 1274ACTN    H113200   4.262   8.064   3.213 -1.7655  0.5186  1.3359
 1274ACTN    H213201   4.158   8.163   3.110  2.5828  0.4184 -1.9454
 1274ACTN    H313202   4.275   8.052   3.044  1.2604  0.1648  0.9433
 1275ACTN    H613203   1.886   5.686   2.097 -0.6296  0.9647  0.7188
 1275ACTN    C313204   1.815   5.682   2.014 -0.5514  0.3175  0.6851
 1275ACTN    H413205   1.845   5.748   1.934 -1.4539 -0.0299  0.0523
 1275ACTN    H513206   1.819   5.582   1.970  2.8926 -0.4667  2.5926
 1275ACTN    C213207   1.680   5.707   2.074  0.2807 -1.4579 -0.3993
 1275ACTN    O113208   1.585   5.691   2.004  0.2797  0.0508  0.2775
 1275ACTN    C113209   1.667   5.803   2.187 -0.0584  0.6109 -0.1497
 1275ACTN    H113210   1.564   5.821   2.220  0.0494 -0.4212  0.7757
 1275ACTN    H213211   1.719   5.897   2.172 -0.2676  0.8249  0.4320
 1275ACTN    H313212   1.725   5.760   2.269 -1.3899 -1.9869 -0.5131
 1276ACTN    H613213   3.140   8.316   0.808  3.1708  0.0733 -2.4465
 1276ACTN    C313214   3.165   8.415   0.845 -0.1909  0.0625  0.0157
 1276ACTN    H413215   3.138   8.421   0.951 -1.5627  1.8292 -0.4079
 1276ACTN    H513216   3.272   8.425   0.832 -0.4094 -0.1300 -2.1640
 1276ACTN    C213217   3.092   8.526   0.769 -0.5655  0.5088  0.7761
 1276ACTN    O113218   3.118   8.646   0.785  0.2475  0.0981  0.4483
 1276ACTN    C113219   2.983   8.489   0.674  0.2206 -1.4736 -0.2236
 1276ACTN    H113220   2.891   8.537   0.709  0.8297  0.5139 -1.2711
 1276ACTN    H213221   2.978   8.380   0.677  2.7786 -1.5845  1.8641
 1276ACTN    H313222   3.012   8.525   0.575  0.7096 -1.0084  0.0860
 1277ACTN    H613223   5.956   8.561   1.933  1.5069 -0.1358  0.9085
 1277ACTN    C313224   5.949   8.663   1.895  0.0798 -0.3856  0.4747
 1277ACTN    H413225   5.930   8.743   1.967  0.8422 -0.5733  0.9041
 1277ACTN    H513226   6.046   8.688   1.853  0.8676 -1.6990  1.4545
 1277ACTN    C213227   5.853   8.678   1.789  0.5702 -0.1824 -0.3389
 1277ACTN    O113228   5.781   8.584   1.755  0.0849 -0.6950 -0.0653
 1277ACTN    C113229   5.863   8.793   1.698  0.1964  0.2486  0.2790
 1277ACTN    H113230   5.780   8.860   1.721  0.3945  0.0649  1.5734
 1277ACTN    H213231   5.848   8.767   1.594 -2.0093  0.7079  0.4615
 1277ACTN    H313232   5.953   8.855   1.705  0.1310  0.4836 -0.9724
 1278ACTN    H613233   0.501   2.187   6.321 -1.2138  0.7202 -3.4689
 1278ACTN    C313234   0.600   2.231   6.316 -0.2699 -0.7531  0.4156
 1278ACTN    H413235   0.600   2.296   6.228  1.0484  0.6964  1.4478
 1278ACTN    H513236   0.609   2.291   6.407 -1.1060 -0.4677  0.3107
 1278ACTN    C213237   0.706   2.129   6.286 -0.1944  0.3929 -0.4149
 1278ACTN    O113238   0.809   2.116   6.357  0.0916  0.0298 -0.4828
 1278ACTN    C113239   0.694   2.051   6.159  0.0081 -0.8204  0.3232
 1278ACTN    H113240   0.700   2.118   6.074 -1.6316 -0.0688  0.7869
 1278ACTN    H213241   0.591   2.017   6.167 -0.5478 -0.1154 -3.2868
 1278ACTN    H313242   0.763   1.966   6.153 -0.6284 -1.2171 -1.6599
 1279ACTN    H613243   8.683   6.318   0.134  0.0743 -3.1784  0.4428
 1279ACTN    C313244   8.754   6.324   0.051  0.2949  0.1838  0.8002
 1279ACTN    H413245   8.843   6.368   0.095  0.7861  1.5596 -1.5090
 1279ACTN    H513246   8.789   6.225   0.023 -0.5269  0.4300 -1.1954
 1279ACTN    C213247   8.692   6.403  -0.062 -0.0798 -0.3422 -0.0027
 1279ACTN    O113248   8.575   6.449  -0.061 -0.1407  0.6411 -0.2378
 1279ACTN    C113249   8.779   6.440  -0.182  0.1749 -0.0081 -0.4126
 1279ACTN    H113250   8.883   6.449  -0.149  0.4936 -0.6924 -1.2354
 1279ACTN    H213251   8.762   6.537  -0.229  0.2396  0.0505 -0.3143
 1279ACTN    H313252   8.770   6.359  -0.254 -0.1123 -0.9438  0.6719
 1280ACTN    H613253   1.839   1.119   6.717  2.7022  1.1784  0.1871
 1280ACTN    C313254   1.854   1.077   6.816  0.0725 -0.1211  0.0861
 1280ACTN    H413255   1.962   1.066   6.831  0.1517 -0.7991 -0.9410
 1280ACTN    H513256   1.818   1.150   6.889 -1.0083 -1.3796  0.8273
 1280ACTN    C213257   1.785   0.941   6.837 -0.1017 -0.4752  0.4874
 1280ACTN    O113258   1.694   0.943   6.915  0.3062 -0.1374 -0.3529
 1280ACTN    C113259   1.836   0.822   6.763  0.4445 -0.1048 -0.2425
 1280ACTN    H113260   1.934   0.828   6.715 -0.3725  1.2206 -1.8162
 1280ACTN    H213261   1.769   0.809   6.677 -0.7876  0.0870  0.6780
 1280ACTN    H313262   1.833   0.729   6.819 -1.4371 -0.6377 -1.1874
 1281ACTN    H613263   8.586   0.323   4.274 -0.6518 -0.2878 -0.7575
 1281ACTN    C313264   8.575   0.263   4.364  1.1679  1.0447  0.3922
 1281ACTN    H413265   8.636   0.311   4.441 -0.1534 -2.8741  4.0505
 1281ACTN    H513266   8.471   0.265   4.398  0.2250 -2.0474 -2.0434
 1281ACTN    C213267   8.634   0.119   4.344  0.3439  0.2110  0.5149
 1281ACTN    O113268   8.573   0.021   4.392  0.1315 -0.1476 -0.3227
 1281ACTN    C113269   8.785   0.111   4.312  0.6251  0.7571 -0.3452
 1281ACTN    H113270   8.827   0.011   4.322 -2.2304 -0.6111 -1.7732
 1281ACTN    H213271   8.831   0.180   4.383 -0.6432 -0.4419  1.7212
 1281ACTN    H313272   8.813   0.144   4.212  0.1820 -1.3047 -1.1705
 1282ACTN    H613273   0.303   5.319   2.287 -2.5779 -0.9713  0.1776
 1282ACTN    C313274   0.296   5.343   2.393  0.5988  0.2413  0.1863
 1282ACTN    H413275   0.389   5.329   2.448  0.7805  1.1591  0.1181
 1282ACTN    H513276   0.274   5.450   2.393 -1.3772 -0.1216  2.1709
 1282ACTN    C213277   0.186   5.262   2.463 -0.0447  0.1307  0.7683
 1282ACTN    O113278   0.072   5.271   2.423  0.0570 -0.1088 -0.1139
 1282ACTN    C113279   0.216   5.212   2.594 -0.7799  0.1969  0.1363
 1282ACTN    H113280   0.192   5.288   2.668 -1.6171 -0.3190  0.4006
 1282ACTN    H213281   0.320   5.183   2.609 -1.1931 -2.1729 -1.2710
 1282ACTN    H313282   0.150   5.126   2.612 -0.5588  0.2088  1.0367
 1283ACTN    H613283   1.714   0.836   4.835 -0.1485  1.9070  1.6187
 1283ACTN    C313284   1.637   0.797   4.901 -0.0888 -0.0064  0.5705
 1283ACTN    H413285   1.594   0.871   4.968 -4.2953  0.1940 -2.1494
 1283ACTN    H513286   1.560   0.759   4.834 -1.1590  0.5135  1.4961
 1283ACTN    C213287   1.704   0.682   4.970 -0.7186  0.0228  0.3738
 1283ACTN    O113288   1.706   0.683   5.097 -0.4617 -0.4292 -0.2640
 1283ACTN    C113289   1.767   0.576   4.892  0.8648  0.8934 -0.2937
 1283ACTN    H113290   1.870   0.570   4.927  0.9760  0.9181 -0.6138
 1283ACTN    H213291   1.767   0.595   4.784  0.9086 -0.5168 -0.5545
 1283ACTN    H313292   1.719   0.480   4.907  2.5425  0.2447  1.0240
 1284ACTN    H613293   3.052   8.273   1.313  0.6077 -1.1873 -0.0888
 1284ACTN    C313294   2.960   8.263   1.255  0.0801  0.0820  0.5081
 1284ACTN    H413295   2.885   8.329   1.298  0.1411  1.9320 -2.0816
 1284ACTN    H513296   2.974   8.291   1.151 -1.4159  0.8543  0.5037
 1284ACTN    C213297   2.896   8.123   1.261  0.2659  0.4534 -0.4966
 1284ACTN    O113298   2.836   8.090   1.360 -0.5950 -0.1819  0.0217
 1284ACTN    C113299   2.890   8.032   1.148 -0.6661 -0.5331  0.9662
 1284ACTN    H113300   2.972   8.046   1.079 -1.0169 -0.9364  0.4635
 1284ACTN    H213301   2.801   8.051   1.087  0.3025  1.6062  0.1681
 1284ACTN    H313302   2.875   7.928   1.177 -0.5670 -0.5377  1.0005
 1285ACTN    H613303   1.013   6.996   8.534 -0.5596 -2.0932  1.0065
 1285ACTN    C313304   1.106   7.017   8.586 -0.5859  0.2100  0.1911
 1285ACTN    H413305   1.106   6.968   8.684 -0.5322 -0.1367  0.0178
 1285ACTN    H513306   1.191   6.987   8.526 -0.8889  0.0647 -0.1626
 1285ACTN    C213307   1.105   7.165   8.608  0.2409  0.3901 -0.3827
 1285ACTN    O113308   1.193   7.239   8.581  0.4670 -0.2356 -0.2729
 1285ACTN    C113309   0.999   7.229   8.688 -0.4460  0.1490 -0.0123
 1285ACTN    H113310   0.983   7.155   8.766 -0.2235 -1.4616 -1.4881
 1285ACTN    H213311   0.910   7.254   8.630 -0.6271  1.2733  0.7312
 1285ACTN    H313312   1.037   7.323   8.729 -4.7878  1.3461  1.5505
 1286ACTN    H613313   4.996   4.804   2.622  0.6891  1.4236 -0.8315
 1286ACTN    C313314   4.985   4.863   2.713 -0.7850 -0.2888  0.1206
 1286ACTN    H413315   4.903   4.932   2.691 -0.2806  0.8180  1.6497
 1286ACTN    H513316   4.950   4.806   2.799  1.7428 -0.2684  1.1993
 1286ACTN    C213317   5.107   4.949   2.735  0.0066 -0.1404  0.0023
 1286ACTN    O113318   5.205   4.886   2.768  0.1719  0.2773  0.3297
 1286ACTN    C113319   5.109   5.093   2.714 -0.0320 -0.3709 -0.0799
 1286ACTN    H113320   5.184   5.118   2.639  3.2132 -2.4792  2.3275
 1286ACTN    H213321   5.144   5.145   2.803  2.0256  1.2283 -1.7614
 1286ACTN    H313322   5.012   5.131   2.681 -0.6968 -2.7656 -1.0406
 1287ACTN    H613323   3.409   7.680   4.734 -0.6247 -0.9197 -0.8542
 1287ACTN    C313324   3.385   7.716   4.634  0.1515  1.0115 -0.3647
 1287ACTN    H413325   3.297   7.778   4.652 -1.0265 -0.7472  0.1075
 1287ACTN    H513326   3.468   7.781   4.607  0.7897  0.1408 -0.5042
 1287ACTN    C213327   3.357   7.610   4.529 -0.0195  0.5796  0.4020
 1287ACTN    O113328   3.443   7.592   4.441  1.2119  0.4973  0.0508
 1287ACTN    C113329   3.232   7.524   4.554 -0.8235 -0.5778  0.1653
 1287ACTN    H113330   3.144   7.588   4.544  0.9975  2.4214  2.2364
 1287ACTN    H213331   3.238   7.477   4.652  0.7009 -1.5392 -0.3652
 1287ACTN    H313332   3.221   7.444   4.481  1.6294 -3.1339  2.5218
 1288ACTN    H613333   8.638   8.626   3.450  0.1557  0.0398 -0.8966
 1288ACTN    C313334   8.573   8.706   3.485 -0.0615 -0.5011 -0.0320
 1288ACTN    H413335   8.552   8.696   3.591  0.2834  1.5822  0.2524
 1288ACTN    H513336   8.634   8.796   3.478 -0.4073 -0.3150 -0.7104
 1288ACTN    C213337   8.439   8.728   3.417  0.8905 -0.1638  0.0116
 1288ACTN    O113338   8.380   8.838   3.419  0.1514  0.1844 -0.4966
 1288ACTN    C113339   8.381   8.620   3.332 -0.3123  0.4510  0.1569
 1288ACTN    H113340   8.364   8.532   3.394 -1.4748 -0.3939 -1.3581
 1288ACTN    H213341   8.453   8.592   3.256 -0.1416  0.5864  0.2671
 1288ACTN    H313342   8.290   8.643   3.276  0.2880 -0.0605 -1.0339
 1289ACTN    H613343   8.407   6.470   4.280  1.1543 -0.2132 -0.9151
 1289ACTN    C313344   8.387   6.429   4.181  0.1136  0.0738 -0.8348
 1289ACTN    H413345   8.390   6.511   4.109 -1.1996  0.5140 -0.3908
 1289ACTN    H513346   8.471   6.368   4.148 -1.5761 -3.0983  0.6200
 1289ACTN    C213347   8.265   6.335   4.174  0.9399  0.2718  0.6931
 1289ACTN    O113348   8.222   6.291   4.282 -0.2073 -0.2805  0.3071
 1289ACTN    C113349   8.218   6.285   4.037  0.4460 -0.0852 -0.4501
 1289ACTN    H113350   8.301   6.259   3.970  0.5385 -2.1794  0.4492
 1289ACTN    H213351   8.162   6.366   3.992  0.2027  0.4005  0.7223
 1289ACTN    H313352   8.151   6.199   4.045  2.1150 -1.3394  0.5716
 1290ACTN    H613353   3.578   7.647   3.297 -1.0630  0.9404 -0.7119
 1290ACTN    C313354   3.516   7.587   3.364  0.7895 -0.2425 -0.0139
 1290ACTN    H413355   3.547   7.616   3.464  0.7012  1.7230 -0.5211
 1290ACTN    H513356   3.410   7.610   3.348  0.1615 -1.5143  2.1417
 1290ACTN    C213357   3.536   7.445   3.334  0.2308 -0.1616 -0.0068
 1290ACTN    O113358   3.570   7.364   3.423  0.0559 -0.6788  0.5972
 1290ACTN    C113359   3.483   7.391   3.203 -0.2622 -0.8515 -0.0084
 1290ACTN    H113360   3.396   7.331   3.230 -2.2702  2.6762  1.7053
 1290ACTN    H213361   3.556   7.326   3.156 -0.4341 -1.0384 -0.0144
 1290ACTN    H313362   3.454   7.476   3.141  0.8072 -1.6530 -1.6289
 1291ACTN    H613363   7.353   5.893   4.317 -0.7008  1.9231 -1.1578
 1291ACTN    C313364   7.458   5.921   4.313 -0.2358  0.2785 -0.8528
 1291ACTN    H413365   7.474   6.019   4.358  0.9602  0.0576 -0.7647
 1291ACTN    H513366   7.512   5.856   4.383  2.3899  2.5121 -0.7180
 1291ACTN    C213367   7.507   5.915   4.169  0.4334  0.2897 -0.0533
 1291ACTN    O113368   7.472   5.830   4.096 -0.8229 -0.0649 -0.1961
 1291ACTN    C113369   7.577   6.024   4.106  0.1149  0.1629 -0.4099
 1291ACTN    H113370   7.684   6.001   4.095 -0.0724 -1.2151  0.4897
 1291ACTN    H213371   7.567   6.110   4.172 -0.6283 -0.2123 -0.0265
 1291ACTN    H313372   7.538   6.055   4.010  0.7974  1.1181 -0.3858
 1292ACTN    H613373   6.538   1.035   4.529 -1.0892  0.6007 -1.6329
 1292ACTN    C313374   6.627   1.098   4.527 -0.0014 -0.8600 -0.4017
 1292ACTN    H413375   6.700   1.069   4.603 -1.0161  1.4866  1.5326
 1292ACTN    H513376   6.668   1.084   4.427  1.0286  3.6472 -0.7300
 1292ACTN    C213377   6.590   1.242   4.545 -1.0038 -0.3304  1.0636
 1292ACTN    O113378   6.531   1.278   4.637 -0.5533 -0.6206  0.8968
 1292ACTN    C113379   6.584   1.330   4.418 -0.1503  0.5624  0.2078
 1292ACTN    H113380   6.629   1.279   4.332 -2.8050 -1.4030 -0.1028
 1292ACTN    H213381   6.634   1.425   4.436 -1.0929  0.8472  1.3783
 1292ACTN    H313382   6.482   1.350   4.384  0.4006  0.5958 -1.5110
 1293ACTN    H613383   3.165   8.392   4.228 -0.7681  2.3830  0.2680
 1293ACTN    C313384   3.064   8.365   4.259 -0.3997  0.0871 -0.4397
 1293ACTN    H413385   2.999   8.452   4.248 -2.6336 -1.3177  1.1714
 1293ACTN    H513386   3.027   8.292   4.188 -1.2958  1.4487 -1.3866
 1293ACTN    C213387   3.061   8.314   4.402  1.2923 -0.0517 -0.9314
 1293ACTN    O113388   2.974   8.233   4.428 -0.2370 -0.4658  0.2241
 1293ACTN    C113389   3.170   8.362   4.492 -0.5312 -0.4607  0.1885
 1293ACTN    H113390   3.210   8.456   4.453  2.5136 -1.6160  0.3670
 1293ACTN    H213391   3.254   8.292   4.491  0.9347  1.2643  0.0036
 1293ACTN    H313392   3.138   8.376   4.595  0.8564 -1.6045  0.8006
 1294ACTN    H613393   4.296   8.691   0.011 -0.0031 -0.4886 -0.4272
 1294ACTN    C313394   4.320   8.587  -0.012  0.1168 -0.4536 -0.4551
 1294ACTN    H413395   4.372   8.587  -0.108 -1.3466  1.0029 -1.2938
 1294ACTN    H513396   4.375   8.550   0.073  0.2657  0.5340 -0.1120
 1294ACTN    C213397   4.204   8.496  -0.035 -0.0958 -0.3175  0.5893
 1294ACTN    O113398   4.093   8.548  -0.036  0.1708 -0.3651  0.1978
 1294ACTN    C113399   4.211   8.352  -0.043 -0.2044 -0.4479 -0.0985
 1294ACTN    H113400   4.112   8.309  -0.063  0.3127 -1.5981 -0.2508
 1294ACTN    H213401   4.249   8.312   0.051 -1.3521  1.6982  1.3018
 1294ACTN    H313402   4.277   8.316  -0.122 -0.4347 -2.2523  0.5090
 1295ACTN    H613403   8.587   0.577   0.319 -0.4481 -0.8262 -0.6839
 1295ACTN    C313404   8.488   0.608   0.285 -0.3515 -0.0178 -0.2342
 1295ACTN    H413405   8.488   0.633   0.179  0.3430 -0.5117 -0.3614
 1295ACTN    H513406   8.418   0.525   0.290 -1.9304  1.2997 -0.2043
 1295ACTN    C213407   8.424   0.718   0.362  0.3986 -0.0981 -0.7065
 1295ACTN    O113408   8.455   0.733   0.477 -0.8233 -0.1125  0.5373
 1295ACTN    C113409   8.297   0.778   0.299 -0.3302  0.0719  0.9767
 1295ACTN    H113410   8.218   0.704   0.291 -0.1510 -0.0562  0.4424
 1295ACTN    H213411   8.311   0.816   0.198 -1.1080  1.3695  1.3307
 1295ACTN    H313412   8.266   0.862   0.363 -0.3597  1.9170 -1.3945
 1296ACTN    H613413   7.465   6.904   4.013  0.1017 -1.7641 -0.2141
 1296ACTN    C313414   7.561   6.930   4.058 -0.1150 -0.4899 -0.4427
 1296ACTN    H413415   7.564   6.881   4.156 -2.1648 -0.3439 -0.2774
 1296ACTN    H513416   7.647   6.900   3.998 -0.3781  0.8446 -1.5017
 1296ACTN    C213417   7.573   7.079   4.067  0.2400  0.7969  0.7091
 1296ACTN    O113418   7.488   7.143   4.127 -0.2663  0.8732 -0.4305
 1296ACTN    C113419   7.674   7.163   3.996  0.3199 -0.5813  0.1755
 1296ACTN    H113420   7.779   7.161   4.024  1.3203 -1.9395 -3.3631
 1296ACTN    H213421   7.645   7.269   3.996 -2.3607 -1.2711  0.6421
 1296ACTN    H313422   7.677   7.134   3.891  0.9958  0.6390 -0.1501
 1297ACTN    H613423   6.054   4.275   7.065  0.3908  0.0430 -0.3038
 1297ACTN    C313424   6.133   4.309   7.132 -0.0872 -0.6046  0.6099
 1297ACTN    H413425   6.114   4.406   7.178 -1.5633 -1.8357  2.6560
 1297ACTN    H513426   6.160   4.236   7.207 -0.7156  0.6915  2.1197
 1297ACTN    C213427   6.261   4.323   7.051 -1.3069 -0.3340 -0.0974
 1297ACTN    O113428   6.265   4.295   6.933 -0.2673 -0.3352 -0.0863
 1297ACTN    C113429   6.385   4.349   7.136 -0.5115 -0.0667  0.4960
 1297ACTN    H113430   6.442   4.259   7.159 -2.4089 -2.1663 -2.6136
 1297ACTN    H213431   6.344   4.389   7.229  0.0978 -1.9456  1.6098
 1297ACTN    H313432   6.442   4.425   7.083 -0.0958 -0.7909 -0.1125
 1298ACTN    H613433   8.444   5.818   5.186 -0.1260 -0.0449 -1.1942
 1298ACTN    C313434   8.501   5.911   5.186  0.4352 -0.3784 -0.1201
 1298ACTN    H413435   8.590   5.899   5.247  1.3530  1.8336 -0.9550
 1298ACTN    H513436   8.529   5.945   5.087  0.6558 -0.2774 -0.0235
 1298ACTN    C213437   8.412   6.018   5.234 -0.3911 -1.0855 -0.6369
 1298ACTN    O113438   8.461   6.124   5.270 -0.0813  0.8525  0.0758
 1298ACTN    C113439   8.271   5.985   5.258  0.2606 -0.5951  0.3013
 1298ACTN    H113440   8.240   6.017   5.358 -0.7380  0.0915 -0.2134
 1298ACTN    H213441   8.247   5.880   5.244  0.1846 -0.5328 -0.0562
 1298ACTN    H313442   8.198   6.035   5.193  0.5007 -1.4978 -0.6713
 1299ACTN    H613443   8.612   8.411   4.090 -0.0139  1.6131 -1.3465
 1299ACTN    C313444   8.718   8.385   4.093 -0.5566 -0.6192 -0.3559
 1299ACTN    H413445   8.732   8.327   4.002 -3.8000 -2.5766  0.2957
 1299ACTN    H513446   8.769   8.481   4.084 -1.6558 -0.1466 -1.7255
 1299ACTN    C213447   8.739   8.311   4.213 -0.3690  0.0277 -0.3593
 1299ACTN    O113448   8.704   8.354   4.326  0.1277 -0.2520  0.2720
 1299ACTN    C113449   8.800   8.171   4.202  0.5798  0.9202  0.6037
 1299ACTN    H113450   8.906   8.177   4.226  0.1964  0.2664  2.5527
 1299ACTN    H213451   8.783   8.131   4.102  1.7827  1.4583  0.1817
 1299ACTN    H313452   8.765   8.092   4.269  0.4894 -0.9064 -1.5174
 1300ACTN    H613453   1.064   6.846   7.382  1.1366 -0.1650 -0.9671
 1300ACTN    C313454   1.049   6.842   7.274 -0.1496  0.0830 -0.7963
 1300ACTN    H413455   1.093   6.928   7.224  0.3767  0.2477 -0.0599
 1300ACTN    H513456   1.101   6.754   7.237  1.8808 -0.0145  2.1650
 1300ACTN    C213457   0.900   6.838   7.240  0.7442 -0.0742 -0.2346
 1300ACTN    O113458   0.816   6.871   7.321  0.4604  0.4982  0.0764
 1300ACTN    C113459   0.859   6.817   7.099  0.6967 -0.0166  0.5179
 1300ACTN    H113460   0.821   6.909   7.055  0.0284 -0.7176 -0.3840
 1300ACTN    H213461   0.786   6.736   7.103  0.4541  0.2703  2.1695
 1300ACTN    H313462   0.952   6.784   7.051  0.5289  0.2360  0.0210
 1301ACTN    H613463   6.848   4.018   6.712  2.0358 -0.5528 -1.0978
 1301ACTN    C313464   6.903   3.950   6.777  0.1505 -0.0845  1.0448
 1301ACTN    H413465   6.996   3.990   6.817  0.5769 -0.4896  0.4708
 1301ACTN    H513466   6.839   3.934   6.864  0.8611 -2.9695  1.0634
 1301ACTN    C213467   6.935   3.815   6.706 -0.1517  0.2170  0.3501
 1301ACTN    O113468   6.876   3.789   6.606  0.0202  0.0864 -0.0547
 1301ACTN    C113469   7.010   3.712   6.793  0.6401 -0.3345  0.2221
 1301ACTN    H113470   7.018   3.736   6.899  2.3406 -0.9113  0.2362
 1301ACTN    H213471   7.107   3.713   6.742  1.7840  3.3795  2.2566
 1301ACTN    H313472   6.964   3.614   6.781 -0.0342  0.2213 -1.9933
 1302ACTN    H613473   2.810   8.568   3.834  1.2556 -1.3233 -0.2054
 1302ACTN    C313474   2.782   8.494   3.759  0.2433 -0.6418 -0.5076
 1302ACTN    H413475   2.864   8.424   3.752 -0.7563 -2.1406  1.9864
 1302ACTN    H513476   2.693   8.443   3.797 -0.3464  0.8305  0.1293
 1302ACTN    C213477   2.753   8.553   3.627  0.4553  0.0582 -0.7266
 1302ACTN    O113478   2.728   8.470   3.541 -0.1587  0.1301 -0.0323
 1302ACTN    C113479   2.774   8.696   3.596 -0.3991  0.1502  0.9179
 1302ACTN    H113480   2.868   8.740   3.629  0.1782  0.6770 -1.3900
 1302ACTN    H213481   2.700   8.756   3.648  1.1698  0.0605  3.3612
 1302ACTN    H313482   2.758   8.713   3.490  1.6471 -3.3078 -0.0169
 1303ACTN    H613483   2.114   2.595   5.308  1.0860 -1.3831  0.9693
 1303ACTN    C313484   2.045   2.536   5.369 -1.2967  0.2405 -0.1018
 1303ACTN    H413485   2.089   2.440   5.394  1.8028  1.6157 -0.1176
 1303ACTN    H513486   1.959   2.515   5.305 -1.9689  1.1600  0.4781
 1303ACTN    C213487   1.997   2.624   5.479  0.3052  0.0247  0.1496
 1303ACTN    O113488   1.879   2.659   5.475  0.1910 -0.0410  0.4429
 1303ACTN    C113489   2.091   2.684   5.574 -0.7200 -0.1609  0.2237
 1303ACTN    H113490   2.048   2.694   5.674  0.5708  0.6298  0.7224
 1303ACTN    H213491   2.120   2.786   5.548 -0.6287  0.2629  1.8714
 1303ACTN    H313492   2.175   2.614   5.574 -1.2601 -0.8029  0.0208
 1304ACTN    H613493   6.106   0.718   5.680  1.1467 -0.0660 -0.7367
 1304ACTN    C313494   6.082   0.653   5.764  0.0318  0.2266 -0.8164
 1304ACTN    H413495   6.162   0.636   5.837 -2.3458  3.7325  2.8030
 1304ACTN    H513496   6.066   0.555   5.721 -0.6098  0.7457 -1.7587
 1304ACTN    C213497   5.952   0.698   5.830 -0.9271 -0.1900 -0.6607
 1304ACTN    O113498   5.856   0.628   5.814  0.5857 -0.2965  0.3983
 1304ACTN    C113499   5.958   0.820   5.917  0.5039  0.0755  0.1787
 1304ACTN    H113500   5.993   0.795   6.017  0.1046 -0.5515  0.1615
 1304ACTN    H213501   5.854   0.851   5.922  0.7321  0.4871  2.7071
 1304ACTN    H313502   6.013   0.905   5.877  1.5843 -0.1480  1.1686
 1305ACTN    H613503   0.166   0.650   4.879  1.1981 -0.3955  0.6002
 1305ACTN    C313504   0.119   0.553   4.898 -0.1805  0.2316  0.4277
 1305ACTN    H413505   0.043   0.559   4.975 -1.2893 -0.7197 -0.5659
 1305ACTN    H513506   0.069   0.506   4.813  1.5408 -0.2719 -0.3178
 1305ACTN    C213507   0.224   0.469   4.957  0.8334 -0.3410  0.4771
 1305ACTN    O113508   0.320   0.441   4.890  0.4791  0.2405 -0.2558
 1305ACTN    C113509   0.231   0.439   5.106 -0.7805 -0.3808  0.1361
 1305ACTN    H113510   0.140   0.402   5.153 -2.2859  0.5765 -1.9386
 1305ACTN    H213511   0.267   0.519   5.171 -1.5115  0.0318  0.0395
 1305ACTN    H313512   0.310   0.363   5.110  0.4500  0.9202  1.2118
 1306ACTN    H613513   5.835   6.477   8.886  0.1856 -1.4613  0.1697
 1306ACTN    C313514   5.925   6.535   8.867 -0.3675 -0.7124 -0.2037
 1306ACTN    H413515   5.932   6.625   8.929 -0.7080  1.8551 -3.7077
 1306ACTN    H513516   6.006   6.465   8.886 -0.7347 -1.4044 -1.1524
 1306ACTN    C213517   5.918   6.580   8.727 -0.2420 -0.8183  0.2914
 1306ACTN    O113518   5.964   6.500   8.649 -0.2053  0.1101  0.1113
 1306ACTN    C113519   5.845   6.704   8.689 -0.1759 -0.6262 -0.0037
 1306ACTN    H113520   5.828   6.749   8.787 -1.4939  2.8020 -1.7572
 1306ACTN    H213521   5.746   6.688   8.646 -1.2093  0.4729  1.8951
 1306ACTN    H313522   5.898   6.758   8.611 -3.2710 -0.6543 -2.2272
 1307ACTN    H613523   5.664   1.369   7.026  1.6482  0.1147 -1.1903
 1307ACTN    C313524   5.688   1.453   7.092 -0.3740  0.0900 -0.3982
 1307ACTN    H413525   5.748   1.421   7.177  0.7976  0.7326 -0.9819
 1307ACTN    H513526   5.750   1.521   7.035  0.5731  1.0274  1.7160
 1307ACTN    C213527   5.566   1.527   7.124 -0.0625  0.2057 -0.4382
 1307ACTN    O113528   5.575   1.645   7.143 -0.1409  0.4714  0.0120
 1307ACTN    C113529   5.429   1.465   7.105 -0.7225  0.9393 -0.0980
 1307ACTN    H113530   5.394   1.502   7.009 -3.1039 -3.8871 -1.2351
 1307ACTN    H213531   5.366   1.493   7.190  1.5624  0.1241  1.9224
 1307ACTN    H313532   5.448   1.358   7.093  1.4194  1.4742 -1.7907
 1308ACTN    H613533   0.918   3.454   7.890  3.2298  0.3622 -0.3102
 1308ACTN    C313534   0.940   3.363   7.945 -0.3042 -0.2810  0.1563
 1308ACTN    H413535   1.014   3.377   8.024  0.7573 -1.6096 -0.5766
 1308ACTN    H513536   0.849   3.338   7.999 -1.1026  0.5237 -0.8043
 1308ACTN    C213537   0.989   3.254   7.858 -0.7836 -0.1823 -0.1443
 1308ACTN    O113538   0.916   3.178   7.796  1.2513  0.0586  0.1519
 1308ACTN    C113539   1.138   3.250   7.849  0.6329  0.7188  0.6115
 1308ACTN    H113540   1.177   3.183   7.773 -0.1985  0.0338  0.7727
 1308ACTN    H213541   1.187   3.226   7.944 -0.0666  2.7097  1.5099
 1308ACTN    H313542   1.176   3.345   7.812  0.7469 -0.0527 -1.2985
 1309ACTN    H613543   8.051   0.235   4.091 -0.3343 -0.0147 -1.1137
 1309ACTN    C313544   8.066   0.129   4.074 -0.3002 -0.1891 -0.0379
 1309ACTN    H413545   8.160   0.101   4.121  0.9051 -1.2790 -2.9548
 1309ACTN    H513546   7.986   0.073   4.124  0.8726  0.0425  2.1631
 1309ACTN    C213547   8.063   0.092   3.928  0.2457 -0.1943 -0.0766
 1309ACTN    O113548   8.049  -0.026   3.891  0.4162 -0.1684  0.2068
 1309ACTN    C113549   8.095   0.195   3.822  0.0483  0.2466 -0.2297
 1309ACTN    H113550   8.090   0.154   3.721  0.2449  0.7704 -0.4530
 1309ACTN    H213551   8.185   0.248   3.852  0.1162 -1.0198  1.8969
 1309ACTN    H313552   8.019   0.274   3.820  0.4234  0.6226  0.2198
 1310ACTN    H613553   1.577   0.277   6.540  2.8353 -1.3820  0.2892
 1310ACTN    C313554   1.538   0.188   6.492 -0.3697  0.1783 -0.1473
 1310ACTN    H413555   1.550   0.209   6.386 -1.4909 -3.4324 -1.0808
 1310ACTN    H513556   1.609   0.106   6.507  2.2416  2.4070  0.0537
 1310ACTN    C213557   1.404   0.150   6.542 -0.1399 -0.2333 -0.2343
 1310ACTN    O113558   1.335   0.053   6.501 -0.2141 -0.3504  0.1689
 1310ACTN    C113559   1.371   0.217   6.671  0.5481  0.0347  0.0222
 1310ACTN    H113560   1.464   0.228   6.727  0.6131  0.9730 -0.2554
 1310ACTN    H213561   1.297   0.163   6.729 -0.1574 -1.8292 -2.5714
 1310ACTN    H313562   1.333   0.319   6.658 -1.6153 -0.8109 -0.4031
 1311ACTN    H613563   5.736   2.711   5.649 -0.4590 -0.0228  0.3890
 1311ACTN    C313564   5.798   2.792   5.687 -0.2481 -0.1733  0.3704
 1311ACTN    H413565   5.734   2.860   5.742  0.2310  2.5583 -2.3037
 1311ACTN    H513566   5.874   2.750   5.752 -1.4896 -3.5516 -0.2339
 1311ACTN    C213567   5.863   2.877   5.583 -0.2389  0.0231  0.7691
 1311ACTN    O113568   5.980   2.905   5.587 -0.3042  0.5366 -0.1101
 1311ACTN    C113569   5.779   2.930   5.467  0.5106  0.0324  0.4568
 1311ACTN    H113570   5.805   2.886   5.371  0.5648  0.8069  0.1184
 1311ACTN    H213571   5.768   3.038   5.465 -0.1112 -0.0365 -0.0158
 1311ACTN    H313572   5.674   2.904   5.484  0.3533  1.6900  2.2252
 1312ACTN    H613573   6.341   4.301   3.003  0.5144  0.4776  2.4741
 1312ACTN    C313574   6.420   4.227   2.985 -0.5451 -0.0166 -0.4981
 1312ACTN    H413575   6.375   4.133   2.954 -1.4577 -0.4794  2.0260
 1312ACTN    H513576   6.484   4.269   2.908 -0.7809 -1.6905 -1.6284
 1312ACTN    C213577   6.500   4.202   3.113  0.3424 -0.6514  0.0051
 1312ACTN    O113578   6.587   4.125   3.124  0.1190  1.3126 -0.6736
 1312ACTN    C113579   6.466   4.287   3.234 -0.3517 -0.7734 -0.2847
 1312ACTN    H113580   6.532   4.263   3.317  1.4355  1.1013 -1.1272
 1312ACTN    H213581   6.359   4.281   3.254 -0.9539  0.9690 -2.6511
 1312ACTN    H313582   6.484   4.390   3.202 -0.8160 -1.4455 -2.8439
 1313ACTN    H613583   8.265   3.185   8.095 -1.3013  2.5966  0.2669
 1313ACTN    C313584   8.176   3.136   8.055  0.2663 -0.3726  0.3593
 1313ACTN    H413585   8.172   3.037   8.103  1.8200  0.2742  1.9052
 1313ACTN    H513586   8.091   3.192   8.092 -0.1759 -1.3308  0.8331
 1313ACTN    C213587   8.186   3.144   7.911 -0.1507 -0.2921  0.6706
 1313ACTN    O113588   8.122   3.075   7.827  0.0051  0.2694  0.1690
 1313ACTN    C113589   8.295   3.226   7.852 -0.1592 -0.7247 -0.2657
 1313ACTN    H113590   8.247   3.310   7.802  0.6482  0.9554  1.7108
 1313ACTN    H213591   8.356   3.161   7.789 -2.6054 -1.5656 -1.7949
 1313ACTN    H313592   8.363   3.272   7.925 -1.7662  0.8901  0.2507
 1314ACTN    H613593   1.034   2.971   2.978  1.0172  0.7130  2.3071
 1314ACTN    C313594   0.950   2.916   3.021  0.3619  0.4016  0.6690
 1314ACTN    H413595   0.983   2.820   3.063  0.4697 -0.5004 -1.4314
 1314ACTN    H513596   0.904   2.967   3.106  0.1200 -0.0615  0.8176
 1314ACTN    C213597   0.856   2.881   2.907  0.5790  0.1888 -0.6025
 1314ACTN    O113598   0.881   2.790   2.830 -0.2325 -0.2877 -0.0784
 1314ACTN    C113599   0.736   2.968   2.880  0.4429 -0.6597  0.1453
 1314ACTN    H113600   0.679   2.924   2.798  0.5966  1.5501 -1.1921
 1314ACTN    H213601   0.771   3.070   2.859  0.7104 -0.3040  2.1850
 1314ACTN    H313602   0.665   2.973   2.962 -0.5512  0.4835 -0.7699
 1315ACTN    H613603   1.450   5.879   4.748 -1.1736 -1.2376 -0.1765
 1315ACTN    C313604   1.404   5.961   4.693  0.2241 -0.5904 -0.3849
 1315ACTN    H413605   1.313   5.983   4.748  0.1312 -2.0355  0.0503
 1315ACTN    H513606   1.470   6.048   4.689  1.2113 -1.3880 -1.8302
 1315ACTN    C213607   1.366   5.922   4.552  0.0978 -0.2180 -0.0952
 1315ACTN    O113608   1.269   5.973   4.501 -0.7631 -0.0413 -0.7384
 1315ACTN    C113609   1.470   5.861   4.468 -0.1569 -0.5988 -0.6172
 1315ACTN    H113610   1.421   5.810   4.385  0.1294 -1.1433 -0.4544
 1315ACTN    H213611   1.531   5.795   4.530  2.3542 -0.5495 -2.9461
 1315ACTN    H313612   1.544   5.929   4.426  1.0574 -0.2369  1.9802
 1316ACTN    H613613   1.536   1.268   3.223 -1.6181 -1.6789 -2.5155
 1316ACTN    C313614   1.585   1.323   3.143  0.2993 -0.2223 -0.4087
 1316ACTN    H413615   1.546   1.276   3.052  2.8684 -1.1325 -1.1002
 1316ACTN    H513616   1.555   1.427   3.153 -0.8478 -0.5575 -0.3260
 1316ACTN    C213617   1.730   1.308   3.165  0.1411 -1.0640  0.0619
 1316ACTN    O113618   1.796   1.211   3.121  0.3374 -0.0007 -0.2442
 1316ACTN    C113619   1.794   1.402   3.258 -0.5793  0.1529  0.2580
 1316ACTN    H113620   1.741   1.412   3.353  1.2328 -0.5394  1.3717
 1316ACTN    H213621   1.800   1.503   3.216  2.7777 -0.1551 -0.1321
 1316ACTN    H313622   1.896   1.378   3.287 -0.9523  0.2952  1.7211
 1317ACTN    H613623   6.060   2.950   6.039  1.9211 -1.3212  0.3140
 1317ACTN    C313624   6.037   2.944   6.145 -0.0158 -0.0292 -0.0039
 1317ACTN    H413625   6.001   2.843   6.165  0.6033 -0.5246 -1.3620
 1317ACTN    H513626   6.126   2.942   6.208  1.0096 -1.3905 -1.4927
 1317ACTN    C213627   5.930   3.039   6.178 -0.2149 -1.0072  0.0031
 1317ACTN    O113628   5.884   3.110   6.087 -0.3371 -0.1694  0.3428
 1317ACTN    C113629   5.882   3.060   6.310 -0.0365 -0.5629  0.1623
 1317ACTN    H113630   5.773   3.064   6.311 -0.0306 -0.5380  0.7302
 1317ACTN    H213631   5.921   3.149   6.359 -3.2172  1.3866 -0.7094
 1317ACTN    H313632   5.905   2.972   6.371 -1.3514 -0.7831  0.3591
 1318ACTN    H613633   5.105   7.442   3.036  1.8481  0.0935 -0.9159
 1318ACTN    C313634   5.085   7.385   2.945  0.0355 -0.2885 -0.2945
 1318ACTN    H413635   5.176   7.326   2.935  0.0325 -0.7578  2.0554
 1318ACTN    H513636   4.998   7.322   2.963  1.2244 -0.9083  3.8442
 1318ACTN    C213637   5.045   7.479   2.834 -0.0354  0.2789 -0.2526
 1318ACTN    O113638   4.997   7.585   2.865  0.3403 -0.3768 -0.0631
 1318ACTN    C113639   5.085   7.442   2.694  0.3174  0.3376  0.7003
 1318ACTN    H113640   5.045   7.344   2.666 -0.2971 -0.0426  2.8717
 1318ACTN    H213641   5.192   7.433   2.676  0.0345  2.0777 -2.2193
 1318ACTN    H313642   5.055   7.513   2.617 -2.7549 -0.8414  0.7176
 1319ACTN    H613643   6.615   7.922   6.156 -0.8552 -1.0179 -0.8066
 1319ACTN    C313644   6.570   7.874   6.243  0.2214  0.0464  0.3624
 1319ACTN    H413645   6.630   7.784   6.260 -0.4554 -0.9500 -2.3442
 1319ACTN    H513646   6.565   7.948   6.323 -0.8822 -0.6890  0.9968
 1319ACTN    C213647   6.432   7.825   6.214  0.1228 -0.1456 -0.3997
 1319ACTN    O113648   6.385   7.853   6.103  0.6017 -0.8289  0.3560
 1319ACTN    C113649   6.362   7.720   6.302 -0.2039 -0.7351  0.4451
 1319ACTN    H113650   6.269   7.754   6.347  1.2330  0.1247  2.8682
 1319ACTN    H213651   6.425   7.688   6.385  1.4355 -1.4070 -1.0334
 1319ACTN    H313652   6.342   7.635   6.236  0.6018 -0.9560  0.4788
 1320ACTN    H613653   8.062   6.420   3.712  0.3161  1.5451  0.2547
 1320ACTN    C313654   8.055   6.441   3.605  0.2382 -0.2055 -0.1065
 1320ACTN    H413655   7.949   6.456   3.584  0.0556 -2.8094 -1.1411
 1320ACTN    H513656   8.120   6.526   3.582  0.1822  0.1510  1.0459
 1320ACTN    C213657   8.097   6.324   3.525 -0.0007 -0.3080  0.0584
 1320ACTN    O113658   8.054   6.336   3.412 -0.6754  0.5165 -0.2528
 1320ACTN    C113659   8.185   6.214   3.570 -0.6863 -0.4214  1.0059
 1320ACTN    H113660   8.271   6.212   3.502 -1.5271 -0.3155 -0.0595
 1320ACTN    H213661   8.146   6.112   3.566 -2.1332  0.2066 -1.5525
 1320ACTN    H313662   8.219   6.232   3.672  0.5418 -1.2683  0.7598
 1321ACTN    H613663   0.893   0.949   7.555  0.8405 -0.1349 -0.7078
 1321ACTN    C313664   0.850   0.882   7.480 -0.1707  0.1274 -0.3677
 1321ACTN    H413665   0.868   0.776   7.499  0.6280  0.1998 -0.6779
 1321ACTN    H513666   0.742   0.892   7.492 -0.3789 -1.4747 -0.7705
 1321ACTN    C213667   0.892   0.932   7.346  0.5969  0.0492 -0.0420
 1321ACTN    O113668   0.849   1.041   7.306  0.1056  0.5120  0.3704
 1321ACTN    C113669   0.963   0.836   7.255  0.7594  0.0108 -0.3167
 1321ACTN    H113670   0.998   0.887   7.165 -1.9581 -1.1791 -2.1337
 1321ACTN    H213671   0.893   0.757   7.227 -0.6526  0.6454  1.2631
 1321ACTN    H313672   1.045   0.786   7.305 -0.1595 -0.4384  0.7810
 1322ACTN    H613673   6.495   4.847   3.157 -0.7517 -1.0863 -1.5946
 1322ACTN    C313674   6.458   4.798   3.246  0.1524  0.1545 -0.5080
 1322ACTN    H413675   6.370   4.740   3.216  0.2025  1.5310 -3.4864
 1322ACTN    H513676   6.531   4.727   3.285  0.4731  1.9541  2.2864
 1322ACTN    C213677   6.439   4.875   3.378  0.2366 -0.4025 -0.6408
 1322ACTN    O113678   6.376   4.834   3.474  0.5657  0.1202  0.1248
 1322ACTN    C113679   6.478   5.022   3.379 -0.0792  0.5756  0.1622
 1322ACTN    H113680   6.466   5.068   3.281 -0.0799  0.5069  0.1300
 1322ACTN    H213681   6.580   5.039   3.413  0.2788  1.1858 -1.1779
 1322ACTN    H313682   6.412   5.078   3.445 -0.1104  0.4186  0.2649
 1323ACTN    H613683   6.845   6.786   3.726  3.8911  1.3434 -0.6878
 1323ACTN    C313684   6.829   6.762   3.621  0.9897  0.4956 -0.1216
 1323ACTN    H413685   6.773   6.669   3.617  0.9586  0.4508  1.2360
 1323ACTN    H513686   6.779   6.846   3.572  0.0231  1.1871  2.0354
 1323ACTN    C213687   6.960   6.743   3.552  0.1477  0.0729 -0.3868
 1323ACTN    O113688   6.976   6.795   3.439  1.1102  0.0661 -0.3544
 1323ACTN    C113689   7.054   6.648   3.610 -0.0804  0.0214  0.0708
 1323ACTN    H113690   7.125   6.686   3.683 -0.3136  0.6225 -0.0156
 1323ACTN    H213691   7.119   6.596   3.540 -1.3192 -1.3974 -0.0601
 1323ACTN    H313692   6.992   6.577   3.666 -0.0496  1.9791  2.6889
 1324ACTN    H613693   5.555   1.944   8.652  0.2253  0.9884 -0.2093
 1324ACTN    C313694   5.558   1.839   8.623 -0.1921  0.9624 -0.1565
 1324ACTN    H413695   5.541   1.789   8.718 -0.4443 -3.2001 -2.2652
 1324ACTN    H513696   5.659   1.815   8.589 -0.7771 -1.0192 -0.5237
 1324ACTN    C213697   5.448   1.812   8.526  0.4047  0.3769  0.1750
 1324ACTN    O113698   5.339   1.869   8.533  0.1384  0.5982 -0.9052
 1324ACTN    C113699   5.478   1.728   8.402 -0.1360  0.0426 -0.1789
 1324ACTN    H113700   5.578   1.744   8.363  0.3020 -1.3701  0.3402
 1324ACTN    H213701   5.406   1.743   8.322  0.5051  1.1102 -0.5569
 1324ACTN    H313702   5.475   1.625   8.438 -0.2706  0.6332  1.5372
 1325ACTN    H613703   0.040   3.826   2.367  0.2207  2.4273 -2.2102
 1325ACTN    C313704  -0.035   3.763   2.318  0.4303 -0.2240  0.7232
 1325ACTN    H413705   0.011   3.679   2.266 -0.6644 -1.0045  0.9934
 1325ACTN    H513706  -0.105   3.729   2.394 -0.4516  1.9780  0.9429
 1325ACTN    C213707  -0.109   3.847   2.222 -0.2626  0.9725 -0.0156
 1325ACTN    O113708  -0.071   3.952   2.181 -0.1744 -0.7963  0.4457
 1325ACTN    C113709  -0.229   3.791   2.167 -0.4898 -0.4850  0.5207
 1325ACTN    H113710  -0.311   3.856   2.196  1.2577  1.6583  0.8052
 1325ACTN    H213711  -0.228   3.687   2.201  0.6816 -0.1458  1.5836
 1325ACTN    H313712  -0.220   3.808   2.060 -0.4962 -0.3425  0.5433
 1326ACTN    H613713   8.974   0.138   3.416 -1.0664  1.0904 -0.5488
 1326ACTN    C313714   8.942   0.160   3.518  0.0444  0.5611 -0.0805
 1326ACTN    H413715   8.845   0.112   3.528 -1.0804  3.0984  1.6084
 1326ACTN    H513716   9.022   0.122   3.581  0.0529 -1.1317 -1.0763
 1326ACTN    C213717   8.949   0.303   3.547 -0.4291 -0.3489  0.6924
 1326ACTN    O113718   9.000   0.348   3.645  0.2048 -0.2025 -0.1599
 1326ACTN    C113719   8.882   0.393   3.444  0.1063  1.4912 -0.8108
 1326ACTN    H113720   8.881   0.496   3.479  2.4734  2.0331 -2.2109
 1326ACTN    H213721   8.779   0.360   3.433 -0.1332  1.5389  1.1214
 1326ACTN    H313722   8.934   0.390   3.348  0.3362  0.6738 -0.6612
 1327ACTN    H613723   5.430   0.755   3.406  0.9331  0.9367 -0.7101
 1327ACTN    C313724   5.444   0.649   3.384  0.3755  0.7572 -0.2271
 1327ACTN    H413725   5.543   0.643   3.339  0.3209 -0.0419 -0.2341
 1327ACTN    H513726   5.441   0.595   3.478 -1.5562  2.6792  0.8734
 1327ACTN    C213727   5.335   0.610   3.288 -0.1169  0.7027  0.4622
 1327ACTN    O113728   5.253   0.525   3.325 -0.1414  0.5044 -0.3202
 1327ACTN    C113729   5.327   0.678   3.155 -0.9303  1.0506 -0.6679
 1327ACTN    H113730   5.228   0.720   3.135 -2.0932 -1.1037  0.4662
 1327ACTN    H213731   5.351   0.613   3.071 -1.7803 -1.1300  0.7492
 1327ACTN    H313732   5.402   0.758   3.153  0.0452  0.1837  0.2094
 1328ACTN    H613733   6.801   2.136   6.762  0.4618 -0.0696  0.2533
 1328ACTN    C313734   6.746   2.068   6.826 -0.6201  0.4178 -0.1359
 1328ACTN    H413735   6.711   1.984   6.766  0.7923  0.4786 -1.0697
 1328ACTN    H513736   6.825   2.020   6.884  0.7726 -0.5706 -2.7677
 1328ACTN    C213737   6.642   2.137   6.912 -0.6499  0.0691  0.4913
 1328ACTN    O113738   6.545   2.067   6.943  0.4635 -0.5674 -0.2726
 1328ACTN    C113739   6.657   2.284   6.947 -0.4502  0.1243  0.4166
 1328ACTN    H113740   6.593   2.345   6.883 -0.6136 -0.4411  0.0297
 1328ACTN    H213741   6.760   2.319   6.936 -0.1187 -1.5466 -2.2879
 1328ACTN    H313742   6.623   2.297   7.049 -1.0807 -1.4488  0.4215
 1329ACTN    H613743   6.472   0.298   6.284  1.0332  0.4203  0.5467
 1329ACTN    C313744   6.460   0.323   6.178  0.3102 -0.5315  0.3982
 1329ACTN    H413745   6.486   0.235   6.119 -0.0844  0.6568 -1.5548
 1329ACTN    H513746   6.533   0.396   6.143  0.7196 -0.3785  1.5422
 1329ACTN    C213747   6.332   0.381   6.131 -0.7229  0.2170 -0.3035
 1329ACTN    O113748   6.267   0.452   6.204  0.2811  0.2706  0.5594
 1329ACTN    C113749   6.279   0.375   5.991  0.0147 -0.2352 -0.1229
 1329ACTN    H113750   6.184   0.321   5.990 -0.5308  0.6483  1.3485
 1329ACTN    H213751   6.350   0.315   5.934 -2.5242 -2.7541 -0.7392
 1329ACTN    H313752   6.264   0.476   5.952 -1.1745  0.0755  1.0700
 1330ACTN    H613753   1.810   7.289   5.731  1.9855  0.7036  2.1543
 1330ACTN    C313754   1.737   7.366   5.754  0.3152 -0.2638  0.2806
 1330ACTN    H413755   1.642   7.318   5.777 -1.5083  2.7718 -0.6436
 1330ACTN    H513756   1.778   7.412   5.844  0.0018 -0.4624  0.5270
 1330ACTN    C213757   1.715   7.454   5.642  0.3680  0.4919 -0.3588
 1330ACTN    O113758   1.609   7.446   5.579 -0.2441 -0.7225  0.2000
 1330ACTN    C113759   1.813   7.556   5.591 -0.2968  1.0211 -0.3041
 1330ACTN    H113760   1.905   7.511   5.554 -2.9037 -1.4466 -4.2020
 1330ACTN    H213761   1.838   7.627   5.669 -0.8040  2.2120 -1.2105
 1330ACTN    H313762   1.771   7.604   5.503  0.0449  0.8083 -0.5865
 1331ACTN    H613763   0.581   4.928   8.569 -3.4171 -0.5966  1.2463
 1331ACTN    C313764   0.540   4.955   8.472 -0.1552 -0.5721 -0.1759
 1331ACTN    H413765   0.449   5.011   8.493 -0.6777 -0.8041 -1.7686
 1331ACTN    H513766   0.610   5.018   8.417  1.0634 -1.4393  0.3622
 1331ACTN    C213767   0.514   4.842   8.380 -0.3193  0.7206  0.5856
 1331ACTN    O113768   0.608   4.790   8.327  0.4740  0.5681  0.0585
 1331ACTN    C113769   0.366   4.820   8.352  0.7034  0.1576  0.2799
 1331ACTN    H113770   0.354   4.714   8.373  0.6549  0.1561  0.2446
 1331ACTN    H213771   0.345   4.841   8.247 -2.5216 -0.6601  0.7188
 1331ACTN    H313772   0.290   4.876   8.406 -0.9393 -2.2260  0.5044
 1332ACTN    H613773   5.272   0.336   4.193  0.8184 -0.6258  1.0507
 1332ACTN    C313774   5.373   0.350   4.231  0.6938  0.7434  0.9228
 1332ACTN    H413775   5.417   0.448   4.213  1.1518  0.2986 -0.4408
 1332ACTN    H513776   5.369   0.332   4.339  2.2639 -0.5812  0.7863
 1332ACTN    C213777   5.456   0.250   4.164 -0.0603 -0.3044  0.6222
 1332ACTN    O113778   5.416   0.208   4.056 -0.4439 -0.2107  0.1580
 1332ACTN    C113779   5.599   0.246   4.212 -0.0434  0.7640 -1.0864
 1332ACTN    H113780   5.646   0.342   4.192 -0.1669  0.8856 -0.7952
 1332ACTN    H213781   5.660   0.164   4.175  0.8707  0.0920  1.7496
 1332ACTN    H313782   5.591   0.235   4.320  0.6147  1.0135 -1.0089
 1333ACTN    H613783   0.668   8.948   7.673  0.4606  0.1074 -0.0293
 1333ACTN    C313784   0.625   8.853   7.640  0.2400  0.2188 -0.0601
 1333ACTN    H413785   0.558   8.821   7.719 -2.1285  3.3245 -0.7099
 1333ACTN    H513786   0.558   8.879   7.557 -1.5892  0.1896  1.3825
 1333ACTN    C213787   0.725   8.751   7.603  0.2912  0.0357 -0.1090
 1333ACTN    O113788   0.825   8.728   7.669 -0.1013  0.5754 -0.3301
 1333ACTN    C113789   0.722   8.690   7.465  0.0335  0.3225 -0.5427
 1333ACTN    H113790   0.812   8.637   7.435  0.2043  0.6914 -0.6870
 1333ACTN    H213791   0.700   8.757   7.382  1.3134  1.6922  0.2102
 1333ACTN    H313792   0.633   8.627   7.464  0.4206 -0.2321 -0.3797
 1334ACTN    H613793   0.029   6.760   7.720 -0.1948  1.8107 -0.5235
 1334ACTN    C313794   0.138   6.760   7.720 -0.1700 -0.3838 -0.7010
 1334ACTN    H413795   0.169   6.730   7.820 -1.3559  1.9142  0.4032
 1334ACTN    H513796   0.177   6.692   7.644 -2.0217 -1.7392 -0.4724
 1334ACTN    C213797   0.181   6.899   7.680  1.1234  0.4861 -0.5628
 1334ACTN    O113798   0.097   6.974   7.633 -0.2339  0.3050 -0.1664
 1334ACTN    C113799   0.313   6.942   7.713 -0.1961 -0.4340  0.6400
 1334ACTN    H113800   0.375   6.877   7.651 -0.5945 -1.2388  1.0942
 1334ACTN    H213801   0.338   6.921   7.816  1.0686 -2.5974 -0.0872
 1334ACTN    H313802   0.341   7.044   7.683 -2.5005 -0.1471 -0.6623
 1335ACTN    H613803   0.369   7.299   2.646  2.0654  2.0607  0.0131
 1335ACTN    C313804   0.338   7.293   2.750  0.3680  0.9086 -0.5464
 1335ACTN    H413805   0.320   7.393   2.789 -0.7902  0.6862 -0.4785
 1335ACTN    H513806   0.242   7.241   2.754  0.8801 -0.1302 -1.3289
 1335ACTN    C213807   0.437   7.228   2.843  0.7444 -0.3987 -0.5524
 1335ACTN    O113808   0.395   7.146   2.927  0.3862  0.8041  0.1538
 1335ACTN    C113809   0.584   7.263   2.836  0.5125  0.1961 -0.0941
 1335ACTN    H113810   0.623   7.295   2.933  1.6069 -4.1986  1.0362
 1335ACTN    H213811   0.596   7.341   2.761  0.8241 -2.2839 -2.6766
 1335ACTN    H313812   0.648   7.182   2.802 -2.2168 -1.4343 -1.4880
 1336ACTN    H613813   6.032   8.484   6.032  0.8835  0.0974  0.4957
 1336ACTN    C313814   5.990   8.581   6.005  0.2387 -0.0983  0.8115
 1336ACTN    H413815   5.886   8.561   5.978 -0.3452  1.5358  1.7244
 1336ACTN    H513816   5.980   8.649   6.090 -0.3375  0.6683  0.1352
 1336ACTN    C213817   6.075   8.638   5.897  0.1922  0.5768 -0.1050
 1336ACTN    O113818   6.047   8.614   5.776  0.7050  0.0026  0.4800
 1336ACTN    C113819   6.214   8.663   5.924  0.2505 -0.4309 -0.7591
 1336ACTN    H113820   6.227   8.709   6.022  2.4693 -1.1899 -0.6570
 1336ACTN    H213821   6.273   8.722   5.854  0.6234 -1.1435 -1.0452
 1336ACTN    H313822   6.262   8.567   5.942  0.3656 -0.0572  1.0108
 1337ACTN    H613823   1.063   7.325   0.738  2.2844  2.0829 -2.0732
 1337ACTN    C313824   1.089   7.245   0.667 -0.0480 -0.1535 -0.5022
 1337ACTN    H413825   1.017   7.164   0.673 -0.4249  0.2046 -0.0640
 1337ACTN    H513826   1.070   7.291   0.570 -2.6057  3.2312  1.4616
 1337ACTN    C213827   1.236   7.205   0.684  0.2825 -0.3727  0.4819
 1337ACTN    O113828   1.268   7.094   0.661  0.1874 -0.6630  0.1838
 1337ACTN    C113829   1.328   7.317   0.727 -0.0230  0.7748  0.2569
 1337ACTN    H113830   1.403   7.277   0.796 -3.1535 -2.3464  2.0304
 1337ACTN    H213831   1.268   7.377   0.795  0.2991  0.9710  0.3676
 1337ACTN    H313832   1.364   7.379   0.645  1.9795 -1.9513 -1.0141
 1338ACTN    H613833   3.154   2.991   4.031 -2.8547 -0.7587  0.4858
 1338ACTN    C313834   3.194   2.931   4.112 -0.6388  0.3544  0.2680
 1338ACTN    H413835   3.195   2.827   4.080  0.2692  0.3977  0.1579
 1338ACTN    H513836   3.295   2.959   4.143 -0.9158  2.1001 -0.3453
 1338ACTN    C213837   3.109   2.949   4.235  0.1299 -0.4102  0.2283
 1338ACTN    O113838   3.110   3.056   4.298  0.6242 -0.8372  0.1034
 1338ACTN    C113839   3.056   2.833   4.313  0.0793  1.2876 -0.4876
 1338ACTN    H113840   3.062   2.737   4.262  0.0603  2.0348 -1.9392
 1338ACTN    H213841   2.950   2.845   4.335 -1.2227 -3.9183 -3.1508
 1338ACTN    H313842   3.106   2.821   4.408 -1.6768 -1.6880  0.1435
 1339ACTN    H613843   7.309   7.261   7.606  2.1900 -2.5489  0.5559
 1339ACTN    C313844   7.257   7.184   7.549  0.4915 -0.4854 -0.7477
 1339ACTN    H413845   7.314   7.091   7.557  1.2084  0.2030  2.6286
 1339ACTN    H513846   7.256   7.222   7.447 -0.2042  0.3090 -0.4540
 1339ACTN    C213847   7.114   7.174   7.592  0.4936 -0.4318 -0.1790
 1339ACTN    O113848   7.064   7.264   7.656  0.3542  0.8484  0.0625
 1339ACTN    C113849   7.054   7.040   7.588 -0.8923 -0.2521  0.2645
 1339ACTN    H113850   7.036   7.019   7.482  0.0093 -1.5073  0.3524
 1339ACTN    H213851   6.976   7.019   7.661  0.0084  0.4349  1.4353
 1339ACTN    H313852   7.131   6.966   7.613 -1.0042 -0.3631  0.2774
 1340ACTN    H613853   1.792   5.700   1.293 -2.0953 -0.8732 -0.4096
 1340ACTN    C313854   1.777   5.699   1.401  0.6323 -0.2611  0.0227
 1340ACTN    H413855   1.725   5.608   1.431  0.3516 -0.3588 -0.7331
 1340ACTN    H513856   1.876   5.696   1.445  0.9758 -0.2272 -0.7493
 1340ACTN    C213857   1.700   5.816   1.453  0.2663 -0.8771 -0.8057
 1340ACTN    O113858   1.708   5.848   1.567 -0.1936  0.2354 -0.5661
 1340ACTN    C113859   1.638   5.919   1.365 -0.2355 -0.4347  0.3227
 1340ACTN    H113860   1.712   5.936   1.286  0.6087  1.5172  1.5087
 1340ACTN    H213861   1.610   6.015   1.407 -2.9558 -1.5933  1.2209
 1340ACTN    H313862   1.558   5.868   1.312  0.5660 -0.3114 -1.0311
 1341ACTN    H613863   8.211   2.407   8.657  1.3209  0.8441 -2.4568
 1341ACTN    C313864   8.285   2.327   8.647  0.5831 -0.1200 -0.4983
 1341ACTN    H413865   8.382   2.371   8.671  1.1748 -1.5855 -0.1917
 1341ACTN    H513866   8.258   2.244   8.711 -1.1926 -2.0717 -3.6567
 1341ACTN    C213867   8.283   2.278   8.508  0.1457  0.8521  0.0755
 1341ACTN    O113868   8.174   2.252   8.455  0.4335 -0.2843 -0.4644
 1341ACTN    C113869   8.419   2.251   8.439  0.5378  0.0423 -0.3857
 1341ACTN    H113870   8.490   2.222   8.516 -0.5562  1.4660  1.1955
 1341ACTN    H213871   8.451   2.343   8.389 -2.1532 -0.3323 -2.9500
 1341ACTN    H313872   8.410   2.170   8.367 -1.1500  0.6262 -0.8583
 1342ACTN    H613873   5.155   7.894   4.575 -0.9507  1.3445  0.6086
 1342ACTN    C313874   5.158   7.818   4.654  0.6343  0.6477 -0.0983
 1342ACTN    H413875   5.211   7.862   4.738  2.5176 -0.0205 -0.8952
 1342ACTN    H513876   5.054   7.799   4.681  0.1089  2.4505 -0.7270
 1342ACTN    C213877   5.227   7.692   4.612  0.5549 -0.7901 -0.2856
 1342ACTN    O113878   5.345   7.669   4.646 -0.1428 -0.2417 -0.5450
 1342ACTN    C113879   5.148   7.600   4.536 -0.1080  0.5679  0.6004
 1342ACTN    H113880   5.041   7.614   4.547  0.1054  3.0472 -0.2450
 1342ACTN    H213881   5.171   7.494   4.545 -1.9699  0.0286 -0.5790
 1342ACTN    H313882   5.163   7.620   4.430 -0.8330 -1.1641  0.1485
 1343ACTN    H613883   1.343   8.113   1.069 -0.3604 -0.5560 -0.6604
 1343ACTN    C313884   1.310   8.086   1.169  0.2681 -0.2075 -0.3521
 1343ACTN    H413885   1.205   8.058   1.155 -0.2153  0.7922  1.1987
 1343ACTN    H513886   1.368   8.002   1.207  1.0961  0.6079  0.1829
 1343ACTN    C213887   1.325   8.208   1.261  0.4688  1.4600 -0.3368
 1343ACTN    O113888   1.301   8.192   1.382  0.1908  0.6368 -0.0665
 1343ACTN    C113889   1.395   8.333   1.210  0.6124 -0.3865  0.0533
 1343ACTN    H113890   1.314   8.388   1.163 -1.1854 -2.1308  0.9970
 1343ACTN    H213891   1.481   8.316   1.145  0.4342  3.2435 -1.2417
 1343ACTN    H313892   1.427   8.391   1.296 -1.3639  0.4679  0.2255
 1344ACTN    H613893   7.972   7.698   6.478  0.4332  0.8069  1.4780
 1344ACTN    C313894   7.884   7.747   6.435  0.4192 -0.2953  0.2181
 1344ACTN    H413895   7.802   7.678   6.413 -1.4955  2.0449 -0.1127
 1344ACTN    H513896   7.858   7.819   6.513 -0.0864 -1.5598  1.2439
 1344ACTN    C213897   7.917   7.813   6.306 -0.2042  0.2503 -0.0995
 1344ACTN    O113898   7.995   7.759   6.225  0.1550  0.2352 -0.0286
 1344ACTN    C113899   7.862   7.954   6.272 -0.5695 -0.1057 -0.2548
 1344ACTN    H113900   7.926   8.022   6.328 -0.6120  0.4411 -0.8649
 1344ACTN    H213901   7.762   7.977   6.309 -1.5749 -0.6216 -2.5852
 1344ACTN    H313902   7.867   7.986   6.168  3.0061  1.6427  0.3421
 1345ACTN    H613903   6.146   0.958   6.866 -0.7030 -0.8569 -1.1859
 1345ACTN    C313904   6.136   1.065   6.844  0.6321 -0.4900 -0.0725
 1345ACTN    H413905   6.070   1.111   6.918  1.1270 -1.1592  0.8034
 1345ACTN    H513906   6.093   1.071   6.745 -2.1917 -1.8139  1.0268
 1345ACTN    C213907   6.273   1.133   6.855 -0.1485  0.2576 -0.4651
 1345ACTN    O113908   6.356   1.083   6.933 -0.2085 -0.0578  0.5429
 1345ACTN    C113909   6.290   1.272   6.797 -0.3787 -0.0466 -0.2707
 1345ACTN    H113910   6.195   1.317   6.768 -0.0878 -0.3554 -1.7343
 1345ACTN    H213911   6.364   1.266   6.717 -1.4898 -0.9128 -1.2467
 1345ACTN    H313912   6.331   1.345   6.867 -1.0337 -0.9614  1.0950
 1346ACTN    H613913   3.340   2.718   1.983  0.8506 -2.2552  0.8530
 1346ACTN    C313914   3.260   2.699   2.054 -0.3318  0.2158  0.2585
 1346ACTN    H413915   3.249   2.789   2.115  0.1250 -0.2532  1.0446
 1346ACTN    H513916   3.170   2.695   1.993  0.7405  0.9985 -1.4136
 1346ACTN    C213917   3.286   2.572   2.137 -0.0422 -0.5800 -0.0990
 1346ACTN    O113918   3.383   2.578   2.211  0.8604 -0.1755  0.1750
 1346ACTN    C113919   3.172   2.486   2.173  0.6669 -0.1644  0.6211
 1346ACTN    H113920   3.144   2.489   2.278  0.2772 -3.1919  0.6575
 1346ACTN    H213921   3.199   2.381   2.158 -0.8649 -1.1604  4.1327
 1346ACTN    H313922   3.085   2.517   2.115  1.1253  1.1954  0.6599
 1347ACTN    H613923   4.656   5.134   7.506  1.1088  2.7216 -0.5892
 1347ACTN    C313924   4.707   5.126   7.601 -0.0760  0.4618 -0.0913
 1347ACTN    H413925   4.687   5.027   7.643  0.9299  0.7842  1.1971
 1347ACTN    H513926   4.663   5.205   7.662  0.1428 -0.9204  1.9051
 1347ACTN    C213927   4.856   5.145   7.599 -0.7309 -0.6155 -0.0662
 1347ACTN    O113928   4.909   5.103   7.706 -0.6096 -0.1014 -0.0535
 1347ACTN    C113929   4.933   5.236   7.503 -0.6025  0.6994 -0.2031
 1347ACTN    H113930   5.038   5.239   7.531 -0.3320 -0.6727 -0.9911
 1347ACTN    H213931   4.886   5.334   7.502  0.5521  1.2848  1.7582
 1347ACTN    H313932   4.918   5.179   7.411  0.8586 -0.8660  0.5152
 1348ACTN    H613933   5.997   2.480   4.395 -0.7805  0.1348  1.8782
 1348ACTN    C313934   6.021   2.585   4.409  0.6305  0.1296 -0.3373
 1348ACTN    H413935   6.066   2.615   4.314 -0.8496  1.5305 -0.6284
 1348ACTN    H513936   6.077   2.597   4.502  1.6988 -1.9659 -0.6890
 1348ACTN    C213937   5.893   2.659   4.436  0.1607  0.0035  0.2382
 1348ACTN    O113938   5.846   2.655   4.553  0.4922  0.2995 -0.0661
 1348ACTN    C113939   5.851   2.770   4.343 -0.0288  0.1960 -0.1063
 1348ACTN    H113940   5.756   2.749   4.295 -0.7758  0.4956  1.2178
 1348ACTN    H213941   5.927   2.790   4.268  1.6768 -0.6312  1.3621
 1348ACTN    H313942   5.833   2.860   4.402  0.8109  0.6440 -0.5177
 1349ACTN    H613943   4.798   0.202   3.286  2.0110  0.3420  1.4902
 1349ACTN    C313944   4.744   0.294   3.308  0.4812 -0.1518 -0.1251
 1349ACTN    H413945   4.730   0.357   3.220  2.6445  1.0784  0.3689
 1349ACTN    H513946   4.650   0.261   3.352 -0.2663  0.5323 -1.1633
 1349ACTN    C213947   4.830   0.358   3.416 -0.5405 -0.5845  0.7267
 1349ACTN    O113948   4.808   0.467   3.467 -0.4503  0.0133  0.2155
 1349ACTN    C113949   4.966   0.306   3.426 -0.5825  1.0171  0.0324
 1349ACTN    H113950   4.981   0.219   3.362 -0.9748  0.6921  0.3837
 1349ACTN    H213951   4.989   0.290   3.532  4.1059  1.1592 -0.8589
 1349ACTN    H313952   5.034   0.377   3.379  0.7992  0.2885  0.8871
 1350ACTN    H613953   6.029   6.735   8.276  0.8946  0.1160  2.5392
 1350ACTN    C313954   6.117   6.689   8.231 -0.5255  0.0525 -0.3052
 1350ACTN    H413955   6.209   6.739   8.261 -0.4645 -1.2900  1.8333
 1350ACTN    H513956   6.128   6.585   8.262  1.6670  0.7512  1.3864
 1350ACTN    C213957   6.100   6.709   8.083  0.4189 -0.5950  0.0084
 1350ACTN    O113958   6.180   6.658   8.006 -0.8089 -0.6127  0.0748
 1350ACTN    C113959   6.001   6.812   8.036 -0.4336 -0.0637  0.4513
 1350ACTN    H113960   5.924   6.847   8.104 -1.1351  0.2671 -0.5036
 1350ACTN    H213961   5.950   6.781   7.944 -1.5924  0.4221  0.9188
 1350ACTN    H313962   6.059   6.902   8.017 -1.9009  0.4207 -1.9377
 1351ACTN    H613963   0.663   7.436   1.917 -0.3296 -0.4969 -0.1875
 1351ACTN    C313964   0.692   7.539   1.895  0.0181 -0.5254  0.1304
 1351ACTN    H413965   0.720   7.586   1.989  0.2520 -0.2349 -0.0827
 1351ACTN    H513966   0.781   7.527   1.834 -0.4098  0.7142 -0.7390
 1351ACTN    C213967   0.598   7.631   1.829 -0.6249  0.4403 -0.0713
 1351ACTN    O113968   0.475   7.609   1.836  0.7792 -0.1424 -0.1849
 1351ACTN    C113969   0.639   7.738   1.733 -0.0026  0.0076  0.1081
 1351ACTN    H113970   0.621   7.837   1.774 -0.2367  0.0389 -0.0685
 1351ACTN    H213971   0.579   7.741   1.642  0.2373  0.2870 -0.0413
 1351ACTN    H313972   0.739   7.730   1.692 -0.6053 -1.1024 -1.2067
 1352ACTN    H613973   8.207   6.657   1.550 -0.2748 -0.0045  0.4410
 1352ACTN    C313974   8.170   6.555   1.566 -0.3506 -0.2205 -0.9865
 1352ACTN    H413975   8.155   6.512   1.467  1.1269 -1.4510 -0.6900
 1352ACTN    H513976   8.250   6.504   1.619  0.5220  1.1949 -0.8898
 1352ACTN    C213977   8.041   6.568   1.643  0.8223  0.2105 -0.4825
 1352ACTN    O113978   8.049   6.542   1.765 -0.6344  0.9631  0.5923
 1352ACTN    C113979   7.917   6.633   1.590 -0.6492  0.4910 -0.8203
 1352ACTN    H113980   7.932   6.640   1.482  0.4951  0.1995 -0.6894
 1352ACTN    H213981   7.892   6.729   1.636  2.7749  1.0854 -0.0915
 1352ACTN    H313982   7.832   6.566   1.590 -2.1511  2.3398 -0.4484
 1353ACTN    H613983   4.978   5.553   3.408  0.4624 -0.7364  0.6230
 1353ACTN    C313984   5.070   5.558   3.349  0.3552 -0.5796  0.4705
 1353ACTN    H413985   5.060   5.652   3.295 -1.2171  0.3839  2.3656
 1353ACTN    H513986   5.161   5.549   3.407  0.1876 -1.9465  0.5473
 1353ACTN    C213987   5.075   5.443   3.245  0.5142  0.3155  0.4119
 1353ACTN    O113988   5.176   5.369   3.239 -0.2269  0.0069 -0.1128
 1353ACTN    C113989   4.956   5.403   3.163  0.3429 -0.1045  0.3335
 1353ACTN    H113990   4.980   5.403   3.057 -1.2333 -0.0640 -0.0458
 1353ACTN    H213991   4.866   5.463   3.177 -0.5015 -0.9139 -1.4319
 1353ACTN    H313992   4.937   5.301   3.197  2.0485 -0.5086  0.0836
 1354ACTN    H613993   7.591   6.709   7.351 -0.0013 -0.7961  0.3779
 1354ACTN    C313994   7.694   6.724   7.317 -0.1923  0.2804  0.2805
 1354ACTN    H413995   7.764   6.729   7.400  1.3123 -2.5271 -0.7644
 1354ACTN    H513996   7.710   6.641   7.248 -0.5683  0.3009  0.1657
 1354ACTN    C213997   7.680   6.855   7.242 -0.6420  0.5337 -0.2315
 1354ACTN    O113998   7.678   6.958   7.305  0.1978  0.4720  0.2705
 1354ACTN    C113999   7.641   6.854   7.097 -0.2835 -0.1522  0.4171
 1354ACTN    H114000   7.719   6.787   7.061  0.4909  0.0565  1.6768
 1354ACTN    H214001   7.642   6.951   7.048 -1.8401  0.6828  2.0052
 1354ACTN    H314002   7.549   6.803   7.067  1.0784 -1.9493 -0.8749
 1355ACTN    H614003   7.065   0.257   5.629 -4.6131  0.1828  1.2918
 1355ACTN    C314004   7.033   0.201   5.541 -0.4027  0.4606 -0.5697
 1355ACTN    H414005   7.090   0.239   5.457 -1.1053 -3.0832 -2.7569
 1355ACTN    H514006   7.074   0.100   5.555 -1.8913 -0.0942 -0.1042
 1355ACTN    C214007   6.882   0.214   5.526  0.0632 -0.2364  1.0260
 1355ACTN    O114008   6.834   0.323   5.502 -0.6498 -0.0404 -0.3582
 1355ACTN    C114009   6.807   0.090   5.527  1.0036  0.2546 -0.0826
 1355ACTN    H114010   6.701   0.113   5.523  1.3092  2.1086  1.6634
 1355ACTN    H214011   6.817   0.048   5.627 -0.0218  1.0340  0.3562
 1355ACTN    H314012   6.842   0.011   5.460 -2.6161 -2.1560  0.7471
 1356ACTN    H614013   4.999   6.572   5.553  0.2553  0.3834  1.7668
 1356ACTN    C314014   5.078   6.645   5.569  0.3218  0.7149  0.0613
 1356ACTN    H414015   5.134   6.627   5.661  1.7164  1.4009 -0.6412
 1356ACTN    H514016   5.144   6.637   5.483 -2.5190 -3.7873 -1.8891
 1356ACTN    C214017   5.022   6.777   5.562 -0.3442  0.0938  1.1111
 1356ACTN    O114018   5.051   6.868   5.484  0.2677 -0.2882 -0.7572
 1356ACTN    C114019   4.927   6.812   5.669  0.2347 -1.0441 -0.0198
 1356ACTN    H114020   4.850   6.881   5.636  1.4111  0.5231  0.4762
 1356ACTN    H214021   4.980   6.867   5.746 -0.3892  0.1574 -0.4405
 1356ACTN    H314022   4.883   6.720   5.708  2.8346 -1.8441  1.1491
 1357ACTN    H614023   1.503   4.092   8.821  0.2567  0.3662 -0.2881
 1357ACTN    C314024   1.535   4.156   8.903  0.6540 -0.4117  0.1749
 1357ACTN    H414025   1.492   4.116   8.995  0.8166  1.6717  1.1974
 1357ACTN    H514026   1.643   4.142   8.910  0.9053  2.7886  4.2023
 1357ACTN    C214027   1.497   4.297   8.883 -0.5479 -0.5769 -0.0877
 1357ACTN    O114028   1.555   4.358   8.788  0.8176  0.2785 -0.2901
 1357ACTN    C114029   1.412   4.371   8.974 -0.1765  0.3092  0.3824
 1357ACTN    H114030   1.429   4.477   8.952 -0.3015  0.9601  3.1750
 1357ACTN    H214031   1.439   4.354   9.078  2.0099 -0.2950 -0.2628
 1357ACTN    H314032   1.306   4.350   8.959 -0.3494 -0.1137  2.0613
 1358ACTN    H614033   2.191   0.523   0.017 -0.4040  2.0748  3.2718
 1358ACTN    C314034   2.121   0.446   0.049  0.0802  0.0292 -0.2646
 1358ACTN    H414035   2.087   0.466   0.151  1.2020  0.1887  0.0786
 1358ACTN    H514036   2.027   0.450  -0.007  1.5386  3.6568 -2.6419
 1358ACTN    C214037   2.170   0.305   0.050  0.3665 -0.6017  0.0647
 1358ACTN    O114038   2.098   0.217   0.089 -0.0180  0.1065 -0.1206
 1358ACTN    C114039   2.310   0.267   0.007 -0.4372 -0.7297 -0.2890
 1358ACTN    H114040   2.329   0.316  -0.088  1.3942 -0.6011  0.1177
 1358ACTN    H214041   2.318   0.161  -0.014  0.4932 -0.7966  0.3569
 1358ACTN    H314042   2.392   0.289   0.075 -0.1953 -2.6687  0.0647
 1359ACTN    H614043   3.019   0.271   4.278 -0.6049  0.2731  0.3277
 1359ACTN    C314044   2.911   0.276   4.273 -0.5567  0.2560 -0.7802
 1359ACTN    H414045   2.860   0.317   4.360 -2.4824 -1.4257 -1.0614
 1359ACTN    H514046   2.888   0.340   4.187  0.0485  2.1047  0.4036
 1359ACTN    C214047   2.854   0.138   4.255  0.0884 -0.9406 -0.8399
 1359ACTN    O114048   2.923   0.053   4.204  0.0227 -0.0498  0.0722
 1359ACTN    C114049   2.725   0.107   4.322  0.6090  0.2307 -0.5207
 1359ACTN    H114050   2.695   0.196   4.377  0.1717 -0.1528 -0.1336
 1359ACTN    H214051   2.736   0.026   4.395  1.0539  1.9981  1.4123
 1359ACTN    H314052   2.643   0.069   4.261 -0.0238 -1.8758  1.5340
 1360ACTN    H614053   2.640   6.666   4.861 -1.0573 -2.4660  2.7307
 1360ACTN    C314054   2.748   6.655   4.870 -0.5145 -0.0673 -0.1215
 1360ACTN    H414055   2.798   6.748   4.843  1.5558 -1.6409 -1.8071
 1360ACTN    H514056   2.765   6.638   4.976 -0.1087  0.6936 -0.0665
 1360ACTN    C214057   2.800   6.542   4.778 -0.5896 -0.1769 -0.3376
 1360ACTN    O114058   2.860   6.448   4.821 -0.4947  1.0930 -1.0945
 1360ACTN    C114059   2.760   6.554   4.637  0.2707 -0.3096 -0.2192
 1360ACTN    H114060   2.790   6.652   4.600 -3.3252  1.8008  2.2251
 1360ACTN    H214061   2.653   6.544   4.624  0.2310  0.5418 -0.6140
 1360ACTN    H314062   2.820   6.491   4.571  0.6324 -2.1490  1.8326
 1361ACTN    H614063   8.713   8.819   8.622  0.3930  0.8688  1.3410
 1361ACTN    C314064   8.629   8.831   8.554  0.7730 -0.3064  0.6656
 1361ACTN    H414065   8.667   8.866   8.458 -1.5319 -0.4903 -0.3354
 1361ACTN    H514066   8.584   8.732   8.542  0.9490 -0.6570  2.7051
 1361ACTN    C214067   8.527   8.925   8.628 -0.1736  0.2334  0.3710
 1361ACTN    O114068   8.453   8.888   8.719  0.2304 -0.3014 -0.5866
 1361ACTN    C114069   8.521   9.069   8.585 -0.1159  0.6235  0.1899
 1361ACTN    H114070   8.502   9.067   8.477  0.1505 -0.0760  0.1543
 1361ACTN    H214071   8.605   9.132   8.612 -1.1322  0.9667  2.6703
 1361ACTN    H314072   8.438   9.120   8.634 -0.4448  0.3390 -0.0619
 1362ACTN    H614073   7.914   0.560   5.526 -0.5259 -0.4244 -0.6944
 1362ACTN    C314074   7.823   0.557   5.587  0.7399  0.7362  1.3020
 1362ACTN    H414075   7.794   0.452   5.586  4.6394 -0.4444  1.0374
 1362ACTN    H514076   7.834   0.585   5.692 -1.8835  2.6127  1.1225
 1362ACTN    C214077   7.711   0.639   5.528  0.4244 -0.3429  0.2026
 1362ACTN    O114078   7.690   0.646   5.404 -0.0599 -0.0169 -0.1154
 1362ACTN    C114079   7.632   0.728   5.620  0.4231 -0.6340  0.4150
 1362ACTN    H114080   7.650   0.830   5.585  1.0642 -1.1373 -0.7634
 1362ACTN    H214081   7.662   0.719   5.724 -1.1745 -0.7053  0.8825
 1362ACTN    H314082   7.525   0.712   5.607  0.7253 -1.9601 -0.4899
 1363ACTN    H614083   7.525   6.669   0.764  0.6720  2.1963  0.4511
 1363ACTN    C314084   7.615   6.634   0.814  0.1524  0.1814  0.0513
 1363ACTN    H414085   7.602   6.669   0.917  0.7547  0.6772 -0.0377
 1363ACTN    H514086   7.616   6.525   0.815 -0.3019  0.1674  1.7867
 1363ACTN    C214087   7.736   6.685   0.745  0.6003 -0.2280  0.2483
 1363ACTN    O114088   7.826   6.610   0.707 -0.3242 -0.4272  0.1297
 1363ACTN    C114089   7.748   6.838   0.732 -0.3093 -0.8271  0.3334
 1363ACTN    H114090   7.759   6.875   0.630  0.4713 -0.7459  0.4411
 1363ACTN    H214091   7.838   6.866   0.787 -1.2973  0.5477  1.3014
 1363ACTN    H314092   7.668   6.903   0.767 -0.6537 -0.3745 -1.2550
 1364ACTN    H614093   7.509   1.039   5.395  2.7820 -0.8649 -1.8319
 1364ACTN    C314094   7.557   1.107   5.465  0.0763 -0.4663 -0.3103
 1364ACTN    H414095   7.652   1.056   5.480  1.1624  2.4208  3.5212
 1364ACTN    H514096   7.554   1.207   5.421 -2.1513 -0.6349 -0.5877
 1364ACTN    C214097   7.485   1.102   5.595 -0.4374 -0.2689  0.1767
 1364ACTN    O114098   7.540   1.140   5.697 -0.3096 -0.5790 -0.2949
 1364ACTN    C114099   7.369   1.014   5.626 -0.1628  0.6129  0.2697
 1364ACTN    H114100   7.275   1.046   5.582 -0.5857  0.5444  1.0987
 1364ACTN    H214101   7.345   1.000   5.732 -1.1184  1.4827  0.1771
 1364ACTN    H314102   7.404   0.915   5.596 -0.8495  0.8614 -1.3950
 1365ACTN    H614103   6.874   4.704   5.959  2.4306 -0.7709  3.3430
 1365ACTN    C314104   6.858   4.597   5.959  0.2918 -0.5204  0.6078
 1365ACTN    H414105   6.753   4.572   5.972  0.8816 -1.5529  4.0414
 1365ACTN    H514106   6.888   4.554   5.863  1.7333 -0.6787  1.1219
 1365ACTN    C214107   6.943   4.527   6.060 -0.5905  0.0527 -0.2655
 1365ACTN    O114108   6.962   4.576   6.170  0.0581  0.5213 -0.1393
 1365ACTN    C114109   6.993   4.396   6.024  0.5562 -0.5254 -0.3961
 1365ACTN    H114110   7.053   4.399   5.932  1.8419  0.8558  0.4503
 1365ACTN    H214111   6.906   4.334   6.007 -1.5351  1.9896  0.7451
 1365ACTN    H314112   7.053   4.347   6.101  0.0825  0.8208  0.8409
 1366ACTN    H614113   2.794   7.607   7.864 -0.4490 -0.7991  3.3679
 1366ACTN    C314114   2.891   7.637   7.904  0.4821  0.1165  0.5750
 1366ACTN    H414115   2.873   7.670   8.007  1.6688 -0.6681  1.0344
 1366ACTN    H514116   2.961   7.555   7.919  0.3086 -0.0060  0.7161
 1366ACTN    C214117   2.953   7.735   7.814  0.6824  0.2801  0.3481
 1366ACTN    O114118   3.022   7.821   7.868  0.2823  0.5302  0.1848
 1366ACTN    C114119   2.936   7.733   7.658 -0.8740  0.7049 -0.1286
 1366ACTN    H114120   2.931   7.836   7.622 -1.6777  0.9559  0.6820
 1366ACTN    H214121   2.849   7.674   7.628 -1.4669  0.8508  1.2403
 1366ACTN    H314122   3.020   7.691   7.603 -1.0402 -1.0567  0.9138
 1367ACTN    H614123   3.617   6.476   7.298  2.2693  1.6172  1.0038
 1367ACTN    C314124   3.544   6.550   7.332  0.7132  0.5577  0.0128
 1367ACTN    H414125   3.476   6.559   7.247  2.1290  0.4369 -1.1582
 1367ACTN    H514126   3.479   6.530   7.417  0.2064 -2.1559 -0.9584
 1367ACTN    C214127   3.609   6.683   7.360  0.3388  0.2344 -0.1974
 1367ACTN    O114128   3.697   6.694   7.447 -0.1527 -0.5661 -0.0313
 1367ACTN    C114129   3.557   6.798   7.278 -0.0854  0.3430  0.0453
 1367ACTN    H114130   3.450   6.809   7.266  0.2068  0.7318 -2.4872
 1367ACTN    H214131   3.596   6.783   7.177 -0.2645 -0.5441  0.1061
 1367ACTN    H314132   3.587   6.893   7.324 -2.0882  1.8963 -1.7324
 1368ACTN    H614133   1.741   0.977   5.173  2.3928  0.3636  1.0722
 1368ACTN    C314134   1.668   1.058   5.177  0.1836 -1.4873 -0.3508
 1368ACTN    H414135   1.576   1.046   5.121 -0.9084 -0.3574  1.1555
 1368ACTN    H514136   1.634   1.072   5.280  0.3670 -0.6019 -0.4012
 1368ACTN    C214137   1.729   1.188   5.137 -0.7899  0.1005 -0.4599
 1368ACTN    O114138   1.661   1.290   5.134 -0.3066 -0.4268  0.7102
 1368ACTN    C114139   1.873   1.192   5.111 -0.0565 -0.4293 -0.0471
 1368ACTN    H114140   1.918   1.260   5.183 -1.2332  1.6099 -1.1882
 1368ACTN    H214141   1.882   1.233   5.010 -1.2108 -0.1452 -0.0406
 1368ACTN    H314142   1.913   1.091   5.115  0.2374 -0.2573  1.6237
 1369ACTN    H614143   1.647   3.486   1.771 -0.9113 -0.5191 -0.1161
 1369ACTN    C314144   1.644   3.554   1.686  0.7434 -0.4615 -0.1488
 1369ACTN    H414145   1.673   3.649   1.730  0.3171 -0.4048  0.0224
 1369ACTN    H514146   1.726   3.522   1.622  0.6971 -0.1123 -0.3821
 1369ACTN    C214147   1.517   3.560   1.610 -0.5396  0.3028  0.2453
 1369ACTN    O114148   1.421   3.501   1.653 -0.4964 -0.4787  0.1393
 1369ACTN    C114149   1.519   3.624   1.477  0.2401  0.2095 -0.5914
 1369ACTN    H114150   1.458   3.714   1.469 -1.8672 -1.0160  1.1850
 1369ACTN    H214151   1.480   3.554   1.404  0.4417  0.1150 -0.6094
 1369ACTN    H314152   1.625   3.645   1.461  1.0014 -1.6199  1.7641
 1370ACTN    H614153   3.926   1.856   2.313  1.4215  1.5116 -0.3889
 1370ACTN    C314154   3.863   1.936   2.273 -0.6862  0.0640  0.0039
 1370ACTN    H414155   3.823   1.989   2.360 -1.1090  0.9801 -0.7394
 1370ACTN    H514156   3.931   2.001   2.220  0.0133 -1.7506 -1.3670
 1370ACTN    C214157   3.769   1.878   2.176 -0.2683 -1.0679 -0.1677
 1370ACTN    O114158   3.651   1.859   2.202  0.1080  0.4337  0.3644
 1370ACTN    C114159   3.824   1.841   2.039 -1.0734 -0.3347 -0.1282
 1370ACTN    H114160   3.825   1.733   2.028  1.2670 -0.6411  2.5887
 1370ACTN    H214161   3.922   1.886   2.020 -0.6437 -1.0617  0.3312
 1370ACTN    H314162   3.759   1.881   1.961  0.7684  3.7667  0.2985
 1371ACTN    H614163   8.802   1.965   2.423 -3.4582  0.5607  0.5794
 1371ACTN    C314164   8.781   1.902   2.337 -0.5462 -0.0184  0.2392
 1371ACTN    H414165   8.722   1.952   2.261  0.1565  0.2597 -0.1255
 1371ACTN    H514166   8.876   1.868   2.295  1.0142  1.6890  2.2815
 1371ACTN    C214167   8.717   1.776   2.390 -0.1516 -0.4905  0.1760
 1371ACTN    O114168   8.764   1.662   2.381  0.0882  0.6297  0.4773
 1371ACTN    C114169   8.610   1.787   2.491  0.1727 -0.6483  0.1493
 1371ACTN    H114170   8.636   1.723   2.575  2.1448  0.4942  0.4420
 1371ACTN    H214171   8.517   1.751   2.448 -0.4260  2.0783 -0.9320
 1371ACTN    H314172   8.603   1.888   2.533  0.5500 -1.4093  2.0880
 1372ACTN    H614173   7.680   0.903   2.872  0.5097  0.0998  2.4706
 1372ACTN    C314174   7.689   0.794   2.869  0.0550  0.0977 -0.0584
 1372ACTN    H414175   7.599   0.759   2.819  0.8713 -0.1661 -1.3398
 1372ACTN    H514176   7.775   0.763   2.811 -0.0017  2.3989 -1.4237
 1372ACTN    C214177   7.689   0.736   3.006  0.3866  0.4029 -0.0607
 1372ACTN    O114178   7.589   0.690   3.059  0.6893 -0.0225  0.1674
 1372ACTN    C114179   7.811   0.731   3.088  0.5082  0.2516  0.1147
 1372ACTN    H114180   7.790   0.703   3.192 -0.6876 -0.9417 -0.4409
 1372ACTN    H214181   7.866   0.825   3.079  0.0887  0.4665 -0.2497
 1372ACTN    H314182   7.875   0.650   3.053 -0.3353  0.6216 -2.3885
 1373ACTN    H614183   2.893   3.853   4.818 -0.7660 -1.3841  0.2461
 1373ACTN    C314184   2.956   3.786   4.759 -0.2881 -0.4606 -0.3061
 1373ACTN    H414185   2.950   3.686   4.802 -0.6719  0.5397  2.0888
 1373ACTN    H514186   2.917   3.777   4.658  0.3078 -3.1083 -0.3286
 1373ACTN    C214187   3.093   3.839   4.764  0.2199 -0.5223  0.5393
 1373ACTN    O114188   3.149   3.873   4.663 -0.2660  0.0155 -0.4796
 1373ACTN    C114189   3.164   3.832   4.902  0.2717  1.0904 -0.1458
 1373ACTN    H114190   3.171   3.931   4.946 -1.1774  1.1677 -0.0561
 1373ACTN    H214191   3.264   3.794   4.879 -0.3907  0.0359 -1.3686
 1373ACTN    H314192   3.108   3.766   4.968 -0.8982  0.0949 -2.0982
 1374ACTN    H614193   5.941   4.356   5.930  1.3064 -0.5520  0.9167
 1374ACTN    C314194   6.013   4.379   5.851 -0.2604  0.2557 -0.3134
 1374ACTN    H414195   6.038   4.291   5.791 -1.1672 -0.6208  0.5563
 1374ACTN    H514196   6.104   4.413   5.899  0.5380 -0.1118 -1.5431
 1374ACTN    C214197   5.954   4.484   5.756 -0.0021 -0.1463  0.3785
 1374ACTN    O114198   6.029   4.574   5.716 -0.3915 -0.3119  0.0636
 1374ACTN    C114199   5.813   4.454   5.713  0.4039  0.3607  0.0345
 1374ACTN    H114200   5.811   4.353   5.673 -0.5361  0.1580  0.5569
 1374ACTN    H214201   5.788   4.522   5.632  0.7135  3.4008  2.3877
 1374ACTN    H314202   5.743   4.469   5.796  1.3587  2.8893  0.4425
 1375ACTN    H614203   1.424   3.495   0.275 -0.9786 -1.4725  0.6208
 1375ACTN    C314204   1.360   3.557   0.339 -0.3661 -0.1926  0.0178
 1375ACTN    H414205   1.321   3.632   0.270 -4.5271 -2.4862 -0.2745
 1375ACTN    H514206   1.276   3.497   0.376  0.9440 -2.2387 -0.2375
 1375ACTN    C214207   1.432   3.606   0.465  0.5315  0.5106  0.4148
 1375ACTN    O114208   1.417   3.549   0.571  0.7860 -0.5632  0.3738
 1375ACTN    C114209   1.511   3.725   0.461  0.4044 -0.2029 -0.2704
 1375ACTN    H114210   1.479   3.798   0.534 -1.1784 -1.3032  0.1644
 1375ACTN    H214211   1.493   3.780   0.369 -0.0884  1.6177  0.8926
 1375ACTN    H314212   1.617   3.704   0.477 -0.1088 -0.8396  2.4640
 1376ACTN    H614213   3.771   8.532   0.759 -2.1068 -1.7352  3.1098
 1376ACTN    C314214   3.862   8.535   0.820  0.2395 -0.0472 -0.2922
 1376ACTN    H414215   3.847   8.601   0.905 -0.7231 -1.7800  0.9211
 1376ACTN    H514216   3.874   8.436   0.862 -2.0516 -0.2981 -0.1486
 1376ACTN    C214217   3.991   8.574   0.745  0.3361  0.9686  0.2229
 1376ACTN    O114218   4.010   8.676   0.685  0.2088  0.4080 -0.5154
 1376ACTN    C114219   4.108   8.478   0.777  0.0603  0.7190  0.4075
 1376ACTN    H114220   4.195   8.522   0.728 -0.0260 -0.7299 -1.0707
 1376ACTN    H214221   4.087   8.380   0.734 -3.6514  1.7389 -0.3656
 1376ACTN    H314222   4.125   8.460   0.883 -1.0578 -1.8670  0.1803
 1377ACTN    H614223   2.392   6.152   7.574  0.1432 -1.1333 -0.0627
 1377ACTN    C314224   2.479   6.152   7.639  0.3783  0.0181 -0.3635
 1377ACTN    H414225   2.461   6.069   7.707  0.4441  1.1083  1.0080
 1377ACTN    H514226   2.558   6.130   7.568 -0.3423  0.5268 -1.3350
 1377ACTN    C214227   2.508   6.275   7.725 -0.2485  0.3669 -0.2541
 1377ACTN    O114228   2.430   6.311   7.817 -0.0189  0.8865  0.3197
 1377ACTN    C114229   2.619   6.369   7.698 -0.6203  0.8171 -0.8398
 1377ACTN    H114230   2.676   6.340   7.610  0.6567  2.7553 -0.6946
 1377ACTN    H214231   2.688   6.370   7.782 -0.4459 -0.7408 -0.9532
 1377ACTN    H314232   2.586   6.473   7.689  2.0952  1.7026 -0.9189
 1378ACTN    H614233   4.576   3.796   3.737 -0.4414 -1.6525 -0.5147
 1378ACTN    C314234   4.605   3.775   3.840  0.1723  0.3329 -0.2529
 1378ACTN    H414235   4.687   3.841   3.867 -0.5490  0.3861  2.0033
 1378ACTN    H514236   4.517   3.804   3.898 -0.5133 -0.2933 -0.9699
 1378ACTN    C214237   4.655   3.636   3.852 -0.0899  0.7365  0.3228
 1378ACTN    O114238   4.598   3.564   3.927 -0.2199 -0.5586  1.2908
 1378ACTN    C114239   4.746   3.574   3.746 -0.5834  0.5554 -0.1538
 1378ACTN    H114240   4.789   3.479   3.777 -1.9096  0.5575  1.7563
 1378ACTN    H214241   4.828   3.642   3.723  0.2858 -0.9507 -1.6195
 1378ACTN    H314242   4.697   3.561   3.649  0.9318 -0.0065 -0.8563
 1379ACTN    H614243   4.565   6.306   8.389  1.1280  0.0329  2.5220
 1379ACTN    C314244   4.567   6.203   8.425  0.1298 -0.5499  0.9382
 1379ACTN    H414245   4.476   6.149   8.399  1.5766 -2.9489  0.6722
 1379ACTN    H514246   4.656   6.150   8.391 -0.4179 -0.8567 -0.0303
 1379ACTN    C214247   4.564   6.188   8.570 -0.0998  0.5000 -0.7030
 1379ACTN    O114248   4.483   6.255   8.632  0.3206 -0.3538 -0.5691
 1379ACTN    C114249   4.666   6.091   8.636  0.0605  0.2709 -0.1852
 1379ACTN    H114250   4.636   5.991   8.603  3.9104  0.3669 -4.5519
 1379ACTN    H214251   4.664   6.084   8.744  3.4208 -0.2283 -0.0992
 1379ACTN    H314252   4.770   6.108   8.609 -0.0487 -0.3331 -1.0481
 1380ACTN    H614253   6.231   2.017   5.609 -0.8623  0.2463  0.0850
 1380ACTN    C314254   6.195   2.084   5.531 -0.1090  0.3828 -0.1473
 1380ACTN    H414255   6.276   2.145   5.490 -0.3487  1.4440  0.9208
 1380ACTN    H514256   6.147   2.031   5.449  0.4777  0.2922 -0.4316
 1380ACTN    C214257   6.084   2.172   5.589  0.2951 -0.3462 -0.0547
 1380ACTN    O114258   6.017   2.109   5.668  0.1159 -0.1079 -0.1220
 1380ACTN    C114259   6.032   2.279   5.496  0.6504 -0.4354  0.1065
 1380ACTN    H114260   5.961   2.339   5.553  0.4908 -1.8572  1.4613
 1380ACTN    H214261   5.974   2.238   5.413 -0.3999 -0.4880  0.8422
 1380ACTN    H314262   6.123   2.330   5.468  1.5854 -2.4631 -0.6563
 1381ACTN    H614263   1.584   0.035   2.490 -3.3937 -0.2581 -0.0663
 1381ACTN    C314264   1.596   0.125   2.430 -0.5207 -0.0780  0.6923
 1381ACTN    H414265   1.677   0.107   2.359 -1.5123  0.3394 -0.5692
 1381ACTN    H514266   1.623   0.204   2.499 -0.3510  0.2863  0.2153
 1381ACTN    C214267   1.463   0.160   2.360  0.2152 -0.9476  0.0323
 1381ACTN    O114268   1.398   0.251   2.417  0.5558 -0.0069  0.3914
 1381ACTN    C114269   1.388   0.067   2.273 -0.2149  0.5000  0.6795
 1381ACTN    H114270   1.451   0.036   2.190 -1.6634  2.8113 -1.3225
 1381ACTN    H214271   1.307   0.121   2.224  0.5983  1.0758 -0.0236
 1381ACTN    H314272   1.345  -0.017   2.328  0.6661 -0.6084 -0.3109
 1382ACTN    H614273   3.215   0.341   2.998  1.1088 -0.9839 -1.2362
 1382ACTN    C314274   3.109   0.325   2.980  0.6822  0.1581  0.2075
 1382ACTN    H414275   3.094   0.235   2.921 -0.8866 -0.2243  1.1791
 1382ACTN    H514276   3.054   0.315   3.073 -0.9824  1.6702 -0.5661
 1382ACTN    C214277   3.057   0.443   2.896 -0.7561  0.4857  0.0498
 1382ACTN    O114278   3.059   0.555   2.944  0.3958 -0.3432 -0.2732
 1382ACTN    C114279   3.013   0.420   2.753  0.3371  0.6069 -0.1437
 1382ACTN    H114280   2.925   0.356   2.750 -1.5499  3.0468  1.1716
 1382ACTN    H214281   3.098   0.378   2.699 -0.3417  0.9492 -1.5017
 1382ACTN    H314282   2.979   0.515   2.711 -1.1924 -0.4291 -1.2773
 1383ACTN    H614283   7.205   7.266   5.019  1.3840 -0.4019 -0.6264
 1383ACTN    C314284   7.244   7.353   4.966  0.4381 -0.1055 -0.8537
 1383ACTN    H414285   7.164   7.426   4.959  0.5992  0.0202 -1.3351
 1383ACTN    H514286   7.320   7.390   5.035 -0.2573 -2.2132  1.1229
 1383ACTN    C214287   7.306   7.295   4.839 -0.7822 -0.1277 -0.2208
 1383ACTN    O114288   7.421   7.328   4.806 -0.4344 -0.0975  0.4974
 1383ACTN    C114289   7.247   7.172   4.779  0.3243  0.4770  0.4162
 1383ACTN    H114290   7.284   7.158   4.677  0.9818  2.4551  0.3699
 1383ACTN    H214291   7.141   7.197   4.776 -0.2286 -1.8273 -0.8871
 1383ACTN    H314292   7.258   7.082   4.840 -1.0401  1.4073  2.0740
 1384ACTN    H614293   2.559   6.145   3.391  1.5469  2.0839 -0.7047
 1384ACTN    C314294   2.531   6.226   3.460 -0.2877  0.5917  0.3557
 1384ACTN    H414295   2.623   6.265   3.503  1.5373  1.0661 -3.7633
 1384ACTN    H514296   2.489   6.305   3.398  1.0560  0.6266 -0.5365
 1384ACTN    C214297   2.444   6.187   3.573  0.2274  0.7762  0.0374
 1384ACTN    O114298   2.336   6.138   3.538 -0.1646 -0.0534  0.4490
 1384ACTN    C114299   2.478   6.226   3.711  0.9980  0.3894 -0.1451
 1384ACTN    H114300   2.394   6.263   3.769 -0.0586  0.3541 -1.6123
 1384ACTN    H214301   2.566   6.291   3.704  0.7985  0.8386  1.3933
 1384ACTN    H314302   2.521   6.139   3.759 -0.7818 -1.1919 -1.3496
 1385ACTN    H614303   0.164   1.938   3.718 -0.6844  3.1825 -0.8590
 1385ACTN    C314304   0.218   1.901   3.631  0.0804 -0.1234  0.9429
 1385ACTN    H414305   0.313   1.955   3.631  0.3255 -0.4959 -1.7825
 1385ACTN    H514306   0.230   1.793   3.622  0.0438 -0.1464  1.1686
 1385ACTN    C214307   0.140   1.940   3.521  0.1744 -0.0491  0.1222
 1385ACTN    O114308   0.199   1.991   3.425  0.7429  0.2935  0.4534
 1385ACTN    C114309  -0.007   1.917   3.533 -0.0735  0.1154 -0.0646
 1385ACTN    H114310  -0.043   1.941   3.633 -1.2812  3.3566 -1.2024
 1385ACTN    H214311  -0.031   1.815   3.502  1.5912 -1.2978  3.0826
 1385ACTN    H314312  -0.052   1.988   3.463 -1.9545  1.3909  2.3660
 1386ACTN    H614313   4.771   6.288   4.643  2.0257 -0.9739 -1.7837
 1386ACTN    C314314   4.847   6.341   4.700 -0.7328  0.5844  0.5919
 1386ACTN    H414315   4.839   6.448   4.682  2.1567  0.8433  0.6248
 1386ACTN    H514316   4.810   6.328   4.802 -1.1418  0.2246  0.3990
 1386ACTN    C214317   4.973   6.265   4.673 -0.2091 -0.0316  0.2152
 1386ACTN    O114318   5.003   6.257   4.551  0.2864  0.0912  0.5011
 1386ACTN    C114319   5.086   6.244   4.765  0.0944  0.2143 -0.1624
 1386ACTN    H114320   5.145   6.159   4.732  1.0418  1.0750 -0.7377
 1386ACTN    H214321   5.047   6.239   4.866  0.4524  0.3245 -0.0169
 1386ACTN    H314322   5.147   6.334   4.753 -1.6086  1.2752 -1.1522
 1387ACTN    H614323   1.843   8.313   1.288 -1.7750 -3.2040 -2.0432
 1387ACTN    C314324   1.870   8.246   1.370  0.1076  0.5130  0.5080
 1387ACTN    H414325   1.929   8.164   1.331  0.4916  1.8528 -1.8564
 1387ACTN    H514326   1.926   8.303   1.444  0.1701 -0.9185  1.5878
 1387ACTN    C214327   1.745   8.183   1.423  0.0787  0.7355  0.4254
 1387ACTN    O114328   1.690   8.230   1.518 -0.1984 -0.4186  0.2902
 1387ACTN    C114329   1.675   8.069   1.348 -0.7076 -0.2066 -0.0614
 1387ACTN    H114330   1.572   8.088   1.317 -0.8251  0.0151  0.4544
 1387ACTN    H214331   1.678   7.974   1.401  0.1099  1.0339  2.1597
 1387ACTN    H314332   1.721   8.062   1.250 -0.7680 -0.0129 -0.1047
 1388ACTN    H614333   0.192   4.788   0.293  2.5714  1.4980 -0.6147
 1388ACTN    C314334   0.228   4.719   0.369 -0.3919  0.4118 -0.1584
 1388ACTN    H414335   0.332   4.736   0.397 -0.7365  0.1615  1.3122
 1388ACTN    H514336   0.177   4.732   0.465 -0.2258 -2.8832  0.4254
 1388ACTN    C214337   0.219   4.582   0.329  0.4459  0.5673 -0.0313
 1388ACTN    O114338   0.228   4.494   0.412 -0.2029 -0.5572 -0.3718
 1388ACTN    C114339   0.278   4.559   0.198  0.5449 -0.7901 -0.4380
 1388ACTN    H114340   0.367   4.622   0.192 -0.3814  0.5607 -0.3216
 1388ACTN    H214341   0.212   4.585   0.115 -1.3528  1.8113  1.8061
 1388ACTN    H314342   0.307   4.457   0.174 -0.1461 -0.9134 -0.7620
 1389ACTN    H614343   7.213   0.053   4.848  0.0335  2.1028  1.1796
 1389ACTN    C314344   7.269   0.117   4.780  0.8185  0.3003  0.0987
 1389ACTN    H414345   7.288   0.062   4.688 -0.9057 -0.5110  0.2124
 1389ACTN    H514346   7.217   0.210   4.757  1.7043  1.0105  0.9094
 1389ACTN    C214347   7.400   0.159   4.836  0.0236  0.7241  0.0902
 1389ACTN    O114348   7.437   0.276   4.854  0.8882 -0.0529  0.4590
 1389ACTN    C114349   7.501   0.047   4.861  0.3216  0.1088 -1.7974
 1389ACTN    H114350   7.603   0.085   4.853  0.6588 -0.3414  0.2790
 1389ACTN    H214351   7.474  -0.041   4.803  0.0698 -0.1800 -1.2358
 1389ACTN    H314352   7.488   0.019   4.965 -1.2215  0.4400 -1.8865
 1390ACTN    H614353   8.003   2.590   6.374 -0.3018  1.2530 -1.4458
 1390ACTN    C314354   7.931   2.671   6.374 -0.1530  1.4024  0.0547
 1390ACTN    H414355   7.832   2.638   6.405 -0.5388  1.5601 -0.9772
 1390ACTN    H514356   7.967   2.758   6.429  1.1564  1.6214 -1.1118
 1390ACTN    C214357   7.912   2.716   6.233 -0.4903  0.2065 -0.3273
 1390ACTN    O114358   7.911   2.637   6.135 -0.4300 -0.1925 -0.3417
 1390ACTN    C114359   7.852   2.847   6.214 -0.9651 -0.0652 -0.2568
 1390ACTN    H114360   7.768   2.847   6.145 -2.8704  0.1411  1.9756
 1390ACTN    H214361   7.918   2.925   6.176 -0.4856 -1.0652 -1.4901
 1390ACTN    H314362   7.816   2.879   6.312  0.3810 -0.8230  0.5131
 1391ACTN    H614363   6.510   7.544   4.153 -1.2771  1.1795  1.0408
 1391ACTN    C314364   6.498   7.632   4.090 -0.7844  0.3163 -0.2767
 1391ACTN    H414365   6.550   7.716   4.136  0.5385 -2.0172  2.6493
 1391ACTN    H514366   6.537   7.625   3.989  0.2017  1.9901 -0.0262
 1391ACTN    C214367   6.352   7.660   4.090 -0.2497 -0.9035  0.0622
 1391ACTN    O114368   6.313   7.774   4.079 -0.2971 -0.0794  0.0746
 1391ACTN    C114369   6.254   7.556   4.115 -0.2704 -0.0750 -0.6653
 1391ACTN    H114370   6.270   7.508   4.211 -3.8902  2.3436  1.2686
 1391ACTN    H214371   6.262   7.487   4.030 -0.3656  1.3816 -1.8774
 1391ACTN    H314372   6.159   7.608   4.122 -0.8967 -1.1767 -0.8370
 1392ACTN    H614373   2.543   6.329   0.052 -0.5231  3.3688  0.3705
 1392ACTN    C314374   2.642   6.355   0.016  0.6482 -0.6307  0.5321
 1392ACTN    H414375   2.634   6.462  -0.000 -0.6754 -0.8489 -0.2639
 1392ACTN    H514376   2.722   6.340   0.089 -0.0331  1.1907  1.6829
 1392ACTN    C214377   2.679   6.267  -0.097  0.4559 -0.2281  0.6202
 1392ACTN    O114378   2.591   6.218  -0.164  0.0507 -0.5570 -0.1251
 1392ACTN    C114379   2.821   6.260  -0.146  0.1243 -0.3696  0.3284
 1392ACTN    H114380   2.831   6.186  -0.226 -0.5097  0.4549 -0.5128
 1392ACTN    H214381   2.881   6.219  -0.064 -0.6526 -0.6014  0.7860
 1392ACTN    H314382   2.857   6.356  -0.183  0.2302 -0.3453  0.4928
 1393ACTN    H614383   3.104   5.517   0.474  2.0534 -1.8730  0.2776
 1393ACTN    C314384   3.164   5.599   0.436  0.0783 -0.7188 -0.4266
 1393ACTN    H414385   3.180   5.661   0.525 -0.7875 -1.5915  0.3463
 1393ACTN    H514386   3.257   5.551   0.405  0.1262 -0.9246  0.0267
 1393ACTN    C214387   3.107   5.681   0.325  0.5318 -0.3964 -0.3647
 1393ACTN    O114388   3.111   5.808   0.312 -0.0800 -0.1122  0.3977
 1393ACTN    C114389   3.011   5.609   0.241 -0.2070  0.3374  0.0844
 1393ACTN    H114390   2.967   5.676   0.167  1.1186  1.5286  0.3484
 1393ACTN    H214391   2.926   5.585   0.304 -2.4735  3.3951 -1.6916
 1393ACTN    H314392   3.057   5.521   0.196  0.5148  1.6369 -1.7829
 1394ACTN    H614393   0.522   3.335   7.578 -0.0730 -0.6296  0.9001
 1394ACTN    C314394   0.603   3.374   7.640  0.1643  0.0972  0.1441
 1394ACTN    H414395   0.690   3.323   7.597 -0.1615 -0.9498  0.7077
 1394ACTN    H514396   0.622   3.477   7.610 -1.3898  0.1841 -0.5581
 1394ACTN    C214397   0.570   3.349   7.787  0.0566  0.7153 -0.3394
 1394ACTN    O114398   0.554   3.449   7.850  0.1926 -0.2935  0.0456
 1394ACTN    C114399   0.548   3.215   7.835 -0.3213 -0.0023 -0.0433
 1394ACTN    H114400   0.442   3.188   7.838 -0.0706 -1.0508 -0.4683
 1394ACTN    H214401   0.591   3.203   7.934 -0.1268  0.0731 -0.1185
 1394ACTN    H314402   0.596   3.146   7.766  0.3300 -0.4847  0.8838
 1395ACTN    H614403   8.528   0.659   3.508  0.0141 -2.1016  1.4179
 1395ACTN    C314404   8.632   0.659   3.540  0.6202  0.0418 -0.4803
 1395ACTN    H414405   8.689   0.621   3.455 -0.5266 -1.6311 -0.5310
 1395ACTN    H514406   8.652   0.765   3.556 -2.6206  0.4052  1.6904
 1395ACTN    C214407   8.664   0.584   3.667  0.2692 -0.4445  0.2798
 1395ACTN    O114408   8.614   0.478   3.685  0.5655  0.2382 -0.3049
 1395ACTN    C114409   8.760   0.652   3.760  0.2117 -0.1156  0.1052
 1395ACTN    H114410   8.696   0.731   3.799  0.4375 -0.7893  1.9258
 1395ACTN    H214411   8.851   0.694   3.717 -0.5091 -0.1355 -1.4605
 1395ACTN    H314412   8.784   0.591   3.847  0.6113  0.4549  0.4056
 1396ACTN    H614413   0.485   8.248   1.915 -0.6399 -1.2237  0.8604
 1396ACTN    C314414   0.559   8.219   1.840 -0.7797  0.3079  0.1097
 1396ACTN    H414415   0.615   8.309   1.818 -1.8454  1.3373  1.4961
 1396ACTN    H514416   0.624   8.142   1.881 -0.3535  1.0250  0.7861
 1396ACTN    C214417   0.487   8.173   1.718 -0.4569  0.0459 -0.2484
 1396ACTN    O114418   0.521   8.069   1.661  0.8205 -0.1039 -0.5407
 1396ACTN    C114419   0.364   8.243   1.670 -0.4518 -0.1465 -0.2328
 1396ACTN    H114420   0.279   8.175   1.667 -0.1916 -0.6366  2.1061
 1396ACTN    H214421   0.394   8.282   1.573 -0.8728 -1.3006 -0.8448
 1396ACTN    H314422   0.335   8.326   1.734  2.0283 -0.7607  1.7617
 1397ACTN    H614423   1.033   3.270   4.440 -1.6003 -0.3865  3.6560
 1397ACTN    C314424   1.105   3.347   4.466 -0.9101  0.1883  0.3282
 1397ACTN    H414425   1.059   3.443   4.446  0.3448  1.0975  1.6768
 1397ACTN    H514426   1.124   3.342   4.574  0.4821 -1.5079  0.0268
 1397ACTN    C214427   1.235   3.330   4.398  0.5316 -0.6483 -0.0548
 1397ACTN    O114428   1.271   3.417   4.318 -0.0764  0.3884 -0.1606
 1397ACTN    C114429   1.335   3.238   4.457 -0.5892  0.5568 -0.0591
 1397ACTN    H114430   1.413   3.202   4.390 -2.1268 -0.8177 -1.1344
 1397ACTN    H214431   1.282   3.156   4.505 -1.8832  0.8870 -0.9054
 1397ACTN    H314432   1.383   3.295   4.537  2.2198 -0.8420 -0.6933
 1398ACTN    H614433   7.521   0.121   5.787  0.3391  0.1348 -1.0895
 1398ACTN    C314434   7.592   0.203   5.791 -0.0447  0.4121  0.4681
 1398ACTN    H414435   7.616   0.211   5.897 -1.1751  1.7437  0.6370
 1398ACTN    H514436   7.682   0.176   5.735  0.2656  0.2254  1.0623
 1398ACTN    C214437   7.527   0.328   5.744 -0.3292 -0.1041 -0.2089
 1398ACTN    O114438   7.441   0.332   5.664 -0.1742  0.1068  0.0676
 1398ACTN    C114439   7.563   0.460   5.812 -0.5226 -0.1303 -0.1630
 1398ACTN    H114440   7.669   0.478   5.791 -0.5405  0.3540  0.1399
 1398ACTN    H214441   7.555   0.435   5.918  0.0437 -2.7206 -0.7043
 1398ACTN    H314442   7.501   0.546   5.785 -0.7282 -0.6490 -1.3802
 1399ACTN    H614443   3.510   8.257   7.963 -1.2820 -1.6759  1.2170
 1399ACTN    C314444   3.602   8.217   8.004 -0.5186  0.1838  1.3299
 1399ACTN    H414445   3.584   8.119   8.049 -2.6433  0.4936  1.1932
 1399ACTN    H514446   3.668   8.198   7.920 -1.0567  1.9114  0.4984
 1399ACTN    C214447   3.652   8.309   8.112 -0.2265 -0.5329  0.8096
 1399ACTN    O114448   3.758   8.374   8.097 -0.3439  0.5802  0.5472
 1399ACTN    C114449   3.602   8.292   8.248 -0.0315  0.4371 -0.2899
 1399ACTN    H114450   3.677   8.253   8.317 -0.1384 -0.7337 -0.8157
 1399ACTN    H214451   3.513   8.229   8.244  1.6356 -2.1168  1.0412
 1399ACTN    H314452   3.567   8.389   8.284  0.2275  0.6140 -0.5132
 1400ACTN    H614453   4.640   7.429   3.961 -0.3704  0.6664 -0.7603
 1400ACTN    C314454   4.585   7.335   3.955 -0.1318  0.5200 -0.6963
 1400ACTN    H414455   4.583   7.319   3.847 -0.6024 -0.7063 -0.5097
 1400ACTN    H514456   4.638   7.249   3.995  0.0238  0.0719 -1.8564
 1400ACTN    C214457   4.457   7.349   4.021  0.4206  0.1046 -0.0316
 1400ACTN    O114458   4.440   7.314   4.144  0.0286 -0.3581  0.0127
 1400ACTN    C114459   4.353   7.433   3.951  0.0023  0.9247  0.5302
 1400ACTN    H114460   4.260   7.378   3.945  0.1924  0.6281  0.3320
 1400ACTN    H214461   4.370   7.449   3.845  2.0754 -2.5945  0.2725
 1400ACTN    H314462   4.336   7.527   4.005  0.0577  0.7839  0.7949
 1401ACTN    H614463   6.335   0.589   1.861  0.3502 -0.6687 -2.5179
 1401ACTN    C314464   6.262   0.509   1.859 -0.6116  0.0211  0.7957
 1401ACTN    H414465   6.231   0.490   1.961 -0.9041 -2.7420  0.2499
 1401ACTN    H514466   6.175   0.547   1.806 -0.2008  2.4453  1.8264
 1401ACTN    C214467   6.335   0.386   1.810  0.2011 -0.3295  0.5779
 1401ACTN    O114468   6.299   0.322   1.709 -0.0865  0.2129 -0.3362
 1401ACTN    C114469   6.469   0.369   1.864 -0.5754 -0.2999  0.3378
 1401ACTN    H114470   6.499   0.267   1.840 -1.3236 -0.8550  1.6685
 1401ACTN    H214471   6.467   0.371   1.973 -0.8691 -1.3413  0.3610
 1401ACTN    H314472   6.532   0.446   1.820 -1.0576 -0.2264 -0.2391
 1402ACTN    H614473   5.115   0.423   4.391  0.7772 -1.3840  1.0775
 1402ACTN    C314474   5.065   0.435   4.487 -0.8037 -0.3437  0.1459
 1402ACTN    H414475   5.133   0.405   4.567 -0.6237  1.4085  0.6921
 1402ACTN    H514476   5.038   0.541   4.490  0.2724 -0.0230 -1.2656
 1402ACTN    C214477   4.942   0.351   4.478 -0.4231 -0.2921  0.0130
 1402ACTN    O114478   4.851   0.403   4.417 -0.0214  0.2883  0.2723
 1402ACTN    C114479   4.925   0.212   4.543 -0.1210  0.0193  0.1211
 1402ACTN    H114480   4.892   0.213   4.647 -0.7232 -1.9981 -0.0256
 1402ACTN    H214481   5.015   0.151   4.550 -1.3543 -1.9449 -0.6596
 1402ACTN    H314482   4.853   0.146   4.495 -0.9217  0.7374  0.3133
 1403ACTN    H614483   1.147   0.882   4.232 -0.3699  0.1746 -0.4799
 1403ACTN    C314484   1.111   0.841   4.327  0.5442  0.4609 -0.0029
 1403ACTN    H414485   1.121   0.733   4.319 -3.2997  0.0661 -0.2166
 1403ACTN    H514486   1.007   0.868   4.343  0.2393 -0.8442  0.2384
 1403ACTN    C214487   1.196   0.881   4.437 -0.6600 -0.3946 -0.3110
 1403ACTN    O114488   1.319   0.881   4.432 -0.1540  0.3484  0.1405
 1403ACTN    C114489   1.139   0.942   4.559 -0.1829  1.0028  0.5097
 1403ACTN    H114490   1.111   1.047   4.545 -0.5345  0.8784  0.2632
 1403ACTN    H214491   1.214   0.934   4.637 -0.0703 -2.5403  0.0869
 1403ACTN    H314492   1.054   0.886   4.599  1.4743 -1.2405  0.9331
 1404ACTN    H614493   0.097   6.297   6.030  0.1082 -0.2721  0.8761
 1404ACTN    C314494   0.009   6.322   5.971  0.4789  0.2909  0.5540
 1404ACTN    H414495  -0.084   6.275   6.004  1.4074 -1.4552  0.7367
 1404ACTN    H514496   0.029   6.288   5.870  0.4560 -2.1554  1.3226
 1404ACTN    C214497  -0.002   6.473   5.978 -0.1296 -0.1404 -0.3984
 1404ACTN    O114498   0.018   6.532   5.874 -0.2110 -0.0336 -0.1212
 1404ACTN    C114499  -0.048   6.544   6.090 -0.0495  0.2203 -0.0073
 1404ACTN    H114500  -0.039   6.484   6.180  0.0365 -1.3760 -1.0512
 1404ACTN    H214501  -0.156   6.560   6.083  0.0165 -0.2062 -2.4138
 1404ACTN    H314502  -0.009   6.644   6.109 -1.6151  0.8433  0.0841
 1405ACTN    H614503   5.426   2.903   5.523  0.2885 -0.1570  2.7134
 1405ACTN    C314504   5.322   2.871   5.524  0.2444 -0.1878  0.3923
 1405ACTN    H414505   5.266   2.955   5.482 -0.4021 -1.1407 -0.6925
 1405ACTN    H514506   5.291   2.858   5.627  0.2960 -1.1492  0.2914
 1405ACTN    C214507   5.298   2.757   5.433  1.0784  0.0069 -0.2263
 1405ACTN    O114508   5.229   2.771   5.328  0.9253 -0.1950  0.4781
 1405ACTN    C114509   5.349   2.626   5.484  0.6817  0.0493 -0.5823
 1405ACTN    H114510   5.328   2.534   5.429 -1.9616 -0.5865  1.3774
 1405ACTN    H214511   5.311   2.604   5.583 -1.3160  0.5595 -1.2059
 1405ACTN    H314512   5.456   2.639   5.499  0.8568  0.2063 -1.8507
 1406ACTN    H614513   7.135   3.017   8.676  0.3863  0.1871 -2.6942
 1406ACTN    C314514   7.035   3.045   8.643 -0.4279  0.2168 -0.2961
 1406ACTN    H414515   6.982   2.960   8.602 -0.5508 -1.2752  2.7622
 1406ACTN    H514516   6.977   3.075   8.731  1.1079 -0.8453  1.1170
 1406ACTN    C214517   7.040   3.152   8.542 -0.0233 -0.3635 -0.2387
 1406ACTN    O114518   7.141   3.215   8.518  1.2843 -1.0119 -0.2844
 1406ACTN    C114519   6.915   3.174   8.462  0.4766 -0.1997 -0.1904
 1406ACTN    H114520   6.829   3.208   8.521  0.2422 -0.9375 -0.1039
 1406ACTN    H214521   6.891   3.079   8.415 -1.0748  0.4869 -0.8044
 1406ACTN    H314522   6.937   3.255   8.393  0.7986  0.3505  0.5437
 1407ACTN    H614523   8.786   6.175   3.711 -0.2729 -1.0389  0.1644
 1407ACTN    C314524   8.883   6.130   3.730  0.2164  0.0280  0.2747
 1407ACTN    H414525   8.873   6.022   3.741 -2.7157  0.3617  1.4762
 1407ACTN    H514526   8.952   6.157   3.650 -0.8471  0.3954 -0.5356
 1407ACTN    C214527   8.924   6.172   3.870 -0.3174 -0.0797  0.2899
 1407ACTN    O114528   8.890   6.281   3.916  0.4954 -0.1534  0.5832
 1407ACTN    C114529   8.986   6.085   3.965 -0.2466  0.3272 -0.0011
 1407ACTN    H114530   8.932   6.085   4.059  0.0230 -3.1132  0.2352
 1407ACTN    H214531   9.091   6.112   3.978  0.5228 -1.0362 -2.8736
 1407ACTN    H314532   8.988   5.984   3.922 -0.6752  0.4928 -0.4194
 1408ACTN    H614533   8.953   8.481   1.696 -0.5387 -2.7961  1.1581
 1408ACTN    C314534   9.001   8.412   1.627  0.1895 -0.3145 -0.8840
 1408ACTN    H414535   9.105   8.398   1.655  1.2873  3.8937 -2.3817
 1408ACTN    H514536   8.948   8.318   1.639  2.1763 -1.3383  0.0420
 1408ACTN    C214537   8.981   8.455   1.487  0.4687  0.0719  0.4294
 1408ACTN    O114538   8.878   8.419   1.423  0.4546 -0.1630 -0.2020
 1408ACTN    C114539   9.093   8.548   1.436 -0.3537  0.4808  0.0420
 1408ACTN    H114540   9.126   8.535   1.332  1.0195  0.0334  0.5178
 1408ACTN    H214541   9.185   8.535   1.493 -1.1113 -2.5828  0.6683
 1408ACTN    H314542   9.060   8.651   1.446 -1.6497  0.1909 -1.0497
 1409ACTN    H614543   3.913   0.608   0.785 -2.1105  1.8584 -0.7867
 1409ACTN    C314544   3.848   0.532   0.741 -0.2780  0.0032 -0.3395
 1409ACTN    H414545   3.774   0.534   0.821  0.8915  0.0692  0.7559
 1409ACTN    H514546   3.804   0.561   0.646  1.5083  0.8256 -0.9452
 1409ACTN    C214547   3.918   0.396   0.736  0.0902  0.1962 -0.0301
 1409ACTN    O114548   3.847   0.296   0.730 -0.7035 -0.4056 -0.0887
 1409ACTN    C114549   4.060   0.391   0.693  1.3264 -0.6115 -0.4595
 1409ACTN    H114550   4.120   0.388   0.784 -0.9660 -1.3226  1.0757
 1409ACTN    H214551   4.072   0.476   0.626  0.5094 -0.8304 -0.9016
 1409ACTN    H314552   4.081   0.309   0.624 -0.4497 -0.3769 -1.3102
 1410ACTN    H614553   6.346   2.894   5.230 -0.3772  0.1164  0.7764
 1410ACTN    C314554   6.425   2.968   5.223 -0.3339 -0.0389 -0.6198
 1410ACTN    H414555   6.506   2.937   5.157  0.0561  0.8196 -0.5535
 1410ACTN    H514556   6.386   3.057   5.173  1.3474  1.4971  0.7167
 1410ACTN    C214557   6.474   2.995   5.364  0.5225 -0.3209 -0.2054
 1410ACTN    O114558   6.398   3.018   5.458 -0.6830 -0.5895 -0.3450
 1410ACTN    C114559   6.609   2.947   5.399  0.0174  0.3737  0.1707
 1410ACTN    H114560   6.689   2.998   5.345  0.2805 -0.5168 -0.2892
 1410ACTN    H214561   6.629   2.846   5.365  1.8040  0.2913  1.3597
 1410ACTN    H314562   6.631   2.955   5.506 -1.8619  0.9054  0.5300
 1411ACTN    H614563   3.201   6.939   4.036  2.1779  1.3134  1.0904
 1411ACTN    C314564   3.201   6.945   3.927  0.2966 -0.3130  0.9764
 1411ACTN    H414565   3.240   7.045   3.909  0.5006 -0.0590  2.7153
 1411ACTN    H514566   3.272   6.876   3.882  0.4790  1.9884 -2.5020
 1411ACTN    C214567   3.063   6.943   3.876  0.1620 -0.5604  0.2225
 1411ACTN    O114568   3.013   7.049   3.840 -0.1353  0.1185  0.1537
 1411ACTN    C114569   3.006   6.812   3.824  0.3198 -0.5253 -1.1053
 1411ACTN    H114570   2.931   6.831   3.747 -0.4451  1.1888  0.0280
 1411ACTN    H214571   2.957   6.757   3.904 -0.7995  2.5774  0.4651
 1411ACTN    H314572   3.081   6.743   3.785  2.6098 -0.1181  2.2959
 1412ACTN    H614573   1.610   1.229   6.696  0.6707  1.0221  0.2702
 1412ACTN    C314574   1.502   1.222   6.711  0.7015  0.4549  0.2148
 1412ACTN    H414575   1.454   1.273   6.628 -0.4150  0.5003  0.8673
 1412ACTN    H514576   1.478   1.115   6.709  1.2389  0.3139  0.9921
 1412ACTN    C214577   1.449   1.286   6.836 -0.0602  0.0037 -0.4901
 1412ACTN    O114578   1.502   1.268   6.948 -0.6029  0.7405  0.1384
 1412ACTN    C114579   1.333   1.385   6.818 -0.0081  0.5671  0.7744
 1412ACTN    H114580   1.272   1.380   6.728  0.6153 -0.0385  0.3837
 1412ACTN    H214581   1.362   1.489   6.834  1.5028  0.6165 -2.0538
 1412ACTN    H314582   1.259   1.361   6.895  2.4866 -2.6256  2.2547
 1413ACTN    H614583   5.825   5.289   0.642 -0.8345  0.5749 -1.6235
 1413ACTN    C314584   5.804   5.368   0.714 -0.0130 -0.6686  0.0155
 1413ACTN    H414585   5.887   5.386   0.782  2.1128  2.4836 -3.1869
 1413ACTN    H514586   5.785   5.458   0.654 -1.5340 -0.3608  0.9196
 1413ACTN    C214587   5.684   5.332   0.799  0.4255  0.7394 -0.2741
 1413ACTN    O114588   5.614   5.420   0.843  0.4148 -0.0698 -0.1180
 1413ACTN    C114589   5.624   5.194   0.805  0.2624 -0.3569 -0.8325
 1413ACTN    H114590   5.623   5.163   0.910 -3.9381  0.7383 -0.4886
 1413ACTN    H214591   5.677   5.126   0.738  0.3125 -0.4141 -0.7346
 1413ACTN    H314592   5.518   5.188   0.784  0.0958 -0.8622  0.0913
 1414ACTN    H614593   5.154   4.040   0.314 -0.7211 -0.9268  1.1852
 1414ACTN    C314594   5.135   4.144   0.342 -0.0859 -0.5880  0.3828
 1414ACTN    H414595   5.063   4.137   0.423 -0.4391  2.0165  0.3204
 1414ACTN    H514596   5.231   4.181   0.379 -0.4920  1.1519 -0.2635
 1414ACTN    C214597   5.076   4.233   0.238  0.5845  0.0083 -0.0138
 1414ACTN    O114598   4.954   4.231   0.240  0.0176 -0.4289 -0.3780
 1414ACTN    C114599   5.152   4.308   0.136  0.3192  0.0192 -0.5909
 1414ACTN    H114600   5.075   4.364   0.083  0.8887  1.7310  0.3557
 1414ACTN    H214601   5.210   4.248   0.066  1.8597 -0.1698  0.7995
 1414ACTN    H314602   5.220   4.382   0.178 -0.8963 -0.3435  2.1145
 1415ACTN    H614603   4.825   3.876   0.818  0.0339 -0.9081 -0.3762
 1415ACTN    C314604   4.892   3.799   0.856  0.3871 -0.3284  0.1785
 1415ACTN    H414605   4.977   3.863   0.878 -0.9555  2.4688 -2.4430
 1415ACTN    H514606   4.845   3.758   0.946 -1.5611 -3.9346 -2.3526
 1415ACTN    C214607   4.916   3.699   0.747 -0.0683  0.4151 -0.0440
 1415ACTN    O114608   4.972   3.737   0.644 -0.0072 -0.6899 -0.7344
 1415ACTN    C114609   4.880   3.560   0.773 -0.2967 -0.3094  0.0627
 1415ACTN    H114610   4.961   3.489   0.755 -1.8954 -2.4229  0.8843
 1415ACTN    H214611   4.796   3.527   0.711  0.3809  1.2410 -1.7118
 1415ACTN    H314612   4.853   3.542   0.877  0.0640 -1.0806  0.0274
 1416ACTN    H614613   3.146   2.660   1.053 -2.0786  1.3137  0.1011
 1416ACTN    C314614   3.166   2.651   0.947 -0.3373  1.3040  0.4070
 1416ACTN    H414615   3.157   2.545   0.922  1.4388  1.1156  0.5436
 1416ACTN    H514616   3.090   2.709   0.892  1.3655  2.6838 -0.5466
 1416ACTN    C214617   3.295   2.704   0.896 -0.1206 -0.1491  0.2649
 1416ACTN    O114618   3.356   2.646   0.803  0.5262  0.0824 -0.4246
 1416ACTN    C114619   3.339   2.842   0.929 -0.4273 -1.5740 -0.7316
 1416ACTN    H114620   3.444   2.845   0.958 -1.0020 -1.9397  1.5161
 1416ACTN    H214621   3.273   2.875   1.009  0.9032 -0.0786 -0.2261
 1416ACTN    H314622   3.328   2.906   0.842  1.9516  1.8449  1.3481
 1417ACTN    H614623   5.540   8.441   4.620  0.6395 -0.2030 -1.1403
 1417ACTN    C314624   5.549   8.346   4.674 -0.1544  0.4298  0.1153
 1417ACTN    H414625   5.652   8.311   4.676  0.0174  1.0326  2.8264
 1417ACTN    H514626   5.522   8.371   4.777  1.0780  1.4630  0.2041
 1417ACTN    C214627   5.453   8.250   4.601  0.4529  0.7119 -0.4984
 1417ACTN    O114628   5.495   8.191   4.499  0.3905  0.1853 -0.3780
 1417ACTN    C114629   5.317   8.226   4.655 -0.7394  1.1615  0.4543
 1417ACTN    H114630   5.313   8.206   4.762  1.2357  3.4514  0.9964
 1417ACTN    H214631   5.264   8.145   4.604 -0.2328  1.2805 -0.2739
 1417ACTN    H314632   5.256   8.315   4.643 -0.1076  1.4246 -0.8973
 1418ACTN    H614633   4.770   4.403   7.865  0.0737  1.7551  0.2535
 1418ACTN    C314634   4.837   4.428   7.783 -0.1099  0.0277 -0.4473
 1418ACTN    H414635   4.824   4.353   7.704  0.4936  0.9861 -1.4721
 1418ACTN    H514636   4.942   4.418   7.809  0.1189 -1.0623 -1.7062
 1418ACTN    C214637   4.812   4.566   7.746  0.2503 -0.2017 -0.2671
 1418ACTN    O114638   4.742   4.635   7.820 -0.0717 -0.0472  0.0792
 1418ACTN    C114639   4.826   4.613   7.598 -0.0765 -0.0423 -0.0007
 1418ACTN    H114640   4.850   4.530   7.532 -1.2599  0.2220 -0.7719
 1418ACTN    H214641   4.904   4.686   7.577  0.3987  0.1364  2.2672
 1418ACTN    H314642   4.729   4.657   7.574  0.7790  1.2711 -1.1137
 1419ACTN    H614643   6.688   6.718   1.031  1.6613 -2.2594 -0.1387
 1419ACTN    C314644   6.613   6.671   1.095 -0.3001 -0.1600 -0.7974
 1419ACTN    H414645   6.594   6.728   1.185 -2.7925 -1.6207 -0.3693
 1419ACTN    H514646   6.520   6.653   1.042 -1.4694  1.6448  0.6094
 1419ACTN    C214647   6.682   6.542   1.132  0.6282 -0.1330  0.3281
 1419ACTN    O114648   6.773   6.506   1.070 -0.3565  0.3657 -0.2992
 1419ACTN    C114649   6.618   6.461   1.240  0.2552  1.0729  0.1866
 1419ACTN    H114650   6.617   6.355   1.213 -2.0938  1.2499 -0.5214
 1419ACTN    H214651   6.512   6.482   1.254 -0.0554  0.9175 -1.7757
 1419ACTN    H314652   6.671   6.470   1.335 -2.2817  0.9452  1.6535
 1420ACTN    H614653   0.595   0.357   5.442  1.2410 -0.3828 -2.7253
 1420ACTN    C314654   0.598   0.458   5.402 -0.5397  0.7909 -0.0415
 1420ACTN    H414655   0.495   0.478   5.373 -0.5039 -1.5628 -1.9325
 1420ACTN    H514656   0.631   0.530   5.478  2.2831  0.9480 -1.3594
 1420ACTN    C214657   0.694   0.465   5.287 -0.6824  0.2398 -0.1675
 1420ACTN    O114658   0.660   0.486   5.168  0.2245  0.0741  0.1732
 1420ACTN    C114659   0.843   0.444   5.323 -0.0675  0.9318 -0.0395
 1420ACTN    H114660   0.884   0.357   5.273 -0.4077  0.8486 -0.1759
 1420ACTN    H214661   0.854   0.427   5.430  0.8581  0.4361 -0.2097
 1420ACTN    H314662   0.906   0.526   5.287 -0.0271  0.4833 -1.0010
 1421ACTN    H614663   2.254   8.820   5.839  1.3080  1.3234 -1.0036
 1421ACTN    C314664   2.212   8.920   5.840 -0.0667  0.7549 -0.3075
 1421ACTN    H414665   2.123   8.919   5.903 -0.4631 -0.1664 -0.8656
 1421ACTN    H514666   2.286   8.972   5.900  0.8866 -2.5154  1.4441
 1421ACTN    C214667   2.179   8.978   5.702 -0.1255  0.4520 -0.1476
 1421ACTN    O114668   2.063   8.974   5.671  0.3342 -0.1577 -0.0635
 1421ACTN    C114669   2.288   9.012   5.609 -0.2247  0.4836  0.6492
 1421ACTN    H114670   2.383   9.006   5.661  0.2191 -1.2946 -0.3222
 1421ACTN    H214671   2.264   9.112   5.570  1.7279  1.2515  1.3836
 1421ACTN    H314672   2.304   8.944   5.525  0.3981  2.4419 -0.8709
 1422ACTN    H614673   4.535   7.611   7.516  1.1801  1.2316 -0.9240
 1422ACTN    C314674   4.500   7.695   7.577  0.0713  0.1753 -0.0662
 1422ACTN    H414675   4.391   7.696   7.579  0.0140 -0.3528 -1.9530
 1422ACTN    H514676   4.533   7.681   7.679  2.6273 -1.1513 -1.0408
 1422ACTN    C214677   4.568   7.818   7.527  0.0837 -0.1934  0.0481
 1422ACTN    O114678   4.511   7.885   7.441 -0.1424  0.0296  0.5360
 1422ACTN    C114679   4.685   7.881   7.594 -0.4001 -0.5948  0.3844
 1422ACTN    H114680   4.687   7.833   7.692 -1.9875 -0.2939  0.5829
 1422ACTN    H214681   4.672   7.989   7.605 -0.5765 -0.3594 -1.9798
 1422ACTN    H314682   4.782   7.867   7.547 -0.3303 -1.3645  0.7459
 1423ACTN    H614683   0.406   1.197   4.572  1.4827 -0.5992  1.5352
 1423ACTN    C314684   0.450   1.174   4.475 -1.3470  0.0971  0.0310
 1423ACTN    H414685   0.491   1.269   4.441 -1.8525  0.4177  0.3139
 1423ACTN    H514686   0.544   1.118   4.474  1.0531  3.9760 -2.5115
 1423ACTN    C214687   0.351   1.126   4.379  0.1513  0.7553 -0.1970
 1423ACTN    O114688   0.287   1.198   4.302  0.4976  0.0979 -0.2479
 1423ACTN    C114689   0.299   0.986   4.398  0.3699 -0.0087  0.3786
 1423ACTN    H114690   0.194   0.971   4.373  0.5756 -0.1801 -0.4010
 1423ACTN    H214691   0.315   0.949   4.499  0.2844 -0.8057  0.1016
 1423ACTN    H314692   0.359   0.930   4.326  1.4069  0.3564  0.9408
 1424ACTN    H614693   8.037   3.821   3.230  1.0964  0.0398 -0.1622
 1424ACTN    C314694   8.055   3.776   3.328  0.4339  0.6176  0.2335
 1424ACTN    H414695   8.069   3.671   3.302  1.6291  0.7999  0.1024
 1424ACTN    H514696   8.139   3.822   3.380  0.5612  0.7182 -0.0566
 1424ACTN    C214697   7.937   3.781   3.429 -0.3017 -0.2448 -0.9572
 1424ACTN    O114698   7.959   3.815   3.548 -0.4714  0.4282 -0.2727
 1424ACTN    C114699   7.796   3.741   3.389 -0.4170 -0.0706 -0.3133
 1424ACTN    H114700   7.752   3.791   3.303 -3.2633  0.5181  1.4136
 1424ACTN    H214701   7.721   3.744   3.468 -0.8855  2.0871 -0.8191
 1424ACTN    H314702   7.798   3.635   3.363  1.4506 -0.0136 -0.4522
 1425ACTN    H614703   0.024   2.406   1.408  1.6581  0.1446 -3.4179
 1425ACTN    C314704  -0.069   2.436   1.359  0.1264  0.0992 -0.6411
 1425ACTN    H414705  -0.121   2.346   1.327  2.0742 -1.0877 -0.5318
 1425ACTN    H514706  -0.138   2.486   1.428  1.3720  0.2450  0.5228
 1425ACTN    C214707  -0.041   2.529   1.243 -0.6365 -0.4057  0.5565
 1425ACTN    O114708  -0.016   2.481   1.133 -0.2499  0.0465 -0.4941
 1425ACTN    C114709  -0.080   2.665   1.260  0.5310 -0.6336 -0.0309
 1425ACTN    H114710  -0.063   2.715   1.165 -0.5183  0.3857  0.3137
 1425ACTN    H214711  -0.014   2.724   1.323  0.0276 -0.1260  0.0236
 1425ACTN    H314712  -0.186   2.684   1.281  1.0262  2.1729  0.0702
 1426ACTN    H614713   8.808   0.314   3.862 -1.8955  1.5404  0.4195
 1426ACTN    C314714   8.748   0.247   3.924  0.1063 -0.3496  0.3691
 1426ACTN    H414715   8.702   0.166   3.866  3.2543 -4.2544  3.0895
 1426ACTN    H514716   8.810   0.189   3.992 -0.2437 -3.4212 -1.8120
 1426ACTN    C214717   8.638   0.323   3.979  0.4428 -0.1169  0.3544
 1426ACTN    O114718   8.653   0.419   4.054  0.4291  0.0492  0.0759
 1426ACTN    C114719   8.506   0.259   3.958  0.5870  0.1684 -0.4424
 1426ACTN    H114720   8.444   0.329   3.901 -0.5011 -0.7681 -0.4144
 1426ACTN    H214721   8.459   0.246   4.055  0.6474  1.9340 -0.1468
 1426ACTN    H314722   8.504   0.170   3.896  0.9401 -0.4982  0.4867
 1427ACTN    H614723   1.027   5.932   7.702  3.0002  0.5942  2.8465
 1427ACTN    C314724   1.043   6.032   7.663 -0.3244  0.2894  0.4574
 1427ACTN    H414725   0.954   6.060   7.608 -1.7110  0.6537  2.8367
 1427ACTN    H514726   1.128   6.023   7.595 -0.9182 -1.7821 -0.0565
 1427ACTN    C214727   1.067   6.118   7.778  0.7204  0.3751 -0.4938
 1427ACTN    O114728   0.984   6.206   7.815 -0.6587 -0.0957  0.0372
 1427ACTN    C114729   1.172   6.078   7.875 -0.0967  0.8991  0.3616
 1427ACTN    H114730   1.261   6.142   7.875  1.1770 -0.8493  0.4764
 1427ACTN    H214731   1.203   5.977   7.850  0.0641  1.6859 -2.7956
 1427ACTN    H314732   1.127   6.081   7.974  1.0708 -3.1223  1.1094
 1428ACTN    H614733   7.035   5.885   1.823  2.6494 -0.8931  1.1839
 1428ACTN    C314734   6.989   5.804   1.880 -0.1631 -0.1919 -0.0195
 1428ACTN    H414735   6.984   5.838   1.983  0.1190 -0.7203  0.1745
 1428ACTN    H514736   6.887   5.788   1.844 -1.2983 -0.5116  3.2413
 1428ACTN    C214737   7.070   5.681   1.861  0.3423 -0.6898 -0.6545
 1428ACTN    O114738   7.090   5.614   1.961 -0.1739  0.1955 -0.1252
 1428ACTN    C114739   7.070   5.615   1.717  0.6195 -0.6430 -0.3877
 1428ACTN    H114740   7.167   5.635   1.670  0.9636  0.5986  0.8082
 1428ACTN    H214741   6.993   5.662   1.655 -0.5798 -0.8655  0.9181
 1428ACTN    H314742   7.061   5.507   1.722 -0.3339 -0.4931  1.3278
 1429ACTN    H614743   7.878   8.390   1.983 -0.8796 -1.4015 -0.6029
 1429ACTN    C314744   7.925   8.293   2.000  0.1390 -0.8447 -0.1852
 1429ACTN    H414745   7.927   8.235   1.907 -1.5389  0.3551 -0.9829
 1429ACTN    H514746   8.028   8.309   2.031 -0.6586  0.3830  1.8757
 1429ACTN    C214747   7.860   8.199   2.103 -0.1523  0.1276  0.5802
 1429ACTN    O114748   7.755   8.140   2.072  0.0399 -0.4810 -0.0586
 1429ACTN    C114749   7.929   8.139   2.228 -0.2686 -0.5926 -0.0041
 1429ACTN    H114750   7.933   8.031   2.218  0.7328 -0.3113 -3.3126
 1429ACTN    H214751   7.864   8.170   2.309  1.8611  0.8482  1.2229
 1429ACTN    H314752   8.024   8.192   2.236 -0.4037 -0.3366 -0.0664
 1430ACTN    H614753   3.300   7.952   2.909  1.2581 -0.6325 -0.5289
 1430ACTN    C314754   3.334   7.982   3.008  0.2429  0.2715 -0.4391
 1430ACTN    H414755   3.426   8.038   2.989 -0.2627  0.6943 -1.6952
 1430ACTN    H514756   3.257   8.043   3.055 -0.6831 -0.0503 -1.5310
 1430ACTN    C214757   3.358   7.851   3.082 -0.1426 -0.0246  0.6303
 1430ACTN    O114758   3.466   7.844   3.143 -0.0465 -0.5901  0.1576
 1430ACTN    C114759   3.253   7.757   3.108 -0.6503  0.2079  0.0900
 1430ACTN    H114760   3.169   7.774   3.040 -0.5332 -1.4086 -0.4744
 1430ACTN    H214761   3.220   7.777   3.209 -0.1428 -0.5681  0.4150
 1430ACTN    H314762   3.284   7.653   3.104  1.7980  0.8960  0.2118
 1431ACTN    H614763   7.215   3.824   2.015 -1.9802 -1.9806  1.8381
 1431ACTN    C314764   7.124   3.883   2.007 -0.6333 -0.1410 -0.3825
 1431ACTN    H414765   7.037   3.827   2.042 -0.1268  0.6533  2.2438
 1431ACTN    H514766   7.139   3.974   2.065  0.4173 -1.3816  1.3306
 1431ACTN    C214767   7.116   3.900   1.859  0.2300 -0.3717 -0.7689
 1431ACTN    O114768   7.001   3.922   1.809 -0.0091  0.2028  0.1454
 1431ACTN    C114769   7.233   3.882   1.768 -0.4380  0.1326  0.6959
 1431ACTN    H114770   7.287   3.798   1.812 -1.6366 -2.0254 -1.7990
 1431ACTN    H214771   7.291   3.974   1.762 -0.3623  0.0564  0.2165
 1431ACTN    H314772   7.206   3.856   1.665  1.4120  0.3199  0.1531
 1432ACTN    H614773   7.963   7.830   4.224  2.3394 -0.2028  0.3160
 1432ACTN    C314774   8.015   7.887   4.301  0.7499  0.5722  0.8349
 1432ACTN    H414775   8.121   7.861   4.296  0.9832  1.8627 -1.1797
 1432ACTN    H514776   8.005   7.991   4.270  0.4795  0.4988  0.6681
 1432ACTN    C214777   7.957   7.874   4.435 -0.2044  0.7873 -0.6801
 1432ACTN    O114778   8.040   7.868   4.530 -0.5081 -0.0997 -0.0683
 1432ACTN    C114779   7.814   7.853   4.450  0.3596  0.5622  0.0192
 1432ACTN    H114780   7.785   7.751   4.473  1.5294  0.1454 -0.3330
 1432ACTN    H214781   7.755   7.897   4.370  1.2641 -0.3935 -1.1888
 1432ACTN    H314782   7.777   7.917   4.530  0.2409 -1.3098  1.4907
 1433ACTN    H614783   8.790   4.065   7.880 -0.4025 -0.7992 -0.6331
 1433ACTN    C314784   8.734   4.137   7.820  0.1864  0.0953 -0.1134
 1433ACTN    H414785   8.643   4.178   7.863  0.2635 -1.0860  1.1953
 1433ACTN    H514786   8.798   4.222   7.798 -0.5447  0.3950 -1.1035
 1433ACTN    C214787   8.709   4.059   7.704 -0.2468  0.4307 -0.2884
 1433ACTN    O114788   8.805   4.033   7.630  0.4118  0.0213  0.6089
 1433ACTN    C114789   8.576   3.992   7.697 -0.1735 -0.2967  0.5668
 1433ACTN    H114790   8.497   4.066   7.709 -0.1724 -0.2443  0.2691
 1433ACTN    H214791   8.562   3.912   7.769 -0.2457  0.9232  1.9311
 1433ACTN    H314792   8.551   3.940   7.604 -2.1048  1.5415  0.0006
 1434ACTN    H614793   5.923   3.402   8.162 -0.7742  1.5745 -0.3800
 1434ACTN    C314794   5.901   3.382   8.266 -0.4283  0.0056 -0.5987
 1434ACTN    H414795   5.793   3.367   8.277 -0.1475 -0.7717  1.2864
 1434ACTN    H514796   5.967   3.299   8.291  0.1037  0.3845 -0.7510
 1434ACTN    C214797   5.935   3.509   8.352  0.8181  0.0494 -0.0462
 1434ACTN    O114798   6.043   3.520   8.407  0.4966  0.0348 -0.0169
 1434ACTN    C114799   5.852   3.625   8.325  0.5043 -0.8691  0.1276
 1434ACTN    H114800   5.873   3.716   8.382 -3.0136 -0.9419  1.6560
 1434ACTN    H214801   5.749   3.601   8.350  0.6894 -0.8384  0.9302
 1434ACTN    H314802   5.860   3.643   8.218  1.8724  0.7711  0.4747
 1435ACTN    H614803   7.877   0.019   5.763 -0.4058 -3.0535 -0.8800
 1435ACTN    C314804   7.960  -0.018   5.824  0.5417  0.5252  0.1093
 1435ACTN    H414805   7.942  -0.124   5.836 -2.3285  1.1605  1.9159
 1435ACTN    H514806   8.053  -0.008   5.769  0.4188  0.5013 -0.1021
 1435ACTN    C214807   7.968   0.035   5.962 -0.1319  0.3102 -0.1510
 1435ACTN    O114808   7.913   0.142   5.971 -0.3513  0.3028 -0.2374
 1435ACTN    C114809   8.034  -0.022   6.082  0.0486  0.0804 -0.3249
 1435ACTN    H114810   8.137  -0.043   6.053  0.3638  1.4139 -0.2207
 1435ACTN    H214811   7.984  -0.114   6.111 -0.8295  0.4711 -0.5737
 1435ACTN    H314812   8.031   0.051   6.163 -0.0602  0.4162 -0.6253
 1436ACTN    H614813   5.466   7.687   3.070 -1.4419 -2.0952  1.1637
 1436ACTN    C314814   5.396   7.766   3.099  0.1328 -0.0378 -0.4479
 1436ACTN    H414815   5.449   7.838   3.161  0.1490 -2.4079  2.3933
 1436ACTN    H514816   5.356   7.815   3.011  1.3599 -0.6684 -1.3862
 1436ACTN    C214817   5.276   7.722   3.170  0.0357  0.5043  0.8790
 1436ACTN    O114818   5.286   7.652   3.268  1.0020  0.3385  1.0216
 1436ACTN    C114819   5.142   7.754   3.107  0.0597 -0.2390 -0.4854
 1436ACTN    H114820   5.055   7.729   3.168  0.5433 -2.0801 -0.5110
 1436ACTN    H214821   5.142   7.705   3.010  1.3750 -0.2876 -0.4734
 1436ACTN    H314822   5.136   7.861   3.090 -1.2341  0.0066  1.3589
 1437ACTN    H614823   7.222   7.843   1.619  0.2068 -0.0867  0.4081
 1437ACTN    C314824   7.142   7.771   1.637  0.2312 -0.1480  0.2636
 1437ACTN    H414825   7.173   7.679   1.687  0.0255  0.5426  1.6820
 1437ACTN    H514826   7.061   7.814   1.695  0.3187 -0.0884  0.3407
 1437ACTN    C214827   7.087   7.728   1.500  0.3737  0.4381 -0.2880
 1437ACTN    O114828   6.984   7.775   1.451 -0.3445  0.3538  0.4866
 1437ACTN    C114829   7.181   7.654   1.400 -0.3220 -0.4774 -0.3471
 1437ACTN    H114830   7.130   7.566   1.361  0.9640 -0.8783 -1.1211
 1437ACTN    H214831   7.268   7.630   1.460 -2.0146 -0.5972  2.1364
 1437ACTN    H314832   7.210   7.714   1.314  0.2887  2.2600  1.6905
 1438ACTN    H614833   2.816   7.323   1.805 -0.4823  0.1373  0.7998
 1438ACTN    C314834   2.803   7.419   1.753  0.2683 -0.4459 -0.5095
 1438ACTN    H414835   2.898   7.471   1.758  1.2343 -2.3241  2.2060
 1438ACTN    H514836   2.779   7.404   1.648 -3.6711  1.7250 -0.0310
 1438ACTN    C214837   2.689   7.476   1.820 -0.4153  0.1241  0.0758
 1438ACTN    O114838   2.586   7.413   1.836  0.2389  0.3314 -0.2086
 1438ACTN    C114839   2.690   7.619   1.866  0.3329 -0.1205  0.1842
 1438ACTN    H114840   2.588   7.654   1.876  0.6674  0.9462 -0.0681
 1438ACTN    H214841   2.756   7.668   1.795  1.1581 -2.2066 -0.5237
 1438ACTN    H314842   2.743   7.634   1.961 -0.0970 -2.2644  0.8075
 1439ACTN    H614843   5.920   8.223   8.404 -1.6596  2.2579  2.2186
 1439ACTN    C314844   5.987   8.206   8.488  0.3495  0.2624  0.2714
 1439ACTN    H414845   6.070   8.276   8.483 -1.9406  3.1057  1.0442
 1439ACTN    H514846   5.927   8.223   8.578  0.8965  0.1160  0.6697
 1439ACTN    C214847   6.016   8.053   8.488  0.1027 -0.1504  0.5248
 1439ACTN    O114848   6.108   8.007   8.554  0.2895  0.0912  0.0247
 1439ACTN    C114849   5.952   7.971   8.381  0.0227 -0.1998  0.2184
 1439ACTN    H114850   6.022   7.998   8.301 -0.2186 -0.3935 -0.0617
 1439ACTN    H214851   5.848   7.983   8.350 -0.2580 -1.7882  0.5303
 1439ACTN    H314852   5.956   7.866   8.408  0.2916 -0.0144  0.8957
 1440ACTN    H614853   2.357   1.347   1.195  0.8317 -1.0349 -1.4070
 1440ACTN    C314854   2.412   1.290   1.270 -0.3179  0.2361  0.4497
 1440ACTN    H414855   2.503   1.250   1.224  0.9476  3.3479  0.1580
 1440ACTN    H514856   2.433   1.365   1.346 -2.7004  1.6584 -0.2620
 1440ACTN    C214857   2.322   1.175   1.321  0.3828  0.2456 -0.6139
 1440ACTN    O114858   2.270   1.096   1.248  0.1957 -0.1558  0.4136
 1440ACTN    C114859   2.334   1.142   1.466  0.3001 -0.1543 -0.0649
 1440ACTN    H114860   2.371   1.232   1.514  0.7050  0.8207 -2.1653
 1440ACTN    H214861   2.411   1.065   1.479 -0.9775 -2.0101 -2.8986
 1440ACTN    H314862   2.239   1.113   1.511  0.6303 -1.6970 -0.3408
 1441ACTN    H614863   7.420   3.520   5.110 -2.1266 -0.2618  0.8055
 1441ACTN    C314864   7.395   3.590   5.030  0.3267  0.1797  0.3822
 1441ACTN    H414865   7.329   3.532   4.966 -1.0520  2.5360 -0.3953
 1441ACTN    H514866   7.332   3.662   5.083 -1.4521 -0.8886 -0.2603
 1441ACTN    C214867   7.510   3.653   4.947 -0.3639  0.0155 -0.6029
 1441ACTN    O114868   7.632   3.631   4.974  0.3713  1.1175  0.2689
 1441ACTN    C114869   7.486   3.734   4.827 -0.0749 -0.1733  0.5550
 1441ACTN    H114870   7.532   3.689   4.739 -0.0631 -2.0276  1.5085
 1441ACTN    H214871   7.521   3.836   4.846  0.9893 -0.1268 -1.4867
 1441ACTN    H314872   7.379   3.746   4.812 -0.2645 -1.5719  0.7802
 1442ACTN    H614873   1.511   2.662   5.040 -0.9338 -1.5971 -1.2917
 1442ACTN    C314874   1.431   2.612   5.094 -0.3331 -0.3340  0.8272
 1442ACTN    H414875   1.363   2.695   5.115  2.2887  2.0410  0.2104
 1442ACTN    H514876   1.390   2.526   5.041  3.1747 -0.0870 -2.4836
 1442ACTN    C214877   1.486   2.561   5.223 -0.0531  0.6993 -0.6700
 1442ACTN    O114878   1.420   2.580   5.320  0.9094  0.4586 -0.2734
 1442ACTN    C114879   1.631   2.560   5.235 -0.4699 -0.4214  0.1212
 1442ACTN    H114880   1.666   2.607   5.326  0.9562  0.3568 -0.8140
 1442ACTN    H214881   1.673   2.624   5.158 -0.3631 -0.4149  0.1860
 1442ACTN    H314882   1.663   2.456   5.223  1.5379  0.2831 -0.8346
 1443ACTN    H614883   2.534   6.810   1.816  0.1533  4.9680 -0.1675
 1443ACTN    C314884   2.616   6.817   1.887  0.1979 -0.4511  0.5294
 1443ACTN    H414885   2.684   6.732   1.875  0.7731  0.0173  0.4332
 1443ACTN    H514886   2.578   6.811   1.989  0.3280  0.1005  0.6124
 1443ACTN    C214887   2.698   6.937   1.866  0.5297  0.5756  0.4390
 1443ACTN    O114888   2.777   6.942   1.768  0.1352 -0.3880  0.3632
 1443ACTN    C114889   2.666   7.047   1.959  1.0896 -0.2623 -0.2952
 1443ACTN    H114890   2.600   7.025   2.043  0.4199 -1.6564 -1.1737
 1443ACTN    H214891   2.609   7.123   1.906  1.8334 -0.0296 -0.7747
 1443ACTN    H314892   2.762   7.077   2.000  1.2908  1.7761 -2.1543
 1444ACTN    H614893   8.710   0.660   1.332 -0.1087  0.6558  0.7447
 1444ACTN    C314894   8.796   0.593   1.325 -0.2691  0.5251 -0.0191
 1444ACTN    H414895   8.750   0.495   1.318 -1.6725  1.0277  1.6089
 1444ACTN    H514896   8.857   0.615   1.237 -0.4067 -0.7072 -0.4219
 1444ACTN    C214897   8.867   0.596   1.458 -0.0868  0.1930  0.0970
 1444ACTN    O114898   8.907   0.701   1.488 -0.0209 -0.1884 -0.4146
 1444ACTN    C114899   8.874   0.476   1.554  0.1779 -0.4277  0.2787
 1444ACTN    H114900   8.957   0.412   1.524 -0.9597 -1.1663 -1.3227
 1444ACTN    H214901   8.785   0.414   1.548  0.7602 -0.9641 -4.0485
 1444ACTN    H314902   8.885   0.509   1.658 -2.7551  0.9066  0.2144
 1445ACTN    H614903   6.933   3.618   3.810 -1.1082  1.4233  0.4645
 1445ACTN    C314904   7.004   3.700   3.800  0.1833  0.2272 -0.2839
 1445ACTN    H414905   7.091   3.677   3.862  0.7210  0.0612 -1.0852
 1445ACTN    H514906   7.023   3.711   3.693  0.7288 -0.6056 -0.2792
 1445ACTN    C214907   6.943   3.825   3.849 -0.0738  0.1573  0.4509
 1445ACTN    O114908   6.825   3.850   3.829 -0.5434 -0.2022 -0.1039
 1445ACTN    C114909   7.040   3.932   3.886  0.0046  0.4655 -0.1972
 1445ACTN    H114910   6.986   4.014   3.934  2.1334  1.0364  1.2496
 1445ACTN    H214911   7.084   3.972   3.794  2.4378  1.2570  1.2803
 1445ACTN    H314912   7.119   3.908   3.956 -0.3622  1.2470  0.4961
 1446ACTN    H614913   4.537   6.603   0.301  0.3746  0.7365  0.1468
 1446ACTN    C314914   4.475   6.646   0.222 -0.0955  0.0922  0.1527
 1446ACTN    H414915   4.397   6.707   0.268  0.6654  2.2579 -1.3319
 1446ACTN    H514916   4.541   6.712   0.166 -0.0540 -1.4618 -1.6498
 1446ACTN    C214917   4.432   6.528   0.135  0.5268  0.6133 -0.0562
 1446ACTN    O114918   4.350   6.542   0.045 -0.4842 -0.5736 -0.3099
 1446ACTN    C114919   4.490   6.394   0.154  0.0304 -0.7011 -0.2072
 1446ACTN    H114920   4.489   6.377   0.261 -0.5402  2.1741  0.2885
 1446ACTN    H214921   4.594   6.395   0.121 -0.3439  1.0185 -1.4502
 1446ACTN    H314922   4.431   6.314   0.110  0.6477 -2.0142  1.3351
 1447ACTN    H614923   6.718   0.707   1.802 -0.7418  0.5175 -1.4183
 1447ACTN    C314924   6.825   0.702   1.781 -0.3937  0.2952  0.2889
 1447ACTN    H414925   6.842   0.643   1.691  0.9264 -1.3894  1.6175
 1447ACTN    H514926   6.866   0.803   1.782  2.7653 -0.9524 -0.2523
 1447ACTN    C214927   6.895   0.634   1.895 -0.1634 -0.7328  0.1011
 1447ACTN    O114928   6.820   0.571   1.965 -0.0054  0.7496  0.6123
 1447ACTN    C114929   7.039   0.588   1.880 -0.5651  0.4075 -0.1853
 1447ACTN    H114930   7.090   0.639   1.798  0.5721 -1.9914 -1.0236
 1447ACTN    H214931   7.055   0.482   1.864  0.3179  0.6228 -0.7975
 1447ACTN    H314932   7.098   0.614   1.967 -0.3794  0.3906 -0.3052
 1448ACTN    H614933   5.723   5.038   6.260  0.8913  0.5064  0.2161
 1448ACTN    C314934   5.738   5.026   6.368  0.2875 -0.2665  0.2223
 1448ACTN    H414935   5.842   5.033   6.397  0.2689 -1.0961  0.4804
 1448ACTN    H514936   5.680   5.105   6.417  1.7404  0.9714  0.0073
 1448ACTN    C214937   5.696   4.898   6.423  0.1207 -0.1532 -0.4882
 1448ACTN    O114938   5.717   4.865   6.541  0.0618  0.1367 -0.2992
 1448ACTN    C114939   5.624   4.793   6.337 -0.6615  0.2188 -0.1392
 1448ACTN    H114940   5.694   4.756   6.262 -2.5338  0.6633 -2.1518
 1448ACTN    H214941   5.543   4.846   6.287 -0.9306  1.9990  2.0920
 1448ACTN    H314942   5.589   4.707   6.393 -2.3038  0.8607 -0.1492
 1449ACTN    H614943   5.236   8.442   2.846  1.2911 -0.3223 -0.5715
 1449ACTN    C314944   5.269   8.515   2.772 -0.2043 -0.0281 -0.9556
 1449ACTN    H414945   5.356   8.562   2.817 -2.1430  0.9867  1.9050
 1449ACTN    H514946   5.310   8.467   2.684 -1.9734 -2.6275 -0.4177
 1449ACTN    C214947   5.173   8.626   2.742 -0.5007 -0.4418  0.2465
 1449ACTN    O114948   5.214   8.736   2.720  0.4554 -0.1231 -0.0807
 1449ACTN    C114949   5.034   8.597   2.759 -0.0889  0.9936 -0.1990
 1449ACTN    H114950   4.990   8.653   2.843 -1.4461  0.3648 -0.4840
 1449ACTN    H214951   4.979   8.620   2.668  0.1650 -0.1332 -0.6317
 1449ACTN    H314952   5.022   8.491   2.780  0.0128  1.3423  1.8024
 1450ACTN    H614953   7.877   0.972   3.556  0.2798  1.0022 -0.1250
 1450ACTN    C314954   7.907   0.977   3.451  0.1451  0.9286 -0.1671
 1450ACTN    H414955   8.005   0.933   3.435  0.6090  1.3314  1.4299
 1450ACTN    H514956   7.841   0.916   3.390 -0.3524  0.4648  0.8206
 1450ACTN    C214957   7.895   1.118   3.400  0.2902 -0.3830  0.9271
 1450ACTN    O114958   8.003   1.170   3.371  0.3574 -0.2359 -0.1189
 1450ACTN    C114959   7.767   1.197   3.432 -0.0678 -0.3872  0.5003
 1450ACTN    H114960   7.742   1.263   3.349  0.5786 -1.6923 -0.7494
 1450ACTN    H214961   7.784   1.248   3.527 -1.1959  0.2534  0.3613
 1450ACTN    H314962   7.686   1.130   3.459  0.2712 -0.3402  1.7084
 1451ACTN    H614963   3.033   8.315   0.115 -0.6351 -0.6841  0.0006
 1451ACTN    C314964   3.017   8.215   0.156  0.3695 -0.5325  0.7690
 1451ACTN    H414965   3.036   8.237   0.262 -0.9506  2.8951  0.3757
 1451ACTN    H514966   2.910   8.197   0.147  0.4950 -0.3058 -1.2205
 1451ACTN    C214967   3.111   8.115   0.098 -0.6046 -0.1687 -0.8095
 1451ACTN    O114968   3.114   8.094  -0.026 -0.3208 -0.6378 -0.0841
 1451ACTN    C114969   3.209   8.052   0.193  0.4523 -0.4029  0.3156
 1451ACTN    H114970   3.308   8.085   0.160 -0.2441  0.4785 -0.9238
 1451ACTN    H214971   3.206   7.944   0.185  0.6237 -0.3498 -0.5336
 1451ACTN    H314972   3.193   8.096   0.291  1.1147  0.9257 -0.1470
 1452ACTN    H614973   2.291   0.671   7.496 -1.3461 -0.0015 -0.2296
 1452ACTN    C314974   2.352   0.613   7.427 -0.0072  0.6799  0.3793
 1452ACTN    H414975   2.391   0.661   7.337  1.9222 -3.2735 -1.0302
 1452ACTN    H514976   2.441   0.576   7.478 -0.0047 -0.4623 -0.4233
 1452ACTN    C214977   2.290   0.493   7.376  0.6347  0.2331  0.1960
 1452ACTN    O114978   2.306   0.444   7.262  0.2944  0.3289  0.1276
 1452ACTN    C114979   2.194   0.429   7.469 -0.4096  0.1499  0.5720
 1452ACTN    H114980   2.140   0.344   7.429  0.6261  0.5482 -1.7459
 1452ACTN    H214981   2.129   0.507   7.507  0.2440  0.3789  1.2245
 1452ACTN    H314982   2.262   0.393   7.546  0.9499  2.0032  0.2820
 1453ACTN    H614983   6.254   8.979   5.193 -1.2209 -0.4156 -0.7976
 1453ACTN    C314984   6.185   8.906   5.235 -0.0730 -1.1079 -0.1161
 1453ACTN    H414985   6.248   8.818   5.250  0.2714 -0.7892  0.3111
 1453ACTN    H514986   6.149   8.955   5.326  2.2618  0.6809 -0.1019
 1453ACTN    C214987   6.077   8.862   5.137 -0.4393  0.4476  0.7413
 1453ACTN    O114988   6.033   8.749   5.133  0.0071  0.3715  0.3661
 1453ACTN    C114989   6.028   8.956   5.028 -0.5463 -0.5886  0.9285
 1453ACTN    H114990   5.919   8.957   5.027 -0.5385 -0.0457 -0.6499
 1453ACTN    H214991   6.081   8.918   4.941 -1.4362 -0.4600  0.3260
 1453ACTN    H314992   6.057   9.059   5.049  0.4202 -0.9339  1.3497
 1454ACTN    H614993   8.182   8.898   7.254  0.2555 -0.7235  0.3787
 1454ACTN    C314994   8.087   8.952   7.250  0.3233 -0.5440  1.0286
 1454ACTN    H414995   8.090   9.060   7.262  0.2916 -0.3869 -0.3284
 1454ACTN    H514996   8.045   8.934   7.151 -0.3096 -0.0641  1.2041
 1454ACTN    C214997   7.995   8.880   7.344  0.0076  0.1552  1.2473
 1454ACTN    O114998   7.928   8.949   7.421 -0.1042  0.6093  0.5255
 1454ACTN    C114999   7.991   8.732   7.362  0.3567 -1.0573 -0.7436
 1454ACTN    H115000   7.941   8.686   7.277 -0.7817  2.0068 -1.7870
 1454ACTN    H215001   7.927   8.713   7.448 -0.7937  2.8392 -0.6530
 1454ACTN    H315002   8.089   8.685   7.372  1.0189  0.6259  1.0789
 1455ACTN    H615003   8.291   8.595   5.410  0.1157  0.3075 -1.2234
 1455ACTN    C315004   8.193   8.558   5.379  0.0018 -0.1036 -0.4048
 1455ACTN    H415005   8.202   8.451   5.398  2.2849  0.3075  0.9990
 1455ACTN    H515006   8.113   8.601   5.439 -0.9712 -1.8535 -0.3957
 1455ACTN    C215007   8.180   8.593   5.234  0.1447 -0.1201  0.1376
 1455ACTN    O115008   8.233   8.528   5.146  0.1429  0.6280  0.5823
 1455ACTN    C115009   8.057   8.661   5.198  0.5327  0.0711 -0.2895
 1455ACTN    H115010   7.983   8.602   5.145 -2.0190  3.5041 -0.7165
 1455ACTN    H215011   8.087   8.733   5.122  1.2720  0.5572  0.4441
 1455ACTN    H315012   8.006   8.711   5.280 -1.8378 -0.4793 -1.4086
 1456ACTN    H615013   6.160   4.345   6.509 -1.4155  0.2149  1.7215
 1456ACTN    C315014   6.222   4.376   6.592 -0.0596 -0.0108  0.8103
 1456ACTN    H415015   6.176   4.444   6.665  1.1003  0.9011  0.7167
 1456ACTN    H515016   6.233   4.280   6.643 -1.2382 -0.5379  0.0932
 1456ACTN    C215017   6.350   4.433   6.538  0.7210  0.5026  0.0083
 1456ACTN    O115018   6.376   4.434   6.420 -0.2479  0.3966 -0.0989
 1456ACTN    C115019   6.459   4.470   6.642  0.3846  0.2303  0.8015
 1456ACTN    H115020   6.439   4.561   6.699 -0.7284 -0.7725  2.0337
 1456ACTN    H215021   6.558   4.467   6.598 -0.3465  0.4510 -0.9141
 1456ACTN    H315022   6.458   4.389   6.714 -1.4539  1.0237  1.7043
 1457ACTN    H615023   4.309   6.621   5.773 -0.4581  1.0592  1.8910
 1457ACTN    C315024   4.336   6.725   5.756 -0.3866  0.8753  0.8345
 1457ACTN    H415025   4.267   6.766   5.682 -1.7366 -0.8380  1.1194
 1457ACTN    H515026   4.321   6.782   5.848  1.0117  1.2339  0.8541
 1457ACTN    C215027   4.476   6.730   5.709 -0.2953 -0.7147 -0.2972
 1457ACTN    O115028   4.566   6.720   5.798 -0.1116 -0.8183 -0.0068
 1457ACTN    C115029   4.509   6.720   5.566 -0.7448  0.1094  0.0965
 1457ACTN    H115030   4.594   6.781   5.534 -2.2751  2.1780 -0.1538
 1457ACTN    H215031   4.418   6.756   5.517 -2.4682 -1.1343  2.3177
 1457ACTN    H315032   4.532   6.619   5.532  0.3791  0.4124 -0.0840
 1458ACTN    H615033   6.958   2.267   5.880  0.0879 -0.1057 -0.3005
 1458ACTN    C315034   6.962   2.242   5.986  0.4195 -0.2595 -0.3487
 1458ACTN    H415035   6.996   2.138   5.990  1.3127  0.0251 -0.4501
 1458ACTN    H515036   7.038   2.304   6.034  2.5289 -2.0297 -1.3027
 1458ACTN    C215037   6.828   2.255   6.055  0.7102  0.5184  1.0566
 1458ACTN    O115038   6.741   2.316   5.986 -0.0926 -0.1967  0.1482
 1458ACTN    C115039   6.801   2.203   6.194  0.5242 -0.1475 -0.4066
 1458ACTN    H115040   6.771   2.098   6.186  2.4138 -0.6649 -1.0307
 1458ACTN    H215041   6.728   2.254   6.256 -1.0938 -1.9750 -0.7612
 1458ACTN    H315042   6.892   2.206   6.254 -0.2636  0.2285  0.7861
 1459ACTN    H615043   4.559   0.520   2.335  2.8258  0.7328  0.3715
 1459ACTN    C315044   4.603   0.428   2.295 -0.2067 -0.5596 -0.1957
 1459ACTN    H415045   4.566   0.406   2.195  0.3204  1.0456 -0.7635
 1459ACTN    H515046   4.709   0.454   2.291 -0.4769  0.8482  1.2264
 1459ACTN    C215047   4.561   0.318   2.392 -0.2724  0.2496 -0.3847
 1459ACTN    O115048   4.570   0.347   2.505 -0.2444 -0.0210 -0.6967
 1459ACTN    C115049   4.502   0.194   2.339  0.7299 -0.2589 -0.1091
 1459ACTN    H115050   4.555   0.167   2.248 -0.1345 -0.3431 -0.5927
 1459ACTN    H215051   4.397   0.201   2.313  0.4626  1.0832  1.2395
 1459ACTN    H315052   4.519   0.112   2.408 -1.2975  1.5756  2.6691
 1460ACTN    H615053   4.626   7.664   4.677 -1.1746  1.7150 -0.0885
 1460ACTN    C315054   4.580   7.601   4.753  0.9689  0.1536 -0.0448
 1460ACTN    H415055   4.512   7.669   4.804 -0.7325 -1.4604 -0.1197
 1460ACTN    H515056   4.526   7.517   4.709 -0.6356  1.6036 -0.8813
 1460ACTN    C215057   4.679   7.548   4.860 -0.1129 -0.2076 -0.3811
 1460ACTN    O115058   4.676   7.603   4.974 -0.3108  0.1315  0.3432
 1460ACTN    C115059   4.787   7.454   4.826 -0.5789  0.4456  0.5812
 1460ACTN    H115060   4.777   7.395   4.734  2.5626 -0.6813  0.9127
 1460ACTN    H215061   4.791   7.388   4.912  0.5027  2.0788  1.7875
 1460ACTN    H315062   4.881   7.506   4.811 -0.5075  0.3636  0.7497
 1461ACTN    H615063   1.491   0.347   4.031  0.5134 -1.0574  0.7150
 1461ACTN    C315064   1.494   0.309   3.929 -0.8399 -0.0821  0.3007
 1461ACTN    H415065   1.402   0.331   3.874 -1.8942  0.0448  2.0766
 1461ACTN    H515066   1.579   0.345   3.871 -1.1272  1.1722  0.6318
 1461ACTN    C215067   1.506   0.161   3.933  0.1637 -0.6923 -0.1610
 1461ACTN    O115068   1.484   0.096   4.035 -0.0286  0.1126  0.3471
 1461ACTN    C115069   1.564   0.108   3.801 -0.7718  0.6950 -1.0437
 1461ACTN    H115070   1.493   0.135   3.723 -1.6651  1.0542 -0.1198
 1461ACTN    H215071   1.577   0.000   3.795 -0.6075  0.6191  0.3977
 1461ACTN    H315072   1.661   0.149   3.774 -0.3587  0.0666 -0.5309
 1462ACTN    H615073   6.860   7.877   4.300  1.8697  1.2784 -0.8548
 1462ACTN    C315074   6.801   7.968   4.311 -0.0585 -0.1347  0.9395
 1462ACTN    H415075   6.739   7.994   4.226  1.7632  1.5768  0.1011
 1462ACTN    H515076   6.738   7.949   4.399  1.8225 -0.3204  2.2712
 1462ACTN    C215077   6.902   8.077   4.344  0.5138 -0.7250  0.3774
 1462ACTN    O115078   6.951   8.084   4.456 -0.1677  0.1206 -0.7169
 1462ACTN    C115079   6.919   8.190   4.245 -0.1062  0.2109 -0.0318
 1462ACTN    H115080   7.026   8.199   4.228 -0.0700 -1.8059 -0.9421
 1462ACTN    H215081   6.873   8.280   4.287  0.8358 -0.3161  2.1952
 1462ACTN    H315082   6.876   8.166   4.148 -0.1914  1.1091 -0.2222
 1463ACTN    H615083   6.330   6.596   6.983  0.9118 -1.2411  0.0400
 1463ACTN    C315084   6.406   6.608   6.906  0.3103 -0.0887 -0.3759
 1463ACTN    H415085   6.411   6.710   6.865 -2.2149  0.7481  1.3191
 1463ACTN    H515086   6.499   6.599   6.962  0.2731  0.1557 -0.2716
 1463ACTN    C215087   6.396   6.503   6.799 -0.3921  0.0185 -0.1145
 1463ACTN    O115088   6.308   6.514   6.712 -0.1313  0.0320  0.4615
 1463ACTN    C115089   6.492   6.384   6.800 -0.0580 -0.0468 -1.0516
 1463ACTN    H115090   6.530   6.350   6.703 -0.1389 -0.7570 -0.8359
 1463ACTN    H215091   6.439   6.303   6.850 -2.4662  1.9323 -0.2812
 1463ACTN    H315092   6.580   6.411   6.858  0.0227 -0.1073 -1.1457
 1464ACTN    H615093   4.845   6.595   7.494  0.5184 -0.3897  0.8885
 1464ACTN    C315094   4.939   6.544   7.470  0.2843  0.0387 -1.0203
 1464ACTN    H415095   5.021   6.615   7.466  0.2502  0.2173  0.8869
 1464ACTN    H515096   4.965   6.485   7.558 -0.9849  0.4364 -0.3634
 1464ACTN    C215097   4.934   6.466   7.350 -0.3723 -0.3238  0.0639
 1464ACTN    O115098   5.018   6.381   7.317 -0.3412 -0.0803  0.0126
 1464ACTN    C115099   4.816   6.496   7.246  0.3846 -0.5158 -0.3718
 1464ACTN    H115100   4.759   6.586   7.269  0.8374 -0.1166 -0.7898
 1464ACTN    H215101   4.747   6.413   7.233  2.7107 -2.6967  0.8935
 1464ACTN    H315102   4.871   6.503   7.152  0.6243 -1.9252 -0.3483
 1465ACTN    H615103   5.643   1.302   5.628 -1.1966 -0.8237  0.9741
 1465ACTN    C315104   5.633   1.387   5.695 -0.4842 -0.1442  0.2253
 1465ACTN    H415105   5.732   1.419   5.726 -0.4414 -0.1007  0.0431
 1465ACTN    H515106   5.577   1.468   5.649 -0.5140  0.6572  1.6542
 1465ACTN    C215107   5.551   1.356   5.813 -0.1190  0.3532  0.8203
 1465ACTN    O115108   5.490   1.248   5.818  0.0990 -0.1643 -0.4161
 1465ACTN    C115109   5.498   1.468   5.895 -0.0319 -0.0282 -0.0856
 1465ACTN    H115110   5.582   1.490   5.961  0.2128  0.7042 -0.6360
 1465ACTN    H215111   5.420   1.421   5.954  0.4797  1.0476  1.4979
 1465ACTN    H315112   5.466   1.557   5.840 -0.0999  0.2813  0.4518
 1466ACTN    H615113   4.123   3.391   4.649 -0.8228  0.6430 -0.0049
 1466ACTN    C315114   4.123   3.369   4.543 -0.0780 -0.0206  0.1283
 1466ACTN    H415115   4.045   3.422   4.487 -1.0051 -0.8317  0.6309
 1466ACTN    H515116   4.222   3.393   4.505 -0.9346  0.0426 -2.1729
 1466ACTN    C215117   4.093   3.227   4.528 -0.1533  0.0311  0.5469
 1466ACTN    O115118   4.049   3.168   4.621  0.6725 -0.3442  0.1007
 1466ACTN    C115119   4.087   3.164   4.393 -0.4506 -0.0363 -0.7284
 1466ACTN    H115120   4.053   3.062   4.410  1.3188 -0.5730 -0.2545
 1466ACTN    H215121   4.177   3.174   4.332  0.2157 -0.3119  0.1887
 1466ACTN    H315122   4.015   3.220   4.334 -1.5013  0.9364  1.4554
 1467ACTN    H615123   2.956   6.039   4.596 -0.7166  1.3722 -2.1608
 1467ACTN    C315124   2.872   6.082   4.652 -0.1565  0.3864 -0.5195
 1467ACTN    H415125   2.796   6.006   4.671  0.2713  0.5990  2.2873
 1467ACTN    H515126   2.914   6.127   4.741  0.2292 -2.0094  0.5614
 1467ACTN    C215127   2.802   6.179   4.567 -0.2535 -0.0188 -0.3108
 1467ACTN    O115128   2.703   6.236   4.596 -0.3768 -0.1328 -0.1021
 1467ACTN    C115129   2.877   6.229   4.449 -0.1178  0.8485  0.0450
 1467ACTN    H115130   2.940   6.310   4.484 -1.8237  2.1598  0.1815
 1467ACTN    H215131   2.818   6.281   4.373 -0.1996  2.5088  1.2009
 1467ACTN    H315132   2.948   6.164   4.398  1.7229  1.3877  1.8620
 1468ACTN    H615133   7.652   0.190   7.733 -0.6728  0.4953 -0.5224
 1468ACTN    C315134   7.547   0.168   7.755 -0.3312 -0.6365  0.0042
 1468ACTN    H415135   7.515   0.223   7.843 -1.3084 -1.8497  0.4219
 1468ACTN    H515136   7.534   0.062   7.778  0.3813 -0.4905  1.1075
 1468ACTN    C215137   7.469   0.214   7.637 -0.6721 -0.1540 -0.0220
 1468ACTN    O115138   7.434   0.143   7.541  0.2485 -0.0265  0.5352
 1468ACTN    C115139   7.428   0.359   7.638 -0.0599  0.2635  0.9106
 1468ACTN    H115140   7.361   0.378   7.554  0.9093 -0.4119 -0.0317
 1468ACTN    H215141   7.514   0.424   7.620 -0.5094  0.2192 -1.6293
 1468ACTN    H315142   7.378   0.387   7.731 -0.9183  0.2964  0.4495
 1469ACTN    H615143   6.046   7.567   3.079  0.6395 -1.3571  2.0416
 1469ACTN    C315144   6.111   7.652   3.099 -0.1969 -0.1853 -0.1156
 1469ACTN    H415145   6.049   7.719   3.159  0.2448 -1.6080  1.9905
 1469ACTN    H515146   6.195   7.622   3.162 -1.1801 -1.3937  0.6388
 1469ACTN    C215147   6.141   7.711   2.971 -0.1157 -0.3598  0.0760
 1469ACTN    O115148   6.134   7.835   2.954 -0.1714 -0.3125 -0.2798
 1469ACTN    C115149   6.202   7.618   2.875  0.5636 -0.2149  0.1263
 1469ACTN    H115150   6.303   7.594   2.907  2.4255  1.5051 -4.1141
 1469ACTN    H215151   6.215   7.664   2.777  1.2070  0.3237  0.4613
 1469ACTN    H315152   6.139   7.528   2.873  0.1495  0.0782 -0.2561
 1470ACTN    H615153   4.587   8.963   4.745 -3.8747 -2.2668  1.7353
 1470ACTN    C315154   4.558   9.068   4.749  0.3510 -0.8274 -1.9298
 1470ACTN    H415155   4.501   9.081   4.840  0.8683  0.4778 -1.7875
 1470ACTN    H515156   4.641   9.139   4.753  1.2809 -2.0135  1.5614
 1470ACTN    C215157   4.478   9.098   4.626  0.0649 -0.2590  0.3280
 1470ACTN    O115158   4.356   9.106   4.637  0.4301 -0.4688  0.0527
 1470ACTN    C115159   4.549   9.130   4.501  0.6222 -0.2346 -0.3404
 1470ACTN    H115160   4.481   9.150   4.418 -1.2887  1.0960  1.5192
 1470ACTN    H215161   4.608   9.043   4.470  1.1484 -0.8627  2.3091
 1470ACTN    H315162   4.619   9.212   4.515 -0.4396  0.5269  0.5589
 1471ACTN    H615163   6.759   7.828   0.903  0.1732 -1.7120  0.3432
 1471ACTN    C315164   6.778   7.788   0.803 -0.4016  0.0475 -0.4874
 1471ACTN    H415165   6.733   7.861   0.736 -3.5080 -2.1954 -0.9261
 1471ACTN    H515166   6.887   7.782   0.808 -0.5356 -2.0767  0.6002
 1471ACTN    C215167   6.709   7.656   0.797  0.3740  0.6471  0.4140
 1471ACTN    O115168   6.776   7.561   0.757  0.8156  0.2223  0.5201
 1471ACTN    C115169   6.566   7.637   0.827  0.6787  0.0492 -0.0891
 1471ACTN    H115170   6.545   7.684   0.923 -1.7474 -2.6377  0.7697
 1471ACTN    H215171   6.539   7.531   0.830  0.9641 -0.0399 -0.6462
 1471ACTN    H315172   6.507   7.684   0.748 -0.2666 -0.4332  0.3148
 1472ACTN    H615173   7.123   3.767   2.342 -0.0160  0.7508 -2.7428
 1472ACTN    C315174   7.228   3.740   2.345 -0.0685  0.8128  0.3536
 1472ACTN    H415175   7.234   3.632   2.331 -0.3026  0.4275  2.8627
 1472ACTN    H515176   7.260   3.781   2.249 -1.9431 -0.4770 -0.8438
 1472ACTN    C215177   7.310   3.787   2.453 -0.5200 -0.3396  0.0275
 1472ACTN    O115178   7.324   3.910   2.459  0.3512 -0.6073  0.5548
 1472ACTN    C115179   7.377   3.693   2.556 -0.2062  0.1848 -0.2313
 1472ACTN    H115180   7.449   3.633   2.500  0.8990 -0.4399  1.7986
 1472ACTN    H215181   7.298   3.637   2.607 -1.2840  1.3362 -0.6094
 1472ACTN    H315182   7.429   3.753   2.630  0.5303 -0.2700 -0.3765
 1473ACTN    H615183   2.319   8.574   0.767 -1.6890 -0.8214  1.0029
 1473ACTN    C315184   2.252   8.617   0.692 -0.1498 -0.0893  0.0189
 1473ACTN    H415185   2.168   8.548   0.691 -0.0422 -0.2768  2.1512
 1473ACTN    H515186   2.314   8.611   0.603  1.0914 -2.1326  0.9692
 1473ACTN    C215187   2.218   8.755   0.737 -0.4448  0.0230 -0.0761
 1473ACTN    O115188   2.311   8.836   0.741  0.0395 -0.2953  1.2590
 1473ACTN    C115189   2.076   8.802   0.763 -0.2909 -0.5744  0.2457
 1473ACTN    H115190   2.056   8.849   0.859  0.6919  0.7186 -0.1722
 1473ACTN    H215191   2.011   8.716   0.749  0.8619 -1.3343 -0.5909
 1473ACTN    H315192   2.048   8.871   0.684  1.2288 -0.0825  0.1237
 1474ACTN    H615193   0.112   3.180   8.824 -0.0169 -1.1528 -0.6437
 1474ACTN    C315194   0.114   3.130   8.920  0.3329  0.1406  0.0324
 1474ACTN    H415195   0.196   3.059   8.929 -0.3651 -0.6365  0.2851
 1474ACTN    H515196   0.121   3.212   8.992 -2.6769  0.3299  0.1699
 1474ACTN    C215197  -0.025   3.067   8.946  0.0183 -0.1945 -0.5609
 1474ACTN    O115198  -0.126   3.125   8.925  0.6063 -0.0826 -0.0789
 1474ACTN    C115199  -0.036   2.919   8.972 -0.0474  0.0294 -0.3547
 1474ACTN    H115200   0.056   2.883   9.018 -0.5713  0.4250  1.0195
 1474ACTN    H215201  -0.046   2.861   8.880 -3.1405 -2.7382  1.5989
 1474ACTN    H315202  -0.122   2.897   9.035 -0.7146 -2.5333 -2.0816
 1475ACTN    H615203   7.879   1.177   1.486 -1.9041  0.3192 -0.7892
 1475ACTN    C315204   7.873   1.285   1.470  0.0941  0.6642  0.6141
 1475ACTN    H415205   7.786   1.313   1.528 -1.4451 -0.9261 -0.8498
 1475ACTN    H515206   7.967   1.329   1.502  0.7185 -1.4912  1.8578
 1475ACTN    C215207   7.844   1.310   1.326 -0.0020 -1.1027 -0.4032
 1475ACTN    O115208   7.853   1.220   1.239  0.7047 -0.5961 -0.0216
 1475ACTN    C115209   7.786   1.449   1.289 -0.3309  0.1937  0.1389
 1475ACTN    H115210   7.858   1.525   1.258 -0.2479 -0.1526 -0.5308
 1475ACTN    H215211   7.725   1.494   1.367 -0.6871 -0.4718  0.2484
 1475ACTN    H315212   7.726   1.449   1.197 -1.5066  1.2429  0.8979
 1476ACTN    H615213   7.890   1.462   4.807 -2.4749  1.7701  0.7787
 1476ACTN    C315214   7.841   1.377   4.853  0.0188 -0.2764 -0.2116
 1476ACTN    H415215   7.850   1.291   4.786  0.2042  1.0388 -1.9033
 1476ACTN    H515216   7.897   1.355   4.943  1.2162 -1.0490 -1.1313
 1476ACTN    C215217   7.700   1.411   4.901  0.2181 -0.2760 -0.0504
 1476ACTN    O115218   7.606   1.420   4.818 -0.3681 -0.1310 -0.0357
 1476ACTN    C115219   7.663   1.431   5.047 -0.1239  0.0449  0.2618
 1476ACTN    H115220   7.708   1.352   5.107  1.0299 -1.0007 -1.9291
 1476ACTN    H215221   7.557   1.441   5.067 -0.3907 -0.0587 -1.0902
 1476ACTN    H315222   7.709   1.524   5.080  0.3787 -0.3929  0.8208
 1477ACTN    H615223   0.470   8.217   2.873  0.7331  0.0042  0.2749
 1477ACTN    C315224   0.395   8.186   2.946 -0.1961  0.7507 -0.3600
 1477ACTN    H415225   0.425   8.210   3.048  2.0259 -0.3198 -0.7410
 1477ACTN    H515226   0.299   8.232   2.921  1.0951  3.7703 -0.0584
 1477ACTN    C215227   0.378   8.037   2.939  1.1212 -0.2643 -0.2726
 1477ACTN    O115228   0.391   7.979   2.835 -0.1019  0.7836  0.1883
 1477ACTN    C115229   0.316   7.976   3.061 -0.2350  0.2533  0.0181
 1477ACTN    H115230   0.379   8.000   3.146 -3.0208  0.7021  2.0544
 1477ACTN    H215231   0.304   7.868   3.047 -0.5374  0.1831  0.8099
 1477ACTN    H315232   0.216   8.014   3.082 -1.6303 -2.4803 -1.3593
 1478ACTN    H615233   7.366   2.206   6.750  1.0248  1.1426 -0.1584
 1478ACTN    C315234   7.445   2.166   6.686  0.5060 -0.4870  0.2053
 1478ACTN    H415235   7.403   2.125   6.594  0.6548 -0.5567  0.1698
 1478ACTN    H515236   7.505   2.247   6.644 -1.2828 -0.3525 -2.1823
 1478ACTN    C215237   7.549   2.079   6.741  0.2919  0.5025  0.1315
 1478ACTN    O115238   7.562   2.066   6.862  0.3091  0.5380  0.4169
 1478ACTN    C115239   7.634   1.999   6.644  0.7050  0.5082 -0.8471
 1478ACTN    H115240   7.643   1.896   6.677 -0.0439  0.6911 -0.0693
 1478ACTN    H215241   7.734   2.042   6.637  0.3458  1.2128 -1.8167
 1478ACTN    H315242   7.606   1.986   6.539  0.7364 -1.3554 -0.6388
 1479ACTN    H615243   6.775   1.165   8.782 -0.7208  1.1579  0.5147
 1479ACTN    C315244   6.819   1.224   8.702 -0.0209 -0.3188 -0.2195
 1479ACTN    H415245   6.834   1.173   8.607 -1.3712 -0.4200 -0.3917
 1479ACTN    H515246   6.917   1.260   8.731 -0.6327 -1.0988  2.9952
 1479ACTN    C215247   6.730   1.345   8.668 -0.1296  0.0024 -0.3826
 1479ACTN    O115248   6.788   1.437   8.614  0.1064 -0.0342  0.0282
 1479ACTN    C115249   6.608   1.358   8.743 -0.2903 -0.3664  0.1184
 1479ACTN    H115250   6.575   1.461   8.730  0.4226 -0.4785 -2.9347
 1479ACTN    H215251   6.619   1.327   8.847  2.6107 -0.6291 -0.2141
 1479ACTN    H315252   6.535   1.292   8.696  1.0812 -2.8002  1.2792
 1480ACTN    H615253   1.084   0.816   5.470 -1.0746 -0.0365  0.7034
 1480ACTN    C315254   1.131   0.746   5.401 -0.5301  0.5129  0.5212
 1480ACTN    H415255   1.062   0.662   5.404 -0.1194  0.2132  1.7624
 1480ACTN    H515256   1.110   0.786   5.302 -2.5810 -1.3054  0.2113
 1480ACTN    C215257   1.276   0.708   5.427  0.4540  0.1359 -0.5309
 1480ACTN    O115258   1.307   0.703   5.543  0.5076 -0.0240 -0.1960
 1480ACTN    C115259   1.381   0.711   5.323 -0.1024  0.3358  1.0475
 1480ACTN    H115260   1.484   0.721   5.357  0.8031  1.1723 -1.7762
 1480ACTN    H215261   1.360   0.789   5.250  3.7844  0.1275 -0.4245
 1480ACTN    H315262   1.380   0.619   5.264 -3.3300  0.4547  0.8439
 1481ACTN    H615263   6.555   1.733   6.816  0.4680 -0.9092  2.3801
 1481ACTN    C315264   6.640   1.713   6.751 -0.6322  0.3197  0.5269
 1481ACTN    H415265   6.621   1.768   6.658 -0.7832 -2.0288 -0.8875
 1481ACTN    H515266   6.728   1.752   6.801 -0.8830  1.0821  0.3817
 1481ACTN    C215267   6.663   1.568   6.733  0.2922  0.6676  0.3081
 1481ACTN    O115268   6.592   1.488   6.791  0.0015  0.0940 -0.1772
 1481ACTN    C115269   6.784   1.515   6.660  0.2739 -0.5742 -0.1065
 1481ACTN    H115270   6.864   1.508   6.734  1.8111 -2.4432 -1.8685
 1481ACTN    H215271   6.809   1.585   6.581 -2.8467 -2.7244 -3.1570
 1481ACTN    H315272   6.763   1.418   6.614 -4.1231 -1.4457  3.3720
 1482ACTN    H615273   0.680   1.306   1.577 -2.6828  0.2735 -0.3546
 1482ACTN    C315274   0.610   1.223   1.585 -0.7691 -1.2649  0.5911
 1482ACTN    H415275   0.564   1.225   1.684 -3.5753 -0.8331 -0.6907
 1482ACTN    H515276   0.537   1.232   1.505 -1.1282 -0.5715  0.9960
 1482ACTN    C215277   0.690   1.098   1.560 -0.3404 -0.4915 -0.3455
 1482ACTN    O115278   0.763   1.050   1.641  0.2066  0.5090  0.0169
 1482ACTN    C115279   0.645   0.997   1.454  0.3725  0.2152 -0.6990
 1482ACTN    H115280   0.721   0.929   1.414  0.0953 -0.0854 -0.7168
 1482ACTN    H215281   0.605   1.040   1.362 -1.9973 -0.8240 -0.2052
 1482ACTN    H315282   0.566   0.932   1.491 -1.3458  1.8309 -1.4632
 1483ACTN    H615283   6.887   8.750   3.343 -0.3367 -0.1529  3.3684
 1483ACTN    C315284   6.778   8.741   3.335 -0.1911  0.3190 -0.1083
 1483ACTN    H415285   6.738   8.778   3.241  1.3728  1.2890 -0.4163
 1483ACTN    H515286   6.749   8.636   3.347  2.6383 -0.2175  3.1938
 1483ACTN    C215287   6.722   8.805   3.458  0.3459 -0.0190  0.6397
 1483ACTN    O115288   6.793   8.816   3.558 -0.1233  0.2308  0.5551
 1483ACTN    C115289   6.587   8.861   3.448 -0.1094 -0.0664 -0.2427
 1483ACTN    H115290   6.546   8.893   3.544  0.7198  0.3265 -0.0064
 1483ACTN    H215291   6.515   8.790   3.409  0.8960 -0.3574 -1.6121
 1483ACTN    H315292   6.582   8.949   3.384  1.5247  0.1635 -0.0762
 1484ACTN    H615293   6.521   3.385   5.708  0.1481 -0.0287 -2.7155
 1484ACTN    C315294   6.552   3.281   5.704  0.8134 -0.0149  0.4858
 1484ACTN    H415295   6.548   3.263   5.811 -3.8788 -0.9369  0.2657
 1484ACTN    H515296   6.462   3.240   5.658 -0.8730  1.6778  2.1861
 1484ACTN    C215297   6.674   3.267   5.627 -0.5641 -0.2446  0.3408
 1484ACTN    O115298   6.759   3.187   5.660  0.0616 -0.5443 -0.6807
 1484ACTN    C115299   6.682   3.335   5.501 -0.3884 -1.0877 -0.0470
 1484ACTN    H115300   6.653   3.440   5.501  1.7398 -0.3986  4.5690
 1484ACTN    H215301   6.616   3.289   5.427 -3.2742  2.2759  0.2674
 1484ACTN    H315302   6.784   3.333   5.463 -0.5057 -1.3615 -0.3543
 1485ACTN    H615303   4.443   8.970   2.681  0.2392  0.1176  1.4094
 1485ACTN    C315304   4.521   8.899   2.653  0.0836  0.3503  0.3757
 1485ACTN    H415305   4.607   8.954   2.614  0.0032  0.5112  0.4248
 1485ACTN    H515306   4.475   8.838   2.574 -0.3054  0.8181  0.2386
 1485ACTN    C215307   4.572   8.811   2.762  0.5270  0.4779  0.4258
 1485ACTN    O115308   4.649   8.860   2.842 -0.0436  0.6004  0.2628
 1485ACTN    C115309   4.566   8.669   2.743 -0.2215 -0.6724  0.5164
 1485ACTN    H115310   4.637   8.612   2.804 -0.9771 -1.2825  0.8272
 1485ACTN    H215311   4.584   8.639   2.640 -1.0298  0.5402  0.0094
 1485ACTN    H315312   4.467   8.631   2.767 -0.0743 -1.1758  0.3174
 1486ACTN    H615313   0.825   2.333   2.894 -1.2014  1.0475 -2.1201
 1486ACTN    C315314   0.772   2.238   2.882  0.5323 -0.1687 -0.2422
 1486ACTN    H415315   0.699   2.232   2.963 -0.1475 -0.6436 -0.8932
 1486ACTN    H515316   0.726   2.242   2.784 -2.1186 -0.5369  0.9463
 1486ACTN    C215317   0.867   2.120   2.900  0.3061 -0.2439 -0.2320
 1486ACTN    O115318   0.952   2.129   2.988 -0.1678  0.5791 -0.1914
 1486ACTN    C115319   0.855   2.001   2.815 -0.4656 -0.6917 -0.0581
 1486ACTN    H115320   0.807   1.915   2.861 -1.7320 -1.3722 -2.5409
 1486ACTN    H215321   0.956   1.972   2.785 -0.7259 -1.3973 -0.2517
 1486ACTN    H315322   0.801   2.030   2.725 -2.8109 -0.8443  1.2806
 1487ACTN    H615323   6.217   3.153   5.091 -0.5206 -0.9670  0.1559
 1487ACTN    C315324   6.129   3.216   5.100  0.3885  0.2374  0.6051
 1487ACTN    H415325   6.160   3.296   5.168 -2.4841  1.8052  0.1625
 1487ACTN    H515326   6.090   3.238   5.001  0.7249 -0.3273  0.3466
 1487ACTN    C215327   6.016   3.146   5.182  0.3426  0.4081  0.1015
 1487ACTN    O115328   5.902   3.133   5.138  0.0071 -0.2423  0.5514
 1487ACTN    C115329   6.058   3.061   5.293 -0.0290 -0.2266  0.8007
 1487ACTN    H115330   6.066   2.958   5.260  1.8643  0.5587 -1.3243
 1487ACTN    H215331   5.983   3.074   5.371 -0.0404  0.0691  0.7438
 1487ACTN    H315332   6.152   3.101   5.332  0.3820 -0.6740  0.2720
 1488ACTN    H615333   4.831   4.807   5.989 -1.1727 -1.3943 -0.5036
 1488ACTN    C315334   4.857   4.860   5.897 -1.0675 -0.5037  0.0294
 1488ACTN    H415335   4.776   4.864   5.824 -0.1331  1.5456 -0.9268
 1488ACTN    H515336   4.898   4.957   5.925 -0.9808 -0.2841 -0.8410
 1488ACTN    C215337   4.968   4.790   5.826  0.0664  0.4261  0.6585
 1488ACTN    O115338   5.011   4.685   5.874 -0.1013  0.1649 -0.4879
 1488ACTN    C115339   5.037   4.848   5.703 -0.2249 -0.3624 -0.9283
 1488ACTN    H115340   4.968   4.872   5.622 -0.2111 -0.2438 -0.9047
 1488ACTN    H215341   5.111   4.776   5.669 -1.7440 -0.6763 -3.7091
 1488ACTN    H315342   5.086   4.937   5.742  0.3738 -1.1556  0.1790
 1489ACTN    H615343   0.118   0.971   7.542 -0.6346 -0.0439  1.0984
 1489ACTN    C315344   0.212   0.956   7.594 -0.2021 -0.2703  0.2713
 1489ACTN    H415345   0.263   1.052   7.589  0.1399 -0.3943  1.2009
 1489ACTN    H515346   0.198   0.921   7.697 -0.3015  0.9424  0.6836
 1489ACTN    C215347   0.281   0.844   7.519 -0.2233 -0.9139 -0.1225
 1489ACTN    O115348   0.361   0.869   7.424 -0.4708  0.6341  0.0598
 1489ACTN    C115349   0.258   0.703   7.555 -0.4345 -0.0604 -0.4094
 1489ACTN    H115350   0.291   0.686   7.658  1.4874 -1.1064 -1.1862
 1489ACTN    H215351   0.292   0.626   7.487 -0.5080 -0.5073  0.0562
 1489ACTN    H315352   0.149   0.696   7.550 -0.3487 -0.6069 -1.6878
 1490ACTN    H615353   1.039   8.987   2.982 -0.6850 -0.0563 -0.4674
 1490ACTN    C315354   0.991   9.045   3.061 -0.1171  0.1124 -0.2392
 1490ACTN    H415355   1.005   8.976   3.144 -1.5730 -1.3163 -1.1617
 1490ACTN    H515356   1.046   9.139   3.069  0.3827 -0.1759 -0.2708
 1490ACTN    C215357   0.847   9.053   3.029 -0.4932 -0.4825 -0.4456
 1490ACTN    O115358   0.784   8.957   2.983  0.3935 -0.2825 -0.0672
 1490ACTN    C115359   0.789   9.198   3.037  1.0713  0.4136 -0.0368
 1490ACTN    H115360   0.861   9.276   3.061 -0.2917  2.6007 -2.8580
 1490ACTN    H215361   0.716   9.198   3.118  2.5510 -2.3879  1.3795
 1490ACTN    H315362   0.741   9.228   2.945 -0.4467 -0.3639  0.4897
 1491ACTN    H615363   1.240   6.679   5.278 -0.7955 -0.2478  2.0599
 1491ACTN    C315364   1.327   6.734   5.316 -1.0056  0.9633  0.8336
 1491ACTN    H415365   1.401   6.747   5.237 -0.7317 -1.8192  0.5667
 1491ACTN    H515366   1.291   6.834   5.340  0.0357  1.4190  0.5084
 1491ACTN    C215367   1.395   6.667   5.434 -0.3004  0.9069 -0.5826
 1491ACTN    O115368   1.470   6.574   5.404 -0.7998 -0.1058 -0.4452
 1491ACTN    C115369   1.388   6.718   5.571  0.4662  0.0160 -1.1352
 1491ACTN    H115370   1.422   6.821   5.566 -1.4151  0.6688 -0.8315
 1491ACTN    H215371   1.438   6.657   5.646  0.7689 -0.4346 -1.6941
 1491ACTN    H315372   1.286   6.720   5.612  0.4795  1.5945 -1.1510
 1492ACTN    H615373   7.644   1.578   8.347  2.3861 -0.1118  0.3450
 1492ACTN    C315374   7.633   1.475   8.313 -0.6409  0.3621 -0.2805
 1492ACTN    H415375   7.532   1.441   8.291 -0.1342 -0.0198 -2.1313
 1492ACTN    H515376   7.696   1.455   8.226 -0.8472 -1.5671 -0.0091
 1492ACTN    C215377   7.687   1.400   8.429  0.1117 -0.3017 -0.5948
 1492ACTN    O115378   7.615   1.389   8.526 -0.3150  0.0500  0.9720
 1492ACTN    C115379   7.813   1.327   8.420  0.1321 -0.2258 -0.1036
 1492ACTN    H115380   7.869   1.344   8.328  0.7358 -0.6091  0.1893
 1492ACTN    H215381   7.795   1.220   8.423 -2.3084  0.1681  0.0245
 1492ACTN    H315382   7.882   1.349   8.501  1.8349 -1.9021 -1.0512
 1493ACTN    H615383   6.034   5.119   1.867  0.5766 -0.1417  0.1355
 1493ACTN    C315384   6.051   5.127   1.760  0.2949  0.3633  0.1283
 1493ACTN    H415385   5.953   5.126   1.711  0.5809 -0.0254 -0.4403
 1493ACTN    H515386   6.098   5.223   1.740  0.5931  0.5049  1.4789
 1493ACTN    C215387   6.142   5.020   1.724  0.2730  0.1830 -0.7296
 1493ACTN    O115388   6.106   4.941   1.639 -0.2682  0.5407  0.1123
 1493ACTN    C115389   6.268   4.996   1.804 -0.2803 -0.1420  0.0396
 1493ACTN    H115390   6.339   5.077   1.813 -1.4154  0.9226 -0.4009
 1493ACTN    H215391   6.324   4.915   1.758 -0.3362 -0.4928  0.5925
 1493ACTN    H315392   6.237   4.963   1.903 -2.3071 -0.8989 -0.8030
 1494ACTN    H615393   2.357   7.673   6.923  0.7793 -0.5354 -2.0557
 1494ACTN    C315394   2.372   7.777   6.892 -0.0358  0.1014 -0.4106
 1494ACTN    H415395   2.451   7.781   6.817 -2.6689 -0.3951 -3.2984
 1494ACTN    H515396   2.276   7.803   6.849  0.0509  0.8092 -0.1863
 1494ACTN    C215397   2.401   7.872   7.006  0.4060  0.3314 -0.6506
 1494ACTN    O115398   2.505   7.928   7.015  1.1648  0.6907  0.2267
 1494ACTN    C115399   2.285   7.920   7.084 -0.1810  0.0705  0.0603
 1494ACTN    H115400   2.306   7.936   7.190  2.4203 -0.3315 -0.3579
 1494ACTN    H215401   2.201   7.851   7.083 -1.4208  1.5752 -1.1155
 1494ACTN    H315402   2.254   8.016   7.041  0.6276 -0.1781 -1.0844
 1495ACTN    H615403   3.106   7.857   4.016  0.9415 -1.5576 -0.5914
 1495ACTN    C315404   3.061   7.875   4.113  0.2758 -0.5580 -1.0753
 1495ACTN    H415405   3.076   7.971   4.163 -2.8899 -0.8818  0.6733
 1495ACTN    H515406   2.953   7.864   4.104  0.2583 -0.2863 -1.2078
 1495ACTN    C215407   3.111   7.771   4.217 -0.0042 -0.0933 -0.4559
 1495ACTN    O115408   3.057   7.763   4.326 -0.0580  0.4649 -0.3701
 1495ACTN    C115409   3.205   7.664   4.174 -0.2664 -1.0446  0.0670
 1495ACTN    H115410   3.203   7.580   4.243  1.3543 -0.0717  1.3244
 1495ACTN    H215411   3.306   7.699   4.153 -0.2232 -0.5748  1.0303
 1495ACTN    H315412   3.171   7.628   4.077 -0.5675  1.4681 -0.7871
 1496ACTN    H615413   6.914   1.947   4.691 -0.5131 -0.1800 -0.4494
 1496ACTN    C315414   6.949   1.851   4.654 -0.2868 -0.3254  0.1362
 1496ACTN    H415415   6.993   1.870   4.556 -1.5089  1.8175 -0.0185
 1496ACTN    H515416   7.030   1.818   4.719 -0.0117  2.3325  1.1889
 1496ACTN    C215417   6.849   1.740   4.652  0.6012  0.0719 -0.0383
 1496ACTN    O115418   6.782   1.708   4.749 -0.0914 -0.0900 -0.2896
 1496ACTN    C115419   6.841   1.662   4.524  0.3776 -0.7290 -0.8367
 1496ACTN    H115420   6.939   1.617   4.511  0.5681 -0.1755 -1.3575
 1496ACTN    H215421   6.815   1.728   4.441 -0.9547 -0.4733 -0.2362
 1496ACTN    H315422   6.758   1.590   4.523 -0.2043 -0.1067  0.7834
 1497ACTN    H615423   0.483   2.133   3.000 -3.8127  0.4705 -2.7409
 1497ACTN    C315424   0.462   2.027   3.017  0.7009 -0.0723  0.2555
 1497ACTN    H415425   0.550   1.981   3.063 -0.3343 -2.2307  0.1175
 1497ACTN    H515426   0.378   2.017   3.086 -0.7060  1.8197 -1.1156
 1497ACTN    C215427   0.437   1.945   2.888 -0.2215  0.1043 -0.2233
 1497ACTN    O115428   0.419   2.000   2.777  0.1224  0.0035 -0.1326
 1497ACTN    C115429   0.405   1.804   2.902  0.0937  0.1461 -0.4976
 1497ACTN    H115430   0.470   1.759   2.977 -1.8954 -0.8092  0.7033
 1497ACTN    H215431   0.432   1.747   2.813  1.6997  0.7100 -0.3878
 1497ACTN    H315432   0.302   1.796   2.937  0.7989 -0.0701  1.5707
 1498ACTN    H615433   4.442   4.428   1.445 -0.3971 -0.8348  0.4590
 1498ACTN    C315434   4.405   4.487   1.361  0.6148 -0.2301  0.4284
 1498ACTN    H415435   4.327   4.553   1.401  0.3208 -0.0796 -0.3833
 1498ACTN    H515436   4.486   4.548   1.323  0.7755 -1.2181 -0.8327
 1498ACTN    C215437   4.339   4.393   1.268  1.0924  0.2801 -0.2582
 1498ACTN    O115438   4.320   4.279   1.306 -0.4031  0.3867 -0.4045
 1498ACTN    C115439   4.312   4.437   1.135  0.1437  0.0831  0.8475
 1498ACTN    H115440   4.307   4.353   1.066 -1.3866  2.8861 -2.6912
 1498ACTN    H215441   4.389   4.507   1.101  0.6060 -1.4814 -1.4659
 1498ACTN    H315442   4.215   4.486   1.125 -0.1925 -0.5730  0.9038
 1499ACTN    H615443   5.414   5.574   4.167 -0.3575 -0.8551 -0.9456
 1499ACTN    C315444   5.505   5.522   4.137  0.4011  0.2307 -0.5919
 1499ACTN    H415445   5.539   5.580   4.051 -3.4531 -0.3299 -2.5999
 1499ACTN    H515446   5.574   5.522   4.221  1.1350  0.6675 -1.1908
 1499ACTN    C215447   5.483   5.380   4.086 -0.4665  0.0019 -0.2754
 1499ACTN    O115448   5.584   5.309   4.065  0.2512 -0.0096  0.2490
 1499ACTN    C115449   5.349   5.337   4.032  0.2413 -0.1438 -0.0985
 1499ACTN    H115450   5.339   5.376   3.931  0.3088 -2.1717 -0.8913
 1499ACTN    H215451   5.275   5.372   4.104  1.3429 -0.1169  1.0544
 1499ACTN    H315452   5.350   5.229   4.021 -0.0202 -0.2646  1.0367
 1500ACTN    H615453   4.177   4.230   5.210  0.9307 -1.0898 -0.3935
 1500ACTN    C315454   4.115   4.208   5.122 -0.0709  0.3673 -0.0670
 1500ACTN    H415455   4.164   4.132   5.061 -2.1034 -0.3318 -0.8479
 1500ACTN    H515456   4.017   4.169   5.150  0.2447 -0.7232 -0.4569
 1500ACTN    C215457   4.106   4.344   5.050  0.2439  0.0733 -0.8786
 1500ACTN    O115458   4.001   4.410   5.033 -1.0732 -0.0837 -0.5222
 1500ACTN    C115459   4.234   4.416   5.020  1.1095 -0.0134  0.0457
 1500ACTN    H115460   4.301   4.421   5.107  1.1486 -0.9074  0.0672
 1500ACTN    H215461   4.211   4.522   5.004 -3.0293 -1.0276 -1.1260
 1500ACTN    H315462   4.282   4.384   4.928 -0.9190 -2.8343 -0.0829
 1501ACTN    H615463   8.163   0.187   2.070 -2.1828  0.9284 -1.2532
 1501ACTN    C315464   8.210   0.155   1.978 -0.1429  0.1195  0.0363
 1501ACTN    H415465   8.242   0.051   1.988  1.4288  0.5300 -0.4452
 1501ACTN    H515466   8.141   0.170   1.894 -1.8672  0.7098  1.5374
 1501ACTN    C215467   8.334   0.239   1.960  0.0465  0.2880  0.5682
 1501ACTN    O115468   8.333   0.356   1.993 -0.3463  0.3178 -0.3287
 1501ACTN    C115469   8.447   0.172   1.886 -0.3859 -0.5736 -0.3307
 1501ACTN    H115470   8.410   0.117   1.800  0.4871  2.0710 -2.4889
 1501ACTN    H215471   8.517   0.111   1.944  1.9129  4.8754  3.0374
 1501ACTN    H315472   8.524   0.244   1.857  2.1754 -3.3714 -0.7851
 1502ACTN    H615473   5.096   3.065   4.053 -0.2516  1.0199  0.3207
 1502ACTN    C315474   5.009   3.026   4.001  0.7712  0.2349 -0.8192
 1502ACTN    H415475   5.026   2.919   3.987 -4.1182 -0.8380  0.3315
 1502ACTN    H515476   4.920   3.037   4.063  1.6018  0.5244  0.3283
 1502ACTN    C215477   4.972   3.085   3.873  0.5606 -0.1611  0.6342
 1502ACTN    O115478   4.910   3.188   3.867  0.8173 -0.4603 -0.4025
 1502ACTN    C115479   5.038   3.043   3.747 -0.3308 -0.0764 -0.7846
 1502ACTN    H115480   4.965   3.040   3.666 -0.2640 -1.5745 -0.7987
 1502ACTN    H215481   5.105   2.958   3.759  0.1648  0.2919 -0.9323
 1502ACTN    H315482   5.117   3.114   3.723  0.7094 -0.0963  2.3213
 1503ACTN    H615483   4.660   7.785   2.957  0.9180 -0.7882  1.0015
 1503ACTN    C315484   4.746   7.848   2.980  0.3804  0.3210 -0.0172
 1503ACTN    H415485   4.831   7.782   2.996  0.9772  1.3074  0.9574
 1503ACTN    H515486   4.773   7.908   2.893  1.9276 -1.1148 -0.5499
 1503ACTN    C215487   4.717   7.930   3.103 -0.0054 -0.0815 -0.3671
 1503ACTN    O115488   4.753   7.893   3.219  0.8907 -0.4431 -0.5455
 1503ACTN    C115489   4.680   8.077   3.086  0.4325 -0.0837  0.4461
 1503ACTN    H115490   4.615   8.110   3.167 -0.6604  2.4828 -1.4070
 1503ACTN    H215491   4.621   8.080   2.995  0.6389  0.3809  0.3261
 1503ACTN    H315492   4.771   8.136   3.076  2.1686 -2.5281  1.5779
 1504ACTN    H615493   8.330   4.568   2.672 -0.5477  2.3250  0.3598
 1504ACTN    C315494   8.259   4.557   2.589 -0.3986 -0.0635  0.5316
 1504ACTN    H415495   8.174   4.497   2.623  0.8716 -1.7833  0.7697
 1504ACTN    H515496   8.227   4.659   2.573 -0.0896 -0.1394 -0.5881
 1504ACTN    C215497   8.318   4.498   2.462 -0.2508  0.4614 -0.4511
 1504ACTN    O115498   8.408   4.558   2.404 -0.4023  0.1494 -0.0331
 1504ACTN    C115499   8.234   4.409   2.384  0.8741  0.0223 -0.5451
 1504ACTN    H115500   8.133   4.409   2.426  0.9057  1.8385 -0.4338
 1504ACTN    H215501   8.268   4.307   2.400 -3.0804 -1.5251 -1.2940
 1504ACTN    H315502   8.240   4.425   2.276  1.9827 -1.0608 -0.6549
 1505ACTN    H615503   8.181   8.728   3.112 -0.0961 -1.1446  1.7686
 1505ACTN    C315504   8.073   8.718   3.097  0.1583 -0.2616 -0.9971
 1505ACTN    H415505   8.050   8.613   3.082  0.0813 -0.1301 -1.7792
 1505ACTN    H515506   8.028   8.739   3.194  0.0508 -3.5845 -0.2616
 1505ACTN    C215507   8.014   8.789   2.980 -0.4298  0.0585 -0.3065
 1505ACTN    O115508   7.977   8.903   2.988 -0.2869  0.2086  0.3678
 1505ACTN    C115509   7.985   8.714   2.853 -0.7406  0.5652 -0.1032
 1505ACTN    H115510   7.985   8.780   2.766 -2.2389 -0.1743 -0.6895
 1505ACTN    H215511   7.891   8.659   2.854 -0.7261  0.5346 -0.4063
 1505ACTN    H315512   8.061   8.637   2.840 -0.1903  0.7856  1.6983
 1506ACTN    H615513   4.022   5.090   3.164 -1.4494 -1.5840  2.4274
 1506ACTN    C315514   4.015   5.015   3.085  0.1285  0.1616  0.5572
 1506ACTN    H415515   4.052   4.916   3.112 -3.2632 -1.6003 -0.9409
 1506ACTN    H515516   3.908   5.016   3.062  0.0417  0.6019  0.9827
 1506ACTN    C215517   4.090   5.068   2.961  0.1845  0.1446  0.1685
 1506ACTN    O115518   4.090   5.015   2.851 -0.1566  0.2374  0.1173
 1506ACTN    C115519   4.157   5.196   2.975 -0.8978  0.5313 -0.3044
 1506ACTN    H115520   4.138   5.235   3.076 -0.8043  2.1503 -0.8956
 1506ACTN    H215521   4.124   5.264   2.897  1.2687 -0.3644 -2.0351
 1506ACTN    H315522   4.266   5.190   2.967 -0.8151  1.2445  0.1808
 1507ACTN    H615523   3.562   2.890   5.235  1.6855  0.5292 -2.3240
 1507ACTN    C315524   3.614   2.798   5.259 -0.0010  0.0665 -0.2965
 1507ACTN    H415525   3.606   2.787   5.367  2.8263  0.0234 -0.0403
 1507ACTN    H515526   3.568   2.714   5.208  0.7101 -1.7788  2.0053
 1507ACTN    C215527   3.754   2.807   5.210 -0.3404 -0.1198  0.6176
 1507ACTN    O115528   3.779   2.836   5.092 -0.3370 -0.2776  0.0313
 1507ACTN    C115529   3.865   2.767   5.307 -0.4670  0.3045 -0.6599
 1507ACTN    H115530   3.826   2.739   5.405  0.5308  0.2840 -0.2588
 1507ACTN    H215531   3.941   2.841   5.331 -0.8170  0.4959 -0.1177
 1507ACTN    H315532   3.925   2.682   5.275 -0.5714 -0.1255  0.2482
 1508ACTN    H615533   6.056   1.757   5.768  0.0798 -2.2166  1.9462
 1508ACTN    C315534   5.996   1.811   5.840 -0.2331  0.3022 -0.1063
 1508ACTN    H415535   6.039   1.778   5.935  0.2538  5.0008  1.4411
 1508ACTN    H515536   6.026   1.916   5.833  0.0507  0.1112 -1.8192
 1508ACTN    C215537   5.852   1.788   5.823 -0.7098  0.6928 -0.0809
 1508ACTN    O115538   5.803   1.685   5.871 -0.6880  0.1068  0.0389
 1508ACTN    C115539   5.758   1.891   5.763 -0.3494  0.1872 -0.1882
 1508ACTN    H115540   5.658   1.849   5.749  0.0265 -1.1082  0.9350
 1508ACTN    H215541   5.796   1.938   5.673 -1.8542  0.1776 -0.8525
 1508ACTN    H315542   5.746   1.971   5.836 -0.2780  0.2561 -0.2523
 1509ACTN    H615543   7.836   3.969   0.348 -0.4224  0.1016  0.1680
 1509ACTN    C315544   7.742   3.945   0.398 -0.6698 -0.1139 -0.4026
 1509ACTN    H415545   7.688   3.876   0.333  1.8681  0.2636 -3.0173
 1509ACTN    H515546   7.677   4.029   0.421 -0.9059 -0.4143  0.0423
 1509ACTN    C215547   7.784   3.872   0.523  0.7837  0.6343 -0.2601
 1509ACTN    O115548   7.706   3.796   0.578 -0.0217 -0.4119 -0.5157
 1509ACTN    C115549   7.928   3.877   0.576  0.0071 -0.3298  0.1714
 1509ACTN    H115550   7.993   3.933   0.508  0.4742  0.0564  0.9396
 1509ACTN    H215551   7.970   3.777   0.589 -0.3872 -0.4425  0.6004
 1509ACTN    H315552   7.931   3.922   0.675  1.2280 -0.6098  0.2662
 1510ACTN    H615553   5.201   2.129   3.940  0.6286 -0.8208 -0.5170
 1510ACTN    C315554   5.187   2.021   3.948 -0.0844 -0.6795  0.1652
 1510ACTN    H415555   5.200   1.977   3.849  1.9596 -0.1231  0.1714
 1510ACTN    H515556   5.258   1.976   4.017 -1.5007 -1.1731  1.3217
 1510ACTN    C215557   5.048   1.994   3.992  0.0591  0.4715 -1.1113
 1510ACTN    O115558   5.032   1.920   4.092 -0.0848  0.0992 -0.3952
 1510ACTN    C115559   4.931   2.069   3.936  0.6007  0.1660 -0.4638
 1510ACTN    H115560   4.963   2.071   3.832  1.1961  0.5061 -0.2773
 1510ACTN    H215561   4.923   2.168   3.981  0.4983  0.8572 -1.9813
 1510ACTN    H315562   4.842   2.008   3.948  0.7933  0.2080  1.4350
 1511ACTN    H615563   8.895   3.999   6.787 -0.7509 -3.2787 -1.0496
 1511ACTN    C315564   8.905   4.036   6.685 -0.1368 -0.3213  0.0230
 1511ACTN    H415565   8.803   4.050   6.649  0.0390 -0.6491 -0.6002
 1511ACTN    H515566   8.948   4.136   6.683 -0.0825 -0.3500 -0.3526
 1511ACTN    C215567   8.984   3.941   6.609 -0.1757 -0.2406  0.5764
 1511ACTN    O115568   8.966   3.823   6.629  0.1675 -0.5620 -0.9256
 1511ACTN    C115569   9.093   3.999   6.529 -0.4699  0.0155 -0.2425
 1511ACTN    H115570   9.151   4.078   6.577 -0.8040  0.1571 -0.0692
 1511ACTN    H215571   9.040   4.028   6.439  1.1414  1.0514 -0.8837
 1511ACTN    H315572   9.166   3.920   6.513 -0.2965  0.1424 -0.0898
 1512ACTN    H615573   1.322   2.889   0.458  0.8354  2.6323 -0.7799
 1512ACTN    C315574   1.248   2.902   0.379 -0.4015 -0.0147 -0.1221
 1512ACTN    H415575   1.195   2.807   0.377 -2.8082  1.2579  1.2535
 1512ACTN    H515576   1.175   2.977   0.410 -3.1042 -1.9877 -1.5150
 1512ACTN    C215577   1.305   2.913   0.241  0.7057 -0.4228 -0.5934
 1512ACTN    O115578   1.367   3.017   0.220 -0.3196 -0.4530 -0.4019
 1512ACTN    C115579   1.287   2.810   0.133  0.5954 -0.3744  0.0357
 1512ACTN    H115580   1.373   2.742   0.130  0.2932 -0.6826 -2.5895
 1512ACTN    H215581   1.281   2.853   0.033 -2.8102  0.6502  0.6380
 1512ACTN    H315582   1.197   2.749   0.143  0.3736 -0.2727 -1.2170
 1513ACTN    H615583   6.240   7.642   7.231  0.0802  1.4096 -0.4644
 1513ACTN    C315584   6.315   7.593   7.168  0.0489  0.4356  0.2369
 1513ACTN    H415585   6.411   7.602   7.219  0.6124 -1.6790 -0.4230
 1513ACTN    H515586   6.298   7.486   7.173  3.6589 -0.2020  0.1019
 1513ACTN    C215587   6.328   7.636   7.032  0.5814 -0.0868 -0.2710
 1513ACTN    O115588   6.232   7.688   6.978 -0.3016  0.1618 -0.0288
 1513ACTN    C115589   6.436   7.584   6.950  0.3917 -0.1720 -0.1992
 1513ACTN    H115590   6.490   7.664   6.900 -1.2083  2.0814  1.6024
 1513ACTN    H215591   6.400   7.522   6.868 -1.1046 -0.3015  0.5291
 1513ACTN    H315592   6.499   7.511   7.002  0.8035 -0.2004 -0.7410
 1514ACTN    H615593   2.104   8.923   8.421 -0.8062  0.8997 -1.1738
 1514ACTN    C315594   2.028   8.940   8.497 -0.1059 -0.1243 -0.2314
 1514ACTN    H415595   1.950   8.981   8.433  1.9426  0.3080 -2.5071
 1514ACTN    H515596   2.007   8.843   8.542 -0.7425  1.2345  2.5684
 1514ACTN    C215597   2.093   9.041   8.582  0.2560 -0.9211 -0.1828
 1514ACTN    O115598   2.039   9.152   8.589 -0.2976 -0.1070 -0.2692
 1514ACTN    C115599   2.241   9.033   8.598  0.6358  0.3198 -0.4496
 1514ACTN    H115600   2.285   9.121   8.647  1.3080 -1.1137  1.5877
 1514ACTN    H215601   2.293   9.011   8.505 -0.1385 -0.8020 -0.6184
 1514ACTN    H315602   2.262   8.943   8.654 -2.2423  0.2255  0.5593
 1515ACTN    H615603   0.350   3.098   0.557  0.1052 -0.9101 -1.3004
 1515ACTN    C315604   0.243   3.088   0.536 -0.2763  0.6474 -0.1782
 1515ACTN    H415605   0.180   3.167   0.577 -1.2094 -1.2594  2.1756
 1515ACTN    H515606   0.218   2.995   0.587  1.5746 -1.6780 -3.3150
 1515ACTN    C215607   0.209   3.073   0.386  0.0366 -0.6391 -0.1161
 1515ACTN    O115608   0.095   3.057   0.351  0.1915 -0.0531 -0.3788
 1515ACTN    C115609   0.317   3.044   0.284  0.0077  0.5129  0.1661
 1515ACTN    H115610   0.362   3.133   0.240  1.8965  0.4938  1.9512
 1515ACTN    H215611   0.282   2.983   0.201 -0.9509 -1.8900  2.2759
 1515ACTN    H315612   0.393   2.993   0.343  1.1288  0.7179 -1.0588
 1516ACTN    H615613   4.840   4.277   0.480 -0.7474  0.2718  0.9888
 1516ACTN    C315614   4.895   4.329   0.559  0.3457  0.8517 -0.1540
 1516ACTN    H415615   4.946   4.418   0.523  1.6728 -0.7103 -2.3494
 1516ACTN    H515616   4.821   4.355   0.633  0.3239  0.3905 -0.0113
 1516ACTN    C215617   4.984   4.237   0.628  0.4814 -0.5200 -0.6350
 1516ACTN    O115618   5.094   4.271   0.675  0.3296 -0.5964 -0.1618
 1516ACTN    C115619   4.915   4.132   0.701  0.4100  0.3072 -0.5770
 1516ACTN    H115620   4.935   4.032   0.661  0.3477  1.0965 -2.6432
 1516ACTN    H215621   4.807   4.139   0.709  0.4451 -1.8930  2.8912
 1516ACTN    H315622   4.946   4.136   0.805 -1.3003 -1.7809  0.0533
 1517ACTN    H615623   4.716   1.541   4.696  0.2043  0.2351 -0.0596
 1517ACTN    C315624   4.675   1.486   4.610  0.3035  0.2322 -0.1047
 1517ACTN    H415625   4.734   1.519   4.525 -1.8464  2.7684 -0.7121
 1517ACTN    H515626   4.702   1.383   4.634  1.2735  0.3898 -0.5027
 1517ACTN    C215627   4.523   1.510   4.608  0.1729  0.4589  0.2230
 1517ACTN    O115628   4.461   1.463   4.511 -0.3371  0.7499  0.1724
 1517ACTN    C115629   4.457   1.550   4.734 -0.5951  0.0214 -0.2451
 1517ACTN    H115630   4.451   1.659   4.736 -2.0513 -0.0294 -1.5034
 1517ACTN    H215631   4.513   1.502   4.815  0.6427 -0.2835 -1.2628
 1517ACTN    H315632   4.360   1.501   4.735 -0.2246 -0.7365 -0.4310
 1518ACTN    H615633   6.902   1.518   6.234  0.4242 -0.3008  1.7556
 1518ACTN    C315634   6.896   1.417   6.195  0.3879  0.1936  0.4448
 1518ACTN    H415635   6.904   1.337   6.269  1.6794 -1.5923 -1.5395
 1518ACTN    H515636   6.795   1.415   6.156 -0.3595  1.8859  2.2291
 1518ACTN    C215637   6.999   1.394   6.087 -0.7557 -0.4150  0.1669
 1518ACTN    O115638   6.952   1.348   5.982 -0.1048 -0.3933  0.3033
 1518ACTN    C115639   7.141   1.375   6.127  0.1703  0.0645 -0.2025
 1518ACTN    H115640   7.205   1.360   6.040  0.5062 -1.0738  0.2355
 1518ACTN    H215641   7.139   1.289   6.194 -0.5129  1.0010  0.9904
 1518ACTN    H315642   7.179   1.460   6.184 -0.2746  1.2034 -1.5603
 1519ACTN    H615643   1.078   2.502   1.429 -0.0363  0.7221 -0.7338
 1519ACTN    C315644   1.092   2.583   1.500 -0.1918 -0.1348  0.2967
 1519ACTN    H415645   1.177   2.553   1.560  1.3181  0.3406 -1.5667
 1519ACTN    H515646   1.115   2.676   1.447  2.1979  0.1986  1.8355
 1519ACTN    C215647   0.972   2.611   1.590  0.3321  0.1250  0.7999
 1519ACTN    O115648   0.889   2.529   1.625 -0.7548  0.7250 -0.4982
 1519ACTN    C115649   0.941   2.747   1.629 -0.5532 -0.5098 -0.3459
 1519ACTN    H115650   0.983   2.813   1.553  1.2819 -0.1464  0.9200
 1519ACTN    H215651   1.002   2.762   1.719  1.3261 -0.6871 -1.5640
 1519ACTN    H315652   0.835   2.758   1.652 -0.0175 -0.5394  2.3088
 1520ACTN    H615653   2.862   5.416   3.584 -2.4314 -0.8195  0.0432
 1520ACTN    C315654   2.861   5.376   3.686 -0.2617 -0.1186  0.3785
 1520ACTN    H415655   2.916   5.283   3.690  0.8301  0.4950 -0.2973
 1520ACTN    H515656   2.915   5.440   3.756  1.5793  0.2667 -1.3652
 1520ACTN    C215657   2.726   5.332   3.726  0.0192  0.4579 -0.6075
 1520ACTN    O115658   2.674   5.366   3.832 -0.1425  0.7127 -0.1785
 1520ACTN    C115659   2.665   5.219   3.652  0.0371  0.2046  0.6692
 1520ACTN    H115660   2.680   5.222   3.544  1.9660 -0.1539  0.9055
 1520ACTN    H215661   2.557   5.227   3.667 -0.0684 -1.2271  0.7814
 1520ACTN    H315662   2.696   5.127   3.702  0.6175 -1.0404 -1.8803
 1521ACTN    H615663   0.407   7.757   8.586  1.2538 -1.9476 -0.0607
 1521ACTN    C315664   0.338   7.783   8.506  0.8038  0.1555  0.9945
 1521ACTN    H415665   0.247   7.723   8.502  2.5067 -2.7139  3.4812
 1521ACTN    H515666   0.314   7.885   8.536  0.3388  0.1263  0.7262
 1521ACTN    C215667   0.389   7.795   8.365  0.5079  0.0167 -0.0750
 1521ACTN    O115668   0.341   7.724   8.283  0.1603  0.3711  0.7520
 1521ACTN    C115669   0.518   7.859   8.338 -0.0185  0.1430 -0.1090
 1521ACTN    H115670   0.516   7.963   8.370  1.6529 -0.0433  0.6741
 1521ACTN    H215671   0.547   7.852   8.233  0.7673  1.6754 -0.0139
 1521ACTN    H315672   0.593   7.808   8.399  0.8023  1.0806 -0.3337
 1522ACTN    H615673   4.392   0.322   4.189  1.5356 -0.7586  2.5564
 1522ACTN    C315674   4.296   0.339   4.236  0.1749 -1.0040 -0.0508
 1522ACTN    H415675   4.244   0.406   4.167  0.9730 -1.6761 -1.3161
 1522ACTN    H515676   4.248   0.242   4.245 -0.8540 -0.4899  0.2342
 1522ACTN    C215677   4.311   0.407   4.374 -0.2792 -0.1783  0.1724
 1522ACTN    O115678   4.430   0.428   4.412  0.2560  0.3480 -0.4332
 1522ACTN    C115679   4.207   0.457   4.460  0.2113 -0.1303 -0.3900
 1522ACTN    H115680   4.142   0.382   4.504  1.6531 -1.5249 -0.5565
 1522ACTN    H215681   4.133   0.521   4.413 -0.3650  0.0792  0.8056
 1522ACTN    H315682   4.246   0.514   4.545 -1.1330  0.0576  0.1002
 1523ACTN    H615683   1.163   8.868   5.506 -2.4578  0.3754  0.0555
 1523ACTN    C315684   1.167   8.942   5.586 -0.3878  0.3915 -0.0259
 1523ACTN    H415685   1.137   9.039   5.547  0.8142  1.4223  1.5569
 1523ACTN    H515686   1.090   8.920   5.660 -0.0382 -2.0860 -0.3475
 1523ACTN    C215687   1.301   8.977   5.643 -0.5490  0.9977  0.2671
 1523ACTN    O115688   1.310   9.074   5.720  0.1081 -0.6542 -0.5406
 1523ACTN    C115689   1.418   8.891   5.615 -0.1298 -0.3500 -0.0837
 1523ACTN    H115690   1.390   8.798   5.565 -1.3859 -0.6062  1.0755
 1523ACTN    H215691   1.457   8.863   5.712 -0.3524 -1.3209 -0.2683
 1523ACTN    H315692   1.489   8.954   5.560  1.4919 -0.3106  2.0099
 1524ACTN    H615693   0.893   3.770   7.724  0.5486  0.1622  0.8006
 1524ACTN    C315694   0.813   3.748   7.795  0.4801 -0.2287  0.6004
 1524ACTN    H415695   0.734   3.821   7.775  1.7013  0.5033 -1.7485
 1524ACTN    H515696   0.790   3.646   7.764 -0.7223 -0.5092  2.3280
 1524ACTN    C215697   0.854   3.756   7.939  0.4182  0.6125 -0.3573
 1524ACTN    O115698   0.953   3.695   7.981 -0.8952 -0.1277  0.6977
 1524ACTN    C115699   0.777   3.831   8.037 -0.1538  0.2511 -0.0970
 1524ACTN    H115700   0.786   3.792   8.138 -0.0424  0.4326 -0.0376
 1524ACTN    H215701   0.672   3.821   8.011 -0.4755  0.9714  0.9421
 1524ACTN    H315702   0.806   3.936   8.033 -1.0205  0.4777 -0.5052
 1525ACTN    H615703   1.577   4.885   0.677  1.2970  0.0348  1.4194
 1525ACTN    C315704   1.626   4.789   0.664  0.1298 -0.3241 -0.4742
 1525ACTN    H415705   1.590   4.748   0.570 -2.8277  0.7421  0.1372
 1525ACTN    H515706   1.735   4.790   0.667  0.1060 -0.0150  3.5588
 1525ACTN    C215707   1.583   4.705   0.776  0.0148 -0.7636  0.3090
 1525ACTN    O115708   1.660   4.676   0.868  0.8689 -0.6798  0.3486
 1525ACTN    C115709   1.441   4.693   0.804 -0.2743 -0.6955 -0.5933
 1525ACTN    H115710   1.406   4.750   0.891  0.3265 -1.7130  0.3307
 1525ACTN    H215711   1.438   4.585   0.819  0.3277 -0.6670 -0.1959
 1525ACTN    H315712   1.391   4.721   0.712 -2.3805 -0.5132  0.5904
 1526ACTN    H615713   8.049   0.126   2.703  1.0622 -1.5143  0.7350
 1526ACTN    C315714   8.147   0.129   2.656  0.8869 -0.1019  0.4338
 1526ACTN    H415715   8.151   0.075   2.561 -0.6807  0.5142 -0.0005
 1526ACTN    H515716   8.174   0.232   2.632  1.3222 -0.5001 -0.8053
 1526ACTN    C215717   8.252   0.065   2.741  0.5483 -0.3801  0.4571
 1526ACTN    O115718   8.300   0.101   2.848  0.3400  0.1888  0.6475
 1526ACTN    C115719   8.311  -0.062   2.693 -0.4939  0.1668  0.3078
 1526ACTN    H115720   8.317  -0.138   2.771  0.4138  1.9903  2.0488
 1526ACTN    H215721   8.408  -0.044   2.647 -0.3244  0.7806  0.9032
 1526ACTN    H315722   8.243  -0.104   2.619 -0.3097 -0.6688  0.6069
 1527ACTN    H615723   3.087   8.579   3.821  1.5618 -1.3283  2.6462
 1527ACTN    C315724   3.175   8.644   3.819  0.2556  0.4188  0.3595
 1527ACTN    H415725   3.226   8.617   3.911  0.9909 -1.4077 -0.5707
 1527ACTN    H515726   3.242   8.628   3.735 -0.7908  1.5445 -0.7127
 1527ACTN    C215727   3.126   8.786   3.834 -0.1729  0.4228 -0.5015
 1527ACTN    O115728   3.082   8.833   3.732  0.9075 -0.2138 -0.0243
 1527ACTN    C115729   3.121   8.857   3.962  0.2431  0.4505 -0.2632
 1527ACTN    H115730   3.217   8.888   4.003  0.6471  1.0350 -1.6152
 1527ACTN    H215731   3.071   8.807   4.045  0.4239  1.0113  0.1904
 1527ACTN    H315732   3.065   8.951   3.960 -1.8397 -0.6486  3.1238
 1528ACTN    H615733   1.314   3.568   7.620  0.0658 -0.5696  0.6542
 1528ACTN    C315734   1.305   3.595   7.725  0.1330 -0.4104  0.6193
 1528ACTN    H415735   1.218   3.534   7.747  0.5116 -1.2935 -0.2772
 1528ACTN    H515736   1.388   3.547   7.777 -0.0469  0.2172  1.4920
 1528ACTN    C215737   1.294   3.736   7.771  0.7835 -0.4924 -0.4545
 1528ACTN    O115738   1.315   3.828   7.693  0.0976  0.5989  0.3432
 1528ACTN    C115739   1.250   3.778   7.908  0.0590 -0.4440  0.1857
 1528ACTN    H115740   1.227   3.696   7.975  1.3342  0.3722  1.6371
 1528ACTN    H215741   1.163   3.841   7.895  0.8801  0.9299  1.3153
 1528ACTN    H315742   1.330   3.833   7.957 -1.0196 -0.1307  1.5978
 1529ACTN    H615743   4.504   6.533   8.089 -0.3160  1.0646  0.3177
 1529ACTN    C315744   4.396   6.532   8.100 -0.3122  0.3822  0.3229
 1529ACTN    H415745   4.363   6.504   8.201  1.2710 -0.3227  0.6537
 1529ACTN    H515746   4.361   6.635   8.093 -0.0105  0.3954 -0.9900
 1529ACTN    C215747   4.324   6.448   8.008  0.9519  0.0526  0.5539
 1529ACTN    O115748   4.388   6.359   7.955 -0.2251 -0.1481  0.0569
 1529ACTN    C115749   4.185   6.471   7.985 -0.3290  0.4097 -0.6530
 1529ACTN    H115750   4.171   6.571   8.028  3.7520  2.8756 -4.5813
 1529ACTN    H215751   4.130   6.394   8.039  1.2308 -0.8323 -0.8020
 1529ACTN    H315752   4.154   6.489   7.882  1.8433  2.1625 -1.0531
 1530ACTN    H615753   6.969   7.137   5.070  2.0185 -0.6029  1.4615
 1530ACTN    C315754   6.899   7.096   5.143 -0.1998  0.2857 -0.0908
 1530ACTN    H415755   6.809   7.157   5.139  0.2288  0.8116 -2.9876
 1530ACTN    H515756   6.865   7.000   5.105  0.8422 -0.2661  0.3317
 1530ACTN    C215757   6.970   7.094   5.280  0.2462 -0.1615 -0.8093
 1530ACTN    O115758   6.971   7.001   5.356 -0.6490  0.4087 -0.1704
 1530ACTN    C115759   7.024   7.225   5.318  0.3099 -0.4022  0.0614
 1530ACTN    H115760   7.132   7.217   5.325  0.2905 -1.2121 -0.6259
 1530ACTN    H215761   6.979   7.253   5.414  2.6244  2.4412  0.3851
 1530ACTN    H315762   6.993   7.298   5.243  0.2665 -0.9022 -0.3997
 1531ACTN    H615763   4.185   6.236   4.975  1.1492  1.5919  1.0135
 1531ACTN    C315764   4.240   6.273   4.888  0.7008  0.0264  0.0268
 1531ACTN    H415765   4.276   6.188   4.831 -0.3551  0.6158 -1.5525
 1531ACTN    H515766   4.170   6.320   4.819 -1.2367 -0.3051  1.7091
 1531ACTN    C215767   4.345   6.365   4.921 -0.2274 -0.0531 -0.5491
 1531ACTN    O115768   4.461   6.341   4.886  0.9034 -0.0894 -0.0304
 1531ACTN    C115769   4.313   6.476   5.011 -0.1298  0.3847 -0.4021
 1531ACTN    H115770   4.369   6.564   4.979  0.0869  0.1387 -0.6998
 1531ACTN    H215771   4.351   6.449   5.110  0.9279 -0.5167 -1.0500
 1531ACTN    H315772   4.206   6.494   5.020  0.0781  0.3811  2.6033
 1532ACTN    H615773   0.229   8.700   2.646 -0.5727 -2.8433  0.4436
 1532ACTN    C315774   0.328   8.659   2.631  0.4328 -0.1695 -0.5834
 1532ACTN    H415775   0.396   8.744   2.626 -0.7573  0.9018  1.2782
 1532ACTN    H515776   0.368   8.589   2.704 -1.0570 -4.0911 -3.3526
 1532ACTN    C215777   0.323   8.586   2.500  0.4205 -0.0590  0.7503
 1532ACTN    O115778   0.241   8.495   2.486 -0.0669 -0.1742  0.3926
 1532ACTN    C115779   0.417   8.625   2.396 -0.1973 -0.2414 -0.8553
 1532ACTN    H115780   0.490   8.696   2.435 -0.3795 -0.4662 -0.1046
 1532ACTN    H215781   0.358   8.681   2.323 -1.0001  1.3476  0.9653
 1532ACTN    H315782   0.459   8.536   2.351  2.0791 -0.1053  0.9438
 1533ACTN    H615783   1.651   2.318   8.182 -0.3685  0.8984  0.7318
 1533ACTN    C315784   1.548   2.304   8.147  0.0896  0.4252 -0.4571
 1533ACTN    H415785   1.488   2.372   8.207  1.3266 -0.2910  1.6411
 1533ACTN    H515786   1.540   2.342   8.045 -1.1672 -0.2421 -0.6085
 1533ACTN    C215787   1.503   2.167   8.144  0.0350 -0.0245 -0.6252
 1533ACTN    O115788   1.569   2.079   8.090  0.0745  0.6348 -0.3889
 1533ACTN    C115789   1.380   2.123   8.226 -0.3501 -0.3071  0.9145
 1533ACTN    H115790   1.380   2.155   8.330 -3.2443 -0.2266  0.9383
 1533ACTN    H215791   1.385   2.014   8.219  0.1684 -0.3670  2.0950
 1533ACTN    H315792   1.288   2.154   8.176 -0.5317 -0.9742  0.8253
 1534ACTN    H615793   2.417   5.211   8.503 -1.0427 -2.0259 -0.6462
 1534ACTN    C315794   2.400   5.212   8.610  0.4206  0.1996 -0.4007
 1534ACTN    H415795   2.310   5.152   8.623 -1.4724  2.6840 -1.7104
 1534ACTN    H515796   2.478   5.161   8.666  0.8296  0.0306 -1.1235
 1534ACTN    C215797   2.377   5.355   8.658 -0.9449 -0.1263  0.2591
 1534ACTN    O115798   2.266   5.396   8.654 -0.3555 -0.3518  0.8828
 1534ACTN    C115799   2.500   5.443   8.685  0.6600  0.2824  0.5368
 1534ACTN    H115800   2.525   5.437   8.791  1.3589 -0.7646  0.3165
 1534ACTN    H215801   2.488   5.549   8.662 -0.6609 -0.0451 -0.3143
 1534ACTN    H315802   2.576   5.402   8.618 -0.5418 -1.1818  0.0550
 1535ACTN    H615803   2.624   4.687   3.979  1.0429  0.3601 -1.0203
 1535ACTN    C315804   2.587   4.788   3.959 -0.3308  0.2709  1.0495
 1535ACTN    H415805   2.668   4.844   3.914 -0.8294 -1.3798 -2.0392
 1535ACTN    H515806   2.526   4.766   3.872  0.8915  3.3932 -0.6749
 1535ACTN    C215807   2.505   4.857   4.068 -0.4965 -0.6917  0.5336
 1535ACTN    O115808   2.540   4.844   4.188  0.6251  0.0701  0.1157
 1535ACTN    C115809   2.412   4.959   4.018  1.1198 -0.6746 -0.0510
 1535ACTN    H115810   2.335   4.911   3.957  0.7842 -0.0860 -0.0898
 1535ACTN    H215811   2.452   5.039   3.956 -1.2097  0.9490  0.4786
 1535ACTN    H315812   2.370   5.008   4.106  0.1409  0.7921 -1.3137
 1536ACTN    H615813   1.134   2.335   6.153  0.7986  1.3450 -1.5659
 1536ACTN    C315814   1.124   2.419   6.222 -0.9933  0.0585 -0.2170
 1536ACTN    H415815   1.221   2.424   6.271 -0.6901 -2.2365 -0.5435
 1536ACTN    H515816   1.104   2.512   6.168  0.1476  0.2054 -0.3885
 1536ACTN    C215817   1.028   2.397   6.334 -0.3225  0.4534  0.0642
 1536ACTN    O115818   0.933   2.467   6.338 -0.0813  0.0580 -0.7775
 1536ACTN    C115819   1.068   2.301   6.449  0.1897  0.4506 -0.5466
 1536ACTN    H115820   1.072   2.199   6.413  1.4044  0.9331 -1.8116
 1536ACTN    H215821   0.986   2.305   6.521 -1.1607  1.1305 -2.1136
 1536ACTN    H315822   1.162   2.321   6.500 -1.0225 -0.8361  2.3367
 1537ACTN    H615823   6.515   1.260   6.592 -0.9879 -0.1000 -0.4925
 1537ACTN    C315824   6.554   1.229   6.495 -0.2124  0.0048 -0.2237
 1537ACTN    H415825   6.627   1.303   6.463 -0.8511  0.3278 -0.9604
 1537ACTN    H515826   6.601   1.131   6.491 -0.0622 -0.0419  2.1386
 1537ACTN    C215827   6.438   1.222   6.400  0.4947 -0.1207  0.1766
 1537ACTN    O115828   6.335   1.259   6.453  0.2232  0.3158  0.7965
 1537ACTN    C115829   6.447   1.201   6.254 -0.1868 -0.2268  0.4253
 1537ACTN    H115830   6.367   1.131   6.230  0.2342 -1.3446  2.1748
 1537ACTN    H215831   6.546   1.161   6.229  1.2336  2.0745  2.1965
 1537ACTN    H315832   6.431   1.289   6.192 -0.6047 -1.4509 -1.2652
 1538ACTN    H615833   5.437   7.887   4.388  2.1525  0.2020 -0.6793
 1538ACTN    C315834   5.421   7.908   4.282 -0.9572  0.1111 -0.2711
 1538ACTN    H415835   5.481   7.997   4.268  2.7279 -2.5900 -2.3193
 1538ACTN    H515836   5.473   7.827   4.232 -0.3679  0.9424 -1.0189
 1538ACTN    C215837   5.288   7.926   4.226  0.4295  0.3167 -0.2813
 1538ACTN    O115838   5.186   7.909   4.292 -0.0573 -0.1148  0.4664
 1538ACTN    C115839   5.286   7.968   4.086 -0.1060 -0.2761  0.6099
 1538ACTN    H115840   5.272   8.076   4.094 -3.1566 -0.6897  1.4528
 1538ACTN    H215841   5.190   7.937   4.045 -0.3810  3.2286 -1.5381
 1538ACTN    H315842   5.376   7.935   4.034  0.3130  0.2124  1.0181
 1539ACTN    H615843   5.770   0.604   4.655 -0.9453 -0.2077  2.0021
 1539ACTN    C315844   5.671   0.629   4.618 -0.2309  0.5077  0.5076
 1539ACTN    H415845   5.606   0.672   4.695 -0.1961  2.5010 -0.5543
 1539ACTN    H515846   5.692   0.717   4.557 -0.7256  0.5339  0.3742
 1539ACTN    C215847   5.615   0.516   4.530  0.2738  0.7837 -0.6230
 1539ACTN    O115848   5.644   0.515   4.414 -0.0039 -0.4700 -0.1392
 1539ACTN    C115849   5.539   0.411   4.599  0.6780 -0.3059 -0.7429
 1539ACTN    H115850   5.432   0.422   4.610  1.0718  0.2101  3.6071
 1539ACTN    H215851   5.587   0.393   4.695 -1.7126 -0.2754  0.4857
 1539ACTN    H315852   5.552   0.322   4.537  0.7729  0.0478 -1.2328
 1540ACTN    H615853   4.862   0.910   0.207  0.2186  0.6950  3.2981
 1540ACTN    C315854   4.757   0.938   0.194  0.5560  0.4177 -0.4420
 1540ACTN    H415855   4.753   1.044   0.166 -2.1597  0.0669 -1.5015
 1540ACTN    H515856   4.723   0.890   0.102  1.4106 -2.7398  0.8212
 1540ACTN    C215857   4.662   0.898   0.314 -0.0198 -0.2474 -0.6259
 1540ACTN    O115858   4.683   0.935   0.429  0.5282  0.1551 -0.0585
 1540ACTN    C115859   4.551   0.804   0.284  0.4596  0.2377  0.2991
 1540ACTN    H115860   4.480   0.791   0.366  0.2565  2.0492  0.4272
 1540ACTN    H215861   4.592   0.704   0.276  0.5381  0.1245  1.9456
 1540ACTN    H315862   4.490   0.824   0.196 -0.7918  0.8538  1.2793
 1541ACTN    H615863   2.776   6.100   2.847  0.3980  0.5558 -1.2283
 1541ACTN    C315864   2.880   6.081   2.825  0.2512 -0.8204 -0.7934
 1541ACTN    H415865   2.870   6.056   2.719 -1.3810 -0.1569 -0.7917
 1541ACTN    H515866   2.945   6.167   2.840 -1.7001  0.7097 -1.0167
 1541ACTN    C215867   2.939   5.961   2.886  0.5279 -0.3456  0.0084
 1541ACTN    O115868   3.010   5.975   2.984 -0.5689 -0.0668 -0.3752
 1541ACTN    C115869   2.894   5.829   2.834  0.1773  0.5639 -0.3825
 1541ACTN    H115870   2.970   5.791   2.767 -0.7600 -1.6325 -0.2750
 1541ACTN    H215871   2.806   5.851   2.774  0.5759 -0.3242 -1.2920
 1541ACTN    H315872   2.862   5.754   2.907  1.7093 -0.3453 -0.6429
 1542ACTN    H615873   7.770   8.340   7.261 -1.8460  0.8120  1.1584
 1542ACTN    C315874   7.759   8.423   7.192 -0.5537  0.1540  0.1377
 1542ACTN    H415875   7.753   8.517   7.247 -1.3423 -0.0509  0.4134
 1542ACTN    H515876   7.851   8.425   7.134  0.4683 -1.0205  1.6824
 1542ACTN    C215877   7.636   8.398   7.109  0.2310  0.0214 -0.3406
 1542ACTN    O115878   7.646   8.332   7.009  0.0548 -0.0698  0.3769
 1542ACTN    C115879   7.502   8.420   7.154 -0.7430  0.2472  0.8088
 1542ACTN    H115880   7.468   8.324   7.193 -0.8852 -0.3057 -0.6537
 1542ACTN    H215881   7.436   8.447   7.072 -0.2228  0.5931  0.5000
 1542ACTN    H315882   7.497   8.483   7.242  1.3407 -1.8914  2.5339
 1543ACTN    H615883   2.186   7.541   2.702 -0.1718  0.5815 -0.8056
 1543ACTN    C315884   2.291   7.568   2.693  0.1175 -0.2123  0.0711
 1543ACTN    H415885   2.309   7.663   2.743  1.8094  0.0919 -1.0711
 1543ACTN    H515886   2.367   7.501   2.733  1.4447  1.4975  0.4892
 1543ACTN    C215887   2.322   7.585   2.546 -0.0619  0.0060 -0.7718
 1543ACTN    O115888   2.230   7.599   2.466  0.4180  0.7040 -0.2542
 1543ACTN    C115889   2.456   7.563   2.494  0.0562 -0.3578 -0.2326
 1543ACTN    H115890   2.457   7.480   2.423  0.5002  0.3792 -1.0994
 1543ACTN    H215891   2.518   7.537   2.580  2.8105 -0.3514 -2.1713
 1543ACTN    H315892   2.501   7.645   2.439 -0.0347  0.3865  0.8006
 1544ACTN    H615893   6.375   5.392   3.372 -1.2631  0.9515  0.3680
 1544ACTN    C315894   6.324   5.420   3.280 -0.9813 -0.6489 -0.2867
 1544ACTN    H415895   6.221   5.385   3.277 -0.9760 -0.5465 -2.2803
 1544ACTN    H515896   6.329   5.528   3.268  1.1691 -0.4561  1.9337
 1544ACTN    C215897   6.408   5.362   3.163  0.5048 -0.4833  0.0213
 1544ACTN    O115898   6.529   5.355   3.176  0.1663 -0.1677 -0.4863
 1544ACTN    C115899   6.344   5.305   3.042  0.1452 -0.0062 -0.0034
 1544ACTN    H115900   6.250   5.354   3.019 -0.1495  0.0129  1.2306
 1544ACTN    H215901   6.319   5.200   3.061 -1.7716  0.5234  0.4832
 1544ACTN    H315902   6.416   5.312   2.961  0.6455  0.4307  0.4760
 1545ACTN    H615903   0.548   1.326   3.841  0.0809  0.9962  0.4206
 1545ACTN    C315904   0.446   1.302   3.871  0.1623 -0.0964 -0.1609
 1545ACTN    H415905   0.405   1.217   3.815 -1.7854 -0.5602  1.8872
 1545ACTN    H515906   0.447   1.262   3.973  0.2969 -1.2530 -0.6028
 1545ACTN    C215907   0.370   1.427   3.881 -0.8403 -0.0694  0.6728
 1545ACTN    O115908   0.370   1.500   3.983 -0.3199 -0.1473 -0.1704
 1545ACTN    C115909   0.301   1.483   3.761  0.3055 -0.0657  0.4120
 1545ACTN    H115910   0.221   1.552   3.786 -2.1377 -2.9824  0.9930
 1545ACTN    H215911   0.250   1.402   3.709  0.1878  0.7868 -0.8402
 1545ACTN    H315912   0.375   1.537   3.701 -2.7627  0.2497 -3.3014
 1546ACTN    H615913   0.998   7.587   3.126 -0.3859 -4.0454 -1.8115
 1546ACTN    C315914   1.098   7.579   3.168 -0.2881  0.0944 -1.0902
 1546ACTN    H415915   1.082   7.515   3.254 -2.2000 -0.4140 -1.8140
 1546ACTN    H515916   1.152   7.514   3.100 -0.3074 -2.3302  1.1508
 1546ACTN    C215917   1.169   7.699   3.206 -0.2125 -0.4357  0.7642
 1546ACTN    O115918   1.203   7.712   3.325 -0.3572  0.0153  0.2905
 1546ACTN    C115919   1.253   7.767   3.103 -0.7604  0.4938  0.1830
 1546ACTN    H115920   1.271   7.703   3.016 -0.9191 -0.9398  1.1809
 1546ACTN    H215921   1.349   7.802   3.142 -1.5643  0.1079  2.5731
 1546ACTN    H315922   1.186   7.848   3.078 -0.1808  1.5333  1.9453
 1547ACTN    H615923   5.517   2.640   3.493  1.4896 -0.9764 -1.2654
 1547ACTN    C315924   5.586   2.715   3.532 -0.6116  0.6664 -0.5785
 1547ACTN    H415925   5.692   2.694   3.517  0.2599  3.8214  0.8777
 1547ACTN    H515926   5.570   2.808   3.478 -1.7117  0.7370 -0.1394
 1547ACTN    C215927   5.553   2.746   3.676  0.2613  0.1919 -0.1065
 1547ACTN    O115928   5.558   2.858   3.720 -0.3100  0.0050 -0.3922
 1547ACTN    C115929   5.538   2.626   3.763 -0.4112  0.5515  0.1218
 1547ACTN    H115930   5.465   2.657   3.838  0.3440  1.6805  0.4117
 1547ACTN    H215931   5.627   2.589   3.813 -0.0542  1.2732  0.0383
 1547ACTN    H315932   5.487   2.544   3.712 -1.5749  1.9827 -1.0697
 1548ACTN    H615933   5.955   8.278   3.706  0.3759  1.4401  0.5269
 1548ACTN    C315934   6.037   8.225   3.755 -0.0487  0.1545 -0.1197
 1548ACTN    H415935   6.007   8.130   3.799 -0.4643 -0.3171 -1.4127
 1548ACTN    H515936   6.116   8.204   3.682  0.2877  0.3289  0.1932
 1548ACTN    C215937   6.087   8.322   3.858  0.4015 -0.5725 -0.9512
 1548ACTN    O115938   6.024   8.419   3.901 -0.9353  0.3963 -0.2767
 1548ACTN    C115939   6.217   8.286   3.917  0.2934 -0.5413  0.4537
 1548ACTN    H115940   6.298   8.291   3.845 -0.4870 -1.0997 -0.4810
 1548ACTN    H215941   6.205   8.190   3.967 -0.5103 -1.4029 -1.3573
 1548ACTN    H315942   6.240   8.350   4.002  1.5255  0.2240 -0.4413
 1549ACTN    H615943   7.409   3.204   7.450  0.4227  0.3522 -0.5886
 1549ACTN    C315944   7.343   3.291   7.447 -0.0719 -0.0145 -0.5390
 1549ACTN    H415945   7.242   3.258   7.425 -0.0473 -1.8089  1.7619
 1549ACTN    H515946   7.346   3.335   7.547 -1.0794 -2.5472  0.6697
 1549ACTN    C215947   7.389   3.390   7.344 -0.0364 -1.0146  0.5649
 1549ACTN    O115948   7.466   3.353   7.252  0.2973  0.9890 -0.1097
 1549ACTN    C115949   7.373   3.536   7.358  0.1593 -0.0277 -0.0653
 1549ACTN    H115950   7.336   3.590   7.271  0.1161  1.0645  0.6184
 1549ACTN    H215951   7.464   3.581   7.397  0.4697 -0.4702 -0.2869
 1549ACTN    H315952   7.295   3.560   7.431  1.1506 -1.8729  1.6442
 1550ACTN    H615953   8.856   1.090   4.863 -0.5932  1.4147 -0.2661
 1550ACTN    C315954   8.832   1.028   4.777  0.2617  0.5337  0.1187
 1550ACTN    H415955   8.845   0.926   4.811  3.4371  0.8631 -0.0073
 1550ACTN    H515956   8.730   1.035   4.738  0.2439  1.3897  0.3023
 1550ACTN    C215957   8.931   1.053   4.674  0.1290 -0.1088 -0.0814
 1550ACTN    O115958   9.049   1.068   4.704 -0.3250 -0.3157 -0.0240
 1550ACTN    C115959   8.887   1.104   4.535  0.2460 -0.3066  0.0331
 1550ACTN    H115960   8.837   1.200   4.549 -0.1398 -0.6136  0.8047
 1550ACTN    H215961   8.817   1.032   4.492  0.7444 -0.0263 -1.2407
 1550ACTN    H315962   8.981   1.112   4.480  0.2120  0.9738  0.1538
 1551ACTN    H615963   2.000   6.958   8.096  0.4311 -0.0552  1.8643
 1551ACTN    C315964   1.930   7.026   8.146  0.1514  0.8900  0.2308
 1551ACTN    H415965   1.922   6.997   8.251  0.5525  2.3074  0.6598
 1551ACTN    H515966   1.964   7.129   8.139  2.0211  0.3494  1.1397
 1551ACTN    C215967   1.795   7.029   8.082 -1.0496 -0.3257 -0.4004
 1551ACTN    O115968   1.790   7.048   7.958 -0.4110  0.1126  0.1553
 1551ACTN    C115969   1.675   6.991   8.161 -0.4022  0.2810  0.6674
 1551ACTN    H115970   1.673   7.051   8.252  2.2414 -0.7860  1.4699
 1551ACTN    H215971   1.684   6.885   8.182  0.9435 -0.4988 -3.5236
 1551ACTN    H315972   1.589   7.020   8.100  1.0872  0.0676 -1.5822
 1552ACTN    H615973   1.539   7.501   6.775 -0.1577 -1.0926  0.7869
 1552ACTN    C315974   1.430   7.498   6.779 -0.2101 -0.8164 -0.1512
 1552ACTN    H415975   1.393   7.598   6.804  0.2698 -0.1966 -1.8887
 1552ACTN    H515976   1.391   7.479   6.679 -0.3590  4.0564 -1.1581
 1552ACTN    C215977   1.367   7.396   6.872 -0.3542  0.4559  0.2436
 1552ACTN    O115978   1.430   7.293   6.890  0.5574  0.4490  0.3023
 1552ACTN    C115979   1.252   7.435   6.952  0.6439 -0.0553  0.4712
 1552ACTN    H115980   1.158   7.393   6.916  0.4524  0.0033  0.9006
 1552ACTN    H215981   1.242   7.542   6.938  0.2153 -0.3205 -1.5386
 1552ACTN    H315982   1.274   7.407   7.055 -2.3639 -0.0159  1.1663
 1553ACTN    H615983   7.102   2.508   3.412  0.2838 -0.0976  1.6433
 1553ACTN    C315984   7.206   2.510   3.379 -0.2478 -0.0251 -0.0693
 1553ACTN    H415985   7.209   2.557   3.280 -0.8618  1.8280  0.7654
 1553ACTN    H515986   7.263   2.580   3.441  0.8544  1.3631 -2.5632
 1553ACTN    C215987   7.255   2.367   3.381  0.2895 -1.0863 -0.0958
 1553ACTN    O115988   7.250   2.299   3.281  0.1309 -0.3295 -0.0384
 1553ACTN    C115989   7.324   2.319   3.501 -0.0596  0.0642 -0.0685
 1553ACTN    H115990   7.258   2.339   3.585 -0.5541 -1.4758 -0.0712
 1553ACTN    H215991   7.413   2.380   3.516 -1.8934  2.9845 -0.6968
 1553ACTN    H315992   7.357   2.215   3.494 -2.0767 -0.7831  2.2478
 1554ACTN    H615993   5.125   3.270   4.464 -0.3052 -0.0055  0.4257
 1554ACTN    C315994   5.205   3.274   4.390 -0.3619  0.1427  0.3709
 1554ACTN    H415995   5.268   3.185   4.397 -0.3459  0.0721 -0.5798
 1554ACTN    H515996   5.160   3.276   4.291  0.0007  1.3832  0.2226
 1554ACTN    C215997   5.285   3.402   4.418  0.1125  0.1267 -0.9358
 1554ACTN    O115998   5.307   3.478   4.328 -0.5931 -0.5300 -0.1058
 1554ACTN    C115999   5.338   3.431   4.550  0.0242  0.6130 -0.3814
 1554ACTN    H116000   5.276   3.517   4.579  0.6913  0.3378  1.9384
 1554ACTN    H216001   5.442   3.463   4.545 -0.8379  3.7955  0.5055
 1554ACTN    H316002   5.328   3.350   4.622 -2.2689  0.3196 -0.9966
 1555ACTN    H616003   4.193   8.748   4.714 -0.1420 -1.7506 -1.6672
 1555ACTN    C316004   4.299   8.768   4.696 -0.1364  0.0336  0.1323
 1555ACTN    H416005   4.310   8.862   4.750  1.0644 -1.3692  2.3953
 1555ACTN    H516006   4.355   8.689   4.746  0.7851 -0.2792 -1.3593
 1555ACTN    C216007   4.322   8.765   4.547  0.6359 -0.5577  0.6521
 1555ACTN    O116008   4.421   8.814   4.499 -0.0830 -0.5644 -0.0150
 1555ACTN    C116009   4.217   8.724   4.455  0.6916  0.0344  0.2346
 1555ACTN    H116010   4.193   8.812   4.394 -1.4622 -0.4963  0.2798
 1555ACTN    H216011   4.126   8.697   4.510 -0.1955  3.5621  0.6263
 1555ACTN    H316012   4.244   8.638   4.395 -0.3032  0.4789 -0.8861
 1556ACTN    H616013   0.111   1.760   1.961  0.9008  2.0546  0.5249
 1556ACTN    C316014   0.157   1.740   2.058 -0.5951  0.3981  0.9076
 1556ACTN    H416015   0.084   1.747   2.138 -2.8354  0.0349 -1.0476
 1556ACTN    H516016   0.200   1.641   2.049  1.5008  1.2115  1.7469
 1556ACTN    C216017   0.274   1.837   2.065 -0.2793 -0.6438  0.1374
 1556ACTN    O116018   0.325   1.881   1.959  0.2772 -0.1126  0.0431
 1556ACTN    C116019   0.306   1.902   2.196 -0.5433  0.2846 -0.1659
 1556ACTN    H116020   0.232   1.977   2.226  0.2599  0.8617  0.3766
 1556ACTN    H216021   0.403   1.952   2.191  0.5217 -1.7326 -0.1230
 1556ACTN    H316022   0.312   1.828   2.275 -1.6854  2.0533  1.6158
 1557ACTN    H616023   1.922   0.863   3.010  0.4480 -1.4238 -2.3757
 1557ACTN    C316024   1.840   0.802   3.047  0.4897 -0.0177  0.0728
 1557ACTN    H416025   1.821   0.843   3.147  0.6572  0.1692  0.0286
 1557ACTN    H516026   1.754   0.815   2.981  1.1587 -1.5934 -1.1221
 1557ACTN    C216027   1.877   0.657   3.054 -0.4470  0.8425 -0.0567
 1557ACTN    O116028   1.800   0.581   3.111 -0.1793 -0.0501 -0.6595
 1557ACTN    C116029   2.009   0.609   3.000  0.3636 -0.0450  0.2750
 1557ACTN    H116030   2.009   0.603   2.891  1.6672  0.7003  0.2237
 1557ACTN    H216031   2.039   0.516   3.050 -0.9225  0.1542  1.4572
 1557ACTN    H316032   2.088   0.680   3.025 -0.6827  0.4392  2.2786
 1558ACTN    H616033   2.858   1.279   6.437 -0.6289 -1.2624  0.1495
 1558ACTN    C316034   2.861   1.219   6.347  0.4149 -0.2421 -0.4952
 1558ACTN    H416035   2.765   1.169   6.340 -0.4522  1.2476  0.5357
 1558ACTN    H516036   2.882   1.278   6.257  0.7134  0.3843 -0.0182
 1558ACTN    C216037   2.970   1.117   6.355  0.4738  0.1175 -0.7679
 1558ACTN    O116038   3.086   1.154   6.332  0.1488  0.1537  0.2728
 1558ACTN    C116039   2.939   0.982   6.406 -0.7007 -0.2945  0.2171
 1558ACTN    H116040   2.861   0.992   6.482 -1.5046 -1.2220 -0.4799
 1558ACTN    H216041   3.027   0.933   6.448 -0.9647 -1.2460 -0.3335
 1558ACTN    H316042   2.891   0.927   6.325 -0.1646 -1.3659  0.6159
 1559ACTN    H616043   1.694   5.884   2.784 -0.8488 -0.1132 -0.4657
 1559ACTN    C316044   1.640   5.847   2.871  0.1144 -0.4681 -0.0127
 1559ACTN    H416045   1.537   5.868   2.839 -0.3903  0.4213  2.1415
 1559ACTN    H516046   1.660   5.740   2.878 -1.3318 -0.8662 -1.5159
 1559ACTN    C216047   1.672   5.931   2.985  0.2535 -0.1893 -0.7503
 1559ACTN    O116048   1.703   6.054   2.971  0.3278  0.7386 -0.1496
 1559ACTN    C116049   1.637   5.891   3.124  1.4520 -0.4450  0.2224
 1559ACTN    H116050   1.593   5.792   3.117 -2.4824  1.2686 -0.7253
 1559ACTN    H216051   1.562   5.952   3.174  1.8604 -1.7528  2.5198
 1559ACTN    H316052   1.726   5.896   3.188 -0.0365 -0.4200  2.3251
 1560ACTN    H616053   6.892   2.696   4.839 -1.8813  1.1330  1.3663
 1560ACTN    C316054   6.912   2.628   4.922  0.2519 -0.1825 -0.1934
 1560ACTN    H416055   6.887   2.524   4.902 -1.4104 -0.2542  2.1197
 1560ACTN    H516056   7.019   2.635   4.940  0.1307  0.4394  0.2733
 1560ACTN    C216057   6.830   2.674   5.035 -0.8006  0.0631  0.4122
 1560ACTN    O116058   6.869   2.654   5.147 -0.4123  0.8627 -0.4283
 1560ACTN    C116059   6.738   2.789   5.010 -0.0578 -0.6710 -0.2514
 1560ACTN    H116060   6.755   2.861   5.091 -1.9022 -1.8830  1.2613
 1560ACTN    H216061   6.632   2.764   5.012 -0.5418  1.3491  1.4346
 1560ACTN    H316062   6.760   2.844   4.919 -0.1255 -1.2368 -0.6087
 1561ACTN    H616063   6.688   2.006   0.269  2.0550 -1.2049 -0.6498
 1561ACTN    C316064   6.729   2.106   0.285 -0.5929 -0.1826  0.0897
 1561ACTN    H416065   6.837   2.092   0.287 -0.5539 -0.0925 -1.0266
 1561ACTN    H516066   6.688   2.172   0.209  2.5217  3.0397  1.0610
 1561ACTN    C216067   6.667   2.162   0.416 -0.7930  0.4085  0.0221
 1561ACTN    O116068   6.636   2.080   0.503  0.3454 -0.4123  0.7362
 1561ACTN    C116069   6.628   2.309   0.436 -0.0824 -0.1659 -0.2007
 1561ACTN    H116070   6.521   2.315   0.457 -0.1026  1.8013 -0.7065
 1561ACTN    H216071   6.652   2.371   0.349  0.2413  0.8165  0.5848
 1561ACTN    H316072   6.683   2.345   0.523  2.9474 -0.6438 -1.8601
 1562ACTN    H616073   6.022   0.418   6.966 -0.8223 -1.0529 -0.4134
 1562ACTN    C316074   5.935   0.361   6.997 -1.3006 -0.1015 -0.0187
 1562ACTN    H416075   5.966   0.261   7.026 -1.2444  0.2685  1.2181
 1562ACTN    H516076   5.897   0.414   7.085  1.7609  0.1550  1.1786
 1562ACTN    C216077   5.827   0.355   6.900 -0.3743  0.4378  0.1285
 1562ACTN    O116078   5.724   0.297   6.937  0.2204  0.2051  0.5736
 1562ACTN    C116079   5.822   0.432   6.764  0.3683 -0.7654 -0.6275
 1562ACTN    H116080   5.917   0.411   6.716  1.4389  0.0061  1.0948
 1562ACTN    H216081   5.812   0.540   6.775 -1.1831 -0.7480 -2.0029
 1562ACTN    H316082   5.739   0.397   6.703  0.2496 -0.2866 -0.7476
 1563ACTN    H616083   7.231   6.071   1.112  0.0767  0.0529  0.6664
 1563ACTN    C316084   7.262   5.985   1.172 -0.0650 -0.1372  0.4653
 1563ACTN    H416085   7.177   5.964   1.236 -0.2943 -1.3339 -0.2136
 1563ACTN    H516086   7.283   5.903   1.103  0.9748  0.0600  0.5413
 1563ACTN    C216087   7.387   6.034   1.247  0.2535 -0.8101 -0.5556
 1563ACTN    O116088   7.466   5.948   1.277 -0.0197 -0.3022 -0.0635
 1563ACTN    C116089   7.403   6.178   1.289  0.0940  0.3519  0.2085
 1563ACTN    H116090   7.371   6.189   1.392  3.4788  0.9743  1.2566
 1563ACTN    H216091   7.341   6.243   1.227  1.3540  0.1785 -1.2639
 1563ACTN    H316092   7.507   6.209   1.292 -0.2247  1.2946  2.3194
 1564ACTN    H616093   5.447   0.563   3.844  0.5685 -0.0030 -0.1846
 1564ACTN    C316094   5.517   0.536   3.924  0.6277 -0.0449 -0.2506
 1564ACTN    H416095   5.473   0.464   3.992  0.9096  0.7309  0.7560
 1564ACTN    H516096   5.611   0.502   3.882  0.6881  0.4776 -0.5550
 1564ACTN    C216097   5.554   0.660   4.004  0.8085 -0.3174  0.4470
 1564ACTN    O116098   5.478   0.755   4.015  0.0428 -0.0043  0.3109
 1564ACTN    C116099   5.685   0.652   4.084 -0.2326 -0.2857 -0.1767
 1564ACTN    H116100   5.762   0.725   4.059  1.0902 -0.3283  3.5665
 1564ACTN    H216101   5.730   0.553   4.086 -3.5415 -1.8391  1.8429
 1564ACTN    H316102   5.664   0.672   4.189  0.5809 -0.4854  0.0244
 1565ACTN    H616103   5.469   0.745   2.677 -3.5684 -1.7063 -2.5702
 1565ACTN    C316104   5.535   0.670   2.634 -0.2223 -0.6242  0.5022
 1565ACTN    H416105   5.514   0.566   2.662  0.8497 -0.7677  0.7984
 1565ACTN    H516106   5.514   0.687   2.529  0.8010  0.5135  0.4701
 1565ACTN    C216107   5.678   0.703   2.652  0.0574  0.6806 -0.4073
 1565ACTN    O116108   5.743   0.649   2.740 -0.6930  0.3446  0.3911
 1565ACTN    C116109   5.726   0.820   2.573 -0.3439  0.5789 -0.9007
 1565ACTN    H116110   5.674   0.914   2.591  1.6156  1.3192  1.0878
 1565ACTN    H216111   5.721   0.792   2.468  1.2216 -1.9405 -0.3428
 1565ACTN    H316112   5.833   0.840   2.587 -0.0117 -1.4923 -0.2565
 1566ACTN    H616113   3.190   6.548   7.425  0.1935 -0.5897  0.8435
 1566ACTN    C316114   3.115   6.471   7.405  0.0996 -0.3272  0.1383
 1566ACTN    H416115   3.089   6.464   7.300  1.7278  0.8527 -0.3696
 1566ACTN    H516116   3.163   6.378   7.437  2.2818  1.6035  2.7585
 1566ACTN    C216117   2.993   6.487   7.488 -0.2613  0.5537  0.1868
 1566ACTN    O116118   2.894   6.412   7.466 -0.2720  0.4334 -0.2272
 1566ACTN    C116119   2.970   6.617   7.559 -0.8443  0.8043  0.1906
 1566ACTN    H116120   3.060   6.678   7.570  0.2195 -0.3345 -1.8422
 1566ACTN    H216121   2.928   6.585   7.654 -2.5700  1.6167 -0.2836
 1566ACTN    H316122   2.905   6.681   7.499 -1.4943 -0.9291 -0.9937
 1567ACTN    H616123   3.268   3.774   0.468  0.4109 -0.9569 -0.7867
 1567ACTN    C316124   3.324   3.845   0.407 -0.3274 -0.0406 -0.4043
 1567ACTN    H416125   3.323   3.820   0.302 -0.9625  1.8709 -0.8809
 1567ACTN    H516126   3.264   3.936   0.404 -1.5499 -0.8483 -0.6831
 1567ACTN    C216127   3.453   3.858   0.472 -1.0149 -0.1125 -0.2279
 1567ACTN    O116128   3.493   3.969   0.510 -0.1284  0.2852 -0.6010
 1567ACTN    C116129   3.521   3.734   0.514 -0.5382  0.5565  0.2734
 1567ACTN    H116130   3.553   3.695   0.418  0.6629  2.9608 -0.3500
 1567ACTN    H216131   3.461   3.658   0.565  2.6441 -1.1172  1.6223
 1567ACTN    H316132   3.611   3.748   0.573 -1.2500  4.5583  0.5597
 1568ACTN    H616133   4.443   7.789   3.606  1.4168  0.3390  1.9175
 1568ACTN    C316134   4.499   7.697   3.624  0.1404 -0.8424  0.0019
 1568ACTN    H416135   4.603   7.725   3.642 -0.2395  0.7544 -0.2038
 1568ACTN    H516136   4.455   7.667   3.719 -0.6624  0.0925 -0.0743
 1568ACTN    C216137   4.500   7.600   3.504  0.3436 -0.0451  0.3951
 1568ACTN    O116138   4.512   7.484   3.521 -0.4969 -0.3183  0.2730
 1568ACTN    C116139   4.464   7.651   3.372  0.4137  0.5849 -0.0012
 1568ACTN    H116140   4.522   7.594   3.300 -1.1460  1.7638 -2.2627
 1568ACTN    H216141   4.491   7.756   3.356 -0.1963  1.0870  2.1487
 1568ACTN    H316142   4.358   7.637   3.350  0.3951 -0.0130  0.4864
 1569ACTN    H616143   1.383   8.880   3.620 -0.0496  0.3262 -0.2440
 1569ACTN    C316144   1.314   8.874   3.536 -0.3032  0.3321 -0.0366
 1569ACTN    H416145   1.321   8.957   3.465 -2.3356  0.9948  0.5024
 1569ACTN    H516146   1.335   8.778   3.489  0.7191  0.1870  0.6935
 1569ACTN    C216147   1.170   8.879   3.581 -0.4038  0.2984  0.4284
 1569ACTN    O116148   1.082   8.847   3.496  0.8074  0.1815  0.1633
 1569ACTN    C116149   1.113   8.902   3.717  0.1164  0.1292 -0.4595
 1569ACTN    H116150   1.037   8.979   3.720 -0.5970 -0.5730 -0.3303
 1569ACTN    H216151   1.194   8.912   3.790  1.8277 -0.8109 -2.1721
 1569ACTN    H316152   1.065   8.809   3.748  0.3097  0.3133  0.4035
 1570ACTN    H616153   3.688   3.802   6.429  0.4686 -0.3227 -2.3797
 1570ACTN    C316154   3.661   3.698   6.448  0.0560  0.1285 -0.2960
 1570ACTN    H416155   3.556   3.690   6.419 -0.8964 -6.1455  3.8157
 1570ACTN    H516156   3.714   3.636   6.376 -0.3223  1.7467 -2.0350
 1570ACTN    C216157   3.660   3.662   6.598  0.1001  0.1968 -0.7523
 1570ACTN    O116158   3.630   3.749   6.674 -0.5509  0.0901 -0.8254
 1570ACTN    C116159   3.661   3.514   6.640 -0.1222  0.2529  0.4544
 1570ACTN    H116160   3.697   3.504   6.743 -2.1116 -0.0956  1.1432
 1570ACTN    H216161   3.723   3.462   6.567 -2.0390 -1.6313  0.1199
 1570ACTN    H316162   3.563   3.464   6.641 -1.5546  2.8809 -2.0718
 1571ACTN    H616163   5.790   4.220   6.369 -3.2876  0.9325  0.5051
 1571ACTN    C316164   5.750   4.120   6.378 -0.6010 -0.2570 -0.2547
 1571ACTN    H416165   5.680   4.114   6.461 -0.6127 -0.7987 -0.3018
 1571ACTN    H516166   5.694   4.095   6.287  1.2377 -0.3433 -1.3823
 1571ACTN    C216167   5.868   4.020   6.383  0.0238 -0.0250 -0.0479
 1571ACTN    O116168   5.857   3.913   6.322  0.5076  0.3078  0.1320
 1571ACTN    C116169   5.972   4.044   6.490  0.0360 -0.4108  0.1988
 1571ACTN    H116170   5.920   4.068   6.583 -0.2133  0.1372 -0.0855
 1571ACTN    H216171   6.037   4.124   6.454  2.3925 -2.8132 -1.1034
 1571ACTN    H316172   6.032   3.953   6.503  1.6936  0.6232 -0.0117
 1572ACTN    H616173   8.644   2.430   6.569 -0.0368  1.2799  0.0291
 1572ACTN    C316174   8.636   2.396   6.672 -0.3840  0.2468 -0.3381
 1572ACTN    H416175   8.734   2.406   6.718 -1.0253  0.8270  0.9106
 1572ACTN    H516176   8.569   2.465   6.723  1.4401  0.8859  1.2560
 1572ACTN    C216177   8.591   2.252   6.680 -0.5963 -0.2159  0.6342
 1572ACTN    O116178   8.648   2.167   6.618  0.5099 -0.0150 -0.1380
 1572ACTN    C116179   8.465   2.216   6.743  0.6434  0.1515 -0.0587
 1572ACTN    H116180   8.484   2.219   6.850  2.0545  0.6929 -0.3215
 1572ACTN    H216181   8.426   2.119   6.713 -0.4338  0.5075  0.1391
 1572ACTN    H316182   8.392   2.288   6.704  1.3320  0.0137 -1.6399
 1573ACTN    H616183   2.039   0.088   1.293 -0.4645 -0.6636 -0.0759
 1573ACTN    C316184   2.082  -0.004   1.333 -0.4066 -0.4179  0.4290
 1573ACTN    H416185   2.181   0.019   1.372 -0.0210  0.5790 -1.1090
 1573ACTN    H516186   2.022  -0.032   1.420  0.2248 -0.7716  0.7589
 1573ACTN    C216187   2.081  -0.120   1.238  0.1214  0.7628  0.5350
 1573ACTN    O116188   2.016  -0.102   1.138  0.7971  0.0565 -0.1587
 1573ACTN    C116189   2.130  -0.254   1.284 -0.1550  0.5435  0.4282
 1573ACTN    H116190   2.205  -0.246   1.362  0.9542  1.3984 -0.6830
 1573ACTN    H216191   2.184  -0.300   1.201 -0.5342  0.4826  0.2159
 1573ACTN    H316192   2.046  -0.314   1.317 -1.0965  1.0072 -1.0554
 1574ACTN    H616193   8.769   4.918   2.166  1.5026  2.3497 -1.9694
 1574ACTN    C316194   8.686   4.983   2.194  0.5724  0.3786  0.0496
 1574ACTN    H416195   8.595   4.954   2.141  0.8796  2.0213 -1.4220
 1574ACTN    H516196   8.675   4.972   2.301  0.3772  0.5121  0.0437
 1574ACTN    C216197   8.730   5.126   2.178  0.5112  0.2966 -0.1698
 1574ACTN    O116198   8.831   5.165   2.118 -0.0279 -0.7340  0.5778
 1574ACTN    C116199   8.650   5.236   2.244  0.0307 -0.0746 -0.5712
 1574ACTN    H116200   8.711   5.290   2.316 -0.6955 -0.9798  0.7427
 1574ACTN    H216201   8.562   5.189   2.288  0.5373 -1.3509 -0.9131
 1574ACTN    H316202   8.622   5.320   2.179 -1.2896 -0.1772 -0.1628
 1575ACTN    H616203   1.872   3.208   2.202 -0.5797 -1.9254 -0.1971
 1575ACTN    C316204   1.778   3.238   2.250 -0.1026 -0.3450 -0.2039
 1575ACTN    H416205   1.790   3.340   2.286  2.4180 -0.4522 -0.6187
 1575ACTN    H516206   1.697   3.239   2.178 -0.1506 -4.6713 -0.3600
 1575ACTN    C216207   1.740   3.145   2.360 -0.2164  0.8262 -0.4929
 1575ACTN    O116208   1.631   3.172   2.421  0.1397  0.3911 -0.3631
 1575ACTN    C116209   1.829   3.037   2.410  0.8019  0.4487  0.7439
 1575ACTN    H116210   1.929   3.065   2.441  0.9906 -0.1316  0.6626
 1575ACTN    H216211   1.791   2.987   2.499 -2.2273 -0.0840 -0.7670
 1575ACTN    H316212   1.838   2.963   2.330  3.1678 -1.3236  2.5990
 1576ACTN    H616213   2.013   3.304   1.034 -0.4095 -0.9836 -0.5014
 1576ACTN    C316214   2.105   3.249   1.015  0.5374  0.5052 -0.3443
 1576ACTN    H416215   2.172   3.261   1.100  1.1006  1.8053 -0.9606
 1576ACTN    H516216   2.082   3.142   1.022  0.1931  0.5598 -0.6333
 1576ACTN    C216217   2.161   3.284   0.881  1.0480  0.8145  0.2473
 1576ACTN    O116218   2.078   3.289   0.790  0.0824  0.1588 -0.5176
 1576ACTN    C116219   2.296   3.339   0.886 -0.7918 -0.2764  0.3618
 1576ACTN    H116220   2.308   3.382   0.787 -1.3376  2.5220  1.4500
 1576ACTN    H216221   2.375   3.265   0.895  0.2188  0.4499 -2.1894
 1576ACTN    H316222   2.287   3.405   0.973 -3.4629  0.5295 -0.4830
 1577ACTN    H616223   5.598   3.318   3.413 -0.8701  1.0990 -4.2399
 1577ACTN    C316224   5.513   3.250   3.423  0.1776  0.2577  0.4831
 1577ACTN    H416225   5.430   3.281   3.358 -0.2679  0.3512  1.0968
 1577ACTN    H516226   5.549   3.150   3.401  0.6903  0.5518 -0.0451
 1577ACTN    C216227   5.470   3.244   3.561  0.1555 -0.2276  0.0456
 1577ACTN    O116228   5.354   3.278   3.593  0.2921 -0.3498  1.0107
 1577ACTN    C116229   5.566   3.199   3.667  0.4076  0.1092  0.0689
 1577ACTN    H116230   5.525   3.206   3.767 -0.0782  0.0988 -0.1277
 1577ACTN    H216231   5.667   3.241   3.660  1.2143 -2.0739 -2.2619
 1577ACTN    H316232   5.575   3.091   3.659  0.2926  0.1885 -1.3737
 1578ACTN    H616233   0.714   7.740   0.744 -0.7331 -0.7669 -0.3267
 1578ACTN    C316234   0.666   7.806   0.816  0.3089 -0.3395 -0.0196
 1578ACTN    H416235   0.670   7.750   0.910  1.3181  1.2599  0.9102
 1578ACTN    H516236   0.717   7.902   0.823 -0.6111  0.0685  1.1292
 1578ACTN    C216237   0.523   7.826   0.777 -0.6221  0.3883 -1.1054
 1578ACTN    O116238   0.462   7.929   0.812 -0.4052  0.0401 -0.5017
 1578ACTN    C116239   0.459   7.716   0.694  0.4809 -0.4294  0.6515
 1578ACTN    H116240   0.530   7.634   0.684  0.3413 -0.3835 -0.9094
 1578ACTN    H216241   0.420   7.745   0.596  0.8931 -0.6503  0.4166
 1578ACTN    H316242   0.380   7.672   0.754  0.1872 -0.9804 -0.1275
 1579ACTN    H616243   8.919   6.401   2.699 -2.2837 -1.3088  0.7182
 1579ACTN    C316244   8.887   6.488   2.757  1.0379  0.4600  0.0432
 1579ACTN    H416245   8.783   6.472   2.783  0.2589  1.3379 -2.4372
 1579ACTN    H516246   8.938   6.492   2.854 -0.7811  2.0049  0.9528
 1579ACTN    C216247   8.915   6.611   2.669  0.5599 -0.5818 -0.0766
 1579ACTN    O116248   8.822   6.692   2.654 -0.3858 -0.3925 -0.3956
 1579ACTN    C116249   9.036   6.622   2.585  0.2818 -0.2733 -0.3042
 1579ACTN    H116250   9.122   6.649   2.646  0.5503 -0.0918 -0.7537
 1579ACTN    H216251   9.037   6.711   2.521  0.1326  0.9779  1.3848
 1579ACTN    H316252   9.053   6.533   2.525 -1.8433  0.2413 -1.7326
 1580ACTN    H616253   5.774   4.695   1.496  0.0023 -0.0242  0.3530
 1580ACTN    C316254   5.795   4.710   1.602 -0.1999  0.0618  0.3813
 1580ACTN    H416255   5.840   4.809   1.607  1.1798 -0.5358  0.0096
 1580ACTN    H516256   5.696   4.703   1.646  0.0386 -0.7961  0.7928
 1580ACTN    C216257   5.873   4.591   1.659  0.5273  0.8134  0.1064
 1580ACTN    O116258   5.908   4.589   1.771  0.2083  0.1788  0.3714
 1580ACTN    C116259   5.919   4.488   1.561  0.2681 -0.7344 -0.6001
 1580ACTN    H116260   6.018   4.525   1.533 -0.0212 -1.3491 -2.5465
 1580ACTN    H216261   5.851   4.474   1.476 -1.0951 -1.0869  0.5395
 1580ACTN    H316262   5.933   4.397   1.618 -1.9038 -0.4762  0.4075
 1581ACTN    H616263   8.573   3.665   0.909 -0.0775  0.3281 -3.7806
 1581ACTN    C316264   8.478   3.716   0.923 -0.3300 -1.0659  0.2398
 1581ACTN    H416265   8.401   3.645   0.892  0.2848 -1.0950 -1.2584
 1581ACTN    H516266   8.462   3.745   1.027 -0.7575  0.4052 -0.2337
 1581ACTN    C216267   8.477   3.833   0.836 -0.8383 -0.7940 -0.2726
 1581ACTN    O116268   8.391   3.918   0.845  0.0026 -0.3270  0.2553
 1581ACTN    C116269   8.582   3.851   0.727 -0.8248  0.2518 -0.0444
 1581ACTN    H116270   8.534   3.902   0.644 -0.9193 -0.7680 -0.6222
 1581ACTN    H216271   8.609   3.755   0.683  0.7106  1.2135 -1.2661
 1581ACTN    H316272   8.666   3.909   0.763 -2.0004  2.0176 -0.0646
 1582ACTN    H616273   7.827   2.693   4.781 -0.0963  1.3507 -0.1614
 1582ACTN    C316274   7.795   2.701   4.677  0.1910  0.4015 -0.3236
 1582ACTN    H416275   7.738   2.612   4.651 -0.5661  1.2062 -1.4763
 1582ACTN    H516276   7.725   2.784   4.679 -1.2837 -0.8387  1.1089
 1582ACTN    C216277   7.913   2.730   4.588 -0.1381 -0.2887 -0.5024
 1582ACTN    O116278   7.901   2.693   4.471 -0.0852  0.0703 -0.3000
 1582ACTN    C116279   8.051   2.740   4.651  0.8330  0.0421 -0.3979
 1582ACTN    H116280   8.041   2.795   4.745 -0.8805 -0.6202 -0.1751
 1582ACTN    H216281   8.125   2.794   4.593 -0.3302  3.0710  0.8090
 1582ACTN    H316282   8.088   2.638   4.661  1.5040  0.1737 -1.4327
 1583ACTN    H616283   6.105   5.357   8.329 -0.5338 -0.6578  1.5255
 1583ACTN    C316284   6.120   5.251   8.308  0.4447 -0.3715  0.7564
 1583ACTN    H416285   6.058   5.193   8.376 -1.6164 -0.4130 -1.1139
 1583ACTN    H516286   6.086   5.239   8.205  0.9100 -0.8629  0.6633
 1583ACTN    C216287   6.253   5.209   8.333 -0.6507 -0.1908  0.1883
 1583ACTN    O116288   6.282   5.109   8.270  0.1603  0.5894  0.7172
 1583ACTN    C116289   6.351   5.316   8.354 -0.3043 -0.3951 -0.4284
 1583ACTN    H116290   6.361   5.378   8.265 -1.8569 -0.5610 -0.7365
 1583ACTN    H216291   6.445   5.271   8.385  0.3735  1.5909  0.4250
 1583ACTN    H316292   6.326   5.374   8.442 -0.7613 -0.6315 -0.4003
 1584ACTN    H616293   6.338   8.909   1.417  1.2596 -2.6884  0.4430
 1584ACTN    C316294   6.327   8.918   1.525  0.1674 -0.2312  0.1587
 1584ACTN    H416295   6.281   8.824   1.557 -0.0910 -1.2712 -3.0787
 1584ACTN    H516296   6.262   9.004   1.540 -0.0354 -0.1701 -1.0060
 1584ACTN    C216297   6.457   8.960   1.597  0.4937 -0.5392 -0.9693
 1584ACTN    O116298   6.556   8.992   1.531  0.1630 -0.3824 -0.4929
 1584ACTN    C116299   6.452   8.978   1.738 -0.3842 -0.3019  0.0103
 1584ACTN    H116300   6.381   9.056   1.765  1.6617  1.1813  1.2451
 1584ACTN    H216301   6.548   9.000   1.786 -0.3033  1.2006 -0.7893
 1584ACTN    H316302   6.411   8.885   1.778 -0.5028 -0.8348 -1.3209
 1585ACTN    H616303   5.431   3.044   4.424 -2.6018  3.5678 -0.3325
 1585ACTN    C316304   5.512   3.115   4.444  0.0636  0.3382  0.8076
 1585ACTN    H416305   5.572   3.119   4.353  2.6980 -1.5722  2.4017
 1585ACTN    H516306   5.472   3.216   4.448 -0.5541  0.2267 -1.4983
 1585ACTN    C216307   5.591   3.065   4.561 -0.5074  0.2508 -0.7472
 1585ACTN    O116308   5.671   3.148   4.611  0.4939 -0.0707 -0.4521
 1585ACTN    C116309   5.583   2.925   4.613  0.2009 -0.1039 -0.8550
 1585ACTN    H116310   5.658   2.914   4.692 -1.1125  0.2071  0.4572
 1585ACTN    H216311   5.599   2.849   4.537 -0.0879 -2.8964  1.7752
 1585ACTN    H316312   5.488   2.903   4.662  0.1400  2.0050  0.0021
 1586ACTN    H616313   1.676   7.982   3.178  0.4060 -0.1882 -0.4198
 1586ACTN    C316314   1.746   7.986   3.094  0.7078 -0.1669 -0.1700
 1586ACTN    H416315   1.764   8.088   3.058 -1.3079  0.5249  0.7154
 1586ACTN    H516316   1.843   7.951   3.129  1.8827  4.1638  1.2134
 1586ACTN    C216317   1.695   7.889   2.988 -0.6364  0.7706 -0.6525
 1586ACTN    O116318   1.580   7.881   2.973  0.6292 -0.0405 -0.3299
 1586ACTN    C116319   1.781   7.883   2.864  0.6453 -0.1958  0.2022
 1586ACTN    H116320   1.773   7.974   2.804  1.2873 -1.0071 -1.1306
 1586ACTN    H216321   1.745   7.807   2.794 -0.6498  0.6573 -0.0649
 1586ACTN    H316322   1.883   7.863   2.898  0.4069 -1.8555 -0.0005
 1587ACTN    H616323   6.412   6.387   1.495 -0.4974 -1.0274  0.0183
 1587ACTN    C316324   6.380   6.423   1.593 -0.2955 -0.1863 -0.2177
 1587ACTN    H416325   6.332   6.521   1.587 -1.0683 -0.6757 -2.2370
 1587ACTN    H516326   6.315   6.344   1.632  1.0995 -2.7172 -2.8252
 1587ACTN    C216327   6.504   6.441   1.680  0.0183 -0.4545  1.3591
 1587ACTN    O116328   6.588   6.521   1.641  0.1653  0.8066 -0.5015
 1587ACTN    C116329   6.515   6.364   1.803  0.3575  0.1154 -0.0207
 1587ACTN    H116330   6.492   6.260   1.781  2.1281 -0.5479  1.1771
 1587ACTN    H216331   6.440   6.393   1.878  1.3138  0.7246  0.7086
 1587ACTN    H316332   6.617   6.378   1.839  0.3493  0.8480 -0.2835
 1588ACTN    H616333   8.493   1.053   7.114  0.1115 -1.5202 -0.5815
 1588ACTN    C316334   8.602   1.045   7.112  0.1848 -0.6346 -0.1968
 1588ACTN    H416335   8.646   1.132   7.063 -1.5714  1.1858  1.3495
 1588ACTN    H516336   8.640   1.035   7.214 -0.0385  0.2932 -0.0137
 1588ACTN    C216337   8.637   0.918   7.047 -0.4456 -0.3086  0.3965
 1588ACTN    O116338   8.752   0.889   7.013 -0.0816  0.6157  0.7427
 1588ACTN    C116339   8.522   0.820   7.030  0.5271  0.2430 -0.4366
 1588ACTN    H116340   8.454   0.842   6.947  0.5993  0.1080 -0.5320
 1588ACTN    H216341   8.467   0.829   7.124  0.1563 -2.1455 -0.3855
 1588ACTN    H316342   8.548   0.715   7.019  1.4076  0.2160  1.7222
 1589ACTN    H616343   1.464   5.902   3.674 -0.0356 -0.8234 -0.7837
 1589ACTN    C316344   1.428   5.844   3.759 -0.2020 -0.2898 -0.4821
 1589ACTN    H416345   1.493   5.757   3.768 -0.2777 -0.2244  0.6564
 1589ACTN    H516346   1.449   5.887   3.857 -0.1923 -2.1850  0.3675
 1589ACTN    C216347   1.284   5.803   3.758  0.1933  0.4611 -0.0655
 1589ACTN    O116348   1.222   5.813   3.863  0.2836 -0.0827  0.4778
 1589ACTN    C116349   1.220   5.795   3.626 -0.6132  0.2718  0.4386
 1589ACTN    H116350   1.129   5.736   3.634  0.2984 -1.3904 -0.9748
 1589ACTN    H216351   1.286   5.741   3.558  1.3965  1.9027  1.0486
 1589ACTN    H316352   1.204   5.892   3.579  1.7653 -0.3844 -1.8886
 1590ACTN    H616353   3.353   0.840   2.417  2.7690 -0.6265  1.5782
 1590ACTN    C316354   3.350   0.922   2.488  0.1143  0.8288 -0.1368
 1590ACTN    H416355   3.443   0.976   2.470  0.3709  1.1800  2.1190
 1590ACTN    H516356   3.265   0.991   2.480 -1.7194 -1.6813 -3.7249
 1590ACTN    C216357   3.344   0.855   2.624 -0.2458 -0.5247 -0.3298
 1590ACTN    O116358   3.345   0.921   2.726  0.0633 -0.0976 -0.6380
 1590ACTN    C116359   3.352   0.709   2.643  0.2274  0.0237 -0.2076
 1590ACTN    H116360   3.440   0.675   2.698 -0.4629 -0.4388  0.6051
 1590ACTN    H216361   3.354   0.664   2.543 -0.5785 -0.5351  0.0249
 1590ACTN    H316362   3.261   0.674   2.690  1.4197 -3.3796 -0.2809
 1591ACTN    H616363   3.758   7.712   2.476  0.8972 -0.2210  0.7253
 1591ACTN    C316364   3.814   7.803   2.494  0.5678  0.0271  0.4947
 1591ACTN    H416365   3.918   7.783   2.518  0.6397 -0.0196  0.1507
 1591ACTN    H516366   3.816   7.857   2.399  2.0872  0.2845  0.6614
 1591ACTN    C216367   3.723   7.877   2.594  0.2890 -1.4699  1.0808
 1591ACTN    O116368   3.646   7.960   2.556  0.0455 -0.4039  0.1622
 1591ACTN    C116369   3.735   7.846   2.740  0.0704 -1.1639 -0.7009
 1591ACTN    H116370   3.822   7.789   2.773  0.3744 -0.3139 -0.0213
 1591ACTN    H216371   3.648   7.784   2.762 -3.0653  3.2611  0.0293
 1591ACTN    H316372   3.718   7.940   2.793  2.6789 -1.0120 -0.0588
 1592ACTN    H616373   0.645   0.852   3.787  2.0239  1.4473  1.1245
 1592ACTN    C316374   0.726   0.806   3.731  0.2318 -0.2823 -0.1243
 1592ACTN    H416375   0.806   0.781   3.800  0.5453 -2.6121 -1.2921
 1592ACTN    H516376   0.692   0.720   3.673  0.6377 -1.7268  1.7695
 1592ACTN    C216377   0.782   0.910   3.641  0.2553  0.3437 -1.2225
 1592ACTN    O116378   0.814   1.011   3.689 -0.1165  0.3137 -0.5248
 1592ACTN    C116379   0.789   0.886   3.496  0.0949  0.4016  0.2541
 1592ACTN    H116380   0.732   0.951   3.429  2.1987 -0.5749 -2.5905
 1592ACTN    H216381   0.752   0.787   3.471  0.0357  0.4699  0.0685
 1592ACTN    H316382   0.893   0.879   3.466 -0.2217  2.1135 -1.3989
 1593ACTN    H616383   2.787   4.572   1.419  0.2765 -0.0170  1.6429
 1593ACTN    C316384   2.741   4.669   1.432  0.1798  0.1026  0.4314
 1593ACTN    H416385   2.759   4.727   1.341 -3.0093 -2.2783 -1.8376
 1593ACTN    H516386   2.636   4.648   1.454  0.3119  0.8090  1.7861
 1593ACTN    C216387   2.797   4.741   1.551 -0.4951 -0.0848  0.2173
 1593ACTN    O116388   2.829   4.859   1.547 -0.1861  0.5454  0.3315
 1593ACTN    C116389   2.810   4.668   1.681  0.3600  0.0714  0.8083
 1593ACTN    H116390   2.768   4.568   1.681 -1.1991  0.7054 -1.5519
 1593ACTN    H216391   2.773   4.723   1.768 -2.3342  1.6872 -1.2740
 1593ACTN    H316392   2.918   4.664   1.695  0.9896  1.2037 -3.2124
 1594ACTN    H616393   2.312   7.806   4.703  0.9415 -1.9421 -0.1434
 1594ACTN    C316394   2.244   7.729   4.737 -0.1692 -0.8739  0.0791
 1594ACTN    H416395   2.177   7.778   4.808  0.3651 -0.4528  0.2901
 1594ACTN    H516396   2.183   7.679   4.661 -2.1301  0.4378  0.7424
 1594ACTN    C216397   2.321   7.617   4.809 -0.4552 -0.0232  0.7474
 1594ACTN    O116398   2.383   7.536   4.738  1.0649 -0.1421 -0.0260
 1594ACTN    C116399   2.305   7.590   4.953  0.2243 -0.5640  0.6185
 1594ACTN    H116400   2.264   7.489   4.964  1.0055 -0.8131  1.2172
 1594ACTN    H216401   2.237   7.661   5.000 -1.2550 -1.5055 -0.0502
 1594ACTN    H316402   2.400   7.588   5.005  0.8365 -0.8101 -0.4972
 1595ACTN    H616403   8.201   0.727   4.784  1.1999 -1.1279 -1.2619
 1595ACTN    C316404   8.215   0.811   4.716 -0.1034  0.0536 -0.1041
 1595ACTN    H416405   8.245   0.894   4.779 -1.1217  0.9067 -0.7292
 1595ACTN    H516406   8.299   0.793   4.649  2.5276  0.1231  3.0630
 1595ACTN    C216407   8.091   0.841   4.640 -0.9006  1.2506 -0.2721
 1595ACTN    O116408   8.100   0.937   4.556 -0.1078  0.4596 -0.2155
 1595ACTN    C116409   7.967   0.764   4.657  0.1589 -1.0004  0.5567
 1595ACTN    H116410   7.880   0.829   4.665 -0.2303 -1.3959 -0.3294
 1595ACTN    H216411   7.978   0.701   4.746  1.6090  0.1944  1.2402
 1595ACTN    H316412   7.945   0.694   4.576  1.1745 -0.7392  0.0471
 1596ACTN    H616413   7.457   1.080   2.744  1.1522  0.0454 -0.7359
 1596ACTN    C316414   7.424   1.151   2.669 -0.0818 -0.1636 -0.3890
 1596ACTN    H416415   7.383   1.095   2.584 -0.0544 -2.5206  1.1048
 1596ACTN    H516416   7.344   1.207   2.717  2.6081  2.0506  1.6371
 1596ACTN    C216417   7.530   1.246   2.627  0.0394  0.3741 -0.8033
 1596ACTN    O116418   7.631   1.255   2.693 -0.8268  0.5416 -0.3217
 1596ACTN    C116419   7.492   1.347   2.519  0.4076 -0.1645 -0.0301
 1596ACTN    H116420   7.445   1.288   2.440 -2.2717  2.2457 -0.3058
 1596ACTN    H216421   7.572   1.408   2.478 -0.0569  0.1377 -0.4894
 1596ACTN    H316422   7.418   1.410   2.566 -0.6024 -0.9811 -0.5034
 1597ACTN    H616423   3.145   7.756   0.601  0.7974  0.4075 -1.4915
 1597ACTN    C316424   3.097   7.853   0.597  0.3930  0.2856  0.2138
 1597ACTN    H416425   3.095   7.893   0.496  2.3514 -1.8473 -0.7038
 1597ACTN    H516426   2.994   7.849   0.635 -0.1980  1.7024 -1.1573
 1597ACTN    C216427   3.182   7.941   0.684 -0.2825 -0.9891  0.1984
 1597ACTN    O116428   3.209   7.913   0.802  0.0884 -0.1529 -0.4274
 1597ACTN    C116429   3.234   8.070   0.627 -0.0450 -0.5396  0.1490
 1597ACTN    H116430   3.291   8.053   0.536 -0.5786  0.2520 -0.3401
 1597ACTN    H216431   3.305   8.116   0.697 -0.2022 -0.0650 -0.0044
 1597ACTN    H316432   3.155   8.140   0.601 -0.9482 -0.7205  2.3210
 1598ACTN    H616433   5.478   5.381   5.699 -0.0146  0.2305  0.3257
 1598ACTN    C316434   5.393   5.319   5.669 -0.0407  0.3933  0.0660
 1598ACTN    H416435   5.444   5.226   5.642  0.5374  0.4148  1.0524
 1598ACTN    H516436   5.343   5.298   5.763 -0.9487  0.8069 -0.3148
 1598ACTN    C216437   5.306   5.374   5.568  0.4297  0.0993 -0.1374
 1598ACTN    O116438   5.321   5.488   5.520  0.2070 -0.2520 -0.3116
 1598ACTN    C116439   5.202   5.287   5.513 -0.3211 -0.0165  0.7864
 1598ACTN    H116440   5.227   5.255   5.412  1.0365  3.0464  0.0687
 1598ACTN    H216441   5.107   5.341   5.509  0.1182  1.1484  4.2721
 1598ACTN    H316442   5.184   5.200   5.576 -0.9899 -0.4100  0.0515
 1599ACTN    H616443   5.982   8.337   2.169  0.5415 -0.7983 -0.8607
 1599ACTN    C316444   6.090   8.328   2.162  0.6835  0.4935 -0.4428
 1599ACTN    H416445   6.121   8.263   2.244  1.0523  1.4161  0.1510
 1599ACTN    H516446   6.128   8.284   2.070 -0.2866  1.5547 -1.3615
 1599ACTN    C216447   6.152   8.459   2.167  0.2877  0.3371  0.1555
 1599ACTN    O116448   6.229   8.504   2.079  0.5154  0.7989  0.4658
 1599ACTN    C116449   6.094   8.563   2.265 -0.1344 -1.2501  0.3638
 1599ACTN    H116450   5.997   8.534   2.305 -0.0574 -0.0886  1.4336
 1599ACTN    H216451   6.093   8.658   2.212 -0.6830  0.3063  3.1030
 1599ACTN    H316452   6.156   8.587   2.351 -0.2011  3.1557 -0.7167
 1600ACTN    H616453   4.779   7.242   4.203  1.2204 -1.3963  0.4856
 1600ACTN    C316454   4.749   7.263   4.306 -0.7926 -0.6875 -0.2045
 1600ACTN    H416455   4.673   7.339   4.289  0.6728  0.6819 -0.7576
 1600ACTN    H516456   4.698   7.182   4.357  0.9599 -1.0374  1.0595
 1600ACTN    C216457   4.857   7.345   4.366  0.3613  0.0431  0.8245
 1600ACTN    O116458   4.929   7.409   4.293  0.0982  0.1561  0.4936
 1600ACTN    C116459   4.907   7.303   4.508  0.3546 -0.3131  0.0611
 1600ACTN    H116460   4.945   7.388   4.564  0.8195 -0.0733 -0.6159
 1600ACTN    H216461   4.979   7.222   4.501 -0.0297 -0.6297 -0.3038
 1600ACTN    H316462   4.819   7.266   4.562 -0.8454  1.7975 -0.4201
 1601ACTN    H616463   7.350   6.219   7.753 -2.2899  1.8724 -0.6611
 1601ACTN    C316464   7.282   6.222   7.837 -0.2026  0.1235  1.1674
 1601ACTN    H416465   7.201   6.290   7.810 -0.5143 -0.7846 -0.1846
 1601ACTN    H516466   7.327   6.265   7.927 -0.6614  2.1361  0.4790
 1601ACTN    C216467   7.234   6.085   7.864 -0.4240 -0.3186 -0.2759
 1601ACTN    O116468   7.288   6.011   7.949 -0.3766  0.2624 -0.3730
 1601ACTN    C116469   7.108   6.041   7.804  0.3536  0.4100 -0.4634
 1601ACTN    H116470   7.042   5.990   7.874 -0.5926  0.0790 -1.5881
 1601ACTN    H216471   7.144   5.975   7.725  3.2024  1.9512 -0.5462
 1601ACTN    H316472   7.054   6.120   7.751  0.1569  0.2276 -0.5324
 1602ACTN    H616473   0.468   7.050   2.224  0.0878  0.1041 -0.0246
 1602ACTN    C316474   0.496   7.030   2.121  0.1010  0.2442 -0.0493
 1602ACTN    H416475   0.473   6.925   2.099 -3.3391  0.7113  1.0036
 1602ACTN    H516476   0.442   7.094   2.052 -0.2120 -0.7501 -0.7423
 1602ACTN    C216477   0.640   7.070   2.111  0.1318 -1.0348 -0.4178
 1602ACTN    O116478   0.681   7.177   2.069  0.0751 -0.1719  0.5393
 1602ACTN    C116479   0.734   6.972   2.177  0.4068 -0.2541 -0.0258
 1602ACTN    H116480   0.833   7.015   2.187  0.5216 -0.1101 -1.5797
 1602ACTN    H216481   0.740   6.889   2.106 -0.5021  1.1118 -1.7662
 1602ACTN    H316482   0.710   6.920   2.270  1.2483 -0.0533  0.3036
 1603ACTN    H616483   5.069   8.465   8.675  1.5453 -0.4902  0.1926
 1603ACTN    C316484   5.059   8.356   8.678  0.0642 -0.3669  0.4116
 1603ACTN    H416485   5.116   8.330   8.767 -1.0735 -2.3666  0.5651
 1603ACTN    H516486   4.958   8.317   8.690  1.5399 -4.0943  1.4319
 1603ACTN    C216487   5.123   8.280   8.568 -0.0914 -0.8119 -0.1023
 1603ACTN    O116488   5.217   8.325   8.509  0.1418  0.0335 -0.0600
 1603ACTN    C116489   5.085   8.142   8.551 -0.1944  0.2019  0.0025
 1603ACTN    H116490   5.166   8.071   8.570 -0.8099 -0.3964  0.4439
 1603ACTN    H216491   5.048   8.111   8.454  0.3827  1.4789 -0.6297
 1603ACTN    H316492   5.003   8.128   8.622 -1.2870  3.6151 -0.5005
 1604ACTN    H616493   7.324   7.037   7.909  1.5736  0.6459 -0.4163
 1604ACTN    C316494   7.410   6.971   7.923  0.7826 -0.3297 -0.1359
 1604ACTN    H416495   7.463   6.966   7.828  1.0404  0.6312 -0.0424
 1604ACTN    H516496   7.485   7.014   7.989  2.0846  2.1153 -3.0732
 1604ACTN    C216497   7.378   6.832   7.964 -0.0220 -0.6797  0.2439
 1604ACTN    O116498   7.294   6.762   7.904 -0.3583 -0.0113 -0.2708
 1604ACTN    C116499   7.447   6.784   8.086 -0.7758  0.4462 -0.9579
 1604ACTN    H116500   7.550   6.817   8.088 -0.4543 -0.6103  0.8142
 1604ACTN    H216501   7.446   6.675   8.093 -0.9395  0.4800 -0.4275
 1604ACTN    H316502   7.400   6.823   8.176  0.7303  2.5363 -1.0431
 1605ACTN    H616503   0.754   5.828   4.223 -2.3268 -0.2146  2.9967
 1605ACTN    C316504   0.843   5.836   4.285 -0.3101 -0.1704  0.1766
 1605ACTN    H416505   0.908   5.752   4.259  0.0545  0.2491 -0.2685
 1605ACTN    H516506   0.885   5.928   4.245  0.1047 -0.0383  0.9036
 1605ACTN    C216507   0.820   5.854   4.432  0.2043 -0.3061  0.8638
 1605ACTN    O116508   0.703   5.879   4.466  0.3836 -0.4106  0.2249
 1605ACTN    C116509   0.939   5.877   4.526 -0.8351 -0.8655  0.6762
 1605ACTN    H116510   0.903   5.899   4.627 -0.7226 -0.6758  0.6756
 1605ACTN    H216511   0.988   5.966   4.487 -1.0284 -1.0176  0.0895
 1605ACTN    H316512   1.001   5.789   4.537 -1.6624 -1.3619  1.5289
 1606ACTN    H616513   4.966   8.650   2.284 -0.2487 -0.2237 -1.1258
 1606ACTN    C316514   4.958   8.746   2.336  0.5829 -0.7118 -0.0762
 1606ACTN    H416515   5.056   8.758   2.382  1.3917 -0.7790 -1.7100
 1606ACTN    H516516   4.952   8.821   2.257  0.4110 -0.2303  0.3997
 1606ACTN    C216517   4.835   8.746   2.416 -0.2960  0.1009 -0.2443
 1606ACTN    O116518   4.797   8.841   2.484  0.3442 -0.1442 -0.0577
 1606ACTN    C116519   4.760   8.617   2.425  0.6535  0.5413 -0.0533
 1606ACTN    H116520   4.789   8.545   2.348  0.2061  0.9378 -0.5955
 1606ACTN    H216521   4.651   8.624   2.425  0.6452  0.4367 -0.9994
 1606ACTN    H316522   4.783   8.574   2.522  2.4476 -1.9418 -1.5287
 1607ACTN    H616523   6.570   0.516   1.491  0.7027 -0.0420  1.3270
 1607ACTN    C316524   6.533   0.609   1.536 -0.2390  0.0361  0.4060
 1607ACTN    H416525   6.524   0.587   1.642 -3.3111  0.9484  0.3679
 1607ACTN    H516526   6.614   0.680   1.518 -0.4272 -0.1040 -1.0973
 1607ACTN    C216527   6.403   0.661   1.486  0.5861  0.1867  0.4626
 1607ACTN    O116528   6.408   0.754   1.405 -0.0138 -0.3596  0.2009
 1607ACTN    C116529   6.273   0.584   1.494 -0.2199 -0.0413 -0.7622
 1607ACTN    H116530   6.203   0.649   1.546 -0.6319 -0.7444 -0.4218
 1607ACTN    H216531   6.290   0.492   1.550  2.9847  1.8859  1.5867
 1607ACTN    H316532   6.220   0.561   1.401 -0.2724 -2.0591 -0.2553
 1608ACTN    H616533   0.269   2.421   1.153 -0.5910  0.2343  0.1351
 1608ACTN    C316534   0.267   2.318   1.190 -0.3441  0.0277 -0.4172
 1608ACTN    H416535   0.335   2.306   1.275 -1.2091  3.6985  0.9275
 1608ACTN    H516536   0.172   2.289   1.233 -0.4287  1.5728  0.5053
 1608ACTN    C216537   0.297   2.224   1.077  0.0356  0.8463  0.0790
 1608ACTN    O116538   0.277   2.105   1.083 -0.3966  1.2037 -0.1202
 1608ACTN    C116539   0.328   2.284   0.941  0.0899 -0.0695  0.4803
 1608ACTN    H116540   0.326   2.214   0.858 -2.4858  1.4588 -0.7935
 1608ACTN    H216541   0.426   2.332   0.946 -1.0547  2.4676 -0.6915
 1608ACTN    H316542   0.255   2.360   0.913  1.6956  0.5209 -2.2326
 1609ACTN    H616543   5.022   8.832   4.148  1.4448 -0.1681  0.9154
 1609ACTN    C316544   5.020   8.731   4.105 -0.3725  0.5999 -0.8990
 1609ACTN    H416545   5.105   8.715   4.038 -0.7744 -0.7338 -1.0987
 1609ACTN    H516546   5.035   8.665   4.190  1.9073 -0.4164 -2.0354
 1609ACTN    C216547   4.891   8.692   4.036 -0.0478 -0.4528 -0.2940
 1609ACTN    O116548   4.887   8.602   3.958  0.6973 -0.1068  0.7681
 1609ACTN    C116549   4.772   8.777   4.064 -0.3485 -0.3578  0.7116
 1609ACTN    H116550   4.747   8.844   3.982  1.5363  0.2144  0.5780
 1609ACTN    H216551   4.784   8.833   4.157 -1.9192  1.6113 -0.2344
 1609ACTN    H316552   4.686   8.711   4.076 -0.7814  0.2491  0.9795
 1610ACTN    H616553   3.579   1.601   3.622 -2.3816  2.5604 -2.1881
 1610ACTN    C316554   3.493   1.545   3.661  0.1831  0.1166  0.1950
 1610ACTN    H416555   3.526   1.454   3.712  0.8179  0.8429  1.1054
 1610ACTN    H516556   3.443   1.609   3.734  0.2791 -1.1481  1.3815
 1610ACTN    C216557   3.408   1.517   3.542  0.8508  0.5518  0.1441
 1610ACTN    O116558   3.304   1.579   3.537 -0.3193  0.0928 -1.3367
 1610ACTN    C116559   3.446   1.407   3.443 -0.0753  0.4820  0.0567
 1610ACTN    H116560   3.545   1.367   3.461  0.4692  1.3947 -0.8919
 1610ACTN    H216561   3.438   1.444   3.341 -0.0449 -1.6733 -0.7673
 1610ACTN    H316562   3.382   1.319   3.457 -1.1795  1.4066  0.9387
 1611ACTN    H616563   7.913   0.921   7.737 -1.0858  1.7893 -2.2138
 1611ACTN    C316564   7.814   0.914   7.783  0.0719 -0.1301  0.1314
 1611ACTN    H416565   7.835   0.917   7.889  1.0773 -0.5748 -0.0473
 1611ACTN    H516566   7.757   1.003   7.753 -0.4540 -0.5920 -0.2650
 1611ACTN    C216567   7.743   0.787   7.748  0.2178 -0.4812 -0.2591
 1611ACTN    O116568   7.788   0.685   7.785 -0.5163  0.0837 -0.5763
 1611ACTN    C116569   7.639   0.787   7.641 -0.2668  0.2103  0.3794
 1611ACTN    H116570   7.565   0.866   7.649 -1.4154 -0.2626 -4.1741
 1611ACTN    H216571   7.575   0.699   7.650  1.2729 -0.8804  0.9954
 1611ACTN    H316572   7.686   0.790   7.543 -0.5366  2.6902  0.2891
 1612ACTN    H616573   7.039   3.969   5.876  1.3845 -0.5632  0.1731
 1612ACTN    C316574   7.066   4.039   5.797 -0.2542 -0.4499 -0.3048
 1612ACTN    H416575   6.989   4.116   5.799  0.5952  0.3924  1.6078
 1612ACTN    H516576   7.159   4.089   5.820  1.1066 -1.1488 -3.9552
 1612ACTN    C216577   7.077   3.977   5.656  0.0469 -0.4146  0.3626
 1612ACTN    O116578   7.057   4.060   5.564 -0.1854  0.3629  0.0579
 1612ACTN    C116579   7.134   3.840   5.644  0.4693  0.0552  0.0536
 1612ACTN    H116580   7.162   3.808   5.744  0.3605 -0.7724 -0.1795
 1612ACTN    H216581   7.215   3.837   5.571  0.8103 -1.4780  0.4803
 1612ACTN    H316582   7.057   3.771   5.610 -1.0590  1.7631 -0.0138
 1613ACTN    H616583   8.925   0.360   8.726  0.1001 -2.3940  3.0907
 1613ACTN    C316584   9.031   0.344   8.708  0.0800  0.2113  0.2816
 1613ACTN    H416585   9.046   0.301   8.609  2.0861  1.8441 -0.1497
 1613ACTN    H516586   9.082   0.440   8.697 -0.3140  0.4291  0.3620
 1613ACTN    C216587   9.077   0.249   8.819 -0.0638  0.5335 -0.1602
 1613ACTN    O116588   9.029   0.277   8.926  0.5809 -0.3176  0.0111
 1613ACTN    C116589   9.154   0.124   8.788 -0.3802 -0.3847  0.4368
 1613ACTN    H116590   9.097   0.065   8.717  2.3051 -2.1437 -0.3082
 1613ACTN    H216591   9.157   0.063   8.878  0.9843 -1.6630 -0.4477
 1613ACTN    H316592   9.256   0.137   8.750  1.2371  1.3946  4.9965
 1614ACTN    H616593   6.997   2.440   2.047  1.7185  2.8079  0.0255
 1614ACTN    C316594   6.992   2.448   1.938  0.1018 -0.0269 -0.1342
 1614ACTN    H416595   6.961   2.354   1.892 -0.5236 -0.4820  1.1993
 1614ACTN    H516596   6.922   2.522   1.899  0.0539 -0.0038 -0.0068
 1614ACTN    C216597   7.135   2.484   1.892  0.0880  0.4665  0.9068
 1614ACTN    O116598   7.155   2.522   1.776  0.1943  0.5915 -0.3356
 1614ACTN    C116599   7.253   2.494   1.980  0.4884 -0.2021  0.1474
 1614ACTN    H116600   7.339   2.441   1.940  1.3304 -0.1995  1.9015
 1614ACTN    H216601   7.221   2.456   2.077 -0.3184  2.3040  0.9114
 1614ACTN    H316602   7.286   2.598   1.992 -0.1923 -0.0007  0.3033
 1615ACTN    H616603   8.547   1.975   5.778  2.1255  0.6922 -3.9281
 1615ACTN    C316604   8.641   2.000   5.828 -0.0172  0.2320  0.5754
 1615ACTN    H416605   8.663   1.917   5.894 -1.1567 -0.9857 -0.5392
 1615ACTN    H516606   8.726   2.000   5.760 -0.2865  1.9155  0.2108
 1615ACTN    C216607   8.635   2.127   5.907 -0.0196  0.0123  0.7877
 1615ACTN    O116608   8.709   2.221   5.889 -0.2682 -0.2971 -0.0090
 1615ACTN    C116609   8.541   2.124   6.027 -0.9263  0.0331  0.5334
 1615ACTN    H116610   8.440   2.093   5.999 -0.2709 -1.0809 -0.6598
 1615ACTN    H216611   8.537   2.225   6.068  3.6739 -0.8333  3.4052
 1615ACTN    H316612   8.587   2.054   6.096 -1.3303  0.0934  0.8659
 1616ACTN    H616613   6.188   0.448   4.215  0.0300  1.6748  3.2869
 1616ACTN    C316614   6.142   0.351   4.231  0.3300  0.9325 -0.0935
 1616ACTN    H416615   6.213   0.289   4.285 -0.6827  0.3727  0.6152
 1616ACTN    H516616   6.052   0.368   4.290 -2.4204 -2.9139 -2.8633
 1616ACTN    C216617   6.104   0.297   4.091 -0.0004  0.0776 -0.5137
 1616ACTN    O116618   6.197   0.292   4.004  0.0828 -1.1626 -0.1793
 1616ACTN    C116619   5.962   0.269   4.055 -0.1428 -0.6332 -1.0852
 1616ACTN    H116620   5.917   0.205   4.130  2.7282  1.2371  2.3971
 1616ACTN    H216621   5.947   0.232   3.953  1.6848 -0.0143 -1.6193
 1616ACTN    H316622   5.917   0.367   4.069 -3.1604 -2.1852  0.6189
 1617ACTN    H616623   0.740   4.855   4.633 -1.0199 -0.0447  0.5648
 1617ACTN    C316624   0.774   4.958   4.622  0.1373 -0.4610  0.1028
 1617ACTN    H416625   0.860   4.958   4.555  0.7661  1.9919  0.8530
 1617ACTN    H516626   0.693   5.023   4.588  0.7770 -0.1739 -0.8822
 1617ACTN    C216627   0.846   5.018   4.751  0.3124  0.0847 -0.1813
 1617ACTN    O116628   0.798   5.110   4.817  0.2142  0.6881  0.6950
 1617ACTN    C116629   0.982   4.972   4.790  0.0148  0.1646 -0.0446
 1617ACTN    H116630   0.982   4.863   4.792  2.4063  0.1389  0.1582
 1617ACTN    H216631   1.017   5.018   4.883  0.0683  0.6288 -0.2934
 1617ACTN    H316632   1.047   4.988   4.704  0.4053  1.4004  0.4714
 1618ACTN    H616633   3.718   1.027   1.768 -0.7861 -1.5876  0.2407
 1618ACTN    C316634   3.609   1.023   1.781 -0.8498 -0.5569  0.0463
 1618ACTN    H416635   3.561   1.103   1.725  1.3742  1.3323  0.7486
 1618ACTN    H516636   3.567   0.929   1.743  0.8253 -1.1519 -0.3864
 1618ACTN    C216637   3.582   1.039   1.926  0.0154 -0.3897 -0.3095
 1618ACTN    O116638   3.476   0.991   1.976  0.1032  0.2034  0.5760
 1618ACTN    C116639   3.700   1.085   2.013  0.0475  0.6463  0.3478
 1618ACTN    H116640   3.662   1.087   2.115  0.0051 -1.1662  0.3829
 1618ACTN    H216641   3.727   1.189   1.992  0.5003  0.8390  1.8873
 1618ACTN    H316642   3.787   1.022   1.997 -1.3662 -0.8215 -1.8377
 1619ACTN    H616643   7.643   8.752   3.778 -0.6168  0.9351 -0.6879
 1619ACTN    C316644   7.684   8.783   3.874 -0.1638 -0.7479 -0.3295
 1619ACTN    H416645   7.649   8.707   3.944  1.1510 -3.6514 -2.7214
 1619ACTN    H516646   7.791   8.768   3.885  0.4250  1.5222 -2.5481
 1619ACTN    C216647   7.658   8.919   3.921  0.3421 -0.0279  0.2325
 1619ACTN    O116648   7.624   8.933   4.033 -0.2752 -0.0475 -0.3789
 1619ACTN    C116649   7.662   9.046   3.832  0.2229  0.3585  0.0796
 1619ACTN    H116650   7.563   9.058   3.788 -0.0056 -0.5161  0.3428
 1619ACTN    H216651   7.744   9.036   3.761  1.6552 -0.3182  1.7879
 1619ACTN    H316652   7.681   9.135   3.892 -0.9938  0.5289  0.2362
 1620ACTN    H616653   7.109   5.990   6.581  0.4752  1.0188 -2.5457
 1620ACTN    C316654   7.081   6.081   6.635 -0.4389 -1.0254  0.5442
 1620ACTN    H416655   7.149   6.157   6.597 -0.5034 -2.6677 -3.0036
 1620ACTN    H516656   6.977   6.105   6.613  0.2871  2.9137  1.0813
 1620ACTN    C216657   7.092   6.059   6.785 -0.2651 -0.4758  0.0308
 1620ACTN    O116658   7.023   5.971   6.840  0.3714  0.1509 -0.0657
 1620ACTN    C116659   7.184   6.139   6.872 -0.1377  0.2373 -0.7529
 1620ACTN    H116660   7.171   6.103   6.974  0.9041 -2.1737 -1.4591
 1620ACTN    H216661   7.151   6.243   6.871 -1.1038 -0.0593 -0.4564
 1620ACTN    H316662   7.288   6.127   6.842 -0.1518  0.0137 -0.7099
 1621ACTN    H616663   7.535   0.613   3.429  0.5037  1.1095 -1.5983
 1621ACTN    C316664   7.449   0.678   3.414  0.2363  1.0550 -0.3460
 1621ACTN    H416665   7.388   0.646   3.329  2.4088  0.6364 -1.8103
 1621ACTN    H516666   7.382   0.658   3.497  1.7245 -0.8022  0.4438
 1621ACTN    C216667   7.486   0.821   3.411 -0.2422  0.9880  0.5193
 1621ACTN    O116668   7.546   0.871   3.512  0.1921 -0.2660 -0.3545
 1621ACTN    C116669   7.483   0.905   3.291 -0.5459  0.7561 -0.1542
 1621ACTN    H116670   7.553   0.871   3.215 -0.2263 -0.5650  0.7259
 1621ACTN    H216671   7.511   1.009   3.308 -2.7718  0.9255  2.9121
 1621ACTN    H316672   7.378   0.901   3.262 -1.6826 -0.5238  3.8257
 1622ACTN    H616673   7.283   6.665   0.732 -0.5716  0.8032  1.4982
 1622ACTN    C316674   7.247   6.563   0.747 -0.1052  0.3558 -0.2768
 1622ACTN    H416675   7.158   6.540   0.690  1.8667 -2.0235 -2.5277
 1622ACTN    H516676   7.331   6.503   0.710  0.4676  2.6463 -2.8400
 1622ACTN    C216677   7.214   6.532   0.886  0.8924 -0.9125 -0.1087
 1622ACTN    O116678   7.283   6.454   0.951 -0.4748  0.1359  0.0170
 1622ACTN    C116679   7.122   6.619   0.969 -0.0115  0.1152  0.3000
 1622ACTN    H116680   7.073   6.563   1.048  1.0294 -0.5783  0.4686
 1622ACTN    H216681   7.042   6.658   0.906 -0.2319 -2.7434 -1.2828
 1622ACTN    H316682   7.181   6.695   1.020 -0.4413  0.1944  0.6741
 1623ACTN    H616683   6.804   1.448   1.738  0.0551  0.7424 -0.1068
 1623ACTN    C316684   6.722   1.504   1.783 -0.0158  0.1592  0.4971
 1623ACTN    H416685   6.648   1.495   1.703 -0.3279  0.4419  0.7521
 1623ACTN    H516686   6.676   1.451   1.866  1.5752 -0.6482  0.8722
 1623ACTN    C216687   6.768   1.644   1.780 -0.3545  0.0522 -0.1655
 1623ACTN    O116688   6.809   1.695   1.884  0.0733  0.1313  0.0923
 1623ACTN    C116689   6.806   1.695   1.643 -0.2158  0.3488 -0.5334
 1623ACTN    H116690   6.910   1.665   1.631  0.0074 -0.0767  2.0651
 1623ACTN    H216691   6.792   1.802   1.630 -3.8480  0.2400  1.6063
 1623ACTN    H316692   6.746   1.638   1.572 -0.0319  0.7496 -1.0060
 1624ACTN    H616693   1.076   7.873   7.050  2.9528 -3.6270  0.9704
 1624ACTN    C316694   1.060   7.808   6.964  0.0187 -0.2309 -1.2151
 1624ACTN    H416695   1.140   7.737   6.984  2.0150  1.9165 -1.3898
 1624ACTN    H516696   0.960   7.764   6.970 -1.0747  2.4112  0.8034
 1624ACTN    C216697   1.086   7.874   6.834  0.0739 -0.1617 -0.2251
 1624ACTN    O116698   1.002   7.951   6.785 -0.3164 -0.7731 -0.6222
 1624ACTN    C116699   1.231   7.869   6.791 -0.0156 -0.3011 -0.2156
 1624ACTN    H116700   1.277   7.965   6.769  2.1366 -1.5197 -1.1309
 1624ACTN    H216701   1.236   7.812   6.698 -3.1042 -0.4531 -0.3655
 1624ACTN    H316702   1.295   7.826   6.868  0.8455 -0.5730 -1.0748
 1625ACTN    H616703   3.534   4.816   2.681  0.9167 -1.0469 -0.9371
 1625ACTN    C316704   3.560   4.871   2.590  0.0021  0.5569 -0.2435
 1625ACTN    H416705   3.607   4.965   2.618 -1.3228  0.8376  1.1805
 1625ACTN    H516706   3.633   4.812   2.535  0.9205  0.5911  0.9296
 1625ACTN    C216707   3.434   4.899   2.506  0.1841 -0.2595  0.2092
 1625ACTN    O116708   3.428   4.832   2.405 -0.3184  0.0186 -0.1584
 1625ACTN    C116709   3.329   4.987   2.570 -1.0020 -0.4847  0.0763
 1625ACTN    H116710   3.374   5.086   2.566  2.1272 -1.8627  0.3005
 1625ACTN    H216711   3.306   4.957   2.673 -0.1780  1.2987  0.7904
 1625ACTN    H316712   3.236   4.986   2.512  0.3154 -0.4670 -2.0685
 1626ACTN    H616713   0.521   6.266   5.942  0.0002 -1.5036 -1.2069
 1626ACTN    C316714   0.623   6.298   5.963 -0.5889 -0.1238 -0.3680
 1626ACTN    H416715   0.687   6.235   5.902  0.0224  0.6656 -0.5524
 1626ACTN    H516716   0.653   6.275   6.065 -1.7541  1.4224  0.3599
 1626ACTN    C216717   0.625   6.447   5.930 -0.1049  0.0805  0.3207
 1626ACTN    O116718   0.617   6.483   5.819 -0.3744 -0.2477 -0.3026
 1626ACTN    C116719   0.663   6.549   6.025 -0.4775 -0.1517  0.8232
 1626ACTN    H116720   0.648   6.650   5.987 -0.8164 -0.9598 -1.2308
 1626ACTN    H216721   0.770   6.549   6.046 -0.4040  1.5089  0.5358
 1626ACTN    H316722   0.612   6.540   6.121  2.9256 -2.6621  2.5113
 1627ACTN    H616723   1.538   2.555   8.427 -0.9039  2.2888  3.6683
 1627ACTN    C316724   1.614   2.629   8.402 -0.1027  0.4534  0.2980
 1627ACTN    H416725   1.684   2.638   8.485 -1.1932 -1.2396  1.4403
 1627ACTN    H516726   1.672   2.580   8.324 -0.9404 -0.9238  0.5290
 1627ACTN    C216727   1.560   2.764   8.372  0.2286  0.2253  0.0135
 1627ACTN    O116728   1.473   2.768   8.287 -0.2608  0.2523 -0.0637
 1627ACTN    C116729   1.600   2.879   8.459 -0.5807  0.1292 -0.0969
 1627ACTN    H116730   1.599   2.860   8.567 -0.6430 -2.6201 -0.5464
 1627ACTN    H216731   1.527   2.958   8.447  0.2270  0.6454 -1.6485
 1627ACTN    H316732   1.695   2.922   8.429 -0.3714  0.7687  1.4455
 1628ACTN    H616733   0.897   7.494   0.244  0.5242 -2.7558  0.6548
 1628ACTN    C316734   0.819   7.437   0.193 -0.4770 -0.9756  0.1445
 1628ACTN    H416735   0.724   7.467   0.238 -1.6061  0.1240 -2.8735
 1628ACTN    H516736   0.819   7.472   0.090  0.7175  1.0352  0.7748
 1628ACTN    C216737   0.847   7.292   0.196 -0.6334 -0.1388  0.1204
 1628ACTN    O116738   0.954   7.240   0.237 -0.1060  0.2939 -0.3057
 1628ACTN    C116739   0.739   7.199   0.152  0.3985  0.5451  0.3074
 1628ACTN    H116740   0.782   7.120   0.091 -1.7537  0.5993 -1.3279
 1628ACTN    H216741   0.678   7.260   0.085  0.7982 -1.0595 -1.5716
 1628ACTN    H316742   0.684   7.160   0.237 -0.1224 -0.8665 -0.6670
 1629ACTN    H616743   6.333   2.373   5.102 -0.0442  2.2218 -1.6759
 1629ACTN    C316744   6.429   2.424   5.099  0.9452  0.4554 -0.6952
 1629ACTN    H416745   6.501   2.353   5.058 -0.4045 -0.5076 -1.4553
 1629ACTN    H516746   6.415   2.512   5.036 -2.9464  0.2489 -0.2694
 1629ACTN    C216747   6.456   2.466   5.243 -0.1677  0.0052 -0.5693
 1629ACTN    O116748   6.417   2.385   5.330 -0.9527  0.6689  0.0337
 1629ACTN    C116749   6.531   2.588   5.287 -0.8709 -0.3080 -0.4042
 1629ACTN    H116750   6.469   2.673   5.261  0.0076  0.6542  0.5850
 1629ACTN    H216751   6.627   2.600   5.236 -0.2021  0.4030  0.9861
 1629ACTN    H316752   6.545   2.580   5.395  0.5070 -0.3048 -0.5731
 1630ACTN    H616753   6.729   7.603   1.826  0.7185  0.8945  0.5992
 1630ACTN    C316754   6.748   7.687   1.894 -0.5562  1.1190  0.6848
 1630ACTN    H416755   6.853   7.716   1.896  0.4212 -2.0424 -0.8515
 1630ACTN    H516756   6.690   7.773   1.861 -1.1896  0.9773  1.3965
 1630ACTN    C216757   6.706   7.646   2.035 -0.6548 -0.1033  0.2292
 1630ACTN    O116758   6.638   7.544   2.055  0.1606  0.1435 -0.6382
 1630ACTN    C116759   6.729   7.743   2.145 -0.0530 -0.5042  0.7062
 1630ACTN    H116760   6.818   7.805   2.127  0.5390 -1.5798 -0.1278
 1630ACTN    H216761   6.747   7.696   2.241 -0.1846 -1.5314  0.2256
 1630ACTN    H316762   6.642   7.809   2.150 -1.2111 -1.9188 -0.3468
 1631ACTN    H616763   4.940   0.382   0.671  0.3471  0.1725 -0.1290
 1631ACTN    C316764   4.977   0.382   0.773 -0.4171  0.7111  0.1534
 1631ACTN    H416765   4.968   0.283   0.819 -0.5104  0.9314  0.6123
 1631ACTN    H516766   4.910   0.448   0.828  0.0524  1.6942 -0.4350
 1631ACTN    C216767   5.113   0.434   0.781 -0.3010 -0.4885 -0.0675
 1631ACTN    O116768   5.199   0.374   0.841 -0.7204  0.2360  0.9685
 1631ACTN    C116769   5.147   0.561   0.716  0.6324 -0.3375  0.3940
 1631ACTN    H116770   5.218   0.620   0.774  0.3296  0.7445 -0.3445
 1631ACTN    H216771   5.062   0.627   0.701 -0.5318 -1.4846  1.7130
 1631ACTN    H316772   5.184   0.536   0.617 -1.0705 -1.0715 -0.0722
 1632ACTN    H616773   0.904   7.353   6.645 -1.4742 -0.2436 -0.5224
 1632ACTN    C316774   0.906   7.335   6.537  0.7825  0.0396 -0.5595
 1632ACTN    H416775   0.828   7.400   6.498 -0.6053 -0.2248  1.6661
 1632ACTN    H516776   0.886   7.229   6.518  1.5392 -0.5907  1.9284
 1632ACTN    C216777   1.036   7.378   6.479  1.0058 -0.5557  0.2579
 1632ACTN    O116778   1.048   7.409   6.361  0.4083  0.1378  0.3579
 1632ACTN    C116779   1.170   7.358   6.550  0.8486 -0.7674  0.6581
 1632ACTN    H116780   1.194   7.447   6.608  3.4560 -0.7615 -0.3875
 1632ACTN    H216781   1.247   7.331   6.478  1.4817  1.4424  0.4798
 1632ACTN    H316782   1.151   7.277   6.621 -0.3717 -0.2676  0.9096
 1633ACTN    H616783   4.311   5.504   7.880  0.2782  1.9047 -1.3003
 1633ACTN    C316784   4.274   5.495   7.778 -1.2127  0.7517 -0.6685
 1633ACTN    H416785   4.167   5.516   7.782 -1.0296  1.6535 -0.4708
 1633ACTN    H516786   4.312   5.571   7.710  1.5268 -0.2515 -0.3446
 1633ACTN    C216787   4.306   5.354   7.743 -0.2924  0.1492  0.2493
 1633ACTN    O116788   4.268   5.267   7.817 -0.0155 -0.2741 -0.1357
 1633ACTN    C116789   4.377   5.310   7.615 -0.0452  0.3279 -0.0971
 1633ACTN    H116790   4.357   5.204   7.599 -0.9511 -0.1961  4.0579
 1633ACTN    H216791   4.485   5.313   7.633 -0.2504  0.8422  1.0642
 1633ACTN    H316792   4.346   5.375   7.533 -1.3018 -1.8948 -1.4384
 1634ACTN    H616793   7.346   8.634   6.298 -0.4951 -0.2636  0.8057
 1634ACTN    C316794   7.344   8.543   6.240  0.1298 -0.1745  0.6446
 1634ACTN    H416795   7.271   8.474   6.283 -0.3804  1.8556  3.0880
 1634ACTN    H516796   7.311   8.579   6.142 -1.2762  1.9972  1.8766
 1634ACTN    C216797   7.484   8.488   6.233 -0.3090  0.4347 -0.2253
 1634ACTN    O116798   7.510   8.389   6.159 -0.4494 -0.0686 -0.5302
 1634ACTN    C116799   7.589   8.549   6.314 -0.7437 -0.2641 -0.5951
 1634ACTN    H116800   7.636   8.473   6.376  0.5819 -0.1022 -1.3912
 1634ACTN    H216801   7.558   8.636   6.374 -2.9709 -1.6770  0.3744
 1634ACTN    H316802   7.670   8.591   6.255  0.9365 -1.3472  0.8873
 1635ACTN    H616803   1.645   7.616   3.478  0.1796 -2.0556  1.2056
 1635ACTN    C316804   1.700   7.616   3.383 -0.1131  0.3000  0.9914
 1635ACTN    H416805   1.646   7.553   3.312 -0.1145 -1.0882  2.1963
 1635ACTN    H516806   1.702   7.717   3.344 -0.8136 -0.6587 -1.5766
 1635ACTN    C216807   1.841   7.576   3.402  0.2399 -0.3935  0.0675
 1635ACTN    O116808   1.887   7.481   3.341 -0.5396  0.1352 -0.5695
 1635ACTN    C116809   1.924   7.634   3.514 -0.1285 -0.0898  0.5253
 1635ACTN    H116810   1.930   7.739   3.485 -0.6851 -0.1118  0.3143
 1635ACTN    H216811   2.020   7.584   3.526 -0.9894 -1.3841  2.2298
 1635ACTN    H316812   1.879   7.631   3.613 -2.5338  0.3639 -0.5024
 1636ACTN    H616813   7.434   4.797   2.767  0.0020  0.0959 -2.8085
 1636ACTN    C316814   7.381   4.892   2.776  0.1868  0.0033 -0.5371
 1636ACTN    H416815   7.440   4.980   2.755 -0.4398  0.5946  0.1271
 1636ACTN    H516816   7.298   4.888   2.705 -1.6830  1.3129  1.5072
 1636ACTN    C216817   7.321   4.894   2.912 -0.3181  0.4135 -0.4262
 1636ACTN    O116818   7.364   4.837   3.008  0.3270  0.1815 -0.4573
 1636ACTN    C116819   7.207   4.983   2.925  0.0609  0.1222 -0.1782
 1636ACTN    H116820   7.122   4.940   2.871 -1.0872 -0.1437  1.7715
 1636ACTN    H216821   7.231   5.077   2.875  0.0185  0.4441  0.4083
 1636ACTN    H316822   7.173   4.990   3.028  1.2861  0.0286  0.2365
 1637ACTN    H616823   2.547   3.338   5.046 -0.3856 -0.4766  0.9811
 1637ACTN    C316824   2.500   3.429   5.083 -0.0428 -0.1133  0.5267
 1637ACTN    H416825   2.406   3.398   5.128  0.6514  0.5540  2.5237
 1637ACTN    H516826   2.571   3.476   5.152  0.2275  0.5407 -0.1891
 1637ACTN    C216827   2.477   3.518   4.964 -0.2000 -0.4016 -0.0292
 1637ACTN    O116828   2.365   3.561   4.925  0.3076  0.7852  0.4388
 1637ACTN    C116829   2.597   3.553   4.881  0.5340 -0.3049 -1.2502
 1637ACTN    H116830   2.585   3.608   4.789 -1.0915  2.9629  0.8417
 1637ACTN    H216831   2.646   3.459   4.855  1.4902  0.1387 -1.0885
 1637ACTN    H316832   2.669   3.600   4.948 -2.2245 -0.3784  1.8854
 1638ACTN    H616833   1.485   7.258   2.906  0.6871 -0.1457 -0.5074
 1638ACTN    C316834   1.579   7.313   2.903  0.4505  0.3001  0.0805
 1638ACTN    H416835   1.663   7.245   2.921  0.3816  0.6073  1.6667
 1638ACTN    H516836   1.590   7.356   2.804 -0.1732 -2.0263 -1.0175
 1638ACTN    C216837   1.572   7.411   3.016  0.1750 -0.3277 -0.6092
 1638ACTN    O116838   1.485   7.389   3.102  0.0082  0.3160  0.2372
 1638ACTN    C116839   1.667   7.527   3.028  0.2626 -0.3753  0.0081
 1638ACTN    H116840   1.754   7.494   3.085  1.2640  1.4277 -0.4456
 1638ACTN    H216841   1.632   7.619   3.074  2.8576 -0.8587  3.1826
 1638ACTN    H316842   1.700   7.549   2.926 -0.7820  0.8655 -0.0743
 1639ACTN    H616843   3.900   0.416   7.340 -0.3490 -1.3820 -1.7696
 1639ACTN    C316844   3.858   0.515   7.322  0.5587 -0.6323  0.0623
 1639ACTN    H416845   3.749   0.513   7.328  0.5644 -2.0998 -0.2559
 1639ACTN    H516846   3.890   0.550   7.224  0.5496  1.2205  0.7013
 1639ACTN    C216847   3.930   0.620   7.405 -0.1901  0.1774  0.1279
 1639ACTN    O116848   3.958   0.599   7.524  1.0485  0.0183  0.3931
 1639ACTN    C116849   3.940   0.752   7.349  0.3636  0.0258  0.0171
 1639ACTN    H116850   4.045   0.776   7.334  0.2489  0.4883 -0.0821
 1639ACTN    H216851   3.899   0.839   7.400  1.5706  0.6968 -0.1285
 1639ACTN    H316852   3.908   0.758   7.244 -1.5176 -1.6998  0.4707
 1640ACTN    H616853   8.590   3.939   3.762 -0.4983 -1.1916 -1.5053
 1640ACTN    C316854   8.528   4.001   3.697 -0.2348  0.4342 -0.2453
 1640ACTN    H416855   8.475   4.079   3.751 -2.0000  0.5512 -2.0617
 1640ACTN    H516856   8.595   4.041   3.621 -2.3352  1.1404 -1.7877
 1640ACTN    C216857   8.435   3.927   3.608 -0.4120  0.9629  0.0233
 1640ACTN    O116858   8.389   3.821   3.645 -0.4170  0.0731 -0.6102
 1640ACTN    C116859   8.424   3.952   3.460 -0.0000  0.5314  0.7324
 1640ACTN    H116860   8.372   3.870   3.410 -2.0543  1.8880  0.5795
 1640ACTN    H216861   8.517   3.955   3.403 -1.2191  1.0758 -1.2582
 1640ACTN    H316862   8.377   4.050   3.452 -0.0816  0.5144  0.9954
 1641ACTN    H616863   0.513   5.751   0.559 -0.0660  0.7545 -0.5736
 1641ACTN    C316864   0.416   5.800   0.558 -0.2846  0.3393  0.0731
 1641ACTN    H416865   0.412   5.865   0.470 -2.0710  3.4566  2.3207
 1641ACTN    H516866   0.342   5.722   0.542  0.3716  0.1805 -2.3602
 1641ACTN    C216867   0.397   5.878   0.681  0.1839 -0.6740 -0.0255
 1641ACTN    O116868   0.393   6.003   0.677 -0.0254  0.0514 -0.3712
 1641ACTN    C116869   0.389   5.792   0.805  0.4815 -0.7329 -0.0280
 1641ACTN    H116870   0.306   5.820   0.871 -0.7266 -2.5920 -0.7210
 1641ACTN    H216871   0.477   5.816   0.864  1.4853 -1.1122 -1.3766
 1641ACTN    H316872   0.388   5.685   0.782  1.1572 -0.9017  0.6871
 1642ACTN    H616873   7.411   0.559   6.969 -1.1617 -2.7319  1.7880
 1642ACTN    C316874   7.413   0.482   6.892  0.2996 -0.5465 -0.4693
 1642ACTN    H416875   7.376   0.387   6.931 -1.2534 -0.7551 -2.3416
 1642ACTN    H516876   7.342   0.513   6.815  0.3840  1.7227  0.3415
 1642ACTN    C216877   7.547   0.456   6.836  0.2886 -0.5063 -0.7488
 1642ACTN    O116878   7.564   0.349   6.778  0.4871 -0.4395  0.6044
 1642ACTN    C116879   7.667   0.528   6.899  0.1763  0.0842 -0.8809
 1642ACTN    H116880   7.721   0.470   6.974 -1.7907 -0.7419 -0.0642
 1642ACTN    H216881   7.654   0.624   6.948 -0.2149 -2.3191  4.0320
 1642ACTN    H316882   7.745   0.550   6.827  1.8915  2.7209  1.6627
 1643ACTN    H616883   1.142   7.229   7.765  0.0958 -1.3086  1.8814
 1643ACTN    C316884   1.104   7.310   7.827 -0.2959  0.2668 -0.3767
 1643ACTN    H416885   0.998   7.300   7.853 -0.2776  2.6314  0.7345
 1643ACTN    H516886   1.162   7.315   7.918 -2.7074 -1.8281  1.3521
 1643ACTN    C216887   1.130   7.444   7.763  0.6981 -0.4389  0.4560
 1643ACTN    O116888   1.071   7.498   7.671 -0.2205  0.0664 -0.1619
 1643ACTN    C116889   1.218   7.539   7.837  0.1975 -0.1188 -1.4707
 1643ACTN    H116890   1.188   7.641   7.816 -1.8537 -0.3869  0.0397
 1643ACTN    H216891   1.324   7.515   7.827  0.5503  0.2932  0.9557
 1643ACTN    H316892   1.209   7.521   7.944 -0.5050  2.3781 -1.0966
 1644ACTN    H616893   2.942   8.712   2.978 -0.1491  2.6441 -1.1616
 1644ACTN    C316894   2.835   8.693   2.964  0.0285  0.5631  0.0718
 1644ACTN    H416895   2.800   8.761   2.886 -0.9964  1.1137  0.9928
 1644ACTN    H516896   2.827   8.587   2.943 -1.9498  0.4096  1.4625
 1644ACTN    C216897   2.758   8.714   3.099  0.2466 -0.2985  0.8422
 1644ACTN    O116898   2.815   8.711   3.207  0.1364  0.5472 -0.0857
 1644ACTN    C116899   2.622   8.771   3.087 -0.3989 -1.0782 -0.5752
 1644ACTN    H116900   2.592   8.780   2.983 -0.3018  1.1341 -0.4263
 1644ACTN    H216901   2.613   8.874   3.121 -3.9246 -1.4381 -0.2430
 1644ACTN    H316902   2.554   8.715   3.151  0.3678 -0.1857  1.0791
 1645ACTN    H616903   8.448   8.228   1.798  0.9870  0.3693  2.0352
 1645ACTN    C316904   8.539   8.276   1.763  0.4703 -0.0083  0.1267
 1645ACTN    H416905   8.625   8.228   1.809  2.1255  1.1999 -1.6100
 1645ACTN    H516906   8.546   8.260   1.655  0.1359  1.2780 -0.1005
 1645ACTN    C216907   8.531   8.420   1.791 -1.1335  0.1141 -0.0393
 1645ACTN    O116908   8.451   8.496   1.731  0.0916  0.6561  0.5421
 1645ACTN    C116909   8.640   8.494   1.868  0.4788  1.0968  0.0617
 1645ACTN    H116910   8.632   8.462   1.972  1.1612 -1.2066 -0.5521
 1645ACTN    H216911   8.629   8.602   1.864  0.2012  1.0231 -1.3578
 1645ACTN    H316912   8.736   8.456   1.835  0.5505  0.3850  1.0684
 1646ACTN    H616913   0.579   8.225   4.035 -1.0104 -0.7947 -2.6624
 1646ACTN    C316914   0.536   8.130   4.067 -0.3613 -0.1322  0.3788
 1646ACTN    H416915   0.429   8.146   4.085 -0.4770  2.7815 -2.3876
 1646ACTN    H516916   0.544   8.062   3.982 -0.1479  1.2696 -0.7529
 1646ACTN    C216917   0.601   8.079   4.195  0.4881  0.1288 -0.3782
 1646ACTN    O116918   0.725   8.059   4.192  0.2111 -0.1179 -0.2465
 1646ACTN    C116919   0.525   8.038   4.311  0.2545  0.3126 -0.1266
 1646ACTN    H116920   0.562   8.090   4.399 -0.7058 -1.3302  1.2737
 1646ACTN    H216921   0.529   7.930   4.327  0.7916  0.1972 -0.9726
 1646ACTN    H316922   0.419   8.061   4.300 -0.0341 -1.2480 -0.7511
 1647ACTN    H616923   5.967   8.216   1.689 -2.0884  2.0192 -2.0514
 1647ACTN    C316924   6.035   8.197   1.606 -0.8207  0.6577 -0.7272
 1647ACTN    H416925   6.023   8.091   1.585  0.6124  0.2293  0.5160
 1647ACTN    H516926   6.018   8.260   1.519 -0.3019  1.1728 -0.4566
 1647ACTN    C216927   6.177   8.226   1.640 -0.6508  0.6066  0.0184
 1647ACTN    O116928   6.223   8.336   1.607 -0.1157  0.6341  0.4056
 1647ACTN    C116929   6.249   8.143   1.733  0.1180 -0.5830 -0.1522
 1647ACTN    H116930   6.298   8.190   1.818  1.1124  0.7741 -1.4459
 1647ACTN    H216931   6.322   8.083   1.680  0.1510 -0.4988 -0.2012
 1647ACTN    H316932   6.181   8.074   1.783 -0.1006  0.4684  1.0431
 1648ACTN    H616933   0.496   4.799   4.910 -0.9423 -0.0852  0.2689
 1648ACTN    C316934   0.454   4.863   4.833 -0.5988  0.2093  0.3280
 1648ACTN    H416935   0.519   4.839   4.748 -1.0985 -0.5009  0.1391
 1648ACTN    H516936   0.348   4.838   4.829 -0.6659  0.7207 -1.6981
 1648ACTN    C216937   0.470   5.017   4.868  0.0674  0.0908  0.7060
 1648ACTN    O116938   0.453   5.111   4.790 -0.3047 -0.4008 -0.0351
 1648ACTN    C116939   0.511   5.042   5.007  0.3060 -0.5632  0.4894
 1648ACTN    H116940   0.590   4.973   5.039  0.8812 -0.3898 -0.5278
 1648ACTN    H216941   0.426   5.035   5.074  1.2797  0.0176  1.8043
 1648ACTN    H316942   0.555   5.141   5.017 -2.5342  0.5799  2.2441
 1649ACTN    H616943   6.960   7.943   6.545  1.9996 -0.8192  0.3174
 1649ACTN    C316944   6.899   7.873   6.603  0.1797  0.5114  0.0259
 1649ACTN    H416945   6.854   7.806   6.530 -0.0558 -2.3432  2.7304
 1649ACTN    H516946   6.953   7.814   6.676 -0.5255  0.6585  0.6778
 1649ACTN    C216947   6.792   7.955   6.658  0.5036 -0.2823 -0.4009
 1649ACTN    O116948   6.800   8.010   6.767 -0.3759 -0.6964  0.8222
 1649ACTN    C116949   6.685   7.986   6.565 -0.2210  0.4407  0.0413
 1649ACTN    H116950   6.648   7.889   6.531  1.0055  0.2676 -0.8192
 1649ACTN    H216951   6.731   8.042   6.483  0.3181 -0.0967 -0.0256
 1649ACTN    H316952   6.607   8.047   6.609  0.2656  1.5632 -0.6220
 1650ACTN    H616953   2.615   8.326   1.123 -0.4480  1.6613 -0.0832
 1650ACTN    C316954   2.546   8.340   1.206 -0.1203 -0.2201  0.5240
 1650ACTN    H416955   2.445   8.304   1.186  0.1392 -0.9381  0.4734
 1650ACTN    H516956   2.581   8.290   1.296  0.6103 -0.0830  0.3173
 1650ACTN    C216957   2.527   8.490   1.217 -1.0144  0.6482  0.5033
 1650ACTN    O116958   2.563   8.565   1.129 -0.2331  0.6829 -0.5324
 1650ACTN    C116959   2.512   8.523   1.362 -0.2747  0.8076 -0.6650
 1650ACTN    H116960   2.449   8.449   1.411 -1.3899  0.9430 -1.8828
 1650ACTN    H216961   2.467   8.621   1.377 -0.2390  0.6260  0.6742
 1650ACTN    H316962   2.612   8.520   1.406 -0.2110 -1.7422 -0.9108
 1651ACTN    H616963   0.643   2.464   2.792 -0.8409  0.2317 -0.2509
 1651ACTN    C316964   0.637   2.517   2.697 -0.1652  0.0589 -0.3947
 1651ACTN    H416965   0.720   2.587   2.690  1.1073 -1.2915  0.9062
 1651ACTN    H516966   0.636   2.440   2.620 -0.8642 -0.8957  0.5476
 1651ACTN    C216967   0.509   2.601   2.693 -0.8955  0.0476 -0.1988
 1651ACTN    O116968   0.465   2.642   2.795  0.6937  0.4789 -1.2360
 1651ACTN    C116969   0.452   2.642   2.565  0.3003 -0.4605 -0.3742
 1651ACTN    H116970   0.446   2.751   2.572  1.4985 -0.4771  1.1502
 1651ACTN    H216971   0.348   2.613   2.553 -0.2063  0.7330  0.9223
 1651ACTN    H316972   0.507   2.609   2.477  0.3206 -0.5662 -0.3215
 1652ACTN    H616973   3.372   1.952   8.429  0.8830 -1.0278  1.1883
 1652ACTN    C316974   3.326   1.904   8.516 -0.2732 -0.6249  0.8055
 1652ACTN    H416975   3.373   1.947   8.604  0.3111 -1.2184  0.7810
 1652ACTN    H516976   3.219   1.928   8.511 -0.2940  0.2218  4.3558
 1652ACTN    C216977   3.345   1.759   8.510 -0.0138  0.6454  0.2859
 1652ACTN    O116978   3.257   1.676   8.548 -0.1415  0.1372  0.0906
 1652ACTN    C116979   3.461   1.704   8.435 -0.0642  0.0193 -0.5700
 1652ACTN    H116980   3.548   1.767   8.453 -0.4504  0.7134 -1.1361
 1652ACTN    H216981   3.447   1.695   8.328  0.6308 -2.9817 -0.4605
 1652ACTN    H316982   3.472   1.599   8.466 -2.1409  0.0493  0.3606
 1653ACTN    H616983   3.904   4.794   8.536  0.1490 -0.8711 -0.5268
 1653ACTN    C316984   3.954   4.875   8.589 -0.4642 -0.5576 -0.4228
 1653ACTN    H416985   4.021   4.927   8.520  0.2439  0.8522  1.2861
 1653ACTN    H516986   3.876   4.946   8.614  0.6752  0.2546  0.8918
 1653ACTN    C216987   4.018   4.839   8.722  0.1196  0.9210 -0.5841
 1653ACTN    O116988   3.955   4.863   8.825  0.1783 -0.1275 -0.6035
 1653ACTN    C116989   4.131   4.746   8.714 -0.2881  0.3614  1.2941
 1653ACTN    H116990   4.114   4.659   8.778 -0.4223 -0.6930 -0.1692
 1653ACTN    H216991   4.228   4.786   8.743  0.5913 -1.5264  1.0205
 1653ACTN    H316992   4.135   4.705   8.614  1.2903 -1.7343  2.1875
 1654ACTN    H616993   1.816   7.005   4.374  0.4660 -1.6202  0.4351
 1654ACTN    C316994   1.895   7.041   4.439  0.1439  0.2812 -0.1772
 1654ACTN    H416995   1.863   7.021   4.541  1.1189  0.8550  0.2490
 1654ACTN    H516996   1.983   6.984   4.409  0.2788  0.4143 -0.0372
 1654ACTN    C216997   1.912   7.184   4.430  0.0540  0.0026  0.2214
 1654ACTN    O116998   1.825   7.251   4.483  0.6997  0.0518 -0.0061
 1654ACTN    C116999   2.038   7.234   4.372 -0.7718  0.3857  0.1289
 1654ACTN    H117000   2.031   7.340   4.348 -0.9057 -0.1881 -2.5245
 1654ACTN    H217001   2.049   7.183   4.277 -1.4117 -1.8234  1.1916
 1654ACTN    H317002   2.127   7.214   4.432 -0.3845  0.6095 -0.3766
 1655ACTN    H617003   4.401   5.100   1.384  0.8898  0.5125 -0.1458
 1655ACTN    C317004   4.439   5.039   1.303  0.9426  0.2515  0.0741
 1655ACTN    H417005   4.467   5.105   1.221  0.4133 -0.4426 -0.6735
 1655ACTN    H517006   4.530   4.990   1.338  1.5355  0.2706 -1.3778
 1655ACTN    C217007   4.344   4.932   1.246 -0.3209 -0.1395  0.1507
 1655ACTN    O117008   4.315   4.833   1.316  0.4683  0.3075 -0.2371
 1655ACTN    C117009   4.273   4.956   1.113 -0.1986  0.1250  0.1180
 1655ACTN    H117010   4.353   4.979   1.043  0.4448  0.1428  0.8487
 1655ACTN    H217011   4.203   5.037   1.127 -1.3059 -0.8336  0.1695
 1655ACTN    H317012   4.216   4.868   1.084  0.0284  0.0520 -0.1102
 1656ACTN    H617013   3.427   3.037   4.620 -2.5713  2.2427  0.1058
 1656ACTN    C317014   3.394   3.009   4.520 -0.4734 -1.5041  0.3731
 1656ACTN    H417015   3.286   2.999   4.507 -0.6784 -0.9242  1.6028
 1656ACTN    H517016   3.423   3.097   4.463 -0.5153 -2.3680 -1.0312
 1656ACTN    C217017   3.459   2.880   4.472 -0.8724  0.5249 -0.5843
 1656ACTN    O117018   3.584   2.865   4.477 -0.5231  0.9192 -1.1785
 1656ACTN    C117019   3.368   2.764   4.442 -0.0423  1.1938  0.2091
 1656ACTN    H117020   3.434   2.678   4.451  0.8703  1.7455 -1.0768
 1656ACTN    H217021   3.344   2.767   4.336  1.1682  0.6532 -0.0871
 1656ACTN    H317022   3.284   2.756   4.510 -1.5496 -2.7972 -1.9823
 1657ACTN    H617023   5.193   5.333   1.237 -2.7074  3.6923  1.8444
 1657ACTN    C317024   5.258   5.392   1.174  0.0859 -0.7272  0.3703
 1657ACTN    H417025   5.337   5.334   1.125 -0.4643 -1.5887  0.4890
 1657ACTN    H517026   5.204   5.467   1.117 -0.0260 -0.6736  0.5502
 1657ACTN    C217027   5.338   5.476   1.267  0.3625  0.6606  0.4065
 1657ACTN    O117028   5.281   5.559   1.338 -0.5194 -0.5861 -0.3843
 1657ACTN    C117029   5.482   5.442   1.294  0.6436  0.1342 -0.6486
 1657ACTN    H117030   5.477   5.335   1.312 -0.8061  0.4052  0.6305
 1657ACTN    H217031   5.525   5.495   1.379 -1.3753  0.3809  0.2507
 1657ACTN    H317032   5.547   5.452   1.207  3.1380 -1.8907  0.8871
 1658ACTN    H617033   7.342   8.247   7.430  0.8261  1.2299 -1.0608
 1658ACTN    C317034   7.312   8.327   7.497 -0.4321 -0.1201  0.0244
 1658ACTN    H417035   7.240   8.397   7.454  0.8675  0.4158 -1.2982
 1658ACTN    H517036   7.264   8.276   7.580  0.7100  0.6068  1.1614
 1658ACTN    C217037   7.428   8.398   7.551 -0.0300  0.3250  0.0869
 1658ACTN    O117038   7.526   8.332   7.581 -0.1788 -0.2289  0.0390
 1658ACTN    C117039   7.425   8.541   7.548  0.3000 -0.1770 -0.1682
 1658ACTN    H117040   7.529   8.570   7.558  0.2302  0.9696 -2.3965
 1658ACTN    H217041   7.365   8.573   7.634  0.7209 -1.0113  0.4443
 1658ACTN    H317042   7.385   8.579   7.454  0.6344 -0.2250 -0.3292
 1659ACTN    H617043   5.690   8.595   4.784 -1.6964  0.3351 -1.7849
 1659ACTN    C317044   5.773   8.641   4.730  0.0256  0.0273  0.5043
 1659ACTN    H417045   5.759   8.623   4.624  2.5376  0.6490  0.0485
 1659ACTN    H517046   5.769   8.749   4.749 -1.2314  0.2413 -0.8747
 1659ACTN    C217047   5.903   8.585   4.780 -0.1792 -0.2283  0.1735
 1659ACTN    O117048   5.908   8.466   4.816 -0.3673 -0.5511 -0.0354
 1659ACTN    C117049   6.024   8.643   4.728 -0.5973  0.3661  0.0284
 1659ACTN    H117050   6.066   8.581   4.650 -0.1147  2.2771 -1.2492
 1659ACTN    H217051   6.105   8.670   4.796 -2.5379  1.5547  1.9765
 1659ACTN    H317052   5.998   8.732   4.671 -1.1363  0.0833 -0.1736
 1660ACTN    H617053   5.486   7.105   5.855  2.0540  1.0966  0.0720
 1660ACTN    C317054   5.486   7.090   5.748 -0.8989 -0.1022  0.1932
 1660ACTN    H417055   5.562   7.148   5.695 -1.0278 -0.5354 -0.4881
 1660ACTN    H517056   5.511   6.984   5.737  1.4695  0.5862 -1.4114
 1660ACTN    C217057   5.358   7.107   5.680 -0.0695  0.4726 -1.2136
 1660ACTN    O117058   5.352   7.166   5.574 -0.0166 -0.7140  0.1724
 1660ACTN    C117059   5.226   7.075   5.751 -0.4748 -0.0075 -0.0029
 1660ACTN    H117060   5.142   7.071   5.682 -0.7439 -3.7114  0.4724
 1660ACTN    H217061   5.207   7.156   5.822  0.3981  1.3813 -1.3280
 1660ACTN    H317062   5.234   6.985   5.811 -0.8470  0.4309  0.7229
 1661ACTN    H617063   5.503   6.483   5.716 -3.0129 -0.7760  1.0041
 1661ACTN    C317064   5.554   6.415   5.784 -0.4006  0.0302 -0.0810
 1661ACTN    H417065   5.518   6.315   5.758 -2.0703  0.4062  0.6951
 1661ACTN    H517066   5.659   6.441   5.770  0.0423 -0.8616  1.4832
 1661ACTN    C217067   5.511   6.448   5.920  0.1452  0.6587  0.1080
 1661ACTN    O117068   5.518   6.566   5.953  0.8361 -0.0366 -0.2577
 1661ACTN    C117069   5.474   6.341   6.015 -0.3789 -0.3009  0.0457
 1661ACTN    H117070   5.556   6.276   6.046 -0.0210  0.2430  0.2515
 1661ACTN    H217071   5.395   6.287   5.962 -1.6332  0.0964  1.4847
 1661ACTN    H317072   5.437   6.388   6.106 -0.0111  0.1676 -0.0480
 1662ACTN    H617073   7.062   8.390   3.670  1.6694 -0.5678 -0.5336
 1662ACTN    C317074   7.029   8.287   3.657 -0.0064 -0.0939 -0.1599
 1662ACTN    H417075   6.932   8.295   3.608 -1.2270  2.1841  2.5116
 1662ACTN    H517076   7.104   8.230   3.601 -1.2809 -1.0453 -0.9171
 1662ACTN    C217077   7.013   8.210   3.778 -0.7904  0.2724 -1.4014
 1662ACTN    O117078   6.900   8.186   3.823 -0.2715 -0.4870  0.4824
 1662ACTN    C117079   7.132   8.161   3.856  0.1831 -0.7729  0.1927
 1662ACTN    H117080   7.190   8.102   3.786 -0.3125  0.9022 -1.6725
 1662ACTN    H217081   7.109   8.095   3.940  1.4758  1.3700  2.2995
 1662ACTN    H317082   7.191   8.242   3.900 -0.8149  1.4692 -2.4596
 1663ACTN    H617083   0.697   5.790   7.347  1.2981 -1.8149 -0.8300
 1663ACTN    C317084   0.785   5.848   7.376  0.3091 -0.3393 -0.7264
 1663ACTN    H417085   0.842   5.876   7.288 -0.0034  0.2544 -0.7450
 1663ACTN    H517086   0.745   5.941   7.417  1.4337 -0.9983  1.9393
 1663ACTN    C217087   0.868   5.760   7.464  0.4735 -0.6992 -0.3092
 1663ACTN    O117088   0.989   5.758   7.461  0.1919 -0.3140  0.0392
 1663ACTN    C117089   0.798   5.689   7.576 -0.2779 -0.1567  0.3146
 1663ACTN    H117090   0.822   5.583   7.566  1.4033  0.1440  1.0370
 1663ACTN    H217091   0.689   5.698   7.573 -0.3286 -0.5825  0.7504
 1663ACTN    H317092   0.836   5.715   7.675 -0.6804  2.1791 -0.1083
 1664ACTN    H617093   0.582   2.019   0.580  1.2835 -0.4451 -0.1407
 1664ACTN    C317094   0.600   1.923   0.629  0.7799 -0.5594 -0.1731
 1664ACTN    H417095   0.516   1.854   0.628 -1.2248  1.7351  2.2435
 1664ACTN    H517096   0.689   1.880   0.584  1.7116 -0.3876  1.4406
 1664ACTN    C217097   0.628   1.966   0.770  0.3449  0.1741 -0.7165
 1664ACTN    O117098   0.728   1.935   0.830 -0.4438 -0.2476 -0.0832
 1664ACTN    C117099   0.513   2.045   0.838 -0.7477 -0.7742 -0.1205
 1664ACTN    H117100   0.487   2.128   0.772  2.2917 -0.8102 -1.4416
 1664ACTN    H217101   0.548   2.084   0.934 -0.8054  0.5184 -0.6099
 1664ACTN    H317102   0.425   1.982   0.852 -0.9756 -0.4406 -0.0214
 1665ACTN    H617103   0.403   2.390   2.225 -0.9731  0.2196  0.3209
 1665ACTN    C317104   0.465   2.359   2.309 -0.2988  0.5304 -0.0551
 1665ACTN    H417105   0.523   2.270   2.284  0.1244  0.8339 -0.1601
 1665ACTN    H517106   0.530   2.445   2.326  1.1220 -0.3311 -0.9892
 1665ACTN    C217107   0.372   2.324   2.420 -0.0616 -0.1407 -0.3057
 1665ACTN    O117108   0.414   2.342   2.532 -0.2686 -0.3936  0.1352
 1665ACTN    C117109   0.240   2.259   2.403 -0.4948 -0.3827  0.0556
 1665ACTN    H117110   0.166   2.321   2.352 -0.6734  1.2407  2.2340
 1665ACTN    H217111   0.193   2.235   2.498 -1.2454 -1.1093 -0.4809
 1665ACTN    H317112   0.241   2.161   2.354 -1.0632  0.8725 -2.5486
 1666ACTN    H617113   1.455   6.504   8.511  1.1393 -1.8857 -0.2871
 1666ACTN    C317114   1.468   6.487   8.404  0.2484 -0.7866 -0.5830
 1666ACTN    H417115   1.383   6.429   8.369 -0.5674 -0.9103  1.5365
 1666ACTN    H517116   1.471   6.581   8.349 -0.8404  0.4506  1.4471
 1666ACTN    C217117   1.604   6.415   8.378  0.4884  0.6634  0.3144
 1666ACTN    O117118   1.616   6.308   8.437 -0.1742 -0.2479 -0.6364
 1666ACTN    C117119   1.729   6.495   8.365  1.1738  0.5352 -0.3736
 1666ACTN    H117120   1.770   6.533   8.459 -0.5200 -1.6869  1.3152
 1666ACTN    H217121   1.705   6.578   8.298 -2.1075 -1.1856 -1.4582
 1666ACTN    H317122   1.800   6.430   8.315  1.0346 -0.4250  0.6391
 1667ACTN    H617123   5.166   0.764   7.502 -0.9803 -0.0605  1.3062
 1667ACTN    C317124   5.085   0.752   7.430  0.5689  0.6616 -0.5872
 1667ACTN    H417125   5.127   0.696   7.347  0.4592 -0.7365  0.2878
 1667ACTN    H517126   5.050   0.850   7.399  1.5867  0.2902 -3.0014
 1667ACTN    C217127   4.965   0.683   7.490 -0.0008  0.8094  0.0405
 1667ACTN    O117128   4.861   0.673   7.424 -0.4294 -0.3753  0.0448
 1667ACTN    C117129   4.980   0.633   7.621  0.0226  0.3546  0.4999
 1667ACTN    H117130   5.068   0.570   7.630  0.3106  0.6348 -0.2727
 1667ACTN    H217131   4.899   0.565   7.647 -1.4580  0.8139 -2.5998
 1667ACTN    H317132   4.990   0.715   7.691  4.8033 -0.2364  0.6510
 1668ACTN    H617133   5.179   1.064   3.776 -0.6858 -2.1539 -0.1685
 1668ACTN    C317134   5.123   1.082   3.868  0.5724 -0.2217  0.2427
 1668ACTN    H417135   5.079   1.181   3.880  2.3543  0.6310  0.0109
 1668ACTN    H517136   5.039   1.014   3.875 -1.5587  2.0771 -1.8034
 1668ACTN    C217137   5.224   1.045   3.972  0.1836 -0.3073  0.5399
 1668ACTN    O117138   5.191   0.967   4.063  0.2685 -0.0549 -0.0570
 1668ACTN    C117139   5.356   1.124   3.982 -0.2199  0.0198 -0.4881
 1668ACTN    H117140   5.332   1.223   4.021 -1.0994 -0.6257  0.6584
 1668ACTN    H217141   5.403   1.139   3.885 -0.2071  2.6988 -0.0938
 1668ACTN    H317142   5.424   1.079   4.055 -0.4608 -1.0134 -0.8907
 1669ACTN    H617143   6.550   6.958   4.512 -2.3247  2.5568 -1.9925
 1669ACTN    C317144   6.568   7.037   4.585  0.4172 -0.1094  0.3241
 1669ACTN    H417145   6.647   7.109   4.563  3.3140 -3.2796 -0.0492
 1669ACTN    H517146   6.473   7.090   4.588  0.1430 -0.5873  0.1632
 1669ACTN    C217147   6.588   6.978   4.718  0.6411 -0.1449  0.1574
 1669ACTN    O117148   6.687   7.015   4.781 -0.3607 -0.2391  0.2076
 1669ACTN    C117149   6.488   6.884   4.770  0.1638  0.2448 -0.4982
 1669ACTN    H117150   6.520   6.842   4.865 -0.5854 -2.1264 -1.2410
 1669ACTN    H217151   6.492   6.800   4.701 -1.5568  0.3699 -0.7878
 1669ACTN    H317152   6.392   6.937   4.772 -0.1309 -0.2549 -1.0976
 1670ACTN    H617153   6.498   2.031   3.855  1.0428 -1.4387 -1.3614
 1670ACTN    C317154   6.554   2.123   3.844 -1.2349  0.1335 -0.2153
 1670ACTN    H417155   6.657   2.087   3.844 -1.2427 -0.1191  3.7069
 1670ACTN    H517156   6.548   2.181   3.752  0.4314  1.3142  0.3732
 1670ACTN    C217157   6.535   2.208   3.967 -0.0835  0.7718  0.0471
 1670ACTN    O117158   6.455   2.295   3.978  0.6791 -0.3895 -0.5332
 1670ACTN    C117159   6.623   2.180   4.083  0.0597 -0.3099  0.1666
 1670ACTN    H117160   6.597   2.079   4.117 -1.3316 -0.0268  0.0005
 1670ACTN    H217161   6.610   2.251   4.165 -1.1738  0.5199 -0.7234
 1670ACTN    H317162   6.728   2.177   4.054 -0.2588  1.1283 -1.1980
 1671ACTN    H617163   1.271   8.707   2.214 -0.2967 -0.7032 -1.2845
 1671ACTN    C317164   1.374   8.681   2.242 -0.1436  0.4129 -0.7768
 1671ACTN    H417165   1.375   8.599   2.314 -1.5517  0.9826 -0.0926
 1671ACTN    H517166   1.418   8.772   2.281 -1.8670  1.4782 -1.2596
 1671ACTN    C217167   1.445   8.628   2.117 -0.9117  0.3944  0.0020
 1671ACTN    O117168   1.380   8.590   2.024 -0.0313 -0.1489 -0.1432
 1671ACTN    C117169   1.587   8.601   2.123  0.0954 -0.1798  0.6230
 1671ACTN    H117170   1.611   8.544   2.213  1.1525  0.9355  1.0759
 1671ACTN    H217171   1.648   8.692   2.128 -0.0594  0.0050 -0.7997
 1671ACTN    H317172   1.616   8.541   2.038  0.0145 -0.6751  0.9437
 1672ACTN    H617173   7.669   2.317   1.340  2.2457 -2.0665 -0.8945
 1672ACTN    C317174   7.596   2.250   1.294  0.1210 -0.0323 -0.6196
 1672ACTN    H417175   7.497   2.290   1.315 -0.6285 -0.5414 -3.0347
 1672ACTN    H517176   7.609   2.232   1.187 -0.0283 -1.7781 -0.3670
 1672ACTN    C217177   7.623   2.121   1.361  0.4931  0.0666  0.4318
 1672ACTN    O117178   7.739   2.075   1.354  0.5742  0.3362 -0.9150
 1672ACTN    C117179   7.509   2.046   1.417 -0.0739 -0.3033  0.4068
 1672ACTN    H117180   7.543   1.967   1.484  0.4939 -0.2705  0.1554
 1672ACTN    H217181   7.453   1.992   1.341 -3.2452  2.5535  0.5767
 1672ACTN    H317182   7.431   2.101   1.469 -0.2045 -0.9948  0.9477
 1673ACTN    H617183   8.924   6.606   4.055  2.1446 -2.3670  1.0877
 1673ACTN    C317184   8.953   6.669   4.139  0.0136  0.6605 -0.3593
 1673ACTN    H417185   8.881   6.661   4.221  1.2427  0.6343  0.7432
 1673ACTN    H517186   9.048   6.629   4.175 -1.0670  1.7814  4.0058
 1673ACTN    C217187   8.963   6.811   4.106 -0.5911 -0.1749  0.8641
 1673ACTN    O117188   8.863   6.880   4.078 -0.0104  0.3385  0.4114
 1673ACTN    C117189   9.103   6.868   4.103 -0.0214 -0.0954 -0.3566
 1673ACTN    H117190   9.161   6.816   4.027 -0.1471 -0.3094 -0.3059
 1673ACTN    H217191   9.159   6.852   4.195 -0.0633 -2.7140 -0.7460
 1673ACTN    H317192   9.111   6.972   4.072  2.0239  0.5585  2.2053
 1674ACTN    H617193   7.488   7.887   3.350  0.7231 -1.6903 -0.4752
 1674ACTN    C317194   7.560   7.940   3.413 -0.6615 -0.3225 -0.0193
 1674ACTN    H417195   7.593   7.866   3.486 -1.0940 -1.0307 -0.5424
 1674ACTN    H517196   7.643   7.969   3.348 -0.6533  1.2324  0.6587
 1674ACTN    C217197   7.485   8.053   3.468 -0.7745 -0.0813  0.0099
 1674ACTN    O117198   7.456   8.052   3.584 -0.4717 -0.4735  0.1032
 1674ACTN    C117199   7.456   8.166   3.371  0.2998  0.1441 -0.1192
 1674ACTN    H117200   7.350   8.189   3.363 -0.4566 -3.0074  0.0355
 1674ACTN    H217201   7.497   8.150   3.271 -0.2794 -0.0965 -0.3186
 1674ACTN    H317202   7.507   8.256   3.407  0.6885  0.2117 -0.8326
 1675ACTN    H617203   7.842   0.031   3.264 -2.6320  3.8177  1.3124
 1675ACTN    C317204   7.921   0.069   3.329  0.5694  0.6938 -0.6176
 1675ACTN    H417205   8.015   0.029   3.291  0.4977 -1.3218  1.2510
 1675ACTN    H517206   7.918   0.178   3.321 -1.9225  1.0405  3.5507
 1675ACTN    C217207   7.879   0.022   3.468 -0.3271 -0.5230  0.2900
 1675ACTN    O117208   7.836   0.106   3.547 -0.8191 -0.2936  0.0165
 1675ACTN    C117209   7.920  -0.121   3.498 -0.5974  0.5663 -0.2653
 1675ACTN    H117210   7.877  -0.188   3.424  0.5027  1.6425 -1.8958
 1675ACTN    H217211   7.881  -0.141   3.598 -1.9644 -1.0723 -1.1049
 1675ACTN    H317212   8.028  -0.138   3.499 -0.8175 -0.8283  0.9877
 1676ACTN    H617213   8.176   2.620   6.882  0.3131  2.3789  2.0828
 1676ACTN    C317214   8.219   2.567   6.967  0.6368 -0.2230  0.3517
 1676ACTN    H417215   8.190   2.615   7.060  0.0643 -1.1925  0.6871
 1676ACTN    H517216   8.179   2.465   6.973 -2.0549  0.7489 -0.2534
 1676ACTN    C217217   8.369   2.572   6.968 -0.6391  0.2410  0.6840
 1676ACTN    O117218   8.423   2.612   6.865  0.5170 -0.1309 -0.8511
 1676ACTN    C117219   8.466   2.542   7.088 -0.2606  0.7568 -0.0837
 1676ACTN    H117220   8.536   2.464   7.058 -1.4551  0.7662 -2.9622
 1676ACTN    H217221   8.408   2.514   7.176 -0.2800  0.4250 -0.2031
 1676ACTN    H317222   8.527   2.629   7.112 -0.0130  0.4164  0.5372
 1677ACTN    H617223   6.347   7.166   5.268  2.1591  0.8260 -0.3090
 1677ACTN    C317224   6.371   7.098   5.187  0.9974 -0.2465  0.2282
 1677ACTN    H417225   6.476   7.070   5.195  0.6399 -2.8190 -3.0972
 1677ACTN    H517226   6.302   7.016   5.203 -1.0910  1.4222 -0.0399
 1677ACTN    C217227   6.344   7.169   5.064 -0.7352 -0.3038  1.0212
 1677ACTN    O117228   6.276   7.120   4.969 -0.1912  0.1860  0.2072
 1677ACTN    C117229   6.372   7.311   5.061 -0.2417 -0.7511 -0.3299
 1677ACTN    H117230   6.454   7.343   5.126 -0.1215 -1.4701 -0.1207
 1677ACTN    H217231   6.287   7.364   5.103  1.3622  0.2040  1.7985
 1677ACTN    H317232   6.398   7.353   4.964  1.3211 -0.7197  0.0796
 1678ACTN    H617233   6.574   8.569   3.554  0.9161  2.3568  1.8514
 1678ACTN    C317234   6.474   8.567   3.596 -0.0849  0.0685 -0.5492
 1678ACTN    H417235   6.481   8.617   3.692  1.9515  0.9150 -1.1181
 1678ACTN    H517236   6.405   8.611   3.524  0.2479 -0.4864 -1.2214
 1678ACTN    C217237   6.447   8.425   3.632 -0.3870  0.1064 -0.6112
 1678ACTN    O117238   6.353   8.357   3.593  0.2495 -0.3693 -0.3302
 1678ACTN    C117239   6.562   8.352   3.700 -0.5932 -0.1616 -0.3858
 1678ACTN    H117240   6.564   8.244   3.689 -1.1493 -0.6377  3.7019
 1678ACTN    H217241   6.567   8.379   3.805 -2.4171 -0.2600 -0.2443
 1678ACTN    H317242   6.658   8.374   3.654 -0.3785  1.0155  0.5952
 1679ACTN    H617243   0.497   8.901   4.300 -0.6638  1.3016 -3.0543
 1679ACTN    C317244   0.423   8.826   4.272 -0.7310  0.0707  0.1617
 1679ACTN    H417245   0.428   8.749   4.349 -4.3079  0.7488  1.1732
 1679ACTN    H517246   0.318   8.856   4.269 -0.8491 -0.3513 -0.0623
 1679ACTN    C217247   0.459   8.769   4.139 -0.1845 -0.0394  0.6134
 1679ACTN    O117248   0.391   8.676   4.098 -1.3487 -0.6986  0.2954
 1679ACTN    C117249   0.576   8.825   4.060  0.6340 -0.2317  0.8188
 1679ACTN    H117250   0.616   8.914   4.108 -0.4816  1.2183 -0.8835
 1679ACTN    H217251   0.554   8.858   3.959 -0.1204  0.8452  1.3268
 1679ACTN    H317252   0.660   8.757   4.045 -1.0657 -2.5201  1.4280
 1680ACTN    H617253   5.087   0.956   1.659 -0.1238  0.2624  0.6984
 1680ACTN    C317254   5.104   0.855   1.623  0.5391  0.5009  0.3413
 1680ACTN    H417255   5.205   0.852   1.581  0.2583  2.3792 -0.5390
 1680ACTN    H517256   5.029   0.841   1.545  0.2688 -0.1630  0.7183
 1680ACTN    C217257   5.088   0.762   1.737 -0.2207  0.3398 -0.5847
 1680ACTN    O117258   5.176   0.689   1.774  0.2296  0.2317  0.1186
 1680ACTN    C117259   4.968   0.779   1.818  0.2381 -0.1151  0.0773
 1680ACTN    H117260   4.982   0.741   1.919  1.3478 -1.3588 -0.5409
 1680ACTN    H217261   4.879   0.734   1.773  0.2280  0.4958 -0.5303
 1680ACTN    H317262   4.946   0.883   1.843 -1.3092 -0.2372 -0.7265
 1681ACTN    H617263   5.336   0.915   5.565  0.4704  1.2857  0.3797
 1681ACTN    C317264   5.432   0.863   5.570 -0.5214 -0.6162  0.1566
 1681ACTN    H417265   5.434   0.793   5.653 -1.3132  0.2033  0.8699
 1681ACTN    H517266   5.437   0.792   5.487 -1.6736 -0.8382  0.2642
 1681ACTN    C217267   5.546   0.955   5.577  0.6411 -0.7326  0.8295
 1681ACTN    O117268   5.566   1.041   5.493  0.0660 -0.7220  0.3153
 1681ACTN    C117269   5.651   0.946   5.679 -0.3138 -0.8054 -0.1999
 1681ACTN    H117270   5.707   0.853   5.679  0.3418 -0.4325  1.7839
 1681ACTN    H217271   5.613   0.970   5.779 -0.4659 -0.1011 -0.4251
 1681ACTN    H317272   5.730   1.016   5.653 -1.2410  0.3187 -0.0278
 1682ACTN    H617273   5.305   7.331   3.464  0.2451 -0.7739 -1.0004
 1682ACTN    C317274   5.381   7.337   3.542 -0.3478  0.0588 -0.4676
 1682ACTN    H417275   5.437   7.429   3.526  0.1625 -0.5561 -2.3605
 1682ACTN    H517276   5.338   7.339   3.642  1.3577  2.7153  0.2637
 1682ACTN    C217277   5.476   7.217   3.529 -0.8780 -0.0570  0.5071
 1682ACTN    O117278   5.580   7.220   3.602  0.2644 -0.0185  0.5584
 1682ACTN    C117279   5.471   7.129   3.404 -0.4310  0.9234  0.5628
 1682ACTN    H117280   5.410   7.044   3.431 -0.5545 -0.0430 -2.5589
 1682ACTN    H217281   5.571   7.098   3.374 -1.6559  0.0101 -2.7764
 1682ACTN    H317282   5.429   7.189   3.324  2.8581  0.7074 -1.4167
 1683ACTN    H617283   6.073   8.500   7.262 -0.4352  0.1852  0.0967
 1683ACTN    C317284   6.077   8.607   7.242  0.2324  0.1446  0.0098
 1683ACTN    H417285   6.034   8.623   7.143  1.9960 -1.9597 -1.1167
 1683ACTN    H517286   6.009   8.658   7.310 -0.6558  0.3305 -1.0105
 1683ACTN    C217287   6.220   8.656   7.253 -0.3967 -0.1527  0.2254
 1683ACTN    O117288   6.266   8.701   7.358  0.5043 -0.0533 -0.2836
 1683ACTN    C117289   6.293   8.687   7.130  0.2266  0.2929  0.0632
 1683ACTN    H117290   6.244   8.654   7.039 -1.0285  1.0921  0.4318
 1683ACTN    H217291   6.397   8.656   7.141  0.4857  1.7223  2.0870
 1683ACTN    H317292   6.297   8.794   7.109 -2.0690  0.1692 -1.2344
 1684ACTN    H617293   1.565   1.736   3.189 -0.1725  0.0249 -0.3737
 1684ACTN    C317294   1.627   1.775   3.108  0.4329 -0.4004 -0.1182
 1684ACTN    H417295   1.658   1.696   3.040 -2.1845 -1.3111 -0.3245
 1684ACTN    H517296   1.560   1.845   3.057  2.4103 -0.6162 -3.1263
 1684ACTN    C217297   1.754   1.838   3.160 -0.3759  0.6752 -0.0441
 1684ACTN    O117298   1.747   1.935   3.233 -0.0046  0.2261 -0.0069
 1684ACTN    C117299   1.882   1.804   3.089  0.9873 -0.7148  0.0423
 1684ACTN    H117300   1.945   1.891   3.076  1.1567 -0.4759  2.2999
 1684ACTN    H217301   1.864   1.751   2.995 -0.5206 -0.8818  0.4068
 1684ACTN    H317302   1.936   1.732   3.151  0.5794  0.8711  2.3310
 1685ACTN    H617303   1.256   0.399   2.782  1.6735  3.8119  0.2276
 1685ACTN    C317304   1.359   0.363   2.771  0.2830 -0.4770  0.0596
 1685ACTN    H417305   1.369   0.264   2.816  0.0492 -1.7882 -2.6984
 1685ACTN    H517306   1.389   0.354   2.667  3.0310  2.1412  0.5530
 1685ACTN    C217307   1.450   0.463   2.834  0.0394 -0.3163  0.2471
 1685ACTN    O117308   1.557   0.426   2.878 -0.2725 -0.2213  0.3872
 1685ACTN    C117309   1.427   0.609   2.824 -0.1718 -0.4930 -0.1794
 1685ACTN    H117310   1.513   0.675   2.835  1.3040 -2.3136 -0.4068
 1685ACTN    H217311   1.358   0.639   2.904 -1.4011 -0.9174 -1.0670
 1685ACTN    H317312   1.377   0.633   2.731  1.2361 -3.6071 -1.8158
 1686ACTN    H617313   3.340   3.479   7.484  0.1315  0.4479  0.7248
 1686ACTN    C317314   3.440   3.480   7.442 -0.2231  0.0179 -0.1404
 1686ACTN    H417315   3.449   3.561   7.370  1.8651 -2.0412 -2.3021
 1686ACTN    H517316   3.502   3.510   7.526 -2.3072  2.8090  0.4520
 1686ACTN    C217317   3.494   3.361   7.373 -0.0319  0.2748 -0.8751
 1686ACTN    O117318   3.594   3.370   7.305  0.1189 -0.2732 -0.4107
 1686ACTN    C117319   3.390   3.245   7.351 -0.5837  0.3183  0.6683
 1686ACTN    H117320   3.448   3.167   7.303  0.6754  2.7964 -2.0086
 1686ACTN    H217321   3.318   3.276   7.275  0.4167 -1.1927 -0.9404
 1686ACTN    H317322   3.341   3.218   7.444  1.3901  2.1550  2.3209
 1687ACTN    H617323   2.268   8.025   6.095  0.1610  0.4324  2.3548
 1687ACTN    C317324   2.364   8.075   6.085  0.0876  0.1604 -0.0234
 1687ACTN    H417325   2.349   8.182   6.070  0.8100  0.4866  1.4727
 1687ACTN    H517326   2.407   8.055   6.183 -0.5447 -2.3046 -0.2331
 1687ACTN    C217327   2.446   8.021   5.968  0.4565  0.4128 -0.3545
 1687ACTN    O117328   2.545   8.082   5.946  0.4489  0.0507 -1.0714
 1687ACTN    C117329   2.432   7.882   5.917 -0.4524 -0.0019 -0.8578
 1687ACTN    H117330   2.478   7.876   5.818 -0.4951 -0.7276 -0.8374
 1687ACTN    H217331   2.325   7.868   5.905 -0.3391 -0.6980 -1.1110
 1687ACTN    H317332   2.479   7.800   5.971 -0.0326  0.0798 -1.0887
 1688ACTN    H617333   0.623   4.672   1.693 -1.1486  1.8729 -0.6545
 1688ACTN    C317334   0.536   4.610   1.715  0.5951 -0.5376 -0.3538
 1688ACTN    H417335   0.515   4.551   1.626  0.7111 -0.8401 -0.1825
 1688ACTN    H517336   0.562   4.545   1.799 -0.2065 -1.1063 -0.5435
 1688ACTN    C217337   0.427   4.705   1.754  0.2036  0.0171  0.5968
 1688ACTN    O117338   0.349   4.746   1.670  0.2089  0.1714  0.0633
 1688ACTN    C117339   0.394   4.749   1.892 -0.6032  0.4111 -0.6411
 1688ACTN    H117340   0.449   4.685   1.961  0.4935  1.5418 -0.4616
 1688ACTN    H217341   0.291   4.743   1.927 -1.0218  0.9884 -1.7755
 1688ACTN    H317342   0.424   4.852   1.909  0.7205 -0.1462  0.5204
 1689ACTN    H617343   4.557   8.273   3.790 -1.5320  0.1313  1.7118
 1689ACTN    C317344   4.631   8.318   3.855 -0.1428 -1.0204  0.9364
 1689ACTN    H417345   4.730   8.272   3.845 -0.9472 -2.5680 -0.0676
 1689ACTN    H517346   4.644   8.421   3.820 -1.3460 -0.8076  1.1070
 1689ACTN    C217347   4.585   8.331   3.994 -0.0918 -0.4973  0.5916
 1689ACTN    O117348   4.524   8.434   4.030 -0.2352  0.2334  0.7270
 1689ACTN    C117349   4.598   8.224   4.090 -0.0507  0.4124  0.1613
 1689ACTN    H117350   4.700   8.189   4.079 -0.2582  0.3362 -1.7013
 1689ACTN    H217351   4.532   8.137   4.079  0.1274  0.1419  1.1942
 1689ACTN    H317352   4.593   8.260   4.193 -1.7890  0.2688  0.1430
 1690ACTN    H617353   0.266   6.080   0.087 -1.7198 -1.6838 -2.0813
 1690ACTN    C317354   0.286   6.123  -0.011  0.5289  0.5054 -0.7255
 1690ACTN    H417355   0.382   6.097  -0.056  0.4733  0.5336 -0.8597
 1690ACTN    H517356   0.208   6.080  -0.073 -0.1496 -0.8484  1.0172
 1690ACTN    C217357   0.261   6.269  -0.023  0.1171 -0.1049  0.5727
 1690ACTN    O117358   0.357   6.346  -0.036  0.5444 -0.1557  0.4890
 1690ACTN    C117359   0.120   6.319  -0.017  0.1803  0.5194 -1.1449
 1690ACTN    H117360   0.049   6.246   0.021 -1.0622  1.7571 -1.0420
 1690ACTN    H217361   0.083   6.371  -0.105  0.2381  1.9595 -0.3401
 1690ACTN    H317362   0.115   6.391   0.065 -3.1247  0.3514 -1.1165
 1691ACTN    H617363   4.238   0.073   5.064  0.4835  0.9911  0.2776
 1691ACTN    C317364   4.130   0.087   5.056  0.3872  0.1637  0.1148
 1691ACTN    H417365   4.108   0.168   5.125 -0.6191 -0.1578  0.1755
 1691ACTN    H517366   4.110   0.114   4.952  2.6556  1.1836 -0.0972
 1691ACTN    C217367   4.064  -0.038   5.098  0.5018 -0.5107 -0.8364
 1691ACTN    O117368   4.010  -0.051   5.205 -0.8216 -0.0211  0.3750
 1691ACTN    C117369   4.096  -0.158   5.015 -0.7090 -0.4607 -0.0996
 1691ACTN    H117370   4.066  -0.134   4.913 -2.3735  1.6305  0.8400
 1691ACTN    H217371   4.038  -0.244   5.049 -0.9685  0.8608  2.9169
 1691ACTN    H317372   4.200  -0.190   5.014 -0.9010 -1.1306 -2.7937
 1692ACTN    H617373   0.951   8.124   6.399 -0.2427  0.2770  2.6982
 1692ACTN    C317374   1.053   8.160   6.388 -0.5000  0.3031  0.1698
 1692ACTN    H417375   1.099   8.135   6.483 -3.3212  0.7251  1.6868
 1692ACTN    H517376   1.097   8.114   6.299  1.6042 -0.4529  1.5466
 1692ACTN    C217377   1.049   8.308   6.369 -0.0542 -0.2761  0.1372
 1692ACTN    O117378   1.130   8.382   6.426  0.0321 -0.5090  0.1652
 1692ACTN    C117379   0.985   8.355   6.241  0.5452  1.0279  0.4083
 1692ACTN    H117380   0.897   8.298   6.211  0.4785  0.6578  1.2849
 1692ACTN    H217381   1.057   8.362   6.159 -0.7430 -0.4967 -0.8707
 1692ACTN    H317382   0.955   8.458   6.258 -1.9531  0.2935  0.5777
 1693ACTN    H617383   8.218   8.264   3.579  4.1709  0.0082  0.2749
 1693ACTN    C317384   8.216   8.357   3.522  0.5559 -0.0286  0.2620
 1693ACTN    H417385   8.282   8.424   3.576 -0.8464  0.0776  1.9077
 1693ACTN    H517386   8.249   8.334   3.420  0.3585 -0.5542  0.3118
 1693ACTN    C217387   8.084   8.414   3.509  0.1579  0.2336  0.1463
 1693ACTN    O117388   7.992   8.345   3.471 -0.1955  0.4453  0.2154
 1693ACTN    C117389   8.070   8.569   3.507  0.1782 -0.0483 -0.0780
 1693ACTN    H117390   8.169   8.613   3.519 -0.0101  0.2585  0.3358
 1693ACTN    H217391   8.009   8.612   3.586  3.8309  3.9679  0.6861
 1693ACTN    H317392   8.038   8.607   3.410  1.7402 -2.8611 -1.7896
 1694ACTN    H617393   5.381   6.054   8.355  1.3814  0.5757 -0.6937
 1694ACTN    C317394   5.341   6.155   8.363  0.5724  0.1612  0.7870
 1694ACTN    H417395   5.394   6.205   8.444  1.6265  1.2535 -0.5413
 1694ACTN    H517396   5.370   6.206   8.271  2.8875 -1.0612  0.7858
 1694ACTN    C217397   5.198   6.168   8.381  0.1139 -0.3199  0.3660
 1694ACTN    O117398   5.123   6.072   8.403  0.1233  0.3689 -0.4131
 1694ACTN    C117399   5.135   6.297   8.361  0.3724  0.7987 -0.2738
 1694ACTN    H117400   5.081   6.324   8.452 -1.0816  0.5291 -1.0506
 1694ACTN    H217401   5.065   6.284   8.279  1.5013 -0.4449 -1.0645
 1694ACTN    H317402   5.213   6.366   8.329  0.7338  1.2078  1.4508
 1695ACTN    H617403   7.047   7.898   5.620 -0.8502 -2.2691 -1.1433
 1695ACTN    C317404   6.946   7.938   5.628 -0.0343 -0.3156 -0.3005
 1695ACTN    H417405   6.910   7.953   5.527  0.9787  4.0037 -0.0921
 1695ACTN    H517406   6.889   7.863   5.683  0.1234 -0.9586 -1.0053
 1695ACTN    C217407   6.956   8.074   5.693 -0.0192 -0.6499 -0.2586
 1695ACTN    O117408   7.062   8.123   5.725  0.1819 -0.2847  0.8867
 1695ACTN    C117409   6.830   8.149   5.737  0.3373  0.0956 -0.2163
 1695ACTN    H117410   6.833   8.254   5.709  0.7204  0.3337  0.6995
 1695ACTN    H217411   6.828   8.157   5.846  0.9856  0.2964 -0.2185
 1695ACTN    H317412   6.743   8.095   5.701  0.0495  0.6405 -0.3489
 1696ACTN    H617413   8.810   4.030   2.859  0.0889 -1.9513  2.0678
 1696ACTN    C317414   8.836   3.957   2.783 -0.0220 -0.2074  0.3317
 1696ACTN    H417415   8.818   3.856   2.819 -0.3484  0.7147  2.8162
 1696ACTN    H517416   8.780   3.974   2.691  1.6630  1.4249 -0.4435
 1696ACTN    C217417   8.985   3.981   2.755 -0.0912 -0.1824 -0.2176
 1696ACTN    O117418   9.035   3.947   2.652  0.1537 -0.3404  0.0807
 1696ACTN    C117419   9.054   4.091   2.835 -0.3330  0.6464  0.6770
 1696ACTN    H117420   9.156   4.116   2.806  0.1575 -0.2663  1.5977
 1696ACTN    H217421   9.055   4.066   2.941 -0.5482  1.7905  0.9553
 1696ACTN    H317422   8.989   4.179   2.825 -0.3038  0.7112  1.0881
 1697ACTN    H617423   7.483   7.393   7.709  0.9743 -0.7365  0.3924
 1697ACTN    C317424   7.506   7.390   7.815  0.1921  0.0187  0.5835
 1697ACTN    H417425   7.496   7.286   7.846 -1.1424 -0.3080 -0.9024
 1697ACTN    H517426   7.608   7.425   7.831 -0.2085  1.1449  0.7168
 1697ACTN    C217427   7.409   7.478   7.883  0.1526  0.1511 -0.4136
 1697ACTN    O117428   7.422   7.508   7.998 -0.5461 -0.4875 -0.3456
 1697ACTN    C117429   7.282   7.537   7.803 -0.6932  1.0685 -0.4379
 1697ACTN    H117430   7.214   7.596   7.865 -0.6374  0.6513  0.0260
 1697ACTN    H217431   7.233   7.449   7.760  0.5415 -0.9375  2.0895
 1697ACTN    H317432   7.309   7.601   7.720 -1.0220  0.1907 -1.2302
 1698ACTN    H617433   5.001   0.962   5.528  0.4460 -1.1493  0.7964
 1698ACTN    C317434   5.027   1.055   5.578 -0.4524 -0.1940 -0.4579
 1698ACTN    H417435   4.970   1.052   5.671 -0.2238  0.0240 -0.3089
 1698ACTN    H517436   5.133   1.054   5.604 -0.5656  1.0731  0.0960
 1698ACTN    C217437   4.999   1.175   5.503  0.6517  0.0515  0.7569
 1698ACTN    O117438   4.896   1.176   5.435  0.2273 -0.1459  0.0659
 1698ACTN    C117439   5.127   1.251   5.475 -0.1751 -0.3732  0.5410
 1698ACTN    H117440   5.116   1.359   5.475 -0.2387 -0.3574  2.2440
 1698ACTN    H217441   5.162   1.219   5.377  1.7966  3.1527  0.0135
 1698ACTN    H317442   5.211   1.215   5.534  1.1629  1.3416 -0.2934
 1699ACTN    H617443   7.783   0.504   2.651  0.4774 -1.2245  0.1443
 1699ACTN    C317444   7.712   0.453   2.585 -0.3683  0.2655 -0.1137
 1699ACTN    H417445   7.760   0.442   2.488 -1.8875 -1.1094 -0.7156
 1699ACTN    H517446   7.703   0.353   2.626 -1.1295 -0.0590 -1.0701
 1699ACTN    C217447   7.583   0.524   2.593  0.2071  0.0345 -0.6697
 1699ACTN    O117448   7.585   0.639   2.574 -0.3407  0.2137  0.4079
 1699ACTN    C117449   7.464   0.442   2.638 -0.2386 -0.8637 -0.3192
 1699ACTN    H117450   7.403   0.397   2.558 -1.2277  0.1676 -0.1572
 1699ACTN    H217451   7.388   0.498   2.691 -1.6997 -1.3266 -1.8584
 1699ACTN    H317452   7.495   0.357   2.699 -0.0105 -1.4901 -1.2742
 1700ACTN    H617453   5.350   5.108   2.437  1.3685  0.5857 -1.2259
 1700ACTN    C317454   5.409   5.029   2.483 -0.0534 -0.3591 -0.9670
 1700ACTN    H417455   5.506   5.070   2.513 -1.1427  1.6150 -0.0644
 1700ACTN    H517456   5.359   4.981   2.567  0.4718  1.1855  0.2595
 1700ACTN    C217457   5.421   4.918   2.393 -0.2955  0.1632 -0.2057
 1700ACTN    O117458   5.471   4.941   2.280 -0.1118 -0.2456 -0.6559
 1700ACTN    C117459   5.365   4.785   2.425 -0.3975 -0.1326  0.3174
 1700ACTN    H117460   5.337   4.785   2.531  0.0547 -2.7817  0.4705
 1700ACTN    H217461   5.434   4.701   2.419 -0.0130  0.1265  1.1041
 1700ACTN    H317462   5.271   4.776   2.370 -0.8597  0.4360  0.9991
 1701ACTN    H617463   8.757   7.642   3.359  0.2721 -0.6776  0.9661
 1701ACTN    C317464   8.839   7.705   3.325 -0.2167 -0.6733 -0.2119
 1701ACTN    H417465   8.796   7.784   3.263 -1.0290  0.3144  1.5697
 1701ACTN    H517466   8.873   7.752   3.417  1.8182  2.5895 -2.5198
 1701ACTN    C217467   8.951   7.624   3.264 -0.0629  0.0635  0.1294
 1701ACTN    O117468   8.917   7.540   3.179  0.3134 -0.1068 -0.0300
 1701ACTN    C117469   9.094   7.644   3.312 -0.8492  0.1055 -0.0061
 1701ACTN    H117470   9.158   7.625   3.226 -1.9115  0.6280 -0.9336
 1701ACTN    H217471   9.120   7.574   3.391 -0.0452  0.9909  0.5227
 1701ACTN    H317472   9.100   7.750   3.339 -1.2240 -0.0279  0.6198
 1702ACTN    H617473   7.333   1.679   3.755 -0.2144  0.2115  0.5560
 1702ACTN    C317474   7.348   1.604   3.833 -0.0932  0.1104  0.4352
 1702ACTN    H417475   7.261   1.596   3.898  1.5791  1.6307  2.9310
 1702ACTN    H517476   7.382   1.512   3.786  0.5656  0.4653  0.2123
 1702ACTN    C217477   7.460   1.659   3.919 -0.2525 -0.3762  0.5360
 1702ACTN    O117478   7.575   1.624   3.900 -0.3696 -0.1732 -0.8005
 1702ACTN    C117479   7.429   1.740   4.046 -0.0862  0.1745 -0.0973
 1702ACTN    H117480   7.322   1.734   4.069 -0.1911 -3.1214 -1.1255
 1702ACTN    H217481   7.451   1.844   4.026  0.1671 -0.1145 -1.3803
 1702ACTN    H317482   7.498   1.704   4.122 -0.1001  0.3033 -0.0234
 1703ACTN    H617483   5.800   8.872   7.039  0.7568 -0.8038 -1.9230
 1703ACTN    C317484   5.789   8.776   7.088  0.3351 -0.1255 -0.6602
 1703ACTN    H417485   5.785   8.698   7.011  1.9688 -0.0668 -0.8281
 1703ACTN    H517486   5.870   8.752   7.157  0.4499  0.5072 -0.5736
 1703ACTN    C217487   5.662   8.762   7.166  0.2078 -0.4267  0.0809
 1703ACTN    O117488   5.577   8.681   7.138 -0.3283 -0.1958  0.2166
 1703ACTN    C117489   5.649   8.838   7.295  0.0914 -0.0103 -0.1729
 1703ACTN    H117490   5.711   8.928   7.292 -0.5229  0.4887  1.6376
 1703ACTN    H217491   5.697   8.781   7.374 -0.2144 -0.8607 -0.6003
 1703ACTN    H317492   5.544   8.857   7.316 -0.0417  0.1502 -0.9657
 1704ACTN    H617493   8.354   1.143   3.026  0.6279  1.1947  0.2165
 1704ACTN    C317494   8.249   1.166   3.039  0.2758 -0.1543 -0.1318
 1704ACTN    H417495   8.239   1.193   3.145  1.0828 -0.1484 -0.0519
 1704ACTN    H517496   8.221   1.248   2.972  1.2218 -0.6230 -1.1128
 1704ACTN    C217497   8.161   1.044   3.022 -0.1047 -0.3802 -0.5429
 1704ACTN    O117498   8.047   1.052   2.983 -0.9409  0.3729 -0.2650
 1704ACTN    C117499   8.206   0.913   3.089 -0.5682 -0.7935 -0.0570
 1704ACTN    H117500   8.193   0.921   3.197  1.7618 -1.4085  0.3022
 1704ACTN    H217501   8.312   0.889   3.073 -0.3937 -2.6002  3.2604
 1704ACTN    H317502   8.147   0.833   3.045  0.6448 -0.0133 -3.1949
 1705ACTN    H617503   5.834   2.042   3.203 -0.1925  0.4678 -0.6948
 1705ACTN    C317504   5.918   2.038   3.133  0.4054  0.3878  0.0207
 1705ACTN    H417505   5.998   1.973   3.167  1.5371  0.3499 -2.5624
 1705ACTN    H517506   5.874   2.015   3.035 -3.0465 -0.5962  1.7096
 1705ACTN    C217507   5.961   2.182   3.121 -0.2462  0.4362 -0.2758
 1705ACTN    O117508   6.077   2.216   3.130  0.2651  0.2668 -0.2331
 1705ACTN    C117509   5.846   2.275   3.114 -0.4763  0.0001  0.5278
 1705ACTN    H117510   5.752   2.224   3.130 -1.3885  0.5144 -2.7121
 1705ACTN    H217511   5.850   2.343   3.029  1.3268  1.8092  2.0095
 1705ACTN    H317512   5.857   2.332   3.206 -1.3865 -1.4329  1.5435
 1706ACTN    H617513   2.124   2.211   6.617  2.5943  0.7142 -1.9889
 1706ACTN    C317514   2.126   2.116   6.564  0.0264 -0.6392  0.2285
 1706ACTN    H417515   2.081   2.036   6.624 -0.1272 -1.9774 -1.6366
 1706ACTN    H517516   2.060   2.125   6.478 -0.2565  1.3734  0.6509
 1706ACTN    C217517   2.270   2.094   6.528  0.3916  0.2606  0.0669
 1706ACTN    O117518   2.312   1.976   6.541  0.3299 -0.5910 -0.1724
 1706ACTN    C117519   2.350   2.206   6.483  0.3102 -0.4821  0.0805
 1706ACTN    H117520   2.456   2.197   6.504  0.3839  0.6180  0.1734
 1706ACTN    H217521   2.312   2.298   6.527  0.1586 -0.3257 -0.3701
 1706ACTN    H317522   2.337   2.227   6.376 -1.5278  0.4840  0.4688
 1707ACTN    H617523   2.459   4.513   8.006 -0.2657 -1.5414  1.4121
 1707ACTN    C317524   2.525   4.455   7.940  0.5116  0.2556  0.5776
 1707ACTN    H417525   2.560   4.369   7.997 -0.2273 -0.4500 -0.0164
 1707ACTN    H517526   2.461   4.418   7.860  2.2036 -1.8408  0.1470
 1707ACTN    C217527   2.629   4.540   7.884 -0.2197 -0.2408  0.4229
 1707ACTN    O117528   2.600   4.653   7.857  0.0938  0.1513  0.7366
 1707ACTN    C117529   2.765   4.485   7.895 -0.0438 -0.3169 -0.3809
 1707ACTN    H117530   2.753   4.379   7.919  0.1479 -0.5575 -1.2911
 1707ACTN    H217531   2.808   4.533   7.982 -2.1800 -1.1124  1.1308
 1707ACTN    H317532   2.838   4.510   7.817  2.5785 -2.8464  1.1499
 1708ACTN    H617533   6.318   0.663   1.185  0.1910  1.1876 -2.3848
 1708ACTN    C317534   6.324   0.578   1.117  0.2852 -0.5826 -0.2225
 1708ACTN    H417535   6.364   0.608   1.021  0.0154 -1.0372 -0.4765
 1708ACTN    H517536   6.391   0.514   1.175 -0.3906 -1.1505 -0.0594
 1708ACTN    C217537   6.197   0.516   1.091 -0.5944  0.1091  0.0302
 1708ACTN    O117538   6.190   0.403   1.046  0.6995  0.6136 -0.3915
 1708ACTN    C117539   6.069   0.578   1.148  0.2461  0.1879  0.2145
 1708ACTN    H117540   6.032   0.510   1.225 -1.1200 -1.1397 -1.5790
 1708ACTN    H217541   5.992   0.607   1.077 -1.2782 -0.5085  1.5452
 1708ACTN    H317542   6.099   0.670   1.199  1.7068  0.8509 -1.7851
 1709ACTN    H617543   8.431   3.410   8.287  0.8026 -0.1029 -0.2097
 1709ACTN    C317544   8.502   3.330   8.263  0.9505  0.0481 -0.2718
 1709ACTN    H417545   8.529   3.282   8.357 -0.6458  0.0988  0.2244
 1709ACTN    H517546   8.448   3.262   8.197  1.0559 -0.3258  0.0315
 1709ACTN    C217547   8.615   3.384   8.187 -0.6974  0.0284  0.2467
 1709ACTN    O117548   8.649   3.344   8.076  0.3798  0.8933  1.0228
 1709ACTN    C117549   8.665   3.511   8.239 -0.5585 -0.0641 -0.5132
 1709ACTN    H117550   8.617   3.552   8.328  1.5509 -1.5278  1.3600
 1709ACTN    H217551   8.665   3.587   8.161  1.2533  0.6863  0.1782
 1709ACTN    H317552   8.769   3.489   8.264 -0.8101 -1.2635 -0.5035
 1710ACTN    H617553   7.690   2.519   2.218  2.1904 -0.1809  1.7328
 1710ACTN    C317554   7.783   2.512   2.161  0.9134 -0.3558 -0.3572
 1710ACTN    H417555   7.868   2.486   2.223  0.4700  1.1470  0.9030
 1710ACTN    H517556   7.767   2.436   2.084  0.5291 -2.6683  1.9153
 1710ACTN    C217557   7.813   2.637   2.082 -0.1819  0.3340  0.3290
 1710ACTN    O117558   7.888   2.724   2.120  0.2380 -0.3434 -0.0964
 1710ACTN    C117559   7.777   2.633   1.934  0.4295  0.4068 -0.3583
 1710ACTN    H117560   7.791   2.728   1.882 -0.9186 -0.3197 -2.1354
 1710ACTN    H217561   7.674   2.601   1.915  0.2609  0.2419  0.8254
 1710ACTN    H317562   7.841   2.569   1.875  3.0572  1.1429  1.6128
 1711ACTN    H617563   7.812   0.716   8.867  0.5866 -1.1588 -0.3572
 1711ACTN    C317564   7.831   0.657   8.956 -0.8737 -0.5023  0.4110
 1711ACTN    H417565   7.877   0.719   9.033 -0.8835 -1.1643  0.9576
 1711ACTN    H517566   7.735   0.623   8.994 -1.2113 -3.2819 -2.6993
 1711ACTN    C217567   7.901   0.524   8.928  0.4457  0.5856  0.7353
 1711ACTN    O117568   7.915   0.476   8.815  0.2394  0.4866 -0.2360
 1711ACTN    C117569   7.951   0.448   9.047 -0.3191 -1.0436 -0.8535
 1711ACTN    H117570   8.059   0.438   9.049 -0.3352 -1.0223  1.0654
 1711ACTN    H217571   7.907   0.348   9.046  0.9392 -1.5989 -0.6164
 1711ACTN    H317572   7.918   0.496   9.139  0.8190  2.6176 -2.2579
 1712ACTN    H617573   4.900   6.178   7.823 -0.2122 -1.0851  1.3973
 1712ACTN    C317574   5.006   6.156   7.829  0.1039 -0.0916 -0.2296
 1712ACTN    H417575   5.065   6.238   7.787 -2.2185  1.7757  0.0301
 1712ACTN    H517576   5.025   6.063   7.776  2.3372  0.5310 -0.5904
 1712ACTN    C217577   5.037   6.133   7.975  0.3261  0.5030  0.2025
 1712ACTN    O117578   5.155   6.140   8.010  0.2971 -0.4707 -0.4489
 1712ACTN    C117579   4.923   6.093   8.065 -0.2717  0.5795 -0.1065
 1712ACTN    H117580   4.847   6.024   8.030  0.3736 -0.5781  0.7383
 1712ACTN    H217581   4.880   6.193   8.068  2.5017  1.8290 -0.3622
 1712ACTN    H317582   4.960   6.062   8.163  1.4283  0.9395 -0.6165
 1713ACTN    H617583   6.219   1.617   0.915  0.6481 -0.2562 -0.3837
 1713ACTN    C317584   6.283   1.666   0.988 -0.2880 -0.0582  0.3111
 1713ACTN    H417585   6.375   1.608   0.990 -1.6165 -2.2364 -0.6114
 1713ACTN    H517586   6.310   1.767   0.955  0.1748 -0.5629 -0.8624
 1713ACTN    C217587   6.219   1.685   1.117 -0.5491 -0.3998 -0.4628
 1713ACTN    O117588   6.131   1.763   1.139  0.7163 -0.5218  0.5218
 1713ACTN    C117589   6.250   1.588   1.222 -0.7799  0.0621  0.1113
 1713ACTN    H117590   6.202   1.605   1.318 -0.6992 -1.8824  0.5241
 1713ACTN    H217591   6.357   1.575   1.238 -0.8242  0.9990  1.2486
 1713ACTN    H317592   6.208   1.496   1.181  0.6002  0.4007 -2.1874
 1714ACTN    H617593   6.479   6.736   1.516 -0.4585 -0.6404 -1.5710
 1714ACTN    C317594   6.451   6.838   1.491  0.6473  0.0746  0.0179
 1714ACTN    H417595   6.485   6.867   1.392  0.6246 -0.5160 -0.1638
 1714ACTN    H517596   6.343   6.847   1.480  0.7633  0.8984 -0.5109
 1714ACTN    C217597   6.515   6.931   1.593 -0.1389  1.2190  0.5410
 1714ACTN    O117598   6.640   6.949   1.602  0.9043  0.0546  0.3140
 1714ACTN    C117599   6.422   7.028   1.661  0.3113  0.0516 -0.6085
 1714ACTN    H117600   6.475   7.083   1.740 -0.4326  0.7631 -0.5918
 1714ACTN    H217601   6.330   6.982   1.697  0.1781  1.2412  0.6160
 1714ACTN    H317602   6.393   7.098   1.583 -1.4077 -2.4625 -2.2912
 1715ACTN    H617603   0.571   8.488   5.771 -1.1408  0.0315 -0.4006
 1715ACTN    C317604   0.619   8.432   5.691  0.3551  0.8845 -0.1013
 1715ACTN    H417605   0.612   8.326   5.712  0.5329  0.8212 -0.3575
 1715ACTN    H517606   0.564   8.460   5.601  0.0185  2.3714  0.5497
 1715ACTN    C217607   0.757   8.487   5.679 -0.3191  0.2367  0.5648
 1715ACTN    O117608   0.845   8.481   5.767 -0.2229 -0.4624  0.0229
 1715ACTN    C117609   0.781   8.574   5.553  0.4780 -0.4057  0.0556
 1715ACTN    H117610   0.729   8.668   5.571 -1.8072 -1.7709  0.7202
 1715ACTN    H217611   0.737   8.523   5.467  0.3765 -1.8236  0.9183
 1715ACTN    H317612   0.881   8.605   5.523 -0.2222  0.6582 -1.1932
 1716ACTN    H617613   5.778   7.335   7.719 -0.8859 -0.9519 -0.7156
 1716ACTN    C317614   5.814   7.310   7.819  0.1545  0.8326 -0.6168
 1716ACTN    H417615   5.826   7.402   7.875  2.8369 -0.9522  1.8688
 1716ACTN    H517616   5.740   7.250   7.870 -1.0330  2.5377 -0.3080
 1716ACTN    C217617   5.944   7.232   7.807 -0.7115 -0.1301  0.9627
 1716ACTN    O117618   6.019   7.225   7.904  0.5033  0.0992 -0.3001
 1716ACTN    C117619   5.948   7.115   7.717 -0.7021 -0.3057 -0.3113
 1716ACTN    H117620   5.871   7.125   7.641 -2.2263 -0.5007  1.1757
 1716ACTN    H217621   5.911   7.032   7.777  0.2357 -0.8374 -0.4490
 1716ACTN    H317622   6.047   7.098   7.675 -0.3723 -0.7092  0.6232
 1717SOL     OW17623   7.832   6.028   3.690  0.0098 -0.5441 -0.0035
 1717SOL    HW117624   7.864   5.935   3.710  0.8781 -0.1687  0.3853
 1717SOL    HW217625   7.739   6.039   3.724 -1.1933 -2.1775 -2.6263
 1718SOL     OW17626   1.015   5.103   7.115  0.3192 -0.0464 -0.0356
 1718SOL    HW117627   0.958   5.024   7.091  1.6647 -0.2750 -2.6235
 1718SOL    HW217628   1.100   5.071   7.155  0.4977  0.1172 -0.2824
 1719SOL     OW17629   0.892   3.131   8.545  0.1661  0.1084  0.2723
 1719SOL    HW117630   0.801   3.097   8.568  0.9352 -1.5283  0.9964
 1719SOL    HW217631   0.933   3.173   8.626 -1.3912  4.3580 -0.9865
 1720SOL     OW17632   1.812   6.538   0.321  0.3762  0.0034  0.0092
 1720SOL    HW117633   1.909   6.515   0.330  0.7233  0.8409 -1.4586
 1720SOL    HW217634   1.801   6.612   0.255 -1.0722  1.4932  1.8816
 1721SOL     OW17635   5.843   4.243   7.390  0.0267  0.3721  0.2334
 1721SOL    HW117636   5.813   4.281   7.303  1.1117  1.8321  0.4919
 1721SOL    HW217637   5.834   4.312   7.462  0.6017 -0.3314  0.9901
 1722SOL     OW17638   1.718   5.309   1.570  0.4986 -0.4284  0.6787
 1722SOL    HW117639   1.701   5.243   1.643 -2.6969  1.0157  1.3282
 1722SOL    HW217640   1.696   5.267   1.482  0.0647 -0.7590  0.9428
 1723SOL     OW17641   7.041   5.059   4.586  0.3031 -0.6954 -0.0244
 1723SOL    HW117642   7.047   4.993   4.660  1.4023 -1.8532 -1.1114
 1723SOL    HW217643   7.098   5.028   4.509 -1.0790  0.3010 -1.4785
 1724SOL     OW17644   0.599   0.767   0.945 -0.2733 -0.4852 -0.7936
 1724SOL    HW117645   0.619   0.672   0.972  0.9643  0.5983  2.3315
 1724SOL    HW217646   0.683   0.810   0.915 -0.4111  0.2299 -0.1669
 1725SOL     OW17647   7.733   7.236   8.087 -0.6458  0.1655 -0.1548
 1725SOL    HW117648   7.757   7.329   8.113 -2.7805  0.5671  0.4483
 1725SOL    HW217649   7.726   7.179   8.168  1.1187 -0.6388 -0.5622
 1726SOL     OW17650   5.543   5.328   6.594  0.3956 -0.3873  0.5419
 1726SOL    HW117651   5.606   5.406   6.595 -0.4951  0.3503 -0.3530
 1726SOL    HW217652   5.456   5.355   6.634 -0.7697 -0.1802 -2.0456
 1727SOL     OW17653   6.061   2.681   1.493 -0.2629  0.6328 -0.0242
 1727SOL    HW117654   6.126   2.740   1.542  0.1993 -0.8643  1.2121
 1727SOL    HW217655   5.974   2.728   1.483  0.1377  1.5763  0.8271
 1728SOL     OW17656   6.120   7.602   1.060 -0.3013  0.2126 -0.1574
 1728SOL    HW117657   6.206   7.561   1.091 -1.4435 -1.1889  1.2020
 1728SOL    HW217658   6.065   7.533   1.014 -0.9506  0.9677 -0.5199
 1729SOL     OW17659   4.639   1.226   4.254 -0.3136  0.5523  0.4195
 1729SOL    HW117660   4.682   1.270   4.332 -0.5552 -0.3808  1.0919
 1729SOL    HW217661   4.602   1.295   4.192  0.5065  1.3099  0.7676
 1730SOL     OW17662   8.316   5.674   0.269  0.6423  0.3166  0.4539
 1730SOL    HW117663   8.368   5.670   0.354 -0.3272 -1.2512  0.9929
 1730SOL    HW217664   8.377   5.666   0.191  1.1542 -2.3330  1.0899
 1731SOL     OW17665   3.460   0.499   7.122  0.4219 -0.0439  0.5315
 1731SOL    HW117666   3.518   0.541   7.052  1.8613 -1.0107  1.1132
 1731SOL    HW217667   3.500   0.516   7.212 -0.3992 -0.4078  0.9635
 1732SOL     OW17668   0.376   8.092   7.996  0.0110  0.1631 -0.0240
 1732SOL    HW117669   0.381   8.174   7.939  2.0811  0.7671  0.9918
 1732SOL    HW217670   0.280   8.068   8.010 -0.5856  1.4062 -1.7408
 1733SOL     OW17671   0.493   1.358   6.149  0.7255 -0.2282  0.4323
 1733SOL    HW117672   0.437   1.414   6.088  1.7491 -0.3287 -0.6123
 1733SOL    HW217673   0.479   1.388   6.244 -1.8228 -0.8915  0.2969
 1734SOL     OW17674   3.466   2.813   3.358 -0.3782  0.2391 -0.6170
 1734SOL    HW117675   3.404   2.748   3.401 -0.7812  2.0215  1.5544
 1734SOL    HW217676   3.549   2.822   3.414  1.4904 -1.3755 -2.9793
 1735SOL     OW17677   0.112   1.892   3.153  0.2335 -0.1129  0.0112
 1735SOL    HW117678   0.135   1.796   3.140  0.0922 -0.1723  0.2030
 1735SOL    HW217679   0.139   1.922   3.245  1.2564  0.3175 -0.4131
 1736SOL     OW17680   2.067   2.213   5.234  0.6763 -0.2638  0.8015
 1736SOL    HW117681   2.111   2.123   5.233  0.1561 -0.5165  0.2518
 1736SOL    HW217682   2.132   2.282   5.204  0.1897 -0.8878 -1.8298
 1737SOL     OW17683   1.134   4.719   6.047 -0.4004 -0.3099  0.2516
 1737SOL    HW117684   1.059   4.782   6.070 -0.1212  0.5114 -1.0742
 1737SOL    HW217685   1.118   4.679   5.957  1.8344  1.5578 -1.0402
 1738SOL     OW17686   8.965   0.052   0.207  0.2028  0.0558  0.0085
 1738SOL    HW117687   8.930  -0.036   0.177  0.5524 -0.1753  0.2830
 1738SOL    HW217688   8.967   0.115   0.129  0.5125 -0.3536 -0.3151
 1739SOL     OW17689   2.372   4.601   8.697  0.3782  0.0526 -0.5297
 1739SOL    HW117690   2.375   4.595   8.597  0.1221  0.8103 -0.5828
 1739SOL    HW217691   2.309   4.531   8.732 -0.3074  0.4439 -0.9648
 1740SOL     OW17692   8.042   1.782   6.595  0.2808 -0.7566  0.4018
 1740SOL    HW117693   8.090   1.695   6.596  0.5078 -0.6311  0.3458
 1740SOL    HW217694   8.063   1.833   6.679  1.6735  0.0782 -0.4255
 1741SOL     OW17695   6.751   1.527   7.591  0.2272 -0.1969  0.3697
 1741SOL    HW117696   6.717   1.580   7.513  1.3593 -0.4806 -0.3313
 1741SOL    HW217697   6.810   1.585   7.647  0.8111 -0.4823  0.0517
 1742SOL     OW17698   4.297   0.778   6.689 -0.6088 -0.8512 -0.1098
 1742SOL    HW117699   4.356   0.814   6.761  1.4563  0.4607 -2.3795
 1742SOL    HW217700   4.267   0.686   6.713  1.5317 -1.1586  1.5714
 1743SOL     OW17701   4.254   0.363   7.403 -0.5334  0.1496  0.0989
 1743SOL    HW117702   4.335   0.341   7.349 -0.6799 -1.0348  0.3465
 1743SOL    HW217703   4.191   0.419   7.348 -0.0084  0.2162 -0.4357
 1744SOL     OW17704   3.341   6.080   6.368  0.4086 -0.2363 -0.2324
 1744SOL    HW117705   3.259   6.082   6.311  0.4520  1.1114 -0.2581
 1744SOL    HW217706   3.326   6.019   6.446 -0.6419  0.0648 -0.1909
 1745SOL     OW17707   0.969   7.524   7.297 -0.2373  0.2734 -0.3665
 1745SOL    HW117708   0.897   7.563   7.355  0.0239 -0.4205  0.4336
 1745SOL    HW217709   1.048   7.585   7.298  0.7660 -1.0191  2.1617
 1746SOL     OW17710   3.466   2.418   4.948 -0.4057 -0.3600  0.1497
 1746SOL    HW117711   3.438   2.468   5.029  1.6107  0.3978  0.4241
 1746SOL    HW217712   3.390   2.413   4.883 -1.5454  0.4037  1.4150
 1747SOL     OW17713   4.255   2.556   1.515  0.2580 -0.9594  0.6649
 1747SOL    HW117714   4.205   2.512   1.440  0.2122 -1.0354  0.7395
 1747SOL    HW217715   4.345   2.586   1.482  0.1821 -0.8628  0.5425
 1748SOL     OW17716   2.064   1.442   8.433 -0.0344  0.3455  0.2078
 1748SOL    HW117717   1.984   1.393   8.470 -0.7832  0.4591 -1.2360
 1748SOL    HW217718   2.142   1.380   8.431 -0.2454  0.0386  1.0148
 1749SOL     OW17719   6.907   7.673   8.223  0.1791  0.0545 -0.1859
 1749SOL    HW117720   6.941   7.580   8.230 -0.2791 -0.1185 -0.2710
 1749SOL    HW217721   6.905   7.714   8.314  0.0842 -0.1248 -0.1068
 1750SOL     OW17722   8.400   6.044   3.031  0.0108  0.2129 -0.5630
 1750SOL    HW117723   8.300   6.047   3.042  0.1497  1.1167  0.5982
 1750SOL    HW217724   8.435   6.137   3.021  0.8689 -0.0020  0.3496
 1751SOL     OW17725   2.201   2.843   4.888  0.1305 -0.3250 -0.8526
 1751SOL    HW117726   2.291   2.823   4.850 -1.0398 -1.4124 -3.1146
 1751SOL    HW217727   2.165   2.761   4.932  0.0803  0.0289 -0.2156
 1752SOL     OW17728   7.742   7.104   8.335 -0.0596  0.3022  0.3729
 1752SOL    HW117729   7.782   7.154   8.412 -0.2191 -1.5328  1.7006
 1752SOL    HW217730   7.775   7.009   8.336  0.4089  0.4076 -2.2090
 1753SOL     OW17731   8.974   4.251   8.686 -0.4691  0.3080  0.5191
 1753SOL    HW117732   8.976   4.318   8.760  4.1104 -0.1534  0.9267
 1753SOL    HW217733   8.951   4.161   8.723  0.2153  0.3860  1.1444
 1754SOL     OW17734   2.872   3.374   5.077  0.2873  0.2041  0.0299
 1754SOL    HW117735   2.875   3.292   5.135  0.0722  0.3917  0.3072
 1754SOL    HW217736   2.886   3.455   5.133 -1.1953  0.4801  0.0357
 1755SOL     OW17737   1.422   8.688   6.544  0.3093 -0.2291  0.1683
 1755SOL    HW117738   1.448   8.595   6.573 -0.9367 -0.0779  1.8218
 1755SOL    HW217739   1.392   8.740   6.624  0.6568  1.4999 -0.8149
 1756SOL     OW17740   5.207   3.192   0.724 -0.2248  0.1433 -0.1606
 1756SOL    HW117741   5.204   3.261   0.652 -0.8427 -1.9006 -2.1328
 1756SOL    HW217742   5.270   3.119   0.699  1.1503  0.4188  2.3379
 1757SOL     OW17743   0.235   6.522   3.210  0.1202  0.3197 -0.2837
 1757SOL    HW117744   0.256   6.484   3.120  0.6483  0.2162 -0.1153
 1757SOL    HW217745   0.207   6.449   3.272  0.7388  0.2634 -0.0754
 1758SOL     OW17746   4.596   7.478   2.068  0.0099 -0.0888  0.3066
 1758SOL    HW117747   4.531   7.555   2.063  0.1411  0.0744  1.1014
 1758SOL    HW217748   4.562   7.403   2.011 -1.6259 -0.5483  1.8266
 1759SOL     OW17749   1.957   0.823   5.206 -0.1981  0.3567  0.4302
 1759SOL    HW117750   2.019   0.745   5.213  0.0296  0.1276 -3.0107
 1759SOL    HW217751   1.865   0.791   5.184 -0.5044  0.9671  0.8158
 1760SOL     OW17752   5.863   5.182   3.228 -0.0861  0.0398  0.8221
 1760SOL    HW117753   5.801   5.187   3.307 -1.0778  1.3082 -0.0163
 1760SOL    HW217754   5.809   5.168   3.145  0.6689  2.0971 -0.0343
 1761SOL     OW17755   5.745   6.582   5.378 -0.0730  0.1588 -0.2974
 1761SOL    HW117756   5.840   6.598   5.352 -0.0692 -0.9280 -0.9828
 1761SOL    HW217757   5.725   6.631   5.463  1.4554 -0.5627  0.5066
 1762SOL     OW17758   5.864   6.703   7.142  0.1265  0.0960 -0.0413
 1762SOL    HW117759   5.809   6.783   7.120 -1.1432 -1.0130 -1.0173
 1762SOL    HW217760   5.815   6.645   7.206  0.4773 -0.5422 -0.3432
 1763SOL     OW17761   4.763   7.630   4.470  0.4715 -0.3497  0.0458
 1763SOL    HW117762   4.819   7.668   4.397  0.2215  1.3999  0.7468
 1763SOL    HW217763   4.668   7.661   4.460 -0.3151 -2.9464 -0.8912
 1764SOL     OW17764   8.554   7.965   0.319 -0.0208 -0.3897  0.4231
 1764SOL    HW117765   8.563   8.062   0.293 -1.3540  0.0214  1.4180
 1764SOL    HW217766   8.457   7.942   0.326  0.2913 -1.2509  2.1472
 1765SOL     OW17767   1.686   3.801   1.206 -0.4258  0.3692 -0.0746
 1765SOL    HW117768   1.749   3.871   1.173 -0.5113  0.2348 -0.5236
 1765SOL    HW217769   1.729   3.749   1.280  0.3579 -0.3637 -1.0366
 1766SOL     OW17770   8.302   4.319   5.664 -0.3396 -0.2808  0.6015
 1766SOL    HW117771   8.204   4.311   5.646 -0.2435 -0.6846  0.2567
 1766SOL    HW217772   8.345   4.229   5.657  0.1720  0.0035  0.0553
 1767SOL     OW17773   0.026   2.476   4.001 -0.4708  0.4563 -0.0489
 1767SOL    HW117774  -0.044   2.411   4.027  1.1362 -0.9395  0.9176
 1767SOL    HW217775  -0.006   2.531   3.924 -1.6598 -1.8288 -1.2388
 1768SOL     OW17776   2.787   4.930   8.287 -0.1035 -0.1962 -0.0164
 1768SOL    HW117777   2.830   5.018   8.269  0.7825 -0.0821  2.4057
 1768SOL    HW217778   2.851   4.856   8.264  0.0471 -0.1252  0.1718
 1769SOL     OW17779   4.922   0.709   6.505 -0.2082  0.1996 -0.0184
 1769SOL    HW117780   4.861   0.788   6.510  0.6339  0.8090  0.7584
 1769SOL    HW217781   4.877   0.630   6.547 -1.0064  0.2907 -0.6893
 1770SOL     OW17782   8.904   7.597   4.474  0.2538  0.1743  0.5699
 1770SOL    HW117783   8.935   7.580   4.380  0.5671 -0.2019  0.7385
 1770SOL    HW217784   8.977   7.642   4.525  0.9395 -1.6953  1.2755
 1771SOL     OW17785   5.414   0.688   6.952 -0.3548  0.0331 -0.6695
 1771SOL    HW117786   5.323   0.649   6.963 -0.8037  1.3753  0.4203
 1771SOL    HW217787   5.444   0.729   7.038  1.7810 -1.4502 -0.6728
 1772SOL     OW17788   0.555   7.065   7.051 -0.1127  0.7227 -0.0179
 1772SOL    HW117789   0.503   7.150   7.051  1.0366  1.4606  1.1634
 1772SOL    HW217790   0.645   7.081   7.010 -0.9799 -0.6595 -2.5275
 1773SOL     OW17791   7.054   5.871   8.197 -0.1008  0.0052 -0.4184
 1773SOL    HW117792   7.041   5.966   8.172 -0.6846  0.0629  0.0767
 1773SOL    HW217793   7.147   5.842   8.174  0.5017  1.0633  0.6058
 1774SOL     OW17794   6.512   0.229   6.627 -0.4159  0.6271  0.3645
 1774SOL    HW117795   6.583   0.295   6.649 -1.5794  1.0193  3.1069
 1774SOL    HW217796   6.445   0.271   6.565 -0.0356  1.3570  0.4469
 1775SOL     OW17797   2.788   6.459   0.615 -0.0533 -0.0199  0.1495
 1775SOL    HW117798   2.861   6.497   0.557  0.9775 -1.1202  0.7109
 1775SOL    HW217799   2.711   6.523   0.617  0.6143  0.8481 -1.0009
 1776SOL     OW17800   2.023   5.661   8.471 -0.3539  0.0594 -0.0255
 1776SOL    HW117801   2.122   5.657   8.483 -0.1985 -0.5866 -1.4279
 1776SOL    HW217802   1.981   5.582   8.516 -0.1377 -0.2681 -0.4053
 1777SOL     OW17803   2.815   7.227   0.157  0.6593 -0.1142 -0.3368
 1777SOL    HW117804   2.839   7.319   0.187 -0.4967  0.6676 -1.7160
 1777SOL    HW217805   2.734   7.231   0.098  0.5473 -2.0244 -0.3680
 1778SOL     OW17806   3.407   6.156   8.169 -0.2579 -0.0172  0.1908
 1778SOL    HW117807   3.453   6.239   8.203 -1.5068  1.2676 -1.2052
 1778SOL    HW217808   3.465   6.077   8.188  1.6857  1.3449  0.1914
 1779SOL     OW17809   3.051   2.172   7.201 -0.3885  0.0789 -0.2052
 1779SOL    HW117810   3.099   2.249   7.243 -0.0551  0.9422 -2.1125
 1779SOL    HW217811   2.984   2.207   7.135 -0.7759 -1.2426 -0.5209
 1780SOL     OW17812   4.963   4.642   8.736 -0.5250 -0.6206 -0.1121
 1780SOL    HW117813   4.998   4.550   8.720 -1.9035 -0.9867 -1.0471
 1780SOL    HW217814   4.893   4.664   8.668 -0.6116  0.9041  0.4489
 1781SOL     OW17815   8.056   6.861   8.118  0.1245 -0.2520 -0.6456
 1781SOL    HW117816   8.091   6.944   8.076 -0.6643  0.2830 -0.2456
 1781SOL    HW217817   7.989   6.884   8.188  1.2306 -1.1487  0.7381
 1782SOL     OW17818   4.740   6.281   2.538 -0.2117  0.1608 -0.3676
 1782SOL    HW117819   4.742   6.220   2.617 -4.4421  0.8541  0.4002
 1782SOL    HW217820   4.738   6.227   2.454  0.0581 -0.6537  0.1454
 1783SOL     OW17821   1.150   1.363   4.253  0.2352 -0.4749 -0.0147
 1783SOL    HW117822   1.110   1.451   4.275 -2.4450 -1.6064 -0.1186
 1783SOL    HW217823   1.222   1.341   4.319 -0.8903  0.6065  1.6094
 1784SOL     OW17824   4.374   8.967   7.037 -0.2401 -0.0682 -0.0624
 1784SOL    HW117825   4.372   9.067   7.028  0.1042 -0.0871 -0.3546
 1784SOL    HW217826   4.441   8.942   7.107 -0.2893 -0.0981 -0.0261
 1785SOL     OW17827   4.915   6.309   6.161 -0.2146  0.2057  0.4215
 1785SOL    HW117828   4.849   6.378   6.189 -0.3691 -0.0142  0.5972
 1785SOL    HW217829   5.000   6.321   6.212  0.1004  0.8754 -0.2399
 1786SOL     OW17830   1.759   6.021   4.346  0.2515 -0.6088 -0.4954
 1786SOL    HW117831   1.717   6.112   4.349  1.0182 -0.3000  1.9642
 1786SOL    HW217832   1.737   5.972   4.430  2.2428 -1.6077 -0.5351
 1787SOL     OW17833   5.637   7.960   5.792 -0.3897 -0.6282  0.3638
 1787SOL    HW117834   5.568   7.915   5.849 -1.3921  0.3987 -0.0364
 1787SOL    HW217835   5.682   7.891   5.735 -1.4113 -1.2428  0.2781
 1788SOL     OW17836   7.621   3.911   6.235 -0.5986 -1.0033 -0.4052
 1788SOL    HW117837   7.623   4.010   6.221 -0.8773 -0.8317  0.7054
 1788SOL    HW217838   7.644   3.865   6.150 -2.6204 -0.0188 -1.5141
 1789SOL     OW17839   3.814   5.869   4.671 -0.7398 -0.1648 -0.1561
 1789SOL    HW117840   3.790   5.930   4.595 -0.5643 -1.0282 -0.9047
 1789SOL    HW217841   3.776   5.778   4.654 -0.3415 -0.4724  0.5867
 1790SOL     OW17842   8.592   1.565   4.178  0.2787 -0.3930  0.6047
 1790SOL    HW117843   8.646   1.492   4.218 -1.7574 -1.5475  1.3466
 1790SOL    HW217844   8.497   1.558   4.210 -0.1609  2.0321 -0.0170
 1791SOL     OW17845   4.958   5.583   2.508  0.3902  0.2301 -0.5100
 1791SOL    HW117846   5.053   5.598   2.482  0.4929 -2.3037 -1.6846
 1791SOL    HW217847   4.953   5.519   2.584 -0.4485 -0.9938 -1.5851
 1792SOL     OW17848   7.653   1.087   6.651 -0.6031 -0.1162  0.2538
 1792SOL    HW117849   7.608   1.175   6.666 -2.0675 -0.8413  0.2013
 1792SOL    HW217850   7.586   1.021   6.616  0.4105 -1.3426  0.6009
 1793SOL     OW17851   0.940   0.430   8.195 -0.1546  0.4551  0.0143
 1793SOL    HW117852   0.885   0.512   8.214 -0.4381  0.3158 -0.2036
 1793SOL    HW217853   0.974   0.393   8.281 -0.7528  0.3038  0.1919
 1794SOL     OW17854   7.979   5.476   0.374  0.1517  0.3584  0.0221
 1794SOL    HW117855   7.989   5.518   0.284 -0.3658 -0.6736 -0.5291
 1794SOL    HW217856   8.062   5.426   0.397  0.3533  0.7749  0.1970
 1795SOL     OW17857   4.192   7.386   5.247 -0.5513 -0.8447 -0.3564
 1795SOL    HW117858   4.283   7.364   5.282 -0.6842  0.1851  0.6950
 1795SOL    HW217859   4.199   7.457   5.177 -0.5869 -0.3112  0.1734
 1796SOL     OW17860   3.661   7.230   4.723 -0.0660  0.2377 -0.1589
 1796SOL    HW117861   3.643   7.327   4.732  1.8653  0.6925 -0.8667
 1796SOL    HW217862   3.580   7.183   4.688 -1.6979  1.2302  2.1340
 1797SOL     OW17863   0.907   4.296   4.081 -0.3177  0.4831 -0.6844
 1797SOL    HW117864   0.947   4.251   4.160 -0.9767  1.7836  0.4043
 1797SOL    HW217865   0.876   4.227   4.016  0.7534 -0.5791 -0.0809
 1798SOL     OW17866   7.639   6.695   3.294  0.0751 -0.5971  0.4748
 1798SOL    HW117867   7.617   6.784   3.254  0.1138 -0.6963  0.2282
 1798SOL    HW217868   7.614   6.623   3.230  0.9171 -0.7211  0.2723
 1799SOL     OW17869   2.595   6.229   2.632 -0.0630 -0.2068 -0.1118
 1799SOL    HW117870   2.540   6.150   2.658  0.2885 -1.0744 -1.8856
 1799SOL    HW217871   2.554   6.273   2.552  1.6160 -0.6807 -1.2702
 1800SOL     OW17872   8.226   8.887   7.782  0.2592  0.6321  0.0326
 1800SOL    HW117873   8.288   8.823   7.828 -0.1005  0.1769 -0.1024
 1800SOL    HW217874   8.160   8.922   7.849 -1.3311 -1.3299 -0.4577
 1801SOL     OW17875   4.556   1.622   7.854  0.1256 -0.5414 -0.2643
 1801SOL    HW117876   4.605   1.535   7.865 -0.0193 -0.5176  0.5942
 1801SOL    HW217877   4.616   1.698   7.880 -0.7104 -0.5844  1.8805
 1802SOL     OW17878   0.124   0.908   3.859  0.7474 -0.0999 -0.1207
 1802SOL    HW117879   0.201   0.955   3.817  1.5514 -0.1089  1.3153
 1802SOL    HW217880   0.087   0.840   3.796  1.7027  0.1254 -0.9276
 1803SOL     OW17881   5.999   4.385   4.145  0.0513  0.1078 -0.4322
 1803SOL    HW117882   6.040   4.355   4.059 -0.3584 -0.7542 -0.3360
 1803SOL    HW217883   6.018   4.481   4.159 -0.7445  0.5252 -2.0110
 1804SOL     OW17884   2.722   8.113   2.681 -0.0573  0.0018 -0.0919
 1804SOL    HW117885   2.664   8.057   2.622 -0.5159 -1.2181  1.4855
 1804SOL    HW217886   2.811   8.126   2.638 -0.4608 -0.6734 -1.1470
 1805SOL     OW17887   8.121   0.463   4.794 -0.3029  0.0195  0.6649
 1805SOL    HW117888   8.055   0.437   4.864  0.4740  0.8790  1.7278
 1805SOL    HW217889   8.075   0.512   4.720 -1.3484 -2.0667 -0.0915
 1806SOL     OW17890   0.793   5.839   1.065 -0.5959  0.1663 -0.1866
 1806SOL    HW117891   0.733   5.909   1.104 -0.0005 -0.1362  1.3065
 1806SOL    HW217892   0.772   5.827   0.968 -2.0851  0.9642  0.0249
 1807SOL     OW17893   5.104   5.983   0.923 -0.2446 -0.2180  0.1085
 1807SOL    HW117894   5.144   5.891   0.930 -0.8702 -0.5534 -0.6677
 1807SOL    HW217895   5.139   6.040   0.997  0.4639 -0.9666  0.3593
 1808SOL     OW17896   1.654   4.059   0.917  0.7773  0.0251 -0.4436
 1808SOL    HW117897   1.722   4.027   0.984 -0.2597 -0.7767  0.2607
 1808SOL    HW217898   1.567   4.075   0.964  0.3613  0.6194 -1.4074
 1809SOL     OW17899   8.664   0.319   6.471  0.1006 -0.2217 -0.2504
 1809SOL    HW117900   8.752   0.364   6.453 -0.7197  1.0997 -1.0389
 1809SOL    HW217901   8.668   0.273   6.559  1.7365 -0.5442 -0.4826
 1810SOL     OW17902   6.569   8.057   2.724 -0.1595  0.1883  0.7478
 1810SOL    HW117903   6.522   8.140   2.694  0.7041  0.7665  0.9962
 1810SOL    HW217904   6.569   7.990   2.650 -0.1754  0.6922  0.2901
 1811SOL     OW17905   8.992   2.639   4.481  0.4245  0.1127  0.5308
 1811SOL    HW117906   8.914   2.579   4.499 -0.5494  1.3006  0.3374
 1811SOL    HW217907   9.016   2.635   4.384  0.5272 -0.1449  0.5651
 1812SOL     OW17908   2.776   2.330   5.155  0.1173  0.1690 -0.1357
 1812SOL    HW117909   2.803   2.426   5.156 -2.0943  0.8193 -0.5844
 1812SOL    HW217910   2.791   2.290   5.245  0.4958  1.0864  0.2171
 1813SOL     OW17911   8.664   8.315   6.220  0.3766 -0.5463 -0.0280
 1813SOL    HW117912   8.665   8.414   6.226  2.0857 -0.6401  1.5972
 1813SOL    HW217913   8.709   8.286   6.135  2.0636  0.0056  0.6707
 1814SOL     OW17914   3.902   3.294   7.349 -0.0918  0.4831 -0.0120
 1814SOL    HW117915   3.854   3.242   7.279  0.1308  1.1861 -0.6882
 1814SOL    HW217916   3.876   3.260   7.439 -0.6573 -0.1809 -0.4197
 1815SOL     OW17917   6.911   5.470   5.977  0.1436 -0.2981 -0.2092
 1815SOL    HW117918   6.978   5.515   6.036 -1.9992  3.0516 -0.2349
 1815SOL    HW217919   6.859   5.403   6.030  0.2317  0.5752  0.9937
 1816SOL     OW17920   3.710   2.351   3.817  0.4042  0.4919  0.3268
 1816SOL    HW117921   3.644   2.410   3.770 -2.3920 -0.7025  2.5769
 1816SOL    HW217922   3.702   2.258   3.781 -0.5723 -0.0717  1.9578
 1817SOL     OW17923   1.072   0.574   7.088  0.0318 -0.2567  0.1068
 1817SOL    HW117924   1.084   0.573   7.187 -1.0504  0.9104  0.2608
 1817SOL    HW217925   0.978   0.550   7.065  1.2711 -4.6154 -0.8612
 1818SOL     OW17926   7.069   8.387   3.313 -0.0696  0.3273 -0.4320
 1818SOL    HW117927   6.972   8.379   3.335  0.3236 -0.5817  1.1030
 1818SOL    HW217928   7.104   8.298   3.283  0.1379  0.8115 -1.6365
 1819SOL     OW17929   2.054   3.562   7.360 -0.5403  0.3558  0.4422
 1819SOL    HW117930   2.078   3.654   7.329 -1.8709  0.7678  0.5646
 1819SOL    HW217931   1.959   3.542   7.333 -1.1908  0.0916  2.8006
 1820SOL     OW17932   3.654   5.936   3.797  0.8745 -1.0166  0.1479
 1820SOL    HW117933   3.661   6.022   3.847 -1.3938 -0.2279 -0.8087
 1820SOL    HW217934   3.735   5.924   3.740 -0.0806  2.0238 -2.0133
 1821SOL     OW17935   2.166   3.028   6.803 -0.6917  0.0976  0.1225
 1821SOL    HW117936   2.229   2.952   6.787 -1.1281 -0.4784  1.1286
 1821SOL    HW217937   2.207   3.092   6.868 -1.0833 -0.2124  0.6805
 1822SOL     OW17938   1.625   0.697   0.940  0.0106 -0.4574 -0.3243
 1822SOL    HW117939   1.597   0.771   0.879  0.3675 -0.2742 -0.2723
 1822SOL    HW217940   1.714   0.720   0.981 -0.9857  0.1967  1.5460
 1823SOL     OW17941   0.560   7.890   7.974  0.0970 -0.2887  0.2276
 1823SOL    HW117942   0.475   7.939   7.995 -0.7000 -0.9305 -1.4422
 1823SOL    HW217943   0.539   7.797   7.946  1.3467 -0.3647 -0.4757
 1824SOL     OW17944   0.521   0.485   8.427  0.3920 -0.3387  0.0477
 1824SOL    HW117945   0.533   0.433   8.342  1.4310 -0.8105  0.4703
 1824SOL    HW217946   0.569   0.438   8.501 -0.6621 -0.0247  0.9351
 1825SOL     OW17947   2.491   0.464   0.773 -0.1992  0.4906 -0.3601
 1825SOL    HW117948   2.412   0.406   0.752 -0.4063 -0.6113  3.0092
 1825SOL    HW217949   2.549   0.473   0.692 -2.0829 -1.4234 -1.9808
 1826SOL     OW17950   8.656   8.929   1.773 -0.1459  0.0473 -0.0139
 1826SOL    HW117951   8.701   9.018   1.778 -1.8395  0.8959  0.5113
 1826SOL    HW217952   8.619   8.905   1.863  1.2577 -1.7129  0.1213
 1827SOL     OW17953   6.982   2.674   5.660 -0.0133 -0.9009 -0.5508
 1827SOL    HW117954   6.975   2.657   5.758 -1.0402  3.7035  0.2855
 1827SOL    HW217955   6.891   2.678   5.619  0.2758  0.0562 -1.1298
 1828SOL     OW17956   4.723   0.199   6.054  0.0277  0.1701  0.0301
 1828SOL    HW117957   4.694   0.233   5.965 -2.2125  1.2084  1.1100
 1828SOL    HW217958   4.762   0.107   6.044 -1.9244 -0.5042 -1.7843
 1829SOL     OW17959   1.973   6.140   7.583 -0.5658  0.2407 -0.4388
 1829SOL    HW117960   1.899   6.074   7.573 -1.1950  0.5743  1.7916
 1829SOL    HW217961   1.936   6.233   7.572 -0.2603  0.3522 -0.5160
 1830SOL     OW17962   4.029   0.517   3.568 -0.2202 -0.4124 -0.3902
 1830SOL    HW117963   3.950   0.466   3.601  0.3556 -1.1423 -0.1316
 1830SOL    HW217964   4.035   0.508   3.468 -0.8275  0.1691 -0.4804
 1831SOL     OW17965   3.951   6.533   2.756 -0.3333  0.4422  0.7468
 1831SOL    HW117966   3.914   6.620   2.726  1.4870  1.5385  1.5604
 1831SOL    HW217967   4.033   6.549   2.811 -0.5046 -1.7421  1.7036
 1832SOL     OW17968   3.879   4.095   3.519 -0.1525  0.6512  0.8082
 1832SOL    HW117969   3.936   4.058   3.446  0.0303 -0.7525  1.6569
 1832SOL    HW217970   3.883   4.195   3.517  1.0340  0.5923 -0.1540
 1833SOL     OW17971   4.713   4.362   3.273  0.4861  0.5702  0.1361
 1833SOL    HW117972   4.788   4.320   3.323 -0.8342 -0.2310  1.4919
 1833SOL    HW217973   4.726   4.349   3.174  3.1224  2.1632  0.2353
 1834SOL     OW17974   7.058   7.447   8.792  0.0143  0.2777 -0.0774
 1834SOL    HW117975   7.030   7.534   8.833 -0.4843  0.3404 -0.5561
 1834SOL    HW217976   7.084   7.383   8.865  0.2418  0.7726  0.2843
 1835SOL     OW17977   3.854   6.736   8.085  0.4921  0.0981 -0.4976
 1835SOL    HW117978   3.908   6.795   8.026  0.3021 -0.9253 -1.7141
 1835SOL    HW217979   3.759   6.769   8.087  0.2848 -0.4170 -1.5384
 1836SOL     OW17980   5.478   6.659   6.418  0.1133  0.4443  0.2412
 1836SOL    HW117981   5.453   6.741   6.366 -0.5125  0.8191  1.1217
 1836SOL    HW217982   5.542   6.604   6.365  0.8180  1.6856 -0.2128
 1837SOL     OW17983   6.471   6.196   4.518 -0.3544  0.5580  0.1123
 1837SOL    HW117984   6.478   6.279   4.575  0.3856  1.9338 -1.9259
 1837SOL    HW217985   6.464   6.116   4.577 -0.3598  2.0148  2.1419
 1838SOL     OW17986   7.024   8.534   1.597 -0.6444 -0.3328  0.0725
 1838SOL    HW117987   7.005   8.632   1.587 -0.3153 -0.2552  0.2053
 1838SOL    HW217988   7.122   8.521   1.615 -0.4467 -0.7796 -1.3142
 1839SOL     OW17989   4.580   8.532   0.327 -0.0716  0.4692 -0.5069
 1839SOL    HW117990   4.523   8.590   0.269 -1.8999 -0.5556  0.2275
 1839SOL    HW217991   4.567   8.558   0.423  0.5840  0.1379 -0.3284
 1840SOL     OW17992   3.815   1.659   7.296 -0.3605  0.3614  0.2496
 1840SOL    HW117993   3.868   1.698   7.371 -1.9626 -1.1962  2.2462
 1840SOL    HW217994   3.775   1.732   7.242  1.1245  1.5084  0.6804
 1841SOL     OW17995   7.159   3.989   0.112 -0.4623 -0.9091 -0.7150
 1841SOL    HW117996   7.074   4.041   0.105  0.4954  0.4680 -2.4041
 1841SOL    HW217997   7.236   4.049   0.095  0.8778 -2.1704  0.7250
 1842SOL     OW17998   6.446   6.022   8.889  0.5635 -0.5622 -0.3013
 1842SOL    HW117999   6.485   5.944   8.937  0.8627 -0.5883 -0.5837
 1842SOL    HW218000   6.346   6.015   8.888  0.5829 -0.8341 -0.1482
 1843SOL     OW18001   6.830   8.679   7.746  0.2455  0.2066 -0.0149
 1843SOL    HW118002   6.845   8.777   7.733 -1.9682  0.5983  0.1211
 1843SOL    HW218003   6.764   8.646   7.678 -0.6240 -0.7284  1.2486
 1844SOL     OW18004   5.639   6.221   2.747  0.3057  0.0349 -0.2324
 1844SOL    HW118005   5.654   6.284   2.823 -1.1332 -0.1320  0.1959
 1844SOL    HW218006   5.626   6.129   2.782  0.3272 -0.1572 -0.7288
 1845SOL     OW18007   2.630   6.337   1.200 -0.1921  0.4587  0.6704
 1845SOL    HW118008   2.720   6.334   1.243  1.0447 -1.3109 -1.9189
 1845SOL    HW218009   2.628   6.274   1.122 -2.4266  3.3938 -1.7417
 1846SOL     OW18010   6.879   5.377   4.535 -0.3718  0.8614  0.2257
 1846SOL    HW118011   6.881   5.476   4.541  0.4162  0.7781  1.6905
 1846SOL    HW218012   6.968   5.340   4.563 -0.2041 -0.2019 -1.6468
 1847SOL     OW18013   7.748   6.097   5.779  0.2283 -0.3662 -0.3380
 1847SOL    HW118014   7.798   6.181   5.756  0.4388 -0.5461 -0.5479
 1847SOL    HW218015   7.683   6.077   5.706 -0.6672  0.2620  0.2801
 1848SOL     OW18016   7.472   6.031   0.075 -0.3657 -0.7661 -0.6680
 1848SOL    HW118017   7.516   6.101   0.131 -2.3905 -0.8352  1.0813
 1848SOL    HW218018   7.465   5.946   0.128 -1.6057 -1.0611 -1.2888
 1849SOL     OW18019   6.668   3.052   1.356  0.2603  0.1330 -0.3939
 1849SOL    HW118020   6.756   3.004   1.353  0.8977  1.3110 -0.7731
 1849SOL    HW218021   6.658   3.109   1.275  0.0334  1.5501  0.6055
 1850SOL     OW18022   0.650   5.255   8.587 -0.4353 -0.4043 -0.5137
 1850SOL    HW118023   0.673   5.220   8.677 -0.7894 -0.2016 -0.3423
 1850SOL    HW218024   0.570   5.206   8.551  0.4342 -1.3140 -1.2339
 1851SOL     OW18025   8.040   2.433   1.192  0.0949 -0.5685  0.3834
 1851SOL    HW118026   7.997   2.388   1.270  1.3533  1.2498  2.2084
 1851SOL    HW218027   8.132   2.396   1.178  0.5925  0.3777  1.0035
 1852SOL     OW18028   1.631   2.618   4.184  0.3031 -0.2429 -0.1353
 1852SOL    HW118029   1.699   2.683   4.149 -0.0468  0.7641  1.0014
 1852SOL    HW218030   1.547   2.627   4.132  0.0522  0.6730  0.4110
 1853SOL     OW18031   6.104   8.589   8.734  0.0124  0.4326  0.3309
 1853SOL    HW118032   6.028   8.632   8.684  1.1119  0.2423 -1.5708
 1853SOL    HW218033   6.179   8.655   8.743  1.7192 -0.9684 -2.6255
 1854SOL     OW18034   1.923   8.835   5.209  0.7280  0.4410 -0.1352
 1854SOL    HW118035   1.986   8.758   5.215 -0.1251 -0.3120 -0.7865
 1854SOL    HW218036   1.938   8.884   5.123  0.0787 -0.0466 -0.5303
 1855SOL     OW18037   3.065   3.011   3.068  0.3629  0.1215  0.5940
 1855SOL    HW118038   3.084   3.108   3.084  1.2371 -0.0441  0.5479
 1855SOL    HW218039   3.150   2.960   3.061 -0.0955 -0.7025  0.8822
 1856SOL     OW18040   7.795   2.844   6.926 -0.0686  0.1424 -0.0649
 1856SOL    HW118041   7.732   2.766   6.922  0.0265  0.0109  0.8621
 1856SOL    HW218042   7.871   2.829   6.863 -0.0752 -0.4961  0.0721
 1857SOL     OW18043   0.799   1.446   8.295  0.2283 -0.1604  0.3902
 1857SOL    HW118044   0.833   1.489   8.378  2.6046 -1.6111  0.2197
 1857SOL    HW218045   0.837   1.492   8.215  0.0815 -0.4531  0.1506
 1858SOL     OW18046   4.575   7.221   0.763  0.6648 -0.0231  0.1414
 1858SOL    HW118047   4.612   7.280   0.835  2.9501 -1.2037 -0.0325
 1858SOL    HW218048   4.551   7.132   0.803  0.3535 -0.1068 -0.2346
 1859SOL     OW18049   2.200   6.889   8.820 -0.4227  0.3179  0.2004
 1859SOL    HW118050   2.265   6.818   8.797 -0.6748  0.2037 -0.1615
 1859SOL    HW218051   2.179   6.885   8.918  1.5658  1.5677  0.7048
 1860SOL     OW18052   2.244   5.121   5.145 -0.6168 -0.3897 -0.1617
 1860SOL    HW118053   2.293   5.147   5.229 -0.2881 -1.8058  0.0911
 1860SOL    HW218054   2.159   5.076   5.169 -0.2185 -1.3681 -0.5899
 1861SOL     OW18055   2.200   1.153   5.811  0.5736  0.0428  0.2244
 1861SOL    HW118056   2.225   1.067   5.856 -1.8479 -0.4656  0.6796
 1861SOL    HW218057   2.164   1.217   5.879  0.2891  0.6036 -0.4495
 1862SOL     OW18058   3.717   0.017   5.205  0.0593 -0.2522  0.8350
 1862SOL    HW118059   3.817   0.017   5.215  0.0296 -2.4451  1.2732
 1862SOL    HW218060   3.681  -0.071   5.233 -1.8824 -0.0136 -0.8273
 1863SOL     OW18061   8.609   3.059   0.163  0.1435  0.4134  0.0042
 1863SOL    HW118062   8.522   3.066   0.114  0.5461 -0.3194 -0.8209
 1863SOL    HW218063   8.684   3.086   0.103  0.6609 -0.7110  0.1390
 1864SOL     OW18064   3.388   8.483   6.588 -0.1998  0.2219  0.4592
 1864SOL    HW118065   3.301   8.462   6.544  0.6468  0.1176 -1.2002
 1864SOL    HW218066   3.445   8.402   6.589 -0.3266  0.1342  2.0818
 1865SOL     OW18067   6.958   5.759   0.116 -0.1554  0.9363  0.2076
 1865SOL    HW118068   6.957   5.851   0.079  0.4052  1.3716  1.2611
 1865SOL    HW218069   6.952   5.762   0.215  1.5326 -0.0946  0.3552
 1866SOL     OW18070   4.548   4.211   6.287 -0.3952 -0.1987 -0.1527
 1866SOL    HW118071   4.572   4.117   6.266 -0.7248  0.0073 -1.4996
 1866SOL    HW218072   4.627   4.259   6.325 -0.0384 -0.8254 -0.1133
 1867SOL     OW18073   5.329   3.353   5.755 -0.7619 -0.3586  0.3878
 1867SOL    HW118074   5.358   3.274   5.700 -2.2990 -0.8554  0.2522
 1867SOL    HW218075   5.346   3.334   5.852  3.5759  1.2217  0.0218
 1868SOL     OW18076   3.938   0.122   7.027  0.1383  0.5861 -0.2653
 1868SOL    HW118077   3.899   0.125   6.935  0.2095  1.1408 -0.2791
 1868SOL    HW218078   4.023   0.174   7.029  0.1906  0.4893  0.0870
 1869SOL     OW18079   2.119   8.421   5.266  0.0244 -0.2619  0.4333
 1869SOL    HW118080   2.071   8.460   5.188  2.6066  2.2073 -0.0212
 1869SOL    HW218081   2.176   8.344   5.236  1.0477  0.7119 -0.1675
 1870SOL     OW18082   8.832   7.275   6.158 -0.1055  0.6033 -0.0809
 1870SOL    HW118083   8.736   7.287   6.136 -0.7553  0.0732  2.3874
 1870SOL    HW218084   8.868   7.196   6.107 -0.4402  1.9706 -2.4938
 1871SOL     OW18085   6.697   4.310   4.176 -0.8959  0.1068 -0.1442
 1871SOL    HW118086   6.684   4.300   4.078 -1.0639  0.3436 -0.1449
 1871SOL    HW218087   6.683   4.405   4.203  1.4451  0.5086 -0.2498
 1872SOL     OW18088   3.399   0.673   5.960  0.1382 -0.1362 -0.1983
 1872SOL    HW118089   3.329   0.648   6.028 -0.1541 -0.4739 -0.6250
 1872SOL    HW218090   3.357   0.675   5.869  0.8524 -1.0598 -0.5524
 1873SOL     OW18091   2.401   1.607   3.647 -0.1991  0.6078 -0.3846
 1873SOL    HW118092   2.480   1.550   3.670  0.5811  1.2287 -1.5031
 1873SOL    HW218093   2.389   1.610   3.548 -2.8549 -1.1172 -0.1939
 1874SOL     OW18094   2.116   5.515   0.526  0.1489  0.7995  0.0093
 1874SOL    HW118095   2.123   5.606   0.567  0.6308  1.2073 -0.9537
 1874SOL    HW218096   2.070   5.522   0.437 -0.5622 -0.0189  0.3056
 1875SOL     OW18097   1.244   7.565   2.664 -0.2263  0.0309 -0.1026
 1875SOL    HW118098   1.289   7.511   2.593 -3.3392  1.2148 -3.1080
 1875SOL    HW218099   1.297   7.647   2.682  2.1424 -1.7176  1.1840
 1876SOL     OW18100   3.937   6.809   7.561  0.6407 -0.2096 -0.9671
 1876SOL    HW118101   3.970   6.881   7.499 -2.7815  0.7433 -1.8086
 1876SOL    HW218102   3.862   6.759   7.517  0.1141 -1.4718  1.2911
 1877SOL     OW18103   2.966   0.226   0.326 -0.0467 -0.1177  0.4563
 1877SOL    HW118104   3.058   0.261   0.342  0.2688 -0.0593 -1.3393
 1877SOL    HW218105   2.922   0.279   0.253 -1.1451 -0.7347  0.6594
 1878SOL     OW18106   3.765   2.905   1.672 -0.4347  0.0049  0.3537
 1878SOL    HW118107   3.831   2.936   1.604 -0.0998  0.6210  0.9546
 1878SOL    HW218108   3.812   2.886   1.758 -1.3195  2.4838  1.4296
 1879SOL     OW18109   3.284   8.624   8.469 -0.1886  0.3890 -0.3878
 1879SOL    HW118110   3.213   8.570   8.514  0.5658 -2.0991 -2.0932
 1879SOL    HW218111   3.259   8.721   8.472 -0.9107  0.1896  3.9565
 1880SOL     OW18112   1.441   4.315   4.840 -0.3956  0.4760 -0.4546
 1880SOL    HW118113   1.511   4.337   4.772  0.1750  0.5426  0.1510
 1880SOL    HW218114   1.440   4.386   4.910  2.2908 -1.9863  2.1963
 1881SOL     OW18115   7.287   5.392   5.747  0.3185  0.0169 -0.0824
 1881SOL    HW118116   7.361   5.384   5.814  0.2289  1.0590  0.1533
 1881SOL    HW218117   7.302   5.473   5.690  0.6124 -1.0920 -1.6104
 1882SOL     OW18118   1.191   4.677   0.606 -0.2460  0.3441  0.4898
 1882SOL    HW118119   1.269   4.634   0.561  0.0726  1.0923  0.3036
 1882SOL    HW218120   1.154   4.616   0.676  1.0266  0.3184  1.1530
 1883SOL     OW18121   8.008   6.642   6.376 -0.4721 -0.4290 -0.4516
 1883SOL    HW118122   7.912   6.652   6.403 -0.2041 -0.9151  0.6782
 1883SOL    HW218123   8.037   6.724   6.326 -1.9744 -1.0108 -2.3493
 1884SOL     OW18124   0.750   3.029   3.286 -0.1665  0.4576  0.2726
 1884SOL    HW118125   0.689   3.017   3.207 -2.9969 -0.7379  2.5548
 1884SOL    HW218126   0.766   2.940   3.329  0.6029  1.2195  1.5685
 1885SOL     OW18127   0.327   6.401   6.646  0.3339 -0.3186  0.5113
 1885SOL    HW118128   0.307   6.485   6.697  0.5275 -0.9848  1.6924
 1885SOL    HW218129   0.242   6.350   6.632  0.4599 -0.7091  1.1839
 1886SOL     OW18130   4.381   0.775   3.563  0.0998 -0.6868 -0.1711
 1886SOL    HW118131   4.287   0.758   3.593  0.0710 -0.5684 -0.1934
 1886SOL    HW218132   4.407   0.707   3.495  0.0940 -0.8304 -0.0283
 1887SOL     OW18133   8.650   5.131   8.725  0.3417 -0.2029  0.3131
 1887SOL    HW118134   8.606   5.108   8.638  0.2674 -1.0848  0.5820
 1887SOL    HW218135   8.600   5.206   8.768  1.9629  2.1325 -1.6853
 1888SOL     OW18136   3.376   6.067   2.861  0.2327 -0.3439 -0.0732
 1888SOL    HW118137   3.363   6.165   2.844  0.4295 -0.1503  0.8610
 1888SOL    HW218138   3.353   6.046   2.956 -1.6915 -1.5646 -0.7717
 1889SOL     OW18139   3.678   2.729   2.069 -0.1235 -0.3569  0.3230
 1889SOL    HW118140   3.682   2.796   2.144 -2.2583  1.5372 -1.1891
 1889SOL    HW218141   3.763   2.733   2.016 -0.2215  1.1609  0.2640
 1890SOL     OW18142   1.130   1.764   8.115 -0.4011 -0.5295  0.7401
 1890SOL    HW118143   1.162   1.819   8.038 -0.8495 -0.6047  0.4988
 1890SOL    HW218144   1.196   1.691   8.134 -0.3962 -0.6480  0.2796
 1891SOL     OW18145   3.546   4.657   3.921  0.2214 -0.3017 -0.4641
 1891SOL    HW118146   3.548   4.734   3.857 -0.5670  1.2256  1.3245
 1891SOL    HW218147   3.485   4.586   3.885  0.7106  0.0186 -1.9729
 1892SOL     OW18148   3.484   8.210   4.351 -0.2117  0.1427  0.4628
 1892SOL    HW118149   3.532   8.194   4.265 -0.6623 -0.1562  0.2651
 1892SOL    HW218150   3.511   8.298   4.389  0.8296 -0.2217  0.5814
 1893SOL     OW18151   3.531   5.634   6.979  0.2431 -0.4026  0.3404
 1893SOL    HW118152   3.553   5.728   6.952  2.2194 -1.1785 -0.9176
 1893SOL    HW218153   3.561   5.618   7.073 -0.7031  0.4077  0.7884
 1894SOL     OW18154   6.244   6.355   0.642 -0.3866  0.3254  0.5379
 1894SOL    HW118155   6.340   6.381   0.658 -0.4870  0.9936  0.1076
 1894SOL    HW218156   6.207   6.412   0.568 -0.9253 -0.3685  0.2723
 1895SOL     OW18157   0.338   3.534   4.421  0.1657 -0.4259 -0.0542
 1895SOL    HW118158   0.393   3.554   4.340  0.3028 -1.2643 -0.1700
 1895SOL    HW218159   0.331   3.435   4.433 -1.6040 -0.3285 -0.2274
 1896SOL     OW18160   6.633   7.704   6.722 -0.0891 -0.0533 -0.5005
 1896SOL    HW118161   6.570   7.777   6.746 -0.4879 -0.7269  0.5268
 1896SOL    HW218162   6.680   7.672   6.805  1.7022  0.5300 -1.2640
 1897SOL     OW18163   5.238   3.792   0.223 -0.6195 -0.3785 -0.0067
 1897SOL    HW118164   5.220   3.738   0.305 -0.3943  0.0666  0.3338
 1897SOL    HW218165   5.336   3.802   0.209 -0.6512 -0.6492 -0.4653
 1898SOL     OW18166   4.034   7.237   3.769 -0.6478  0.4203 -0.2799
 1898SOL    HW118167   4.017   7.139   3.759  0.7643 -0.0940  2.0217
 1898SOL    HW218168   4.116   7.262   3.718 -1.0215  0.4035 -0.8864
 1899SOL     OW18169   5.477   7.646   6.277 -0.3048  0.1560 -0.5269
 1899SOL    HW118170   5.385   7.667   6.310  0.2622 -0.1694  1.3385
 1899SOL    HW218171   5.505   7.556   6.313  0.5924  0.0863 -1.3891
 1900SOL     OW18172   4.232   0.359   1.733  0.0467 -0.3549 -1.2055
 1900SOL    HW118173   4.285   0.311   1.804  0.7981 -1.3758 -2.4347
 1900SOL    HW218174   4.245   0.457   1.744 -1.6960 -0.3562  1.4938
 1901SOL     OW18175   2.662   5.968   5.170 -0.0564 -0.0816 -0.2107
 1901SOL    HW118176   2.658   5.900   5.243 -0.3866 -0.6504 -0.7513
 1901SOL    HW218177   2.724   5.937   5.098  1.1628  1.0064  0.3515
 1902SOL     OW18178   1.539   1.063   0.105 -0.1755  0.4815 -0.2057
 1902SOL    HW118179   1.467   1.042   0.172 -0.5009 -0.3810 -0.8133
 1902SOL    HW218180   1.518   1.148   0.058 -1.0939 -0.0475 -0.7693
 1903SOL     OW18181   2.319   2.325   2.435 -0.7656 -0.9523 -0.3698
 1903SOL    HW118182   2.238   2.271   2.408 -0.5496 -1.3293 -0.2748
 1903SOL    HW218183   2.400   2.289   2.388 -1.0487  1.0753 -2.4902
 1904SOL     OW18184   7.996   2.111   3.545  0.7461 -0.2236  0.3709
 1904SOL    HW118185   7.979   2.107   3.644 -0.6505  2.4478  0.2772
 1904SOL    HW218186   7.918   2.073   3.496 -0.0856  1.5746  0.2457
 1905SOL     OW18187   7.664   4.306   6.870  0.2175 -0.0326  0.2311
 1905SOL    HW118188   7.747   4.340   6.917 -0.1261 -1.1929  1.7133
 1905SOL    HW218189   7.690   4.265   6.783  1.2059 -0.2613  0.6198
 1906SOL     OW18190   0.959   3.876   6.981 -0.0662 -0.1175 -0.2232
 1906SOL    HW118191   1.038   3.816   6.997 -0.0420  0.4562  2.0532
 1906SOL    HW218192   0.974   3.963   7.028 -1.1978  0.7352 -1.4146
 1907SOL     OW18193   5.474   1.795   3.189 -0.1704  0.0032 -0.6013
 1907SOL    HW118194   5.402   1.824   3.126 -0.4405 -1.0481 -0.7859
 1907SOL    HW218195   5.563   1.811   3.147 -0.3419 -0.2859 -1.0843
 1908SOL     OW18196   7.566   1.272   2.052  0.0675 -0.6125  0.0136
 1908SOL    HW118197   7.627   1.284   1.974  3.5388 -1.8832  2.3810
 1908SOL    HW218198   7.524   1.181   2.048 -1.5902  0.2138 -1.5635
 1909SOL     OW18199   6.047   5.840   0.207 -0.0910 -0.3525 -0.1330
 1909SOL    HW118200   6.103   5.921   0.224  0.5548 -1.3984  3.0189
 1909SOL    HW218201   6.098   5.758   0.233 -1.6805 -1.5981 -0.8522
 1910SOL     OW18202   1.754   6.292   3.623 -0.3560 -0.4525  0.1856
 1910SOL    HW118203   1.785   6.226   3.554  3.3707  0.2756  1.0785
 1910SOL    HW218204   1.734   6.379   3.578  2.5615  0.1781  0.0201
 1911SOL     OW18205   8.975   5.383   3.834 -0.7673  0.6570  0.2396
 1911SOL    HW118206   9.027   5.400   3.918  0.9989  0.3899 -0.7643
 1911SOL    HW218207   8.986   5.460   3.772  1.1800 -0.8066 -1.3148
 1912SOL     OW18208   6.908   6.857   6.970 -0.0190 -0.6539  0.0034
 1912SOL    HW118209   6.932   6.952   6.949 -0.9045 -0.2103  0.9347
 1912SOL    HW218210   6.862   6.817   6.891  1.6457 -0.7752 -0.9252
 1913SOL     OW18211   0.392   2.754   3.764 -0.5389 -0.6437  0.3561
 1913SOL    HW118212   0.408   2.829   3.700  0.1012 -1.0355  0.0494
 1913SOL    HW218213   0.343   2.788   3.844 -0.5478  0.0296  0.0657
 1914SOL     OW18214   0.311   8.687   7.356 -0.1206  0.0359 -0.3131
 1914SOL    HW118215   0.286   8.635   7.275 -2.5087  0.5089  0.0969
 1914SOL    HW218216   0.355   8.773   7.328  0.4248 -0.4804 -1.0518
 1915SOL     OW18217   7.964   6.457   1.287  0.3129 -0.3580 -0.4912
 1915SOL    HW118218   7.925   6.375   1.329  2.4221 -0.8579  0.5558
 1915SOL    HW218219   7.893   6.505   1.236 -1.6499 -1.2724  1.2876
 1916SOL     OW18220   7.038   6.269   2.882 -0.4424  0.2054  0.1885
 1916SOL    HW118221   7.101   6.310   2.948  0.2539  0.0489 -0.3677
 1916SOL    HW218222   7.025   6.172   2.904  1.3297 -0.3319 -1.0381
 1917SOL     OW18223   4.853   7.596   7.423 -0.3231 -0.2252 -0.0104
 1917SOL    HW118224   4.775   7.536   7.441 -1.0003  0.2748 -1.1540
 1917SOL    HW218225   4.917   7.550   7.361  0.6468 -0.9003  1.4740
 1918SOL     OW18226   4.136   6.725   7.735 -0.1585 -0.6413 -0.2812
 1918SOL    HW118227   4.102   6.755   7.824  1.9919  2.0215 -0.2876
 1918SOL    HW218228   4.078   6.763   7.663  0.0890  0.0556 -0.1217
 1919SOL     OW18229   7.487   3.242   2.735 -0.2192 -0.3352  0.5846
 1919SOL    HW118230   7.428   3.190   2.798 -1.3332  0.8954  0.5692
 1919SOL    HW218231   7.430   3.287   2.666  0.7688  0.7256  0.4642
 1920SOL     OW18232   5.895   5.753   5.922  0.4106  0.0346  0.1422
 1920SOL    HW118233   5.840   5.697   5.983 -1.1038  0.9284 -0.3804
 1920SOL    HW218234   5.963   5.696   5.876 -1.6758 -1.5690 -1.0410
 1921SOL     OW18235   8.076   7.374   2.254 -0.3234 -0.1379  0.0941
 1921SOL    HW118236   8.054   7.425   2.171 -2.0365 -1.0012 -0.0020
 1921SOL    HW218237   8.175   7.367   2.264 -0.0772  1.6594 -0.8293
 1922SOL     OW18238   0.740   0.531   6.114 -0.8317 -0.3652  0.0319
 1922SOL    HW118239   0.643   0.546   6.134 -0.9518  0.1945 -0.9523
 1922SOL    HW218240   0.780   0.614   6.076 -0.3365 -1.0621 -0.9964
 1923SOL     OW18241   6.407   8.235   3.159 -0.2481  0.4625 -0.2923
 1923SOL    HW118242   6.442   8.284   3.079  0.9301  0.4472  0.1962
 1923SOL    HW218243   6.389   8.301   3.233  0.0803  0.3177 -0.0799
 1924SOL     OW18244   4.863   1.679   8.809  0.3437  0.2653  0.3167
 1924SOL    HW118245   4.938   1.733   8.770 -1.0343  1.0214 -1.3181
 1924SOL    HW218246   4.778   1.700   8.761 -0.9312 -0.5984  2.1546
 1925SOL     OW18247   6.422   7.769   1.414  0.1794 -0.1367  0.0203
 1925SOL    HW118248   6.390   7.692   1.468  0.0872 -0.2822 -0.2381
 1925SOL    HW218249   6.368   7.774   1.329  1.5239 -1.0062 -0.8994
 1926SOL     OW18250   6.931   5.936   2.717 -0.4546  0.3232 -0.1102
 1926SOL    HW118251   7.019   5.973   2.687 -0.0521 -0.3630  0.1979
 1926SOL    HW218252   6.872   6.010   2.749  0.5465  0.6225  1.0459
 1927SOL     OW18253   5.361   6.153   7.191 -0.2979 -0.4662  0.1111
 1927SOL    HW118254   5.459   6.137   7.180 -0.4894 -0.9156 -1.0538
 1927SOL    HW218255   5.330   6.218   7.121 -0.7986 -0.2046  0.5734
 1928SOL     OW18256   3.132   6.110   4.194  0.0153 -0.2481  0.3206
 1928SOL    HW118257   3.154   6.182   4.260 -1.1543 -3.0235  3.9165
 1928SOL    HW218258   3.033   6.111   4.176 -0.3353 -2.1582  1.9702
 1929SOL     OW18259   0.114   4.314   4.947 -0.8370 -0.4170  0.0228
 1929SOL    HW118260   0.119   4.215   4.938  0.7343 -0.4455  1.0445
 1929SOL    HW218261   0.124   4.355   4.856  1.2620 -1.1286 -0.1007
 1930SOL     OW18262   7.328   8.400   4.972  0.7736 -0.0176  0.1230
 1930SOL    HW118263   7.376   8.410   4.885  1.1047 -1.3196  0.1561
 1930SOL    HW218264   7.391   8.366   5.042  0.2097 -0.1623  0.5718
 1931SOL     OW18265   3.559   6.714   3.332 -0.2091 -0.0779  0.0386
 1931SOL    HW118266   3.540   6.766   3.415 -2.5750 -1.8262  0.6398
 1931SOL    HW218267   3.648   6.670   3.340 -0.1062  0.3599  1.3340
 1932SOL     OW18268   8.034   1.810   0.325 -0.6720 -0.0191  0.2890
 1932SOL    HW118269   8.028   1.782   0.420  1.4908 -2.4679 -0.2309
 1932SOL    HW218270   7.967   1.759   0.271 -0.1435 -0.5651  0.1326
 1933SOL     OW18271   0.521   1.382   6.412 -0.1431  0.1431  0.1530
 1933SOL    HW118272   0.568   1.294   6.418 -1.2180 -0.4886 -0.4572
 1933SOL    HW218273   0.572   1.451   6.463  0.1804 -1.0646  1.5104
 1934SOL     OW18274   5.666   6.342   0.508  0.0497 -0.2800 -0.3110
 1934SOL    HW118275   5.742   6.382   0.456 -0.6884 -0.2397 -1.3711
 1934SOL    HW218276   5.632   6.261   0.460  0.5049 -1.2923  1.0167
 1935SOL     OW18277   4.554   0.035   7.489  0.0640  0.0243 -0.2496
 1935SOL    HW118278   4.577   0.132   7.501  0.2409 -0.0461 -0.0175
 1935SOL    HW218279   4.475   0.013   7.545 -0.7524  0.3367 -1.2674
 1936SOL     OW18280   2.964   5.043   8.047 -0.1536  0.1063 -0.5696
 1936SOL    HW118281   2.918   5.119   8.001 -0.1943  0.0535 -0.6148
 1936SOL    HW218282   2.907   4.961   8.042  0.7974 -0.4723 -2.3370
 1937SOL     OW18283   5.419   5.982   1.233 -0.0641  0.0204 -0.3983
 1937SOL    HW118284   5.422   5.991   1.134 -1.7778  1.7779 -0.3328
 1937SOL    HW218285   5.349   5.915   1.258  0.9944 -1.0970 -0.3852
 1938SOL     OW18286   6.938   4.823   5.478 -0.1724  0.3284 -0.5783
 1938SOL    HW118287   6.949   4.731   5.515  0.3048  0.0638 -1.3500
 1938SOL    HW218288   6.983   4.889   5.538  0.8350 -0.1254 -0.8269
 1939SOL     OW18289   4.937   7.716   8.381  0.2010 -0.4008 -0.6591
 1939SOL    HW118290   4.969   7.631   8.338  0.7897 -0.0800 -0.8650
 1939SOL    HW218291   4.904   7.778   8.310 -1.8546 -1.1168 -0.3725
 1940SOL     OW18292   6.281   4.061   8.342  0.0151  0.4479  0.2046
 1940SOL    HW118293   6.213   4.125   8.308 -1.1896 -0.1695  1.4120
 1940SOL    HW218294   6.242   3.969   8.346  0.5482  0.2724  1.9397
 1941SOL     OW18295   3.115   3.272   0.817 -0.2002  0.0191  0.3079
 1941SOL    HW118296   3.208   3.242   0.799  0.3891  1.0168  1.6526
 1941SOL    HW218297   3.052   3.225   0.754  1.2834 -0.0394 -1.1571
 1942SOL     OW18298   3.434   4.567   7.003 -0.0820 -0.0872  0.4215
 1942SOL    HW118299   3.530   4.582   6.981  0.5679 -1.9573  1.8784
 1942SOL    HW218300   3.419   4.578   7.101 -1.0611 -1.1032  0.4048
 1943SOL     OW18301   3.284   1.976   6.202 -0.3553 -0.4186  0.1618
 1943SOL    HW118302   3.354   1.905   6.213  1.8550  2.0389  2.6080
 1943SOL    HW218303   3.217   1.969   6.276 -0.3778 -0.2337  0.1605
 1944SOL     OW18304   8.180   6.446   8.870  0.7582  0.0474 -0.3594
 1944SOL    HW118305   8.084   6.463   8.849  0.2334 -0.6218  1.4575
 1944SOL    HW218306   8.209   6.505   8.945  1.3743 -0.7745  0.0541
 1945SOL     OW18307   7.465   3.323   5.519  0.2664  0.5931 -0.0289
 1945SOL    HW118308   7.529   3.328   5.596 -0.7135  0.9120  0.7749
 1945SOL    HW218309   7.465   3.230   5.482 -1.5830 -0.4209  2.3938
 1946SOL     OW18310   7.546   2.608   3.560  0.0523  0.3066  0.3593
 1946SOL    HW118311   7.507   2.689   3.516 -0.5537 -1.0349 -1.6205
 1946SOL    HW218312   7.642   2.598   3.533  0.3916  0.8561  1.3311
 1947SOL     OW18313   2.720   2.285   5.915 -0.0325 -0.6389  0.0340
 1947SOL    HW118314   2.622   2.303   5.905  0.2857  1.8941  1.2096
 1947SOL    HW218315   2.768   2.370   5.935  2.3526 -1.9463  0.0671
 1948SOL     OW18316   4.831   2.072   2.319 -0.3805 -0.5123 -0.1707
 1948SOL    HW118317   4.757   2.109   2.262 -0.7717 -0.2872  0.4831
 1948SOL    HW218318   4.889   2.012   2.263  0.6100  1.5207 -1.3873
 1949SOL     OW18319   0.624   4.950   6.513  0.6212  0.4018 -0.2413
 1949SOL    HW118320   0.682   5.003   6.575  0.2453 -1.3646  1.6890
 1949SOL    HW218321   0.676   4.871   6.479  0.0376 -0.0088 -0.1839
 1950SOL     OW18322   6.334   8.846   0.589 -0.0077  0.0493 -0.3609
 1950SOL    HW118323   6.329   8.944   0.607  3.0768  0.7483 -2.7736
 1950SOL    HW218324   6.357   8.798   0.674 -0.3052  1.5443  0.5930
 1951SOL     OW18325   8.626   7.012   8.645  0.3791 -0.5467 -0.4771
 1951SOL    HW118326   8.614   7.081   8.717  1.7951 -0.2241 -0.5383
 1951SOL    HW218327   8.711   6.962   8.661 -0.4525 -2.0414 -0.6471
 1952SOL     OW18328   0.524   8.340   0.728  0.0138  0.5353 -0.4102
 1952SOL    HW118329   0.455   8.271   0.707 -1.1342  1.2597  0.9335
 1952SOL    HW218330   0.495   8.394   0.807  1.4352  1.8068 -0.7278
 1953SOL     OW18331   5.098   1.600   0.419  0.3388 -0.4840 -0.3400
 1953SOL    HW118332   5.058   1.509   0.424 -0.1631 -0.2186  0.7169
 1953SOL    HW218333   5.025   1.668   0.409  0.5686 -0.0653  0.6866
 1954SOL     OW18334   3.826   3.119   6.615  0.2941 -0.0002 -0.5798
 1954SOL    HW118335   3.831   3.179   6.695  1.5130  0.5660 -1.0674
 1954SOL    HW218336   3.783   3.032   6.642 -3.7018  1.9120 -0.4192
 1955SOL     OW18337   0.419   6.228   8.094  0.7373  0.3554 -0.4177
 1955SOL    HW118338   0.331   6.269   8.118  0.2831 -0.7481 -0.2048
 1955SOL    HW218339   0.482   6.301   8.066  0.3511  1.3675  1.2458
 1956SOL     OW18340   3.934   8.632   8.594  0.0684  0.1003 -0.0979
 1956SOL    HW118341   3.889   8.721   8.588  2.6831  1.5178  0.5374
 1956SOL    HW218342   3.965   8.616   8.688  0.0811 -1.2318 -0.3176
 1957SOL     OW18343   4.373   5.028   4.836  0.0729  0.1831 -0.3989
 1957SOL    HW118344   4.393   5.020   4.738 -1.6508 -0.0986 -0.7457
 1957SOL    HW218345   4.399   4.943   4.882  1.2597  0.4633 -0.5353
 1958SOL     OW18346   4.252   5.382   8.462  0.2731  0.4584 -0.4388
 1958SOL    HW118347   4.276   5.285   8.457  0.9895  0.5718  0.5523
 1958SOL    HW218348   4.309   5.433   8.398  1.6949  0.5362  0.8509
 1959SOL     OW18349   7.471   5.271   0.305 -0.2978 -0.0587 -0.7633
 1959SOL    HW118350   7.453   5.207   0.380  0.4787 -0.1399 -0.6445
 1959SOL    HW218351   7.567   5.297   0.306  0.0009 -0.9942 -2.4473
 1960SOL     OW18352   3.904   0.859   6.101  0.1441 -0.1062  0.4074
 1960SOL    HW118353   3.837   0.840   6.030  0.2056  0.0856  0.2969
 1960SOL    HW218354   3.984   0.800   6.089 -0.3564 -0.9242  1.0355
 1961SOL     OW18355   0.667   7.788   2.495 -0.0265 -0.1222 -0.2201
 1961SOL    HW118356   0.608   7.860   2.457  0.0132  0.0018 -0.0484
 1961SOL    HW218357   0.660   7.789   2.595  0.8086  0.3579 -0.1642
 1962SOL     OW18358   6.748   6.180   2.879  0.2443 -0.0361  0.1426
 1962SOL    HW118359   6.760   6.104   2.944  1.4903  0.6145  0.7065
 1962SOL    HW218360   6.780   6.265   2.922 -0.5850  0.7040 -0.6961
 1963SOL     OW18361   3.037   6.024   5.911 -0.0354 -0.2450  0.2787
 1963SOL    HW118362   3.054   6.085   5.832  0.7599  0.5463  1.0465
 1963SOL    HW218363   2.954   6.053   5.957 -0.2652 -0.4345 -0.0170
 1964SOL     OW18364   6.266   1.845   3.354 -0.0793 -0.2298  0.3180
 1964SOL    HW118365   6.292   1.932   3.313 -0.3774  0.6405  1.9460
 1964SOL    HW218366   6.349   1.792   3.374  0.3023  1.0520  2.2730
 1965SOL     OW18367   2.949   7.449   4.328 -0.0159 -0.6545  0.2299
 1965SOL    HW118368   2.936   7.472   4.232 -2.7616 -0.0845  0.6786
 1965SOL    HW218369   2.981   7.529   4.378 -0.6692 -0.3566  0.1691
 1966SOL     OW18370   3.618   4.748   4.850  0.2303 -0.4141  0.0944
 1966SOL    HW118371   3.572   4.685   4.913  0.1476 -1.5543 -1.0853
 1966SOL    HW218372   3.701   4.705   4.815  0.2382  0.1939 -0.6375
 1967SOL     OW18373   6.869   5.094   0.320  0.1675 -0.3275  0.2476
 1967SOL    HW118374   6.969   5.088   0.329 -0.1061 -2.4718  2.3396
 1967SOL    HW218375   6.826   5.056   0.402 -2.3882  1.0695 -0.3880
 1968SOL     OW18376   5.596   1.631   1.963 -0.0145 -0.3512 -0.2656
 1968SOL    HW118377   5.665   1.559   1.954  0.9046  0.5020 -0.0527
 1968SOL    HW218378   5.585   1.654   2.060 -0.1477 -0.0412 -0.3563
 1969SOL     OW18379   8.089   0.844   0.790  0.7627 -0.4957 -0.0353
 1969SOL    HW118380   8.070   0.938   0.819 -0.4549 -0.7668  0.0787
 1969SOL    HW218381   8.034   0.781   0.845 -0.0408 -1.1502 -1.5543
 1970SOL     OW18382   3.982   4.933   3.653 -0.0860  0.0457 -0.0911
 1970SOL    HW118383   4.071   4.887   3.653 -0.5407 -0.8650 -1.2333
 1970SOL    HW218384   3.994   5.029   3.629  0.6272  0.0013  0.0696
 1971SOL     OW18385   4.179   1.956   8.640  0.2402  0.3564 -0.2860
 1971SOL    HW118386   4.151   1.892   8.569  1.5051 -0.4691 -0.0498
 1971SOL    HW218387   4.099   1.985   8.693 -0.2954 -1.2461 -0.2112
 1972SOL     OW18388   3.164   4.999   7.785 -0.7928  0.0723  0.6656
 1972SOL    HW118389   3.192   5.092   7.761  0.0863 -0.1015  1.0042
 1972SOL    HW218390   3.064   4.993   7.785 -0.8545  0.3139 -2.0586
 1973SOL     OW18391   2.415   4.214   8.381  0.5939 -0.1014 -0.3021
 1973SOL    HW118392   2.433   4.129   8.330 -0.8175  0.4993 -1.8520
 1973SOL    HW218393   2.499   4.268   8.385  0.9493 -0.5474 -1.2895
 1974SOL     OW18394   0.850   2.422   8.567  0.0547  0.4679 -0.0637
 1974SOL    HW118395   0.863   2.370   8.483  0.9597  1.1205 -0.3444
 1974SOL    HW218396   0.903   2.507   8.561 -1.4263  1.4276  0.3717
 1975SOL     OW18397   6.406   8.322   8.060 -0.7004  0.4036 -0.3430
 1975SOL    HW118398   6.332   8.255   8.057 -0.5399  0.2499 -1.1651
 1975SOL    HW218399   6.468   8.300   8.135 -1.2374  0.2644  0.0638
 1976SOL     OW18400   4.811   5.836   8.502 -0.1368  0.7268 -0.1306
 1976SOL    HW118401   4.804   5.745   8.543 -0.0879  1.0595  0.6314
 1976SOL    HW218402   4.787   5.831   8.405 -1.3684  0.1064  0.1862
 1977SOL     OW18403   0.329   6.940   1.048 -0.3071  0.3126  0.0504
 1977SOL    HW118404   0.294   7.000   0.976  0.0187 -0.7756 -1.0260
 1977SOL    HW218405   0.268   6.944   1.127 -0.0020  2.4618  0.1895
 1978SOL     OW18406   4.058   8.430   1.982  0.0333 -0.6518  0.4630
 1978SOL    HW118407   3.998   8.510   1.989  0.3918 -0.0895 -2.5472
 1978SOL    HW218408   4.017   8.354   2.033 -0.7804  1.1149  2.5694
 1979SOL     OW18409   4.594   7.086   0.519 -0.2720  0.2084  0.8820
 1979SOL    HW118410   4.608   7.134   0.606 -0.4859  2.7599 -0.4492
 1979SOL    HW218411   4.510   7.032   0.524 -0.3472  0.4365  2.2145
 1980SOL     OW18412   6.724   5.326   6.408 -0.1101  0.5891  0.3894
 1980SOL    HW118413   6.640   5.358   6.366 -0.2640  0.2662  0.4523
 1980SOL    HW218414   6.722   5.226   6.416  0.5388  0.5291 -0.1757
 1981SOL     OW18415   0.641   1.857   8.726 -0.4471 -0.1007  0.0114
 1981SOL    HW118416   0.593   1.942   8.751  1.3559  1.3572 -1.2884
 1981SOL    HW218417   0.701   1.830   8.802 -2.7308 -1.5289  1.3480
 1982SOL     OW18418   3.021   1.567   3.487  0.0664  0.3730  0.0519
 1982SOL    HW118419   2.967   1.483   3.483  0.1147  0.1889  2.4177
 1982SOL    HW218420   3.118   1.544   3.488  0.1277  0.5562 -1.0438
 1983SOL     OW18421   8.370   7.656   5.404 -0.8831  0.0002 -0.0867
 1983SOL    HW118422   8.319   7.647   5.318  0.0236  1.6186 -0.8079
 1983SOL    HW218423   8.461   7.692   5.386 -0.0552 -1.3302  1.3794
 1984SOL     OW18424   4.978   7.468   8.276  0.2145  0.5054 -0.5972
 1984SOL    HW118425   5.043   7.424   8.338 -0.4088  0.2240 -0.1415
 1984SOL    HW218426   4.987   7.428   8.185  0.7107  0.4996 -0.5503
 1985SOL     OW18427   6.675   5.848   0.065 -0.2726 -0.8415  0.4923
 1985SOL    HW118428   6.736   5.781   0.106  0.2760 -1.3402 -1.1135
 1985SOL    HW218429   6.728   5.927   0.035 -0.3705 -1.3197 -0.9929
 1986SOL     OW18430   6.209   0.056   3.242 -0.3113 -0.3620  0.3420
 1986SOL    HW118431   6.141   0.115   3.199 -0.5755 -1.7402 -1.1591
 1986SOL    HW218432   6.194   0.055   3.341 -1.5258  0.5382  0.1785
 1987SOL     OW18433   4.571   8.180   2.657  0.2048  0.2388  0.4377
 1987SOL    HW118434   4.614   8.247   2.718 -1.3881  1.4495  0.2600
 1987SOL    HW218435   4.472   8.194   2.656 -0.0453 -1.4062 -0.4839
 1988SOL     OW18436   2.769   1.348   8.607 -0.3075 -0.1865 -0.0448
 1988SOL    HW118437   2.823   1.300   8.676 -1.4520 -1.5244 -0.0718
 1988SOL    HW218438   2.672   1.339   8.627 -0.5533  2.9685  0.5117
 1989SOL     OW18439   8.384   3.252   1.340  0.2735 -0.5071 -0.2546
 1989SOL    HW118440   8.372   3.338   1.291 -1.1824 -1.7836 -2.2379
 1989SOL    HW218441   8.390   3.177   1.274  1.4544 -1.9346  1.4381
 1990SOL     OW18442   7.708   5.802   8.072  0.1137  0.5722  0.3624
 1990SOL    HW118443   7.676   5.789   7.978 -2.8756 -2.5014  1.7233
 1990SOL    HW218444   7.661   5.881   8.112 -1.3726 -0.3039  0.4003
 1991SOL     OW18445   5.626   2.298   5.549  0.6090 -0.3237 -0.1997
 1991SOL    HW118446   5.622   2.219   5.611 -0.6249 -0.2071 -0.1268
 1991SOL    HW218447   5.538   2.310   5.504  0.4576  1.6593  0.5747
 1992SOL     OW18448   4.118   7.475   4.177  1.0317 -0.2697 -0.1716
 1992SOL    HW118449   4.057   7.453   4.253  0.5030 -0.1304 -0.5550
 1992SOL    HW218450   4.207   7.504   4.213  0.7848 -0.1968  0.3915
 1993SOL     OW18451   2.522   2.235   7.731 -0.4701 -0.0239  0.4462
 1993SOL    HW118452   2.555   2.311   7.675  0.3228  0.2901  1.3114
 1993SOL    HW218453   2.430   2.210   7.703 -1.3560  2.3020  1.1998
 1994SOL     OW18454   5.779   4.530   4.374 -0.3691 -0.7397 -0.2433
 1994SOL    HW118455   5.707   4.550   4.307 -0.2770 -0.3803 -0.2335
 1994SOL    HW218456   5.851   4.476   4.331 -0.6277 -1.0729 -0.2623
 1995SOL     OW18457   2.834   4.130   7.844  0.4858  0.4962 -0.3358
 1995SOL    HW118458   2.751   4.080   7.870  0.3524  0.1297 -1.4348
 1995SOL    HW218459   2.901   4.123   7.917 -0.1313  0.0494  0.1957
 1996SOL     OW18460   2.354   5.331   7.674  0.0941  0.1220  0.1872
 1996SOL    HW118461   2.407   5.248   7.692 -0.5181 -0.3283 -0.0777
 1996SOL    HW218462   2.318   5.367   7.759  0.5992  0.2767  0.3378
 1997SOL     OW18463   5.264   3.840   6.061 -0.8242 -0.5040  0.0987
 1997SOL    HW118464   5.330   3.851   5.987 -0.2647  2.5699  0.9900
 1997SOL    HW218465   5.260   3.743   6.088  0.2557 -1.3719 -2.7115
 1998SOL     OW18466   3.283   0.122   7.746  0.1416 -0.8353  0.0869
 1998SOL    HW118467   3.355   0.109   7.678  0.0485  1.6704 -0.5384
 1998SOL    HW218468   3.200   0.154   7.700 -0.4792 -0.8866  1.1655
 1999SOL     OW18469   8.310   0.471   8.849  0.5883  0.1840 -0.3455
 1999SOL    HW118470   8.290   0.373   8.845  1.9782 -0.1272  0.0388
 1999SOL    HW218471   8.234   0.523   8.808 -0.3006 -1.0263 -0.2492
 2000SOL     OW18472   8.176   0.875   6.705  0.2644 -0.0158  0.0579
 2000SOL    HW118473   8.094   0.932   6.712 -0.1282 -0.7050  1.2226
 2000SOL    HW218474   8.202   0.843   6.796  2.2640  0.7919 -0.1851
 2001SOL     OW18475   7.122   5.309   4.616  0.1088 -0.4630 -0.5000
 2001SOL    HW118476   7.109   5.211   4.597 -0.6055 -0.5038  0.1618
 2001SOL    HW218477   7.159   5.320   4.708  0.9354 -0.1447 -0.8744
 2002SOL     OW18478   4.492   3.956   5.011  0.3350  0.1128  0.2441
 2002SOL    HW118479   4.512   3.905   4.927  0.7870  0.2332  0.2776
 2002SOL    HW218480   4.534   3.909   5.089  0.6537  0.4737  0.2897
 2003SOL     OW18481   6.597   4.404   1.750 -0.4048 -0.1329  0.3870
 2003SOL    HW118482   6.619   4.409   1.652  0.6311 -0.6121  0.5969
 2003SOL    HW218483   6.589   4.309   1.777 -0.3211 -0.0040  0.8584
 2004SOL     OW18484   2.392   5.326   1.321 -0.1452 -0.0234  0.2037
 2004SOL    HW118485   2.333   5.245   1.321  0.5465 -0.5461 -0.6221
 2004SOL    HW218486   2.487   5.297   1.309 -0.1590  1.0609 -3.3065
 2005SOL     OW18487   0.979   0.447   8.836  0.1684 -0.0208 -0.1378
 2005SOL    HW118488   1.051   0.501   8.880  0.9445 -0.8833 -0.3321
 2005SOL    HW218489   0.925   0.506   8.775  1.2011  0.4689 -0.5892
 2006SOL     OW18490   5.391   8.947   1.236  0.2612  1.1053 -0.1308
 2006SOL    HW118491   5.446   8.897   1.303  0.2638  0.4765 -0.6031
 2006SOL    HW218492   5.318   8.996   1.284 -2.2863 -2.6130  0.0285
 2007SOL     OW18493   3.684   2.881   3.006  0.2843 -0.2400 -0.0288
 2007SOL    HW118494   3.595   2.837   2.995  0.3394  0.0477 -1.8017
 2007SOL    HW218495   3.753   2.812   3.026 -0.2385 -0.5265  0.8274
 2008SOL     OW18496   5.322   8.304   3.941  0.1714 -0.9374 -0.4292
 2008SOL    HW118497   5.270   8.231   3.897  0.4231 -1.1912 -0.3039
 2008SOL    HW218498   5.300   8.308   4.038  0.6683 -1.2893 -0.3024
 2009SOL     OW18499   5.759   4.696   3.812 -0.0568 -0.1816  0.3127
 2009SOL    HW118500   5.763   4.768   3.742 -0.4976  1.0730  1.5695
 2009SOL    HW218501   5.689   4.719   3.879  0.7718 -1.0915  1.4891
 2010SOL     OW18502   4.342   5.887   0.033 -1.1038 -0.5468  0.7456
 2010SOL    HW118503   4.298   5.799   0.019  0.2125 -0.9117 -1.1159
 2010SOL    HW218504   4.296   5.957  -0.022 -0.7470 -0.4883  0.5238
 2011SOL     OW18505   4.673   0.679   0.605 -1.0626  0.5285  0.3856
 2011SOL    HW118506   4.741   0.626   0.554 -1.6929 -0.5638  0.6534
 2011SOL    HW218507   4.675   0.774   0.574 -1.2033 -0.0382 -1.4626
 2012SOL     OW18508   1.897   2.280   0.127 -0.3572  0.3304 -0.1662
 2012SOL    HW118509   1.813   2.296   0.075  0.2658 -0.6284 -1.5059
 2012SOL    HW218510   1.973   2.267   0.063  0.2484 -1.8418  0.9682
 2013SOL     OW18511   1.581   6.646   7.350 -0.6982 -0.0783  0.7135
 2013SOL    HW118512   1.491   6.608   7.370  0.4184 -2.2203  1.8741
 2013SOL    HW218513   1.614   6.697   7.430 -1.1573  1.3245  0.0296
 2014SOL     OW18514   2.271   0.874   0.591 -0.2213  0.1250 -0.2270
 2014SOL    HW118515   2.293   0.949   0.654  1.2666 -1.2836  0.9930
 2014SOL    HW218516   2.181   0.838   0.613 -0.6173  1.0421 -0.3142
 2015SOL     OW18517   8.130   6.574   5.328 -0.3359 -0.3503 -0.2256
 2015SOL    HW118518   8.152   6.643   5.260 -0.3887 -0.5119 -0.4071
 2015SOL    HW218519   8.077   6.615   5.402 -1.5764 -0.4936 -1.0253
 2016SOL     OW18520   0.162   5.185   8.856  0.1167 -0.3778 -0.3018
 2016SOL    HW118521   0.214   5.144   8.932 -0.3770 -1.0312 -0.3057
 2016SOL    HW218522   0.223   5.201   8.779  0.1557 -1.9730 -0.6290
 2017SOL     OW18523   8.394   1.905   5.049  0.2137  0.1784 -0.0074
 2017SOL    HW118524   8.377   1.994   5.091  2.3009  0.1885  0.8924
 2017SOL    HW218525   8.324   1.886   4.980 -0.9075  1.9865  0.6118
 2018SOL     OW18526   1.880   4.484   3.236  0.1011  0.4597  0.5909
 2018SOL    HW118527   1.862   4.410   3.300  0.8644  1.1202  1.6041
 2018SOL    HW218528   1.810   4.555   3.246 -1.0954 -0.4827 -0.9584
 2019SOL     OW18529   3.593   7.301   3.702  0.2401  0.0600 -0.6970
 2019SOL    HW118530   3.563   7.325   3.609  0.7506 -0.1244 -0.9124
 2019SOL    HW218531   3.685   7.336   3.717  0.3595 -0.3589 -0.4439
 2020SOL     OW18532   2.144   3.362   0.132 -0.7346  0.0863 -0.2779
 2020SOL    HW118533   2.045   3.363   0.141 -0.7001 -1.3677  0.4422
 2020SOL    HW218534   2.186   3.371   0.223 -0.2242 -0.4765 -0.4549
 2021SOL     OW18535   4.050   0.385   3.295 -0.0027  0.9683  0.4273
 2021SOL    HW118536   4.070   0.295   3.257  1.1911  0.2984  2.5908
 2021SOL    HW218537   3.951   0.401   3.290 -0.2650 -0.5687  0.2531
 2022SOL     OW18538   5.982   3.483   6.796  0.1120  0.4850  0.9208
 2022SOL    HW118539   5.888   3.456   6.777  0.9628 -0.0588 -3.0462
 2022SOL    HW218540   6.021   3.423   6.866 -1.5444 -1.2662  0.3721
 2023SOL     OW18541   4.655   1.303   7.138 -0.0441  0.0357  0.1949
 2023SOL    HW118542   4.713   1.248   7.199 -0.6407 -0.2677  0.4904
 2023SOL    HW218543   4.561   1.303   7.173 -1.2118 -3.2013 -2.7505
 2024SOL     OW18544   2.386   0.055   7.350 -0.2505  0.9112  0.1735
 2024SOL    HW118545   2.450  -0.018   7.324  1.5746  2.0222  1.4760
 2024SOL    HW218546   2.342   0.090   7.267  1.1418  0.4267 -0.8036
 2025SOL     OW18547   1.009   2.854   8.184 -0.6242  0.1509  0.3013
 2025SOL    HW118548   0.974   2.889   8.097  2.4458 -0.8886 -1.4258
 2025SOL    HW218549   1.050   2.929   8.236 -1.2990  0.5329  0.2940
 2026SOL     OW18550   5.476   8.119   8.631  0.0378 -0.4875 -0.1459
 2026SOL    HW118551   5.461   8.217   8.642  1.4131  0.0287 -2.5828
 2026SOL    HW218552   5.417   8.069   8.694 -0.4123  1.9076  1.3726
 2027SOL     OW18553   0.199   1.416   6.482  0.6557 -0.1696  0.6122
 2027SOL    HW118554   0.295   1.408   6.458  0.7958  3.3578 -0.2474
 2027SOL    HW218555   0.189   1.422   6.581  1.1988 -1.4269  0.7569
 2028SOL     OW18556   5.207   3.408   0.912 -0.1295  0.0944 -0.0168
 2028SOL    HW118557   5.227   3.353   0.831  0.3436  0.2413 -0.0023
 2028SOL    HW218558   5.279   3.394   0.980  0.3964  1.2988 -0.3098
 2029SOL     OW18559   4.493   1.730   2.289  0.2452 -0.1420  0.4540
 2029SOL    HW118560   4.568   1.761   2.231  0.1858  0.5503  0.7520
 2029SOL    HW218561   4.507   1.633   2.312  0.9974 -0.0371  0.4425
 2030SOL     OW18562   0.994   5.254   8.201 -0.0968  0.7893  0.2702
 2030SOL    HW118563   0.919   5.227   8.262 -0.2631  1.5693  0.4200
 2030SOL    HW218564   1.063   5.303   8.254 -1.0103  2.9136 -0.4485
 2031SOL     OW18565   1.861   8.936   2.079 -0.6458 -0.0210  0.1567
 2031SOL    HW118566   1.923   8.907   2.006  0.8972 -0.4736  1.6036
 2031SOL    HW218567   1.845   9.034   2.072  0.1569  0.0849 -0.3135
 2032SOL     OW18568   8.414   0.992   6.351 -0.0910  0.2173 -0.1540
 2032SOL    HW118569   8.387   1.058   6.422 -1.2172  1.4004 -1.6652
 2032SOL    HW218570   8.479   1.034   6.288 -0.1921 -0.3732 -0.6600
 2033SOL     OW18571   3.967   5.177   7.362  0.0320  0.0717  0.9267
 2033SOL    HW118572   3.969   5.256   7.424 -0.0393  0.3058  0.6297
 2033SOL    HW218573   4.025   5.195   7.283  0.4452 -0.3925  1.1224
 2034SOL     OW18574   1.114   7.359   2.779  0.0053 -0.3653  0.1691
 2034SOL    HW118575   1.160   7.438   2.737 -0.4525 -0.4914 -0.5908
 2034SOL    HW218576   1.162   7.275   2.751 -0.6475 -0.4927 -0.5833
 2035SOL     OW18577   4.226   3.979   6.485  0.3040 -0.5148  0.4514
 2035SOL    HW118578   4.295   3.955   6.554 -0.7845 -0.0683  1.7337
 2035SOL    HW218579   4.232   4.076   6.464  1.0225 -0.7672 -0.5379
 2036SOL     OW18580   4.088   5.974   7.572  0.0964 -0.6294 -0.6999
 2036SOL    HW118581   4.136   5.973   7.660 -0.2712  0.9153 -0.4751
 2036SOL    HW218582   3.991   5.956   7.588 -0.1325  0.5857 -0.6745
 2037SOL     OW18583   5.078   5.904   7.553  0.1620  0.2967  0.6624
 2037SOL    HW118584   5.164   5.939   7.590  0.1597  1.1936 -0.1709
 2037SOL    HW218585   5.053   5.820   7.601  2.0167 -0.5172  0.2268
 2038SOL     OW18586   2.165   1.379   4.586 -0.1015 -0.0662  0.4078
 2038SOL    HW118587   2.250   1.336   4.617  0.5975  1.2252  0.2823
 2038SOL    HW218588   2.186   1.461   4.535 -1.2947 -1.5364 -2.5354
 2039SOL     OW18589   4.726   4.696   8.606 -0.2414 -0.3403  0.0140
 2039SOL    HW118590   4.686   4.625   8.548 -1.9726  0.0698  0.6815
 2039SOL    HW218591   4.655   4.738   8.662  0.6089  2.3352 -0.7951
 2040SOL     OW18592   3.432   2.156   0.190  0.0466 -0.4862  0.3286
 2040SOL    HW118593   3.410   2.112   0.104 -0.3695 -0.6395  0.5123
 2040SOL    HW218594   3.348   2.171   0.242  0.2680 -0.1537  0.5883
 2041SOL     OW18595   1.967   0.218   6.393 -0.1015 -0.5068  0.7135
 2041SOL    HW118596   1.926   0.307   6.411 -1.4750 -1.0277  0.1850
 2041SOL    HW218597   1.998   0.215   6.298  0.3352 -0.4410  0.8524
 2042SOL     OW18598   0.465   4.230   3.220 -0.0415 -0.0610  0.0298
 2042SOL    HW118599   0.453   4.316   3.270 -0.6252 -0.2280  0.1761
 2042SOL    HW218600   0.458   4.248   3.122 -2.7503 -0.3301  0.1291
 2043SOL     OW18601   7.550   4.613   0.883  0.4976  0.3136  0.2473
 2043SOL    HW118602   7.596   4.602   0.794  0.2768 -0.6660  0.2499
 2043SOL    HW218603   7.578   4.700   0.924  0.6169  0.7645 -0.7722
 2044SOL     OW18604   1.513   7.114   4.303  0.4203  0.0992  0.1799
 2044SOL    HW118605   1.510   7.094   4.205 -1.3059  0.6934  0.0753
 2044SOL    HW218606   1.492   7.032   4.355  1.1726 -0.1793  0.0458
 2045SOL     OW18607   0.345   0.183   8.326 -0.2814  0.6242  0.0892
 2045SOL    HW118608   0.431   0.210   8.282  0.7011  0.5313  1.9226
 2045SOL    HW218609   0.356   0.093   8.368  0.1064  2.4438  4.0559
 2046SOL     OW18610   0.785   3.059   7.227 -1.0265  0.1798 -0.1531
 2046SOL    HW118611   0.840   3.133   7.265  0.4350 -0.4463 -1.0017
 2046SOL    HW218612   0.814   3.041   7.133 -2.0824 -0.7625 -0.3100
 2047SOL     OW18613   7.869   8.798   1.791  0.1737 -0.2522  0.2938
 2047SOL    HW118614   7.843   8.712   1.745  0.7006 -0.5123  0.4805
 2047SOL    HW218615   7.802   8.819   1.862 -0.9379  0.4288 -0.9414
 2048SOL     OW18616   2.636   3.753   7.291 -0.0562  0.0328  0.5228
 2048SOL    HW118617   2.567   3.790   7.353  1.1320 -0.4339  2.1609
 2048SOL    HW218618   2.656   3.658   7.315 -0.9171 -0.7589 -1.7714
 2049SOL     OW18619   4.077   3.338   4.142  0.4009 -0.9726  0.1364
 2049SOL    HW118620   4.171   3.356   4.170 -0.2004  1.9116  0.4590
 2049SOL    HW218621   4.061   3.376   4.050 -0.9430  0.2117  0.8387
 2050SOL     OW18622   2.789   4.582   8.413  0.4865 -0.6463  0.5345
 2050SOL    HW118623   2.865   4.522   8.438  0.7943  0.3693  2.1451
 2050SOL    HW218624   2.824   4.667   8.374  0.2446  0.1786  2.0599
 2051SOL     OW18625   3.077   1.286   1.243 -0.2390 -0.1262 -0.9085
 2051SOL    HW118626   3.092   1.203   1.190 -0.5372  0.3210 -1.6922
 2051SOL    HW218627   3.116   1.364   1.195 -1.3636  0.4253 -0.9527
 2052SOL     OW18628   2.337   7.437   1.607 -0.0886  0.3393  0.0362
 2052SOL    HW118629   2.405   7.424   1.534  0.6090 -0.8123  0.8688
 2052SOL    HW218630   2.379   7.415   1.695 -1.8160 -1.3600  0.4678
 2053SOL     OW18631   8.166   6.300   2.324 -0.3431 -0.0638  0.3865
 2053SOL    HW118632   8.089   6.238   2.306 -1.3992  1.4814 -0.5109
 2053SOL    HW218633   8.137   6.395   2.312  1.1120  0.6672  2.2834
 2054SOL     OW18634   8.126   3.986   8.152  0.0482  0.7578  0.1402
 2054SOL    HW118635   8.089   3.918   8.215  2.6360 -1.0363 -0.1801
 2054SOL    HW218636   8.078   4.073   8.164 -1.1691 -0.2398  2.8209
 2055SOL     OW18637   4.182   4.588   1.952 -0.0670 -0.1087  0.1892
 2055SOL    HW118638   4.269   4.615   1.909 -1.6635  2.4956 -1.6193
 2055SOL    HW218639   4.198   4.560   2.046  2.5886  1.5351  0.2783
 2056SOL     OW18640   5.280   7.114   2.592 -0.0059  0.4599  0.1787
 2056SOL    HW118641   5.273   7.188   2.525 -0.6180 -0.7370 -1.1238
 2056SOL    HW218642   5.202   7.118   2.655 -0.5490  0.3734 -0.4789
 2057SOL     OW18643   2.917   0.556   3.866 -0.1347 -0.0023 -0.4347
 2057SOL    HW118644   2.974   0.484   3.905  1.2479 -0.2508 -2.8329
 2057SOL    HW218645   2.834   0.516   3.826 -1.1921  0.1777  1.4912
 2058SOL     OW18646   2.579   8.167   6.732 -0.4884  0.4704 -0.2075
 2058SOL    HW118647   2.503   8.178   6.668 -2.1740 -2.0467  1.3209
 2058SOL    HW218648   2.631   8.085   6.708  0.7950  1.2685 -0.2269
 2059SOL     OW18649   0.671   8.243   8.839  0.5540 -0.2588  0.2373
 2059SOL    HW118650   0.656   8.337   8.869  2.0085  0.1017 -0.0881
 2059SOL    HW218651   0.626   8.228   8.751 -1.3549 -0.4746  1.2396
 2060SOL     OW18652   1.202   5.310   0.618 -0.8434  0.1769  0.0257
 2060SOL    HW118653   1.195   5.312   0.518 -0.0808  0.7520 -0.0202
 2060SOL    HW218654   1.112   5.333   0.657 -0.5193  2.6408 -0.5520
 2061SOL     OW18655   4.326   6.857   0.818  0.0965 -0.3602  0.7538
 2061SOL    HW118656   4.343   6.900   0.907  1.6420 -2.0035  1.2678
 2061SOL    HW218657   4.385   6.777   0.808  0.4241  0.2065 -2.0383
 2062SOL     OW18658   6.603   8.854   5.470 -0.1377 -0.2327  0.4578
 2062SOL    HW118659   6.617   8.915   5.391 -1.5333  1.1444  1.2397
 2062SOL    HW218660   6.640   8.764   5.449 -1.3537 -0.1730 -2.1757
 2063SOL     OW18661   1.454   8.653   0.431 -0.0597  0.8071  0.0946
 2063SOL    HW118662   1.506   8.571   0.406  1.1558  1.2820  1.0286
 2063SOL    HW218663   1.359   8.628   0.448 -0.1947 -0.0461 -1.8041
 2064SOL     OW18664   8.384   3.316   3.942 -0.0633  0.7856  0.6705
 2064SOL    HW118665   8.349   3.280   4.029 -0.4037  0.2949  0.3372
 2064SOL    HW218666   8.408   3.412   3.953 -0.3202  0.7867  1.2505
 2065SOL     OW18667   4.966   3.330   3.101 -0.9072  0.4662  0.2396
 2065SOL    HW118668   4.956   3.304   3.005  1.7033  0.1016  0.0348
 2065SOL    HW218669   5.063   3.331   3.126 -1.3006  3.8843  1.9446
 2066SOL     OW18670   2.235   7.502   3.845  0.0378  0.2002 -0.3979
 2066SOL    HW118671   2.160   7.535   3.901 -1.4804 -2.1432 -0.9881
 2066SOL    HW218672   2.312   7.477   3.904 -1.1803 -1.3227  0.5661
 2067SOL     OW18673   3.880   4.464   5.751 -0.4716 -0.3799  0.2973
 2067SOL    HW118674   3.948   4.481   5.679  1.6364  1.2121  2.5765
 2067SOL    HW218675   3.850   4.369   5.746  1.7713 -1.0658 -0.9474
 2068SOL     OW18676   3.948   4.407   5.465  0.2101 -0.3921 -0.0666
 2068SOL    HW118677   4.012   4.334   5.488  0.7157 -0.2097 -0.8553
 2068SOL    HW218678   3.868   4.369   5.419  0.8133 -0.3881 -1.1515
 2069SOL     OW18679   4.997   0.188   2.281  0.3942 -0.2401 -0.2051
 2069SOL    HW118680   4.970   0.114   2.219  1.1589 -1.0486  0.4059
 2069SOL    HW218681   4.922   0.207   2.345  1.0958 -2.2080  1.2402
 2070SOL     OW18682   2.551   3.130   3.655  0.4199  0.0522  0.3177
 2070SOL    HW118683   2.550   3.229   3.673 -0.3578 -0.0821  1.0153
 2070SOL    HW218684   2.633   3.107   3.602 -0.5374  1.4212 -1.8154
 2071SOL     OW18685   0.587   7.661   8.790 -0.7264 -0.5837  0.2531
 2071SOL    HW118686   0.680   7.628   8.775 -1.4429 -2.4567 -0.1334
 2071SOL    HW218687   0.575   7.748   8.742  1.5062  0.8479  2.1763
 2072SOL     OW18688   6.878   6.853   0.671 -0.6962 -0.2925  0.1501
 2072SOL    HW118689   6.882   6.850   0.771 -1.4171 -1.0873  0.1550
 2072SOL    HW218690   6.899   6.946   0.640  3.9778 -0.9770  0.8197
 2073SOL     OW18691   1.922   7.935   7.971  0.1454  0.3646 -0.1480
 2073SOL    HW118692   1.913   7.957   8.068  0.0586 -0.7978  0.1112
 2073SOL    HW218693   1.914   7.836   7.957  1.2711  0.3922 -1.1985
 2074SOL     OW18694   6.959   4.421   4.226  0.2967 -0.1946 -0.2160
 2074SOL    HW118695   6.995   4.388   4.313 -1.2373 -0.8426  0.1818
 2074SOL    HW218696   6.876   4.370   4.203  0.6583  0.0028 -2.0316
 2075SOL     OW18697   4.472   7.305   5.020 -0.5851  0.1230 -0.0318
 2075SOL    HW118698   4.393   7.252   5.051 -0.4688 -0.3334 -0.5060
 2075SOL    HW218699   4.449   7.402   5.019 -0.2292  0.2622  2.5908
 2076SOL     OW18700   4.492   0.604   1.870  0.2282 -0.5948 -0.4638
 2076SOL    HW118701   4.555   0.633   1.942  1.3496  2.0892 -2.4485
 2076SOL    HW218702   4.542   0.551   1.801 -0.5746 -2.0580  0.0626
 2077SOL     OW18703   4.593   8.743   8.678 -0.1167 -0.3882 -0.5992
 2077SOL    HW118704   4.508   8.700   8.708  0.1743 -0.6162 -0.0920
 2077SOL    HW218705   4.579   8.788   8.590 -0.4688 -1.3508 -1.0301
 2078SOL     OW18706   7.511   7.359   8.726  0.0249  0.2631  0.1872
 2078SOL    HW118707   7.496   7.296   8.802  0.8685 -2.1139 -1.5816
 2078SOL    HW218708   7.480   7.316   8.641 -0.1369  2.5661 -0.9460
 2079SOL     OW18709   0.246   0.816   0.559 -0.2424  0.0438  0.0978
 2079SOL    HW118710   0.338   0.781   0.575 -0.2578 -0.6527 -1.2649
 2079SOL    HW218711   0.241   0.912   0.587  0.7646 -0.0492  0.6031
 2080SOL     OW18712   3.826   7.743   6.420 -0.0259  0.8086  0.6305
 2080SOL    HW118713   3.924   7.721   6.416 -0.1137  0.0821  2.0974
 2080SOL    HW218714   3.772   7.660   6.405 -0.3928  0.9237  1.2655
 2081SOL     OW18715   7.833   8.016   0.222 -0.0060 -0.0050  0.4748
 2081SOL    HW118716   7.858   8.112   0.211 -0.8594  0.1167 -0.4844
 2081SOL    HW218717   7.765   7.991   0.153  0.0811 -1.2537  0.8255
 2082SOL     OW18718   3.835   2.322   0.934 -0.5754  0.0895  0.2246
 2082SOL    HW118719   3.829   2.266   0.851  0.0141 -0.6473  0.6730
 2082SOL    HW218720   3.883   2.271   1.005  1.0710  1.6090  0.2587
 2083SOL     OW18721   3.181   1.333   7.553  0.2702  0.4632 -0.3621
 2083SOL    HW118722   3.149   1.324   7.458 -2.0049 -1.1962  0.5020
 2083SOL    HW218723   3.272   1.374   7.554  0.3789  0.4169 -3.2681
 2084SOL     OW18724   4.415   0.594   3.358  0.3000 -0.6660  0.1059
 2084SOL    HW118725   4.337   0.617   3.300 -0.5767  0.2771  1.6358
 2084SOL    HW218726   4.500   0.618   3.310 -0.4465  1.4569 -0.2079
 2085SOL     OW18727   0.440   0.684   3.626 -0.2294  0.0795 -0.1662
 2085SOL    HW118728   0.507   0.629   3.675  0.1814 -0.3722 -1.2038
 2085SOL    HW218729   0.348   0.658   3.653  0.0099  0.4446  0.9986
 2086SOL     OW18730   2.088   2.923   3.893 -0.6897 -0.3004 -0.4129
 2086SOL    HW118731   2.133   2.866   3.962 -0.9978  0.6474  0.5846
 2086SOL    HW218732   2.032   2.866   3.833  1.3326 -1.4311 -1.2989
 2087SOL     OW18733   8.345   1.685   1.871  0.3237 -0.4487  0.1122
 2087SOL    HW118734   8.347   1.771   1.922 -1.5271 -0.5514  0.4034
 2087SOL    HW218735   8.250   1.657   1.857  0.9002 -2.3110 -0.2098
 2088SOL     OW18736   8.880   2.295   7.952 -0.0563 -0.4759 -0.8189
 2088SOL    HW118737   8.796   2.243   7.938  0.6894 -1.1363 -2.9856
 2088SOL    HW218738   8.950   2.264   7.888  1.6858  0.4358  0.5940
 2089SOL     OW18739   2.408   2.431   2.929 -0.2399  0.1090 -0.0472
 2089SOL    HW118740   2.469   2.375   2.985 -2.0649 -0.4960  1.3695
 2089SOL    HW218741   2.335   2.469   2.986 -0.8921  1.2751 -1.6168
 2090SOL     OW18742   7.061   8.437   4.971 -0.3229  0.7880  0.1834
 2090SOL    HW118743   7.161   8.443   4.974 -0.2835 -0.0126  0.7042
 2090SOL    HW218744   7.028   8.478   4.886  0.8342 -3.5334 -2.5277
 2091SOL     OW18745   2.412   5.077   3.284 -0.4668 -1.1844  0.2278
 2091SOL    HW118746   2.375   5.038   3.199  0.1113 -0.7689 -0.2210
 2091SOL    HW218747   2.365   5.037   3.362 -0.8018 -1.7919 -0.2789
 2092SOL     OW18748   2.245   0.328   1.420  0.3544  0.7123  0.1293
 2092SOL    HW118749   2.267   0.425   1.420  1.6635  0.4358  1.0408
 2092SOL    HW218750   2.327   0.275   1.396  0.0510 -0.2307  1.1077
 2093SOL     OW18751   5.030   2.755   5.973  0.5060  0.1151  0.0438
 2093SOL    HW118752   4.998   2.662   5.957 -0.3698  0.3627  0.2768
 2093SOL    HW218753   4.954   2.810   6.010  0.4915  1.3706 -1.7844
 2094SOL     OW18754   0.069   8.712   7.860 -0.1376 -0.4896  0.3167
 2094SOL    HW118755   0.088   8.751   7.770 -1.1546  0.5343  0.5406
 2094SOL    HW218756  -0.030   8.698   7.870  0.0170 -1.0749  1.0836
 2095SOL     OW18757   5.576   7.968   6.617 -0.4363 -0.0959  0.0021
 2095SOL    HW118758   5.580   7.946   6.519  3.1597  0.7303 -0.0947
 2095SOL    HW218759   5.638   7.907   6.667 -0.4825  1.0276  1.4615
 2096SOL     OW18760   2.102   0.088   5.053  0.6009  0.4317 -0.1823
 2096SOL    HW118761   2.008   0.097   5.020  0.3110  0.5102  0.6489
 2096SOL    HW218762   2.121   0.159   5.121  0.7080 -0.6209  0.9129
 2097SOL     OW18763   5.895   8.799   0.823  0.4377 -0.0530 -0.9403
 2097SOL    HW118764   5.922   8.764   0.733 -0.3004  2.8272 -2.3329
 2097SOL    HW218765   5.811   8.852   0.814  1.4493  1.9683  1.1055
 2098SOL     OW18766   3.225   7.558   7.732 -0.4536  0.3518 -0.3426
 2098SOL    HW118767   3.226   7.504   7.817  2.6513 -0.5660 -0.8915
 2098SOL    HW218768   3.184   7.504   7.659 -1.0109  0.2481  0.0478
 2099SOL     OW18769   3.041   7.552   5.127 -0.1319 -0.0110  0.4783
 2099SOL    HW118770   3.051   7.627   5.062 -1.0544 -1.1957 -1.0706
 2099SOL    HW218771   2.944   7.540   5.148  0.0420 -0.5584  0.9594
 2100SOL     OW18772   6.643   3.160   1.127  0.0929 -0.0259 -0.2307
 2100SOL    HW118773   6.724   3.218   1.120  0.5110 -0.7819 -1.8648
 2100SOL    HW218774   6.569   3.199   1.073  0.4581 -1.1412 -1.5501
 2101SOL     OW18775   0.832   5.660   8.089  0.3229 -0.1724 -0.1210
 2101SOL    HW118776   0.908   5.667   8.153  1.7021  2.2190 -1.9412
 2101SOL    HW218777   0.855   5.595   8.017 -0.0226 -0.6102  0.1544
 2102SOL     OW18778   7.329   3.055   2.839  0.4736 -0.0346  0.4539
 2102SOL    HW118779   7.231   3.075   2.843  0.4339 -0.4035  1.3802
 2102SOL    HW218780   7.343   2.960   2.812  0.5554 -0.2229  1.1460
 2103SOL     OW18781   0.356   3.930   6.274 -0.8926  0.4056  0.5225
 2103SOL    HW118782   0.263   3.947   6.240  0.5762 -0.1698 -4.0455
 2103SOL    HW218783   0.399   4.017   6.297 -0.5409  1.2539 -3.0887
 2104SOL     OW18784   0.731   7.640   7.372 -0.2227  0.2849 -0.7203
 2104SOL    HW118785   0.662   7.596   7.314  1.4873  0.4425 -2.9828
 2104SOL    HW218786   0.735   7.738   7.349 -0.5819  0.6534  0.7705
 2105SOL     OW18787   2.240   2.362   1.080  0.2786 -0.1499  0.1339
 2105SOL    HW118788   2.219   2.405   1.168 -0.2992 -0.0498 -0.0480
 2105SOL    HW218789   2.189   2.408   1.008  1.5238  0.4220 -0.4014
 2106SOL     OW18790   5.839   6.201   8.663  0.3240  0.0935 -0.1894
 2106SOL    HW118791   5.848   6.280   8.602  1.6949  1.8882  2.2703
 2106SOL    HW218792   5.919   6.195   8.722 -0.7776 -1.8813  1.1703
 2107SOL     OW18793   8.230   1.522   0.368  0.2327  0.5047  0.3315
 2107SOL    HW118794   8.267   1.534   0.276  0.9091  0.3742  0.5864
 2107SOL    HW218795   8.230   1.425   0.392 -0.6275  0.4649  0.1878
 2108SOL     OW18796   3.187   5.565   3.078  0.2532  0.2148  0.1410
 2108SOL    HW118797   3.104   5.617   3.098  0.0072  0.3542 -1.1965
 2108SOL    HW218798   3.265   5.627   3.074 -0.3470  0.8743 -3.5127
 2109SOL     OW18799   1.288   5.200   3.328  0.3926  0.1427 -0.3906
 2109SOL    HW118800   1.314   5.110   3.363  1.6584  1.5374  2.4870
 2109SOL    HW218801   1.321   5.271   3.391 -2.9312  2.5000 -1.1750
 2110SOL     OW18802   1.667   7.470   6.567 -0.1531  0.2423 -0.0916
 2110SOL    HW118803   1.618   7.387   6.592  0.8486 -0.7135 -1.2476
 2110SOL    HW218804   1.731   7.495   6.640 -1.0624  0.4843  0.6270
 2111SOL     OW18805   0.374   4.695   2.272 -0.3402  0.3270  0.3382
 2111SOL    HW118806   0.419   4.621   2.223  2.2294  2.2707 -0.2812
 2111SOL    HW218807   0.426   4.717   2.355 -0.8899  1.6682  0.3412
 2112SOL     OW18808   8.109   4.910   3.328  0.2142  0.7024  0.3162
 2112SOL    HW118809   8.135   4.968   3.405  0.2020 -0.4775  1.2314
 2112SOL    HW218810   8.066   4.826   3.363 -0.2438  0.3805 -0.9945
 2113SOL     OW18811   6.754   4.618   8.245 -0.4180  0.3364 -0.3896
 2113SOL    HW118812   6.663   4.613   8.203 -1.0229  0.3306  0.8729
 2113SOL    HW218813   6.755   4.559   8.326  0.2454  1.4786  0.4373
 2114SOL     OW18814   6.168   6.185   1.408  0.6528 -0.1648 -0.3499
 2114SOL    HW118815   6.071   6.160   1.410  0.6791 -0.1846  1.5528
 2114SOL    HW218816   6.179   6.272   1.359 -0.1190 -0.9788 -1.9836
 2115SOL     OW18817   5.836   6.758   1.372 -0.5617 -0.3399 -0.1154
 2115SOL    HW118818   5.873   6.669   1.346 -0.3938 -0.7535  1.4568
 2115SOL    HW218819   5.748   6.746   1.417 -0.7960  0.3300 -0.3872
 2116SOL     OW18820   6.632   4.957   7.876  0.3496  0.0739 -0.2182
 2116SOL    HW118821   6.706   4.960   7.943 -0.0820  2.7307  0.1750
 2116SOL    HW218822   6.631   5.041   7.822 -1.6351 -0.4312 -1.0479
 2117SOL     OW18823   3.226   6.884   7.544  0.3941  0.8102 -0.2471
 2117SOL    HW118824   3.307   6.824   7.547 -0.1744  0.0068 -0.8480
 2117SOL    HW218825   3.245   6.968   7.595  1.5651  0.5676 -0.2707
 2118SOL     OW18826   3.005   8.859   1.569 -0.1534 -0.1973 -0.2030
 2118SOL    HW118827   3.049   8.796   1.633 -1.0474 -0.5949  0.0287
 2118SOL    HW218828   3.074   8.898   1.508  0.8104  0.7394  1.4513
 2119SOL     OW18829   6.779   5.959   4.973  0.1427  0.6372  0.2633
 2119SOL    HW118830   6.720   5.890   4.931  1.3037  1.0863 -2.2103
 2119SOL    HW218831   6.787   6.038   4.912  0.8559  1.8841  1.9305
 2120SOL     OW18832   2.142   5.634   8.132 -0.0523 -0.3906  0.7235
 2120SOL    HW118833   2.167   5.562   8.198  0.8022 -1.3240 -0.5813
 2120SOL    HW218834   2.084   5.701   8.177  2.2384  0.1396  3.0284
 2121SOL     OW18835   8.052   3.353   1.848  0.8645  0.6251 -0.0087
 2121SOL    HW118836   8.080   3.320   1.758 -2.3041  1.0069 -1.2225
 2121SOL    HW218837   8.019   3.276   1.903 -0.0873  0.7888 -0.3335
 2122SOL     OW18838   3.505   6.965   0.770  0.1528 -0.1535 -0.1685
 2122SOL    HW118839   3.512   6.979   0.869 -0.2027 -1.4690  0.0554
 2122SOL    HW218840   3.428   7.018   0.735 -1.2180 -1.5363  0.6653
 2123SOL     OW18841   3.575   8.135   0.378 -0.4978 -0.4678 -0.5255
 2123SOL    HW118842   3.573   8.037   0.398  0.8316 -0.2030  1.0287
 2123SOL    HW218843   3.543   8.186   0.458 -0.5449  0.3874 -1.0861
 2124SOL     OW18844   0.598   3.655   2.729  0.1810  0.4564 -0.5412
 2124SOL    HW118845   0.696   3.665   2.712  0.3770 -0.7135 -0.1096
 2124SOL    HW218846   0.579   3.565   2.767 -0.9684  0.9582  0.1191
 2125SOL     OW18847   3.749   3.768   8.280  0.4524 -0.2109  0.2047
 2125SOL    HW118848   3.814   3.834   8.243  1.5834 -1.2954  0.2190
 2125SOL    HW218849   3.669   3.816   8.315 -0.2659  0.9005 -2.8616
 2126SOL     OW18850   2.554   7.328   1.468 -0.0161  0.0095 -0.1234
 2126SOL    HW118851   2.572   7.235   1.501  1.0283 -0.0657 -0.8864
 2126SOL    HW218852   2.634   7.385   1.485 -0.3488  0.5625 -0.4183
 2127SOL     OW18853   2.298   2.965   7.846  0.4399 -0.3895 -0.0294
 2127SOL    HW118854   2.201   2.943   7.841  0.6975 -1.1496 -2.3999
 2127SOL    HW218855   2.322   2.992   7.939 -1.8560 -1.0128  0.7615
 2128SOL     OW18856   8.070   4.661   6.103 -0.1476 -0.7758 -0.1137
 2128SOL    HW118857   8.108   4.653   6.010 -0.8381  1.1438 -0.5905
 2128SOL    HW218858   8.143   4.690   6.165 -0.5918  2.2002 -0.8967
 2129SOL     OW18859   0.212   4.392   2.815  0.9033 -0.2332  0.1001
 2129SOL    HW118860   0.168   4.371   2.728 -0.4454 -3.0901  1.4260
 2129SOL    HW218861   0.145   4.427   2.880  2.2044  3.5088 -0.4625
 2130SOL     OW18862   2.175   2.701   7.147  0.0923  0.1147  0.1320
 2130SOL    HW118863   2.182   2.602   7.135  1.2382  0.3474 -1.2465
 2130SOL    HW218864   2.086   2.733   7.115 -0.3816 -0.4946  0.8319
 2131SOL     OW18865   4.011   0.420   6.066  0.5807  0.5958 -0.7765
 2131SOL    HW118866   3.931   0.459   6.114 -0.6058 -0.0894 -2.1714
 2131SOL    HW218867   4.053   0.351   6.124 -0.3682  0.3378 -0.3744
 2132SOL     OW18868   6.169   4.151   4.126 -0.0782  0.1329 -0.5316
 2132SOL    HW118869   6.175   4.161   4.026 -1.5900  0.6798 -0.5709
 2132SOL    HW218870   6.117   4.227   4.164 -1.9441 -1.5517  0.3783
 2133SOL     OW18871   7.212   1.424   8.307 -0.9075 -0.2383 -0.1247
 2133SOL    HW118872   7.215   1.379   8.396 -0.1756 -1.9065 -0.9623
 2133SOL    HW218873   7.129   1.397   8.258 -0.8850 -0.0168 -0.2871
 2134SOL     OW18874   0.530   1.719   6.757 -0.2099  0.0233  0.4437
 2134SOL    HW118875   0.476   1.659   6.816  1.0261 -1.5141  0.0440
 2134SOL    HW218876   0.556   1.801   6.807 -1.0116 -0.2673  1.3378
 2135SOL     OW18877   0.666   0.108   8.299  0.2364  0.2656  0.1134
 2135SOL    HW118878   0.676   0.143   8.392 -1.9850 -1.7991  1.1943
 2135SOL    HW218879   0.637   0.013   8.302  0.2239  0.1307 -2.7160
 2136SOL     OW18880   3.696   5.389   4.318 -0.5542 -0.7962 -0.1062
 2136SOL    HW118881   3.721   5.323   4.246 -0.3389  0.0815 -0.8485
 2136SOL    HW218882   3.654   5.469   4.276 -0.0452 -0.0860  0.7131
 2137SOL     OW18883   7.417   2.441   1.054 -0.1000  0.4752 -0.3667
 2137SOL    HW118884   7.400   2.523   0.999 -0.6601  1.0905  0.7097
 2137SOL    HW218885   7.341   2.377   1.044  0.3298  0.0808 -1.1945
 2138SOL     OW18886   2.959   4.599   6.034  0.1713  0.3781  0.3063
 2138SOL    HW118887   2.918   4.535   5.969  0.8335  0.7443 -0.4770
 2138SOL    HW218888   2.890   4.625   6.102 -0.9209  0.9823 -0.9978
 2139SOL     OW18889   2.739   3.490   4.214  0.1198  0.2847 -0.0100
 2139SOL    HW118890   2.764   3.534   4.128  0.4300 -0.1198 -0.1304
 2139SOL    HW218891   2.719   3.559   4.283  0.1737  0.6095 -0.3201
 2140SOL     OW18892   2.939   7.907   6.200 -0.3301 -0.0717  0.1490
 2140SOL    HW118893   2.879   7.868   6.130 -0.0308  0.3681 -0.3599
 2140SOL    HW218894   3.031   7.918   6.163 -0.3865  1.0177  0.3051
 2141SOL     OW18895   3.996   7.538   0.108  0.3025  0.4493 -0.1414
 2141SOL    HW118896   3.995   7.458   0.049 -0.6421  1.4835 -1.5567
 2141SOL    HW218897   3.907   7.583   0.105  0.3027  0.6334  1.9386
 2142SOL     OW18898   1.267   2.635   4.633  0.3608 -0.0346  0.0625
 2142SOL    HW118899   1.254   2.650   4.535 -0.1384  1.3041  0.3146
 2142SOL    HW218900   1.331   2.703   4.669  1.7895 -1.5202  0.3766
 2143SOL     OW18901   7.987   3.956   6.525 -0.6757 -0.0719  0.8596
 2143SOL    HW118902   8.055   4.028   6.518  0.6933 -1.4553 -0.3358
 2143SOL    HW218903   7.992   3.914   6.616  1.5989 -1.6273  0.0563
 2144SOL     OW18904   4.803   2.517   6.231 -0.1210 -0.0636 -0.0241
 2144SOL    HW118905   4.716   2.484   6.268 -0.9636  0.6469 -1.2950
 2144SOL    HW218906   4.843   2.583   6.294  0.0262 -1.1774  1.0621
 2145SOL     OW18907   2.632   0.680   1.879  0.6480 -0.1250  0.5760
 2145SOL    HW118908   2.584   0.610   1.827  2.3742 -1.4685  0.7643
 2145SOL    HW218909   2.687   0.736   1.816  0.9545 -0.3052  0.6837
 2146SOL     OW18910   4.374   4.881   5.446  0.3161 -0.1845 -0.2987
 2146SOL    HW118911   4.449   4.940   5.476  0.2787 -0.9578  1.3607
 2146SOL    HW218912   4.375   4.797   5.500 -1.5276 -0.3546 -0.5135
 2147SOL     OW18913   0.664   4.432   3.897 -0.3148 -0.4829  0.3631
 2147SOL    HW118914   0.733   4.496   3.931 -0.2978 -0.4518  0.2701
 2147SOL    HW218915   0.660   4.438   3.797 -2.2392  1.3641  0.5016
 2148SOL     OW18916   3.538   3.179   0.345 -0.3928 -0.3173 -0.4648
 2148SOL    HW118917   3.522   3.242   0.421  0.7148  0.0848 -0.5603
 2148SOL    HW218918   3.489   3.093   0.362  0.0972 -0.3408  0.8481
 2149SOL     OW18919   5.273   7.663   2.514 -0.1765  0.7418  0.9182
 2149SOL    HW118920   5.238   7.589   2.457  2.2676  0.1667  0.1047
 2149SOL    HW218921   5.209   7.740   2.513 -2.8328 -1.3715  1.9049
 2150SOL     OW18922   2.529   3.415   3.714  0.0441 -0.0825  0.1283
 2150SOL    HW118923   2.511   3.510   3.739 -2.3566 -0.0476 -1.4927
 2150SOL    HW218924   2.614   3.409   3.663  0.1005  1.2168  0.0530
 2151SOL     OW18925   3.204   3.628   6.661 -0.0966 -0.4436 -0.1973
 2151SOL    HW118926   3.208   3.601   6.758  0.8407  1.5886  0.3436
 2151SOL    HW218927   3.211   3.546   6.604 -0.6129 -1.6630  1.4489
 2152SOL     OW18928   1.454   7.320   1.782  0.5176  0.0010  0.0120
 2152SOL    HW118929   1.429   7.252   1.714  0.0161  0.3172 -0.1219
 2152SOL    HW218930   1.471   7.408   1.736  4.1200 -0.7270 -0.2023
 2153SOL     OW18931   5.504   5.360   8.582 -0.1351  0.0506  0.1740
 2153SOL    HW118932   5.596   5.396   8.568 -0.0963  0.2910  1.0398
 2153SOL    HW218933   5.494   5.330   8.676 -0.8128 -0.3581 -0.0250
 2154SOL     OW18934   3.494   0.423   6.551 -0.7253  0.2146  0.1381
 2154SOL    HW118935   3.565   0.358   6.524 -0.5919  0.9236 -1.2338
 2154SOL    HW218936   3.419   0.373   6.595 -1.0032 -0.9886 -1.6377
 2155SOL     OW18937   3.568   7.101   7.826 -0.1394 -0.3059  0.0408
 2155SOL    HW118938   3.530   7.172   7.768  0.2895  0.5564  0.8076
 2155SOL    HW218939   3.620   7.036   7.770  0.6925  0.7956 -0.4725
 2156SOL     OW18940   1.367   3.119   3.668  0.0899 -0.4585 -0.1414
 2156SOL    HW118941   1.430   3.099   3.592  0.7450 -1.7544  0.7114
 2156SOL    HW218942   1.413   3.178   3.734 -0.0425 -0.3537 -0.1441
 2157SOL     OW18943   0.452   0.481   5.985  0.0900  0.5514 -0.5706
 2157SOL    HW118944   0.362   0.503   5.946 -0.0132  2.2150  0.5736
 2157SOL    HW218945   0.521   0.485   5.913 -0.6704 -0.2847 -1.3667
 2158SOL     OW18946   4.389   8.410   3.195 -0.2632 -0.2056 -0.0001
 2158SOL    HW118947   4.407   8.497   3.241 -0.0488  1.0462 -2.4086
 2158SOL    HW218948   4.297   8.379   3.217 -0.5969  0.9749  0.2954
 2159SOL     OW18949   5.305   2.767   2.291 -0.3706  0.2270  0.2365
 2159SOL    HW118950   5.305   2.857   2.246 -1.4466  1.6099  2.8592
 2159SOL    HW218951   5.384   2.761   2.352 -0.5496 -0.4296  0.3993
 2160SOL     OW18952   6.961   7.838   8.884 -0.3484 -0.5015  0.6450
 2160SOL    HW118953   6.995   7.908   8.822  0.6644 -1.8410 -0.3610
 2160SOL    HW218954   6.862   7.836   8.881 -0.3073 -0.6331 -1.0553
 2161SOL     OW18955   0.295   3.881   2.511  0.5937  0.2120 -0.4725
 2161SOL    HW118956   0.200   3.864   2.536  0.9441 -1.3928 -0.1777
 2161SOL    HW218957   0.300   3.910   2.416 -0.3342  1.9187 -0.0235
 2162SOL     OW18958   4.534   3.669   0.220  0.5151 -0.0525  0.0486
 2162SOL    HW118959   4.472   3.658   0.142 -0.1724  2.1158  0.2487
 2162SOL    HW218960   4.486   3.714   0.295  1.9692  0.4953  0.6820
 2163SOL     OW18961   8.177   7.094   1.424  0.1185  0.0547  0.4783
 2163SOL    HW118962   8.269   7.095   1.462 -0.2622 -1.4800  1.4698
 2163SOL    HW218963   8.119   7.034   1.479 -0.9200 -0.7006 -1.4100
 2164SOL     OW18964   6.978   4.282   4.965  0.8687 -0.1258  0.2397
 2164SOL    HW118965   7.026   4.346   4.905  0.2003  1.4116  1.3078
 2164SOL    HW218966   6.879   4.291   4.950  0.6413  0.9439  2.1948
 2165SOL     OW18967   7.939   3.838   4.006 -0.4326 -0.7137 -0.1036
 2165SOL    HW118968   7.948   3.741   3.982 -0.2504 -0.7669  0.1732
 2165SOL    HW218969   8.007   3.861   4.076 -0.2110 -0.2853 -0.4633
 2166SOL     OW18970   3.212   2.633   7.813  0.1538 -0.0682 -0.0807
 2166SOL    HW118971   3.243   2.728   7.813 -0.4414  0.1297 -0.3875
 2166SOL    HW218972   3.284   2.574   7.850  0.6827  0.4486 -0.2833
 2167SOL     OW18973   5.237   8.237   0.077 -0.2628 -0.3582  0.0841
 2167SOL    HW118974   5.139   8.256   0.077 -0.5406 -1.6480  1.8476
 2167SOL    HW218975   5.289   8.322   0.071 -1.4772  0.3172 -0.9710
 2168SOL     OW18976   8.584   1.520   7.011  0.0105 -0.1212 -0.4323
 2168SOL    HW118977   8.632   1.600   6.974  1.5088  0.1680  2.0165
 2168SOL    HW218978   8.590   1.444   6.946 -0.1168  1.2945 -2.1130
 2169SOL     OW18979   4.476   6.394   5.850  0.4843 -0.0635  0.2609
 2169SOL    HW118980   4.470   6.296   5.867 -1.6556  0.2163  1.2434
 2169SOL    HW218981   4.543   6.435   5.911 -2.1288 -0.1679  3.2990
 2170SOL     OW18982   6.777   5.521   6.672 -0.0002  0.6532  0.6362
 2170SOL    HW118983   6.693   5.559   6.710  0.4825  1.6120  0.7523
 2170SOL    HW218984   6.755   5.464   6.593 -0.6856  1.5873  0.1428
 2171SOL     OW18985   1.408   2.329   4.005 -0.4384  0.2172 -0.3656
 2171SOL    HW118986   1.424   2.427   4.015  0.8261 -0.1393  1.3278
 2171SOL    HW218987   1.408   2.305   3.908  1.4963  1.5370 -0.7181
 2172SOL     OW18988   2.032   7.799   6.891 -0.6299  0.0641 -0.3522
 2172SOL    HW118989   2.023   7.898   6.884 -0.1734  0.0444 -1.2825
 2172SOL    HW218990   2.075   7.763   6.809  0.2890 -0.7753  0.4716
 2173SOL     OW18991   2.814   2.386   1.288  1.0219  0.1285  0.6130
 2173SOL    HW118992   2.896   2.329   1.291  1.3207  0.4874 -0.4788
 2173SOL    HW218993   2.733   2.330   1.301  1.1903 -0.8538 -2.2324
 2174SOL     OW18994   1.443   4.544   7.053 -0.3678  0.3138 -0.3659
 2174SOL    HW118995   1.507   4.621   7.046 -1.7333  1.5325  0.3552
 2174SOL    HW218996   1.495   4.459   7.057  1.1637  1.1513 -1.5106
 2175SOL     OW18997   1.112   7.084   2.204  0.2827  0.4653  0.0292
 2175SOL    HW118998   1.169   7.140   2.144  2.9604 -1.9204  0.2314
 2175SOL    HW218999   1.121   6.988   2.177  0.2409 -0.4804  3.1920
 2176SOL     OW19000   4.117   6.112   8.558  0.1777 -0.6755  0.1703
 2176SOL    HW119001   4.170   6.091   8.641 -0.7988 -1.7674  0.5345
 2176SOL    HW219002   4.178   6.114   8.479  1.0037 -0.3751  0.8113
 2177SOL     OW19003   3.325   1.587   7.705  0.5534 -0.0590 -0.4491
 2177SOL    HW119004   3.405   1.532   7.683  1.5849  1.4869 -0.7027
 2177SOL    HW219005   3.325   1.607   7.803  1.4981  1.4344 -0.7278
 2178SOL     OW19006   5.208   6.767   0.178  0.2239 -0.2170  0.0448
 2178SOL    HW119007   5.165   6.788   0.266  1.0051  0.5406  0.2520
 2178SOL    HW219008   5.247   6.675   0.182  0.5664 -0.0510  0.6143
 2179SOL     OW19009   5.566   0.329   0.345 -0.1082 -0.0821  0.0224
 2179SOL    HW119010   5.495   0.396   0.369 -0.7169 -0.7530  0.1017
 2179SOL    HW219011   5.529   0.237   0.352  0.6043 -0.4148 -0.5092
 2180SOL     OW19012   1.821   2.821   3.853 -0.0115 -0.3458 -0.1033
 2180SOL    HW119013   1.789   2.915   3.869 -1.2548 -0.9004  0.7215
 2180SOL    HW219014   1.865   2.787   3.937  1.0628 -0.2600 -0.6257
 2181SOL     OW19015   4.146   2.456   8.858  0.4607 -0.3808 -0.0779
 2181SOL    HW119016   4.130   2.410   8.945 -1.4672  0.5597  0.0840
 2181SOL    HW219017   4.244   2.456   8.838  0.9002 -0.8354  1.9612
 2182SOL     OW19018   5.574   3.811   1.675  0.2191 -0.1708  0.1900
 2182SOL    HW119019   5.667   3.790   1.704  0.9195  2.3309 -0.1345
 2182SOL    HW219020   5.510   3.795   1.750  1.3051  0.9637  1.3722
 2183SOL     OW19021   6.997   6.515   4.379 -0.0082  0.1339  0.0251
 2183SOL    HW119022   7.051   6.595   4.349 -1.2465  0.9212 -0.1381
 2183SOL    HW219023   7.001   6.445   4.308  2.4385 -0.6479  0.8625
 2184SOL     OW19024   1.919   5.202   0.962 -0.2253 -0.1457  0.0330
 2184SOL    HW119025   1.845   5.177   1.025 -0.2849 -2.0876 -0.7551
 2184SOL    HW219026   2.006   5.202   1.010 -0.4129 -0.4992  0.3719
 2185SOL     OW19027   2.060   4.246   4.891  0.4257  0.0211  0.4356
 2185SOL    HW119028   2.115   4.163   4.897 -1.6442 -1.5124 -0.8909
 2185SOL    HW219029   2.101   4.309   4.825  1.6899 -0.2116  0.9982
 2186SOL     OW19030   1.551   8.659   1.137 -0.5866  0.2503  0.3327
 2186SOL    HW119031   1.518   8.646   1.043  2.4376  1.0609 -0.8958
 2186SOL    HW219032   1.489   8.720   1.186 -1.6995  0.5800 -1.4414
 2187SOL     OW19033   3.264   8.606   0.452 -0.0345 -0.4731  0.1929
 2187SOL    HW119034   3.293   8.658   0.533  0.3221 -1.2815  0.5865
 2187SOL    HW219035   3.343   8.556   0.415 -0.3881 -0.7749 -0.1478
 2188SOL     OW19036   6.099   8.954   6.055 -0.7669 -0.1158 -0.0014
 2188SOL    HW119037   6.053   9.042   6.044 -1.2052 -0.4493 -0.9070
 2188SOL    HW219038   6.165   8.941   5.982 -1.3333 -0.9166 -0.3839
 2189SOL     OW19039   8.925   4.064   5.239  0.2422 -0.2840 -0.2733
 2189SOL    HW119040   8.957   4.131   5.307 -0.1932  0.4520 -0.7894
 2189SOL    HW219041   8.887   4.112   5.160  0.5807 -1.1406 -0.9670
 2190SOL     OW19042   2.883   7.297   2.704  0.0682 -0.3221 -0.1485
 2190SOL    HW119043   2.853   7.251   2.787  3.1071 -1.3563  0.4241
 2190SOL    HW219044   2.916   7.389   2.728 -1.8535  0.5387 -0.6777
 2191SOL     OW19045   2.876   2.869   6.870  0.1019  0.2269  0.2534
 2191SOL    HW119046   2.818   2.936   6.916 -0.2134 -0.4678  0.8924
 2191SOL    HW219047   2.839   2.777   6.886 -0.7149  0.0405 -2.4012
 2192SOL     OW19048   1.511   1.464   6.207 -0.0916 -0.7330 -0.1396
 2192SOL    HW119049   1.592   1.431   6.255  0.0959 -1.1618 -0.7466
 2192SOL    HW219050   1.540   1.523   6.131 -0.4229  1.0874  1.1073
 2193SOL     OW19051   8.348   7.988   4.953 -0.5568 -0.0755  0.3710
 2193SOL    HW119052   8.372   7.891   4.966  2.1601  0.4571 -0.3517
 2193SOL    HW219053   8.319   8.002   4.858  1.6175  0.2724 -0.2755
 2194SOL     OW19054   8.723   5.632   8.319 -0.2375 -0.2631 -0.3164
 2194SOL    HW119055   8.647   5.662   8.262 -0.1819 -1.0295 -0.7938
 2194SOL    HW219056   8.787   5.578   8.264  0.0203 -0.6633  0.3723
 2195SOL     OW19057   8.028   4.523   6.755  0.1504 -0.1743  0.1862
 2195SOL    HW119058   8.104   4.545   6.694 -0.8717  0.1674 -0.9774
 2195SOL    HW219059   8.024   4.423   6.767 -0.4389 -0.3478 -1.3517
 2196SOL     OW19060   8.422   4.573   5.073 -0.7038 -0.3668  0.2550
 2196SOL    HW119061   8.506   4.605   5.115  1.2929 -1.8509 -2.4725
 2196SOL    HW219062   8.352   4.645   5.078  1.3105  1.5824  0.8732
 2197SOL     OW19063   5.175   6.620   7.189  0.2131  0.2117  0.1541
 2197SOL    HW119064   5.248   6.576   7.242 -0.6729  0.3535  1.5087
 2197SOL    HW219065   5.123   6.549   7.141  0.6209  0.0283 -0.0231
 2198SOL     OW19066   2.420   1.824   8.626  0.3041  0.3705 -0.3133
 2198SOL    HW119067   2.468   1.742   8.659  1.0036  0.7440 -0.3791
 2198SOL    HW219068   2.457   1.904   8.673  1.8750  1.0104 -2.5670
 2199SOL     OW19069   5.854   6.717   6.108  0.7090 -0.4093  0.1815
 2199SOL    HW119070   5.813   6.627   6.092  0.0653 -0.0617 -0.1470
 2199SOL    HW219071   5.918   6.711   6.184  0.8350 -1.1956  0.0233
 2200SOL     OW19072   4.049   1.311   1.789 -0.9073  0.9677  0.5438
 2200SOL    HW119073   4.126   1.277   1.843 -0.4976  1.0035 -0.0216
 2200SOL    HW219074   4.082   1.352   1.704 -1.5892  0.4929  0.0424
 2201SOL     OW19075   3.208   4.772   8.407 -0.4270  0.0523  0.0440
 2201SOL    HW119076   3.266   4.791   8.328  0.3470 -2.2281  0.0064
 2201SOL    HW219077   3.185   4.857   8.454  1.3863  1.1597 -1.0350
 2202SOL     OW19078   4.438   7.411   6.653  0.1397 -0.0398 -0.3189
 2202SOL    HW119079   4.483   7.494   6.689 -2.5123  1.4358 -0.2851
 2202SOL    HW219080   4.452   7.406   6.555  2.0056 -0.6511 -0.0393
 2203SOL     OW19081   0.938   2.718   5.344  0.0461  0.0672  0.6246
 2203SOL    HW119082   0.891   2.716   5.433  0.5725 -0.9133  0.8882
 2203SOL    HW219083   0.899   2.648   5.284 -0.0748  0.4981  0.1976
 2204SOL     OW19084   2.115   7.183   8.761  0.1209 -0.2273 -0.1534
 2204SOL    HW119085   2.103   7.085   8.777  0.4291 -0.0292  1.4267
 2204SOL    HW219086   2.055   7.213   8.687 -2.5038 -0.9672  1.5889
 2205SOL     OW19087   7.847   2.451   1.552  0.0283 -0.0541  0.2811
 2205SOL    HW119088   7.894   2.425   1.636  0.0600  2.6626  1.1701
 2205SOL    HW219089   7.873   2.390   1.478  0.3908 -2.1835  2.1227
 2206SOL     OW19090   0.375   3.894   6.786 -0.4369 -0.2330 -0.3879
 2206SOL    HW119091   0.381   3.853   6.695 -2.7133 -0.0450 -0.6462
 2206SOL    HW219092   0.297   3.856   6.835  0.2453  0.3187  1.1685
 2207SOL     OW19093   8.979   4.560   5.006 -0.4365 -0.1980 -0.2963
 2207SOL    HW119094   8.921   4.534   4.929 -0.3083  1.4487 -0.9533
 2207SOL    HW219095   9.048   4.488   5.021 -0.9120 -0.8639 -1.2400
 2208SOL     OW19096   7.984   7.450   4.845 -0.1725 -0.0609 -0.3309
 2208SOL    HW119097   8.058   7.461   4.911 -1.1154  0.6110  0.6319
 2208SOL    HW219098   8.022   7.428   4.755  1.3800  3.0617 -0.4967
 2209SOL     OW19099   3.948   0.924   5.171  0.4515 -0.1801 -0.2707
 2209SOL    HW119100   3.892   1.007   5.177  0.0319 -0.3612 -1.5231
 2209SOL    HW219101   4.044   0.947   5.189  0.2146  0.4257  0.2297
 2210SOL     OW19102   4.569   1.481   2.908 -0.6863 -0.1083 -0.5047
 2210SOL    HW119103   4.543   1.385   2.921 -0.8562 -0.1050 -0.8148
 2210SOL    HW219104   4.667   1.488   2.895 -0.7049 -0.2643 -0.7216
 2211SOL     OW19105   1.674   3.199   3.130  0.2122  0.0662 -0.4182
 2211SOL    HW119106   1.750   3.263   3.118 -0.2071  0.3943 -1.4038
 2211SOL    HW219107   1.624   3.191   3.044 -0.1510 -1.0655 -0.1036
 2212SOL     OW19108   3.079   8.438   2.321 -0.0575 -0.7302  0.0496
 2212SOL    HW119109   3.163   8.420   2.270 -1.4911 -1.6980 -2.0634
 2212SOL    HW219110   3.014   8.486   2.262 -1.3797 -0.9364  1.3065
 2213SOL     OW19111   6.774   5.501   2.448 -0.2093  0.6535  0.2702
 2213SOL    HW119112   6.788   5.492   2.350 -1.0240  0.9515  0.1202
 2213SOL    HW219113   6.776   5.598   2.474  0.8296  0.5293  0.6775
 2214SOL     OW19114   3.763   5.565   0.690  0.9323  0.1869 -0.3248
 2214SOL    HW119115   3.776   5.664   0.695  0.6063  0.1587  1.7715
 2214SOL    HW219116   3.666   5.544   0.702  1.4767 -0.5603  3.3141
 2215SOL     OW19117   5.008   3.791   3.076  0.0646  0.2553  0.4195
 2215SOL    HW119118   4.932   3.726   3.080 -0.4085  0.8103  0.5538
 2215SOL    HW219119   4.990   3.858   3.004  0.3169  0.5233  0.6074
 2216SOL     OW19120   0.617   4.697   5.382  0.2895 -0.4016  0.1579
 2216SOL    HW119121   0.684   4.724   5.313 -1.9289  2.8205 -0.8413
 2216SOL    HW219122   0.636   4.746   5.468 -0.5046  0.1770  0.0069
 2217SOL     OW19123   3.989   1.860   1.154 -0.0472  0.3330 -0.2027
 2217SOL    HW119124   4.047   1.786   1.119 -0.7439 -0.1212 -0.3987
 2217SOL    HW219125   3.903   1.861   1.104 -1.0950 -0.3898  1.5497
 2218SOL     OW19126   5.199   6.399   7.669  0.1202 -0.0445 -0.2122
 2218SOL    HW119127   5.218   6.346   7.586 -1.6534 -1.6562  0.3878
 2218SOL    HW219128   5.283   6.405   7.724  0.7880 -0.6922 -1.1379
 2219SOL     OW19129   6.444   8.467   6.874  0.0524 -0.6095 -0.0617
 2219SOL    HW119130   6.509   8.432   6.806 -1.2509 -1.4388 -0.9094
 2219SOL    HW219131   6.454   8.416   6.959  0.5926 -0.6596 -0.1518
 2220SOL     OW19132   5.857   5.077   5.740  0.5086  0.1022 -0.0438
 2220SOL    HW119133   5.825   5.153   5.684  0.4129 -0.1466 -0.3325
 2220SOL    HW219134   5.848   4.992   5.688 -1.3165 -0.3630  1.0073
 2221SOL     OW19135   4.229   4.045   2.189 -0.1204  0.0035 -0.0193
 2221SOL    HW119136   4.220   3.945   2.192 -0.2024 -0.0238 -0.9246
 2221SOL    HW219137   4.236   4.081   2.282  1.5982 -1.0001  0.2661
 2222SOL     OW19138   2.570   0.068   0.248  0.5811  0.0176 -0.1599
 2222SOL    HW119139   2.656   0.023   0.272  1.3196  0.9643 -1.0073
 2222SOL    HW219140   2.556   0.062   0.149  0.0639  0.5675 -0.1245
 2223SOL     OW19141   5.477   0.509   6.744  0.1964 -0.4473  0.2176
 2223SOL    HW119142   5.434   0.427   6.782 -0.4211  0.3807  1.3190
 2223SOL    HW219143   5.506   0.569   6.818 -3.1835  2.3148 -0.6021
 2224SOL     OW19144   1.207   1.330   5.087  0.6589  0.7264 -0.5246
 2224SOL    HW119145   1.136   1.360   5.150  2.2640  0.2228  1.5883
 2224SOL    HW219146   1.289   1.386   5.101  1.9237 -1.1439 -0.2759
 2225SOL     OW19147   8.627   8.012   7.172 -0.1371  0.0725  0.0345
 2225SOL    HW119148   8.617   8.023   7.271  2.7474 -0.0774  0.3780
 2225SOL    HW219149   8.576   7.931   7.143 -1.0164  0.1103  1.3868
 2226SOL     OW19150   2.702   8.278   0.781 -0.5286  0.2396 -0.6860
 2226SOL    HW119151   2.644   8.352   0.750 -1.7213 -0.3962 -0.0192
 2226SOL    HW219152   2.769   8.313   0.847  1.7679  1.5111 -3.5670
 2227SOL     OW19153   8.979   8.366   0.489  0.2553  0.4577 -0.2501
 2227SOL    HW119154   9.029   8.420   0.557  1.3644 -0.2887 -0.4507
 2227SOL    HW219155   9.041   8.341   0.414 -0.8945  1.0845 -1.4387
 2228SOL     OW19156   4.251   0.001   4.128  0.6602  0.8445  0.6919
 2228SOL    HW119157   4.241   0.040   4.036  0.8027  1.0470  0.7598
 2228SOL    HW219158   4.328  -0.063   4.129 -0.8139 -0.9604  0.0833
 2229SOL     OW19159   8.036   6.792   3.373 -0.1194 -0.1363 -0.5866
 2229SOL    HW119160   8.039   6.884   3.334  2.3303  0.0222 -0.1249
 2229SOL    HW219161   7.969   6.789   3.446  0.7140  1.6709  0.2796
 2230SOL     OW19162   1.336   6.237   7.546 -0.0375  0.7107 -0.4454
 2230SOL    HW119163   1.417   6.178   7.544  0.0662  0.6834  2.7721
 2230SOL    HW219164   1.337   6.296   7.465  2.8304  0.2344 -0.8270
 2231SOL     OW19165   2.042   2.602   2.473 -0.6475 -0.3060 -0.1449
 2231SOL    HW119166   1.947   2.596   2.504 -1.3599 -0.7956 -2.3270
 2231SOL    HW219167   2.101   2.628   2.550 -2.3632 -1.2543  1.5262
 2232SOL     OW19168   2.075   3.288   4.628 -0.0987 -0.4195  0.7490
 2232SOL    HW119169   1.996   3.267   4.686 -0.8639 -2.0609 -0.8309
 2232SOL    HW219170   2.082   3.219   4.556  1.9549  0.5174  0.0204
 2233SOL     OW19171   8.191   6.250   2.617  0.2753 -0.3725  0.2313
 2233SOL    HW119172   8.097   6.228   2.642  0.1394 -0.0553  0.0073
 2233SOL    HW219173   8.192   6.291   2.525  0.6000 -0.1180  0.3485
 2234SOL     OW19174   1.569   3.036   0.639 -0.1939  0.2237  0.1210
 2234SOL    HW119175   1.635   2.998   0.704  1.1672  1.1763 -0.6821
 2234SOL    HW219176   1.522   3.114   0.681  0.6857  0.8406 -0.0330
 2235SOL     OW19177   3.086   2.337   4.585 -0.0885 -0.3677  0.0773
 2235SOL    HW119178   3.078   2.336   4.485  0.7700 -2.7891 -0.0038
 2235SOL    HW219179   2.995   2.351   4.625 -0.5853 -0.3095 -1.0462
 2236SOL     OW19180   3.023   6.526   3.554  0.4550 -0.1071 -0.2534
 2236SOL    HW119181   3.116   6.535   3.521  1.0458 -2.5362  0.6493
 2236SOL    HW219182   2.972   6.610   3.535  2.5488  0.8887 -1.5684
 2237SOL     OW19183   0.387   6.119   2.533 -0.0276  0.6272  0.3064
 2237SOL    HW119184   0.340   6.145   2.617 -0.8984  0.3184 -0.0754
 2237SOL    HW219185   0.327   6.060   2.478  0.0851  1.7249 -1.0419
 2238SOL     OW19186   2.646   3.899   7.913 -0.0358 -0.8184 -0.4848
 2238SOL    HW119187   2.635   3.855   7.824  5.1612 -1.1822 -1.0707
 2238SOL    HW219188   2.655   3.829   7.984  0.7642 -0.6283 -0.3918
 2239SOL     OW19189   2.640   6.111   1.059  0.4785  0.7195  0.0483
 2239SOL    HW119190   2.661   6.104   0.961  1.2598  2.0722  0.1015
 2239SOL    HW219191   2.541   6.109   1.073  0.3743  0.1148 -0.7224
 2240SOL     OW19192   4.206   2.652   6.454  0.6072  0.1212 -0.3109
 2240SOL    HW119193   4.233   2.643   6.550 -0.7124 -0.7684 -0.0057
 2240SOL    HW219194   4.112   2.686   6.449  1.2607  1.8468 -1.3313
 2241SOL     OW19195   3.989   4.110   2.882 -1.0142 -0.0659  0.2425
 2241SOL    HW119196   4.077   4.157   2.876 -1.1566  0.1559 -0.1257
 2241SOL    HW219197   3.937   4.145   2.960 -1.5591  1.1415 -0.6535
 2242SOL     OW19198   3.943   7.330   8.137  0.0660  0.4557 -0.1777
 2242SOL    HW119199   3.893   7.293   8.216 -1.2470 -0.4263 -1.3829
 2242SOL    HW219200   4.037   7.296   8.137 -0.6579 -1.6274 -0.3775
 2243SOL     OW19201   0.505   5.459   1.353  0.1385  0.0027 -0.4925
 2243SOL    HW119202   0.503   5.552   1.390  1.9676  0.3679 -1.2350
 2243SOL    HW219203   0.500   5.393   1.427 -0.7600  0.6883  0.0694
 2244SOL     OW19204   0.606   5.399   3.904 -0.1969  0.2671 -0.5705
 2244SOL    HW119205   0.595   5.300   3.910  1.6976  0.0223 -0.8363
 2244SOL    HW219206   0.646   5.433   3.990 -0.7149  0.7850 -0.5315
 2245SOL     OW19207   8.921   3.121   8.133 -0.0174  0.3503 -0.1877
 2245SOL    HW119208   9.001   3.073   8.170 -1.2408 -0.4940  1.4513
 2245SOL    HW219209   8.925   3.217   8.161 -0.9455 -0.2831  2.2986
 2246SOL     OW19210   7.462   8.381   4.253 -0.0415  0.0048 -0.0908
 2246SOL    HW119211   7.481   8.285   4.234  1.6806  0.1841  0.5899
 2246SOL    HW219212   7.364   8.397   4.250 -0.4363 -2.0239  0.9339
 2247SOL     OW19213   4.979   4.912   8.484  0.2573 -0.0747  0.6880
 2247SOL    HW119214   4.886   4.878   8.490 -0.5431  1.8488 -0.3637
 2247SOL    HW219215   5.030   4.885   8.566 -1.7515  0.4111  2.1264
 2248SOL     OW19216   3.072   1.739   4.237 -0.0453  0.0380  0.3373
 2248SOL    HW119217   2.978   1.734   4.269 -0.8957  1.5864 -1.7973
 2248SOL    HW219218   3.094   1.656   4.186 -0.0231 -0.6214  1.4093
 2249SOL     OW19219   2.648   1.648   6.632 -0.1560 -0.1053  0.0000
 2249SOL    HW119220   2.679   1.619   6.542  0.9513  3.8725 -1.0076
 2249SOL    HW219221   2.614   1.742   6.627 -3.1622 -0.9043  3.1127
 2250SOL     OW19222   3.523   4.618   5.072 -0.1853 -0.2300  0.2646
 2250SOL    HW119223   3.496   4.525   5.096 -0.7750  0.5322  2.7051
 2250SOL    HW219224   3.602   4.644   5.128 -1.1077  1.3442  0.8404
 2251SOL     OW19225   4.605   8.750   6.498 -0.7620  0.1179 -0.5019
 2251SOL    HW119226   4.607   8.807   6.580  0.0651  0.8401 -1.0083
 2251SOL    HW219227   4.616   8.808   6.417 -1.3596 -0.6102 -1.1065
 2252SOL     OW19228   0.343   0.596   8.578 -0.1955 -0.0864  0.1706
 2252SOL    HW119229   0.408   0.553   8.516 -0.1197 -1.1203  0.9570
 2252SOL    HW219230   0.392   0.637   8.655 -0.4899 -1.2002  0.9642
 2253SOL     OW19231   6.120   2.482   0.749 -0.6765 -0.3328 -0.6722
 2253SOL    HW119232   6.199   2.471   0.688 -0.0740  0.0954  0.0230
 2253SOL    HW219233   6.066   2.561   0.720  0.5264  0.8860  0.3296
 2254SOL     OW19234   8.297   3.178   4.531  0.4759  0.5248  0.2797
 2254SOL    HW119235   8.255   3.261   4.495  0.6228  0.2187 -0.6200
 2254SOL    HW219236   8.370   3.202   4.594 -0.5372  1.0650  1.2659
 2255SOL     OW19237   7.245   5.412   8.284  0.1644  0.1482  0.2142
 2255SOL    HW119238   7.254   5.452   8.375 -0.0996 -0.0930  0.3447
 2255SOL    HW219239   7.334   5.374   8.255  0.2510  0.2361  0.3643
 2256SOL     OW19240   5.532   4.198   0.042 -0.2890 -1.0854  0.1129
 2256SOL    HW119241   5.459   4.247  -0.005  1.0546  1.5630  0.7203
 2256SOL    HW219242   5.614   4.196  -0.015 -0.3013 -2.5931  0.1292
 2257SOL     OW19243   0.437   6.890   8.682  0.6814 -0.8044  0.3695
 2257SOL    HW119244   0.383   6.846   8.753 -1.6869  2.0169  0.3930
 2257SOL    HW219245   0.414   6.849   8.593 -1.5111  0.2882  0.3880
 2258SOL     OW19246   2.129   1.660   0.001 -0.3411 -0.1019 -0.3542
 2258SOL    HW119247   2.121   1.560   0.008  0.8373 -0.1933 -0.2124
 2258SOL    HW219248   2.120   1.688  -0.094  2.9476 -0.6996 -0.8842
 2259SOL     OW19249   8.193   1.536   0.791  0.3354 -0.3245 -0.4129
 2259SOL    HW119250   8.145   1.591   0.860 -0.4794 -1.0456 -0.4041
 2259SOL    HW219251   8.219   1.448   0.830 -1.5281 -1.3733 -1.4689
 2260SOL     OW19252   5.245   1.088   8.427 -0.3270 -0.3339 -0.4900
 2260SOL    HW119253   5.318   1.045   8.480 -0.1007  0.1926 -0.3671
 2260SOL    HW219254   5.156   1.069   8.470 -0.0379  1.0889  0.7677
 2261SOL     OW19255   8.147   6.859   8.641 -0.3675  0.2844 -0.3823
 2261SOL    HW119256   8.246   6.849   8.655 -0.3869 -2.2410 -1.8213
 2261SOL    HW219257   8.130   6.937   8.581  0.6021  1.8479  1.2978
 2262SOL     OW19258   5.510   4.898   5.756  1.0468 -0.2522 -0.0253
 2262SOL    HW119259   5.449   4.820   5.774  0.1702  0.4927  0.2957
 2262SOL    HW219260   5.474   4.951   5.680  2.1598 -0.6870 -0.8587
 2263SOL     OW19261   8.645   2.776   3.860 -0.3285  0.2654 -0.0562
 2263SOL    HW119262   8.598   2.749   3.777  1.9446 -2.0603 -0.6196
 2263SOL    HW219263   8.581   2.772   3.937 -1.8868  0.3814 -1.3159
 2264SOL     OW19264   7.832   5.899   7.397  0.5050 -0.4180 -0.0485
 2264SOL    HW119265   7.857   5.993   7.421  1.2068 -0.1228 -1.8296
 2264SOL    HW219266   7.913   5.840   7.403  0.0162 -0.9700  1.3037
 2265SOL     OW19267   7.969   4.473   6.283  0.0355  0.0178 -0.1644
 2265SOL    HW119268   8.016   4.532   6.218  1.3868 -1.4077 -0.5038
 2265SOL    HW219269   7.973   4.378   6.251  0.1235 -0.6035  1.6358
 2266SOL     OW19270   7.822   8.074   7.542  0.0921  0.2095  0.6659
 2266SOL    HW119271   7.722   8.063   7.544  0.1658 -0.4366  1.0540
 2266SOL    HW219272   7.858   8.060   7.635  0.4661  1.1961  0.6733
 2267SOL     OW19273   3.005   1.671   2.744  0.5654  0.2388 -0.3390
 2267SOL    HW119274   2.967   1.579   2.734 -0.2698  0.7288 -1.8666
 2267SOL    HW219275   3.018   1.712   2.654 -1.3353  2.5173  0.3391
 2268SOL     OW19276   3.229   0.026   0.701 -0.0711  0.3247  0.7060
 2268SOL    HW119277   3.242   0.006   0.798 -1.9354  1.6794  1.2782
 2268SOL    HW219278   3.181   0.113   0.692  0.5759  0.4795 -1.4634
 2269SOL     OW19279   7.781   0.863   6.622 -0.7159 -0.3005 -0.1079
 2269SOL    HW119280   7.724   0.813   6.557 -0.4827 -0.0527 -0.5085
 2269SOL    HW219281   7.741   0.952   6.640 -0.2027  0.0747 -0.7789
 2270SOL     OW19282   0.732   7.448   3.159 -0.2940 -0.3420 -0.0185
 2270SOL    HW119283   0.736   7.547   3.153  0.3551 -0.3454  0.3777
 2270SOL    HW219284   0.797   7.407   3.095  0.8283 -0.4812  1.1915
 2271SOL     OW19285   5.481   0.398   8.202 -0.5343 -0.5118 -0.0237
 2271SOL    HW119286   5.426   0.333   8.150 -1.2116  0.4135 -0.4820
 2271SOL    HW219287   5.431   0.484   8.213  0.4352  0.0226  0.3638
 2272SOL     OW19288   5.430   1.882   2.060  0.7078 -0.0042  0.1939
 2272SOL    HW119289   5.389   1.821   1.991  1.8507  1.3076 -1.7057
 2272SOL    HW219290   5.518   1.845   2.089  1.2056  0.5081 -0.6442
 2273SOL     OW19291   3.052   6.074   3.854  0.5822  0.6149  0.0360
 2273SOL    HW119292   3.054   6.148   3.786 -0.1646  1.1543  0.5990
 2273SOL    HW219293   2.979   6.091   3.920  1.7171  0.4200  1.3573
 2274SOL     OW19294   4.837   2.746   7.909 -0.2038 -0.1878  0.4701
 2274SOL    HW119295   4.916   2.739   7.848 -0.0382  0.3513  0.6175
 2274SOL    HW219296   4.839   2.671   7.975  0.9772  0.6242  1.3830
 2275SOL     OW19297   7.951   6.850   4.982 -0.3690  0.2910 -0.0859
 2275SOL    HW119298   7.876   6.910   4.956 -0.8837 -0.1051  0.4588
 2275SOL    HW219299   8.038   6.890   4.954 -0.6538  1.6767  0.9509
 2276SOL     OW19300   4.128   2.752   5.512  0.0597  0.2028  0.2196
 2276SOL    HW119301   4.042   2.763   5.561  1.2256 -0.6656  2.5305
 2276SOL    HW219302   4.196   2.815   5.549  1.3757 -1.4926  0.7631
 2277SOL     OW19303   4.201   3.201   8.845  0.1173  0.3797 -0.8824
 2277SOL    HW119304   4.247   3.234   8.762 -0.6475  0.4748 -1.2705
 2277SOL    HW219305   4.129   3.136   8.819  1.0299 -0.9330 -0.1823
 2278SOL     OW19306   1.263   0.113   6.210  0.0734  0.3025 -0.2186
 2278SOL    HW119307   1.308   0.025   6.226 -1.0027 -0.1457  0.4917
 2278SOL    HW219308   1.260   0.165   6.296 -0.4867  0.4503 -0.3223
 2279SOL     OW19309   3.994   4.560   2.858 -0.1293 -0.3785 -0.7019
 2279SOL    HW119310   3.896   4.562   2.880  0.0858  3.1530  0.1898
 2279SOL    HW219311   4.033   4.474   2.891 -2.9091 -1.9439 -1.2248
 2280SOL     OW19312   1.294   5.827   2.258  0.5436 -0.1136  0.3127
 2280SOL    HW119313   1.315   5.897   2.326  0.6995  0.0442  0.1062
 2280SOL    HW219314   1.285   5.738   2.303 -0.9567  0.2532  0.7427
 2281SOL     OW19315   8.218   5.504   5.191  0.0211  0.1197 -0.0418
 2281SOL    HW119316   8.120   5.523   5.182 -0.1767 -0.1232  1.4220
 2281SOL    HW219317   8.249   5.449   5.113 -1.2367 -0.6881  0.0073
 2282SOL     OW19318   4.881   1.498   1.727 -0.7577 -0.1868 -0.1728
 2282SOL    HW119319   4.876   1.531   1.633  0.3524  1.5539  0.3508
 2282SOL    HW219320   4.877   1.398   1.728 -1.0488 -0.2005 -2.0437
 2283SOL     OW19321   5.195   1.449   2.283  0.1678 -0.1081  0.2785
 2283SOL    HW119322   5.294   1.449   2.296 -0.0084  0.0741  1.6219
 2283SOL    HW219323   5.149   1.435   2.370 -0.9860 -1.2888 -0.4986
 2284SOL     OW19324   2.679   3.738   2.275  0.1684  0.1491  0.2418
 2284SOL    HW119325   2.632   3.659   2.236  0.1618  0.0374  0.4726
 2284SOL    HW219326   2.630   3.768   2.357  0.5675 -0.0487  0.5567
 2285SOL     OW19327   3.558   3.400   8.837  0.0592  0.2596 -0.4869
 2285SOL    HW119328   3.472   3.378   8.792 -0.6196 -0.1460  0.9904
 2285SOL    HW219329   3.576   3.335   8.910  0.1074  2.1343  1.2192
 2286SOL     OW19330   1.533   2.358   3.208 -0.5146  0.1017  0.2618
 2286SOL    HW119331   1.540   2.396   3.117  0.9597  0.7053  0.6142
 2286SOL    HW219332   1.520   2.431   3.275 -0.3567 -0.2310  0.6639
 2287SOL     OW19333   6.035   2.577   6.114 -0.1208 -0.5535 -0.5021
 2287SOL    HW119334   5.956   2.537   6.069  0.2609 -1.3091 -0.5080
 2287SOL    HW219335   6.005   2.634   6.191 -0.7820  0.9835 -1.8890
 2288SOL     OW19336   6.379   4.531   5.069  0.5338 -0.2105  0.4088
 2288SOL    HW119337   6.304   4.534   5.004  0.8789  0.7149  0.0475
 2288SOL    HW219338   6.378   4.444   5.118  0.8933 -1.3536 -1.5760
 2289SOL     OW19339   8.675   7.049   4.663 -0.0717 -0.3720 -0.2010
 2289SOL    HW119340   8.760   7.097   4.682  0.1778 -1.1012  0.5757
 2289SOL    HW219341   8.685   6.993   4.581  0.9703 -2.2577  1.1622
 2290SOL     OW19342   6.338   5.277   1.566 -0.5591  0.1487  0.4525
 2290SOL    HW119343   6.383   5.365   1.553 -2.2260  1.2199  1.6923
 2290SOL    HW219344   6.318   5.236   1.476 -2.5164  2.4868 -0.2473
 2291SOL     OW19345   7.280   1.921   6.073 -0.0834  0.2233 -0.2890
 2291SOL    HW119346   7.372   1.882   6.067  0.4978  1.4568  0.3770
 2291SOL    HW219347   7.233   1.883   6.152  0.1834  0.2682 -0.1077
 2292SOL     OW19348   0.892   1.304   2.479  0.2098  0.4954 -0.3897
 2292SOL    HW119349   0.923   1.315   2.574 -0.3637 -0.8269 -0.0319
 2292SOL    HW219350   0.923   1.381   2.424  1.8067  0.5418  0.5557
 2293SOL     OW19351   4.085   8.306   5.038  0.0925 -0.3197  0.3289
 2293SOL    HW119352   4.053   8.258   5.119  0.2464 -2.1110 -0.6551
 2293SOL    HW219353   4.182   8.286   5.024 -0.8531 -3.2687 -2.5189
 2294SOL     OW19354   3.441   6.936   4.314 -1.0760 -1.1837  0.2035
 2294SOL    HW119355   3.380   7.012   4.338 -0.5059 -0.3695 -0.8253
 2294SOL    HW219356   3.532   6.973   4.295  0.0782 -2.5125  2.8934
 2295SOL     OW19357   4.689   8.200   8.040  0.3331 -0.4778  0.0449
 2295SOL    HW119358   4.663   8.296   8.037  2.1122 -0.0106 -0.6852
 2295SOL    HW219359   4.608   8.143   8.024 -0.6649  0.8910  0.1555
 2296SOL     OW19360   3.251   3.427   6.455 -0.1539 -0.2204 -0.4757
 2296SOL    HW119361   3.163   3.413   6.409 -0.2410 -1.0291 -0.0790
 2296SOL    HW219362   3.314   3.474   6.393 -1.2930  1.5947 -0.2891
 2297SOL     OW19363   1.893   2.152   7.982  0.6543  0.0576  0.3394
 2297SOL    HW119364   1.864   2.207   7.904  0.3269  0.0795  0.4735
 2297SOL    HW219365   1.814   2.103   8.019  1.1891 -1.4461 -0.5164
 2298SOL     OW19366   6.649   5.546   1.754  0.3601 -0.2826 -1.2916
 2298SOL    HW119367   6.694   5.617   1.700  2.1466 -0.4034 -0.0229
 2298SOL    HW219368   6.713   5.512   1.823 -1.5198 -0.8765  0.2022
 2299SOL     OW19369   2.548   6.490   1.799 -0.0325 -0.1348  0.4828
 2299SOL    HW119370   2.524   6.530   1.711  1.3324 -0.9176 -0.2554
 2299SOL    HW219371   2.464   6.468   1.850 -0.8280  0.0612 -0.7302
 2300SOL     OW19372   5.687   3.363   7.438  0.0992  0.3804  0.3750
 2300SOL    HW119373   5.785   3.363   7.417  0.2655 -2.2050  0.9471
 2300SOL    HW219374   5.637   3.322   7.362 -0.3158 -0.1440  0.9245
 2301SOL     OW19375   1.255   1.400   6.150  0.3094 -0.0566 -0.8621
 2301SOL    HW119376   1.207   1.484   6.124 -0.5804 -0.1079  0.5584
 2301SOL    HW219377   1.344   1.424   6.189  0.4927  0.1676 -1.4140
 2302SOL     OW19378   4.307   1.578   3.641 -0.4180  0.1285 -0.0189
 2302SOL    HW119379   4.381   1.638   3.669  1.0635 -1.7509  0.2004
 2302SOL    HW219380   4.225   1.632   3.621  1.0029  2.2202 -0.2632
 2303SOL     OW19381   7.364   7.294   3.151  0.1546 -0.8703 -0.0183
 2303SOL    HW119382   7.321   7.375   3.191 -1.0311 -0.8196 -1.3366
 2303SOL    HW219383   7.434   7.258   3.213 -1.0977 -0.3556  1.7139
 2304SOL     OW19384   2.214   5.512   7.872  0.0581 -0.3028  0.3290
 2304SOL    HW119385   2.224   5.543   7.966 -0.6434 -1.3665  0.7685
 2304SOL    HW219386   2.128   5.548   7.834  0.3625  0.1628  0.0780
 2305SOL     OW19387   7.138   6.813   2.731  0.3447 -0.6866 -0.5135
 2305SOL    HW119388   7.178   6.897   2.694  0.1970 -1.0959 -1.6383
 2305SOL    HW219389   7.177   6.734   2.684 -0.8343 -1.1507 -0.7406
 2306SOL     OW19390   3.983   5.242   3.678 -0.7755  0.4618 -0.9380
 2306SOL    HW119391   3.916   5.184   3.725 -0.4599 -0.2012 -1.3040
 2306SOL    HW219392   3.971   5.337   3.708  0.3436 -0.1427  1.5636
 2307SOL     OW19393   3.169   0.733   2.273 -0.2813  0.8068  0.3841
 2307SOL    HW119394   3.093   0.776   2.321 -2.0713 -0.8065 -0.9093
 2307SOL    HW219395   3.231   0.803   2.239 -2.6844  2.3437 -0.9497
 2308SOL     OW19396   7.530   1.779   6.005  0.2620 -0.2179 -0.1265
 2308SOL    HW119397   7.619   1.807   5.969 -1.3003  2.3498 -2.1913
 2308SOL    HW219398   7.507   1.688   5.971  1.7221 -0.5376 -0.2734
 2309SOL     OW19399   6.735   1.128   0.923  0.6383 -0.5920 -0.3713
 2309SOL    HW119400   6.820   1.101   0.969  0.7866  2.9961  1.6331
 2309SOL    HW219401   6.671   1.162   0.992 -0.8445  0.6969 -2.3762
 2310SOL     OW19402   1.062   2.448   7.413 -0.5473 -0.1692  0.0946
 2310SOL    HW119403   1.022   2.494   7.333  1.0464 -0.6869 -1.0221
 2310SOL    HW219404   1.103   2.362   7.384  2.0541  0.7158  1.0873
 2311SOL     OW19405   1.106   4.161   8.671 -0.7842 -0.3876  0.2406
 2311SOL    HW119406   1.064   4.174   8.581  0.2239 -1.9053 -0.4763
 2311SOL    HW219407   1.063   4.223   8.737 -1.1648  1.1455 -1.3907
 2312SOL     OW19408   1.050   6.070   0.439 -0.0408 -0.2856  0.5144
 2312SOL    HW119409   1.120   6.007   0.472 -0.8010 -2.0938 -1.1751
 2312SOL    HW219410   0.966   6.058   0.492 -0.1667 -0.6690  0.2325
 2313SOL     OW19411   0.807   4.849   2.764 -0.4909  0.8506 -0.0493
 2313SOL    HW119412   0.833   4.899   2.847 -0.3003 -1.6400  1.4338
 2313SOL    HW219413   0.869   4.875   2.690 -0.0767  2.4256  0.8229
 2314SOL     OW19414   2.820   1.272   2.517 -0.1948 -0.3583  0.7303
 2314SOL    HW119415   2.735   1.246   2.470 -0.3878 -0.0483  0.9018
 2314SOL    HW219416   2.851   1.361   2.483  1.4075 -1.5886 -1.1093
 2315SOL     OW19417   1.159   1.496   1.295 -0.2685 -0.0798 -0.0785
 2315SOL    HW119418   1.247   1.447   1.296 -0.3569 -0.2353  0.8998
 2315SOL    HW219419   1.084   1.431   1.305 -0.3790  0.2582  1.3695
 2316SOL     OW19420   8.261   2.880   5.136 -0.6756 -0.1276 -0.3497
 2316SOL    HW119421   8.169   2.895   5.102 -1.6155 -1.7243  1.4141
 2316SOL    HW219422   8.259   2.816   5.213  1.6462  1.3554  1.0285
 2317SOL     OW19423   8.109   8.568   8.658 -0.2786 -0.0300 -0.2061
 2317SOL    HW119424   8.144   8.514   8.734  2.2773 -1.7230 -2.4963
 2317SOL    HW219425   8.026   8.527   8.622  0.3946 -1.1797 -0.4719
 2318SOL     OW19426   1.404   0.200   4.774  0.2976  0.3183 -0.4270
 2318SOL    HW119427   1.453   0.193   4.861  0.0009 -1.0546 -0.3516
 2318SOL    HW219428   1.444   0.272   4.718  0.4763  1.2374  0.8586
 2319SOL     OW19429   8.489   7.875   3.156  0.5699  0.8883  0.4054
 2319SOL    HW119430   8.541   7.920   3.228  3.5493  0.0844 -1.1872
 2319SOL    HW219431   8.479   7.936   3.078  1.4788  0.0844 -0.3467
 2320SOL     OW19432   2.725   4.248   7.628 -0.6880 -0.2434  0.1183
 2320SOL    HW119433   2.639   4.197   7.619 -0.3335 -0.7762 -0.2809
 2320SOL    HW219434   2.783   4.203   7.695 -0.5387 -0.1277  0.0660
 2321SOL     OW19435   7.035   2.405   2.656  0.2692 -0.1294  0.0752
 2321SOL    HW119436   7.011   2.319   2.699  1.1007  0.1074  1.0395
 2321SOL    HW219437   7.064   2.389   2.561  0.4864 -0.9096  0.2763
 2322SOL     OW19438   5.170   8.466   7.883  0.0276 -0.3681  0.4777
 2322SOL    HW119439   5.201   8.522   7.806 -0.6993  0.0156  0.4602
 2322SOL    HW219440   5.236   8.472   7.958  0.3896 -0.1916  0.1465
 2323SOL     OW19441   6.013   6.928   4.138 -0.0181  0.5379  1.4931
 2323SOL    HW119442   6.094   6.878   4.106  0.0334  1.2396  0.4853
 2323SOL    HW219443   5.939   6.918   4.072 -0.0513  1.6602  1.3461
 2324SOL     OW19444   1.825   2.470   5.700  0.0609  0.1527  0.4048
 2324SOL    HW119445   1.863   2.549   5.747 -0.2435 -0.0784  1.0422
 2324SOL    HW219446   1.783   2.500   5.614 -0.6968  0.7960  0.9875
 2325SOL     OW19447   1.362   1.614   4.146  0.3244  0.9755 -0.4427
 2325SOL    HW119448   1.310   1.602   4.061  0.0156  0.0966 -0.1275
 2325SOL    HW219449   1.300   1.614   4.224  0.8172 -0.2682 -0.0470
 2326SOL     OW19450   3.055   5.774   3.201 -0.0182  0.4458 -0.2532
 2326SOL    HW119451   3.122   5.805   3.268  0.8043 -0.2319 -0.7495
 2326SOL    HW219452   3.037   5.848   3.136 -0.0314  0.7524  0.0964
 2327SOL     OW19453   7.619   0.337   1.754  0.3024  0.2640  0.2368
 2327SOL    HW119454   7.595   0.402   1.826 -0.0966 -1.2812  1.5312
 2327SOL    HW219455   7.547   0.336   1.684  0.6486  1.7012 -0.1626
 2328SOL     OW19456   5.426   5.804   8.358 -0.2691 -0.3700  0.4206
 2328SOL    HW119457   5.400   5.711   8.386  0.7931 -0.4290  1.2532
 2328SOL    HW219458   5.361   5.838   8.290 -0.7154 -1.6908  0.1717
 2329SOL     OW19459   1.878   2.407   2.138  0.3567 -0.3117 -0.4317
 2329SOL    HW119460   1.825   2.364   2.211 -0.0948 -1.3833 -1.3790
 2329SOL    HW219461   1.966   2.437   2.174 -0.5588  0.7789  0.9750
 2330SOL     OW19462   3.545   5.194   0.193 -0.1338  0.6274  0.0319
 2330SOL    HW119463   3.611   5.151   0.131  0.4743 -0.1899  1.2284
 2330SOL    HW219464   3.474   5.239   0.139 -0.6378 -1.6410 -1.2827
 2331SOL     OW19465   0.908   5.566   1.070  0.0758 -0.1978  0.5317
 2331SOL    HW119466   0.959   5.652   1.069 -0.7911  0.3128 -0.2425
 2331SOL    HW219467   0.946   5.506   1.141  0.1712  1.1311  1.6296
 2332SOL     OW19468   0.354   3.808   4.552  0.3014  0.1355  0.5369
 2332SOL    HW119469   0.334   3.724   4.503 -3.3083  1.4402 -0.3969
 2332SOL    HW219470   0.404   3.871   4.493 -1.9026  0.7474 -0.7524
 2333SOL     OW19471   1.907   8.982   7.025  0.3339  0.1079 -0.2465
 2333SOL    HW119472   1.853   8.920   7.082  0.9109 -0.8082 -0.6941
 2333SOL    HW219473   2.003   8.980   7.053  0.7916 -1.0549 -1.8401
 2334SOL     OW19474   6.560   5.093   4.623 -0.1713  0.7995  0.2303
 2334SOL    HW119475   6.601   5.115   4.712  1.8362  2.7777 -1.1332
 2334SOL    HW219476   6.555   5.176   4.568 -2.1078 -0.2689 -1.2482
 2335SOL     OW19477   0.853   3.589   3.875  0.1073  0.5222 -0.2441
 2335SOL    HW119478   0.922   3.546   3.818  1.3508  0.4797  1.2380
 2335SOL    HW219479   0.781   3.629   3.818  0.2200 -1.3334 -1.7158
 2336SOL     OW19480   0.637   5.356   6.417 -0.1600  0.1040  0.3773
 2336SOL    HW119481   0.690   5.441   6.414 -0.2873  0.2015  0.8142
 2336SOL    HW219482   0.545   5.373   6.383 -0.0616  0.0495  0.0868
 2337SOL     OW19483   7.632   4.421   4.050 -0.1253  0.0667  0.6341
 2337SOL    HW119484   7.613   4.515   4.022  1.0953  0.6270  1.6683
 2337SOL    HW219485   7.556   4.387   4.106 -0.3033  0.6178  0.7265
 2338SOL     OW19486   4.674   1.804   2.097 -0.4782 -0.1093 -0.2074
 2338SOL    HW119487   4.708   1.753   2.018 -2.0271 -0.1959 -0.8532
 2338SOL    HW219488   4.746   1.812   2.166  0.2575 -1.8416 -0.7470
 2339SOL     OW19489   5.387   2.116   1.867  0.2102 -0.2338  0.2897
 2339SOL    HW119490   5.454   2.076   1.930 -0.2955  0.4430  1.2713
 2339SOL    HW219491   5.323   2.046   1.836  0.4787 -0.5734  0.5060
 2340SOL     OW19492   5.736   5.090   1.960  0.0406  0.3146 -0.6034
 2340SOL    HW119493   5.770   4.996   1.964  1.3937  0.8270  0.2310
 2340SOL    HW219494   5.666   5.097   1.889 -0.5741 -1.4754 -0.2014
 2341SOL     OW19495   3.255   8.785   6.790 -0.2660  0.1913  0.1632
 2341SOL    HW119496   3.303   8.698   6.790 -0.9952 -0.2254 -0.7887
 2341SOL    HW219497   3.210   8.798   6.701 -1.3829  0.8533  0.8115
 2342SOL     OW19498   6.781   8.133   2.894 -0.2816  0.5074  0.2235
 2342SOL    HW119499   6.874   8.133   2.858 -0.0266  0.7343  0.8852
 2342SOL    HW219500   6.719   8.091   2.827 -0.0214  2.1081 -1.0490
 2343SOL     OW19501   7.666   7.900   3.920  0.2863 -0.0372  1.3022
 2343SOL    HW119502   7.670   7.984   3.973 -1.5704  0.1670  1.1661
 2343SOL    HW219503   7.611   7.914   3.838  1.7270 -0.8154  0.1757
 2344SOL     OW19504   5.860   5.087   7.606  0.3847  0.0258  0.0312
 2344SOL    HW119505   5.904   5.023   7.670 -1.6136 -1.3544  0.0737
 2344SOL    HW219506   5.824   5.165   7.657  1.4236  0.3896  0.2039
 2345SOL     OW19507   0.676   1.909   5.007  0.0021 -0.2059  0.7170
 2345SOL    HW119508   0.658   2.006   5.019 -1.3234 -0.1547 -1.4472
 2345SOL    HW219509   0.603   1.868   4.952  1.7065 -1.9614 -0.2970
 2346SOL     OW19510   5.404   4.384   6.670  0.1836 -0.3252 -0.5997
 2346SOL    HW119511   5.456   4.376   6.585 -1.5250 -0.4516 -1.6543
 2346SOL    HW219512   5.355   4.299   6.687  2.7627 -1.3707  2.0564
 2347SOL     OW19513   6.476   7.254   1.973  0.0894  0.1415 -0.0822
 2347SOL    HW119514   6.503   7.160   1.992  1.1744 -0.1470 -2.8606
 2347SOL    HW219515   6.555   7.314   1.985 -0.6771  0.7686  1.9936
 2348SOL     OW19516   2.073   5.747   5.636 -0.6005 -0.0897 -0.3665
 2348SOL    HW119517   2.160   5.725   5.592 -0.2183 -0.0419  0.3493
 2348SOL    HW219518   2.060   5.846   5.637  1.2153  0.2041  2.9689
 2349SOL     OW19519   4.823   1.471   3.248  0.3252  0.8312  0.3312
 2349SOL    HW119520   4.852   1.411   3.323  0.0053  2.0649  1.4722
 2349SOL    HW219521   4.738   1.518   3.275 -0.4417  0.3822 -1.2921
 2350SOL     OW19522   1.629   4.530   6.261 -0.0166 -0.1750  0.5845
 2350SOL    HW119523   1.653   4.454   6.201  0.4053  0.6242 -0.2897
 2350SOL    HW219524   1.533   4.524   6.288 -0.4615 -0.0610 -0.9238
 2351SOL     OW19525   0.898   6.759   2.913 -0.0313 -0.1029  0.0238
 2351SOL    HW119526   0.826   6.745   2.982  0.4222 -0.8535  0.3514
 2351SOL    HW219527   0.943   6.846   2.929 -0.0595 -0.1859  0.5653
 2352SOL     OW19528   2.502   2.119   2.376 -0.7564 -0.2534 -0.1648
 2352SOL    HW119529   2.548   2.040   2.415  0.1146 -0.1107 -0.8808
 2352SOL    HW219530   2.523   2.125   2.278 -0.9805  0.7345 -0.1612
 2353SOL     OW19531   3.327   2.928   3.101 -0.1376 -0.4633  0.0771
 2353SOL    HW119532   3.333   2.871   3.182  0.9284  0.6147  0.7777
 2353SOL    HW219533   3.414   2.975   3.087 -0.9729  0.9581 -0.4941
 2354SOL     OW19534   3.832   8.830   4.686  0.4892 -0.0447  0.7216
 2354SOL    HW119535   3.870   8.913   4.645  1.2282  0.4390  2.3716
 2354SOL    HW219536   3.741   8.850   4.723  0.7373  0.0770  1.2698
 2355SOL     OW19537   4.558   3.558   8.390 -0.1423  0.2374  0.1665
 2355SOL    HW119538   4.596   3.470   8.362 -2.0454 -0.6796  0.3829
 2355SOL    HW219539   4.545   3.617   8.310  2.3690  0.8426  0.1739
 2356SOL     OW19540   7.271   5.465   3.064 -0.3121 -0.4566  0.2372
 2356SOL    HW119541   7.370   5.475   3.058 -0.2771  0.4066  1.9153
 2356SOL    HW219542   7.228   5.495   2.979  0.7886  0.2351 -0.0732
 2357SOL     OW19543   5.228   3.359   3.130  0.1497  0.3249  0.2274
 2357SOL    HW119544   5.209   3.452   3.098 -1.3017 -0.0323  0.0028
 2357SOL    HW219545   5.325   3.338   3.118  0.2337  1.3478 -0.9461
 2358SOL     OW19546   2.513   4.859   8.757  0.5525  0.0564  0.2893
 2358SOL    HW119547   2.479   4.788   8.695 -0.8967  2.0112 -1.2306
 2358SOL    HW219548   2.589   4.908   8.713  0.0133  0.9566  0.3401
 2359SOL     OW19549   6.997   0.014   0.145 -0.3304 -0.0475  0.4188
 2359SOL    HW119550   7.043   0.057   0.067 -0.1928 -1.6062 -0.3720
 2359SOL    HW219551   6.913   0.065   0.166  0.6208  1.5189  0.4973
 2360SOL     OW19552   2.390   5.301   3.949 -0.4445  0.0302 -0.3063
 2360SOL    HW119553   2.398   5.329   4.045 -1.3802  0.0889 -0.2417
 2360SOL    HW219554   2.481   5.281   3.912  0.0121  0.9988  0.2947
 2361SOL     OW19555   2.580   7.492   6.750  0.1516  0.3216 -0.2906
 2361SOL    HW119556   2.537   7.417   6.699  0.4368  0.8908 -1.3796
 2361SOL    HW219557   2.630   7.455   6.828 -1.1883 -0.4699  0.2164
 2362SOL     OW19558   8.083   3.275   0.823 -0.0219 -0.0910  0.1075
 2362SOL    HW119559   8.041   3.328   0.749  0.9562 -1.9013 -1.7947
 2362SOL    HW219560   8.174   3.312   0.843  0.3319 -0.5589 -0.6498
 2363SOL     OW19561   0.810   7.994   4.470  0.6570 -0.0556  0.2046
 2363SOL    HW119562   0.762   8.028   4.389 -0.0879  1.0724  1.1042
 2363SOL    HW219563   0.900   7.960   4.444 -0.3319 -1.5435 -1.3951
 2364SOL     OW19564   4.869   7.787   5.748 -0.2461 -0.0613  0.0487
 2364SOL    HW119565   4.917   7.767   5.834 -0.0849  0.6455  0.1275
 2364SOL    HW219566   4.925   7.756   5.671 -0.4876 -0.8939  0.1972
 2365SOL     OW19567   3.795   0.116   4.920  0.2689 -0.2821  0.2922
 2365SOL    HW119568   3.750   0.049   4.978 -2.8413  0.7344 -0.8728
 2365SOL    HW219569   3.761   0.108   4.826  2.1114  0.9069 -0.5130
 2366SOL     OW19570   4.449   1.571   7.590 -0.7151 -0.2674  0.3645
 2366SOL    HW119571   4.493   1.578   7.680  0.4314  2.1295 -0.3242
 2366SOL    HW219572   4.516   1.537   7.523 -0.4646  1.3837 -0.2650
 2367SOL     OW19573   6.084   6.278   7.353  0.5404  0.6970  0.1326
 2367SOL    HW119574   6.082   6.360   7.410 -0.0496  0.6836  0.1322
 2367SOL    HW219575   6.051   6.300   7.261  2.3455  0.9232 -0.4703
 2368SOL     OW19576   4.350   1.001   1.787  0.4160  0.5519  0.1271
 2368SOL    HW119577   4.298   0.916   1.800 -0.8457  1.2563 -0.2004
 2368SOL    HW219578   4.302   1.076   1.831  0.1038  1.5825 -1.8822
 2369SOL     OW19579   7.526   6.140   6.868 -0.0400 -0.6376 -0.4585
 2369SOL    HW119580   7.512   6.042   6.864 -1.3266 -0.5691  1.4962
 2369SOL    HW219581   7.592   6.161   6.941  1.2121 -0.1099 -1.7019
 2370SOL     OW19582   6.422   2.672   5.614 -0.3302 -0.1139  0.5745
 2370SOL    HW119583   6.396   2.735   5.688 -0.2826  0.0613  0.4434
 2370SOL    HW219584   6.360   2.594   5.614  0.2203 -0.5541  1.3598
 2371SOL     OW19585   7.487   4.533   1.623  0.0616  0.4223 -0.3765
 2371SOL    HW119586   7.463   4.440   1.652 -0.0560  0.9358  1.2463
 2371SOL    HW219587   7.412   4.571   1.569  0.3217 -0.6012 -1.4788
 2372SOL     OW19588   4.548   0.378   8.359  0.0367 -0.1058 -0.0381
 2372SOL    HW119589   4.500   0.311   8.416 -0.6682 -0.2447 -0.7903
 2372SOL    HW219590   4.647   0.361   8.365 -0.1868 -2.0311 -1.2081
 2373SOL     OW19591   2.447   3.391   8.596 -0.1540 -0.6480 -0.4065
 2373SOL    HW119592   2.371   3.437   8.641  0.1154  1.7848 -2.3357
 2373SOL    HW219593   2.447   3.294   8.621 -0.9392  0.2752  3.4943
 2374SOL     OW19594   5.802   7.882   2.388 -0.3772  0.2549  0.2165
 2374SOL    HW119595   5.768   7.916   2.476 -1.5715 -0.3597 -0.0071
 2374SOL    HW219596   5.899   7.907   2.379 -0.4096  0.8815  1.4197
 2375SOL     OW19597   1.188   4.840   7.679 -0.1033 -0.2778  0.1413
 2375SOL    HW119598   1.137   4.767   7.726 -1.8720  0.9639  0.2174
 2375SOL    HW219599   1.280   4.809   7.658 -0.4454 -2.1066  1.2747
 2376SOL     OW19600   0.788   6.597   0.054  0.1181 -0.8371 -0.1725
 2376SOL    HW119601   0.873   6.551   0.081  0.6547 -0.1107 -0.5823
 2376SOL    HW219602   0.748   6.550  -0.024  1.3874  0.1680 -1.4632
 2377SOL     OW19603   5.246   7.671   2.065 -0.4176 -0.2378  0.3748
 2377SOL    HW119604   5.345   7.676   2.065 -0.3903 -0.8618 -0.4588
 2377SOL    HW219605   5.208   7.752   2.020 -0.2902 -0.0553  0.5938
 2378SOL     OW19606   0.646   5.252   3.372 -0.3594 -0.4398 -0.0516
 2378SOL    HW119607   0.664   5.292   3.461 -0.7681  0.7667 -0.4972
 2378SOL    HW219608   0.668   5.154   3.373  0.1225 -0.3148  1.2091
 2379SOL     OW19609   3.616   8.044   5.651  0.1830  0.3419 -0.5109
 2379SOL    HW119610   3.695   7.984   5.663 -0.9555 -1.0969 -0.0090
 2379SOL    HW219611   3.613   8.078   5.557  1.4419  0.4971 -0.5024
 2380SOL     OW19612   5.256   0.270   8.153 -0.3743  0.2792 -0.3882
 2380SOL    HW119613   5.228   0.342   8.216 -0.8296 -0.9508  0.8574
 2380SOL    HW219614   5.180   0.245   8.094 -0.5437  0.0746 -0.0843
 2381SOL     OW19615   1.039   4.272   1.557 -0.5919 -0.1810 -0.8583
 2381SOL    HW119616   1.093   4.242   1.636 -1.5417 -0.6264 -0.3752
 2381SOL    HW219617   0.957   4.320   1.588  0.2496  1.7774 -1.6175
 2382SOL     OW19618   8.245   6.738   0.484 -0.2256  0.4785  0.2712
 2382SOL    HW119619   8.341   6.726   0.509 -0.4524 -0.5205  0.6776
 2382SOL    HW219620   8.188   6.675   0.537 -1.0868  0.9207 -0.1115
 2383SOL     OW19621   0.053   0.939   8.192  0.4873 -0.2930  0.1374
 2383SOL    HW119622   0.107   0.962   8.273 -0.1448  0.0609  0.4581
 2383SOL    HW219623   0.029   0.842   8.194  1.8794 -0.6564 -0.4600
 2384SOL     OW19624   4.973   1.218   1.708 -0.2904 -0.1424  0.2137
 2384SOL    HW119625   5.018   1.177   1.629  1.5337  1.0237  0.6402
 2384SOL    HW219626   4.882   1.176   1.719 -0.6878 -0.1186 -2.6359
 2385SOL     OW19627   6.161   2.135   8.342  0.1640 -0.0666  0.6916
 2385SOL    HW119628   6.137   2.197   8.267  1.1727  0.7009  0.9943
 2385SOL    HW219629   6.230   2.069   8.310 -2.1814 -2.2204 -0.1526
 2386SOL     OW19630   0.860   4.904   0.474  0.3651  0.3650  0.1167
 2386SOL    HW119631   0.840   4.998   0.446  2.3082  1.0304  0.8866
 2386SOL    HW219632   0.952   4.900   0.514 -0.6983 -1.3411  2.4976
 2387SOL     OW19633   8.308   7.953   0.022 -0.0502  0.7470  0.1959
 2387SOL    HW119634   8.348   7.864   0.045  0.5050  0.4692 -1.7929
 2387SOL    HW219635   8.277   7.998   0.106 -2.9460 -2.5077  0.9845
 2388SOL     OW19636   2.413   5.200   5.352  0.1760  0.0037 -0.1645
 2388SOL    HW119637   2.502   5.222   5.312  1.5862 -0.9789  2.3324
 2388SOL    HW219638   2.376   5.282   5.396 -1.3548  1.0726 -3.2853
 2389SOL     OW19639   5.538   1.355   8.363 -0.2743  0.1756 -0.5101
 2389SOL    HW119640   5.544   1.441   8.312 -0.1549  0.0905 -0.6381
 2389SOL    HW219641   5.452   1.352   8.413  0.0010  0.6547 -0.0025
 2390SOL     OW19642   3.324   7.339   1.591 -0.3626 -0.0426  0.0598
 2390SOL    HW119643   3.233   7.301   1.576 -1.2684  1.6931  1.0373
 2390SOL    HW219644   3.390   7.265   1.602 -2.1680 -1.3548  2.4563
 2391SOL     OW19645   4.591   1.108   1.382  0.3439  0.3221 -0.1721
 2391SOL    HW119646   4.655   1.165   1.331 -0.5792  1.4905 -0.0488
 2391SOL    HW219647   4.640   1.033   1.426  2.2823  3.2363  2.9456
 2392SOL     OW19648   6.304   8.116   2.395 -0.2925  0.2284  0.1143
 2392SOL    HW119649   6.386   8.079   2.351 -0.0771 -1.4572  1.8422
 2392SOL    HW219650   6.330   8.165   2.478 -1.0364 -0.4897  0.7829
 2393SOL     OW19651   2.447   3.959   2.845  0.1664 -0.0560  1.1989
 2393SOL    HW119652   2.538   3.946   2.886 -0.1232  1.4133  2.3666
 2393SOL    HW219653   2.402   4.036   2.890 -0.8428  0.5382 -0.8025
 2394SOL     OW19654   0.202   4.192   4.571  0.1714  0.9095 -0.3207
 2394SOL    HW119655   0.170   4.272   4.622  0.7449  0.6098  0.5214
 2394SOL    HW219656   0.245   4.222   4.486  0.4432  1.5054  0.0204
 2395SOL     OW19657   3.776   4.428   7.897  0.3158 -0.1695  0.6097
 2395SOL    HW119658   3.873   4.417   7.879  0.1735 -3.4538  1.5367
 2395SOL    HW219659   3.753   4.387   7.985 -2.2932 -1.5394 -0.6545
 2396SOL     OW19660   4.633   2.676   3.353 -0.4817  0.2772  0.1047
 2396SOL    HW119661   4.571   2.602   3.326  0.0622  0.4313 -1.5988
 2396SOL    HW219662   4.593   2.764   3.329 -0.7362  0.5139  1.3441
 2397SOL     OW19663   4.883   0.044   7.942  0.6333 -0.0899 -0.0618
 2397SOL    HW119664   4.909   0.109   7.871 -0.3839  0.1326 -0.2433
 2397SOL    HW219665   4.841  -0.036   7.900 -1.2615  0.6518  0.3410
 2398SOL     OW19666   1.398   8.531   0.692  0.3961  0.0135 -0.3116
 2398SOL    HW119667   1.428   8.593   0.619 -2.2132 -1.3113 -2.5673
 2398SOL    HW219668   1.452   8.447   0.689  0.4177  0.0362 -0.5792
 2399SOL     OW19669   5.956   3.917   0.144 -0.5469 -0.3549 -0.3657
 2399SOL    HW119670   5.906   3.964   0.217  0.5170  1.4367 -0.7671
 2399SOL    HW219671   5.993   3.831   0.180 -0.6132  0.1723  1.0219
 2400SOL     OW19672   1.980   3.999   1.350 -0.2946  0.6286  0.0484
 2400SOL    HW119673   2.007   4.092   1.374  0.4116  0.5785 -0.5171
 2400SOL    HW219674   1.983   3.941   1.431  0.8800  0.7280  0.0905
 2401SOL     OW19675   0.830   2.154   5.824  0.4572 -0.8508 -0.2563
 2401SOL    HW119676   0.730   2.149   5.815  0.4327  0.2915 -0.6826
 2401SOL    HW219677   0.864   2.234   5.775  1.5351 -0.9522  0.3086
 2402SOL     OW19678   2.745   7.495   8.174 -0.3921  0.0809  0.0287
 2402SOL    HW119679   2.729   7.446   8.260 -2.3459  2.1939  0.9212
 2402SOL    HW219680   2.672   7.475   8.110 -0.3940  0.6246 -0.1442
 2403SOL     OW19681   2.735   1.299   7.296 -0.3257  0.0378  0.5695
 2403SOL    HW119682   2.782   1.211   7.282  1.6167  1.0777  0.4213
 2403SOL    HW219683   2.637   1.283   7.304 -0.2920 -1.8616 -2.2296
 2404SOL     OW19684   6.473   6.233   7.989 -0.1830 -0.2076 -0.3520
 2404SOL    HW119685   6.451   6.175   8.068 -0.0888  2.0046  1.3330
 2404SOL    HW219686   6.553   6.289   8.009 -1.2390  1.7107 -1.2899
 2405SOL     OW19687   1.105   5.869   1.018 -0.1125  0.2556  0.3774
 2405SOL    HW119688   1.047   5.857   1.099 -1.5507 -0.7853 -0.7789
 2405SOL    HW219689   1.190   5.915   1.044 -1.2553  1.3978  2.1916
 2406SOL     OW19690   6.802   4.728   2.522  0.2318  0.1460 -0.1698
 2406SOL    HW119691   6.802   4.780   2.437  1.2374 -0.0664 -0.3036
 2406SOL    HW219692   6.797   4.630   2.502  0.8702  0.0754 -0.0030
 2407SOL     OW19693   8.381   8.207   8.814 -0.0143  0.0885 -0.1963
 2407SOL    HW119694   8.300   8.263   8.836  0.9489  1.3163  0.3072
 2407SOL    HW219695   8.369   8.115   8.851 -0.3484  0.8290  1.5986
 2408SOL     OW19696   3.255   3.614   2.893  0.6524 -0.1887  0.4058
 2408SOL    HW119697   3.236   3.711   2.876  1.8654  0.2275  1.4142
 2408SOL    HW219698   3.212   3.586   2.979  0.4950 -0.4973  0.2281
 2409SOL     OW19699   4.775   2.258   1.824  0.5762 -0.0878 -0.2346
 2409SOL    HW119700   4.792   2.347   1.782  1.1222 -0.2259 -0.3175
 2409SOL    HW219701   4.862   2.218   1.852  0.1525  0.4444  1.9263
 2410SOL     OW19702   2.347   6.451   8.324 -0.3958  0.4047  0.3633
 2410SOL    HW119703   2.359   6.459   8.225 -0.1686  1.3578  0.4693
 2410SOL    HW219704   2.429   6.409   8.364 -0.5027 -0.0139  0.1460
 2411SOL     OW19705   6.276   6.591   0.485  0.0487  0.4673  0.2503
 2411SOL    HW119706   6.192   6.559   0.443  0.7727  2.4391 -2.8194
 2411SOL    HW219707   6.273   6.691   0.495  0.6969  0.2355  3.1446
 2412SOL     OW19708   7.507   8.589   7.875 -0.2032  0.1280 -1.3098
 2412SOL    HW119709   7.556   8.507   7.903 -1.7067 -0.2193  0.3371
 2412SOL    HW219710   7.559   8.670   7.902 -0.4605 -0.2384  0.3200
 2413SOL     OW19711   7.943   8.046   8.674 -0.0621 -0.7946  0.5768
 2413SOL    HW119712   7.996   7.961   8.675 -0.4194 -1.1402 -2.6615
 2413SOL    HW219713   7.959   8.094   8.588 -2.4815  0.7045  0.9108
 2414SOL     OW19714   2.881   5.063   7.765 -0.4748 -0.1779 -0.0312
 2414SOL    HW119715   2.840   5.136   7.819  0.4625 -0.1836  0.7031
 2414SOL    HW219716   2.871   5.083   7.667 -0.3127  0.8699  0.1695
 2415SOL     OW19717   4.717   6.834   0.520  0.4459  0.1962 -0.0950
 2415SOL    HW119718   4.697   6.931   0.530  2.0719  0.3526  2.0712
 2415SOL    HW219719   4.658   6.781   0.580 -0.2326 -0.1466 -1.0510
 2416SOL     OW19720   2.952   4.777   6.947  0.2280  0.1261 -0.1042
 2416SOL    HW119721   2.948   4.726   6.861 -3.0682 -1.0639  0.6862
 2416SOL    HW219722   2.892   4.857   6.941  0.5468  0.4428  0.8432
 2417SOL     OW19723   8.005   5.476   1.711 -0.5714 -0.6485 -0.2000
 2417SOL    HW119724   7.990   5.379   1.690  1.2069 -0.9285 -0.2370
 2417SOL    HW219725   8.022   5.486   1.809  0.3610 -0.5364 -0.3650
 2418SOL     OW19726   8.365   7.828   6.738  0.2177 -0.1908 -0.3824
 2418SOL    HW119727   8.417   7.786   6.812  0.1446 -1.1806 -0.8836
 2418SOL    HW219728   8.288   7.769   6.714  0.4394 -0.0476 -1.4817
 2419SOL     OW19729   3.765   2.639   4.460  0.5427 -0.1699  0.1751
 2419SOL    HW119730   3.801   2.610   4.549  0.6615  0.3758  0.3073
 2419SOL    HW219731   3.691   2.706   4.474  1.4305  0.8939 -0.1609
 2420SOL     OW19732   8.447   6.266   4.979  0.2957  0.2783  0.4191
 2420SOL    HW119733   8.508   6.337   5.014  1.0222 -0.4633  0.6571
 2420SOL    HW219734   8.360   6.269   5.028  0.3747  0.9100  0.5204
 2421SOL     OW19735   2.612   7.035   1.533  0.3685  0.2747  0.0509
 2421SOL    HW119736   2.521   7.003   1.561 -0.2994  3.8227  2.2203
 2421SOL    HW219737   2.673   7.035   1.612  1.4362  0.6583 -0.7635
 2422SOL     OW19738   2.782   0.183   3.465  0.2859  0.2995 -0.8176
 2422SOL    HW119739   2.683   0.180   3.481  0.2158 -0.8569 -1.4292
 2422SOL    HW219740   2.812   0.098   3.423  1.5423  0.6695 -0.7023
 2423SOL     OW19741   4.737   8.185   5.633 -0.3705 -0.1217  0.1406
 2423SOL    HW119742   4.729   8.277   5.670 -0.8952 -0.3200  0.5306
 2423SOL    HW219743   4.761   8.121   5.706 -0.1314 -0.3192 -0.1047
 2424SOL     OW19744   4.422   2.634   3.720  0.6570 -0.1766 -0.4885
 2424SOL    HW119745   4.521   2.636   3.707  0.6141  1.1233 -0.7513
 2424SOL    HW219746   4.395   2.709   3.781 -0.2234 -0.2036 -0.8393
 2425SOL     OW19747   6.253   5.766   8.340 -0.6242  0.2939  0.5765
 2425SOL    HW119748   6.187   5.835   8.369  0.3699  1.4773  0.0482
 2425SOL    HW219749   6.304   5.732   8.419 -2.3567 -1.1562  1.0933
 2426SOL     OW19750   3.115   7.814   5.590 -0.1903  0.5823  0.3499
 2426SOL    HW119751   3.102   7.811   5.491  0.7046 -0.0215  0.2382
 2426SOL    HW219752   3.048   7.874   5.631  0.2601  1.8729 -0.7791
 2427SOL     OW19753   3.204   2.390   4.127  0.1800  0.4073  0.2714
 2427SOL    HW119754   3.208   2.301   4.080  2.0786  0.2653  0.6494
 2427SOL    HW219755   3.291   2.406   4.174 -0.4797  2.0779  0.9428
 2428SOL     OW19756   2.028   7.675   7.130 -0.2613 -0.4979  0.0618
 2428SOL    HW119757   2.009   7.732   7.210 -2.7118 -0.0091 -0.8101
 2428SOL    HW219758   2.014   7.729   7.047  1.2137 -1.2986 -0.7215
 2429SOL     OW19759   0.167   0.749   7.864 -0.1147  0.1078  0.0319
 2429SOL    HW119760   0.182   0.848   7.873 -3.5128  0.6701  0.0898
 2429SOL    HW219761   0.208   0.702   7.942  1.1687  1.4919  0.2163
 2430SOL     OW19762   3.719   1.700   8.614  0.3191  0.4137 -0.0856
 2430SOL    HW119763   3.769   1.712   8.528 -0.2054 -0.5808 -0.5506
 2430SOL    HW219764   3.688   1.789   8.647  0.7580  0.8389 -0.7946
 2431SOL     OW19765   2.710   4.474   6.005 -0.0800  0.6057 -0.7142
 2431SOL    HW119766   2.765   4.401   5.965 -0.2097  0.9700 -1.5714
 2431SOL    HW219767   2.630   4.434   6.050  0.7729  0.0908  0.3687
 2432SOL     OW19768   0.124   2.323   0.211 -0.0201  0.1367 -0.3295
 2432SOL    HW119769   0.137   2.420   0.231 -0.4729  0.0692  0.3238
 2432SOL    HW219770   0.102   2.310   0.114  0.4967  0.6428 -0.5104
 2433SOL     OW19771   1.553   7.219   3.496 -0.2175 -0.3757 -0.2278
 2433SOL    HW119772   1.489   7.290   3.468 -1.3236 -0.7167  1.3877
 2433SOL    HW219773   1.513   7.129   3.480  0.3351 -0.6134 -0.3040
 2434SOL     OW19774   3.022   4.150   2.426  0.3715 -0.2949  0.6730
 2434SOL    HW119775   3.019   4.250   2.425 -2.0719 -0.3532 -0.5912
 2434SOL    HW219776   3.040   4.117   2.334 -0.7482 -1.0523  0.7239
 2435SOL     OW19777   2.850   8.053   0.680  0.2208  0.4829 -0.6055
 2435SOL    HW119778   2.827   7.992   0.755  0.6004  1.9182  0.6969
 2435SOL    HW219779   2.796   8.137   0.687 -1.6176 -0.4072 -3.3985
 2436SOL     OW19780   0.733   7.963   8.769  0.0362  0.1021 -0.2185
 2436SOL    HW119781   0.678   8.030   8.719  1.5107  1.0973 -0.5368
 2436SOL    HW219782   0.728   7.982   8.867  1.7658  1.7027 -0.4283
 2437SOL     OW19783   2.451   4.118   7.628  0.4327  0.1105  0.4153
 2437SOL    HW119784   2.431   4.212   7.600  0.7116 -0.2568 -1.0620
 2437SOL    HW219785   2.410   4.101   7.717 -1.5547  0.9488 -0.2968
 2438SOL     OW19786   7.501   4.401   1.022  0.1852  0.0974  0.1847
 2438SOL    HW119787   7.518   4.442   1.111 -0.5103  1.4353 -0.2904
 2438SOL    HW219788   7.527   4.465   0.950 -0.1270 -0.6178 -0.5743
 2439SOL     OW19789   1.427   0.848   2.445  0.6490  0.0270 -0.4286
 2439SOL    HW119790   1.397   0.923   2.505 -0.7289 -1.0250  0.2370
 2439SOL    HW219791   1.383   0.857   2.356  1.2234  0.5311 -0.6656
 2440SOL     OW19792   3.611   5.886   5.009  0.7050  0.1788 -0.0334
 2440SOL    HW119793   3.617   5.976   4.965  0.6989 -0.0175 -0.4405
 2440SOL    HW219794   3.611   5.815   4.939 -0.9733 -0.0716  0.1946
 2441SOL     OW19795   5.332   2.031   1.120  0.5192  0.4224 -0.3436
 2441SOL    HW119796   5.276   2.071   1.048 -0.4246 -0.3423 -0.0557
 2441SOL    HW219797   5.290   1.944   1.149  1.0900  0.5502  0.8627
 2442SOL     OW19798   2.481   3.985   1.629 -0.3394 -0.6606  0.1856
 2442SOL    HW119799   2.518   3.995   1.721  1.8626  0.1943 -0.7579
 2442SOL    HW219800   2.538   3.921   1.577  1.4741  2.6703 -2.0967
 2443SOL     OW19801   3.366   1.670   5.143  0.0853  0.3827 -0.1329
 2443SOL    HW119802   3.344   1.729   5.066  0.0962 -0.3796 -0.7347
 2443SOL    HW219803   3.441   1.710   5.196  2.6047 -0.8376 -2.6246
 2444SOL     OW19804   3.309   8.097   1.942  0.8100  0.0708  0.1293
 2444SOL    HW119805   3.282   8.092   2.038 -2.5579  1.8717 -0.6444
 2444SOL    HW219806   3.266   8.177   1.899 -0.2487 -2.3829 -3.6224
 2445SOL     OW19807   8.127   7.602   4.153 -0.5147  0.0421  0.2039
 2445SOL    HW119808   8.051   7.589   4.090  0.2432  1.6218 -1.0722
 2445SOL    HW219809   8.186   7.675   4.120  0.0662  0.7123  2.6111
 2446SOL     OW19810   6.212   3.077   0.962  0.3497  0.0578  0.4288
 2446SOL    HW119811   6.265   3.158   0.985  0.5146 -0.2232  1.0454
 2446SOL    HW219812   6.274   3.003   0.938  0.2236 -0.1251  0.6636
 2447SOL     OW19813   1.972   8.979   6.536 -0.0717 -0.1997 -0.2287
 2447SOL    HW119814   2.004   8.907   6.475 -0.4431  0.1444 -0.8394
 2447SOL    HW219815   1.965   9.065   6.485 -1.1151 -0.0746  0.1103
 2448SOL     OW19816   4.880   6.742   0.338 -0.2201  0.3956 -0.1192
 2448SOL    HW119817   4.839   6.658   0.303 -1.1072  0.6533  0.2838
 2448SOL    HW219818   4.821   6.782   0.408  0.3234  1.2072 -0.1086
 2449SOL     OW19819   3.515   7.597   1.455  1.0716  0.0575 -0.1263
 2449SOL    HW119820   3.420   7.568   1.467  0.7762  1.1765  0.3804
 2449SOL    HW219821   3.540   7.591   1.359  0.6564 -0.7452 -0.1892
 2450SOL     OW19822   6.074   8.917   2.721 -0.0669 -0.3969  0.5500
 2450SOL    HW119823   6.160   8.922   2.772 -0.2991  0.5775  0.8617
 2450SOL    HW219824   6.022   9.001   2.735 -0.2419 -0.1987 -1.1111
 2451SOL     OW19825   4.564   1.411   5.954  0.1602  0.7407 -0.1396
 2451SOL    HW119826   4.467   1.407   5.928 -0.1442 -2.1412  1.2740
 2451SOL    HW219827   4.621   1.392   5.875 -0.4914  0.3790 -0.5261
 2452SOL     OW19828   1.992   5.424   3.749  0.2414  0.2917 -0.1977
 2452SOL    HW119829   1.993   5.398   3.845  1.8199  0.5170 -0.1438
 2452SOL    HW219830   2.001   5.343   3.691  0.2290  0.2461 -0.1342
 2453SOL     OW19831   1.736   5.901   8.095  0.1360  0.0547  0.3571
 2453SOL    HW119832   1.766   5.996   8.106 -1.0372  0.6636 -1.5848
 2453SOL    HW219833   1.654   5.886   8.150  0.1825  0.2375  0.4779
 2454SOL     OW19834   3.457   3.637   0.001  0.1107  0.3513  0.1468
 2454SOL    HW119835   3.479   3.542  -0.019  0.5942  0.5047 -0.0506
 2454SOL    HW219836   3.508   3.667   0.082 -1.9455 -0.3136  1.7371
 2455SOL     OW19837   1.853   0.294   3.103 -0.5206 -0.4403  0.1013
 2455SOL    HW119838   1.838   0.392   3.119  0.9678 -0.2376  0.3379
 2455SOL    HW219839   1.799   0.241   3.168  0.5359  0.2796  1.5889
 2456SOL     OW19840   3.000   8.525   2.567 -0.0999 -0.1578 -0.1062
 2456SOL    HW119841   3.051   8.611   2.574  0.2090 -0.2499 -1.0338
 2456SOL    HW219842   2.990   8.501   2.470 -0.1384 -1.1907  0.1443
 2457SOL     OW19843   2.010   1.190   1.056  0.2262  0.4504 -0.1337
 2457SOL    HW119844   1.991   1.185   1.154  1.6720  1.0007  0.1845
 2457SOL    HW219845   2.004   1.098   1.016 -0.1274  0.1904  0.5079
 2458SOL     OW19846   8.310   7.746   5.142  0.2492  0.3577  0.0544
 2458SOL    HW119847   8.246   7.817   5.110  0.2472  0.0959 -0.5191
 2458SOL    HW219848   8.402   7.784   5.148  0.1548  0.5569  0.2672
 2459SOL     OW19849   8.327   6.787   6.903  0.6786  0.3195  0.3432
 2459SOL    HW119850   8.263   6.712   6.920 -0.5828  1.2458 -0.2104
 2459SOL    HW219851   8.385   6.764   6.824 -1.9592  1.2723 -1.9741
 2460SOL     OW19852   4.325   7.790   8.525  0.0746 -0.3444 -0.1864
 2460SOL    HW119853   4.412   7.771   8.570 -0.5664 -1.5662  0.5879
 2460SOL    HW219854   4.335   7.780   8.426  1.0347  0.4569 -0.1726
 2461SOL     OW19855   0.611   3.792   1.872 -0.0540 -0.4302  0.1492
 2461SOL    HW119856   0.533   3.753   1.823  0.1032  0.1051 -0.5322
 2461SOL    HW219857   0.645   3.872   1.823  0.6434 -0.3917  0.6837
 2462SOL     OW19858   6.125   2.370   2.147  0.4093  0.2803 -0.5601
 2462SOL    HW119859   6.116   2.273   2.171 -0.0494  0.5718  0.4675
 2462SOL    HW219860   6.131   2.424   2.231  0.9660  1.1154 -1.1378
 2463SOL     OW19861   2.541   1.360   2.631 -0.4124 -0.0367  0.0295
 2463SOL    HW119862   2.533   1.369   2.531  1.8363  1.0342 -0.0832
 2463SOL    HW219863   2.558   1.264   2.654  0.2287 -0.1188 -0.7391
 2464SOL     OW19864   5.647   8.229   5.709 -0.1024  0.6873 -0.3076
 2464SOL    HW119865   5.657   8.133   5.736 -2.0961  0.0643 -1.6709
 2464SOL    HW219866   5.733   8.261   5.670  0.2005 -0.9343 -1.0378
 2465SOL     OW19867   3.134   5.163   4.531 -0.7206 -0.1925 -0.5805
 2465SOL    HW119868   3.200   5.099   4.490 -0.9350 -1.1858  0.5819
 2465SOL    HW219869   3.105   5.229   4.463  1.7283  0.4663 -1.0411
 2466SOL     OW19870   4.396   4.874   2.792 -0.0541 -0.0627  0.3023
 2466SOL    HW119871   4.468   4.913   2.849 -0.3394  1.7413 -0.5418
 2466SOL    HW219872   4.333   4.821   2.850  0.9980 -0.2499  1.2900
 2467SOL     OW19873   4.243   1.427   8.260  0.1245 -0.0444 -0.3167
 2467SOL    HW119874   4.254   1.494   8.334 -0.2414 -0.0117 -0.2918
 2467SOL    HW219875   4.261   1.471   8.172  0.5093 -0.0702 -0.2503
 2468SOL     OW19876   8.477   7.562   8.525 -0.4319 -0.2339 -0.4767
 2468SOL    HW119877   8.385   7.544   8.490  0.1596 -0.1093 -2.1661
 2468SOL    HW219878   8.542   7.560   8.448  0.7577  1.1482  0.4861
 2469SOL     OW19879   2.921   5.844   5.358 -0.2157 -0.2588 -0.4515
 2469SOL    HW119880   2.984   5.766   5.358  0.7552  0.5115 -1.9476
 2469SOL    HW219881   2.827   5.811   5.356  0.1966 -1.4090 -1.5647
 2470SOL     OW19882   8.064   7.952   3.492  0.0768  0.3595 -0.1825
 2470SOL    HW119883   8.152   7.914   3.463  1.1571  1.6089  1.4061
 2470SOL    HW219884   8.070   8.051   3.499 -1.7243  0.5426 -0.8895
 2471SOL     OW19885   8.646   1.831   2.001  0.1090 -0.7280 -0.2027
 2471SOL    HW119886   8.713   1.904   1.982  0.9454 -1.1416  1.1265
 2471SOL    HW219887   8.559   1.872   2.026  0.0591 -0.1824 -1.2150
 2472SOL     OW19888   6.911   4.959   6.548 -0.7783 -0.6605 -0.2572
 2472SOL    HW119889   6.871   4.881   6.501 -0.0035 -2.2492  1.6499
 2472SOL    HW219890   6.863   4.975   6.633  1.0688 -1.1024  0.9038
 2473SOL     OW19891   0.980   5.812   2.878 -0.0960  0.5028  0.6007
 2473SOL    HW119892   0.884   5.841   2.879 -0.7894 -1.6078 -0.3426
 2473SOL    HW219893   1.002   5.776   2.788  1.1399 -0.4581  1.2766
 2474SOL     OW19894   2.418   8.813   2.065  0.6372 -0.2879 -0.1391
 2474SOL    HW119895   2.470   8.808   1.980  1.9101  1.6365  0.4909
 2474SOL    HW219896   2.460   8.753   2.133 -0.6904 -2.2340 -0.9883
 2475SOL     OW19897   1.802   4.276   4.206  0.7859 -0.1844  0.2983
 2475SOL    HW119898   1.809   4.228   4.294  0.5882  0.1891  0.5171
 2475SOL    HW219899   1.708   4.308   4.193  0.4683 -1.4847 -0.6974
 2476SOL     OW19900   5.392   4.549   0.290 -0.1017 -0.1654  0.1978
 2476SOL    HW119901   5.459   4.603   0.239 -0.1783  0.9194  1.2339
 2476SOL    HW219902   5.322   4.610   0.328 -0.7746 -1.1142  0.5017
 2477SOL     OW19903   5.985   6.309   2.451 -0.5823 -0.3845  0.1205
 2477SOL    HW119904   6.066   6.344   2.497 -1.0367 -1.6332  1.9653
 2477SOL    HW219905   5.904   6.357   2.485 -0.9693 -1.6220  0.9620
 2478SOL     OW19906   7.385   3.178   0.795  0.1619  0.1367 -0.1959
 2478SOL    HW119907   7.303   3.163   0.739  0.7554  0.4185 -1.1519
 2478SOL    HW219908   7.411   3.275   0.791  0.7930 -0.0317 -0.2494
 2479SOL     OW19909   5.964   5.039   3.624  0.2552 -0.3012  0.5399
 2479SOL    HW119910   5.985   5.079   3.535  1.0570  0.2307  0.9650
 2479SOL    HW219911   5.871   5.004   3.623 -0.1530  0.7793 -0.1186
 2480SOL     OW19912   4.520   7.786   0.619 -0.4793  0.4917 -0.3790
 2480SOL    HW119913   4.607   7.831   0.604 -0.6068  1.0524  0.5055
 2480SOL    HW219914   4.451   7.823   0.557 -0.5416  1.4000  0.2266
 2481SOL     OW19915   5.387   8.906   6.831 -0.0765  0.0507 -0.1830
 2481SOL    HW119916   5.323   8.897   6.755 -1.5438  0.0736  1.0217
 2481SOL    HW219917   5.367   8.835   6.899  0.8122  0.4199  0.4676
 2482SOL     OW19918   3.816   2.436   7.100  0.4793 -0.1940 -0.0862
 2482SOL    HW119919   3.867   2.355   7.073  3.1392  1.4339 -0.1563
 2482SOL    HW219920   3.761   2.469   7.022  2.5976  0.4095 -1.3665
 2483SOL     OW19921   2.656   0.424   8.721  0.3043  0.0050  0.0435
 2483SOL    HW119922   2.735   0.372   8.690  0.1157  0.0618 -0.5472
 2483SOL    HW219923   2.573   0.369   8.710  0.2830 -0.1217  0.8301
 2484SOL     OW19924   7.291   6.348   3.456 -0.1600 -0.5501 -0.0823
 2484SOL    HW119925   7.304   6.417   3.384  0.9067 -0.4905  0.1558
 2484SOL    HW219926   7.222   6.282   3.427 -1.2421  0.6567 -0.2889
 2485SOL     OW19927   2.490   3.733   3.078  0.2559 -0.3135  0.0573
 2485SOL    HW119928   2.456   3.684   2.998  0.7980  0.5069 -0.6854
 2485SOL    HW219929   2.565   3.794   3.050 -0.8063  1.3946  0.8554
 2486SOL     OW19930   4.751   2.652   1.486  0.3369 -0.7204 -0.1279
 2486SOL    HW119931   4.810   2.654   1.405  0.9146  1.5002  0.3184
 2486SOL    HW219932   4.784   2.582   1.549  0.5116 -1.7408 -1.3436
 2487SOL     OW19933   8.168   0.498   5.844 -0.3868  0.2453 -0.3153
 2487SOL    HW119934   8.141   0.411   5.803 -0.4136 -0.5096  1.2470
 2487SOL    HW219935   8.209   0.480   5.934  0.5518  1.7715 -0.4284
 2488SOL     OW19936   5.818   5.773   4.218  0.0223  0.5724 -0.1135
 2488SOL    HW119937   5.875   5.837   4.269 -1.3598 -0.3385  2.6219
 2488SOL    HW219938   5.866   5.686   4.207 -0.0646  0.4502  0.4817
 2489SOL     OW19939   6.856   6.121   3.453  0.0430  0.5210  0.1661
 2489SOL    HW119940   6.826   6.059   3.526  0.0026  0.2996 -0.0386
 2489SOL    HW219941   6.777   6.165   3.411  0.0502  0.4752  0.1033
 2490SOL     OW19942   4.773   1.058   8.727  0.5020  0.0795 -0.1195
 2490SOL    HW119943   4.690   1.035   8.675  0.5886  1.1067 -0.7324
 2490SOL    HW219944   4.770   1.155   8.752 -0.1981 -0.6869  2.9930
 2491SOL     OW19945   0.738   4.551   0.215 -0.2477 -0.4590  0.5969
 2491SOL    HW119946   0.704   4.508   0.298  0.1735 -3.2022 -0.5920
 2491SOL    HW219947   0.834   4.525   0.201 -0.3408 -0.1158 -0.7670
 2492SOL     OW19948   4.263   8.018   6.016 -0.1722 -0.0375 -0.1268
 2492SOL    HW119949   4.284   8.095   5.956  0.0250  0.3849  0.4812
 2492SOL    HW219950   4.329   8.014   6.090 -1.7332  0.7925  1.3264
 2493SOL     OW19951   3.007   7.161   7.265  0.1354 -0.1636 -0.3583
 2493SOL    HW119952   3.098   7.190   7.234 -0.1281 -0.5307 -1.4943
 2493SOL    HW219953   2.949   7.241   7.277 -0.1080 -0.0763 -1.9591
 2494SOL     OW19954   8.120   3.376   1.142 -0.0653  0.1901  0.4331
 2494SOL    HW119955   8.032   3.404   1.102 -0.5987 -0.0515  1.4381
 2494SOL    HW219956   8.108   3.292   1.195  0.5257  0.8006  1.5514
 2495SOL     OW19957   1.118   4.094   2.098  0.0162 -0.3600  0.0178
 2495SOL    HW119958   1.065   4.022   2.143  0.8191 -0.0354  1.4962
 2495SOL    HW219959   1.056   4.158   2.054 -0.7959 -0.4297  1.0454
 2496SOL     OW19960   6.288   3.419   7.583 -0.3990  0.3019 -0.2673
 2496SOL    HW119961   6.356   3.420   7.656 -2.1296 -0.1137  1.4251
 2496SOL    HW219962   6.263   3.513   7.559  0.0244  0.4408 -0.1689
 2497SOL     OW19963   4.265   0.258   2.029 -0.6774  0.1706 -0.0693
 2497SOL    HW119964   4.317   0.340   2.053 -0.9171  0.8456 -1.8198
 2497SOL    HW219965   4.328   0.182   2.015 -0.4232  0.1481  1.1462
 2498SOL     OW19966   3.256   8.376   2.138 -0.4299  0.0128  0.1022
 2498SOL    HW119967   3.171   8.363   2.085  0.7278 -2.9473 -1.1712
 2498SOL    HW219968   3.317   8.436   2.087 -1.1412  0.9077  0.2874
 2499SOL     OW19969   7.657   2.764   0.881  0.7956  0.2005  0.0486
 2499SOL    HW119970   7.686   2.672   0.907  1.1981 -0.5669 -3.0373
 2499SOL    HW219971   7.737   2.824   0.874  0.9134 -0.1221 -1.4448
 2500SOL     OW19972   4.042   8.390   1.720 -0.9598 -0.3675  0.2516
 2500SOL    HW119973   4.128   8.419   1.677 -0.9598 -1.7116 -0.6568
 2500SOL    HW219974   4.044   8.414   1.817  0.6994 -0.9451  0.3758
 2501SOL     OW19975   6.821   3.103   3.095 -0.3179  0.3710 -0.5122
 2501SOL    HW119976   6.780   3.018   3.063 -1.4722  0.9334 -0.5633
 2501SOL    HW219977   6.771   3.137   3.174  2.2141 -0.7364  1.6363
 2502SOL     OW19978   8.767   6.017   5.920 -0.1063 -0.4718 -0.2066
 2502SOL    HW119979   8.829   6.012   5.842 -0.4955 -0.3623 -0.5233
 2502SOL    HW219980   8.765   5.929   5.967 -1.1310 -1.0370 -1.2923
 2503SOL     OW19981   2.169   5.531   4.186  0.1477 -0.2916  0.4011
 2503SOL    HW119982   2.129   5.489   4.105  0.1181  0.0627  0.2346
 2503SOL    HW219983   2.164   5.631   4.179 -1.7194 -0.2640  1.7491
 2504SOL     OW19984   8.889   2.568   7.911  0.1915 -0.2933  0.0797
 2504SOL    HW119985   8.985   2.594   7.903 -0.2839  1.1691 -1.0402
 2504SOL    HW219986   8.883   2.470   7.929  1.8605 -0.6150 -0.9765
 2505SOL     OW19987   6.705   5.762   6.371  0.8958  0.0087 -0.4376
 2505SOL    HW119988   6.683   5.803   6.283 -3.5712 -0.4618  0.3417
 2505SOL    HW219989   6.758   5.827   6.426  2.6629  0.7570 -2.9245
 2506SOL     OW19990   6.216   8.492   8.233 -0.3351  0.3841 -0.6765
 2506SOL    HW119991   6.284   8.419   8.236 -0.6357  0.1311  0.0954
 2506SOL    HW219992   6.183   8.503   8.140  0.8194  0.5558 -1.0747
 2507SOL     OW19993   8.854   7.285   4.706 -0.0043  0.1268  0.6046
 2507SOL    HW119994   8.853   7.376   4.746  1.9929  1.0670 -1.3545
 2507SOL    HW219995   8.948   7.253   4.698 -0.7065 -2.4365  1.9080
 2508SOL     OW19996   0.460   4.173   6.382 -0.4781 -0.3914 -0.3463
 2508SOL    HW119997   0.558   4.167   6.362 -0.2359  0.1783  0.6248
 2508SOL    HW219998   0.445   4.157   6.480 -1.0450  2.4395  0.0610
 2509SOL     OW19999   8.883   0.068   8.506 -0.2590  0.3444 -0.9809
 2509SOL    HW120000   8.893  -0.014   8.450 -0.5563  0.4507 -1.1884
 2509SOL    HW220001   8.949   0.137   8.475  2.3537 -1.0027  1.3708
 2510SOL     OW20002   5.691   4.682   1.230 -0.4285 -0.0554  0.5418
 2510SOL    HW120003   5.761   4.752   1.241  1.3135 -1.5288 -0.7942
 2510SOL    HW220004   5.693   4.647   1.136 -1.7707 -1.3683  0.9764
 2511SOL     OW20005   5.972   8.274   0.320  0.3804  0.2575  0.1573
 2511SOL    HW120006   5.962   8.328   0.237 -1.2288  0.4806  0.4689
 2511SOL    HW220007   6.034   8.198   0.303  0.4380  0.5729 -1.1085
 2512SOL     OW20008   3.611   3.806   0.148  0.1005  0.5159 -0.2129
 2512SOL    HW120009   3.687   3.835   0.206  0.1492  0.1219 -0.0827
 2512SOL    HW220010   3.543   3.880   0.143  1.5445  1.7809 -2.1582
 2513SOL     OW20011   3.292   3.032   3.377  0.0629  0.5118  0.1924
 2513SOL    HW120012   3.294   3.076   3.467 -0.1846  0.9803 -0.0295
 2513SOL    HW220013   3.361   2.960   3.373  1.1343  1.5299  0.2287
 2514SOL     OW20014   2.651   7.229   7.462  0.1340 -0.1606  0.7603
 2514SOL    HW120015   2.558   7.193   7.459  0.1153 -0.0033 -0.8112
 2514SOL    HW220016   2.714   7.155   7.483 -0.5620  0.1951  4.5170
 2515SOL     OW20017   5.786   6.915   3.945  0.1885 -0.1031 -0.6567
 2515SOL    HW120018   5.702   6.969   3.942  0.7506  0.7876 -0.7308
 2515SOL    HW220019   5.835   6.926   3.858  0.8756  0.1800 -0.2319
 2516SOL     OW20020   1.370   0.696   0.226 -0.1989  0.4531  0.0206
 2516SOL    HW120021   1.425   0.614   0.209  1.7604  2.3601 -3.1905
 2516SOL    HW220022   1.366   0.714   0.325  1.0959 -2.2619  0.6131
 2517SOL     OW20023   5.200   6.573   8.057  0.4905 -0.0894  0.3810
 2517SOL    HW120024   5.257   6.492   8.063  1.8305  0.6547 -1.4870
 2517SOL    HW220025   5.135   6.562   7.982 -2.0161 -1.0176  2.6374
 2518SOL     OW20026   0.897   4.245   7.482  0.1536 -0.1979  0.0226
 2518SOL    HW120027   0.876   4.149   7.463  1.0343 -0.3890 -0.0069
 2518SOL    HW220028   0.996   4.260   7.475  0.2034  0.3597  1.5824
 2519SOL     OW20029   8.253   2.511   6.436 -0.0119 -0.0849  0.3323
 2519SOL    HW120030   8.291   2.420   6.420 -0.3077  0.0767 -1.3969
 2519SOL    HW220031   8.320   2.567   6.485  1.9957  0.1530 -2.5420
 2520SOL     OW20032   2.272   6.147   6.675 -0.1769 -0.0402 -0.1655
 2520SOL    HW120033   2.289   6.227   6.617 -0.8385 -0.5001 -1.0000
 2520SOL    HW220034   2.252   6.178   6.768  1.4729  0.6752 -0.0211
 2521SOL     OW20035   0.130   0.189   4.198  0.2626 -0.7441  0.2829
 2521SOL    HW120036   0.140   0.159   4.103  1.2249  0.2549  0.0617
 2521SOL    HW220037   0.049   0.246   4.207  0.0308 -1.0467  0.1142
 2522SOL     OW20038   0.322   8.185   8.531  0.2286 -0.0727 -0.1991
 2522SOL    HW120039   0.277   8.151   8.614  0.2567 -1.7783 -0.8700
 2522SOL    HW220040   0.268   8.261   8.493 -1.4224 -1.2402 -0.2638
 2523SOL     OW20041   0.818   5.610   5.030 -0.1931  0.4577 -0.0702
 2523SOL    HW120042   0.902   5.560   5.052 -0.1422  1.0789  1.2148
 2523SOL    HW220043   0.795   5.596   4.934  0.8344 -0.5254 -0.1847
 2524SOL     OW20044   2.727   4.467   5.204 -0.2945  0.4322  0.9738
 2524SOL    HW120045   2.692   4.522   5.280 -2.5494 -0.4847  0.6276
 2524SOL    HW220046   2.734   4.524   5.122  0.2023  0.9152  1.3438
 2525SOL     OW20047   8.452   1.844   6.571  0.1632 -0.0425 -0.5945
 2525SOL    HW120048   8.383   1.817   6.504 -0.8730  0.4434  0.2401
 2525SOL    HW220049   8.489   1.934   6.547 -0.4918  0.3097 -0.3306
 2526SOL     OW20050   0.451   3.608   0.841 -0.4536 -0.0932 -0.2054
 2526SOL    HW120051   0.453   3.527   0.783 -0.6555  1.8033 -2.9636
 2526SOL    HW220052   0.545   3.634   0.864 -0.2868  0.1030 -1.0880
 2527SOL     OW20053   4.519   2.149   2.258 -0.0369 -0.1852  0.7928
 2527SOL    HW120054   4.510   2.079   2.187  1.0579 -0.0818  0.5417
 2527SOL    HW220055   4.466   2.229   2.231 -1.5486 -1.0171  1.2297
 2528SOL     OW20056   5.114   8.480   3.812  0.8299  0.4569  0.3802
 2528SOL    HW120057   5.173   8.414   3.857  2.5999  1.7295 -0.0329
 2528SOL    HW220058   5.020   8.469   3.845  1.1113 -2.1112  0.4456
 2529SOL     OW20059   3.782   4.344   4.822  0.2734 -1.0154  0.4649
 2529SOL    HW120060   3.853   4.290   4.776 -2.4542 -2.8420 -1.8206
 2529SOL    HW220061   3.758   4.300   4.908  1.3042 -0.8838  0.8190
 2530SOL     OW20062   1.818   6.266   6.292  0.2942 -0.0403  0.8325
 2530SOL    HW120063   1.767   6.352   6.283  0.2049  0.1101  2.5826
 2530SOL    HW220064   1.815   6.236   6.387 -1.0638 -2.8398 -0.0479
 2531SOL     OW20065   2.649   6.635   5.181  0.0207  0.0655 -0.2435
 2531SOL    HW120066   2.667   6.644   5.279  0.0945 -2.5301  0.0020
 2531SOL    HW220067   2.584   6.560   5.165 -0.3973  0.7928 -2.1444
 2532SOL     OW20068   6.711   4.491   2.923 -0.6817  0.3072 -0.0321
 2532SOL    HW120069   6.763   4.412   2.891  0.4875  1.5883 -1.3502
 2532SOL    HW220070   6.623   4.494   2.875 -0.2997  0.3773 -0.7346
 2533SOL     OW20071   8.488   5.922   1.237 -0.3312  0.5006 -0.5586
 2533SOL    HW120072   8.490   6.019   1.212  0.7265  0.7034  0.2845
 2533SOL    HW220073   8.429   5.909   1.317  0.0841  0.5613 -0.2378
 2534SOL     OW20074   4.488   8.612   5.954  0.8149 -0.3504  0.7146
 2534SOL    HW120075   4.437   8.697   5.944  0.5046 -0.3738  2.0426
 2534SOL    HW220076   4.441   8.539   5.904 -0.9845 -0.5750  2.6840
 2535SOL     OW20077   2.129   8.440   6.686 -0.1132 -0.0276 -0.2240
 2535SOL    HW120078   2.047   8.495   6.674 -0.6592 -0.7622  0.0716
 2535SOL    HW220079   2.155   8.401   6.597 -0.7405 -0.6928 -0.1286
 2536SOL     OW20080   4.339   3.211   0.401  0.1696 -0.2908  0.0668
 2536SOL    HW120081   4.283   3.267   0.340  1.2236 -0.7024 -1.3245
 2536SOL    HW220082   4.284   3.180   0.478 -0.9987  0.8679 -0.2807
 2537SOL     OW20083   6.485   7.231   2.782  0.3585 -0.2530 -0.4484
 2537SOL    HW120084   6.555   7.209   2.851  1.1737  0.1977 -1.1178
 2537SOL    HW220085   6.491   7.328   2.759  0.2726 -0.4575 -1.3440
 2538SOL     OW20086   3.284   7.400   5.574 -0.1731 -0.7530  0.4754
 2538SOL    HW120087   3.287   7.498   5.594 -0.9704 -0.4968 -0.6114
 2538SOL    HW220088   3.378   7.366   5.564  0.0672  0.6018 -2.3441
 2539SOL     OW20089   2.065   8.283   5.849 -0.0257  0.0312 -0.3577
 2539SOL    HW120090   2.082   8.192   5.886 -0.2096  0.8079  1.6817
 2539SOL    HW220091   1.967   8.293   5.830  0.3558 -1.1286 -3.1957
 2540SOL     OW20092   6.849   5.096   5.300  0.3534  0.1852 -0.2438
 2540SOL    HW120093   6.947   5.076   5.302  0.4817  0.8697  0.5419
 2540SOL    HW220094   6.812   5.089   5.392 -0.4128 -0.3915 -0.5929
 2541SOL     OW20095   0.702   2.173   3.674 -0.2670  0.0127  0.4925
 2541SOL    HW120096   0.793   2.146   3.643 -0.2994  0.5494 -0.0968
 2541SOL    HW220097   0.659   2.097   3.722  1.4473  0.5411  2.9495
 2542SOL     OW20098   6.407   3.778   8.118  0.0149  0.0840 -0.8186
 2542SOL    HW120099   6.366   3.696   8.079  0.5337 -0.8616  0.6099
 2542SOL    HW220100   6.506   3.768   8.123  0.0170  0.4766  0.0773
 2543SOL     OW20101   2.773   4.453   3.677  0.1858  0.1076 -0.2784
 2543SOL    HW120102   2.858   4.456   3.730  0.3402  0.7584 -0.5563
 2543SOL    HW220103   2.765   4.363   3.633  1.7258  0.6966 -1.8380
 2544SOL     OW20104   8.373   6.809   3.316  0.6150  0.5419  0.4089
 2544SOL    HW120105   8.316   6.736   3.279 -1.1051  0.7047  2.6376
 2544SOL    HW220106   8.416   6.859   3.241 -0.6060 -0.8206 -1.2462
 2545SOL     OW20107   2.395   6.678   2.743  0.0613 -0.6236  0.1002
 2545SOL    HW120108   2.347   6.654   2.659 -0.2193 -0.1106  0.1120
 2545SOL    HW220109   2.493   6.660   2.732  0.0219 -0.5776 -0.3237
 2546SOL     OW20110   4.656   3.755   6.722  0.1531 -0.5149  0.5801
 2546SOL    HW120111   4.724   3.699   6.770  0.8916  0.2106  0.4017
 2546SOL    HW220112   4.677   3.852   6.737  0.2931 -0.2869 -1.0742
 2547SOL     OW20113   4.269   3.596   0.631 -0.2026 -0.4051  0.5924
 2547SOL    HW120114   4.347   3.533   0.625  1.3296  1.3973  0.8652
 2547SOL    HW220115   4.250   3.617   0.727 -2.7067 -2.8114  0.6638
 2548SOL     OW20116   4.079   1.920   5.940 -0.4754 -0.6648 -0.1687
 2548SOL    HW120117   4.126   1.964   6.017  0.2970 -2.3862  0.3656
 2548SOL    HW220118   4.031   1.990   5.886  2.1512  1.0540 -0.3745
 2549SOL     OW20119   3.081   2.237   1.326  0.1208 -0.1741  0.0036
 2549SOL    HW120120   3.094   2.324   1.374  0.4410 -0.4845  0.4706
 2549SOL    HW220121   3.156   2.223   1.262  1.5074 -1.4073  1.8688
 2550SOL     OW20122   2.403   3.124   8.722 -0.4561 -0.9343  0.3493
 2550SOL    HW120123   2.425   3.161   8.812 -0.9280 -1.7703  0.8089
 2550SOL    HW220124   2.461   3.046   8.702 -1.2749 -1.5863  0.5015
 2551SOL     OW20125   6.766   8.647   7.998 -0.6234 -0.3191 -0.3557
 2551SOL    HW120126   6.700   8.708   8.040 -0.0338 -0.3818  0.6729
 2551SOL    HW220127   6.775   8.669   7.901 -1.7582  0.0289 -0.3851
 2552SOL     OW20128   4.794   6.143   4.071  0.7064  0.2984  0.4567
 2552SOL    HW120129   4.771   6.240   4.073 -0.6345 -0.0206  1.1934
 2552SOL    HW220130   4.728   6.095   4.012  1.1992 -0.2087  0.3149
 2553SOL     OW20131   5.526   0.386   6.229 -0.5914  0.4851  0.0605
 2553SOL    HW120132   5.500   0.397   6.325 -1.1820 -0.8208  0.0615
 2553SOL    HW220133   5.600   0.318   6.222 -0.1879  0.9672 -0.3534
 2554SOL     OW20134   5.679   6.242   7.770  0.1205  0.4591  0.0723
 2554SOL    HW120135   5.746   6.236   7.696 -1.5611  1.7321 -1.5874
 2554SOL    HW220136   5.645   6.150   7.792  1.0401  0.0150 -0.3486
 2555SOL     OW20137   1.887   0.844   7.890 -0.6864 -0.3549 -0.2281
 2555SOL    HW120138   1.945   0.925   7.898 -0.2858 -0.5714 -0.8626
 2555SOL    HW220139   1.895   0.788   7.972 -0.8407  0.1707  0.1435
 2556SOL     OW20140   8.540   1.827   7.963  0.1406 -0.3332  0.7916
 2556SOL    HW120141   8.590   1.880   8.032  0.7244  1.0365 -0.6466
 2556SOL    HW220142   8.603   1.766   7.916  0.2482  0.6214 -0.3009
 2557SOL     OW20143   5.592   6.832   6.120 -0.0530 -0.7681 -0.2077
 2557SOL    HW120144   5.669   6.796   6.172  1.9977  2.5879 -0.7760
 2557SOL    HW220145   5.590   6.788   6.030  0.3169 -1.8627  0.3031
 2558SOL     OW20146   1.642   0.499   5.304 -0.1532  0.3215  0.0806
 2558SOL    HW120147   1.664   0.557   5.226 -1.3917  1.4054  0.5350
 2558SOL    HW220148   1.727   0.458   5.340  0.5142  0.4522 -1.3062
 2559SOL     OW20149   7.656   8.351   7.896  0.0596 -0.1488  0.3201
 2559SOL    HW120150   7.711   8.355   7.812 -0.9269  1.2410 -0.2697
 2559SOL    HW220151   7.616   8.260   7.905 -0.6325 -0.0058 -1.2276
 2560SOL     OW20152   7.693   1.936   5.606  0.0961 -0.7580 -0.1505
 2560SOL    HW120153   7.638   2.019   5.600 -0.7290 -1.4309 -2.4294
 2560SOL    HW220154   7.746   1.924   5.521 -1.3926 -3.6170 -0.7454
 2561SOL     OW20155   7.932   0.881   5.781  0.1530 -0.2795 -0.3687
 2561SOL    HW120156   8.007   0.824   5.747  1.3571  1.5271 -0.8325
 2561SOL    HW220157   7.963   0.936   5.858 -1.0794 -0.4963  0.2943
 2562SOL     OW20158   1.334   1.765   6.211 -0.6382  0.6655 -0.1082
 2562SOL    HW120159   1.270   1.729   6.143  0.7156  1.1134 -1.6594
 2562SOL    HW220160   1.285   1.826   6.273 -1.4300  2.2571 -2.2282
 2563SOL     OW20161   0.137   7.269   1.053 -0.6942 -0.2369  0.5103
 2563SOL    HW120162   0.111   7.281   0.957  0.1295  0.9795  0.4321
 2563SOL    HW220163   0.058   7.285   1.111 -0.2377  3.3136  0.2646
 2564SOL     OW20164   8.546   8.258   0.386  0.1274 -0.0529 -0.5594
 2564SOL    HW120165   8.459   8.304   0.401  1.3004  1.6954  1.1376
 2564SOL    HW220166   8.579   8.219   0.472  0.4364 -1.7865 -1.4450
 2565SOL     OW20167   7.733   8.010   1.146 -0.7003  0.5026  0.1057
 2565SOL    HW120168   7.832   8.002   1.130 -0.7628 -0.9059  0.3715
 2565SOL    HW220169   7.714   7.998   1.243 -1.0982  1.1563  0.1087
 2566SOL     OW20170   1.051   1.639   1.038  0.1353  0.1260 -0.4827
 2566SOL    HW120171   1.056   1.577   1.117 -0.7923  0.3722 -0.2294
 2566SOL    HW220172   1.051   1.585   0.954 -2.8743 -0.3706 -0.2163
 2567SOL     OW20173   5.989   5.367   1.022 -0.0986 -1.0507  0.2392
 2567SOL    HW120174   6.037   5.416   0.949 -0.3347 -1.0196  0.1051
 2567SOL    HW220175   6.035   5.383   1.109 -1.3130  0.9879  0.5194
 2568SOL     OW20176   6.470   5.323   7.581  0.5221  0.3424 -0.1685
 2568SOL    HW120177   6.383   5.302   7.536  1.2978 -0.1110 -1.4765
 2568SOL    HW220178   6.512   5.402   7.536  0.8298  0.5184  0.4231
 2569SOL     OW20179   0.768   7.940   1.199  1.0434 -0.4921  0.7225
 2569SOL    HW120180   0.711   7.968   1.276  0.7388 -0.8630  0.6377
 2569SOL    HW220181   0.808   7.850   1.218 -0.4707 -1.4166 -0.2855
 2570SOL     OW20182   6.829   7.142   0.289  0.2993 -0.4588 -0.2311
 2570SOL    HW120183   6.827   7.044   0.272 -0.5180 -0.0186 -2.8135
 2570SOL    HW220184   6.742   7.171   0.328  1.0191 -0.9386  1.8153
 2571SOL     OW20185   2.682   3.005   4.207 -0.4993  0.1022 -0.2393
 2571SOL    HW120186   2.647   3.099   4.211  0.2664  0.4159 -0.9496
 2571SOL    HW220187   2.720   2.981   4.297  0.9344  1.1063 -0.5570
 2572SOL     OW20188   6.898   5.785   3.977  0.3736 -0.3889 -0.3552
 2572SOL    HW120189   6.851   5.743   3.899 -0.4383 -0.1843  0.0188
 2572SOL    HW220190   6.949   5.866   3.946  0.8702 -0.8924 -0.8460
 2573SOL     OW20191   4.075   3.570   7.323  0.0995 -0.0324  0.1926
 2573SOL    HW120192   4.036   3.658   7.351 -0.1376 -0.1645  0.2815
 2573SOL    HW220193   4.026   3.496   7.369  0.3562 -0.2088  0.1858
 2574SOL     OW20194   1.117   8.110   0.521  0.2271  0.3743  0.1857
 2574SOL    HW120195   1.190   8.067   0.468 -0.2879 -0.9340  0.4918
 2574SOL    HW220196   1.060   8.166   0.461  1.8688  1.9477  0.0744
 2575SOL     OW20197   7.152   6.047   2.593 -0.1444  0.2908  0.2848
 2575SOL    HW120198   7.157   6.024   2.496  1.7260 -1.5917  0.7613
 2575SOL    HW220199   7.244   6.071   2.626 -0.5336 -0.2693  1.8296
 2576SOL     OW20200   1.502   6.485   6.672 -0.2450  0.1509 -0.4661
 2576SOL    HW120201   1.512   6.386   6.676 -0.7087  0.1237  0.2916
 2576SOL    HW220202   1.529   6.519   6.582  1.1789 -0.5199 -0.3091
 2577SOL     OW20203   4.850   2.972   2.003 -0.1147 -0.1468 -0.1628
 2577SOL    HW120204   4.779   2.955   2.072 -1.3408  1.9567 -0.8635
 2577SOL    HW220205   4.933   3.004   2.049 -0.3853 -0.3240  0.4663
 2578SOL     OW20206   7.454   5.179   3.950  0.5454 -0.3879 -0.2585
 2578SOL    HW120207   7.547   5.186   3.913  0.3482 -0.0665 -0.7085
 2578SOL    HW220208   7.451   5.222   4.040  0.7838 -0.1890 -0.3423
 2579SOL     OW20209   4.367   7.141   6.399  0.4859  0.1396  0.1773
 2579SOL    HW120210   4.276   7.107   6.419  0.5076 -0.4265 -0.6744
 2579SOL    HW220211   4.429   7.117   6.474  0.3255 -1.0154 -0.0551
 2580SOL     OW20212   6.903   4.229   8.721  0.4153  0.3137 -0.1733
 2580SOL    HW120213   6.885   4.139   8.762  3.1734 -0.4414 -0.4952
 2580SOL    HW220214   6.863   4.300   8.779  0.5039 -0.9681  1.5328
 2581SOL     OW20215   5.747   7.914   7.305  0.4930 -0.2676 -0.6890
 2581SOL    HW120216   5.741   7.916   7.206  0.6680 -0.7125 -0.7125
 2581SOL    HW220217   5.815   7.846   7.333 -1.8105 -2.4484 -0.2011
 2582SOL     OW20218   4.906   3.556   5.359  0.2275  0.3490 -0.4592
 2582SOL    HW120219   4.998   3.516   5.363  0.6199  1.1137 -1.4330
 2582SOL    HW220220   4.911   3.652   5.389 -0.3850  0.1835  0.1722
 2583SOL     OW20221   2.189   8.782   8.799 -0.1962 -0.6828 -0.1590
 2583SOL    HW120222   2.256   8.713   8.828 -0.6252 -1.0264  0.0225
 2583SOL    HW220223   2.136   8.746   8.722  0.1456 -0.2276 -0.6127
 2584SOL     OW20224   4.873   4.036   8.769  0.3516  0.4685 -0.3459
 2584SOL    HW120225   4.833   4.076   8.851 -0.3364  1.8986 -1.3585
 2584SOL    HW220226   4.799   4.010   8.705  0.9514  1.2726 -1.3785
 2585SOL     OW20227   1.628   7.881   8.430 -0.2626  0.5087 -0.4497
 2585SOL    HW120228   1.678   7.825   8.364  0.6397 -1.5830  1.9418
 2585SOL    HW220229   1.685   7.958   8.459 -0.0211  0.4845 -0.8624
 2586SOL     OW20230   3.471   2.521   0.512  0.1078 -0.4068 -0.4613
 2586SOL    HW120231   3.394   2.571   0.552 -0.7880 -0.3202 -2.2357
 2586SOL    HW220232   3.451   2.423   0.511 -0.8728 -0.2177 -2.7239
 2587SOL     OW20233   8.148   5.049   3.546  0.4754  0.2933  0.1545
 2587SOL    HW120234   8.214   5.090   3.609 -0.1915  0.9666  0.4206
 2587SOL    HW220235   8.094   5.121   3.503 -0.7637 -0.2982  0.6906
 2588SOL     OW20236   1.833   4.902   3.240 -0.0945  0.6790  0.2598
 2588SOL    HW120237   1.767   4.831   3.268  0.9061 -1.1748 -1.9037
 2588SOL    HW220238   1.921   4.884   3.284  0.5676 -0.3315 -1.4167
 2589SOL     OW20239   8.377   4.082   2.761 -0.4057  0.4227  0.4023
 2589SOL    HW120240   8.406   4.041   2.674  0.1916  1.5351  0.0629
 2589SOL    HW220241   8.277   4.090   2.762 -0.2952  2.4233 -1.1374
 2590SOL     OW20242   8.697   3.060   5.317  0.1586  0.1444 -0.2350
 2590SOL    HW120243   8.700   3.004   5.234 -0.6215 -3.4556  2.0494
 2590SOL    HW220244   8.789   3.091   5.340  0.9403 -1.8951 -0.4873
 2591SOL     OW20245   8.317   1.308   6.392  0.9659  0.2637 -0.1186
 2591SOL    HW120246   8.391   1.358   6.346 -1.1192  0.9729 -2.8635
 2591SOL    HW220247   8.240   1.298   6.329 -0.1004 -3.2251  1.6346
 2592SOL     OW20248   5.636   8.595   0.843  0.3732 -0.3416  0.6488
 2592SOL    HW120249   5.645   8.677   0.786  1.4336 -0.8407  0.0713
 2592SOL    HW220250   5.647   8.619   0.939  2.2788 -0.0124  0.3822
 2593SOL     OW20251   8.525   8.620   7.493  0.2972 -0.0881 -0.2178
 2593SOL    HW120252   8.586   8.640   7.569  0.2513  0.4529 -0.3186
 2593SOL    HW220253   8.430   8.622   7.524  0.2751  0.1972 -0.3018
 2594SOL     OW20254   0.847   2.525   5.193 -0.2936  0.5244 -0.0829
 2594SOL    HW120255   0.781   2.524   5.118  0.3734  1.5131 -0.7045
 2594SOL    HW220256   0.858   2.433   5.230  0.5906 -0.2706 -2.2820
 2595SOL     OW20257   2.316   2.584   4.575 -0.0885  0.0449  0.1173
 2595SOL    HW120258   2.389   2.572   4.643 -1.0173 -0.4237  1.0466
 2595SOL    HW220259   2.352   2.634   4.496  2.1953 -3.2623 -1.0331
 2596SOL     OW20260   1.085   7.674   1.142 -0.2991 -0.3153 -0.6915
 2596SOL    HW120261   1.166   7.659   1.199 -0.6869  0.3100  0.0285
 2596SOL    HW220262   1.003   7.648   1.192 -0.5613 -0.8497 -1.3838
 2597SOL     OW20263   7.179   8.173   3.185 -0.2965  0.1637 -0.0285
 2597SOL    HW120264   7.099   8.128   3.145  0.1553 -0.4351 -0.2477
 2597SOL    HW220265   7.255   8.170   3.121  0.8006 -1.8699  1.3244
 2598SOL     OW20266   1.074   1.538   3.792  0.0819 -0.2718  0.1089
 2598SOL    HW120267   1.114   1.470   3.854  1.3688 -0.8472 -1.3348
 2598SOL    HW220268   1.036   1.492   3.712  0.6374  0.6602 -0.7056
 2599SOL     OW20269   7.412   3.348   2.055 -0.8678  0.0180  0.0411
 2599SOL    HW120270   7.359   3.344   2.139  2.6457 -0.3354  2.3279
 2599SOL    HW220271   7.428   3.255   2.021 -1.5293  0.1197 -0.5744
 2600SOL     OW20272   8.141   2.958   2.663  0.2268  0.0888  0.0888
 2600SOL    HW120273   8.184   3.046   2.683 -2.3493  0.9132  2.2897
 2600SOL    HW220274   8.146   2.940   2.565  2.7589  1.6058 -0.1150
 2601SOL     OW20275   3.772   8.321   4.181  0.2742  0.3064 -0.0715
 2601SOL    HW120276   3.841   8.379   4.223 -0.8973  1.1899  0.6570
 2601SOL    HW220277   3.698   8.377   4.144 -1.1789 -0.7248  1.1902
 2602SOL     OW20278   7.524   7.172   3.414 -0.1386  0.4696 -0.1147
 2602SOL    HW120279   7.603   7.119   3.383 -1.7547 -1.6179 -0.7370
 2602SOL    HW220280   7.478   7.124   3.488 -1.9413  0.7084 -1.0572
 2603SOL     OW20281   1.837   0.827   1.050 -0.6217  0.1228  0.0046
 2603SOL    HW120282   1.908   0.883   1.005  1.7256 -1.2656  1.8385
 2603SOL    HW220283   1.838   0.847   1.148 -0.2479 -2.5556  0.5796
 2604SOL     OW20284   1.224   0.283   7.768 -0.1557  0.1285 -0.4067
 2604SOL    HW120285   1.133   0.283   7.727  0.3859  0.6345 -1.6416
 2604SOL    HW220286   1.222   0.335   7.853 -1.0883 -0.0998 -0.2865
 2605SOL     OW20287   2.807   5.913   8.507  0.3305 -0.1303  0.4234
 2605SOL    HW120288   2.748   5.979   8.461  0.6571 -0.3448 -0.3044
 2605SOL    HW220289   2.900   5.921   8.473  0.3727 -0.9638  0.3222
 2606SOL     OW20290   5.874   2.832   8.332 -0.6324 -0.9757 -0.3566
 2606SOL    HW120291   5.925   2.748   8.350  2.0993  0.4398 -1.1994
 2606SOL    HW220292   5.809   2.848   8.407  2.4296 -1.1920  2.4897
 2607SOL     OW20293   1.384   8.283   6.336  0.0148 -0.0874 -0.1367
 2607SOL    HW120294   1.310   8.333   6.381 -0.8030  0.2950 -1.8611
 2607SOL    HW220295   1.431   8.344   6.272 -0.4098 -1.2676 -1.5906
 2608SOL     OW20296   2.387   5.602   1.305 -0.4425  0.5809 -0.1084
 2608SOL    HW120297   2.371   5.637   1.398 -1.0524  0.0472 -0.0116
 2608SOL    HW220298   2.396   5.503   1.308  0.3045  0.6383 -0.5201
 2609SOL     OW20299   0.019   3.374   2.931 -0.3036 -0.2341 -0.2361
 2609SOL    HW120300   0.117   3.393   2.920 -0.3073  1.1565  1.9193
 2609SOL    HW220301   0.007   3.276   2.949  0.6386 -0.5115 -1.0537
 2610SOL     OW20302   3.268   6.815   2.905  0.0006  0.6628  0.2248
 2610SOL    HW120303   3.204   6.860   2.968 -0.9799  0.8607 -0.9012
 2610SOL    HW220304   3.312   6.884   2.848 -0.5788  0.3167 -0.6517
 2611SOL     OW20305   4.790   8.868   0.814  0.0001  0.5083  0.9238
 2611SOL    HW120306   4.808   8.876   0.912 -1.1689 -0.2198  1.2150
 2611SOL    HW220307   4.759   8.775   0.794  0.5590  0.5592 -0.1927
 2612SOL     OW20308   7.097   3.239   3.356 -0.3976 -0.2914  0.4744
 2612SOL    HW120309   7.005   3.237   3.397 -0.7719  0.7766 -0.2772
 2612SOL    HW220310   7.118   3.332   3.327  0.2088 -0.8675 -0.9727
 2613SOL     OW20311   1.884   2.253   2.581 -0.2513 -1.0410 -0.0848
 2613SOL    HW120312   1.941   2.171   2.576  0.3048 -0.7036  0.6481
 2613SOL    HW220313   1.913   2.318   2.511  1.0790 -0.3687  1.0666
 2614SOL     OW20314   6.937   7.882   2.700 -0.6844  0.3729 -0.3540
 2614SOL    HW120315   6.952   7.975   2.734  0.5244 -0.6638  2.1239
 2614SOL    HW220316   6.917   7.821   2.777 -5.1370 -0.7944 -2.2788
 2615SOL     OW20317   8.645   3.274   6.737  0.6045 -0.3255  0.4268
 2615SOL    HW120318   8.671   3.334   6.813  3.2978  0.8848 -1.3962
 2615SOL    HW220319   8.579   3.322   6.679  0.3746 -0.3281  0.6859
 2616SOL     OW20320   7.107   7.051   2.324  0.4459 -0.1749  0.3549
 2616SOL    HW120321   7.011   7.072   2.310  0.3503 -0.8612 -0.0682
 2616SOL    HW220322   7.127   7.050   2.422  0.4245  1.6760  0.3856
 2617SOL     OW20323   5.450   8.493   2.455 -0.4013 -0.7962 -0.1154
 2617SOL    HW120324   5.488   8.500   2.548 -0.6239  1.1178 -0.1429
 2617SOL    HW220325   5.524   8.503   2.389 -0.5271  0.0737 -0.1406
 2618SOL     OW20326   2.011   4.382   3.876 -0.4045  0.1214  0.1484
 2618SOL    HW120327   2.054   4.452   3.818  0.1452 -2.2210 -2.3468
 2618SOL    HW220328   2.051   4.386   3.968  0.2441  2.4756 -0.1869
 2619SOL     OW20329   5.200   5.037   8.326 -0.0456  0.3769 -0.2849
 2619SOL    HW120330   5.230   5.000   8.238  0.2559  0.4458 -0.2126
 2619SOL    HW220331   5.107   5.007   8.346 -0.3754  0.9333 -0.9601
 2620SOL     OW20332   7.098   6.450   5.745 -0.4742 -0.2456  0.5385
 2620SOL    HW120333   7.186   6.412   5.773 -0.5789  0.7649  2.3248
 2620SOL    HW220334   7.093   6.452   5.645  1.0536 -1.3709  0.4188
 2621SOL     OW20335   2.445   7.240   3.454  0.5250 -0.2417  0.2787
 2621SOL    HW120336   2.377   7.269   3.521  0.0006 -0.8746  0.0201
 2621SOL    HW220337   2.431   7.144   3.431  0.2972  0.1356 -1.2145
 2622SOL     OW20338   6.262   0.513   8.689 -0.2005 -0.4499  0.0163
 2622SOL    HW120339   6.296   0.427   8.728  1.7572  0.3525  0.0944
 2622SOL    HW220340   6.292   0.589   8.746 -1.6853  0.3330 -0.2240
 2623SOL     OW20341   3.634   2.569   7.281  0.4902 -0.1853 -1.2146
 2623SOL    HW120342   3.669   2.487   7.237  0.0962 -0.7693 -0.4476
 2623SOL    HW220343   3.671   2.576   7.374 -1.2428 -0.7161 -0.4545
 2624SOL     OW20344   3.612   5.725   2.559 -0.1811  0.4266  0.2934
 2624SOL    HW120345   3.528   5.765   2.596  0.5255  1.2669  1.0053
 2624SOL    HW220346   3.667   5.797   2.516  0.5973  0.0315  0.6314
 2625SOL     OW20347   2.081   7.911   3.207  0.2768  0.0103 -0.4675
 2625SOL    HW120348   2.130   7.866   3.132  0.1054 -1.0689  0.0492
 2625SOL    HW220349   2.124   7.886   3.294 -0.5522 -0.1011 -0.0854
 2626SOL     OW20350   1.272   2.394   7.125  0.0148  0.3804  0.0682
 2626SOL    HW120351   1.264   2.354   7.217 -1.5044 -0.8767 -0.5862
 2626SOL    HW220352   1.194   2.365   7.069  1.8672 -0.4425 -2.1982
 2627SOL     OW20353   1.709   6.252   5.636 -0.1826 -0.2962 -0.2785
 2627SOL    HW120354   1.727   6.317   5.710 -1.2286 -2.0168  1.5371
 2627SOL    HW220355   1.612   6.228   5.636 -0.1313 -0.5314 -2.0424
 2628SOL     OW20356   3.887   5.058   2.651  0.2135  0.4213 -0.0269
 2628SOL    HW120357   3.965   5.016   2.698  0.9615  1.4769 -0.3021
 2628SOL    HW220358   3.811   5.068   2.716 -0.1129 -1.6968 -0.0708
 2629SOL     OW20359   6.070   2.833   2.115  0.1155  0.1338  0.6900
 2629SOL    HW120360   6.008   2.755   2.125 -2.5578  1.9266 -1.1108
 2629SOL    HW220361   6.109   2.834   2.023 -0.7811  1.4903  0.2969
 2630SOL     OW20362   8.193   7.903   3.020  0.6784  0.4061  0.0628
 2630SOL    HW120363   8.251   7.827   3.047  0.3754  0.3662  0.5959
 2630SOL    HW220364   8.097   7.880   3.035  0.5226  0.4980 -0.7541
 2631SOL     OW20365   0.361   5.398   4.900 -0.9476  0.2452 -0.2300
 2631SOL    HW120366   0.376   5.314   4.848 -1.7463  0.4300 -0.7586
 2631SOL    HW220367   0.413   5.394   4.985 -1.0202 -0.8054 -0.2327
 2632SOL     OW20368   4.152   2.965   2.494  0.2396  0.0665  0.0646
 2632SOL    HW120369   4.191   2.899   2.431 -0.1036  0.8508 -0.9717
 2632SOL    HW220370   4.085   2.919   2.553 -0.3350 -0.4157 -0.9584
 2633SOL     OW20371   1.922   7.998   8.229  0.6589 -0.6318 -0.2809
 2633SOL    HW120372   1.954   7.919   8.281 -0.0099 -0.7572 -0.0517
 2633SOL    HW220373   1.868   8.058   8.288 -0.6816 -1.1234 -0.9740
 2634SOL     OW20374   6.231   1.155   8.532  0.0313  0.3454 -0.0148
 2634SOL    HW120375   6.199   1.144   8.438  1.3620  2.9926 -0.8296
 2634SOL    HW220376   6.329   1.173   8.532  0.3126 -0.9740  2.0082
 2635SOL     OW20377   1.193   4.247   5.140  0.1634  0.5161 -0.6229
 2635SOL    HW120378   1.149   4.175   5.193 -0.0479  1.3402  0.3147
 2635SOL    HW220379   1.278   4.211   5.100  0.0109 -0.2797 -0.2407
 2636SOL     OW20380   5.695   5.875   0.480 -0.2387 -0.0169  0.0372
 2636SOL    HW120381   5.699   5.800   0.546 -2.1486  0.5316  0.8202
 2636SOL    HW220382   5.747   5.851   0.398  1.5218 -1.0228  1.4232
 2637SOL     OW20383   4.308   4.252   6.449 -0.5690  0.2523 -0.6270
 2637SOL    HW120384   4.293   4.274   6.545 -0.6909  0.6283 -0.7294
 2637SOL    HW220385   4.382   4.308   6.413  0.1237 -0.5773 -0.4986
 2638SOL     OW20386   1.488   7.239   6.365 -0.0217  0.2195 -0.0920
 2638SOL    HW120387   1.572   7.198   6.331  0.1417 -0.5097  1.1691
 2638SOL    HW220388   1.494   7.338   6.357  0.9636  0.1746  0.0102
 2639SOL     OW20389   4.263   3.772   6.731  0.0716  0.2498 -0.0576
 2639SOL    HW120390   4.335   3.749   6.795  0.3801  1.3679  0.0046
 2639SOL    HW220391   4.174   3.752   6.772  0.3260 -0.4911  0.1236
 2640SOL     OW20392   8.276   7.527   7.870  0.6768  0.1725  0.1087
 2640SOL    HW120393   8.268   7.477   7.784  0.3810 -0.1995  0.3518
 2640SOL    HW220394   8.372   7.531   7.897  0.6102 -1.0466  0.5488
 2641SOL     OW20395   6.605   8.722   6.854  0.1127 -0.7262 -0.3300
 2641SOL    HW120396   6.558   8.672   6.781 -0.5135 -2.7018  1.3786
 2641SOL    HW220397   6.538   8.760   6.917  0.6986 -0.7167  0.2942
 2642SOL     OW20398   4.015   7.619   0.605 -0.3138 -1.0989  0.2487
 2642SOL    HW120399   4.009   7.542   0.541  1.2911 -1.0197 -0.0167
 2642SOL    HW220400   4.030   7.703   0.553  0.6876 -0.9925  0.7006
 2643SOL     OW20401   8.236   8.657   8.450  0.0098 -0.3675  0.0754
 2643SOL    HW120402   8.283   8.742   8.431 -0.9094  0.0923 -0.1846
 2643SOL    HW220403   8.189   8.664   8.538 -0.7387 -0.3036 -0.3247
 2644SOL     OW20404   2.629   2.931   0.121 -0.0121  0.5517 -0.0299
 2644SOL    HW120405   2.576   2.936   0.206 -0.3231 -0.0078 -0.1903
 2644SOL    HW220406   2.686   3.013   0.113  1.7270 -0.4445  1.8168
 2645SOL     OW20407   7.784   7.130   7.841  0.3698 -0.0083 -0.3991
 2645SOL    HW120408   7.761   7.167   7.931  0.0449  0.0651 -0.5105
 2645SOL    HW220409   7.707   7.075   7.807  0.1005  0.7537 -1.0536
 2646SOL     OW20410   8.569   4.034   8.401 -0.6877  0.2576 -0.1755
 2646SOL    HW120411   8.596   4.100   8.331 -3.4173  0.8140 -0.7693
 2646SOL    HW220412   8.568   3.942   8.361  0.3813  0.2099 -0.1103
 2647SOL     OW20413   6.710   6.015   7.953  0.2756 -0.1052  0.0336
 2647SOL    HW120414   6.671   5.942   8.009 -1.1343 -0.9651 -2.0334
 2647SOL    HW220415   6.659   6.024   7.868  2.0766  1.5199 -0.9318
 2648SOL     OW20416   7.091   5.248   4.131 -0.5514  0.1797 -0.0838
 2648SOL    HW120417   7.142   5.260   4.046 -0.6644  1.9065  0.0702
 2648SOL    HW220418   7.133   5.304   4.203 -0.4413 -1.2785  1.0132
 2649SOL     OW20419   8.945   6.819   4.710 -0.5675  0.3014 -0.0158
 2649SOL    HW120420   8.888   6.778   4.638 -0.0668  1.3974 -1.0394
 2649SOL    HW220421   8.892   6.822   4.796 -0.8551 -1.8181 -0.1005
 2650SOL     OW20422   2.524   2.516   4.809 -0.6243  0.1129  0.0806
 2650SOL    HW120423   2.484   2.510   4.900  0.7467 -1.8531  0.5675
 2650SOL    HW220424   2.520   2.427   4.765 -2.5505  1.3442 -2.3609
 2651SOL     OW20425   6.925   6.595   5.908  0.6097  0.2175 -0.0564
 2651SOL    HW120426   6.990   6.537   5.858 -0.6628  0.3761 -1.9628
 2651SOL    HW220427   6.960   6.613   6.000  2.1351 -1.6347 -0.2381
 2652SOL     OW20428   4.718   4.659   2.553 -0.0565 -0.6972 -0.4157
 2652SOL    HW120429   4.808   4.688   2.522  0.1577  0.1570  0.9963
 2652SOL    HW220430   4.724   4.619   2.645 -0.7321 -2.9793 -1.3095
 2653SOL     OW20431   1.655   4.636   6.518  0.3830  0.1794  0.4843
 2653SOL    HW120432   1.657   4.552   6.571 -0.9522  0.2788  0.6958
 2653SOL    HW220433   1.656   4.614   6.420  0.1209 -0.0835  0.5411
 2654SOL     OW20434   1.826   2.012   5.349  0.5893 -0.1114  0.4824
 2654SOL    HW120435   1.793   2.082   5.412 -1.0610 -0.0905 -0.3910
 2654SOL    HW220436   1.891   2.054   5.285  2.2992 -0.1413  2.1417
 2655SOL     OW20437   4.362   6.075   3.204  0.4569 -0.6300  0.3158
 2655SOL    HW120438   4.455   6.104   3.180 -0.3642  2.2860  0.5145
 2655SOL    HW220439   4.355   6.064   3.303 -0.2734  2.4338  0.6373
 2656SOL     OW20440   8.879   0.595   4.650 -0.2508  0.1826  0.0291
 2656SOL    HW120441   8.844   0.519   4.705  0.6745  0.4382  0.9953
 2656SOL    HW220442   8.806   0.661   4.633 -0.4409  0.3337  1.3717
 2657SOL     OW20443   8.691   1.570   0.774  0.2457 -0.9443  0.3609
 2657SOL    HW120444   8.620   1.640   0.781  0.8363 -0.3195  0.0879
 2657SOL    HW220445   8.648   1.479   0.773 -0.5033 -0.5984  0.9496
 2658SOL     OW20446   1.176   3.903   8.637 -0.3113  0.3422  0.4751
 2658SOL    HW120447   1.167   4.001   8.653  0.9127  0.5457  0.0032
 2658SOL    HW220448   1.241   3.864   8.703 -1.6798 -0.3738  1.4184
 2659SOL     OW20449   4.417   0.907   5.867 -0.0644  0.0884  0.4490
 2659SOL    HW120450   4.347   0.892   5.937 -0.0472  0.2692  0.5047
 2659SOL    HW220451   4.505   0.922   5.911  0.1281 -0.7760  0.3643
 2660SOL     OW20452   7.607   3.346   6.622 -0.0564  0.1761 -0.4232
 2660SOL    HW120453   7.669   3.424   6.634 -1.5454  1.0554  1.8636
 2660SOL    HW220454   7.611   3.287   6.702 -1.7919 -0.0282 -0.4679
 2661SOL     OW20455   8.055   7.304   1.045 -0.3783  1.1085 -0.1851
 2661SOL    HW120456   8.110   7.306   0.961  0.0376 -1.0743  0.0247
 2661SOL    HW220457   8.090   7.234   1.106 -0.9772  2.3696  1.6489
 2662SOL     OW20458   2.029   3.391   5.881  0.8131  0.5312 -0.5433
 2662SOL    HW120459   1.938   3.399   5.840  1.0732  0.4778 -1.1339
 2662SOL    HW220460   2.024   3.334   5.962 -0.1489  2.5022  0.8240
 2663SOL     OW20461   6.334   3.240   1.751  0.0412 -0.0996 -0.5713
 2663SOL    HW120462   6.246   3.248   1.703  0.7864  2.7297 -1.5623
 2663SOL    HW220463   6.353   3.143   1.769 -3.3010 -0.7616 -0.2477
 2664SOL     OW20464   2.043   0.651   1.260 -0.0219  0.0089  0.3651
 2664SOL    HW120465   2.012   0.557   1.245  0.9995 -0.4277  0.9305
 2664SOL    HW220466   2.066   0.693   1.173 -0.0329 -0.4282  0.1493
 2665SOL     OW20467   5.572   0.964   1.072  0.8823  0.1313  0.2378
 2665SOL    HW120468   5.536   0.892   1.013  0.2622  0.5101  0.1484
 2665SOL    HW220469   5.670   0.948   1.088  0.1456 -2.3967  2.6688
 2666SOL     OW20470   7.410   7.361   1.261 -0.0628 -0.3084 -0.5285
 2666SOL    HW120471   7.488   7.300   1.246  0.3382 -0.2626  1.1994
 2666SOL    HW220472   7.444   7.454   1.276 -0.5062 -0.1460 -0.5479
 2667SOL     OW20473   2.305   2.988   6.481  0.0556  0.1399  0.2997
 2667SOL    HW120474   2.330   3.056   6.413 -1.1765  1.1228  0.7931
 2667SOL    HW220475   2.220   2.943   6.454  0.8299 -1.1694  0.0094
 2668SOL     OW20476   0.322   6.785   7.283  0.1490 -0.1716 -0.2330
 2668SOL    HW120477   0.281   6.695   7.263  0.6405 -0.4109 -0.1538
 2668SOL    HW220478   0.249   6.850   7.306 -0.1272 -0.7923  0.6580
 2669SOL     OW20479   3.156   4.744   0.158  0.4633  0.2289  0.0107
 2669SOL    HW120480   3.226   4.680   0.125 -0.9119 -0.0178 -2.6260
 2669SOL    HW220481   3.197   4.834   0.173  1.4778 -0.0596 -0.9378
 2670SOL     OW20482   7.943   5.709   4.750  0.3423  0.6847  0.4774
 2670SOL    HW120483   7.910   5.756   4.832  0.2481 -0.0258  0.8476
 2670SOL    HW220484   8.020   5.759   4.711  1.1536  0.3677  1.6745
 2671SOL     OW20485   2.652   5.248   1.269 -0.0175  0.1887 -0.5754
 2671SOL    HW120486   2.679   5.227   1.175  0.1992  1.7993 -0.8941
 2671SOL    HW220487   2.716   5.315   1.308 -0.4604 -0.0037  0.5024
 2672SOL     OW20488   0.593   2.391   8.620  0.4219  0.1183  0.5694
 2672SOL    HW120489   0.693   2.398   8.612  0.4998 -2.5294 -1.5403
 2672SOL    HW220490   0.551   2.408   8.531 -0.9467  0.2946  1.2353
 2673SOL     OW20491   6.215   5.637   3.520  0.0838 -0.2532 -0.1371
 2673SOL    HW120492   6.293   5.576   3.535  0.2321  0.3398  1.5602
 2673SOL    HW220493   6.135   5.582   3.495 -0.3807 -1.4539  3.6453
 2674SOL     OW20494   2.320   3.110   3.511  0.3091  0.1918  0.7285
 2674SOL    HW120495   2.301   3.173   3.436 -0.3855 -0.8864 -0.0085
 2674SOL    HW220496   2.403   3.139   3.559  0.2527  1.3987  0.1104
 2675SOL     OW20497   3.448   0.073   7.544 -0.2755 -0.0502  0.3421
 2675SOL    HW120498   3.519   0.141   7.561 -0.8975  0.4528  0.9260
 2675SOL    HW220499   3.478  -0.016   7.581 -0.2732  0.3349  1.2850
 2676SOL     OW20500   3.236   5.748   2.812  0.6761  0.0715 -0.4268
 2676SOL    HW120501   3.274   5.807   2.741  2.8427 -0.9651 -0.1624
 2676SOL    HW220502   3.192   5.669   2.770  3.1081 -1.2211 -0.6217
 2677SOL     OW20503   3.033   6.904   4.766  0.4613  0.0785  0.4338
 2677SOL    HW120504   3.102   6.909   4.695  1.0819  0.8039  1.0873
 2677SOL    HW220505   3.072   6.860   4.848 -0.2908 -0.9005  0.2778
 2678SOL     OW20506   7.294   5.397   1.992 -0.1905 -0.6565  0.0665
 2678SOL    HW120507   7.209   5.443   2.019 -1.2568 -1.3177 -2.0141
 2678SOL    HW220508   7.313   5.417   1.896  1.3563 -1.5243  0.1857
 2679SOL     OW20509   4.774   6.993   0.214 -0.5315 -0.5051 -0.2411
 2679SOL    HW120510   4.712   7.013   0.290 -2.7787 -1.9031 -1.6515
 2679SOL    HW220511   4.819   6.905   0.231  2.8724  1.5305  1.8598
 2680SOL     OW20512   8.481   5.267   0.334  0.0513 -0.1872  0.5629
 2680SOL    HW120513   8.556   5.333   0.330  0.3438 -0.4618  1.5619
 2680SOL    HW220514   8.509   5.182   0.291  0.8446 -0.8055  2.2656
 2681SOL     OW20515   1.808   6.443   1.600 -0.7102 -0.0683 -0.1167
 2681SOL    HW120516   1.899   6.482   1.607 -1.2381  1.1513  0.1596
 2681SOL    HW220517   1.763   6.448   1.689 -0.5354 -1.9804  0.1042
 2682SOL     OW20518   2.802   7.703   6.733  0.3256  0.1399  0.2673
 2682SOL    HW120519   2.741   7.623   6.733  0.8865 -0.2934  0.9337
 2682SOL    HW220520   2.753   7.782   6.698  0.2461 -0.8857 -2.0495
 2683SOL     OW20521   0.371   1.673   0.518 -0.3260  0.6180  0.0797
 2683SOL    HW120522   0.349   1.608   0.445 -0.4008 -0.3622  0.9601
 2683SOL    HW220523   0.350   1.632   0.607  1.9897  0.9086  0.7859
 2684SOL     OW20524   4.406   4.959   7.150  0.6163  0.0234 -0.6048
 2684SOL    HW120525   4.321   4.936   7.197 -0.5226  1.1878 -2.0284
 2684SOL    HW220526   4.471   4.884   7.159 -0.2361 -0.5252  1.2279
 2685SOL     OW20527   3.963   3.513   0.312 -0.0557  0.7409  0.1107
 2685SOL    HW120528   3.919   3.479   0.229  0.2644 -0.5440  0.4540
 2685SOL    HW220529   3.902   3.576   0.359 -1.1942 -0.3658  0.1384
 2686SOL     OW20530   3.935   3.588   3.408  0.2239 -0.0794  0.0726
 2686SOL    HW120531   3.941   3.596   3.308  1.5648  1.2426  0.2360
 2686SOL    HW220532   3.975   3.670   3.450 -1.6118  0.0131  1.6828
 2687SOL     OW20533   3.927   3.112   8.380 -0.0570  0.3623 -0.0069
 2687SOL    HW120534   3.881   3.188   8.335 -0.7935 -0.2139 -0.2373
 2687SOL    HW220535   4.013   3.144   8.420 -0.2842  1.2748 -0.2392
 2688SOL     OW20536   5.667   0.095   8.770  0.3618  0.6319  0.2979
 2688SOL    HW120537   5.764   0.119   8.760  0.3778  0.6716  0.5449
 2688SOL    HW220538   5.650   0.006   8.729  0.7122  0.1630  1.1527
 2689SOL     OW20539   7.393   3.635   5.814 -0.0294 -0.8107  0.3844
 2689SOL    HW120540   7.438   3.548   5.831 -0.8504 -1.2815  0.1907
 2689SOL    HW220541   7.446   3.687   5.747  1.1058 -0.6347  1.4002
 2690SOL     OW20542   5.963   4.724   7.606  0.2540  0.4723 -0.3070
 2690SOL    HW120543   6.051   4.676   7.596 -0.5879 -1.3741  0.7791
 2690SOL    HW220544   5.938   4.766   7.519  1.5797 -0.1206 -0.9984
 2691SOL     OW20545   3.277   2.545   6.567  0.0325  0.6475  0.5910
 2691SOL    HW120546   3.251   2.450   6.583 -0.7517  1.1113  2.2528
 2691SOL    HW220547   3.201   2.595   6.524  0.6686  0.3796 -0.8555
 2692SOL     OW20548   2.493   8.224   6.362 -0.3851  0.3937  0.1874
 2692SOL    HW120549   2.442   8.276   6.293  0.7411 -0.0934 -1.0419
 2692SOL    HW220550   2.577   8.274   6.386 -0.0675 -0.1104  0.1414
 2693SOL     OW20551   4.797   4.077   7.047 -0.5712  0.1687 -0.2943
 2693SOL    HW120552   4.885   4.105   7.086 -0.9905  2.9847 -1.2782
 2693SOL    HW220553   4.743   4.030   7.117  1.1065 -0.2633  0.7413
 2694SOL     OW20554   7.176   6.307   1.731  0.4934 -1.3109 -0.2661
 2694SOL    HW120555   7.228   6.222   1.720  1.2398 -0.6227 -2.3117
 2694SOL    HW220556   7.164   6.351   1.642 -0.5620  0.3477  0.6558
 2695SOL     OW20557   0.130   6.312   2.349  0.7534 -0.2649  0.2128
 2695SOL    HW120558   0.123   6.236   2.284  1.1085  0.4998 -0.7317
 2695SOL    HW220559   0.051   6.311   2.411  0.0392 -0.5697 -0.7026
 2696SOL     OW20560   2.356   8.087   1.353 -0.1125  0.0688  0.0480
 2696SOL    HW120561   2.314   8.174   1.327  0.8508  0.3498 -0.5973
 2696SOL    HW220562   2.312   8.051   1.435  0.3819  1.8272  1.0997
 2697SOL     OW20563   6.672   6.092   2.341 -0.7264 -0.0738 -0.7344
 2697SOL    HW120564   6.734   6.158   2.383 -0.1492 -1.7419  1.0832
 2697SOL    HW220565   6.649   6.122   2.248  1.9149  1.1482 -1.0268
 2698SOL     OW20566   1.589   2.439   0.286 -0.0545 -0.4977 -0.3964
 2698SOL    HW120567   1.544   2.528   0.296  0.7539 -0.1240  0.0241
 2698SOL    HW220568   1.602   2.419   0.189  0.0110 -0.0283 -0.4860
 2699SOL     OW20569   4.418   2.527   8.098 -0.9768 -0.3914 -0.7287
 2699SOL    HW120570   4.471   2.446   8.072 -2.2714 -1.0408 -1.3515
 2699SOL    HW220571   4.394   2.579   8.015  0.5602  1.0924 -0.2758
 2700SOL     OW20572   5.781   4.331   2.913 -0.0456 -0.3493 -0.6975
 2700SOL    HW120573   5.740   4.379   2.991 -0.4220 -1.8135  0.0163
 2700SOL    HW220574   5.745   4.370   2.828  1.2666  2.0573 -0.1980
 2701SOL     OW20575   3.137   2.366   0.631 -0.5118  0.0708 -0.0776
 2701SOL    HW120576   3.179   2.276   0.619  0.7019  0.7699 -1.2655
 2701SOL    HW220577   3.088   2.391   0.547 -0.8549  0.5136  0.2546
 2702SOL     OW20578   2.828   3.970   8.877  0.2789  0.2045  0.4640
 2702SOL    HW120579   2.840   4.021   8.792  1.0574 -1.1587 -0.2649
 2702SOL    HW220580   2.916   3.967   8.926 -0.1331  0.8681  1.2599
 2703SOL     OW20581   5.390   2.742   5.003  0.2953 -0.2982  0.7230
 2703SOL    HW120582   5.348   2.813   4.946 -1.0834 -2.1939 -0.6855
 2703SOL    HW220583   5.360   2.754   5.098  1.0070  1.6687  0.7347
 2704SOL     OW20584   5.872   4.658   3.468 -0.0588  0.2211 -0.0473
 2704SOL    HW120585   5.803   4.695   3.531  1.2132 -0.0150  1.5252
 2704SOL    HW220586   5.934   4.731   3.440 -1.2809  0.5569 -1.9322
 2705SOL     OW20587   5.013   0.924   2.499  0.4646  0.0483  0.0892
 2705SOL    HW120588   5.057   0.996   2.553  1.8974 -2.0418  1.8100
 2705SOL    HW220589   4.978   0.853   2.559 -1.3908 -0.4781 -1.5476
 2706SOL     OW20590   1.569   1.891   4.802 -0.1919  0.6103  0.0286
 2706SOL    HW120591   1.620   1.905   4.887 -2.5190  0.1827  1.5319
 2706SOL    HW220592   1.568   1.976   4.749  0.4770  1.1398  0.8709
 2707SOL     OW20593   4.868   8.293   2.306 -0.3352 -0.1517  0.2265
 2707SOL    HW120594   4.775   8.284   2.269 -0.5899  0.3894  0.7232
 2707SOL    HW220595   4.933   8.297   2.231 -0.7540 -0.1582 -0.1405
 2708SOL     OW20596   3.954   1.823   7.474  0.2818 -0.0505  0.4724
 2708SOL    HW120597   4.042   1.822   7.426  0.1046  0.8514  0.1090
 2708SOL    HW220598   3.929   1.918   7.496 -1.2934 -0.1464 -0.7445
 2709SOL     OW20599   8.581   2.555   0.003 -0.0641  0.4151 -0.0360
 2709SOL    HW120600   8.545   2.469   0.037 -2.3853  0.1342 -2.9992
 2709SOL    HW220601   8.598   2.617   0.079 -0.0512 -2.0041  1.9761
 2710SOL     OW20602   1.654   7.718   1.236  0.1353  0.1991  0.0717
 2710SOL    HW120603   1.746   7.729   1.275  0.9843  1.2573 -2.1076
 2710SOL    HW220604   1.653   7.637   1.178 -0.6971 -0.5429  1.1123
 2711SOL     OW20605   7.244   3.622   3.499  0.4509 -0.3424  0.5169
 2711SOL    HW120606   7.180   3.617   3.422  1.4685 -0.8067 -0.3206
 2711SOL    HW220607   7.281   3.715   3.505  1.2545 -0.5952 -0.3109
 2712SOL     OW20608   3.063   6.212   8.057  0.3121  0.2617 -0.3316
 2712SOL    HW120609   3.140   6.161   8.020  1.1378  0.4884  1.0347
 2712SOL    HW220610   3.007   6.247   7.982  1.0834 -0.5776 -1.3185
 2713SOL     OW20611   4.923   5.679   8.102  0.0778  0.2116  0.4942
 2713SOL    HW120612   5.001   5.660   8.162  1.1021  0.9598 -0.5681
 2713SOL    HW220613   4.949   5.749   8.034 -1.3757  0.1407 -0.1635
 2714SOL     OW20614   3.948   6.610   2.411 -0.2317  0.0581  0.6147
 2714SOL    HW120615   3.858   6.578   2.442 -0.3595 -1.2810 -1.1217
 2714SOL    HW220616   3.960   6.705   2.440 -2.2600  0.3025  0.7596
 2715SOL     OW20617   2.826   6.634   8.183  0.7476 -0.2342  0.5140
 2715SOL    HW120618   2.838   6.632   8.084  0.6981 -3.0747  0.5096
 2715SOL    HW220619   2.743   6.684   8.206  1.1609  1.1010 -0.8174
 2716SOL     OW20620   6.130   2.311   7.488  1.0279 -0.5808 -0.0934
 2716SOL    HW120621   6.098   2.338   7.397 -0.1267 -1.4492  0.0397
 2716SOL    HW220622   6.091   2.372   7.556  0.7565 -0.7870 -0.0608
 2717SOL     OW20623   7.985   7.374   7.810 -0.9522 -0.2497 -0.3129
 2717SOL    HW120624   8.027   7.335   7.892 -1.9500  0.2306  0.4346
 2717SOL    HW220625   7.938   7.303   7.759  0.9477 -0.8435 -1.2833
 2718SOL     OW20626   1.904   3.974   6.091  0.3606 -0.0977  0.6161
 2718SOL    HW120627   1.989   4.021   6.068  0.6379 -0.9555 -0.1063
 2718SOL    HW220628   1.902   3.955   6.189  0.8145  0.2926  0.7027
 2719SOL     OW20629   2.562   5.606   4.327  0.3205  0.1545 -0.3152
 2719SOL    HW120630   2.617   5.670   4.275  2.1628  0.3653  1.8340
 2719SOL    HW220631   2.565   5.630   4.424 -0.6312 -1.9712  0.2732
 2720SOL     OW20632   3.212   5.368   8.653 -0.6611  0.6924 -0.4734
 2720SOL    HW120633   3.157   5.451   8.662 -3.4316 -1.1116 -0.2170
 2720SOL    HW220634   3.183   5.317   8.572  1.6830  0.4394 -1.1787
 2721SOL     OW20635   2.948   7.846   6.951 -0.4225  0.1939  0.2373
 2721SOL    HW120636   2.878   7.848   7.022 -1.3275 -1.1068 -0.6002
 2721SOL    HW220637   2.914   7.796   6.872  0.9659  0.7202 -0.7126
 2722SOL     OW20638   8.593   8.216   0.118 -0.5386 -0.3436 -0.3722
 2722SOL    HW120639   8.584   8.249   0.212 -0.4289  0.8029 -0.7680
 2722SOL    HW220640   8.503   8.210   0.075 -0.6157 -1.1157 -0.1179
 2723SOL     OW20641   4.902   2.978   8.038  0.1214  0.3992 -0.6987
 2723SOL    HW120642   4.886   2.885   8.004 -0.3253  0.3027 -0.2284
 2723SOL    HW220643   4.815   3.022   8.057  0.3599  0.5490  0.0599
 2724SOL     OW20644   0.904   5.338   2.014  0.6916  0.1292  0.0944
 2724SOL    HW120645   0.986   5.326   1.958  1.2695  0.7488  0.7974
 2724SOL    HW220646   0.848   5.411   1.976  0.4399 -0.3181 -0.4067
 2725SOL     OW20647   8.843   2.355   7.408  0.1195  0.1646  0.6044
 2725SOL    HW120648   8.849   2.455   7.402  0.6920  0.0463 -1.0300
 2725SOL    HW220649   8.747   2.327   7.410 -0.0517  0.7015  0.0001
 2726SOL     OW20650   4.825   6.724   3.695 -0.0893 -1.2556 -0.4679
 2726SOL    HW120651   4.787   6.742   3.605 -1.0096 -0.2058  0.1195
 2726SOL    HW220652   4.772   6.651   3.739 -1.3722  0.0931  0.2846
 2727SOL     OW20653   7.981   0.832   8.582 -0.3323  0.6744 -0.1532
 2727SOL    HW120654   7.997   0.883   8.667  2.2837 -1.0696  0.4182
 2727SOL    HW220655   7.980   0.896   8.505  0.5518  1.8875  0.8251
 2728SOL     OW20656   8.002   6.982   7.771 -0.3658  0.3096 -0.5924
 2728SOL    HW120657   8.089   7.031   7.772  0.1502 -0.6142  0.2276
 2728SOL    HW220658   7.927   7.048   7.777  0.2610  1.1118 -1.4059
 2729SOL     OW20659   0.904   2.956   5.234  0.5456 -0.3950 -0.1047
 2729SOL    HW120660   0.807   2.967   5.254  0.2685 -0.3587 -1.3997
 2729SOL    HW220661   0.935   2.866   5.265  0.2342 -0.1927  0.7981
 2730SOL     OW20662   7.270   7.512   3.275  0.0191  0.1990 -0.0867
 2730SOL    HW120663   7.332   7.589   3.290  0.4093 -0.6640  3.0667
 2730SOL    HW220664   7.177   7.547   3.261  0.7535  1.3774 -2.2158
 2731SOL     OW20665   3.893   1.940   0.094 -0.1892 -0.2824 -0.3539
 2731SOL    HW120666   3.892   1.840   0.096 -0.3065 -0.3530 -2.3553
 2731SOL    HW220667   3.905   1.971  -0.001  3.1971  1.5943  0.5904
 2732SOL     OW20668   4.737   3.601   8.051  0.1461  0.2413 -0.2778
 2732SOL    HW120669   4.755   3.509   8.087 -1.6953 -1.5027 -3.6342
 2732SOL    HW220670   4.640   3.621   8.058  0.2287  1.1002 -1.4752
 2733SOL     OW20671   7.708   7.099   8.720  0.2288 -0.1754 -0.5923
 2733SOL    HW120672   7.732   7.108   8.817  1.7211  1.6398 -1.0926
 2733SOL    HW220673   7.700   7.190   8.679  0.1142 -0.9299 -2.3027
 2734SOL     OW20674   0.211   7.707   8.005 -0.1815  0.1329 -0.6004
 2734SOL    HW120675   0.220   7.806   7.997  1.1352  0.0385 -0.2943
 2734SOL    HW220676   0.229   7.678   8.099  1.7696 -0.6285 -1.1831
 2735SOL     OW20677   8.508   5.176   5.790  0.2416 -0.6668 -0.1208
 2735SOL    HW120678   8.531   5.127   5.874 -0.4027 -0.1044  0.3950
 2735SOL    HW220679   8.432   5.240   5.809  0.5955  0.0010 -0.9435
 2736SOL     OW20680   7.169   4.210   2.610 -0.3462 -0.2292 -0.5076
 2736SOL    HW120681   7.112   4.172   2.683 -0.3352 -0.5950 -0.6877
 2736SOL    HW220682   7.161   4.309   2.610 -0.2014 -0.2151  0.1120
 2737SOL     OW20683   1.908   1.464   7.869  0.0060  0.0865  0.3463
 2737SOL    HW120684   1.987   1.481   7.929 -0.0760 -0.6194  0.6549
 2737SOL    HW220685   1.848   1.544   7.869  1.6466  1.3867 -1.3314
 2738SOL     OW20686   3.781   5.934   1.965 -0.6145 -0.0050 -0.2458
 2738SOL    HW120687   3.738   5.980   2.043  0.0314 -1.1423  0.8147
 2738SOL    HW220688   3.732   5.849   1.946  0.4822 -0.7835  0.2983
 2739SOL     OW20689   4.006   2.561   7.235  0.7108 -0.3121 -0.6644
 2739SOL    HW120690   3.929   2.515   7.191  0.1292 -0.9052  0.9651
 2739SOL    HW220691   3.996   2.660   7.224 -0.6283 -0.3564  0.1117
 2740SOL     OW20692   0.518   6.803   7.055 -0.0096  0.1125 -0.3791
 2740SOL    HW120693   0.545   6.899   7.059  2.2520 -0.5529  2.4574
 2740SOL    HW220694   0.461   6.782   7.134  0.7542 -1.1981 -0.1588
 2741SOL     OW20695   5.021   5.171   7.102 -0.5743 -1.1081 -0.0613
 2741SOL    HW120696   4.983   5.259   7.128  0.8321 -0.1730 -1.1199
 2741SOL    HW220697   5.084   5.138   7.172  1.0546  0.0788 -0.9350
 2742SOL     OW20698   1.339   7.711   3.805  0.8428 -0.1438  0.0858
 2742SOL    HW120699   1.284   7.636   3.842 -0.1078  0.2460 -0.4964
 2742SOL    HW220700   1.420   7.724   3.861  0.2654 -0.6417  1.0559
 2743SOL     OW20701   4.240   4.873   0.564 -0.1025 -0.2234  0.2203
 2743SOL    HW120702   4.272   4.830   0.649  0.3943  1.5988  0.9878
 2743SOL    HW220703   4.251   4.972   0.572 -2.2478  0.1349 -1.0764
 2744SOL     OW20704   3.589   4.945   7.409  0.2146  0.1975 -0.5942
 2744SOL    HW120705   3.560   5.025   7.463  0.8085 -1.6722  2.6504
 2744SOL    HW220706   3.688   4.947   7.396  0.2584 -0.1155 -0.3160
 2745SOL     OW20707   8.688   0.429   7.448  0.7640 -0.1910  0.3927
 2745SOL    HW120708   8.651   0.336   7.460  0.9555 -0.2340  0.6561
 2745SOL    HW220709   8.661   0.464   7.359  3.0714 -1.6055 -0.9144
 2746SOL     OW20710   7.942   2.443   0.451 -0.1116  1.0163  1.1095
 2746SOL    HW120711   7.925   2.345   0.457  2.0700  0.7067  2.8335
 2746SOL    HW220712   8.027   2.459   0.400 -0.2070  1.9727  1.2339
 2747SOL     OW20713   0.621   6.256   1.457  0.1779 -0.3052 -0.3941
 2747SOL    HW120714   0.614   6.230   1.360 -0.0462 -0.9425 -0.2167
 2747SOL    HW220715   0.580   6.183   1.513 -1.3830  0.9019  0.0701
 2748SOL     OW20716   0.516   4.781   3.841 -0.6831 -0.0420 -0.0265
 2748SOL    HW120717   0.417   4.772   3.853 -0.6185 -0.4952  0.1939
 2748SOL    HW220718   0.557   4.815   3.925 -0.5807 -0.4301  0.0816
 2749SOL     OW20719   7.452   3.985   4.604 -0.4197  0.0432 -0.2883
 2749SOL    HW120720   7.482   4.043   4.528 -1.1963  0.4698 -0.2704
 2749SOL    HW220721   7.532   3.952   4.654  0.0205  1.1412 -0.2660
 2750SOL     OW20722   2.483   7.673   1.285  0.2762 -0.2058  0.2677
 2750SOL    HW120723   2.500   7.767   1.313  2.1857 -0.6885  0.8068
 2750SOL    HW220724   2.386   7.661   1.265 -0.1500  1.6149  1.1477
 2751SOL     OW20725   7.932   3.663   0.258 -0.1791 -0.0233 -0.3860
 2751SOL    HW120726   7.978   3.686   0.172  0.4621 -0.6433 -0.2187
 2751SOL    HW220727   7.995   3.610   0.316 -0.4037  0.8907  0.7031
 2752SOL     OW20728   0.600   4.764   2.487 -0.7942  0.1378  0.2164
 2752SOL    HW120729   0.688   4.726   2.459  0.3859  1.6347  1.7441
 2752SOL    HW220730   0.604   4.864   2.484 -1.6405  0.2804  2.5885
 2753SOL     OW20731   0.509   8.738   8.116  0.6352  0.8867  0.2913
 2753SOL    HW120732   0.426   8.689   8.089 -0.6531  2.9975  0.3605
 2753SOL    HW220733   0.587   8.700   8.066 -0.5128 -0.4626 -0.5202
 2754SOL     OW20734   1.522   7.398   4.329  0.1571  0.2596 -0.1841
 2754SOL    HW120735   1.471   7.449   4.260 -1.2839  1.2104  1.5114
 2754SOL    HW220736   1.502   7.300   4.320 -1.0773  0.5117 -0.2720
 2755SOL     OW20737   1.257   3.855   1.406 -0.0489  0.2320 -0.0753
 2755SOL    HW120738   1.244   3.819   1.499 -3.4574  1.7316  0.0978
 2755SOL    HW220739   1.197   3.934   1.392  2.0016  1.3592 -2.8601
 2756SOL     OW20740   8.553   0.858   1.462  0.0688 -0.2426 -0.1219
 2756SOL    HW120741   8.551   0.933   1.527  1.2816  0.4918 -0.9137
 2756SOL    HW220742   8.568   0.893   1.370 -0.8234 -1.3328 -0.6937
 2757SOL     OW20743   1.823   3.520   7.249  0.0162  0.0272  0.0883
 2757SOL    HW120744   1.799   3.465   7.169  0.2770 -1.0936  0.7644
 2757SOL    HW220745   1.782   3.480   7.331  3.2966 -1.4307  1.1392
 2758SOL     OW20746   8.167   3.624   0.069  0.4096 -1.0813 -0.5724
 2758SOL    HW120747   8.177   3.643  -0.028 -1.0763  3.0495  0.0012
 2758SOL    HW220748   8.252   3.649   0.117 -0.0327  0.1342 -0.3978
 2759SOL     OW20749   5.666   7.349   8.734  0.0469  0.0855 -0.1871
 2759SOL    HW120750   5.641   7.402   8.815 -2.0083 -0.0837 -0.6789
 2759SOL    HW220751   5.629   7.257   8.743 -0.5583  0.2014 -1.5223
 2760SOL     OW20752   5.809   1.546   6.137 -0.1950  0.6144  0.3149
 2760SOL    HW120753   5.767   1.567   6.049 -1.3602  0.1157  0.7470
 2760SOL    HW220754   5.869   1.622   6.163 -1.6041  1.8227  0.1567
 2761SOL     OW20755   2.091   7.427   7.025 -0.0530  0.0322 -0.1273
 2761SOL    HW120756   2.015   7.369   6.996 -0.3930 -0.1036  1.0171
 2761SOL    HW220757   2.056   7.517   7.052  0.4904  0.8384 -2.0510
 2762SOL     OW20758   7.301   5.483   8.551  0.1960 -0.7669  0.3250
 2762SOL    HW120759   7.212   5.529   8.552 -0.4120 -1.9257  1.6920
 2762SOL    HW220760   7.351   5.506   8.635  0.5259 -1.4001  0.3040
 2763SOL     OW20761   6.637   8.809   2.011  0.2086 -0.4496 -0.0904
 2763SOL    HW120762   6.695   8.832   1.933  1.4164 -0.8771  0.6627
 2763SOL    HW220763   6.625   8.889   2.069 -0.6671 -0.1381 -0.6975
 2764SOL     OW20764   7.423   3.564   1.110  0.0634 -0.9672 -0.7710
 2764SOL    HW120765   7.479   3.646   1.124  1.3681 -2.1559  1.2100
 2764SOL    HW220766   7.429   3.506   1.191 -2.2993 -2.1700 -1.4351
 2765SOL     OW20767   6.709   3.705   8.208  0.5356  0.1920  0.3340
 2765SOL    HW120768   6.782   3.761   8.246  0.8392 -0.0468  0.1012
 2765SOL    HW220769   6.704   3.618   8.257 -0.4465  0.7331  1.2110
 2766SOL     OW20770   8.666   6.266   5.964  0.1427  0.1790 -0.3520
 2766SOL    HW120771   8.684   6.169   5.981  2.4199  0.4223 -1.1790
 2766SOL    HW220772   8.651   6.313   6.051 -0.7368 -0.8550  0.0664
 2767SOL     OW20773   5.964   7.595   7.675 -0.3847 -0.2927  0.0344
 2767SOL    HW120774   6.013   7.523   7.625  1.1794  0.9146 -0.1851
 2767SOL    HW220775   6.005   7.607   7.765 -2.4592 -1.6369  1.1954
 2768SOL     OW20776   5.653   8.052   7.777 -0.1361  0.2236 -0.2606
 2768SOL    HW120777   5.664   7.956   7.751 -1.3552 -0.0882  0.3556
 2768SOL    HW220778   5.696   8.068   7.865 -1.5921 -0.2062  0.5367
 2769SOL     OW20779   7.703   4.024   8.422  0.2305  0.0485 -0.0951
 2769SOL    HW120780   7.747   4.053   8.507 -2.1839  3.4665  0.0659
 2769SOL    HW220781   7.618   3.977   8.443 -0.5025  1.1312 -0.5831
 2770SOL     OW20782   5.272   6.259   0.015 -0.0549  0.0060 -0.1996
 2770SOL    HW120783   5.204   6.194  -0.021 -0.5777  0.3603  0.1416
 2770SOL    HW220784   5.329   6.293  -0.060 -0.1238 -0.4461 -0.4570
 2771SOL     OW20785   6.953   3.202   4.901 -0.3048 -0.1844  0.2205
 2771SOL    HW120786   6.862   3.202   4.943  0.4189  0.1225  1.8388
 2771SOL    HW220787   6.949   3.157   4.812 -2.4447  1.6180 -0.6370
 2772SOL     OW20788   2.900   1.962   1.611  0.1408  0.5571  0.0954
 2772SOL    HW120789   2.934   1.958   1.517  1.5186 -0.5124  0.6061
 2772SOL    HW220790   2.949   1.894   1.667  1.1149  2.8653  2.1401
 2773SOL     OW20791   3.003   6.380   2.725 -0.0229  0.4847  0.2079
 2773SOL    HW120792   2.916   6.384   2.774 -0.4200  0.8022 -0.5255
 2773SOL    HW220793   2.991   6.413   2.632  0.8013  0.1728 -0.0156
 2774SOL     OW20794   3.015   4.625   5.148 -0.2142  0.5367 -0.0903
 2774SOL    HW120795   3.042   4.618   5.053 -0.7128 -1.1519 -0.1189
 2774SOL    HW220796   2.939   4.690   5.157  1.1777  2.2706 -0.5328
 2775SOL     OW20797   6.452   2.441   7.469 -0.2747  0.2740 -0.3352
 2775SOL    HW120798   6.458   2.535   7.503 -2.1516  0.2731  0.0528
 2775SOL    HW220799   6.384   2.437   7.396 -0.9677 -1.0030  0.3875
 2776SOL     OW20800   3.666   3.431   2.005 -0.0817  0.2529  0.5046
 2776SOL    HW120801   3.640   3.480   1.922 -0.0405  0.6011  0.6950
 2776SOL    HW220802   3.625   3.340   2.004 -1.5321  0.8895  0.9256
 2777SOL     OW20803   8.536   8.352   4.737 -0.3728 -1.0186 -0.0623
 2777SOL    HW120804   8.471   8.405   4.791 -1.1149 -2.5396  0.5421
 2777SOL    HW220805   8.557   8.403   4.653 -1.4116  0.0415  0.2960
 2778SOL     OW20806   7.377   2.504   5.006 -0.0624  0.2284  0.0606
 2778SOL    HW120807   7.347   2.412   5.032  0.1351  0.3917  0.8801
 2778SOL    HW220808   7.461   2.526   5.055 -0.0791  0.8252 -0.1794
 2779SOL     OW20809   7.298   5.919   3.804  0.4072  0.3627 -0.4465
 2779SOL    HW120810   7.325   5.876   3.718 -0.0359 -1.8547  0.4808
 2779SOL    HW220811   7.242   5.855   3.857  2.3044  0.9163  2.3645
 2780SOL     OW20812   1.163   0.993   7.923 -0.4810  0.4965 -0.2376
 2780SOL    HW120813   1.215   1.063   7.973 -1.4588  1.3257 -0.3865
 2780SOL    HW220814   1.067   0.999   7.947 -0.4160 -1.6025  0.6790
 2781SOL     OW20815   5.458   6.593   7.553  0.2226  0.5650 -0.4598
 2781SOL    HW120816   5.554   6.620   7.543  0.0297  1.5741  0.2350
 2781SOL    HW220817   5.447   6.539   7.637  0.3079 -0.1767 -0.9263
 2782SOL     OW20818   1.924   5.739   0.569 -0.1541 -0.7727  0.1762
 2782SOL    HW120819   1.894   5.798   0.495  2.6735  0.7598  0.2282
 2782SOL    HW220820   1.847   5.680   0.597 -2.3680  1.3190 -1.3045
 2783SOL     OW20821   0.743   0.518   0.964  0.0523 -0.1632 -0.7558
 2783SOL    HW120822   0.807   0.560   0.900  1.5905  2.4601  2.3626
 2783SOL    HW220823   0.756   0.419   0.964  2.5999  0.1446 -1.8207
 2784SOL     OW20824   0.579   0.463   5.750  0.3785 -0.5130 -0.6789
 2784SOL    HW120825   0.546   0.370   5.738 -0.1537 -0.3289 -0.6646
 2784SOL    HW220826   0.675   0.469   5.721  0.4137 -1.0628 -0.6725
 2785SOL     OW20827   4.401   6.704   6.509  0.0197  0.1314  0.0118
 2785SOL    HW120828   4.473   6.643   6.541  0.8536  0.3922 -1.3071
 2785SOL    HW220829   4.355   6.663   6.430 -0.7034  0.3607  0.3062
 2786SOL     OW20830   6.307   4.660   5.731  0.0130  0.1486 -0.4723
 2786SOL    HW120831   6.317   4.758   5.718  0.1789  0.6614  3.1176
 2786SOL    HW220832   6.211   4.635   5.722 -0.3367  1.0094  0.7457
 2787SOL     OW20833   5.312   8.139   1.369 -0.2205  0.5938  0.3052
 2787SOL    HW120834   5.364   8.115   1.451 -1.2704 -0.2745  0.7366
 2787SOL    HW220835   5.219   8.165   1.396 -0.9209 -0.8048 -0.6907
 2788SOL     OW20836   2.788   3.491   7.357 -0.5043  0.0407 -0.3296
 2788SOL    HW120837   2.723   3.466   7.429  0.2798  1.6715  0.9753
 2788SOL    HW220838   2.869   3.433   7.366  0.2145  1.2280  1.0512
 2789SOL     OW20839   3.740   5.108   6.516 -0.0944 -0.8692  0.4288
 2789SOL    HW120840   3.774   5.017   6.542  4.1566  1.0027  1.8613
 2789SOL    HW220841   3.721   5.161   6.598  0.6020  0.6284 -0.3720
 2790SOL     OW20842   3.742   2.949   5.558 -0.2012 -0.1355 -0.5682
 2790SOL    HW120843   3.813   2.918   5.621  0.4914 -0.9957 -1.7628
 2790SOL    HW220844   3.655   2.905   5.583  0.5447 -2.2339 -1.5664
 2791SOL     OW20845   0.084   2.246   7.473 -0.3621  0.1537 -0.2494
 2791SOL    HW120846   0.015   2.317   7.459 -0.2364  0.1575 -0.8793
 2791SOL    HW220847   0.073   2.175   7.404  1.2218  0.9179 -1.3255
 2792SOL     OW20848   1.203   2.995   5.558 -0.5678  0.2041  0.2998
 2792SOL    HW120849   1.208   3.079   5.504 -1.1934  0.2488  0.3108
 2792SOL    HW220850   1.192   2.917   5.496  2.5395 -0.1371  0.1237
 2793SOL     OW20851   1.407   1.021   2.952  0.0843  0.8146 -0.0014
 2793SOL    HW120852   1.324   0.994   2.903  1.0300 -0.1232 -1.0965
 2793SOL    HW220853   1.383   1.048   3.045 -1.4137  0.2436 -0.2107
 2794SOL     OW20854   0.692   6.722   0.385 -0.8930 -0.8290  0.0586
 2794SOL    HW120855   0.735   6.753   0.470 -0.6122 -0.3938 -0.2390
 2794SOL    HW220856   0.752   6.656   0.340 -1.9774 -2.6777  1.2393
 2795SOL     OW20857   5.610   2.964   7.162 -0.2941 -0.3566 -0.0967
 2795SOL    HW120858   5.691   2.907   7.175  0.8971  1.3050 -0.0462
 2795SOL    HW220859   5.534   2.908   7.129  1.5552 -1.5130 -2.4864
 2796SOL     OW20860   6.724   4.213   0.875  0.3954 -0.3783 -0.4800
 2796SOL    HW120861   6.644   4.191   0.932  1.9615 -1.3137  1.3971
 2796SOL    HW220862   6.740   4.312   0.879 -0.5136 -0.2167 -0.6602
 2797SOL     OW20863   8.929   2.010   1.988 -0.0038  0.5275 -0.0026
 2797SOL    HW120864   8.900   1.950   1.914 -0.0298  1.3958 -0.7013
 2797SOL    HW220865   8.987   2.083   1.952 -0.1644  1.0650  0.7943
 2798SOL     OW20866   2.572   5.914   2.791  0.2402 -0.1198 -0.0365
 2798SOL    HW120867   2.505   5.943   2.723  1.1617  0.6287 -0.6386
 2798SOL    HW220868   2.598   5.819   2.775 -0.2158 -0.2216 -0.1748
 2799SOL     OW20869   0.485   0.178   4.741 -0.1285  0.1060  0.2057
 2799SOL    HW120870   0.493   0.231   4.826 -2.2665  1.7661 -0.5761
 2799SOL    HW220871   0.388   0.167   4.718  0.3873 -1.6609 -1.2141
 2800SOL     OW20872   8.354   8.382   7.104  0.2769 -0.0660  0.0218
 2800SOL    HW120873   8.309   8.293   7.093 -1.5022  0.8253  0.0013
 2800SOL    HW220874   8.386   8.414   7.014 -0.9544  0.2807 -0.3029
 2801SOL     OW20875   3.557   5.101   2.117  0.3826 -0.5435  0.1635
 2801SOL    HW120876   3.590   5.063   2.031 -0.6539 -1.2337  0.0676
 2801SOL    HW220877   3.592   5.194   2.128  1.9318 -1.0785 -0.1779
 2802SOL     OW20878   8.788   7.526   6.533 -0.1309 -0.2055 -0.0865
 2802SOL    HW120879   8.694   7.559   6.542 -0.2705 -0.7686  0.5913
 2802SOL    HW220880   8.831   7.525   6.623 -0.1302 -1.8408 -0.0924
 2803SOL     OW20881   5.517   7.942   0.583  0.1752  0.2572 -0.1152
 2803SOL    HW120882   5.512   7.997   0.666  2.5477  2.3002 -1.2785
 2803SOL    HW220883   5.583   7.868   0.596 -0.3965 -0.2024  0.2267
 2804SOL     OW20884   1.893   1.313   5.761  0.1477 -0.6600  0.0429
 2804SOL    HW120885   1.942   1.396   5.788 -2.0412  0.7958 -0.3053
 2804SOL    HW220886   1.900   1.245   5.834 -0.6726  1.0127  1.7325
 2805SOL     OW20887   4.018   5.447   8.154 -0.3713 -0.6006  0.0734
 2805SOL    HW120888   4.005   5.494   8.066 -0.0236 -1.3408 -0.3823
 2805SOL    HW220889   3.955   5.370   8.160  0.6698 -1.5021 -0.2170
 2806SOL     OW20890   6.145   6.661   7.177  0.5741 -0.2033  0.5102
 2806SOL    HW120891   6.045   6.667   7.165  0.6580  0.8994  0.2715
 2806SOL    HW220892   6.172   6.566   7.184 -0.5568 -0.5046  0.9988
 2807SOL     OW20893   6.794   6.851   6.685 -0.1974 -0.3012 -0.2014
 2807SOL    HW120894   6.839   6.761   6.686 -1.2010 -0.8016  1.2568
 2807SOL    HW220895   6.699   6.840   6.658  0.0605  0.5258 -1.4646
 2808SOL     OW20896   6.322   5.235   1.234  0.1830  0.1545  0.2349
 2808SOL    HW120897   6.304   5.140   1.209  1.3440 -0.0667  0.1928
 2808SOL    HW220898   6.419   5.246   1.256 -0.0747  1.1858  0.9028
 2809SOL     OW20899   4.090   0.127   2.205 -0.8892 -0.1102 -0.0869
 2809SOL    HW120900   4.025   0.199   2.225  0.2479  0.8553  0.1977
 2809SOL    HW220901   4.162   0.163   2.146 -1.6179 -1.6482 -1.9824
 2810SOL     OW20902   1.856   6.361   4.624 -0.0790 -0.1447 -0.1107
 2810SOL    HW120903   1.840   6.326   4.716  1.5819 -0.1910  0.1786
 2810SOL    HW220904   1.952   6.387   4.615 -0.7493  2.1077 -1.0649
 2811SOL     OW20905   8.988   3.941   1.432 -0.2014 -0.0780  0.4852
 2811SOL    HW120906   8.995   3.970   1.337 -0.0342  0.1093  0.5551
 2811SOL    HW220907   9.078   3.946   1.476 -0.4841  0.9164  0.9636
 2812SOL     OW20908   1.807   1.310   5.493  0.3637  0.5436  0.2035
 2812SOL    HW120909   1.829   1.292   5.589 -0.1286 -1.1445  0.0228
 2812SOL    HW220910   1.710   1.294   5.478  0.7576 -0.8558 -0.9229
 2813SOL     OW20911   7.183   4.199   1.993  0.3195 -0.7297  0.1584
 2813SOL    HW120912   7.118   4.273   2.014 -0.1837 -0.9980 -0.4442
 2813SOL    HW220913   7.223   4.165   2.078 -0.2574 -0.4879  0.5287
 2814SOL     OW20914   1.612   5.502   7.105 -1.0826  0.0606  0.0772
 2814SOL    HW120915   1.643   5.542   7.191 -1.8024  2.7995 -0.8793
 2814SOL    HW220916   1.513   5.488   7.108 -1.2391  0.9871 -0.6130
 2815SOL     OW20917   2.597   3.268   4.256  0.1584 -0.6459  0.2974
 2815SOL    HW120918   2.655   3.348   4.245  1.0723 -1.2973  0.2751
 2815SOL    HW220919   2.504   3.290   4.230  0.3740  0.4487  0.4385
 2816SOL     OW20920   8.794   1.391   5.230  0.0784 -0.2699 -0.4885
 2816SOL    HW120921   8.831   1.453   5.160  0.0960 -1.2306 -1.3440
 2816SOL    HW220922   8.768   1.304   5.187  2.0574 -1.6781  1.0343
 2817SOL     OW20923   0.033   2.006   6.878  0.2284  0.8298  0.6128
 2817SOL    HW120924   0.116   1.952   6.898 -0.6714 -0.9568 -0.3417
 2817SOL    HW220925  -0.033   1.993   6.952  0.2903  1.2113  0.7353
 2818SOL     OW20926   4.863   1.575   1.487 -0.6085  0.5969  0.3337
 2818SOL    HW120927   4.818   1.640   1.426  0.3607 -0.0023 -1.0380
 2818SOL    HW220928   4.896   1.497   1.434 -0.5738 -0.3718  1.7666
 2819SOL     OW20929   0.962   3.825   4.968  0.0528  0.1826  0.3345
 2819SOL    HW120930   0.869   3.859   4.954  0.4106  0.4684 -1.4460
 2819SOL    HW220931   0.968   3.730   4.937  0.0072 -0.3015  1.7713
 2820SOL     OW20932   2.440   2.288   5.980 -0.4304  0.0378 -0.0852
 2820SOL    HW120933   2.449   2.359   6.050 -1.8337  0.7124 -0.5729
 2820SOL    HW220934   2.356   2.303   5.928  1.3373  0.4179 -2.9133
 2821SOL     OW20935   3.947   2.794   6.472 -0.2008 -0.0692 -0.2317
 2821SOL    HW120936   3.950   2.877   6.418 -1.2869 -0.3925 -0.8021
 2821SOL    HW220937   3.908   2.813   6.562  0.4824  0.2332 -0.0020
 2822SOL     OW20938   4.428   3.576   6.599  0.1347  0.1256 -0.0064
 2822SOL    HW120939   4.350   3.626   6.635  0.1085 -0.1709  0.3471
 2822SOL    HW220940   4.500   3.641   6.573 -0.3863  0.4220 -0.7239
 2823SOL     OW20941   8.917   5.485   3.486 -0.2352  0.1639 -0.4689
 2823SOL    HW120942   8.831   5.526   3.456 -0.9413 -0.0878  1.1919
 2823SOL    HW220943   8.952   5.534   3.565  0.5511 -0.4668 -0.4172
 2824SOL     OW20944   4.930   5.397   7.207  0.6149 -0.1045  0.2420
 2824SOL    HW120945   4.853   5.433   7.259 -0.1150 -0.6273 -0.4658
 2824SOL    HW220946   5.006   5.462   7.212 -0.5959  1.4340 -0.8125
 2825SOL     OW20947   3.981   1.966   4.628  0.1227 -0.2599  0.7189
 2825SOL    HW120948   3.986   1.873   4.663 -0.8926 -0.6627 -0.1559
 2825SOL    HW220949   3.939   1.965   4.537 -1.0395  1.1604  1.2036
 2826SOL     OW20950   0.518   2.638   4.219  0.1076  0.5375 -0.3863
 2826SOL    HW120951   0.484   2.723   4.178 -0.1216  1.1751  1.0898
 2826SOL    HW220952   0.442   2.574   4.229 -0.1008  0.8824  0.2613
 2827SOL     OW20953   7.592   6.301   8.391 -0.8450  0.2686 -0.2867
 2827SOL    HW120954   7.526   6.268   8.323 -2.6536  1.5400  0.7971
 2827SOL    HW220955   7.543   6.350   8.463  1.0575 -1.0696  1.9464
 2828SOL     OW20956   8.395   6.953   2.210  0.2205  0.1243  0.1576
 2828SOL    HW120957   8.433   6.914   2.126  1.0368  0.1360  0.5147
 2828SOL    HW220958   8.465   7.008   2.256 -0.0438 -0.3605  1.1517
 2829SOL     OW20959   0.858   1.441   4.657  0.0239  0.5121 -0.2047
 2829SOL    HW120960   0.854   1.341   4.662  1.0604  0.3521 -2.1706
 2829SOL    HW220961   0.783   1.479   4.711 -2.0829 -1.4075 -1.6662
 2830SOL     OW20962   1.651   2.179   3.997  0.4584 -0.1049  0.1379
 2830SOL    HW120963   1.624   2.087   3.966  0.6078 -0.1853  0.2488
 2830SOL    HW220964   1.569   2.231   4.021  0.4199 -0.4750  0.8241
 2831SOL     OW20965   4.597   6.068   3.881 -0.4473 -0.3691 -0.2730
 2831SOL    HW120966   4.579   6.146   3.820 -0.9719  0.0902  0.4530
 2831SOL    HW220967   4.535   6.073   3.959  0.1199 -1.0384  0.2201
 2832SOL     OW20968   0.811   4.335   5.486  0.9070  0.1551  0.0486
 2832SOL    HW120969   0.742   4.362   5.418 -0.6664 -0.7797  1.2350
 2832SOL    HW220970   0.782   4.366   5.576  1.8803 -0.5739  0.6122
 2833SOL     OW20971   1.175   6.544   2.255  0.1979  0.3580  0.0270
 2833SOL    HW120972   1.104   6.498   2.202  0.7060  0.7844 -1.0363
 2833SOL    HW220973   1.150   6.543   2.352 -1.4210  0.7987 -0.3683
 2834SOL     OW20974   7.969   1.891   6.878 -0.0598 -0.1122 -0.0083
 2834SOL    HW120975   8.041   1.853   6.935 -1.3564  0.1031  1.8293
 2834SOL    HW220976   7.924   1.966   6.927  0.2959  1.6166 -2.2498
 2835SOL     OW20977   1.094   6.470   1.415  0.3168 -0.4384  0.2029
 2835SOL    HW120978   1.108   6.525   1.497 -0.3218 -1.1291  0.7778
 2835SOL    HW220979   1.150   6.387   1.421 -0.0393 -0.6849  0.1267
 2836SOL     OW20980   1.482   8.447   0.107 -0.2141  0.1984  0.1810
 2836SOL    HW120981   1.506   8.423   0.201  0.8012  0.7762  0.0806
 2836SOL    HW220982   1.494   8.545   0.094 -2.7569  0.5157  0.1296
 2837SOL     OW20983   5.751   4.089   2.309  0.1819  0.3559 -0.4354
 2837SOL    HW120984   5.836   4.062   2.265 -0.6553 -0.8200 -1.3550
 2837SOL    HW220985   5.708   4.162   2.256 -0.1791 -0.1597 -0.8535
 2838SOL     OW20986   4.602   4.897   5.642  0.1314 -0.6671  0.2003
 2838SOL    HW120987   4.605   4.989   5.602  1.8525 -0.4107  0.9100
 2838SOL    HW220988   4.548   4.900   5.726  1.4952  0.0220  1.0561
 2839SOL     OW20989   0.533   6.483   2.237  0.2709 -0.0609  0.4746
 2839SOL    HW120990   0.483   6.442   2.313  0.9938 -0.1241  0.9197
 2839SOL    HW220991   0.631   6.467   2.250  0.5651  1.8679  0.6924
 2840SOL     OW20992   1.156   1.991   4.970  0.0145  0.5033 -0.0393
 2840SOL    HW120993   1.193   1.936   5.045  0.9301  0.6431 -0.3805
 2840SOL    HW220994   1.211   2.074   4.958 -0.1962  0.5460 -0.7799
 2841SOL     OW20995   5.726   3.004   7.891 -0.3394 -0.0614  0.0853
 2841SOL    HW120996   5.683   2.947   7.821 -0.3038 -0.1822  0.1626
 2841SOL    HW220997   5.729   2.955   7.978 -0.9940  0.3439  0.3393
 2842SOL     OW20998   3.894   1.503   5.968  0.1135 -0.5348  0.8026
 2842SOL    HW120999   3.949   1.431   6.009  2.5140  0.7395 -0.0739
 2842SOL    HW221000   3.810   1.515   6.022  1.3432 -1.5381  3.0413
 2843SOL     OW21001   6.279   0.480   6.745 -0.5450  0.0563  0.1770
 2843SOL    HW121002   6.319   0.438   6.826  0.8058  1.8327  0.4638
 2843SOL    HW221003   6.191   0.521   6.769 -1.6028 -2.0592  0.0187
 2844SOL     OW21004   3.664   8.794   1.715 -0.3893 -0.0424 -0.1561
 2844SOL    HW121005   3.689   8.848   1.796 -1.1468  1.5685 -0.9642
 2844SOL    HW221006   3.739   8.733   1.691  0.1352 -0.0139  1.3221
 2845SOL     OW21007   5.814   0.043   3.253  0.4968  0.2411  0.1583
 2845SOL    HW121008   5.885   0.108   3.281  1.2955 -0.2348 -0.7254
 2845SOL    HW221009   5.739   0.093   3.211 -0.2356  0.8649  2.1137
 2846SOL     OW21010   7.313   0.263   6.645  0.7645 -1.5304 -0.1047
 2846SOL    HW121011   7.304   0.233   6.740  0.0573  0.2867  0.4304
 2846SOL    HW221012   7.410   0.281   6.626  0.4530  2.9911  1.9036
 2847SOL     OW21013   6.914   4.574   8.014 -0.2813 -0.4912  0.5680
 2847SOL    HW121014   6.862   4.607   8.093 -1.1552 -0.4166 -0.0240
 2847SOL    HW221015   6.859   4.509   7.962 -0.5156  0.9581 -1.0920
 2848SOL     OW21016   8.204   7.914   6.444  0.9546 -0.5381  0.4157
 2848SOL    HW121017   8.299   7.940   6.423  0.0700  3.2200  0.8068
 2848SOL    HW221018   8.173   7.964   6.525 -2.0614 -0.0507 -0.9870
 2849SOL     OW21019   5.567   6.157   2.498 -0.5079  0.3550  0.2679
 2849SOL    HW121020   5.489   6.215   2.474 -1.2736 -0.7739 -0.0136
 2849SOL    HW221021   5.597   6.179   2.591 -1.4809  0.4607  0.5612
 2850SOL     OW21022   1.717   2.741   3.159 -1.0001  0.0641 -0.5094
 2850SOL    HW121023   1.757   2.650   3.148 -2.2341 -0.4987 -0.4050
 2850SOL    HW221024   1.735   2.774   3.251 -0.5650 -0.0714 -0.5419
 2851SOL     OW21025   3.068   0.695   7.294  0.2176 -0.2885  0.1730
 2851SOL    HW121026   3.046   0.648   7.380  0.4655  1.5831  1.2917
 2851SOL    HW221027   3.098   0.628   7.226  0.1131 -1.7940  1.5770
 2852SOL     OW21028   7.101   4.331   5.202  0.1169 -0.2095 -0.5794
 2852SOL    HW121029   7.123   4.428   5.191  2.6445 -0.9791 -2.9187
 2852SOL    HW221030   7.041   4.301   5.128  0.3327 -0.7040 -0.5592
 2853SOL     OW21031   7.096   5.343   6.605  0.6067  0.4393 -0.1596
 2853SOL    HW121032   7.028   5.329   6.677 -1.5330  1.6469 -1.9074
 2853SOL    HW221033   7.159   5.266   6.604 -0.3988 -0.4619  1.8216
 2854SOL     OW21034   3.154   4.211   6.929 -0.1297  0.0374  0.0485
 2854SOL    HW121035   3.108   4.133   6.972 -1.2411  0.7106  0.1101
 2854SOL    HW221036   3.185   4.273   7.000  0.4254 -0.1674 -0.0162
 2855SOL     OW21037   6.253   6.675   1.809 -0.1218  0.0167 -0.2476
 2855SOL    HW121038   6.199   6.696   1.728  0.6835 -0.2820 -0.8767
 2855SOL    HW221039   6.214   6.597   1.856 -0.2316 -0.2077 -0.7059
 2856SOL     OW21040   1.441   5.046   4.031 -0.2556  0.4082  0.4936
 2856SOL    HW121041   1.513   5.115   4.018 -0.8350  1.1643  1.2644
 2856SOL    HW221042   1.481   4.955   4.027  0.4355  0.7535 -1.1564
 2857SOL     OW21043   4.428   1.937   2.016  0.3238  0.0719  0.2153
 2857SOL    HW121044   4.448   1.979   1.928  1.4556 -0.1600  0.3494
 2857SOL    HW221045   4.510   1.890   2.050  0.1658  0.8980  1.8063
 2858SOL     OW21046   6.369   1.653   8.761 -0.1726 -0.1489 -1.0799
 2858SOL    HW121047   6.372   1.635   8.663  2.1333 -0.5179 -0.9837
 2858SOL    HW221048   6.397   1.747   8.779  0.8633 -0.5281 -0.6866
 2859SOL     OW21049   8.115   6.977   2.239  0.0408  0.4035  0.4639
 2859SOL    HW121050   8.088   7.062   2.194  1.3388 -1.1880 -3.5500
 2859SOL    HW221051   8.214   6.964   2.230  0.2239 -0.3089  3.2466
 2860SOL     OW21052   8.225   5.278   6.678 -0.1166  0.4461 -0.9489
 2860SOL    HW121053   8.309   5.229   6.699 -2.8304 -3.9503  0.2581
 2860SOL    HW221054   8.205   5.268   6.580 -0.2645 -0.2755 -0.8511
 2861SOL     OW21055   4.194   4.425   4.640  0.1591 -0.2727 -0.1955
 2861SOL    HW121056   4.169   4.520   4.657 -1.8512 -0.9750  0.9569
 2861SOL    HW221057   4.267   4.397   4.703 -0.4722 -0.0069  0.6594
 2862SOL     OW21058   3.193   1.577   6.556 -0.8763 -0.2781 -0.3484
 2862SOL    HW121059   3.228   1.540   6.470  0.0931 -1.7906  0.6831
 2862SOL    HW221060   3.166   1.503   6.616  1.8697  0.5637  2.0850
 2863SOL     OW21061   4.230   5.987   4.580  0.3068 -0.4033 -0.0348
 2863SOL    HW121062   4.254   6.044   4.501 -0.8466  0.9840  0.5947
 2863SOL    HW221063   4.314   5.954   4.623  1.0784  2.0981  0.4975
 2864SOL     OW21064   2.902   7.482   0.236  0.2321  0.2008 -0.1577
 2864SOL    HW121065   2.963   7.541   0.289 -0.9746  1.7053 -0.3915
 2864SOL    HW221066   2.863   7.535   0.161  0.0503 -1.2479 -1.0876
 2865SOL     OW21067   5.573   5.363   4.794 -0.1117 -0.0938  0.8367
 2865SOL    HW121068   5.493   5.352   4.735 -0.2988 -1.0712  1.2643
 2865SOL    HW221069   5.625   5.443   4.765  1.1447 -1.9343 -2.2930
 2866SOL     OW21070   3.587   7.766   8.313  0.5558  0.4436 -0.3056
 2866SOL    HW121071   3.679   7.794   8.285  1.2456 -1.4735 -0.0328
 2866SOL    HW221072   3.588   7.741   8.409 -0.0860 -0.2738 -0.4864
 2867SOL     OW21073   6.612   8.666   8.579 -0.5050  0.5811  0.0201
 2867SOL    HW121074   6.711   8.658   8.572 -0.5709 -0.0065 -0.2668
 2867SOL    HW221075   6.585   8.661   8.675 -0.2004  1.4737  0.1596
 2868SOL     OW21076   3.435   5.488   2.861  0.6065 -0.4400 -0.1814
 2868SOL    HW121077   3.418   5.567   2.920 -0.7372 -1.4807  0.8545
 2868SOL    HW221078   3.513   5.437   2.896  2.3491  1.1216 -1.6194
 2869SOL     OW21079   5.999   3.035   2.284  0.1129 -0.0148 -0.3655
 2869SOL    HW121080   6.016   3.124   2.241  5.0449 -0.4505  0.3320
 2869SOL    HW221081   6.027   2.962   2.221  3.2565 -0.7726  1.8075
 2870SOL     OW21082   3.722   4.050   7.610  0.5782 -0.2380 -0.2821
 2870SOL    HW121083   3.653   4.005   7.667  1.5599  0.2393  1.3059
 2870SOL    HW221084   3.735   3.996   7.527 -1.3134 -0.6200 -0.3624
 2871SOL     OW21085   7.153   5.139   2.010 -0.7578 -0.1717 -0.6651
 2871SOL    HW121086   7.211   5.220   2.012 -1.7321  0.4981  0.8300
 2871SOL    HW221087   7.171   5.083   2.091 -0.9209 -0.8655 -1.1029
 2872SOL     OW21088   6.871   4.870   8.315 -0.2025 -0.4124  0.3952
 2872SOL    HW121089   6.889   4.832   8.406  0.5702 -0.4631  0.2190
 2872SOL    HW221090   6.819   4.804   8.261 -0.1860 -0.6016  0.6136
 2873SOL     OW21091   8.001   7.504   7.592  0.0347 -0.0232 -0.1334
 2873SOL    HW121092   7.921   7.562   7.575  0.4410  0.4830 -0.3442
 2873SOL    HW221093   8.004   7.478   7.688 -0.7197 -0.5439 -0.2501
 2874SOL     OW21094   7.096   7.308   0.178  0.0812 -0.0102  0.0533
 2874SOL    HW121095   7.134   7.368   0.249  0.4999  0.3601 -0.4846
 2874SOL    HW221096   7.002   7.283   0.203 -0.5094  1.7839 -0.2622
 2875SOL     OW21097   8.681   2.894   0.372 -0.4744 -0.0330  0.2964
 2875SOL    HW121098   8.660   2.945   0.289 -0.7760 -0.2688  0.2267
 2875SOL    HW221099   8.750   2.943   0.425 -0.7233  0.4182  0.2051
 2876SOL     OW21100   3.368   1.966   8.863  0.3037 -0.4172  0.1969
 2876SOL    HW121101   3.339   1.881   8.906  0.1540 -0.4652  0.0029
 2876SOL    HW221102   3.291   2.006   8.813 -0.6752  1.7241  3.2627
 2877SOL     OW21103   4.146   3.543   6.264  0.2154 -0.0670 -0.3064
 2877SOL    HW121104   4.071   3.603   6.237 -0.7363 -1.1323 -0.0584
 2877SOL    HW221105   4.166   3.556   6.361 -0.1055 -0.2618 -0.2121
 2878SOL     OW21106   1.203   7.103   4.507 -0.1261 -0.2713 -0.8975
 2878SOL    HW121107   1.252   7.065   4.585 -1.5827  0.9586  0.6637
 2878SOL    HW221108   1.259   7.174   4.463  0.1885 -0.0798 -0.1894
 2879SOL     OW21109   3.791   2.083   0.769 -0.3417  0.3841 -0.2059
 2879SOL    HW121110   3.780   2.038   0.681  1.4135 -0.2285 -0.1175
 2879SOL    HW221111   3.703   2.081   0.818 -0.7090 -1.4540 -0.9013
 2880SOL     OW21112   5.866   6.410   3.556 -0.0120 -0.2862  0.0072
 2880SOL    HW121113   5.822   6.494   3.523  0.5395 -0.2905 -0.7604
 2880SOL    HW221114   5.856   6.404   3.655 -0.3378  0.5209  0.0324
 2881SOL     OW21115   7.019   2.976   0.832  0.3512 -0.0283 -0.3232
 2881SOL    HW121116   7.087   2.952   0.763  0.3513 -0.3845 -0.1986
 2881SOL    HW221117   7.020   2.908   0.906  0.3988  0.3844  0.0621
 2882SOL     OW21118   7.861   1.009   1.900 -0.4101  0.6195 -0.3670
 2882SOL    HW121119   7.790   1.077   1.920  0.1385  0.5722  1.9453
 2882SOL    HW221120   7.843   0.926   1.953  1.2164  0.5202  0.0519
 2883SOL     OW21121   4.255   1.913   6.536 -0.6315  0.1887 -0.4880
 2883SOL    HW121122   4.199   1.993   6.557 -1.0137  0.0065 -0.8159
 2883SOL    HW221123   4.260   1.853   6.617 -0.0080  0.7388 -0.1119
 2884SOL     OW21124   3.296   3.817   2.394  0.4299  0.1479  0.6008
 2884SOL    HW121125   3.288   3.880   2.316 -0.7555 -1.4369 -0.5875
 2884SOL    HW221126   3.310   3.870   2.478  0.0081  1.9663 -0.4399
 2885SOL     OW21127   8.873   7.286   4.126 -0.0105  0.7942  0.3031
 2885SOL    HW121128   8.819   7.226   4.185  1.5038  1.0341  1.9826
 2885SOL    HW221129   8.854   7.264   4.030  0.3647 -2.2725  0.8791
 2886SOL     OW21130   7.119   5.996   2.312  0.1554 -0.5863 -0.5406
 2886SOL    HW121131   7.140   6.026   2.219 -0.8664 -1.0066 -0.9139
 2886SOL    HW221132   7.029   5.952   2.314  0.5496 -1.3830  0.4764
 2887SOL     OW21133   7.509   0.575   0.220 -0.1655  0.0504  0.4736
 2887SOL    HW121134   7.558   0.492   0.192  1.3246  0.6916  1.0914
 2887SOL    HW221135   7.534   0.598   0.315 -0.7069  1.0917  0.3728
 2888SOL     OW21136   3.853   6.494   2.112  0.0465 -0.2072  0.6563
 2888SOL    HW121137   3.832   6.560   2.040 -1.5447 -0.7065  0.6343
 2888SOL    HW221138   3.847   6.538   2.201  0.3247  0.0046  0.5696
 2889SOL     OW21139   6.542   8.787   8.102  0.1408 -0.1309 -0.6976
 2889SOL    HW121140   6.520   8.761   8.196 -0.9756  0.9822 -0.6320
 2889SOL    HW221141   6.516   8.713   8.040  0.4721 -0.6891 -0.1803
 2890SOL     OW21142   4.229   6.777   2.058  0.9383 -0.2892  0.0389
 2890SOL    HW121143   4.139   6.739   2.039  0.1028  2.0229 -0.7830
 2890SOL    HW221144   4.233   6.807   2.153  1.0798 -0.9528  0.2501
 2891SOL     OW21145   6.322   5.540   4.567 -0.0386 -0.4116 -0.4880
 2891SOL    HW121146   6.290   5.547   4.473 -1.4771 -1.7160 -0.1064
 2891SOL    HW221147   6.410   5.494   4.570  1.0094  1.5052 -1.3793
 2892SOL     OW21148   3.682   4.773   3.524  0.5613 -0.0121 -0.3516
 2892SOL    HW121149   3.586   4.745   3.533  0.9717 -1.4363 -0.1707
 2892SOL    HW221150   3.736   4.727   3.594  1.2898  1.2610 -0.0673
 2893SOL     OW21151   1.650   8.131   4.967  0.7551 -0.2916  0.5222
 2893SOL    HW121152   1.612   8.213   4.925  1.3649  0.2007  0.9244
 2893SOL    HW221153   1.692   8.155   5.055  1.6119 -0.8951  0.2876
 2894SOL     OW21154   4.987   3.996   2.902 -0.3646 -0.0510  0.5034
 2894SOL    HW121155   5.060   4.053   2.864 -1.4871  1.2546  0.2733
 2894SOL    HW221156   4.936   3.953   2.828 -1.2056  0.7884  0.5871
 2895SOL     OW21157   0.786   4.657   0.641 -0.1694  0.3141  0.2976
 2895SOL    HW121158   0.796   4.729   0.572 -1.9412  1.6375  1.3791
 2895SOL    HW221159   0.852   4.671   0.714 -1.1519  1.4346  0.9878
 2896SOL     OW21160   8.768   1.179   7.392 -0.4454 -0.2587  0.1185
 2896SOL    HW121161   8.717   1.183   7.479 -1.0888  0.6871 -0.2892
 2896SOL    HW221162   8.798   1.271   7.367  0.2114 -0.6098 -0.3941
 2897SOL     OW21163   0.205   7.801   0.007 -0.1826 -0.2009 -0.3256
 2897SOL    HW121164   0.131   7.836   0.065  1.1054  0.0092  1.2158
 2897SOL    HW221165   0.236   7.713   0.041  1.6888  0.6736  0.3004
 2898SOL     OW21166   2.200   3.680   2.189 -0.6810  0.0946  0.3359
 2898SOL    HW121167   2.197   3.636   2.278 -0.4550  1.4044  1.0011
 2898SOL    HW221168   2.236   3.773   2.198 -1.8703  0.7142 -0.9135
 2899SOL     OW21169   0.396   7.869   1.362  0.4166 -0.8327 -0.1290
 2899SOL    HW121170   0.389   7.804   1.286 -2.1531 -1.7491  0.8020
 2899SOL    HW221171   0.309   7.919   1.371  1.3662  0.6642  0.9793
 2900SOL     OW21172   6.809   5.380   1.266  0.0293  0.8713 -0.0478
 2900SOL    HW121173   6.894   5.331   1.284  0.0627  0.5104 -1.1870
 2900SOL    HW221174   6.821   5.476   1.292  0.3820  0.5750  0.9416
 2901SOL     OW21175   7.017   7.169   7.126  0.9319  0.3207 -0.2922
 2901SOL    HW121176   6.978   7.223   7.201  3.3647  1.3453  0.2906
 2901SOL    HW221177   7.032   7.076   7.158  2.1045  0.7883  0.5910
 2902SOL     OW21178   2.152   7.681   6.614  0.1086 -0.7846  0.7129
 2902SOL    HW121179   2.069   7.676   6.558  0.8142  0.7529 -0.4916
 2902SOL    HW221180   2.194   7.590   6.619 -2.8158 -2.1113  3.2048
 2903SOL     OW21181   6.623   6.846   5.710 -0.5251  0.0594 -0.0902
 2903SOL    HW121182   6.603   6.936   5.673 -0.5907  0.1112  0.0704
 2903SOL    HW221183   6.712   6.847   5.754  2.0236 -1.3634 -4.8485
 2904SOL     OW21184   0.922   2.084   0.149 -0.1898 -0.5041  0.0061
 2904SOL    HW121185   0.921   2.170   0.098 -1.7944  0.4472  1.5794
 2904SOL    HW221186   0.832   2.042   0.145  0.0283 -1.0753  0.9258
 2905SOL     OW21187   4.950   0.637   8.712  0.3600  0.0335 -0.5323
 2905SOL    HW121188   4.996   0.722   8.738  0.2781  0.0688 -0.4996
 2905SOL    HW221189   4.851   0.648   8.725  0.3072  0.0882 -0.9647
 2906SOL     OW21190   0.740   3.910   6.826  0.4977  0.3658 -0.2493
 2906SOL    HW121191   0.745   3.970   6.746  0.9676  0.7859  0.0884
 2906SOL    HW221192   0.830   3.904   6.868  0.4306 -0.4968 -0.2142
 2907SOL     OW21193   5.764   8.280   2.409 -0.2332 -0.0604 -0.0274
 2907SOL    HW121194   5.809   8.345   2.471  0.7219 -1.3233  0.6043
 2907SOL    HW221195   5.690   8.233   2.458  0.8828 -1.4634  0.3238
 2908SOL     OW21196   0.639   6.556   6.904 -0.3199 -0.9453  0.1389
 2908SOL    HW121197   0.560   6.611   6.927  2.3235  2.4991  1.3720
 2908SOL    HW221198   0.673   6.509   6.986  1.7175  1.4353  0.7103
 2909SOL     OW21199   2.241   7.975   8.875  0.1780  0.0183 -0.2487
 2909SOL    HW121200   2.244   7.891   8.822 -0.6020  0.7452 -1.4597
 2909SOL    HW221201   2.245   8.054   8.814 -1.3489  0.8754  0.7245
 2910SOL     OW21202   1.514   4.007   8.071 -0.2202 -0.1887  0.0270
 2910SOL    HW121203   1.605   4.042   8.093  0.2629 -0.8172 -0.9063
 2910SOL    HW221204   1.514   3.907   8.078 -0.8020 -0.1977 -0.0902
 2911SOL     OW21205   6.072   3.666   6.124 -0.4263 -0.2837 -0.2019
 2911SOL    HW121206   6.018   3.630   6.200 -1.3940 -0.5672 -1.0211
 2911SOL    HW221207   6.110   3.591   6.071  0.2634 -0.0851  0.0082
 2912SOL     OW21208   5.665   5.019   3.886 -0.3370 -0.3090 -0.1875
 2912SOL    HW121209   5.644   5.110   3.920 -2.2077 -1.2664  1.3522
 2912SOL    HW221210   5.647   4.952   3.958 -1.8677 -2.1621 -2.2187
 2913SOL     OW21211   0.477   4.008   5.121 -0.2642  0.2543  0.4841
 2913SOL    HW121212   0.436   4.047   5.038 -0.8538 -0.8514  0.2487
 2913SOL    HW221213   0.427   3.927   5.148  1.7316 -1.1144  0.2179
 2914SOL     OW21214   5.676   8.212   6.444  0.1447 -0.5375 -0.6316
 2914SOL    HW121215   5.750   8.152   6.413 -0.2891 -0.4240 -1.9039
 2914SOL    HW221216   5.592   8.160   6.452  0.2532 -0.5613  0.3472
 2915SOL     OW21217   8.243   7.315   7.022  0.1707  0.1865 -0.3758
 2915SOL    HW121218   8.244   7.290   6.925 -0.1162  1.0239 -0.6016
 2915SOL    HW221219   8.337   7.331   7.052  0.2961 -0.4914 -0.4004
 2916SOL     OW21220   1.567   7.966   4.760 -0.5036  0.1365 -0.1123
 2916SOL    HW121221   1.638   7.948   4.691 -0.5909 -2.0606  0.3146
 2916SOL    HW221222   1.609   8.011   4.839 -0.3236  2.2882 -1.3956
 2917SOL     OW21223   1.011   1.912   6.258 -0.5097  0.4065 -0.2209
 2917SOL    HW121224   0.964   1.825   6.240 -0.9404  0.2876  1.3778
 2917SOL    HW221225   0.946   1.977   6.298  0.2388  0.8860  0.2142
 2918SOL     OW21226   5.619   2.236   2.780  0.3673  0.0184  0.1038
 2918SOL    HW121227   5.597   2.171   2.852  0.9168 -0.7982 -0.4570
 2918SOL    HW221228   5.562   2.217   2.700  1.4706 -0.6232 -0.5344
 2919SOL     OW21229   2.947   1.208   3.268  0.4533 -0.2951  0.4657
 2919SOL    HW121230   3.045   1.218   3.285  0.3612  1.3849  0.1705
 2919SOL    HW221231   2.896   1.261   3.337 -0.2233 -0.6425  0.2379
 2920SOL     OW21232   3.559   6.409   2.628 -0.4331 -0.3493  0.3288
 2920SOL    HW121233   3.624   6.355   2.682 -0.1524 -0.8548 -0.5102
 2920SOL    HW221234   3.467   6.372   2.640 -0.2469 -0.9987 -0.2150
 2921SOL     OW21235   0.577   4.182   8.331 -0.1412 -0.0688  0.2858
 2921SOL    HW121236   0.514   4.148   8.262 -0.0806  0.6743 -0.1419
 2921SOL    HW221237   0.605   4.107   8.391 -1.4647 -0.4073  0.5046
 2922SOL     OW21238   7.147   0.034   8.105 -0.2173  0.8444  0.4187
 2922SOL    HW121239   7.141   0.041   8.005 -3.1953 -1.5459  0.3635
 2922SOL    HW221240   7.061   0.066   8.145 -0.5410 -1.8286  1.9588
 2923SOL     OW21241   4.090   4.294   2.583 -0.1973  0.2157 -0.3256
 2923SOL    HW121242   4.078   4.393   2.584  1.2532  0.3942  1.7630
 2923SOL    HW221243   4.001   4.250   2.596 -1.0756  1.1790 -2.7663
 2924SOL     OW21244   6.194   3.975   8.036 -0.0658 -0.1278  0.3173
 2924SOL    HW121245   6.220   3.893   8.087 -2.6979 -0.4731  1.1642
 2924SOL    HW221246   6.274   4.010   7.986  1.5173 -2.1678  1.3518
 2925SOL     OW21247   3.881   1.553   6.962 -0.4355  0.5250  0.1106
 2925SOL    HW121248   3.783   1.561   6.976 -0.4448  2.0295 -0.7307
 2925SOL    HW221249   3.902   1.561   6.864  0.5038  0.0204  0.2621
 2926SOL     OW21250   0.715   3.504   8.289 -0.0650 -0.4790 -0.5508
 2926SOL    HW121251   0.780   3.577   8.266 -1.4045  0.7992 -0.3684
 2926SOL    HW221252   0.646   3.496   8.216 -0.2253 -1.2199 -0.3245
 2927SOL     OW21253   2.206   1.917   7.916  0.0378  0.2295 -0.4148
 2927SOL    HW121254   2.271   1.934   7.989 -1.6192 -0.1144  1.1880
 2927SOL    HW221255   2.180   2.003   7.872  0.2285  0.5499  0.1053
 2928SOL     OW21256   6.324   2.973   2.901  0.7990 -0.5385  0.0165
 2928SOL    HW121257   6.297   2.881   2.872 -1.0835 -0.2711  0.8663
 2928SOL    HW221258   6.269   3.040   2.852  2.7639  0.2093 -1.2490
 2929SOL     OW21259   1.061   8.125   4.308 -0.0241 -0.0420  0.0577
 2929SOL    HW121260   1.049   8.026   4.302  1.6300 -0.2713  0.1464
 2929SOL    HW221261   0.990   8.171   4.255 -1.4255 -1.2392  0.8785
 2930SOL     OW21262   2.625   3.710   0.216  0.8196  0.0807 -0.1097
 2930SOL    HW121263   2.603   3.790   0.161 -2.3108 -0.0533  0.8417
 2930SOL    HW221264   2.660   3.739   0.305  1.9112  0.3338 -0.6107
 2931SOL     OW21265   0.096   0.797   3.611 -0.0883 -0.3846 -0.1034
 2931SOL    HW121266   0.112   0.701   3.636 -1.4702 -0.6330 -0.1389
 2931SOL    HW221267   0.031   0.801   3.535  0.2854  0.5721 -0.3806
 2932SOL     OW21268   3.403   5.907   2.647  0.4242  0.4048 -0.5319
 2932SOL    HW121269   3.356   5.949   2.569 -0.5159  1.1312  0.4046
 2932SOL    HW221270   3.379   5.957   2.730  0.5740 -1.0272  0.3802
 2933SOL     OW21271   0.412   4.295   4.299  0.0221  0.0227  0.1032
 2933SOL    HW121272   0.442   4.278   4.206 -2.8674 -2.6755 -0.4118
 2933SOL    HW221273   0.313   4.307   4.301  0.4030  3.6789  2.3970
 2934SOL     OW21274   5.718   7.700   6.815 -0.4081 -0.0629  0.2731
 2934SOL    HW121275   5.771   7.753   6.749  2.2971 -0.1335  2.2994
 2934SOL    HW221276   5.728   7.602   6.794  1.1171 -0.1283  1.2143
 2935SOL     OW21277   6.919   4.363   6.811  0.2148 -0.6884 -0.1309
 2935SOL    HW121278   6.946   4.364   6.907 -1.7300 -2.7435  0.4783
 2935SOL    HW221279   6.820   4.380   6.803  0.4924  0.3674 -1.8545
 2936SOL     OW21280   8.048   8.440   1.158 -0.3069  0.8082  1.2020
 2936SOL    HW121281   8.004   8.530   1.160 -2.9103 -0.3893 -0.4568
 2936SOL    HW221282   7.982   8.370   1.184  0.1921 -1.1799 -2.5600
 2937SOL     OW21283   3.524   2.013   7.355  0.2405  0.0062  0.3427
 2937SOL    HW121284   3.549   2.053   7.267  0.3410  0.3212  0.5146
 2937SOL    HW221285   3.570   1.925   7.366 -0.2935 -0.3456 -0.2074
 2938SOL     OW21286   5.907   4.118   4.711 -0.7259 -0.6247 -0.7911
 2938SOL    HW121287   5.897   4.192   4.645 -1.0391 -0.5710 -0.6818
 2938SOL    HW221288   5.993   4.130   4.761 -1.9239  1.0062  0.9161
 2939SOL     OW21289   2.120   2.208   8.671  0.4484 -0.2329  0.1241
 2939SOL    HW121290   2.133   2.288   8.730  0.3378  0.0859 -0.2780
 2939SOL    HW221291   2.045   2.226   8.607  1.0537 -0.2846 -0.6084
 2940SOL     OW21292   6.957   8.511   4.724  0.1261 -0.0472 -0.2544
 2940SOL    HW121293   6.875   8.535   4.673  0.0797 -2.0014 -1.1449
 2940SOL    HW221294   7.012   8.447   4.670  1.3419 -0.1665  1.0978
 2941SOL     OW21295   5.726   3.514   5.725 -0.2820 -0.5152 -0.6984
 2941SOL    HW121296   5.633   3.537   5.696 -0.0037 -0.2902 -1.4333
 2941SOL    HW221297   5.792   3.558   5.664  0.3394  0.5483  0.7123
 2942SOL     OW21298   2.650   4.553   0.549  0.6078  0.0000  0.2044
 2942SOL    HW121299   2.742   4.580   0.520  1.0739  0.7720  2.3055
 2942SOL    HW221300   2.655   4.511   0.640 -0.8330 -2.0644 -0.6437
 2943SOL     OW21301   8.568   8.401   7.323  0.2180 -0.2375  0.0982
 2943SOL    HW121302   8.493   8.406   7.257  0.8670 -0.8297 -0.7013
 2943SOL    HW221303   8.545   8.453   7.405 -0.4146  0.9030 -0.7979
 2944SOL     OW21304   8.053   2.071   0.203 -0.1190  0.2153 -0.0862
 2944SOL    HW121305   8.033   2.018   0.285 -1.7169  0.5143 -0.2743
 2944SOL    HW221306   8.034   2.015   0.122 -0.9920  0.7639 -0.2736
 2945SOL     OW21307   0.811   7.584   5.216  0.1617 -0.0021  0.0055
 2945SOL    HW121308   0.767   7.555   5.131  1.1616 -1.4698 -0.0467
 2945SOL    HW221309   0.809   7.508   5.282  0.2863  0.7877  0.9289
 2946SOL     OW21310   4.171   8.575   7.354 -0.0853  0.4254 -0.1513
 2946SOL    HW121311   4.257   8.626   7.361  0.2396 -0.1940  0.4802
 2946SOL    HW221312   4.166   8.509   7.429 -2.1886  2.0769  1.2330
 2947SOL     OW21313   3.035   1.527   1.632 -0.2907  0.1279 -0.2149
 2947SOL    HW121314   2.944   1.503   1.598  0.3626 -0.3573 -1.6821
 2947SOL    HW221315   3.097   1.540   1.554  0.8311  0.7086  0.7606
 2948SOL     OW21316   5.831   2.787   7.583  0.8151  0.4014  0.2568
 2948SOL    HW121317   5.872   2.757   7.669  1.8823 -1.4041 -0.8471
 2948SOL    HW221318   5.734   2.805   7.598  1.1674  0.9646  2.0308
 2949SOL     OW21319   5.014   6.035   4.209 -0.3359  0.8510 -0.5399
 2949SOL    HW121320   4.938   6.091   4.177 -1.8556 -0.9890 -0.2432
 2949SOL    HW221321   5.010   5.945   4.166  0.5902  0.0936  0.9048
 2950SOL     OW21322   5.988   1.057   1.714  0.6102  0.5143 -0.1742
 2950SOL    HW121323   6.042   1.124   1.663  0.1751  0.4078 -0.7848
 2950SOL    HW221324   6.044   0.976   1.732  0.9908  0.8527  0.1502
 2951SOL     OW21325   3.331   4.506   3.841 -0.2341 -0.2600 -0.4629
 2951SOL    HW121326   3.364   4.432   3.782  0.5142  0.6275 -1.1791
 2951SOL    HW221327   3.235   4.490   3.863 -0.5031 -0.6712 -1.8430
 2952SOL     OW21328   0.205   0.332   7.573 -0.4997 -0.4607  0.0033
 2952SOL    HW121329   0.279   0.288   7.625  0.7976  1.3737 -0.2007
 2952SOL    HW221330   0.160   0.400   7.631 -2.0093 -1.5186  0.1003
 2953SOL     OW21331   0.875   7.177   6.172 -0.6525 -0.0100 -0.0218
 2953SOL    HW121332   0.907   7.103   6.230 -0.3980  0.9895  1.1461
 2953SOL    HW221333   0.934   7.184   6.091 -0.1808 -0.5472  0.2736
 2954SOL     OW21334   1.462   6.686   2.791  0.0446 -0.1448 -0.1087
 2954SOL    HW121335   1.486   6.642   2.704  1.2527 -0.0828  0.1873
 2954SOL    HW221336   1.363   6.693   2.798 -0.1741 -2.6292 -0.2495
 2955SOL     OW21337   5.996   5.383   3.006 -0.3302  0.3321 -0.0315
 2955SOL    HW121338   6.067   5.453   2.999  0.3585 -0.4604 -1.0407
 2955SOL    HW221339   5.978   5.345   2.915 -0.8190 -0.6963  0.4946
 2956SOL     OW21340   8.409   7.861   1.137  0.7304  0.4115  0.0137
 2956SOL    HW121341   8.475   7.851   1.063 -0.6771  2.1406 -1.5129
 2956SOL    HW221342   8.330   7.801   1.120  0.8284  0.0980  0.6268
 2957SOL     OW21343   6.548   8.226   1.138 -0.7113 -0.5180  0.3293
 2957SOL    HW121344   6.559   8.313   1.186 -1.0300 -0.1126 -0.3235
 2957SOL    HW221345   6.523   8.155   1.204  1.4545 -0.5434  1.1667
 2958SOL     OW21346   6.939   5.146   7.229  0.4145  0.4412  0.0079
 2958SOL    HW121347   6.993   5.099   7.159 -0.3128 -1.6231  0.7871
 2958SOL    HW221348   6.950   5.099   7.316  0.2244  2.1792  0.9885
 2959SOL     OW21349   8.758   6.871   8.889  0.2750 -0.2139  0.6985
 2959SOL    HW121350   8.757   6.945   8.957  0.5485  0.3694  0.0699
 2959SOL    HW221351   8.682   6.809   8.908 -0.3596  0.5859  0.8409
 2960SOL     OW21352   8.608   1.190   5.329 -0.3879 -0.1266  0.0277
 2960SOL    HW121353   8.555   1.275   5.325 -0.4778 -0.1458  0.7787
 2960SOL    HW221354   8.701   1.210   5.358  0.0052 -0.1067 -1.1987
 2961SOL     OW21355   5.178   0.665   3.708  0.4041 -0.0871 -0.4476
 2961SOL    HW121356   5.088   0.667   3.666  0.1075  0.6537  0.2336
 2961SOL    HW221357   5.219   0.574   3.694  0.1550  0.0307 -1.9958
 2962SOL     OW21358   2.914   0.168   2.524  0.2116 -0.2564 -0.7353
 2962SOL    HW121359   2.834   0.169   2.583  0.6637 -1.0216 -0.0969
 2962SOL    HW221360   2.933   0.075   2.494  1.8617 -0.3557  0.5126
 2963SOL     OW21361   2.571   3.457   8.123  0.1599  0.3059 -0.1902
 2963SOL    HW121362   2.618   3.510   8.053  0.3881  0.9805  0.4667
 2963SOL    HW221363   2.554   3.515   8.203 -1.1584 -0.1216 -0.1470
 2964SOL     OW21364   3.745   0.391   3.295 -0.2989 -0.0754 -0.2317
 2964SOL    HW121365   3.719   0.394   3.391 -0.3443  0.2927 -0.2534
 2964SOL    HW221366   3.663   0.386   3.238 -0.3680  1.7964 -0.3268
 2965SOL     OW21367   1.957   8.149   0.385 -0.7993  0.9439 -0.5956
 2965SOL    HW121368   2.005   8.110   0.307  1.2825  0.8261  0.6707
 2965SOL    HW221369   1.918   8.076   0.441 -1.0218  0.9398 -0.7590
 2966SOL     OW21370   7.807   3.105   8.667 -0.3384 -0.5675 -0.3901
 2966SOL    HW121371   7.862   3.175   8.712 -1.6580  0.0121  0.3723
 2966SOL    HW221372   7.778   3.139   8.577 -3.4571  1.1525  1.1796
 2967SOL     OW21373   2.122   1.076   7.666  0.0128 -0.1291 -0.2607
 2967SOL    HW121374   2.121   1.133   7.583 -1.6346 -1.0361 -0.8838
 2967SOL    HW221375   2.056   1.112   7.732  1.2607  0.5391  0.6485
 2968SOL     OW21376   8.378   0.167   6.760 -0.2240 -0.4066 -0.5415
 2968SOL    HW121377   8.409   0.157   6.665  1.4551  0.0349 -0.0510
 2968SOL    HW221378   8.377   0.264   6.785 -2.4168 -0.3739 -0.6646
 2969SOL     OW21379   4.641   6.981   2.014 -0.0657  0.2256  0.3038
 2969SOL    HW121380   4.696   7.046   1.961  1.5117 -2.2939 -1.2634
 2969SOL    HW221381   4.553   6.967   1.970 -0.3527  1.1789  0.5688
 2970SOL     OW21382   0.668   1.206   0.349 -0.0833  0.0974 -0.1348
 2970SOL    HW121383   0.619   1.118   0.350 -0.0509  0.0184  3.9977
 2970SOL    HW221384   0.752   1.197   0.296  0.8316 -2.9429  1.7280
 2971SOL     OW21385   3.788   4.123   5.735 -0.2682  0.4506  0.4295
 2971SOL    HW121386   3.748   4.117   5.643  0.6111  0.6210  0.0310
 2971SOL    HW221387   3.884   4.096   5.731  0.3733  2.5766  0.9079
 2972SOL     OW21388   1.341   2.055   4.025  0.0977 -0.1346 -0.1438
 2972SOL    HW121389   1.352   2.023   3.931 -1.1359  0.6351 -0.5689
 2972SOL    HW221390   1.341   2.155   4.026 -1.0767 -0.1351  0.5117
 2973SOL     OW21391   7.478   0.566   2.136 -0.0407  0.4702  0.2666
 2973SOL    HW121392   7.484   0.569   2.036  0.2775  1.1878  0.3026
 2973SOL    HW221393   7.503   0.475   2.168  0.4491  0.4118 -0.2747
 2974SOL     OW21394   8.164   1.091   8.079  0.1190 -0.7546  0.0946
 2974SOL    HW121395   8.073   1.065   8.110  0.3744 -1.7784  0.0011
 2974SOL    HW221396   8.185   1.045   7.993 -0.0012  0.9382 -0.8584
 2975SOL     OW21397   6.333   7.433   8.536  0.3099  0.1903 -0.6076
 2975SOL    HW121398   6.281   7.348   8.526  0.1189  0.4125 -1.5021
 2975SOL    HW221399   6.272   7.505   8.568  0.1366  0.3599 -1.3059
 2976SOL     OW21400   5.162   5.615   8.253  0.2478 -0.2219 -0.0478
 2976SOL    HW121401   5.173   5.526   8.209 -0.3405 -0.4597  0.2838
 2976SOL    HW221402   5.143   5.602   8.350  1.8681  0.3127  0.3421
 2977SOL     OW21403   4.854   5.141   8.763 -0.2805 -0.1650 -0.1236
 2977SOL    HW121404   4.826   5.051   8.730 -3.0689  0.0171  1.5949
 2977SOL    HW221405   4.841   5.147   8.862  0.6048  1.8873 -0.0888
 2978SOL     OW21406   4.923   0.428   2.011 -0.3096  0.0541 -0.1795
 2978SOL    HW121407   4.985   0.463   2.081 -0.6988  0.0332  0.1811
 2978SOL    HW221408   4.880   0.343   2.043  0.0898 -0.3710 -0.7575
 2979SOL     OW21409   0.523   5.905   2.694  0.2533  0.0160  0.2581
 2979SOL    HW121410   0.496   5.999   2.712 -0.3665 -0.4736  1.9288
 2979SOL    HW221411   0.459   5.864   2.629 -1.9812 -0.5276  2.7091
 2980SOL     OW21412   3.298   0.972   4.683 -0.4997 -0.1258 -0.6439
 2980SOL    HW121413   3.227   0.909   4.651  0.7566 -1.6767 -0.4492
 2980SOL    HW221414   3.331   0.942   4.773 -1.0651  1.7906  0.2282
 2981SOL     OW21415   1.995   5.426   5.354 -0.2615  0.4846  0.0696
 2981SOL    HW121416   1.934   5.366   5.301 -0.7380  0.9822  0.0536
 2981SOL    HW221417   1.944   5.506   5.385  0.5226  1.1668 -0.3889
 2982SOL     OW21418   2.959   5.060   2.524 -0.2046 -0.1453  0.2246
 2982SOL    HW121419   2.979   5.157   2.537  0.3107 -0.1610 -0.4252
 2982SOL    HW221420   2.970   5.012   2.611  0.5155  0.2112  0.3377
 2983SOL     OW21421   3.922   3.149   8.892  0.5419  0.2830  0.0087
 2983SOL    HW121422   3.923   3.138   8.793  1.6132  0.3997  0.0050
 2983SOL    HW221423   3.897   3.062   8.935 -0.7104  0.4397 -0.3865
 2984SOL     OW21424   6.210   3.975   1.964  0.6261  0.6023  0.1110
 2984SOL    HW121425   6.112   3.968   1.983  0.8434 -2.7615  0.3103
 2984SOL    HW221426   6.262   3.949   2.046  1.6984  1.7445 -0.1846
 2985SOL     OW21427   8.663   6.633   0.332  0.3147  0.3588  0.3727
 2985SOL    HW121428   8.643   6.680   0.246 -0.5070 -0.1839  0.2644
 2985SOL    HW221429   8.761   6.614   0.337  0.3996  0.5814 -0.3435
 2986SOL     OW21430   0.474   4.242   4.022  0.2192 -0.4587 -0.2421
 2986SOL    HW121431   0.422   4.258   3.938 -0.0603  0.5448  0.1246
 2986SOL    HW221432   0.568   4.274   4.009 -0.1546  0.8825  0.2484
 2987SOL     OW21433   3.004   0.656   1.101  0.5637  0.2498 -0.9977
 2987SOL    HW121434   2.965   0.724   1.040  0.6779  0.0469 -1.2975
 2987SOL    HW221435   2.949   0.573   1.098 -0.3804  0.8051  0.4188
 2988SOL     OW21436   4.414   1.148   2.368 -0.5110  0.2542 -0.1522
 2988SOL    HW121437   4.363   1.223   2.411 -1.3707  0.1894 -1.0410
 2988SOL    HW221438   4.509   1.149   2.400 -0.6235  1.4686  0.1532
 2989SOL     OW21439   0.426   4.872   1.348  0.2203 -0.3996 -0.0859
 2989SOL    HW121440   0.460   4.846   1.438  1.7824  1.0331 -0.2264
 2989SOL    HW221441   0.504   4.895   1.289 -0.8698  0.2520 -1.2925
 2990SOL     OW21442   1.236   3.838   0.963  0.9156  0.1465 -0.3171
 2990SOL    HW121443   1.313   3.843   1.026  0.5957  0.1148  0.0781
 2990SOL    HW221444   1.195   3.929   0.954 -0.5090 -0.2964  1.3703
 2991SOL     OW21445   2.474   6.246   1.406 -0.0211  0.3934 -0.1253
 2991SOL    HW121446   2.514   6.163   1.444 -0.9119  0.1054  0.2048
 2991SOL    HW221447   2.538   6.288   1.342  0.8420  0.0053  0.4743
 2992SOL     OW21448   3.664   2.363   2.980  0.2364  0.4231 -0.0963
 2992SOL    HW121449   3.624   2.438   3.033  1.1829  0.2101  0.9295
 2992SOL    HW221450   3.639   2.276   3.023 -0.2874  0.1800 -0.8915
 2993SOL     OW21451   7.687   1.384   2.275  0.5543  0.2541  0.8132
 2993SOL    HW121452   7.737   1.318   2.332  1.0762  0.2555  0.3626
 2993SOL    HW221453   7.633   1.334   2.207 -0.0732  0.2524  1.3011
 2994SOL     OW21454   5.137   6.365   6.335  0.1849 -0.4767  0.1041
 2994SOL    HW121455   5.156   6.452   6.290 -0.2456 -0.6112 -0.3370
 2994SOL    HW221456   5.222   6.328   6.374  0.1603  0.7035  1.3068
 2995SOL     OW21457   3.361   6.892   7.937  0.7029  0.1040  0.0995
 2995SOL    HW121458   3.411   6.952   7.876 -0.5382 -0.1467 -1.1917
 2995SOL    HW221459   3.267   6.925   7.948  0.6097 -0.4302  1.0496
 2996SOL     OW21460   6.443   8.359   7.673 -0.5499 -0.7296  0.2391
 2996SOL    HW121461   6.365   8.375   7.613 -0.0121  2.8284  0.3882
 2996SOL    HW221462   6.410   8.322   7.760 -1.9446 -0.2980 -0.0878
 2997SOL     OW21463   0.385   3.029   8.767 -0.0173  0.0359  0.0974
 2997SOL    HW121464   0.290   3.002   8.754  0.3126 -0.1625 -2.1795
 2997SOL    HW221465   0.430   2.964   8.828 -0.7441 -1.2153 -0.6719
 2998SOL     OW21466   1.235   5.528   5.709  0.1383 -0.0382  0.2246
 2998SOL    HW121467   1.298   5.604   5.724  1.0882 -0.9076  0.7338
 2998SOL    HW221468   1.255   5.454   5.774 -0.2357 -1.0519 -0.7851
 2999SOL     OW21469   2.340   7.316   7.153 -0.1958  0.1590  0.1914
 2999SOL    HW121470   2.250   7.330   7.112  0.6093  0.2584 -1.5713
 2999SOL    HW221471   2.366   7.220   7.146 -0.1339  0.1416  0.6381
 3000SOL     OW21472   3.050   8.326   1.991  0.1275  0.0662  0.4961
 3000SOL    HW121473   2.985   8.261   2.031  0.5914 -0.8692 -0.2362
 3000SOL    HW221474   3.010   8.368   1.910 -0.6146  1.5738  1.6265
 3001SOL     OW21475   7.940   2.874   0.632 -0.0811  0.1340 -0.0501
 3001SOL    HW121476   7.893   2.795   0.592  1.2540 -1.4617  1.4592
 3001SOL    HW221477   7.971   2.934   0.558  0.2858 -1.5582 -1.3300
 3002SOL     OW21478   6.512   5.762   4.988  0.6552  0.4688 -0.1544
 3002SOL    HW121479   6.446   5.775   4.913  0.2158  0.4515  0.2256
 3002SOL    HW221480   6.508   5.840   5.050 -1.0537 -0.8152  1.4201
 3003SOL     OW21481   4.263   4.647   7.989  0.0561 -0.0231 -0.3311
 3003SOL    HW121482   4.188   4.595   8.030 -1.1341  0.7039 -1.5184
 3003SOL    HW221483   4.349   4.600   8.004 -0.7468 -1.3067  0.3273
 3004SOL     OW21484   4.063   8.103   5.233 -0.0919  1.0657  0.1313
 3004SOL    HW121485   4.128   8.079   5.305  1.9484  0.6549 -1.7925
 3004SOL    HW221486   3.995   8.031   5.225  0.6734  0.2922  0.4944
 3005SOL     OW21487   4.655   6.139   4.943  0.2574  0.6649  0.0034
 3005SOL    HW121488   4.730   6.162   5.006  0.8839 -0.5709 -0.2711
 3005SOL    HW221489   4.600   6.220   4.925 -0.2906  0.9151  2.6197
 3006SOL     OW21490   1.835   6.013   4.809  0.1238  0.1384 -0.7777
 3006SOL    HW121491   1.800   5.973   4.894  1.2142 -0.2335 -0.4916
 3006SOL    HW221492   1.817   6.111   4.809  0.8246  0.2823  0.2656
 3007SOL     OW21493   3.692   5.989   1.053  0.3714  0.2032  0.0657
 3007SOL    HW121494   3.610   5.946   1.091  0.6013 -0.4590 -0.1949
 3007SOL    HW221495   3.683   5.995   0.954  0.7605 -0.1231  0.0103
 3008SOL     OW21496   8.721   1.504   2.125  0.3573 -0.1735  0.1108
 3008SOL    HW121497   8.763   1.542   2.208 -1.6167  0.4653  0.8288
 3008SOL    HW221498   8.782   1.521   2.047  1.9001 -0.1483  1.2869
 3009SOL     OW21499   2.672   3.487   7.108  0.3414  0.7833 -0.3887
 3009SOL    HW121500   2.737   3.526   7.173  1.1617  0.7940 -1.2076
 3009SOL    HW221501   2.701   3.509   7.015 -0.0781 -0.4087 -0.8040
 3010SOL     OW21502   8.238   5.474   7.708  0.5658 -0.0970  0.4607
 3010SOL    HW121503   8.274   5.542   7.645  1.8228 -1.0217  0.1519
 3010SOL    HW221504   8.214   5.391   7.656 -1.3024  0.2206  0.7703
 3011SOL     OW21505   5.773   8.838   2.869 -0.1721 -0.3077 -0.0721
 3011SOL    HW121506   5.796   8.922   2.819 -0.8614  1.3817  2.3805
 3011SOL    HW221507   5.678   8.813   2.848 -0.2451  0.0099 -0.1260
 3012SOL     OW21508   3.822   8.962   4.389  0.3950  0.7032  0.4238
 3012SOL    HW121509   3.763   9.021   4.444  0.5618  2.6118 -1.3733
 3012SOL    HW221510   3.896   9.016   4.350  0.5476 -0.6951 -1.2798
 3013SOL     OW21511   4.355   1.695   5.936  0.3457 -0.4682 -0.0521
 3013SOL    HW121512   4.272   1.724   5.984  0.5914  2.4479 -1.3066
 3013SOL    HW221513   4.355   1.595   5.928 -2.5700 -0.5895  0.8291
 3014SOL     OW21514   8.531   3.763   4.914 -0.1950  0.5539  0.0582
 3014SOL    HW121515   8.437   3.778   4.942  0.2996 -0.3666  2.2663
 3014SOL    HW221516   8.555   3.667   4.925  0.6732  0.5535 -1.5867
 3015SOL     OW21517   8.580   6.578   6.077 -0.0652 -0.0898 -0.0119
 3015SOL    HW121518   8.505   6.635   6.111 -0.2913  0.0203 -0.6830
 3015SOL    HW221519   8.583   6.584   5.977 -0.7103 -1.9875 -0.1696
 3016SOL     OW21520   7.788   8.993   1.551  0.1277 -0.3683 -0.1474
 3016SOL    HW121521   7.885   9.005   1.569 -0.4397  0.5532  2.5035
 3016SOL    HW221522   7.754   9.069   1.496  1.1388 -1.3513 -2.1875
 3017SOL     OW21523   6.671   4.647   8.644 -0.1393 -0.1711  0.1287
 3017SOL    HW121524   6.716   4.721   8.695  1.3781 -0.0056 -1.3729
 3017SOL    HW221525   6.601   4.686   8.585  0.5700  0.0724 -0.5637
 3018SOL     OW21526   2.450   8.781   8.361  0.1222 -0.0082 -0.0447
 3018SOL    HW121527   2.529   8.737   8.318  0.0427  0.8785 -1.1245
 3018SOL    HW221528   2.378   8.792   8.293 -0.6799 -0.1857  0.7711
 3019SOL     OW21529   4.263   3.708   1.311  0.1803 -0.1347  0.2213
 3019SOL    HW121530   4.227   3.780   1.252 -1.0526 -0.7312  0.2253
 3019SOL    HW221531   4.196   3.686   1.381 -0.0481 -2.2591 -0.6242
 3020SOL     OW21532   8.553   8.079   0.866  0.1587  0.7138  0.3438
 3020SOL    HW121533   8.554   8.070   0.767  0.1510 -0.7369  0.4661
 3020SOL    HW221534   8.468   8.122   0.896 -0.2721  0.2624 -0.2164
 3021SOL     OW21535   7.949   2.211   6.145 -1.0146 -0.2073  0.0293
 3021SOL    HW121536   7.976   2.175   6.056 -1.1309  2.1641 -1.0173
 3021SOL    HW221537   8.028   2.216   6.205 -0.9342 -1.8312  0.0606
 3022SOL     OW21538   5.999   3.590   1.536  0.0726 -0.3477 -0.1970
 3022SOL    HW121539   5.939   3.604   1.457 -0.2759 -0.0888  0.1104
 3022SOL    HW221540   6.079   3.650   1.528 -0.3446  0.2419  0.0329
 3023SOL     OW21541   2.440   5.826   4.666  0.5774  0.3188 -0.0718
 3023SOL    HW121542   2.387   5.794   4.745  0.3282 -0.4023 -0.5310
 3023SOL    HW221543   2.381   5.833   4.586  0.9184  0.6576 -0.2961
 3024SOL     OW21544   1.894   3.257   3.654 -0.3645  0.1116 -0.5405
 3024SOL    HW121545   1.988   3.291   3.643 -0.8844  1.5835 -0.4790
 3024SOL    HW221546   1.875   3.190   3.582  1.2234 -1.3313  0.3261
 3025SOL     OW21547   0.732   1.107   1.975  0.1614 -0.3531 -0.2389
 3025SOL    HW121548   0.800   1.048   1.933 -0.4524  0.4586 -2.4437
 3025SOL    HW221549   0.641   1.068   1.962  0.0058 -0.4344  0.9682
 3026SOL     OW21550   4.605   3.246   2.841  0.1662  0.2669  0.1687
 3026SOL    HW121551   4.608   3.154   2.800 -0.8354 -0.1208  0.9252
 3026SOL    HW221552   4.537   3.247   2.914 -1.7230  2.3321 -1.5470
 3027SOL     OW21553   3.602   8.850   2.791 -0.5121 -0.0202  0.3214
 3027SOL    HW121554   3.620   8.775   2.727  0.6271 -1.0902  1.8323
 3027SOL    HW221555   3.676   8.917   2.785 -0.4859 -0.0431  0.3760
 3028SOL     OW21556   6.705   7.854   7.658 -0.3555 -0.6014  0.2472
 3028SOL    HW121557   6.700   7.816   7.751  0.9765 -2.2628 -0.3279
 3028SOL    HW221558   6.640   7.929   7.649 -1.2024 -1.0654  2.2305
 3029SOL     OW21559   6.291   2.387   5.756 -0.6738 -0.0369 -0.0747
 3029SOL    HW121560   6.279   2.305   5.811 -1.1555  1.1653  1.6438
 3029SOL    HW221561   6.233   2.461   5.792 -1.3417  0.6604 -2.4407
 3030SOL     OW21562   1.882   0.166   2.834  0.7115  0.0497 -0.5924
 3030SOL    HW121563   1.859   0.209   2.921  0.5066  0.8902 -1.0522
 3030SOL    HW221564   1.951   0.221   2.787  0.2413  0.0390 -1.3164
 3031SOL     OW21565   3.643   1.492   2.615 -0.2902 -0.7435  0.0352
 3031SOL    HW121566   3.635   1.401   2.574 -1.3812 -1.2782  1.3872
 3031SOL    HW221567   3.681   1.484   2.707  0.7383  0.2976 -0.2885
 3032SOL     OW21568   6.998   6.259   0.159 -0.1421  0.3223 -0.3191
 3032SOL    HW121569   7.061   6.311   0.101 -0.6350  1.4973  0.1849
 3032SOL    HW221570   6.937   6.322   0.206 -1.2053 -0.7761 -0.2240
 3033SOL     OW21571   6.206   4.624   7.262  0.0067 -0.4806  0.0531
 3033SOL    HW121572   6.222   4.592   7.355 -1.6809 -1.0144  0.1811
 3033SOL    HW221573   6.221   4.723   7.256 -0.5738 -0.3298  1.0645
 3034SOL     OW21574   6.129   6.878   4.965 -0.4084  0.2924  0.1286
 3034SOL    HW121575   6.104   6.873   4.868  0.4749 -1.1954 -0.0385
 3034SOL    HW221576   6.154   6.973   4.987  0.0231  0.5249 -1.2649
 3035SOL     OW21577   5.490   0.845   1.745 -0.1790  0.4218 -0.4680
 3035SOL    HW121578   5.429   0.916   1.711  0.1025  0.7826 -0.2351
 3035SOL    HW221579   5.545   0.882   1.821 -1.1119 -0.5039  0.6679
 3036SOL     OW21580   1.493   4.217   4.203  0.3009  0.3260  0.6384
 3036SOL    HW121581   1.460   4.144   4.144 -1.3325  1.8863 -0.4451
 3036SOL    HW221582   1.447   4.213   4.292 -0.8087  0.8607  0.0900
 3037SOL     OW21583   8.401   2.929   7.536 -0.6362  0.3564  0.3023
 3037SOL    HW121584   8.452   2.929   7.622 -1.2865 -0.4431  0.6886
 3037SOL    HW221585   8.383   3.024   7.509  1.9554  0.6926 -0.3959
 3038SOL     OW21586   8.151   0.606   8.707 -0.4049 -0.1390 -0.8318
 3038SOL    HW121587   8.133   0.691   8.658 -0.6578  0.3576  0.1085
 3038SOL    HW221588   8.065   0.568   8.741 -0.0127  0.8313  1.3609
 3039SOL     OW21589   4.655   3.997   1.846  0.2975 -0.0123 -0.5274
 3039SOL    HW121590   4.637   3.906   1.809  1.3665 -0.0612 -0.9359
 3039SOL    HW221591   4.573   4.030   1.892  0.5881 -2.1546  1.6734
 3040SOL     OW21592   4.910   2.579   8.507 -0.1652  0.4108  0.6279
 3040SOL    HW121593   4.934   2.521   8.584  0.1560 -0.9394 -0.4666
 3040SOL    HW221594   4.912   2.675   8.535 -0.8613 -0.1119  2.4912
 3041SOL     OW21595   1.251   4.251   3.210  0.1522 -0.0429  0.3463
 3041SOL    HW121596   1.291   4.221   3.123  0.4660 -0.4844  0.6410
 3041SOL    HW221597   1.288   4.196   3.284  0.0643  0.4954  0.7927
 3042SOL     OW21598   6.804   2.221   1.581  0.2164 -0.5023 -0.1269
 3042SOL    HW121599   6.893   2.262   1.562  0.7016 -1.7056 -0.5197
 3042SOL    HW221600   6.815   2.147   1.647 -0.9471  1.2772  2.1068
 3043SOL     OW21601   3.147   1.502   0.369  0.2939 -0.1677  0.9102
 3043SOL    HW121602   3.065   1.529   0.420 -0.5355 -0.3974 -0.2676
 3043SOL    HW221603   3.205   1.444   0.426 -0.5677 -0.3448  1.6106
 3044SOL     OW21604   3.625   0.295   8.349 -0.3748 -0.3836  0.0715
 3044SOL    HW121605   3.674   0.358   8.288 -0.6088 -0.4055 -0.1390
 3044SOL    HW221606   3.548   0.255   8.300 -1.0375  0.2017  0.6202
 3045SOL     OW21607   5.748   5.692   7.534  0.1924  0.0269 -0.5045
 3045SOL    HW121608   5.814   5.648   7.596  0.5587  1.2763  0.0213
 3045SOL    HW221609   5.680   5.742   7.588 -0.1506  0.1998 -1.0910
 3046SOL     OW21610   8.213   4.346   4.878  0.0195  0.8608 -0.1608
 3046SOL    HW121611   8.163   4.432   4.889  0.4036  1.0659 -0.0079
 3046SOL    HW221612   8.310   4.365   4.868  0.3588  0.3650  1.8285
 3047SOL     OW21613   4.044   3.763   3.112  0.5902 -0.7212 -0.1138
 3047SOL    HW121614   4.002   3.687   3.063 -0.7339  0.0697 -0.2316
 3047SOL    HW221615   4.117   3.803   3.056 -1.4551  0.7045 -1.8319
 3048SOL     OW21616   7.921   6.140   3.112 -0.0427  0.1686  0.0871
 3048SOL    HW121617   7.897   6.232   3.142 -0.5313 -0.2282  0.9203
 3048SOL    HW221618   7.960   6.088   3.188 -1.3889 -0.8720  0.0913
 3049SOL     OW21619   8.148   1.690   6.182  0.9001  0.3705 -0.6422
 3049SOL    HW121620   8.113   1.757   6.248  1.1797  0.2157 -0.3354
 3049SOL    HW221621   8.072   1.634   6.148  0.9503 -0.4883  0.6123
 3050SOL     OW21622   4.867   0.558   0.436  0.3063 -0.1104 -0.4277
 3050SOL    HW121623   4.957   0.548   0.394 -0.2223  2.4617 -2.2755
 3050SOL    HW221624   4.802   0.497   0.391  0.4452  0.3151 -1.2101
 3051SOL     OW21625   1.714   6.523   6.928 -0.3682 -0.4368  0.6705
 3051SOL    HW121626   1.644   6.544   6.997 -0.2999  2.8384 -0.1454
 3051SOL    HW221627   1.729   6.604   6.871  1.1818 -2.3862 -1.7782
 3052SOL     OW21628   2.444   4.366   2.864  0.0169 -0.0411  0.3146
 3052SOL    HW121629   2.346   4.381   2.850  0.4898  1.0519 -2.0559
 3052SOL    HW221630   2.488   4.451   2.893  0.4291 -0.3153  0.5080
 3053SOL     OW21631   4.213   1.001   7.160  0.1815  0.3033  0.4117
 3053SOL    HW121632   4.123   1.042   7.178 -0.8605 -1.4640 -0.6679
 3053SOL    HW221633   4.241   1.024   7.067 -0.3242 -1.2480 -0.1338
 3054SOL     OW21634   5.298   3.250   7.373  0.1415  0.8474 -0.3951
 3054SOL    HW121635   5.278   3.167   7.426  0.2454  1.4764  0.6254
 3054SOL    HW221636   5.347   3.315   7.430  0.0140  1.6391 -1.1880
 3055SOL     OW21637   2.420   2.017   1.852 -0.8765  0.5585  0.5400
 3055SOL    HW121638   2.434   2.105   1.807 -0.8227 -0.2986 -1.1678
 3055SOL    HW221639   2.509   1.977   1.875 -0.7371 -0.6032 -1.8308
 3056SOL     OW21640   4.978   7.399   7.229 -0.0696  0.2905  0.6396
 3056SOL    HW121641   5.010   7.305   7.216 -1.1759 -0.1046  0.7557
 3056SOL    HW221642   4.891   7.412   7.182  0.5528  1.5378 -0.1951
 3057SOL     OW21643   2.013   7.970   4.635 -0.1599  0.3749  0.2048
 3057SOL    HW121644   1.973   7.885   4.667 -1.4080  0.6146 -0.6866
 3057SOL    HW221645   2.043   7.960   4.540 -0.7708  1.0755 -0.0673
 3058SOL     OW21646   3.157   1.324   5.056  0.7761 -0.4898 -0.8503
 3058SOL    HW121647   3.246   1.317   5.012  1.2727 -3.1552  0.4939
 3058SOL    HW221648   3.147   1.414   5.098  3.8317 -1.0192  1.1114
 3059SOL     OW21649   3.127   1.011   2.889  0.4373  0.3897  0.5118
 3059SOL    HW121650   3.149   1.093   2.942 -0.2077  0.3310  0.8744
 3059SOL    HW221651   3.208   0.982   2.838  0.8514  0.8792  0.8792
 3060SOL     OW21652   6.545   4.484   5.441 -0.4016  0.0198  0.8032
 3060SOL    HW121653   6.631   4.481   5.389 -0.7341  0.0738  0.2492
 3060SOL    HW221654   6.565   4.509   5.535  0.0458  1.3071  0.3723
 3061SOL     OW21655   5.182   5.487   8.786  0.1366 -0.0321 -0.5263
 3061SOL    HW121656   5.205   5.584   8.775  1.1429 -0.2769 -0.6431
 3061SOL    HW221657   5.265   5.435   8.807 -0.4857 -0.7884  0.0858
 3062SOL     OW21658   4.465   0.693   4.292 -0.2169  0.2623 -0.4648
 3062SOL    HW121659   4.451   0.658   4.385  2.5137  0.2616 -0.0127
 3062SOL    HW221660   4.483   0.616   4.230 -0.7343  0.3582 -0.7298
 3063SOL     OW21661   7.492   7.852   8.332  0.2692 -0.2590  0.4409
 3063SOL    HW121662   7.519   7.948   8.334  0.6967 -0.3672  0.1538
 3063SOL    HW221663   7.523   7.811   8.246  0.8446 -0.8585  0.9220
 3064SOL     OW21664   2.368   2.829   7.591  0.3965 -0.0725  0.1998
 3064SOL    HW121665   2.313   2.842   7.508  2.4162  3.2071 -0.7151
 3064SOL    HW221666   2.321   2.870   7.669  1.0911  2.0163 -0.4357
 3065SOL     OW21667   0.364   1.637   1.081 -0.0902  0.7520  0.4878
 3065SOL    HW121668   0.437   1.620   1.015  0.9639  1.2180  1.5109
 3065SOL    HW221669   0.285   1.675   1.034 -0.8269 -2.5377 -1.1359
 3066SOL     OW21670   5.562   3.130   6.131  0.4157 -0.1593  0.0024
 3066SOL    HW121671   5.657   3.127   6.099  0.2019 -0.1990 -0.6315
 3066SOL    HW221672   5.501   3.112   6.055 -0.2187  2.5369 -0.1787
 3067SOL     OW21673   4.473   5.472   4.988 -0.4462 -0.2482 -0.0586
 3067SOL    HW121674   4.498   5.376   5.002  1.3273  0.3659  1.2491
 3067SOL    HW221675   4.377   5.485   5.015 -1.1851 -1.9455 -1.7541
 3068SOL     OW21676   8.006   7.502   0.608  0.7613 -0.5085  0.0490
 3068SOL    HW121677   7.958   7.579   0.566  0.4662 -0.2304  0.8905
 3068SOL    HW221678   7.961   7.417   0.582 -0.6231 -0.2053  1.3855
 3069SOL     OW21679   6.392   3.045   1.364 -0.4602  0.0341  0.4947
 3069SOL    HW121680   6.337   2.983   1.307 -0.3753  0.2173  0.2106
 3069SOL    HW221681   6.486   3.014   1.367 -1.0166 -1.5371  2.8036
 3070SOL     OW21682   5.284   7.241   4.541  0.3108  0.3049  0.2365
 3070SOL    HW121683   5.302   7.245   4.443 -0.8218 -0.6067 -0.0169
 3070SOL    HW221684   5.315   7.154   4.578 -0.9942 -0.1512  0.3064
 3071SOL     OW21685   5.565   4.045   4.195 -0.4296  0.2296 -0.3359
 3071SOL    HW121686   5.614   4.004   4.117  1.8948  1.2836  0.5047
 3071SOL    HW221687   5.467   4.028   4.186  0.1128 -2.3992 -1.8419
 3072SOL     OW21688   6.889   3.631   5.065  0.3989  0.2091 -0.1929
 3072SOL    HW121689   6.904   3.639   4.967  1.5520 -0.3703 -0.0735
 3072SOL    HW221690   6.936   3.705   5.112  0.5647 -0.0018 -0.0222
 3073SOL     OW21691   8.258   1.086   2.130  0.3642  0.4549  0.3330
 3073SOL    HW121692   8.224   1.144   2.055  0.0784  1.0013  0.8718
 3073SOL    HW221693   8.180   1.041   2.174  0.1861  2.5845  2.2864
 3074SOL     OW21694   3.343   2.879   7.709 -0.1296  0.4300 -0.4129
 3074SOL    HW121695   3.401   2.901   7.788 -0.6898 -1.0999  0.4282
 3074SOL    HW221696   3.264   2.940   7.707 -0.8865 -0.4781  1.0622
 3075SOL     OW21697   5.204   2.143   0.184 -0.1194  0.3961 -1.2045
 3075SOL    HW121698   5.285   2.094   0.150  0.4243  0.2324  0.2857
 3075SOL    HW221699   5.129   2.079   0.195  0.4975 -0.0676  0.4365
 3076SOL     OW21700   6.167   5.684   2.577 -0.3634 -0.0967 -0.5802
 3076SOL    HW121701   6.260   5.652   2.560 -0.4702 -0.2214 -0.9404
 3076SOL    HW221702   6.167   5.746   2.655 -0.3378 -1.8345  0.8107
 3077SOL     OW21703   2.534   1.349   2.369 -0.5471 -0.2512 -0.6581
 3077SOL    HW121704   2.567   1.319   2.280 -2.0668 -1.1346 -0.9379
 3077SOL    HW221705   2.500   1.443   2.362  0.8341  0.2662 -0.6190
 3078SOL     OW21706   6.896   0.132   0.861  0.2755  0.3588 -0.4878
 3078SOL    HW121707   6.824   0.185   0.816 -0.0484  0.0366 -0.3619
 3078SOL    HW221708   6.908   0.166   0.955 -1.1556 -0.9045  0.1777
 3079SOL     OW21709   4.877   7.992   3.490  0.4407 -0.0086  0.4316
 3079SOL    HW121710   4.815   7.978   3.413 -2.0070  1.9289  1.9524
 3079SOL    HW221711   4.890   7.906   3.539 -1.4805 -0.3484  0.3752
 3080SOL     OW21712   1.801   4.253   3.494  0.0202 -0.1930  0.1760
 3080SOL    HW121713   1.821   4.342   3.534  1.3344 -0.3843 -0.0090
 3080SOL    HW221714   1.872   4.188   3.521 -1.0548 -1.2528  0.5105
 3081SOL     OW21715   1.552   5.200   2.640 -0.2214  0.3288  0.1430
 3081SOL    HW121716   1.609   5.153   2.573  0.2906  1.8961 -0.5501
 3081SOL    HW221717   1.458   5.164   2.635 -0.1753  0.3704 -1.3567
 3082SOL     OW21718   6.331   5.785   4.752  0.4556 -0.8800 -0.0499
 3082SOL    HW121719   6.267   5.861   4.758  1.4486 -0.1122  1.0564
 3082SOL    HW221720   6.282   5.699   4.765 -0.1302 -0.2266  2.1703
 3083SOL     OW21721   0.327   4.302   7.964  0.0109  0.2759 -0.2466
 3083SOL    HW121722   0.275   4.385   7.944  0.2888  0.5879  0.3089
 3083SOL    HW221723   0.423   4.327   7.981 -0.6059  0.2866  3.6113
 3084SOL     OW21724   6.408   3.664   3.675  0.0418  0.3101 -0.7793
 3084SOL    HW121725   6.458   3.738   3.720  0.8486 -0.4980 -0.3083
 3084SOL    HW221726   6.457   3.636   3.592  0.5839 -0.7158 -0.1331
 3085SOL     OW21727   8.052   8.210   6.535 -0.1606  0.0382 -0.1193
 3085SOL    HW121728   8.122   8.186   6.602 -0.1137  1.5333  0.3692
 3085SOL    HW221729   8.096   8.246   6.452 -0.3541  0.8673  0.1421
 3086SOL     OW21730   4.707   6.524   5.961 -0.2536  0.3894  0.0226
 3086SOL    HW121731   4.671   6.590   5.895  0.3355  1.2508  0.5469
 3086SOL    HW221732   4.806   6.518   5.951 -0.2793 -0.2346  0.1436
 3087SOL     OW21733   3.124   0.130   6.257 -0.3150  0.2214  0.2949
 3087SOL    HW121734   3.222   0.128   6.242 -0.3583  2.0300 -0.3268
 3087SOL    HW221735   3.081   0.192   6.192 -1.6991  0.5292  1.4645
 3088SOL     OW21736   2.042   4.237   2.633 -0.2962 -0.0896  0.1048
 3088SOL    HW121737   2.097   4.305   2.680 -0.6821 -0.5061  1.1616
 3088SOL    HW221738   2.000   4.278   2.552  1.2023  0.3455 -0.4668
 3089SOL     OW21739   4.000   4.147   7.203 -0.1833  0.3553  0.0885
 3089SOL    HW121740   3.933   4.115   7.136 -0.4000  0.9639  0.0084
 3089SOL    HW221741   3.959   4.146   7.294 -0.2321  0.5044  0.0700
 3090SOL     OW21742   5.538   8.788   8.738 -0.8520  0.2385  0.4983
 3090SOL    HW121743   5.572   8.756   8.650 -0.5928  1.5832  0.0922
 3090SOL    HW221744   5.456   8.844   8.724 -0.2860  1.2109  1.0219
 3091SOL     OW21745   5.257   0.419   3.639 -0.2540  0.1837 -0.4007
 3091SOL    HW121746   5.242   0.467   3.552  1.4518  0.8526 -0.3602
 3091SOL    HW221747   5.274   0.322   3.621  1.9135  0.6512 -0.9962
 3092SOL     OW21748   3.920   0.112   2.457 -0.5538  0.2288  0.5432
 3092SOL    HW121749   3.938   0.072   2.547 -0.6842  0.8252  0.8446
 3092SOL    HW221750   4.006   0.142   2.416 -0.5435  0.4151  0.6966
 3093SOL     OW21751   8.808   8.098   7.481  0.5362  0.3015  0.2353
 3093SOL    HW121752   8.860   8.046   7.413  2.1737  2.5886 -0.3039
 3093SOL    HW221753   8.853   8.090   7.570  0.5296  0.4158  0.2487
 3094SOL     OW21754   2.459   5.368   2.359 -0.0161  0.6173  0.0789
 3094SOL    HW121755   2.487   5.278   2.325 -0.3810  0.5975 -0.1690
 3094SOL    HW221756   2.535   5.433   2.346  0.1279  0.4255 -0.0496
 3095SOL     OW21757   1.573   2.692   7.470 -0.3960 -0.4025 -0.3958
 3095SOL    HW121758   1.521   2.672   7.387  0.2524  0.3170 -0.9963
 3095SOL    HW221759   1.615   2.783   7.461 -0.3247 -0.3217  0.7254
 3096SOL     OW21760   5.756   6.019   1.813  0.0126  0.1717 -0.1418
 3096SOL    HW121761   5.813   6.026   1.895 -1.1661  2.2332  0.5595
 3096SOL    HW221762   5.803   5.966   1.743  1.6520 -0.3853  1.3687
 3097SOL     OW21763   6.742   5.249   4.746 -0.3310  0.9491 -0.4827
 3097SOL    HW121764   6.834   5.231   4.782 -0.9636 -2.1432 -0.3133
 3097SOL    HW221765   6.748   5.312   4.669  2.0749 -0.1626 -1.2404
 3098SOL     OW21766   2.282   7.111   1.220 -0.5253 -0.0624  0.2990
 3098SOL    HW121767   2.329   7.025   1.202 -0.8611 -0.3567  0.8008
 3098SOL    HW221768   2.219   7.132   1.146  1.1625  0.8777 -0.9038
 3099SOL     OW21769   8.868   1.320   5.723  0.2585 -0.0901  0.3042
 3099SOL    HW121770   8.851   1.254   5.651 -0.7453 -0.5964  0.9890
 3099SOL    HW221771   8.804   1.397   5.713  0.4546  0.0790  0.3574
 3100SOL     OW21772   2.881   3.736   7.638  0.5542 -0.0997  0.3180
 3100SOL    HW121773   2.888   3.665   7.708 -0.0115 -0.5643 -0.0956
 3100SOL    HW221774   2.954   3.724   7.571 -1.5882 -2.4538 -1.7117
 3101SOL     OW21775   3.398   1.466   7.380  0.4872 -0.3712 -0.4902
 3101SOL    HW121776   3.407   1.554   7.334 -0.3065 -0.8508 -1.5741
 3101SOL    HW221777   3.315   1.420   7.348 -0.4422 -0.4257  1.9037
 3102SOL     OW21778   3.553   7.698   8.814 -0.0482 -0.5586  0.2539
 3102SOL    HW121779   3.474   7.669   8.866 -1.3545  0.6402 -1.0240
 3102SOL    HW221780   3.528   7.706   8.717  1.3307  0.9254  0.0055
 3103SOL     OW21781   7.610   6.486   2.218  0.1560 -0.0958 -0.3946
 3103SOL    HW121782   7.666   6.419   2.170  0.4302  0.4829 -0.8804
 3103SOL    HW221783   7.615   6.469   2.317 -0.0789 -1.0240 -0.5421
 3104SOL     OW21784   4.903   8.572   3.065  0.2389  0.7012 -0.0513
 3104SOL    HW121785   4.908   8.622   3.152  0.3157 -1.0910  0.9978
 3104SOL    HW221786   4.961   8.490   3.070  0.1640  0.5275 -1.7589
 3105SOL     OW21787   0.809   2.783   8.364 -0.5345 -0.7460 -0.5629
 3105SOL    HW121788   0.746   2.711   8.336 -0.2428 -1.3404  0.2814
 3105SOL    HW221789   0.863   2.812   8.285 -0.5609 -1.5549 -0.8877
 3106SOL     OW21790   7.014   2.542   8.424  0.0265  0.1362  0.6356
 3106SOL    HW121791   7.103   2.528   8.467  0.5976 -0.9939 -0.8615
 3106SOL    HW221792   6.942   2.505   8.482  0.8006 -1.5803  0.5340
 3107SOL     OW21793   2.342   7.434   7.750  0.3941 -0.4301 -0.5510
 3107SOL    HW121794   2.415   7.499   7.774 -1.0765  1.1067 -0.1184
 3107SOL    HW221795   2.353   7.351   7.804  0.3209  0.8480  1.5295
 3108SOL     OW21796   8.333   1.230   8.237  1.1839 -0.5601 -0.3072
 3108SOL    HW121797   8.285   1.182   8.164  2.5409  0.3538 -1.8282
 3108SOL    HW221798   8.382   1.164   8.295  1.5230 -1.1561 -1.2720
 3109SOL     OW21799   2.448   3.586   5.846  0.2015  0.6928  0.1602
 3109SOL    HW121800   2.473   3.489   5.846 -0.2382  0.5585  1.6429
 3109SOL    HW221801   2.351   3.595   5.869  1.0256  1.6100  3.6699
 3110SOL     OW21802   3.008   4.448   0.667  0.2337  0.2495  0.3217
 3110SOL    HW121803   3.029   4.353   0.641 -2.2283 -0.0790 -0.6168
 3110SOL    HW221804   3.004   4.504   0.585 -0.0546  0.8070  0.7183
 3111SOL     OW21805   2.506   3.475   2.143  0.3132 -0.3193  0.1332
 3111SOL    HW121806   2.465   3.444   2.058 -1.3584  0.6570  0.5599
 3111SOL    HW221807   2.556   3.400   2.185 -0.0608 -1.2081 -0.9837
 3112SOL     OW21808   1.713   7.602   5.004 -0.1889 -0.0223 -0.6285
 3112SOL    HW121809   1.635   7.662   4.990  0.3512  0.9041  0.2094
 3112SOL    HW221810   1.786   7.653   5.051  0.0139 -1.5299  0.7332
 3113SOL     OW21811   1.711   0.835   1.420  0.3952  0.0928 -0.2441
 3113SOL    HW121812   1.809   0.837   1.400  0.2675  1.0206 -0.8073
 3113SOL    HW221813   1.660   0.877   1.345 -0.2430  1.8012  1.0865
 3114SOL     OW21814   8.357   1.901   6.865  0.0727  0.2320 -0.1295
 3114SOL    HW121815   8.289   1.834   6.893  1.4489 -1.5612 -0.9253
 3114SOL    HW221816   8.364   1.901   6.765 -0.5159  2.2103 -0.1973
 3115SOL     OW21817   1.243   7.129   2.641 -0.1547 -0.6234 -0.4266
 3115SOL    HW121818   1.286   7.131   2.551  0.8607 -2.2751  0.0102
 3115SOL    HW221819   1.215   7.036   2.663  0.3853 -0.3846  1.3362
 3116SOL     OW21820   0.460   6.125   6.973 -0.6471  0.1019 -1.0829
 3116SOL    HW121821   0.518   6.066   7.030 -1.2554  0.4703 -0.0542
 3116SOL    HW221822   0.517   6.195   6.930 -0.4816  1.4197  1.1449
 3117SOL     OW21823   2.986   3.782   2.311  0.2064  0.1497  0.2804
 3117SOL    HW121824   3.044   3.863   2.304 -0.9516  1.0837  1.2090
 3117SOL    HW221825   2.928   3.775   2.230  0.0224  0.4782  0.3829
 3118SOL     OW21826   4.653   4.185   2.333  0.1691 -0.1716 -0.6083
 3118SOL    HW121827   4.578   4.173   2.398  0.8786 -2.6289 -0.1805
 3118SOL    HW221828   4.687   4.279   2.338 -0.4924 -0.0221  1.7896
 3119SOL     OW21829   6.089   6.865   5.547  0.2544 -0.3005  0.3689
 3119SOL    HW121830   6.161   6.862   5.478 -0.7246 -0.3990 -0.6672
 3119SOL    HW221831   6.069   6.960   5.570 -0.4958 -0.2148 -0.6323
 3120SOL     OW21832   7.893   7.519   3.989 -0.0288 -0.5553 -0.6733
 3120SOL    HW121833   7.944   7.442   3.952  2.4646  1.2982 -1.1875
 3120SOL    HW221834   7.859   7.576   3.914 -2.0170 -1.2083 -0.3010
 3121SOL     OW21835   0.919   5.159   5.943 -0.0897 -0.5440 -0.2197
 3121SOL    HW121836   0.918   5.199   5.851  0.9618 -0.0341 -0.0158
 3121SOL    HW221837   0.865   5.217   6.004  0.1476 -0.2659 -0.2688
 3122SOL     OW21838   2.595   1.552   2.066 -0.4327 -0.0900 -0.1691
 3122SOL    HW121839   2.599   1.471   2.125  0.3238 -1.0167 -1.4923
 3122SOL    HW221840   2.518   1.543   2.003  1.3671 -1.1497 -2.2790
 3123SOL     OW21841   4.828   0.805   3.798  0.0963 -0.4016  0.3988
 3123SOL    HW121842   4.901   0.794   3.866  1.2514  0.4410 -0.6651
 3123SOL    HW221843   4.791   0.898   3.804  0.5444 -0.1564 -0.4173
 3124SOL     OW21844   5.938   5.942   4.380  0.0141  0.1160 -0.5179
 3124SOL    HW121845   5.985   6.029   4.393  0.4015  0.0052 -1.1208
 3124SOL    HW221846   5.911   5.904   4.468 -1.0727  1.3436 -0.3103
 3125SOL     OW21847   0.734   4.093   5.192  0.4587  0.2405  0.0218
 3125SOL    HW121848   0.751   4.074   5.289 -0.7721 -1.9174 -0.1557
 3125SOL    HW221849   0.639   4.070   5.170  0.6459  1.0226 -1.6276
 3126SOL     OW21850   0.819   1.786   0.027  0.0382  0.2557  0.2905
 3126SOL    HW121851   0.847   1.875   0.063  0.6224  0.3770 -0.4395
 3126SOL    HW221852   0.758   1.741   0.092  1.0495  0.4756  1.4058
 3127SOL     OW21853   6.351   2.851   7.030 -0.3835  0.3376 -0.5631
 3127SOL    HW121854   6.265   2.865   7.080 -1.1800 -0.5181 -1.6341
 3127SOL    HW221855   6.353   2.911   6.950 -0.4965 -0.4271 -1.1464
 3128SOL     OW21856   2.443   0.775   7.040  0.5334  0.3489  0.4492
 3128SOL    HW121857   2.479   0.706   7.102  0.2546 -0.9580 -0.8235
 3128SOL    HW221858   2.358   0.742   6.999  0.5704  1.3102 -0.4131
 3129SOL     OW21859   5.720   8.907   1.964 -0.5903 -0.0718 -0.6642
 3129SOL    HW121860   5.671   8.993   1.974  0.2118  0.5882 -2.3209
 3129SOL    HW221861   5.659   8.839   1.923 -0.6991  0.2026 -0.9591
 3130SOL     OW21862   3.038   1.892   4.710  0.1543 -0.4433 -0.0530
 3130SOL    HW121863   3.103   1.886   4.634 -0.7374  0.2581 -0.8705
 3130SOL    HW221864   2.963   1.828   4.696  0.6562 -1.2668  0.9059
 3131SOL     OW21865   3.366   8.092   8.585 -0.2381  0.1810 -0.4501
 3131SOL    HW121866   3.458   8.072   8.552 -0.3566  1.3190 -1.5235
 3131SOL    HW221867   3.337   8.021   8.649  2.4426  1.2600  2.0796
 3132SOL     OW21868   6.739   8.565   5.801  0.4869 -0.1672  0.0811
 3132SOL    HW121869   6.744   8.631   5.876 -0.0345 -0.3573  0.2817
 3132SOL    HW221870   6.650   8.521   5.801  0.6820 -0.5648 -0.3186
 3133SOL     OW21871   8.684   3.214   7.844 -0.3300 -0.1972  0.5372
 3133SOL    HW121872   8.684   3.257   7.934 -2.8060 -2.2073  1.5495
 3133SOL    HW221873   8.685   3.115   7.854  1.4007 -0.4660 -1.7203
 3134SOL     OW21874   3.680   5.320   4.660 -0.6240 -0.1783  0.4270
 3134SOL    HW121875   3.720   5.303   4.751  1.9757  0.1024 -0.6185
 3134SOL    HW221876   3.691   5.416   4.636 -3.6268  0.3166  0.8462
 3135SOL     OW21877   0.849   2.907   7.942 -0.1077 -0.1490 -0.1835
 3135SOL    HW121878   0.876   2.981   7.881  1.3559  0.3338  1.0227
 3135SOL    HW221879   0.882   2.819   7.906 -1.6431 -0.1993 -1.4917
 3136SOL     OW21880   8.207   0.861   6.975 -0.6084 -0.5198 -0.0657
 3136SOL    HW121881   8.197   0.768   7.011 -1.1926 -0.3843  0.1168
 3136SOL    HW221882   8.194   0.927   7.050 -1.6065 -0.2415 -0.4890
 3137SOL     OW21883   3.970   1.117   7.253  1.1620  0.3397  0.6244
 3137SOL    HW121884   3.918   1.172   7.188  1.4759 -0.5942 -0.4301
 3137SOL    HW221885   3.935   1.134   7.345  0.4445  1.3710  0.1807
 3138SOL     OW21886   0.470   3.945   3.917  0.0242  0.0730  0.0634
 3138SOL    HW121887   0.380   3.955   3.874 -0.1202  0.1589  0.3844
 3138SOL    HW221888   0.470   3.990   4.006  0.2210 -0.3980  0.3057
 3139SOL     OW21889   7.639   2.009   0.413  0.6081 -0.2094 -0.0503
 3139SOL    HW121890   7.701   2.013   0.335  0.0851 -0.5704 -0.4788
 3139SOL    HW221891   7.561   2.069   0.397  0.6031 -0.1244  0.2869
 3140SOL     OW21892   8.457   5.665   8.840 -0.2592  0.2266  0.6882
 3140SOL    HW121893   8.409   5.752   8.850  1.0991  0.8946  1.5821
 3140SOL    HW221894   8.507   5.665   8.753 -0.3386  0.3105  0.6422
 3141SOL     OW21895   3.561   3.139   7.634  0.5011  0.0485 -0.0565
 3141SOL    HW121896   3.647   3.187   7.617  0.5728  0.2967  0.9972
 3141SOL    HW221897   3.554   3.061   7.571  2.4485 -1.1894  1.2164
 3142SOL     OW21898   8.558   3.928   6.903 -0.2398  0.5094  0.3174
 3142SOL    HW121899   8.647   3.884   6.897 -0.4974  0.0049  0.1603
 3142SOL    HW221900   8.486   3.860   6.890 -0.6950  0.5372  2.4573
 3143SOL     OW21901   0.908   4.031   3.098  0.5582 -0.5363  0.5036
 3143SOL    HW121902   0.875   4.007   3.007 -0.6807 -1.6293  1.2277
 3143SOL    HW221903   0.860   3.977   3.167  2.3800 -0.6444  1.7373
 3144SOL     OW21904   8.892   1.715   6.178  0.5428  0.1687 -0.5557
 3144SOL    HW121905   8.854   1.651   6.111 -3.2363 -0.4738  2.0675
 3144SOL    HW221906   8.935   1.664   6.252  1.6621  0.8208 -0.7383
 3145SOL     OW21907   0.549   5.417   2.117  0.4328 -0.3886 -0.5401
 3145SOL    HW121908   0.488   5.358   2.065 -0.4622 -0.8386  0.9792
 3145SOL    HW221909   0.581   5.369   2.199  0.0026  1.0837  0.5126
 3146SOL     OW21910   2.549   7.297   6.504  0.0209  0.0050 -0.1299
 3146SOL    HW121911   2.590   7.388   6.506  0.2788 -0.0964 -0.6590
 3146SOL    HW221912   2.568   7.254   6.415 -0.8420 -0.2175 -0.2099
 3147SOL     OW21913   6.868   5.316   5.765 -0.7609 -0.4160 -0.0009
 3147SOL    HW121914   6.896   5.366   5.847 -1.2271  0.2258 -0.2232
 3147SOL    HW221915   6.807   5.241   5.791  0.3778 -1.2250  0.3858
 3148SOL     OW21916   3.494   5.668   4.565  0.2887 -0.3668  0.1497
 3148SOL    HW121917   3.423   5.641   4.500  0.4310  0.8610 -0.5358
 3148SOL    HW221918   3.583   5.636   4.531  0.2792 -0.3273  0.0861
 3149SOL     OW21919   7.782   2.760   7.762 -0.0222 -0.5568  0.3120
 3149SOL    HW121920   7.816   2.849   7.791 -0.3255 -0.6348  0.9022
 3149SOL    HW221921   7.844   2.722   7.694 -1.0457  1.0900 -1.6137
 3150SOL     OW21922   1.533   0.661   3.705 -0.2980  0.0795 -0.4671
 3150SOL    HW121923   1.574   0.669   3.796 -0.3452  2.8055 -0.6581
 3150SOL    HW221924   1.583   0.592   3.653  1.5163  0.4879  0.6738
 3151SOL     OW21925   2.341   7.400   3.220 -0.0100 -0.3351 -0.2503
 3151SOL    HW121926   2.413   7.409   3.151 -0.8406 -0.9162 -1.2215
 3151SOL    HW221927   2.358   7.319   3.276  0.5677  0.0339  0.1105
 3152SOL     OW21928   4.213   2.202   0.645  0.0360  0.5519 -0.0427
 3152SOL    HW121929   4.205   2.154   0.733 -0.3054  1.9864  0.7272
 3152SOL    HW221930   4.128   2.252   0.627  1.3906  3.1409  0.5455
 3153SOL     OW21931   2.081   7.416   1.182  0.3317 -0.0688 -0.1969
 3153SOL    HW121932   2.179   7.418   1.202  0.3243 -0.9393 -0.0597
 3153SOL    HW221933   2.067   7.387   1.087  0.1811 -0.7236  0.0214
 3154SOL     OW21934   1.203   6.700   6.046  0.3445  0.0194 -0.1504
 3154SOL    HW121935   1.284   6.755   6.026 -0.3463  1.1672  0.2284
 3154SOL    HW221936   1.127   6.759   6.071 -0.1655 -1.1363  1.0909
 3155SOL     OW21937   3.183   1.763   7.554  0.5046 -0.0744 -0.7990
 3155SOL    HW121938   3.087   1.737   7.547 -0.2445  1.0163  3.6265
 3155SOL    HW221939   3.237   1.686   7.589  0.8103  0.0516 -0.9852
 3156SOL     OW21940   3.025   1.261   0.493  0.2439 -0.0673  0.2540
 3156SOL    HW121941   2.958   1.200   0.535  1.2517 -0.3573  1.4827
 3156SOL    HW221942   3.049   1.228   0.402 -0.9344 -0.2023 -0.0174
 3157SOL     OW21943   5.716   8.870   0.305 -0.5559 -0.0725  0.0639
 3157SOL    HW121944   5.667   8.837   0.225 -0.4967 -2.1621  0.8464
 3157SOL    HW221945   5.723   8.796   0.372 -1.4186  1.8841  2.3831
 3158SOL     OW21946   8.113   7.947   1.160  0.0379 -0.2371 -0.0834
 3158SOL    HW121947   8.198   7.989   1.191  0.3362 -0.6045 -0.4090
 3158SOL    HW221948   8.063   7.911   1.239  0.4399 -0.5037  0.0489
 3159SOL     OW21949   7.138   4.174   6.970 -0.2748  0.2508  0.0629
 3159SOL    HW121950   7.096   4.123   7.045 -0.9857 -0.0768 -0.5592
 3159SOL    HW221951   7.220   4.220   7.004 -0.4818 -0.0509  0.9987
 3160SOL     OW21952   5.532   3.455   1.265  0.1454 -0.0528 -0.4911
 3160SOL    HW121953   5.535   3.529   1.331 -0.0012  0.0166 -0.5641
 3160SOL    HW221954   5.447   3.404   1.274 -0.4321  0.7182 -1.4623
 3161SOL     OW21955   3.990   1.483   0.178  0.3569  0.0362 -0.1612
 3161SOL    HW121956   3.904   1.433   0.186  1.6724 -2.1642  0.7646
 3161SOL    HW221957   4.031   1.466   0.088  0.1249  0.5725 -0.3675
 3162SOL     OW21958   2.703   5.680   1.535  0.3687 -0.0932 -0.1019
 3162SOL    HW121959   2.686   5.583   1.545  1.6345 -0.5291 -1.9488
 3162SOL    HW221960   2.767   5.696   1.460  0.3979  2.1437  0.3353
 3163SOL     OW21961   6.461   5.942   2.389  0.1180  0.2698  0.2674
 3163SOL    HW121962   6.550   5.988   2.387  0.0496  0.3401 -1.8521
 3163SOL    HW221963   6.462   5.872   2.460  1.6222  0.7329  0.7332
 3164SOL     OW21964   2.606   1.842   7.923 -0.2458 -0.2952  0.2114
 3164SOL    HW121965   2.540   1.866   7.995  1.2906  0.9382  1.2231
 3164SOL    HW221966   2.679   1.786   7.962  0.6129  0.4077 -0.3743
 3165SOL     OW21967   1.011   4.682   1.343  0.0226  0.6588 -0.1840
 3165SOL    HW121968   1.017   4.768   1.394  0.0390 -0.7872  2.3368
 3165SOL    HW221969   0.916   4.662   1.322 -0.2442  0.0005  1.5660
 3166SOL     OW21970   7.737   1.442   0.314 -0.2261  0.3262 -0.7113
 3166SOL    HW121971   7.795   1.461   0.393  4.4307 -2.7708 -3.1520
 3166SOL    HW221972   7.667   1.375   0.340 -0.1954  1.0008  1.2490
 3167SOL     OW21973   4.922   6.857   2.281  0.3692 -0.7656  0.2718
 3167SOL    HW121974   4.952   6.892   2.369  1.0143 -0.3654 -0.1047
 3167SOL    HW221975   4.938   6.926   2.210 -3.6811  0.4669  0.4312
 3168SOL     OW21976   3.422   1.718   5.961 -0.3248  0.1894 -0.2541
 3168SOL    HW121977   3.503   1.662   5.944  0.6869  1.5607 -0.0479
 3168SOL    HW221978   3.417   1.742   6.058 -1.5529 -0.7608 -0.0807
 3169SOL     OW21979   8.460   8.407   5.932 -0.4039 -0.1851 -0.6311
 3169SOL    HW121980   8.521   8.329   5.945  0.6857  0.7224 -0.1611
 3169SOL    HW221981   8.495   8.486   5.984 -0.7840  0.9858 -2.1115
 3170SOL     OW21982   0.395   5.753   2.958  0.3118 -0.0460  0.0534
 3170SOL    HW121983   0.481   5.747   2.907  1.5363 -1.2181  2.1847
 3170SOL    HW221984   0.368   5.662   2.990 -1.4401  0.3971 -0.1073
 3171SOL     OW21985   3.557   2.268   8.692 -0.2704  0.0752  0.1941
 3171SOL    HW121986   3.618   2.347   8.699 -0.3479  0.1669 -0.1344
 3171SOL    HW221987   3.603   2.197   8.639  0.1181 -0.4126  1.1778
 3172SOL     OW21988   6.580   5.363   5.295  0.1332  0.0252 -0.0269
 3172SOL    HW121989   6.498   5.307   5.306  0.4482 -0.9039 -2.2776
 3172SOL    HW221990   6.561   5.440   5.234  0.2069  1.3898  1.6193
 3173SOL     OW21991   0.143   1.392   3.444 -0.1795  0.0264 -0.8912
 3173SOL    HW121992   0.135   1.296   3.469 -0.7614  0.2688 -0.1244
 3173SOL    HW221993   0.235   1.410   3.410  0.7260 -0.2830  1.2763
 3174SOL     OW21994   8.167   4.484   5.165 -0.3761  0.1841 -0.1411
 3174SOL    HW121995   8.210   4.414   5.108  2.6955  0.7568  1.3606
 3174SOL    HW221996   8.180   4.460   5.262 -0.3026  2.2471  0.3716
 3175SOL     OW21997   8.483   5.705   1.501  0.6115 -0.2155  0.1275
 3175SOL    HW121998   8.406   5.641   1.500  0.6670 -0.2777 -1.8833
 3175SOL    HW221999   8.540   5.688   1.582 -1.0019 -0.7438  1.1574
 3176SOL     OW22000   2.006   4.268   0.738 -0.2622  0.4183 -0.3607
 3176SOL    HW122001   1.978   4.364   0.741  0.4194  0.5956  0.5327
 3176SOL    HW222002   2.099   4.262   0.701  1.2651  0.4849  3.2890
 3177SOL     OW22003   1.307   3.326   8.145 -0.0994 -0.0762 -0.6283
 3177SOL    HW122004   1.232   3.381   8.183  0.4429 -1.0425  1.9148
 3177SOL    HW222005   1.278   3.230   8.140  0.1518 -0.0896 -1.8476
 3178SOL     OW22006   6.859   5.329   2.935 -0.2245  0.2300  0.3225
 3178SOL    HW122007   6.882   5.275   3.016  0.1700  0.0335  0.0783
 3178SOL    HW222008   6.824   5.418   2.965  0.4825  0.3874  0.7087
 3179SOL     OW22009   2.527   5.490   5.296  0.1722  0.2792  0.1182
 3179SOL    HW122010   2.577   5.405   5.282 -0.6018  0.3365 -3.6042
 3179SOL    HW222011   2.439   5.470   5.339  2.0459 -0.1553  3.9170
 3180SOL     OW22012   5.885   6.194   1.331 -0.5297  0.0444  0.0217
 3180SOL    HW122013   5.793   6.172   1.297 -1.2251  1.4922  0.9101
 3180SOL    HW222014   5.949   6.198   1.254 -1.3630 -0.1849 -0.6998
 3181SOL     OW22015   7.946   6.214   1.448 -0.0703 -0.3126  0.2536
 3181SOL    HW122016   8.039   6.210   1.485 -0.5403 -1.6276  1.3381
 3181SOL    HW222017   7.938   6.153   1.370 -0.1385 -0.5074  0.4137
 3182SOL     OW22018   1.384   7.040   7.896  0.1088  0.0766  0.2167
 3182SOL    HW122019   1.455   7.107   7.873 -0.9772  1.0115 -0.4268
 3182SOL    HW222020   1.325   7.024   7.817 -1.7034  0.9158  1.3694
 3183SOL     OW22021   8.015   6.067   6.006  0.3298 -0.0728  0.1219
 3183SOL    HW122022   8.027   5.980   5.959 -3.3810 -0.9651  0.7079
 3183SOL    HW222023   7.993   6.138   5.939  1.6827  0.0773 -0.1733
 3184SOL     OW22024   7.683   1.965   4.009  0.0736  0.0632  0.2008
 3184SOL    HW122025   7.699   2.013   4.095 -1.0867 -2.7748  2.0759
 3184SOL    HW222026   7.752   1.894   3.996 -2.3412 -2.5790  1.1635
 3185SOL     OW22027   6.302   6.071   1.847  0.3382 -0.1264  0.4519
 3185SOL    HW122028   6.308   6.123   1.933  3.3553  2.0697 -0.9955
 3185SOL    HW222029   6.244   6.120   1.782 -0.1812 -0.7091  0.4635
 3186SOL     OW22030   3.079   1.058   0.814  0.1295  0.0300 -0.1253
 3186SOL    HW122031   3.019   0.985   0.782  0.8225 -1.1129  1.1204
 3186SOL    HW222032   3.165   1.054   0.762 -0.4923  1.0873 -1.2704
 3187SOL     OW22033   4.468   8.295   2.947 -0.1887 -0.1482  0.5341
 3187SOL    HW122034   4.554   8.346   2.935 -0.7854  0.4707 -1.4006
 3187SOL    HW222035   4.423   8.324   3.031 -0.4038  2.4196 -0.4051
 3188SOL     OW22036   5.951   2.887   0.923 -0.0369 -0.1009  0.3017
 3188SOL    HW122037   6.028   2.937   0.884 -0.6422  0.1985 -0.5269
 3188SOL    HW222038   5.888   2.951   0.966 -1.2180 -0.0404 -1.4627
 3189SOL     OW22039   0.091   0.560   5.579 -0.1602  0.4651  0.1485
 3189SOL    HW122040   0.155   0.588   5.507 -1.8998  0.1079 -1.5706
 3189SOL    HW222041   0.061   0.640   5.630  0.6620  0.7950  0.1215
 3190SOL     OW22042   4.600   6.696   2.376 -0.0173  0.1439 -0.0849
 3190SOL    HW122043   4.513   6.647   2.383 -0.6785  1.3461  0.2835
 3190SOL    HW222044   4.616   6.724   2.281 -0.5297  0.7904  0.0127
 3191SOL     OW22045   2.585   0.431   1.320 -0.2301  0.1801  0.0044
 3191SOL    HW122046   2.587   0.431   1.220  0.7916 -0.2161  0.0140
 3191SOL    HW222047   2.569   0.524   1.353  0.6995  0.5310 -0.5116
 3192SOL     OW22048   1.352   5.574   1.856 -0.6406 -0.8324 -0.3002
 3192SOL    HW122049   1.397   5.530   1.778 -1.6946 -1.0928 -0.7754
 3192SOL    HW222050   1.416   5.636   1.900 -0.5080  0.5766 -2.3918
 3193SOL     OW22051   7.034   2.812   6.479 -0.0147 -0.6988 -0.3010
 3193SOL    HW122052   7.128   2.831   6.453 -0.0030 -0.2283  0.0683
 3193SOL    HW222053   7.027   2.805   6.578 -0.4806 -0.0860 -0.2842
 3194SOL     OW22054   0.199   3.977   0.201 -0.5854  0.1746 -0.3827
 3194SOL    HW122055   0.244   4.038   0.136 -0.7535  0.3252 -0.3549
 3194SOL    HW222056   0.154   3.903   0.151  0.1185 -0.2604 -0.3862
 3195SOL     OW22057   2.583   7.146   4.622 -0.2538  0.4612  0.6558
 3195SOL    HW122058   2.508   7.116   4.563 -0.5247  1.0647  0.6822
 3195SOL    HW222059   2.670   7.135   4.573 -0.2643 -1.0773  0.9620
 3196SOL     OW22060   7.492   4.219   0.258 -0.1017 -0.1884 -0.5399
 3196SOL    HW122061   7.584   4.250   0.284  0.3008 -1.3266 -0.5812
 3196SOL    HW222062   7.428   4.243   0.330  0.6393 -1.4578  0.5593
 3197SOL     OW22063   3.022   2.371   4.317  0.5338  0.1131 -0.3273
 3197SOL    HW122064   2.953   2.439   4.295 -1.3928 -1.6228  0.2368
 3197SOL    HW222065   3.090   2.367   4.243 -1.3276  0.1221 -2.0847
 3198SOL     OW22066   3.689   7.796   5.922 -0.2160 -0.2873 -0.3358
 3198SOL    HW122067   3.698   7.832   6.014  1.2670 -1.5857  0.0435
 3198SOL    HW222068   3.761   7.728   5.905  0.3860  0.9469 -2.9216
 3199SOL     OW22069   0.599   2.909   3.624  0.5131 -0.6433 -0.2360
 3199SOL    HW122070   0.560   2.845   3.559  1.3565  0.9852 -2.3924
 3199SOL    HW222071   0.567   3.002   3.605  1.0497 -0.0821  1.4429
 3200SOL     OW22072   7.805   0.293   8.007  0.0528 -0.6270  0.2457
 3200SOL    HW122073   7.777   0.202   8.038  0.0765 -0.6386  0.2326
 3200SOL    HW222074   7.785   0.360   8.079 -0.2725 -0.5909  0.1218
 3201SOL     OW22075   1.513   2.845   3.019 -0.3306 -0.3069  0.2096
 3201SOL    HW122076   1.584   2.823   3.085 -0.0702  1.5665  0.5787
 3201SOL    HW222077   1.434   2.885   3.066 -0.2744  0.7449 -0.5706
 3202SOL     OW22078   7.394   4.921   4.026 -0.7645 -0.3501  0.6713
 3202SOL    HW122079   7.318   4.939   4.088  0.8241  0.0830  2.5312
 3202SOL    HW222080   7.421   5.006   3.980  1.1364  0.3553  2.9943
 3203SOL     OW22081   7.927   7.652   5.129  0.0317 -0.4721 -0.3318
 3203SOL    HW122082   7.936   7.746   5.162 -0.7358 -0.3405 -0.4761
 3203SOL    HW222083   8.017   7.612   5.116  0.3652 -0.2630  1.2028
 3204SOL     OW22084   8.838   8.958   7.881  0.2445 -0.3657  0.3926
 3204SOL    HW122085   8.766   8.974   7.814 -0.3881 -0.0117  1.1542
 3204SOL    HW222086   8.912   9.025   7.867  0.2668 -0.5062 -0.1578
 3205SOL     OW22087   4.652   4.798   4.794 -0.0135 -0.0205 -0.1384
 3205SOL    HW122088   4.679   4.702   4.784  0.1372 -0.0300  0.3452
 3205SOL    HW222089   4.707   4.854   4.733 -0.2228 -0.2640 -0.5507
 3206SOL     OW22090   0.141   8.026   4.558  0.7491 -0.4144 -0.0686
 3206SOL    HW122091   0.046   8.003   4.579  0.2807  0.8918 -0.6561
 3206SOL    HW222092   0.174   7.969   4.482  0.1494 -0.2886 -0.4275
 3207SOL     OW22093   3.326   5.994   3.134  0.3762  0.4543  0.1790
 3207SOL    HW122094   3.227   5.993   3.123  0.3109  1.2522  0.6463
 3207SOL    HW222095   3.350   5.964   3.227  0.5680  0.2963  0.0788
 3208SOL     OW22096   5.553   2.193   1.171 -0.2859  0.4555 -0.3935
 3208SOL    HW122097   5.460   2.169   1.146 -0.1072  1.6311 -2.2461
 3208SOL    HW222098   5.556   2.289   1.201  0.4901  0.7192 -1.2868
 3209SOL     OW22099   4.954   4.298   6.794 -0.0103 -0.1230  0.2973
 3209SOL    HW122100   5.009   4.373   6.758  0.7572 -0.2910  1.0998
 3209SOL    HW222101   4.977   4.213   6.745 -0.1284 -0.0426  0.1000
 3210SOL     OW22102   5.874   4.829   7.391 -0.7100 -0.4537 -0.2691
 3210SOL    HW122103   5.937   4.818   7.314  1.1108 -1.0989  1.3017
 3210SOL    HW222104   5.814   4.907   7.373 -0.5519 -0.8098 -2.5016
 3211SOL     OW22105   0.022   5.784   4.288  0.3298  0.2687 -0.4524
 3211SOL    HW122106   0.109   5.794   4.336  0.9487  2.3362 -1.9352
 3211SOL    HW222107  -0.054   5.787   4.354  1.3198 -0.6793  0.7505
 3212SOL     OW22108   5.464   1.602   2.594 -0.9615  0.0032 -0.0277
 3212SOL    HW122109   5.382   1.606   2.651 -0.7030 -2.5172  0.5621
 3212SOL    HW222110   5.541   1.570   2.649  0.3054  1.7445 -0.7391
 3213SOL     OW22111   3.831   0.324   2.595 -0.0780 -0.1140 -0.1087
 3213SOL    HW122112   3.842   0.288   2.502  1.3933  0.8483 -0.3215
 3213SOL    HW222113   3.802   0.250   2.656 -0.0550 -0.9852 -1.1391
 3214SOL     OW22114   7.223   6.494   1.952  0.0651  0.4216  0.2245
 3214SOL    HW122115   7.269   6.582   1.940  0.7092  0.1545  0.6705
 3214SOL    HW222116   7.200   6.455   1.863  1.4858  0.1560 -0.0342
 3215SOL     OW22117   4.003   4.195   4.331 -0.2801 -0.0763  0.2218
 3215SOL    HW122118   3.982   4.124   4.264 -0.7584  0.0066  0.2827
 3215SOL    HW222119   4.031   4.279   4.283 -1.7851  0.3637  0.0757
 3216SOL     OW22120   7.316   3.575   1.959  0.6083 -0.2635  0.2005
 3216SOL    HW122121   7.360   3.494   1.998  0.0525 -0.5527  0.2376
 3216SOL    HW222122   7.384   3.647   1.947  0.6830  0.0317  2.2402
 3217SOL     OW22123   7.646   3.935   7.373 -0.1643 -0.1442  0.2267
 3217SOL    HW122124   7.700   3.934   7.458 -0.4652  0.2463  0.4218
 3217SOL    HW222125   7.637   3.841   7.340  0.9206 -0.1815  0.0071
 3218SOL     OW22126   4.371   2.102   1.375 -0.3110 -0.1060 -0.1448
 3218SOL    HW122127   4.351   2.106   1.473  1.2093 -0.9566  0.2074
 3218SOL    HW222128   4.410   2.012   1.353  1.2924  0.8349 -1.1558
 3219SOL     OW22129   6.321   4.940   0.471  0.5650 -0.6471 -0.2207
 3219SOL    HW122130   6.346   5.036   0.481 -0.7547 -0.1765 -1.2712
 3219SOL    HW222131   6.370   4.901   0.392  0.9498 -0.7872  0.0857
 3220SOL     OW22132   8.525   3.427   7.174  0.0751 -0.6686 -1.2887
 3220SOL    HW122133   8.444   3.419   7.116 -0.5466  1.4136 -0.7677
 3220SOL    HW222134   8.497   3.444   7.269  1.1149  1.3829 -1.3242
 3221SOL     OW22135   4.047   1.375   7.433 -0.4416  0.7125  0.6487
 3221SOL    HW122136   4.059   1.305   7.504 -0.4698 -0.1547 -0.1880
 3221SOL    HW222137   4.094   1.346   7.350 -0.4830  1.6873  0.2868
 3222SOL     OW22138   4.192   4.622   6.562  0.1969  0.1220 -0.1801
 3222SOL    HW122139   4.253   4.577   6.497 -1.3120 -1.9440 -0.2112
 3222SOL    HW222140   4.102   4.579   6.558 -0.6227  1.6325  1.4934
 3223SOL     OW22141   1.071   7.639   5.081  0.3522 -0.6666 -0.0495
 3223SOL    HW122142   0.995   7.623   5.143 -0.6639  0.0061 -1.1026
 3223SOL    HW222143   1.043   7.618   4.988  1.1376  0.5427 -0.5687
 3224SOL     OW22144   0.695   6.648   1.450 -0.1559 -0.3281 -0.7644
 3224SOL    HW122145   0.640   6.693   1.521 -0.0946 -1.4745  0.0343
 3224SOL    HW222146   0.761   6.587   1.493  0.8865  0.0764 -1.7764
 3225SOL     OW22147   3.463   3.152   3.649 -0.2577  0.0643 -0.8465
 3225SOL    HW122148   3.560   3.163   3.630 -0.2289  0.8638 -0.2792
 3225SOL    HW222149   3.446   3.059   3.683  0.5102  0.3209  0.2676
 3226SOL     OW22150   1.297   1.754   1.339 -0.1155 -0.3234 -0.2576
 3226SOL    HW122151   1.285   1.821   1.266 -2.4231 -0.1862  0.2303
 3226SOL    HW222152   1.270   1.663   1.306  2.2967 -0.9277 -0.6830
 3227SOL     OW22153   6.318   2.308   2.447  0.2010  0.2619  0.0262
 3227SOL    HW122154   6.389   2.265   2.390  0.3943 -0.8832  1.1301
 3227SOL    HW222155   6.362   2.364   2.517 -0.0003  0.1365  0.2518
 3228SOL     OW22156   1.983   4.485   5.873  0.5532  0.0611 -0.5641
 3228SOL    HW122157   2.005   4.453   5.965  0.8745  0.4514 -0.5062
 3228SOL    HW222158   1.911   4.554   5.878  2.0077  1.5877 -0.4254
 3229SOL     OW22159   2.034   2.901   0.324  0.3031 -0.4636  0.3921
 3229SOL    HW122160   2.096   2.843   0.270  1.6896  0.3509  1.0880
 3229SOL    HW222161   2.087   2.958   0.386 -1.0999  0.9442  0.3357
 3230SOL     OW22162   5.793   5.984   3.220 -0.3588 -0.3304 -0.2648
 3230SOL    HW122163   5.698   5.991   3.189 -0.3194 -2.1137 -0.8960
 3230SOL    HW222164   5.814   6.058   3.283 -1.8249  0.7459 -1.0153
 3231SOL     OW22165   1.640   4.171   6.758 -0.0564 -0.3339 -0.6269
 3231SOL    HW122166   1.713   4.108   6.729  1.6916  1.3435  0.0503
 3231SOL    HW222167   1.587   4.199   6.678 -0.1803 -1.8309 -1.0824
 3232SOL     OW22168   0.517   7.269   6.514 -0.4106 -0.1142 -0.3041
 3232SOL    HW122169   0.508   7.174   6.546 -1.3305  0.1809  0.3419
 3232SOL    HW222170   0.454   7.285   6.438 -0.7798  0.1820  0.0630
 3233SOL     OW22171   7.999   6.388   7.023  0.7360  0.1385  0.2116
 3233SOL    HW122172   8.049   6.302   7.017  2.3119  0.6953  3.9748
 3233SOL    HW222173   8.043   6.457   6.965 -0.5640 -1.5174 -2.8592
 3234SOL     OW22174   0.938   3.527   5.228 -0.0050 -0.3601 -0.4021
 3234SOL    HW122175   1.036   3.512   5.224 -0.0825 -1.0455  0.1249
 3234SOL    HW222176   0.892   3.467   5.163 -0.1869 -1.1462  0.4490
 3235SOL     OW22177   8.067   6.895   5.386 -0.6643 -0.2687  0.0165
 3235SOL    HW122178   8.010   6.840   5.325 -0.5318 -0.5871  0.1796
 3235SOL    HW222179   8.164   6.878   5.365 -0.6335  1.0848 -0.9985
 3236SOL     OW22180   1.124   5.870   7.011  0.3496 -0.0297  0.4453
 3236SOL    HW122181   1.221   5.850   7.002  0.1301 -0.9162  0.0191
 3236SOL    HW222182   1.073   5.786   7.028 -0.1018  0.7034  2.8576
 3237SOL     OW22183   0.246   3.014   7.888 -0.4968  0.2811  0.2305
 3237SOL    HW122184   0.160   2.963   7.887 -0.2066 -0.2383  1.3605
 3237SOL    HW222185   0.308   2.973   7.955  0.0341  1.6202  0.5651
 3238SOL     OW22186   7.684   7.003   2.499 -0.5633 -0.2868  0.1740
 3238SOL    HW122187   7.720   7.061   2.573  0.9531 -2.4800  1.2123
 3238SOL    HW222188   7.590   6.977   2.521 -1.2777  1.7327 -0.3155
 3239SOL     OW22189   4.153   8.020   1.734 -0.0814  0.0530 -0.4673
 3239SOL    HW122190   4.238   8.041   1.685  0.8184  0.3196  1.1535
 3239SOL    HW222191   4.169   7.942   1.795 -0.5295  1.1106  1.0330
 3240SOL     OW22192   4.949   2.710   1.921 -0.4209  0.1114 -0.9338
 3240SOL    HW122193   4.971   2.681   2.014  2.0054  1.5362 -1.0285
 3240SOL    HW222194   4.886   2.788   1.925 -1.0458 -0.4166 -0.5009
 3241SOL     OW22195   8.873   5.216   5.444  0.7755 -0.3632  0.2756
 3241SOL    HW122196   8.916   5.300   5.411  0.5496  0.1370  1.2159
 3241SOL    HW222197   8.823   5.236   5.529 -1.7161 -0.8160 -1.0424
 3242SOL     OW22198   0.528   8.449   7.708 -0.6657  0.5798  0.0471
 3242SOL    HW122199   0.487   8.435   7.798  0.8425 -1.1043  0.5064
 3242SOL    HW222200   0.551   8.360   7.668  0.8212  1.4117 -0.9875
 3243SOL     OW22201   2.493   3.552   8.369 -0.1205  0.1931 -0.1883
 3243SOL    HW122202   2.485   3.499   8.454 -2.0007 -0.4123 -0.7301
 3243SOL    HW222203   2.531   3.643   8.390  1.9189 -0.8747  0.9169
 3244SOL     OW22204   1.663   8.942   6.697  0.1588 -0.1465 -0.4447
 3244SOL    HW122205   1.747   8.905   6.737  0.0534 -1.1294 -1.0850
 3244SOL    HW222206   1.651   9.037   6.724  0.8168 -0.3784  0.6840
 3245SOL     OW22207   7.821   0.844   7.095  0.2596 -0.3330  0.0923
 3245SOL    HW122208   7.821   0.943   7.113  0.2542 -0.7276  2.4290
 3245SOL    HW222209   7.903   0.803   7.136 -0.0460 -1.3824 -0.3470
 3246SOL     OW22210   7.284   2.256   8.838  0.3320 -0.0144  0.4839
 3246SOL    HW122211   7.290   2.346   8.880 -1.1860 -0.0059  0.6767
 3246SOL    HW222212   7.243   2.264   8.747  2.3602 -0.2119 -0.4812
 3247SOL     OW22213   1.366   8.007   2.550 -0.2800  0.4883 -0.4525
 3247SOL    HW122214   1.310   8.059   2.614 -0.5974 -1.0076  0.5027
 3247SOL    HW222215   1.308   7.949   2.493  0.1301  0.6022 -0.9999
 3248SOL     OW22216   0.395   5.166   3.774  0.3386 -0.2932  0.0566
 3248SOL    HW122217   0.490   5.133   3.771  0.1069 -0.9355 -0.3271
 3248SOL    HW222218   0.388   5.240   3.841  1.2244  0.1172 -0.2835
 3249SOL     OW22219   6.258   3.666   6.488  0.1636 -0.7675  0.3056
 3249SOL    HW122220   6.237   3.706   6.398 -0.3976 -0.1273  0.7205
 3249SOL    HW222221   6.343   3.704   6.522 -1.1425  1.2475  1.3906
 3250SOL     OW22222   2.491   6.019   0.017 -0.2196  0.0467 -0.4008
 3250SOL    HW122223   2.502   6.061  -0.073 -0.8017  2.7869  0.7319
 3250SOL    HW222224   2.560   6.057   0.080 -1.1345 -0.2530  0.8063
 3251SOL     OW22225   1.490   5.361   3.176 -0.0478 -0.1561 -0.2838
 3251SOL    HW122226   1.453   5.415   3.101 -2.4118 -0.1842  0.8323
 3251SOL    HW222227   1.417   5.308   3.219  1.0476  0.6968  2.7544
 3252SOL     OW22228   0.006   6.261   3.362  0.8452  0.4330 -0.1474
 3252SOL    HW122229   0.093   6.227   3.397  0.2059 -1.7181 -0.5570
 3252SOL    HW222230  -0.004   6.235   3.266 -1.4379 -1.8358  0.6358
 3253SOL     OW22231   3.758   6.307   3.028  0.0384  0.0189  0.3308
 3253SOL    HW122232   3.775   6.274   3.121  1.7137 -0.3827 -0.0927
 3253SOL    HW222233   3.753   6.406   3.028 -0.7191 -0.0193  0.9652
 3254SOL     OW22234   1.757   3.127   6.095 -0.2030  0.0898 -0.7811
 3254SOL    HW122235   1.780   3.091   6.005  2.0018 -1.1162  0.2220
 3254SOL    HW222236   1.799   3.217   6.107 -0.5993  0.3051 -0.9926
 3255SOL     OW22237   2.167   4.099   0.372 -0.5138 -0.2538  0.0868
 3255SOL    HW122238   2.238   4.030   0.358 -0.5504 -0.5710  1.4030
 3255SOL    HW222239   2.081   4.053   0.395 -1.0980  0.1367 -1.2468
 3256SOL     OW22240   5.897   4.051   5.009  0.3651  0.3505  0.7046
 3256SOL    HW122241   5.948   4.133   4.982  1.1000 -0.0041  0.9849
 3256SOL    HW222242   5.870   4.000   4.928  1.4429 -0.0379  0.5725
 3257SOL     OW22243   4.055   1.400   4.731  0.3820  0.6117  0.6389
 3257SOL    HW122244   4.090   1.483   4.774 -0.7508  0.7699  1.2483
 3257SOL    HW222245   4.122   1.326   4.745  0.8424  1.1087  1.1254
 3258SOL     OW22246   7.297   0.102   6.898 -0.4799 -0.6394 -0.6326
 3258SOL    HW122247   7.341   0.137   6.981  1.1818 -0.7230 -1.4610
 3258SOL    HW222248   7.337   0.013   6.875 -0.7835 -0.5175 -1.6399
 3259SOL     OW22249   3.780   1.643   3.287  0.7995  0.0144  0.0750
 3259SOL    HW122250   3.819   1.585   3.358 -0.1272 -0.7884 -0.0529
 3259SOL    HW222251   3.704   1.696   3.324 -0.8255 -1.7125 -0.7034
 3260SOL     OW22252   4.622   0.329   5.827  0.5807 -0.0064 -0.3340
 3260SOL    HW122253   4.551   0.359   5.891  0.9560 -0.3832  0.2701
 3260SOL    HW222254   4.677   0.408   5.800  0.6998  0.0810  0.1582
 3261SOL     OW22255   3.532   4.840   6.581  0.0835 -0.3881 -0.4713
 3261SOL    HW122256   3.497   4.755   6.621 -0.1623  0.4525  1.1595
 3261SOL    HW222257   3.632   4.840   6.589  0.0609 -0.3801 -0.1576
 3262SOL     OW22258   2.654   8.105   2.945 -0.5437 -0.2479  0.1623
 3262SOL    HW122259   2.681   8.075   2.853  1.8274 -1.3815  1.1730
 3262SOL    HW222260   2.555   8.121   2.947 -0.3943  1.4453 -3.0103
 3263SOL     OW22261   8.296   5.268   7.296 -0.7903 -0.6285 -0.3449
 3263SOL    HW122262   8.253   5.271   7.386  0.1031 -1.2301  0.1148
 3263SOL    HW222263   8.242   5.210   7.235 -1.4386 -0.1588 -0.2216
 3264SOL     OW22264   5.394   6.270   1.369  0.8718 -0.0901  0.1690
 3264SOL    HW122265   5.415   6.344   1.304 -0.8245 -0.6894 -1.0886
 3264SOL    HW222266   5.355   6.193   1.320  1.3972 -1.3321  1.6672
 3265SOL     OW22267   3.815   8.593   2.932  0.8058  0.1186 -0.5243
 3265SOL    HW122268   3.901   8.641   2.949  1.4556 -1.7278  1.8034
 3265SOL    HW222269   3.738   8.655   2.948  1.6797  1.3463 -1.0431
 3266SOL     OW22270   1.800   0.716   7.613 -0.4869  0.9308 -0.0047
 3266SOL    HW122271   1.759   0.625   7.608  2.0432 -0.2286 -0.5268
 3266SOL    HW222272   1.793   0.751   7.707 -3.3678  1.1319 -0.2779
 3267SOL     OW22273   7.855   4.877   1.330 -0.4059  0.0735 -0.6148
 3267SOL    HW122274   7.801   4.867   1.246 -0.8784  0.2427 -0.3317
 3267SOL    HW222275   7.796   4.865   1.410  0.1136 -0.4553 -0.3039
 3268SOL     OW22276   7.645   8.326   8.618 -0.1314  0.0846 -0.6335
 3268SOL    HW122277   7.680   8.293   8.531 -0.7814  0.5146 -1.0583
 3268SOL    HW222278   7.550   8.296   8.629 -0.3399  0.8004 -0.4798
 3269SOL     OW22279   0.007   8.620   1.018 -0.2098 -0.3819  0.2940
 3269SOL    HW122280  -0.051   8.701   1.013  1.4744  0.8407 -0.0594
 3269SOL    HW222281   0.064   8.615   0.936  1.4536 -0.5455  1.4285
 3270SOL     OW22282   7.905   3.905   5.644 -0.0123 -0.3231  0.1337
 3270SOL    HW122283   7.867   3.846   5.715  2.3460 -1.3014  0.6527
 3270SOL    HW222284   7.942   3.848   5.570 -1.6307  0.6629 -1.4715
 3271SOL     OW22285   2.270   3.374   3.837  0.3911 -0.6437 -0.3638
 3271SOL    HW122286   2.243   3.279   3.822  0.3028 -0.5147 -1.0069
 3271SOL    HW222287   2.349   3.396   3.781  0.4810 -0.3659 -0.1315
 3272SOL     OW22288   6.143   5.127   5.811  0.5873  1.0070 -0.2930
 3272SOL    HW122289   6.190   5.195   5.755 -0.7637  1.2388 -1.1790
 3272SOL    HW222290   6.048   5.118   5.778  0.1227  0.3147  1.2315
 3273SOL     OW22291   3.215   8.448   7.122  0.0270  0.4127 -0.0025
 3273SOL    HW122292   3.123   8.487   7.122  0.9000  2.5206  1.2575
 3273SOL    HW222293   3.273   8.501   7.060  1.3467  1.4587  2.0789
 3274SOL     OW22294   5.073   2.549   5.173  0.1594  0.1716 -0.1223
 3274SOL    HW122295   5.129   2.628   5.196  0.4390  0.2048 -0.8942
 3274SOL    HW222296   5.007   2.575   5.102 -0.0758 -0.1530 -0.0202
 3275SOL     OW22297   7.728   2.952   5.888  0.1699 -0.2623  0.7166
 3275SOL    HW122298   7.645   2.941   5.943 -0.9584 -0.2425 -0.9259
 3275SOL    HW222299   7.770   3.040   5.907 -0.7007  0.1141  0.8885
 3276SOL     OW22300   3.310   8.572   5.640  0.8237 -0.1954  0.2446
 3276SOL    HW122301   3.214   8.573   5.667  0.5210 -0.7890 -0.7688
 3276SOL    HW222302   3.366   8.542   5.717  0.3487  1.4790  1.2613
 3277SOL     OW22303   3.341   1.997   8.157 -0.3283  0.1766  0.6486
 3277SOL    HW122304   3.312   1.930   8.088 -0.4816  0.4545  0.4439
 3277SOL    HW222305   3.261   2.046   8.191 -0.3920 -0.6845  1.7900
 3278SOL     OW22306   3.341   5.100   7.042 -0.7450  0.6429 -0.2767
 3278SOL    HW122307   3.269   5.118   7.108 -1.6482 -2.4122 -0.3622
 3278SOL    HW222308   3.397   5.183   7.030 -0.4190  1.2480  4.4155
 3279SOL     OW22309   5.936   7.406   6.485  0.1266  0.3583  0.2143
 3279SOL    HW122310   5.938   7.494   6.437 -1.6443 -0.3941 -1.3145
 3279SOL    HW222311   6.029   7.372   6.495  0.8016  2.1796  0.4074
 3280SOL     OW22312   6.160   4.777   6.891  0.6562 -0.1923 -0.4269
 3280SOL    HW122313   6.122   4.794   6.800 -1.9058 -0.2040  0.5858
 3280SOL    HW222314   6.210   4.858   6.922 -1.1419  1.0034 -0.5731
 3281SOL     OW22315   8.249   7.633   5.666  0.1671 -0.1527  0.2957
 3281SOL    HW122316   8.315   7.638   5.590  1.0335 -0.5023  1.0151
 3281SOL    HW222317   8.299   7.631   5.752 -0.8395  0.9614  0.9168
 3282SOL     OW22318   5.212   6.621   6.199  0.5018  0.3924 -0.0602
 3282SOL    HW122319   5.225   6.589   6.105 -0.0908 -1.9162  0.6117
 3282SOL    HW222320   5.256   6.710   6.210 -0.6018  1.3597 -2.8965
 3283SOL     OW22321   8.585   1.740   6.147 -0.0480 -0.5091 -0.3938
 3283SOL    HW122322   8.647   1.686   6.090  0.9252  0.8276 -0.6163
 3283SOL    HW222323   8.638   1.794   6.212 -0.9681  0.7354 -0.6629
 3284SOL     OW22324   1.392   4.085   5.019  0.3888 -0.0483  0.1168
 3284SOL    HW122325   1.417   4.153   4.949  1.1826 -1.9428 -1.5027
 3284SOL    HW222326   1.466   4.079   5.087 -0.9587  2.7317  1.9067
 3285SOL     OW22327   4.273   0.459   2.936 -0.3100 -0.0098 -0.2527
 3285SOL    HW122328   4.233   0.514   3.010 -1.4091 -0.9601 -0.1136
 3285SOL    HW222329   4.335   0.516   2.882 -1.6550  1.4624 -0.3040
 3286SOL     OW22330   6.401   8.334   0.529 -1.0220 -0.0889 -0.4585
 3286SOL    HW122331   6.329   8.403   0.530 -0.0255  0.9758  0.3473
 3286SOL    HW222332   6.386   8.270   0.454 -1.2424  1.8139 -2.0715
 3287SOL     OW22333   1.661   2.353   8.855 -0.0550 -0.5528 -0.5096
 3287SOL    HW122334   1.618   2.264   8.875  0.8853 -0.1019  4.1670
 3287SOL    HW222335   1.591   2.424   8.853 -0.3280 -0.7808  0.4208
 3288SOL     OW22336   6.798   4.447   2.437 -0.1488 -0.0464  0.1300
 3288SOL    HW122337   6.838   4.362   2.402  1.2101  1.3080 -1.7645
 3288SOL    HW222338   6.706   4.459   2.400  0.3250  0.1400 -1.0114
 3289SOL     OW22339   6.674   7.648   3.516 -0.0796  0.8352  0.1696
 3289SOL    HW122340   6.679   7.662   3.615  2.1282 -0.1477  0.2285
 3289SOL    HW222341   6.759   7.606   3.484 -1.5387 -0.7186 -1.8482
 3290SOL     OW22342   6.631   4.205   6.920  0.3779  0.0811  0.0656
 3290SOL    HW122343   6.695   4.182   6.846 -2.5686 -1.9389 -1.9912
 3290SOL    HW222344   6.622   4.126   6.981 -0.9551 -0.0576 -0.2991
 3291SOL     OW22345   0.425   7.477   3.943  0.3031  0.1645 -0.2718
 3291SOL    HW122346   0.452   7.491   4.039 -0.6496  0.6495 -0.0678
 3291SOL    HW222347   0.348   7.413   3.940 -0.8594  1.5721 -0.5788
 3292SOL     OW22348   4.049   7.063   6.498  0.4470  0.2310 -0.0807
 3292SOL    HW122349   4.112   7.011   6.556  0.6136  1.0878  0.5116
 3292SOL    HW222350   3.992   7.122   6.555 -0.8429 -0.4718 -0.6150
 3293SOL     OW22351   4.559   1.260   0.201 -0.1173 -0.6471 -0.0174
 3293SOL    HW122352   4.475   1.270   0.255  0.4690 -0.7524  0.9410
 3293SOL    HW222353   4.541   1.203   0.121 -0.8829 -0.9683  0.3736
 3294SOL     OW22354   8.789   5.058   6.576 -0.2037  0.2808  0.1361
 3294SOL    HW122355   8.876   5.013   6.558 -0.5634 -0.2694 -0.2607
 3294SOL    HW222356   8.715   4.992   6.567 -0.6593  0.7382  0.5051
 3295SOL     OW22357   3.797   3.278   6.002 -0.4333 -0.2034  0.6261
 3295SOL    HW122358   3.710   3.273   6.050 -0.8424 -0.6771 -0.1559
 3295SOL    HW222359   3.821   3.187   5.968  0.2499 -0.0292  0.6353
 3296SOL     OW22360   4.186   8.457   6.006 -0.0376 -0.5480  0.4861
 3296SOL    HW122361   4.087   8.463   6.019 -0.2105  0.1769 -1.0191
 3296SOL    HW222362   4.225   8.397   6.076 -1.7277 -1.9482  0.2764
 3297SOL     OW22363   1.136   8.655   7.854  0.1365 -0.1611 -0.1932
 3297SOL    HW122364   1.103   8.675   7.947  0.9618 -1.6035  0.4458
 3297SOL    HW222365   1.068   8.600   7.806  0.2426 -0.4722  0.0098
 3298SOL     OW22366   4.003   0.923   7.811  0.0794  0.4032  0.1597
 3298SOL    HW122367   3.979   1.010   7.854 -1.1566  0.6080 -0.8952
 3298SOL    HW222368   4.047   0.941   7.723  2.4199 -0.0070  1.2359
 3299SOL     OW22369   5.612   0.258   3.858 -0.2444  0.6237  0.1558
 3299SOL    HW122370   5.548   0.262   3.935 -0.3230  1.7847  0.0370
 3299SOL    HW222371   5.562   0.258   3.772 -0.1462 -0.4261  0.0920
 3300SOL     OW22372   7.575   7.374   2.971  0.3967 -0.0685 -0.2808
 3300SOL    HW122373   7.580   7.365   2.871 -0.3961  0.5938 -0.3868
 3300SOL    HW222374   7.488   7.339   3.004  1.8479 -3.1061  0.5436
 3301SOL     OW22375   1.285   6.069   2.412  0.2207 -0.1039  0.1837
 3301SOL    HW122376   1.329   6.040   2.496  2.4740 -0.6738 -1.1659
 3301SOL    HW222377   1.312   6.163   2.391  2.8669 -1.2533 -1.9202
 3302SOL     OW22378   1.166   7.387   6.048  0.7182 -0.2125  0.3887
 3302SOL    HW122379   1.104   7.390   6.126 -0.0824 -0.6763 -0.2106
 3302SOL    HW222380   1.163   7.296   6.007  2.0170 -0.3215  0.5180
 3303SOL     OW22381   3.570   5.841   5.649  0.3451 -0.3417  0.3169
 3303SOL    HW122382   3.498   5.784   5.611 -0.3970  1.1837 -0.6448
 3303SOL    HW222383   3.565   5.841   5.749  0.4244 -2.0094  0.3228
 3304SOL     OW22384   5.066   4.543   2.269  0.1425  0.6701  0.0071
 3304SOL    HW122385   5.101   4.576   2.182  2.0205  0.5967  0.7113
 3304SOL    HW222386   4.980   4.493   2.255  2.0188 -2.0578 -2.1671
 3305SOL     OW22387   7.021   4.417   1.816  0.6222  0.4023 -0.6232
 3305SOL    HW122388   7.055   4.438   1.907  2.2888 -0.0396 -1.1196
 3305SOL    HW222389   6.941   4.473   1.795  0.6348  0.9656  0.8452
 3306SOL     OW22390   4.275   2.249   6.405 -0.1569  0.0562 -0.2101
 3306SOL    HW122391   4.249   2.332   6.356 -0.7723  0.3769  0.6457
 3306SOL    HW222392   4.225   2.171   6.367 -1.0787  0.3966  0.2725
 3307SOL     OW22393   5.318   3.309   8.389 -0.3774  0.6216  0.0581
 3307SOL    HW122394   5.314   3.216   8.353 -2.7883  0.7009  0.0386
 3307SOL    HW222395   5.313   3.306   8.489  3.2296  0.5709  0.3011
 3308SOL     OW22396   7.366   2.906   7.876 -0.2541 -0.2297 -0.9615
 3308SOL    HW122397   7.347   2.998   7.911  2.2775 -0.0284 -0.0359
 3308SOL    HW222398   7.447   2.909   7.817 -0.8240 -1.6700 -1.8318
 3309SOL     OW22399   5.650   4.786   6.809  0.6121  0.1438 -0.0053
 3309SOL    HW122400   5.573   4.723   6.809  0.8678 -0.1671  0.3958
 3309SOL    HW222401   5.669   4.815   6.715  0.7455 -0.6804 -0.2352
 3310SOL     OW22402   2.432   1.040   6.938  0.1620 -0.2508 -0.0349
 3310SOL    HW122403   2.423   0.944   6.966  0.8110 -0.9157 -1.9761
 3310SOL    HW222404   2.508   1.082   6.987  0.3119 -0.9417  0.3337
 3311SOL     OW22405   2.341   6.458   0.539  0.2050 -0.4355 -0.4605
 3311SOL    HW122406   2.311   6.496   0.452 -1.8682  0.4816  0.6046
 3311SOL    HW222407   2.321   6.360   0.542  0.9440 -0.6110 -1.2873
 3312SOL     OW22408   4.652   0.166   6.330 -0.2914  0.0704  0.1526
 3312SOL    HW122409   4.661   0.178   6.231 -0.4873  0.7501  0.2109
 3312SOL    HW222410   4.677   0.073   6.356  1.1080  0.2911 -0.3754
 3313SOL     OW22411   6.439   2.557   2.622 -0.1758  0.1796  0.4327
 3313SOL    HW122412   6.366   2.606   2.573  0.1181  2.2283  1.9625
 3313SOL    HW222413   6.466   2.610   2.702  2.9500 -0.6112 -0.0485
 3314SOL     OW22414   5.201   8.472   3.532 -0.0537  0.6755 -0.4925
 3314SOL    HW122415   5.164   8.468   3.625  1.4085 -0.3322  0.0689
 3314SOL    HW222416   5.300   8.484   3.537  0.4806 -2.6173 -1.8637
 3315SOL     OW22417   7.137   7.453   2.638  0.7633  0.0090 -0.0159
 3315SOL    HW122418   7.051   7.426   2.681  0.8113  1.3598  0.9692
 3315SOL    HW222419   7.119   7.499   2.551  0.3945  1.5468  0.8576
 3316SOL     OW22420   7.161   1.426   0.873 -0.2762 -0.2847  0.2981
 3316SOL    HW122421   7.173   1.502   0.809  0.1484 -1.3164 -0.8717
 3316SOL    HW222422   7.244   1.369   0.873 -1.8011 -2.5561 -1.2637
 3317SOL     OW22423   8.456   5.059   3.016  0.3875 -0.9191  0.2290
 3317SOL    HW122424   8.460   5.027   2.921  0.6748  0.5893 -0.2938
 3317SOL    HW222425   8.362   5.082   3.040  0.4685 -0.2439 -0.0732
 3318SOL     OW22426   7.899   7.538   3.342 -0.4217 -0.1050  0.0740
 3318SOL    HW122427   7.804   7.510   3.329 -0.4850  0.3764 -0.4974
 3318SOL    HW222428   7.927   7.519   3.436 -1.3227  0.4727  0.4598
 3319SOL     OW22429   8.774   6.613   3.149 -0.1421  0.0439  0.3257
 3319SOL    HW122430   8.693   6.606   3.207  0.6429 -0.2995  1.4104
 3319SOL    HW222431   8.838   6.678   3.188  1.4585 -1.9875  1.1900
 3320SOL     OW22432   3.137   7.524   3.338  0.1498 -0.2289 -0.1212
 3320SOL    HW122433   3.081   7.607   3.345 -1.0021 -0.8995 -1.1398
 3320SOL    HW222434   3.176   7.517   3.246  3.3140  1.0813  1.0482
 3321SOL     OW22435   3.214   5.748   6.558 -0.5077 -0.7581  0.1761
 3321SOL    HW122436   3.117   5.727   6.572 -0.3355 -0.9017  1.1919
 3321SOL    HW222437   3.228   5.846   6.570 -1.1394 -0.1285 -3.5833
 3322SOL     OW22438   1.923   3.385   4.956  0.0890 -0.1416  0.4431
 3322SOL    HW122439   1.906   3.286   4.956  0.9096 -0.2797  0.6616
 3322SOL    HW222440   1.895   3.422   4.867 -1.2693 -0.3848  0.7549
 3323SOL     OW22441   0.487   7.641   7.918 -0.9316  0.0246  0.1699
 3323SOL    HW122442   0.393   7.618   7.941 -0.9116  0.3249  0.5574
 3323SOL    HW222443   0.544   7.559   7.924 -1.0420 -0.0230  0.5921
 3324SOL     OW22444   3.971   4.475   6.509 -0.1623  0.7617  0.2740
 3324SOL    HW122445   3.985   4.383   6.545  0.3514  0.8206  0.2225
 3324SOL    HW222446   3.933   4.469   6.417  2.0496  0.5616 -0.6600
 3325SOL     OW22447   8.400   2.038   4.505 -0.9194  0.4808 -0.6136
 3325SOL    HW122448   8.457   2.030   4.586 -1.8494  0.6398  0.0658
 3325SOL    HW222449   8.427   1.968   4.438 -0.0798  0.4218 -0.2220
 3326SOL     OW22450   5.710   8.134   8.768 -0.0056 -0.7421 -0.0030
 3326SOL    HW122451   5.750   8.045   8.791 -0.6934 -1.1172 -0.2384
 3326SOL    HW222452   5.644   8.123   8.694  1.3358  0.2787 -1.3804
 3327SOL     OW22453   8.110   1.864   2.386  0.3371  0.4449 -0.1944
 3327SOL    HW122454   8.128   1.773   2.424 -0.6606 -0.5341 -2.0161
 3327SOL    HW222455   8.047   1.913   2.447 -0.9474 -0.9722 -0.3472
 3328SOL     OW22456   3.918   0.596   4.555  0.1332 -0.8448  0.0405
 3328SOL    HW122457   3.968   0.567   4.637  0.7116 -1.6672 -0.5975
 3328SOL    HW222458   3.826   0.557   4.557  0.0850 -0.7222  0.3774
 3329SOL     OW22459   0.234   8.791   6.435 -0.0466 -0.1875  0.0593
 3329SOL    HW122460   0.299   8.833   6.499  0.3035 -0.5158 -0.0768
 3329SOL    HW222461   0.187   8.715   6.480  0.4519 -0.6416 -0.1748
 3330SOL     OW22462   1.646   3.629   4.035  0.1737  0.5531 -0.2174
 3330SOL    HW122463   1.553   3.616   4.001  0.4654 -0.6383 -0.5802
 3330SOL    HW222464   1.655   3.585   4.124  0.5805  0.0919 -0.4878
 3331SOL     OW22465   5.463   3.903   5.360 -0.0711 -0.3355 -0.1149
 3331SOL    HW122466   5.443   3.968   5.287 -1.0365  0.4817  0.8719
 3331SOL    HW222467   5.382   3.848   5.379 -0.4681  0.8276  1.7188
 3332SOL     OW22468   4.318   3.440   6.905  0.1373  0.0101 -0.1667
 3332SOL    HW122469   4.273   3.416   6.819  2.0422 -2.7176 -0.4807
 3332SOL    HW222470   4.324   3.359   6.963  0.8712  1.3072  1.6099
 3333SOL     OW22471   1.787   2.033   0.450 -0.2586  0.6916  0.6947
 3333SOL    HW122472   1.821   1.998   0.362  0.9939  1.3491  0.9104
 3333SOL    HW222473   1.827   1.980   0.525  0.1099  1.3158  0.9411
 3334SOL     OW22474   3.208   8.915   1.394  0.2570 -0.5666  0.6318
 3334SOL    HW122475   3.286   8.914   1.457 -0.6045 -0.4142  1.7013
 3334SOL    HW222476   3.226   8.981   1.320  0.6197  0.3539  1.5279
 3335SOL     OW22477   4.281   1.825   6.262  0.0058 -0.1991  0.2935
 3335SOL    HW122478   4.255   1.844   6.357 -0.4563 -0.2671  0.1808
 3335SOL    HW222479   4.379   1.805   6.258  0.1816  0.5620  0.6464
 3336SOL     OW22480   4.054   5.614   6.114 -0.4107 -0.1959 -0.3880
 3336SOL    HW122481   3.979   5.679   6.122 -1.1673 -1.0148 -0.8151
 3336SOL    HW222482   4.129   5.657   6.063 -0.9077  0.3314 -0.6877
 3337SOL     OW22483   2.152   3.891   1.016 -0.4540  0.0294 -0.3321
 3337SOL    HW122484   2.151   3.794   1.040 -0.1051 -0.2417 -1.3774
 3337SOL    HW222485   2.124   3.902   0.920  1.3147  0.7912 -0.7768
 3338SOL     OW22486   0.776   7.557   6.826  0.0377 -0.4050  0.7538
 3338SOL    HW122487   0.840   7.546   6.902  0.3027  0.1678  0.6181
 3338SOL    HW222488   0.763   7.655   6.808  0.7140 -0.5448 -0.5543
 3339SOL     OW22489   5.652   5.503   2.735 -0.3809 -0.3707 -0.1829
 3339SOL    HW122490   5.652   5.583   2.676 -1.7814  0.1393  0.5050
 3339SOL    HW222491   5.714   5.434   2.697  2.1408  1.6682  0.0962
 3340SOL     OW22492   4.547   5.884   7.533  0.8169 -0.4913  0.0598
 3340SOL    HW122493   4.520   5.973   7.496 -1.3836 -0.9589  0.4871
 3340SOL    HW222494   4.635   5.894   7.580 -0.7183  2.1253  2.5410
 3341SOL     OW22495   2.814   2.364   1.795  0.2456 -0.3391 -0.2576
 3341SOL    HW122496   2.828   2.272   1.831  3.9140  0.2370 -0.0826
 3341SOL    HW222497   2.775   2.358   1.703 -0.3556 -2.0331  0.0923
 3342SOL     OW22498   1.434   4.862   2.661  0.2297  0.5074  0.1737
 3342SOL    HW122499   1.524   4.849   2.620 -1.5233 -0.7738 -3.4420
 3342SOL    HW222500   1.405   4.776   2.705  0.2632  0.5338  0.2468
 3343SOL     OW22501   8.599   6.093   3.233 -0.3636  0.2692 -0.1208
 3343SOL    HW122502   8.698   6.085   3.223 -0.4193  0.6264 -0.9475
 3343SOL    HW222503   8.554   6.053   3.154 -0.8626  0.7891 -0.1069
 3344SOL     OW22504   2.115   4.957   8.596 -0.1583 -0.6681 -0.2641
 3344SOL    HW122505   2.078   4.867   8.622 -0.8209 -0.6189 -1.0079
 3344SOL    HW222506   2.048   5.005   8.539 -0.1689  0.6500  0.8177
 3345SOL     OW22507   2.331   3.614   0.525  0.5272 -0.1474  0.2181
 3345SOL    HW122508   2.263   3.623   0.598  0.7093  3.2300  0.0886
 3345SOL    HW222509   2.420   3.642   0.559  0.7572  0.7312 -1.0703
 3346SOL     OW22510   4.465   4.666   5.906 -0.1980 -0.0291  0.2944
 3346SOL    HW122511   4.402   4.667   5.984  0.7112  0.9562  1.0363
 3346SOL    HW222512   4.541   4.604   5.925  0.3994  0.7587  0.5027
 3347SOL     OW22513   5.767   3.306   5.361  0.0514 -0.4749  0.2212
 3347SOL    HW122514   5.758   3.394   5.315 -0.8266 -1.3057 -1.2656
 3347SOL    HW222515   5.788   3.235   5.293  0.8581 -1.3865  1.4068
 3348SOL     OW22516   1.369   8.592   1.732  0.5376 -0.0883  0.3624
 3348SOL    HW122517   1.386   8.497   1.705 -0.1389  0.2455 -1.2887
 3348SOL    HW222518   1.359   8.597   1.831 -0.3606 -1.8939  0.3819
 3349SOL     OW22519   4.772   6.144   3.505  0.3105  0.1143  0.1468
 3349SOL    HW122520   4.844   6.106   3.563 -0.0370 -2.7261 -1.1868
 3349SOL    HW222521   4.683   6.126   3.548  0.2474  1.1869  0.4635
 3350SOL     OW22522   8.244   1.926   8.573 -0.2336 -0.1382 -0.4559
 3350SOL    HW122523   8.323   1.937   8.513 -0.0756 -0.0214 -0.2268
 3350SOL    HW222524   8.179   1.862   8.531 -0.2786  0.1973 -0.9038
 3351SOL     OW22525   6.336   7.195   0.057  0.0823  0.3661  0.2625
 3351SOL    HW122526   6.317   7.237   0.145  1.2836  0.6869  0.3745
 3351SOL    HW222527   6.299   7.102   0.055 -0.0626  0.4088  1.0555
 3352SOL     OW22528   1.441   5.032   0.464  0.0490 -0.5609  0.5908
 3352SOL    HW122529   1.460   4.969   0.389  0.5377 -0.5422  0.6972
 3352SOL    HW222530   1.528   5.064   0.504 -0.1471  1.1127 -0.2512
 3353SOL     OW22531   0.677   7.444   3.812 -0.4593  0.3257  0.1604
 3353SOL    HW122532   0.588   7.458   3.855 -1.0914  0.7476 -1.2410
 3353SOL    HW222533   0.691   7.514   3.742  0.4737 -0.4314 -0.4242
 3354SOL     OW22534   6.967   6.596   2.836 -0.2447  0.2507  0.2008
 3354SOL    HW122535   7.030   6.655   2.784  0.6069 -1.4109 -0.6871
 3354SOL    HW222536   6.875   6.605   2.798  0.0739  0.2481 -0.5933
 3355SOL     OW22537   2.182   1.835   4.924 -0.0686 -0.2287  0.4790
 3355SOL    HW122538   2.159   1.802   4.832  0.4006  3.5777 -1.1201
 3355SOL    HW222539   2.276   1.809   4.946  0.5571  0.6220 -1.0527
 3356SOL     OW22540   0.693   6.949   1.518 -0.3888  0.1062 -0.7510
 3356SOL    HW122541   0.711   7.041   1.552 -1.3987  0.2233 -0.5157
 3356SOL    HW222542   0.631   6.953   1.440  1.1007 -0.2408 -1.9784
 3357SOL     OW22543   1.147   3.296   4.868  0.0923 -0.0569 -0.1184
 3357SOL    HW122544   1.142   3.216   4.808  0.7651 -1.0509  1.1150
 3357SOL    HW222545   1.064   3.300   4.924 -0.3740  0.6617 -0.8637
 3358SOL     OW22546   6.804   8.373   3.312 -0.1162  0.4749 -0.1667
 3358SOL    HW122547   6.798   8.283   3.268 -0.9818 -0.1531  1.1650
 3358SOL    HW222548   6.717   8.421   3.301 -0.6825 -0.0852  1.6151
 3359SOL     OW22549   4.522   1.188   0.958 -0.1341 -0.5375  0.3463
 3359SOL    HW122550   4.452   1.210   0.891 -2.5001 -2.8107  2.0036
 3359SOL    HW222551   4.593   1.259   0.955 -2.1084  1.4625 -1.8363
 3360SOL     OW22552   2.239   6.491   8.824  0.1535  0.0678 -0.1321
 3360SOL    HW122553   2.173   6.560   8.852  0.6723  0.2694  0.6089
 3360SOL    HW222554   2.299   6.468   8.901  1.1887  0.1723 -0.8874
 3361SOL     OW22555   3.345   1.343   0.831  0.3120 -0.4598  0.8329
 3361SOL    HW122556   3.319   1.329   0.735 -0.8419  0.8111  0.9446
 3361SOL    HW222557   3.343   1.255   0.879 -0.6534 -0.8758  0.0513
 3362SOL     OW22558   8.493   3.057   8.575  0.6959 -0.1269  0.3055
 3362SOL    HW122559   8.538   3.063   8.486 -0.5549 -0.1675 -0.3361
 3362SOL    HW222560   8.498   2.962   8.608  1.0590 -0.1363  0.2276
 3363SOL     OW22561   1.310   7.043   6.225  0.3304 -0.0334 -0.0948
 3363SOL    HW122562   1.373   7.108   6.267 -1.0399  1.4667 -0.3344
 3363SOL    HW222563   1.231   7.029   6.284  1.5176 -2.9928  0.8501
 3364SOL     OW22564   3.063   8.970   7.253 -0.2859  0.0948 -0.0555
 3364SOL    HW122565   3.128   9.038   7.286  0.7616 -0.9592  0.1071
 3364SOL    HW222566   3.110   8.906   7.193 -0.7749 -1.6818  1.3894
 3365SOL     OW22567   6.232   5.482   5.979  0.4912 -0.4313 -0.2974
 3365SOL    HW122568   6.261   5.549   6.047  0.1841 -1.5366  0.9492
 3365SOL    HW222569   6.290   5.401   5.984  0.1740 -0.7130 -1.0308
 3366SOL     OW22570   8.373   4.209   4.602 -0.0518  0.0624  0.2088
 3366SOL    HW122571   8.389   4.121   4.646 -1.2798 -0.6344 -0.7148
 3366SOL    HW222572   8.276   4.232   4.608 -0.1436  0.2345 -1.5819
 3367SOL     OW22573   0.650   5.329   2.788  0.4129 -0.0111 -0.1202
 3367SOL    HW122574   0.572   5.392   2.791  0.8441  0.5008  0.8250
 3367SOL    HW222575   0.641   5.261   2.861  0.5191 -0.3458 -0.4203
 3368SOL     OW22576   2.153   5.977   1.177  0.0039 -0.6556  0.0332
 3368SOL    HW122577   2.250   5.958   1.194 -0.0647 -0.5499  0.5515
 3368SOL    HW222578   2.112   5.901   1.127 -0.1423 -1.6590  1.6273
 3369SOL     OW22579   3.872   6.110   3.222  0.3136 -0.8463 -0.4404
 3369SOL    HW122580   3.929   6.031   3.202 -1.9879 -2.1717 -2.1166
 3369SOL    HW222581   3.816   6.092   3.303 -0.5068 -1.1411 -1.0579
 3370SOL     OW22582   0.238   5.685   4.020 -0.1313 -0.3200  0.1499
 3370SOL    HW122583   0.141   5.690   3.996 -0.2913 -2.2825  0.2987
 3370SOL    HW222584   0.290   5.651   3.941  0.3890  0.3824  0.1880
 3371SOL     OW22585   6.953   7.150   4.564  0.4640 -0.1625 -0.2945
 3371SOL    HW122586   7.001   7.238   4.559  3.3258 -1.6962 -0.3135
 3371SOL    HW222587   6.923   7.134   4.658 -0.3124  0.9214 -0.3409
 3372SOL     OW22588   5.149   7.348   4.804 -0.0395 -0.7060 -0.5809
 3372SOL    HW122589   5.150   7.440   4.841 -1.4119 -0.6843 -0.5919
 3372SOL    HW222590   5.233   7.332   4.753  0.4280  0.3595 -0.1596
 3373SOL     OW22591   5.222   8.877   6.609  0.4821 -0.2333  0.8119
 3373SOL    HW122592   5.253   8.837   6.522  1.1867  1.6220  0.1906
 3373SOL    HW222593   5.122   8.875   6.613  0.4824 -1.6294  0.6049
 3374SOL     OW22594   4.174   3.703   0.855  0.0213 -0.1044  0.0284
 3374SOL    HW122595   4.100   3.705   0.922 -0.6407 -1.4987 -0.6471
 3374SOL    HW222596   4.166   3.782   0.794  0.4484  1.0034  1.3969
 3375SOL     OW22597   7.342   4.750   3.675  0.2309  0.4687 -0.3758
 3375SOL    HW122598   7.301   4.792   3.594 -0.3615  0.2295 -0.2041
 3375SOL    HW222599   7.441   4.745   3.664  0.2051  0.9506 -0.8442
 3376SOL     OW22600   3.353   0.163   2.155  0.1030  0.3783  0.1401
 3376SOL    HW122601   3.300   0.238   2.193 -0.0108  1.2887 -1.7542
 3376SOL    HW222602   3.444   0.162   2.196 -0.3124  0.7598  1.0904
 3377SOL     OW22603   2.317   4.211   1.014  0.0776 -0.1773 -0.3457
 3377SOL    HW122604   2.410   4.178   1.005 -0.4920 -1.4732 -1.6803
 3377SOL    HW222605   2.254   4.144   0.975 -1.4411  0.5153  0.8546
 3378SOL     OW22606   1.596   0.477   0.181  0.1271  0.6118  1.0957
 3378SOL    HW122607   1.692   0.449   0.181 -0.5727 -1.9455  2.3505
 3378SOL    HW222608   1.574   0.520   0.093  1.2996 -3.0085 -1.1031
 3379SOL     OW22609   0.333   1.536   5.317 -0.0887  0.1077  0.2014
 3379SOL    HW122610   0.301   1.479   5.242  1.1468  0.7573 -0.8375
 3379SOL    HW222611   0.322   1.487   5.404  2.9771 -2.6649 -0.8588
 3380SOL     OW22612   7.478   4.466   3.451  0.3001  0.3468  0.2930
 3380SOL    HW122613   7.569   4.492   3.418  0.2104 -0.6024 -0.7168
 3380SOL    HW222614   7.487   4.408   3.532  0.5842  0.2956  0.2238
 3381SOL     OW22615   6.888   2.766   1.878 -0.3691  0.6715 -0.1561
 3381SOL    HW122616   6.808   2.826   1.887  0.4943  1.6869  0.7461
 3381SOL    HW222617   6.922   2.742   1.968 -0.5946 -1.0546 -0.5118
 3382SOL     OW22618   4.570   4.260   8.052  0.2615  0.0407  0.0753
 3382SOL    HW122619   4.617   4.211   8.126 -1.4098 -0.9728  0.4806
 3382SOL    HW222620   4.473   4.270   8.075  0.3021  2.4084 -0.6062
 3383SOL     OW22621   2.824   1.872   2.811 -0.1075  0.0909 -0.3993
 3383SOL    HW122622   2.764   1.817   2.869  0.7632 -0.5693 -0.1180
 3383SOL    HW222623   2.901   1.816   2.780  1.5864  1.5194  1.0939
 3384SOL     OW22624   3.133   5.390   6.122 -0.2384 -0.0147 -0.4229
 3384SOL    HW122625   3.112   5.466   6.059 -0.1850  0.3222 -0.0354
 3384SOL    HW222626   3.122   5.303   6.074 -1.5539  0.1864 -0.5096
 3385SOL     OW22627   0.327   6.206   3.335  0.2881  0.0144 -0.1093
 3385SOL    HW122628   0.281   6.197   3.247 -0.7467 -0.2321  0.4435
 3385SOL    HW222629   0.426   6.198   3.323  0.2992  2.0528 -1.5099
 3386SOL     OW22630   8.957   1.771   0.656  0.1411  0.1119  0.0324
 3386SOL    HW122631   8.908   1.858   0.657 -0.3805 -0.1874  0.2534
 3386SOL    HW222632   8.955   1.730   0.747  1.5001  0.4867  0.2479
 3387SOL     OW22633   2.555   1.978   7.212 -0.3357 -0.0073 -0.8244
 3387SOL    HW122634   2.529   1.916   7.286 -0.2317  1.0282  0.1028
 3387SOL    HW222635   2.651   1.965   7.189  0.0552  0.7524  0.3216
 3388SOL     OW22636   3.946   8.240   3.262  0.0876  0.3168 -0.0222
 3388SOL    HW122637   3.981   8.181   3.335  1.0483  2.1713  1.0456
 3388SOL    HW222638   3.887   8.186   3.201  0.7228 -1.6688  1.0716
 3389SOL     OW22639   5.025   8.077   6.423 -0.2434 -0.0391  0.9132
 3389SOL    HW122640   4.946   8.134   6.446 -0.0601 -0.6608  3.1198
 3389SOL    HW222641   5.100   8.136   6.391 -0.1666  0.9454  2.8543
 3390SOL     OW22642   6.151   0.870   7.926 -0.0620  0.5797  0.2346
 3390SOL    HW122643   6.145   0.970   7.928  1.8992  0.7356  0.0640
 3390SOL    HW222644   6.109   0.832   8.009 -0.9050  1.5364  0.2536
 3391SOL     OW22645   8.442   7.543   6.822  0.3029 -0.5137  0.5328
 3391SOL    HW122646   8.410   7.582   6.736  0.8672  0.6618  0.8426
 3391SOL    HW222647   8.392   7.459   6.842  1.4030 -1.7884 -1.8394
 3392SOL     OW22648   4.216   7.350   2.112  0.1421  0.1269 -0.3381
 3392SOL    HW122649   4.219   7.385   2.018  0.6365 -1.6665 -1.0140
 3392SOL    HW222650   4.201   7.251   2.110  0.5707  0.0087  1.4744
 3393SOL     OW22651   1.220   5.892   5.659  0.4953  0.5329 -0.7618
 3393SOL    HW122652   1.197   5.969   5.600 -1.4496  1.9491  1.7547
 3393SOL    HW222653   1.137   5.840   5.680  1.7209 -2.0307 -2.1068
 3394SOL     OW22654   2.384   6.920   2.206  0.3432 -0.1373  0.6216
 3394SOL    HW122655   2.340   7.007   2.182  0.1129 -0.7634 -1.3646
 3394SOL    HW222656   2.315   6.856   2.240  0.1585 -0.2356  0.0664
 3395SOL     OW22657   8.768   3.702   1.092  0.3979  0.2168  0.5352
 3395SOL    HW122658   8.779   3.796   1.060 -1.6813 -0.0539 -0.9979
 3395SOL    HW222659   8.815   3.639   1.030 -0.5268  0.0148  0.0314
 3396SOL     OW22660   6.356   3.436   8.333 -0.0496  0.0739 -0.2485
 3396SOL    HW122661   6.275   3.484   8.301  0.8391  1.4265 -0.5064
 3396SOL    HW222662   6.423   3.432   8.259  0.4032 -0.4043  0.1831
 3397SOL     OW22663   5.052   0.069   3.170 -0.0948 -0.2353  0.0489
 3397SOL    HW122664   5.006  -0.016   3.145 -1.6444  0.4918  0.3538
 3397SOL    HW222665   5.040   0.136   3.097 -1.2145  0.5960  0.9813
 3398SOL     OW22666   1.790   6.796   1.212 -0.1376  0.0361 -0.1210
 3398SOL    HW122667   1.883   6.760   1.222  0.3267  0.2705 -3.1434
 3398SOL    HW222668   1.780   6.877   1.271  2.0830  0.8913 -0.8466
 3399SOL     OW22669   6.921   5.356   2.651  0.7382  0.1825  0.8610
 3399SOL    HW122670   6.869   5.345   2.736  0.6026  0.0530  0.7629
 3399SOL    HW222671   6.859   5.386   2.578  0.3186 -2.2541  0.1637
 3400SOL     OW22672   2.753   0.741   7.226  0.0762 -0.2367 -0.9274
 3400SOL    HW122673   2.716   0.654   7.193  0.7713 -1.0116  0.3000
 3400SOL    HW222674   2.849   0.749   7.199 -0.4453  0.9164 -2.4842
 3401SOL     OW22675   5.780   5.994   6.837 -0.2519  0.1476  0.1198
 3401SOL    HW122676   5.870   5.951   6.847  0.1152  0.6419 -0.9761
 3401SOL    HW222677   5.730   5.951   6.762 -0.8489  0.0177  0.5864
 3402SOL     OW22678   0.292   7.170   7.433  0.2129  0.1240 -0.0400
 3402SOL    HW122679   0.373   7.112   7.450  0.6022  1.0689  1.3974
 3402SOL    HW222680   0.296   7.204   7.339  1.8137  0.6500  0.1917
 3403SOL     OW22681   8.951   4.938   4.178 -0.0477 -0.1097  0.4012
 3403SOL    HW122682   8.959   4.900   4.270 -1.6201  0.8101  0.9476
 3403SOL    HW222683   9.043   4.951   4.139  0.6558 -0.1670  1.9813
 3404SOL     OW22684   6.944   4.088   3.180 -0.3724  0.0701  0.1265
 3404SOL    HW122685   6.866   4.145   3.206 -0.7362  0.4813 -1.7618
 3404SOL    HW222686   6.917   3.992   3.182 -0.1608  0.0265  1.9657
 3405SOL     OW22687   2.804   6.410   1.894 -0.0663 -0.1749 -0.3069
 3405SOL    HW122688   2.790   6.386   1.990  1.9551  0.9728  0.3004
 3405SOL    HW222689   2.741   6.483   1.868 -0.8069 -0.6768  0.0586
 3406SOL     OW22690   5.118   0.626   2.751 -0.1147 -0.1273  0.1760
 3406SOL    HW122691   5.194   0.633   2.686  0.8517 -2.1381  1.0394
 3406SOL    HW222692   5.114   0.533   2.787 -0.5742  0.9389  3.0345
 3407SOL     OW22693   7.610   4.894   2.346  0.1746  0.0321  0.5389
 3407SOL    HW122694   7.620   4.813   2.289  0.6878  1.2283 -1.0918
 3407SOL    HW222695   7.686   4.899   2.411  0.8251 -0.1134 -0.2088
 3408SOL     OW22696   8.790   3.397   5.609 -0.4779 -0.3738  0.2163
 3408SOL    HW122697   8.709   3.341   5.594 -0.6561 -0.4749  1.5440
 3408SOL    HW222698   8.868   3.356   5.562 -1.2617 -0.0448 -1.4352
 3409SOL     OW22699   0.059   5.099   1.434 -0.1693  0.0259  1.4232
 3409SOL    HW122700   0.024   5.189   1.457  0.5895  0.5469  0.5405
 3409SOL    HW222701   0.065   5.089   1.335  0.8289 -0.5839  1.5411
 3410SOL     OW22702   3.167   0.543   7.074  0.4278  0.6911  0.0443
 3410SOL    HW122703   3.195   0.630   7.035  0.5785  0.2404 -0.8760
 3410SOL    HW222704   3.247   0.483   7.083  0.2505  0.4757  0.2083
 3411SOL     OW22705   1.904   7.960   3.738  0.4498 -0.7091 -0.2720
 3411SOL    HW122706   1.858   7.941   3.651 -0.2820 -0.4684  0.0604
 3411SOL    HW222707   1.951   8.048   3.732 -0.1577 -0.3770 -0.2025
 3412SOL     OW22708   5.944   3.879   5.745 -0.0909  0.0652  0.2711
 3412SOL    HW122709   5.868   3.944   5.751 -1.2473 -1.2926  0.5686
 3412SOL    HW222710   6.015   3.915   5.684 -1.1108  1.1871 -0.2584
 3413SOL     OW22711   4.118   4.933   4.837  0.2969  0.0604 -0.1308
 3413SOL    HW122712   4.023   4.965   4.841  0.4551  1.0939 -3.3349
 3413SOL    HW222713   4.180   5.011   4.846  0.8138 -0.3246 -0.3386
 3414SOL     OW22714   8.521   5.301   6.139  0.3440 -0.8595 -0.1200
 3414SOL    HW122715   8.436   5.279   6.091 -0.1361 -1.1097  0.8431
 3414SOL    HW222716   8.512   5.279   6.236  0.9272  0.6669  0.3027
 3415SOL     OW22717   3.530   4.417   1.592  0.3980 -0.7812  0.0851
 3415SOL    HW122718   3.573   4.391   1.679  1.1962 -1.7534 -0.5919
 3415SOL    HW222719   3.556   4.352   1.521 -2.5564 -1.6608 -0.2555
 3416SOL     OW22720   4.427   4.445   2.640 -0.1423 -0.5112 -0.5407
 3416SOL    HW122721   4.483   4.499   2.577 -0.4382  0.9334  0.3943
 3416SOL    HW222722   4.334   4.483   2.642  0.4695  1.0226  2.5599
 3417SOL     OW22723   2.768   2.615   8.472 -0.5571  0.1172  0.3055
 3417SOL    HW122724   2.719   2.652   8.393 -1.4799 -0.1742  0.7375
 3417SOL    HW222725   2.767   2.515   8.469  3.0668  0.0577 -1.5541
 3418SOL     OW22726   8.194   6.161   0.007 -0.6960 -0.2543  0.1330
 3418SOL    HW122727   8.268   6.174   0.072  0.0060 -0.6976 -0.5641
 3418SOL    HW222728   8.168   6.249  -0.033  0.0631 -0.2176 -0.2787
 3419SOL     OW22729   6.460   5.195   6.824  0.3683  0.3554 -0.4444
 3419SOL    HW122730   6.367   5.177   6.858  0.3042  0.5513 -0.5138
 3419SOL    HW222731   6.455   5.257   6.746  0.5345  0.1024 -0.6574
 3420SOL     OW22732   2.231   0.403   1.832  0.8407  0.0372  0.1621
 3420SOL    HW122733   2.216   0.357   1.920 -0.0023 -0.9020 -0.4549
 3420SOL    HW222734   2.162   0.473   1.818  1.0292  0.2478  0.2930
 3421SOL     OW22735   6.834   4.795   3.261  0.5500  0.0612  0.1838
 3421SOL    HW122736   6.823   4.702   3.227  0.6216 -0.0424  0.4507
 3421SOL    HW222737   6.814   4.860   3.187  0.8786 -0.1703 -0.1073
 3422SOL     OW22738   0.670   8.039   3.044  0.3803  0.2642  0.1525
 3422SOL    HW122739   0.675   7.986   3.129 -0.8108 -0.7486 -0.3858
 3422SOL    HW222740   0.666   8.136   3.064  3.0490  0.2000  1.1592
 3423SOL     OW22741   8.785   1.901   2.774 -0.1720 -0.3317 -0.4328
 3423SOL    HW122742   8.777   1.858   2.863  2.2834  2.6425  1.3307
 3423SOL    HW222743   8.847   1.847   2.716  1.2711 -0.3020  1.0484
 3424SOL     OW22744   3.216   3.535   2.291 -0.1075  0.4567  0.0558
 3424SOL    HW122745   3.257   3.626   2.299  1.0344  0.2592 -2.8687
 3424SOL    HW222746   3.122   3.537   2.324  0.3041  2.3945  1.1750
 3425SOL     OW22747   8.608   4.581   4.110 -0.3825  0.2027 -0.6402
 3425SOL    HW122748   8.614   4.676   4.079  0.2835  1.1591  2.2437
 3425SOL    HW222749   8.681   4.527   4.068 -1.0162  0.8452 -2.6152
 3426SOL     OW22750   5.690   2.446   2.025 -0.1599  0.2464  0.1177
 3426SOL    HW122751   5.608   2.423   1.973 -0.2168  1.8553 -0.5442
 3426SOL    HW222752   5.713   2.371   2.087 -0.4252 -1.4852 -1.8179
 3427SOL     OW22753   2.415   2.594   1.028  0.6242 -0.1233 -0.1251
 3427SOL    HW122754   2.336   2.540   1.055 -0.0466 -0.0600 -1.8409
 3427SOL    HW222755   2.471   2.541   0.964  2.2570 -0.3558  1.4691
 3428SOL     OW22756   2.402   1.564   1.883 -0.0225  0.5442  0.0683
 3428SOL    HW122757   2.358   1.552   1.793  1.2222 -0.6828 -0.3901
 3428SOL    HW222758   2.362   1.643   1.929 -1.3532  0.6079 -1.1632
 3429SOL     OW22759   2.250   4.886   4.320 -0.2885 -0.1393  0.7633
 3429SOL    HW122760   2.315   4.810   4.323 -0.7302 -0.6265 -1.3951
 3429SOL    HW222761   2.293   4.969   4.357  0.1763 -1.4127  3.2008
 3430SOL     OW22762   8.396   4.723   5.682 -0.3998  0.6690  0.0678
 3430SOL    HW122763   8.494   4.708   5.692 -0.4130  1.1899  1.0499
 3430SOL    HW222764   8.364   4.782   5.756 -1.7345 -0.7573  0.6537
 3431SOL     OW22765   6.921   0.185   6.479  0.0820  0.0644 -0.2807
 3431SOL    HW122766   7.006   0.134   6.491  0.5923  0.2389 -2.8199
 3431SOL    HW222767   6.843   0.127   6.503  0.8040 -0.8838 -0.2044
 3432SOL     OW22768   2.246   5.179   6.091 -0.2431  0.4944  0.1429
 3432SOL    HW122769   2.332   5.230   6.088 -0.7343  1.4006  1.1386
 3432SOL    HW222770   2.186   5.218   6.162 -1.0555 -0.7848  0.1789
 3433SOL     OW22771   1.718   7.936   6.227  0.0137  0.0321  0.7711
 3433SOL    HW122772   1.758   7.945   6.135  1.9340 -1.9627  1.3643
 3433SOL    HW222773   1.630   7.984   6.230  2.0893  4.1177 -0.7315
 3434SOL     OW22774   5.230   4.301   3.412 -0.0177 -0.0810  0.1073
 3434SOL    HW122775   5.282   4.285   3.328  1.4116  0.4523  0.8772
 3434SOL    HW222776   5.293   4.321   3.487 -1.3654  0.9651  0.9759
 3435SOL     OW22777   3.046   2.446   0.086 -0.0294  0.1271 -0.3032
 3435SOL    HW122778   3.145   2.431   0.089  0.2584  1.6326 -1.5841
 3435SOL    HW222779   3.019   2.505   0.162  0.2606  0.8177 -0.7355
 3436SOL     OW22780   3.444   1.873   4.451 -0.6100  0.0358  0.1640
 3436SOL    HW122781   3.502   1.940   4.498  0.1907 -1.5216  1.4404
 3436SOL    HW222782   3.349   1.883   4.481 -0.7624  1.5428 -0.7490
 3437SOL     OW22783   0.863   1.025   7.934 -0.3193 -0.6167  0.1513
 3437SOL    HW122784   0.893   1.080   7.856 -1.6368 -0.4724 -0.2777
 3437SOL    HW222785   0.813   1.082   7.998 -0.2604 -0.9759  0.5216
 3438SOL     OW22786   7.885   1.766   2.613  0.8214  0.5463  0.1882
 3438SOL    HW122787   7.850   1.693   2.673 -0.2751  0.7227 -0.2382
 3438SOL    HW222788   7.943   1.827   2.666  1.5237 -0.4808  0.6161
 3439SOL     OW22789   5.792   7.094   5.001 -0.4844  0.0568 -0.4459
 3439SOL    HW122790   5.707   7.099   5.055  0.3090  2.6708  0.6807
 3439SOL    HW222791   5.858   7.035   5.047 -0.2984  1.1980  0.7754
 3440SOL     OW22792   3.963   1.714   4.741 -0.2510 -0.5321  0.0305
 3440SOL    HW122793   3.877   1.738   4.785 -0.8542 -0.2447 -1.2955
 3440SOL    HW222794   4.025   1.674   4.809 -0.3437  1.9312  1.6096
 3441SOL     OW22795   0.255   1.873   0.354 -0.4987  0.1283  0.2566
 3441SOL    HW122796   0.269   1.811   0.431 -0.1891  0.0344  0.1264
 3441SOL    HW222797   0.339   1.878   0.300 -0.6919  0.2478 -0.0349
 3442SOL     OW22798   0.864   4.235   1.990  0.0433  0.0725 -0.3075
 3442SOL    HW122799   0.886   4.326   2.024  3.3423 -0.8268  0.1532
 3442SOL    HW222800   0.814   4.185   2.061  1.2698  0.3663  0.7746
 3443SOL     OW22801   5.262   2.109   1.562 -0.4419  0.4940  0.7306
 3443SOL    HW122802   5.352   2.077   1.533 -1.1068 -0.3043 -0.5137
 3443SOL    HW222803   5.256   2.208   1.546 -0.3472  0.2810 -0.7406
 3444SOL     OW22804   1.527   0.532   8.508  0.1782  0.6158 -0.1023
 3444SOL    HW122805   1.453   0.515   8.575  0.2866 -0.4626 -0.2422
 3444SOL    HW222806   1.615   0.520   8.553  0.2540  0.3739 -0.3129
 3445SOL     OW22807   3.938   1.449   1.371 -0.2584  0.0685 -0.2565
 3445SOL    HW122808   3.901   1.541   1.359  0.6100  0.1962 -2.2202
 3445SOL    HW222809   4.024   1.454   1.422  0.0509  0.4127 -0.8046
 3446SOL     OW22810   2.958   7.020   2.637  0.3432 -0.2138 -0.5775
 3446SOL    HW122811   2.914   7.109   2.649 -0.0912 -0.4767 -0.2024
 3446SOL    HW222812   3.042   7.017   2.692 -0.5571 -0.6614  0.7961
 3447SOL     OW22813   3.363   7.918   2.671  0.0397  0.3993 -0.9174
 3447SOL    HW122814   3.336   7.875   2.585  0.7888  0.9857 -1.4446
 3447SOL    HW222815   3.455   7.956   2.663  0.9238 -1.2785  0.7548
 3448SOL     OW22816   4.738   2.019   1.545 -0.6419 -0.2251 -0.1730
 3448SOL    HW122817   4.655   2.023   1.600  0.1142  2.7043  0.8281
 3448SOL    HW222818   4.815   1.990   1.603 -0.5717 -0.9657 -0.6270
 3449SOL     OW22819   2.530   4.985   5.931 -0.4970  0.0134  0.0931
 3449SOL    HW122820   2.571   4.894   5.926  0.7998  0.5769  0.2033
 3449SOL    HW222821   2.432   4.977   5.950 -0.1863 -1.3135  1.1741
 3450SOL     OW22822   2.422   1.779   4.055  0.1852 -0.3259 -0.3632
 3450SOL    HW122823   2.341   1.820   4.097  0.8787 -0.1402  0.8429
 3450SOL    HW222824   2.504   1.814   4.100  0.8779 -1.6232 -0.5684
 3451SOL     OW22825   1.997   5.750   7.340  0.1169 -0.0904 -0.0925
 3451SOL    HW122826   1.943   5.825   7.302 -1.9915 -1.0069  1.0387
 3451SOL    HW222827   2.064   5.786   7.404 -0.5700  0.8700  0.0915
 3452SOL     OW22828   0.082   6.234   6.573 -0.3929  0.3728 -0.1837
 3452SOL    HW122829   0.041   6.258   6.485  0.2139 -0.4007 -0.6855
 3452SOL    HW222830   0.145   6.157   6.561  2.6463  2.6701  0.1718
 3453SOL     OW22831   8.778   4.544   8.551  0.1529  0.2540  0.1703
 3453SOL    HW122832   8.788   4.598   8.636  0.0264  2.1002 -0.9556
 3453SOL    HW222833   8.863   4.549   8.499 -0.0122 -0.2850 -0.1456
 3454SOL     OW22834   1.369   7.652   1.852 -0.0880  0.0188 -0.2446
 3454SOL    HW122835   1.460   7.680   1.823  0.4457 -1.0799  0.3536
 3454SOL    HW222836   1.303   7.673   1.780  0.4666  1.7717 -0.2645
 3455SOL     OW22837   7.016   2.484   1.406 -0.1246 -0.2890 -0.6093
 3455SOL    HW122838   7.091   2.544   1.378  0.3243 -1.7251 -2.6245
 3455SOL    HW222839   6.929   2.531   1.393  0.2840  0.4136 -0.8343
 3456SOL     OW22840   8.318   2.982   4.697 -0.0227  0.2696  0.6146
 3456SOL    HW122841   8.362   3.029   4.774 -0.3995  0.3270  0.7966
 3456SOL    HW222842   8.296   3.048   4.626 -0.3604  0.3365  0.7802
 3457SOL     OW22843   3.813   3.392   1.559 -0.1962 -0.1377  0.0791
 3457SOL    HW122844   3.749   3.462   1.526  1.1934  1.4989  0.7763
 3457SOL    HW222845   3.856   3.423   1.644  0.8764 -1.5912  0.0912
 3458SOL     OW22846   6.771   4.412   7.602  0.3974  0.1222  0.5157
 3458SOL    HW122847   6.801   4.376   7.513  0.5243  1.6579 -0.0825
 3458SOL    HW222848   6.695   4.356   7.636  1.7581 -1.7913  0.4834
 3459SOL     OW22849   7.139   6.275   2.414 -0.4068 -0.6297 -0.3531
 3459SOL    HW122850   7.130   6.176   2.421 -0.6475 -0.5737  0.1454
 3459SOL    HW222851   7.188   6.298   2.330  1.5000 -1.2467  0.5683
 3460SOL     OW22852   3.427   5.739   7.488  0.2187  0.3436 -0.0985
 3460SOL    HW122853   3.364   5.715   7.562  1.4725 -1.4210  0.4568
 3460SOL    HW222854   3.388   5.711   7.400 -0.4048  0.6006  0.0981
 3461SOL     OW22855   7.518   6.924   8.842 -0.7459  0.2272  0.4458
 3461SOL    HW122856   7.586   6.989   8.807 -1.9287  1.6517  0.7554
 3461SOL    HW222857   7.500   6.942   8.938 -0.3354 -1.2462  0.8257
 3462SOL     OW22858   6.534   8.717   5.929 -0.2867  0.3316 -0.3497
 3462SOL    HW122859   6.505   8.626   5.897 -0.9341  0.2206  0.5577
 3462SOL    HW222860   6.535   8.780   5.851  1.3037 -0.7198 -1.2198
 3463SOL     OW22861   6.553   4.566   5.700  0.7443  0.3206  0.2214
 3463SOL    HW122862   6.461   4.600   5.722  1.1578  1.8721 -0.4088
 3463SOL    HW222863   6.617   4.642   5.698  1.9661 -0.6935  0.1562
 3464SOL     OW22864   6.956   0.168   1.316 -0.1301 -0.2466 -0.4110
 3464SOL    HW122865   6.949   0.075   1.281 -1.8404  0.0238 -0.8223
 3464SOL    HW222866   6.949   0.233   1.240  3.3763  0.1998 -0.4318
 3465SOL     OW22867   0.076   6.955   4.979 -0.4463  0.0399  0.1482
 3465SOL    HW122868  -0.009   6.987   5.020 -0.9229 -0.1956 -0.6455
 3465SOL    HW222869   0.056   6.891   4.905  0.3997  0.2689 -0.2943
 3466SOL     OW22870   6.793   5.273   6.087  0.4671 -0.5623 -0.2001
 3466SOL    HW122871   6.834   5.305   6.172  0.1758 -0.2041 -0.1928
 3466SOL    HW222872   6.780   5.174   6.092  0.2240 -0.5112  0.2708
 3467SOL     OW22873   2.658   3.129   0.846  0.1508 -0.2498  0.1548
 3467SOL    HW122874   2.670   3.220   0.884  0.7535 -1.1126  2.1127
 3467SOL    HW222875   2.635   3.065   0.919  2.3253 -2.1694 -0.7646
 3468SOL     OW22876   6.673   7.696   7.423  0.5052 -0.4482 -0.3989
 3468SOL    HW122877   6.676   7.732   7.517  0.9699 -0.7212 -0.3081
 3468SOL    HW222878   6.666   7.772   7.359 -0.9790 -0.3095 -0.0931
 3469SOL     OW22879   1.055   7.513   8.885 -0.1428  0.4807 -0.3781
 3469SOL    HW122880   0.966   7.535   8.847  0.9156  2.7234 -1.6933
 3469SOL    HW222881   1.127   7.548   8.825  1.6146  0.0195  1.3720
 3470SOL     OW22882   2.082   4.239   1.467 -0.0052  0.3659 -0.3276
 3470SOL    HW122883   2.041   4.324   1.500 -1.1343 -0.3225  0.0862
 3470SOL    HW222884   2.128   4.191   1.542 -2.0197 -0.8819  0.1599
 3471SOL     OW22885   5.073   7.034   2.122  0.5392  0.2610  0.4073
 3471SOL    HW122886   5.070   7.057   2.025  0.8176  0.2292  0.3906
 3471SOL    HW222887   5.163   6.996   2.145  0.3814  0.0177  0.6210
 3472SOL     OW22888   6.135   0.063   3.517 -0.5673  0.6615 -0.2933
 3472SOL    HW122889   6.171   0.126   3.585  0.9833  1.6767 -1.9841
 3472SOL    HW222890   6.104  -0.021   3.561  0.2424  1.3693  1.6584
 3473SOL     OW22891   0.207   8.746   1.178  0.4444 -0.1310 -0.1991
 3473SOL    HW122892   0.288   8.707   1.135  0.9860  1.6128 -0.8074
 3473SOL    HW222893   0.126   8.698   1.145  1.1834 -1.5361  0.0082
 3474SOL     OW22894   8.925   5.689   5.740  0.3505 -0.4772  0.3928
 3474SOL    HW122895   8.936   5.689   5.640  1.8055 -0.7750  0.5419
 3474SOL    HW222896   8.904   5.782   5.771 -3.0181 -0.8840 -0.4628
 3475SOL     OW22897   1.497   5.305   4.279 -0.0283 -0.3779 -0.4713
 3475SOL    HW122898   1.500   5.264   4.371 -0.9250 -1.7366 -1.0330
 3475SOL    HW222899   1.579   5.279   4.228  0.6782  0.7276  0.0688
 3476SOL     OW22900   8.160   1.395   3.391  0.0857 -0.0190 -0.2621
 3476SOL    HW122901   8.102   1.319   3.363  0.9995 -0.6264 -0.5312
 3476SOL    HW222902   8.165   1.462   3.317  0.5147 -0.4328 -0.6046
 3477SOL     OW22903   6.858   5.647   1.299 -0.3445  0.6834 -0.0665
 3477SOL    HW122904   6.856   5.742   1.268 -0.9665  0.5599 -0.4031
 3477SOL    HW222905   6.936   5.634   1.360 -1.2565  1.8469  1.3947
 3478SOL     OW22906   5.697   3.043   1.902  0.1946 -0.2542 -0.3628
 3478SOL    HW122907   5.688   3.015   1.997 -1.7685  1.4193 -0.0104
 3478SOL    HW222908   5.637   2.987   1.844 -0.1498  0.0617 -0.3160
 3479SOL     OW22909   1.894   6.340   2.628 -0.0323 -0.4329 -0.4794
 3479SOL    HW122910   1.903   6.415   2.693 -2.1721  0.7780 -1.5271
 3479SOL    HW222911   1.804   6.344   2.584  0.3886 -2.7340 -1.6477
 3480SOL     OW22912   4.067   4.192   8.502 -0.0534  0.4611 -0.3634
 3480SOL    HW122913   3.970   4.211   8.517 -0.0319 -0.3230  0.8394
 3480SOL    HW222914   4.090   4.102   8.538  0.9991  0.3848 -1.1889
 3481SOL     OW22915   1.646   6.516   8.740 -0.5844 -0.1837  0.0265
 3481SOL    HW122916   1.626   6.531   8.837 -0.7723 -2.4308  0.3754
 3481SOL    HW222917   1.745   6.521   8.725 -0.5694  0.3462  0.3037
 3482SOL     OW22918   2.959   5.708   1.714  0.5453 -0.9326 -0.7150
 3482SOL    HW122919   3.022   5.768   1.664  0.8342  2.4846  3.4796
 3482SOL    HW222920   2.878   5.690   1.658  1.9278  0.7017 -3.3115
 3483SOL     OW22921   0.623   5.155   0.673  0.7984  1.0809  0.1492
 3483SOL    HW122922   0.571   5.071   0.658 -0.1390  1.9825 -1.7313
 3483SOL    HW222923   0.595   5.196   0.760 -1.8190  1.6697 -0.9369
 3484SOL     OW22924   7.766   2.253   5.817  0.1081  0.4351 -0.2005
 3484SOL    HW122925   7.860   2.222   5.810  0.0600 -0.0708  1.2469
 3484SOL    HW222926   7.764   2.350   5.843  0.2403  0.1393  0.9580
 3485SOL     OW22927   3.746   3.838   1.109  0.0351 -0.1701  0.0409
 3485SOL    HW122928   3.727   3.819   1.205 -1.5262  0.3719 -0.1420
 3485SOL    HW222929   3.662   3.870   1.064  1.3718  2.3588 -0.8050
 3486SOL     OW22930   1.086   2.429   5.744  0.1091  0.3178 -0.0977
 3486SOL    HW122931   1.039   2.396   5.826 -0.9951 -1.0507 -1.2566
 3486SOL    HW222932   1.088   2.529   5.745  1.0002  0.3170  2.0698
 3487SOL     OW22933   3.582   3.767   2.969  0.4707 -0.4211  0.0770
 3487SOL    HW122934   3.580   3.827   3.048 -2.6669  0.0999 -0.3458
 3487SOL    HW222935   3.651   3.801   2.904 -0.8184  2.4038  0.1075
 3488SOL     OW22936   3.590   8.509   4.082 -0.2106 -0.0616  0.4965
 3488SOL    HW122937   3.526   8.456   4.025 -2.4815  1.2977  1.6959
 3488SOL    HW222938   3.591   8.604   4.051  0.5167  0.1253  1.0900
 3489SOL     OW22939   3.485   4.325   7.822 -0.3121 -0.7914  0.4346
 3489SOL    HW122940   3.438   4.361   7.742  0.7156  0.0738  0.2121
 3489SOL    HW222941   3.568   4.379   7.840  0.8938 -2.6089  0.4977
 3490SOL     OW22942   2.782   1.691   8.037  0.2091  0.1530 -0.1701
 3490SOL    HW122943   2.861   1.632   8.049 -1.0474 -1.9635 -1.8414
 3490SOL    HW222944   2.707   1.658   8.095  0.6352  2.4018  1.7362
 3491SOL     OW22945   1.974   4.686   8.687  0.0505 -0.2664  0.4807
 3491SOL    HW122946   1.923   4.738   8.620  1.1098  1.0855  0.7068
 3491SOL    HW222947   1.925   4.601   8.708 -1.4115  0.3733 -0.2864
 3492SOL     OW22948   2.237   2.427   0.177  0.2013 -0.2882  0.0089
 3492SOL    HW122949   2.305   2.450   0.247 -0.9032 -0.4346  1.1442
 3492SOL    HW222950   2.172   2.361   0.214 -2.4091  2.2155 -0.0388
 3493SOL     OW22951   0.329   4.854   4.149  0.6743  0.3466 -0.9714
 3493SOL    HW122952   0.264   4.805   4.090 -0.1808 -1.2811  1.2608
 3493SOL    HW222953   0.372   4.789   4.212  2.1774  1.9282 -0.3427
 3494SOL     OW22954   8.222   4.738   8.632 -0.2668  0.1853 -0.1267
 3494SOL    HW122955   8.263   4.651   8.605 -0.0389  0.1706  0.2596
 3494SOL    HW222956   8.146   4.721   8.694  0.5670  0.3145  0.9458
 3495SOL     OW22957   7.804   8.598   0.752  0.0881 -0.1512  0.2442
 3495SOL    HW122958   7.713   8.584   0.713  0.1779 -0.0983  0.0140
 3495SOL    HW222959   7.824   8.524   0.817  0.0978 -0.4638 -0.1106
 3496SOL     OW22960   7.245   6.350   4.694  0.0422  0.2404  0.1292
 3496SOL    HW122961   7.166   6.330   4.635  0.0713 -1.2843  0.5945
 3496SOL    HW222962   7.303   6.269   4.702  1.8630  1.4573 -0.4831
 3497SOL     OW22963   3.433   3.704   8.447  0.0381  0.1131  0.1777
 3497SOL    HW122964   3.365   3.642   8.487  0.3633 -0.0862  0.4208
 3497SOL    HW222965   3.411   3.720   8.351 -1.9479  2.2332  0.9446
 3498SOL     OW22966   3.362   0.703   5.358  0.1447 -0.6048  0.2042
 3498SOL    HW122967   3.376   0.651   5.274 -0.1237 -1.9145  0.9549
 3498SOL    HW222968   3.275   0.751   5.354  0.5214  0.0280 -0.6099
 3499SOL     OW22969   1.705   6.495   5.282 -0.2690 -0.1881 -0.6319
 3499SOL    HW122970   1.776   6.475   5.349 -0.7554 -0.7702 -0.2877
 3499SOL    HW222971   1.628   6.539   5.328 -0.2635  0.1602 -0.9524
 3500SOL     OW22972   3.808   0.716   8.836  0.0903 -0.1675  0.8965
 3500SOL    HW122973   3.729   0.776   8.848  0.0795  0.2649 -1.0930
 3500SOL    HW222974   3.786   0.644   8.771  2.2095  1.6918 -2.0264
 3501SOL     OW22975   1.885   2.684   7.157  0.5096  0.0102  0.0733
 3501SOL    HW122976   1.787   2.666   7.163  0.4298  0.1340 -0.7263
 3501SOL    HW222977   1.906   2.720   7.066  1.3090 -0.1056  0.2091
 3502SOL     OW22978   7.561   4.506   6.239  0.0259 -0.1380  0.4075
 3502SOL    HW122979   7.535   4.525   6.144  0.2672 -2.2836 -0.1044
 3502SOL    HW222980   7.479   4.489   6.293 -0.0942  0.8304  0.5442
 3503SOL     OW22981   0.488   0.261   2.316 -0.0065 -0.1626  0.6368
 3503SOL    HW122982   0.531   0.273   2.227 -0.7964 -0.2826  0.2329
 3503SOL    HW222983   0.390   0.279   2.308  0.1523  1.3980  1.8029
 3504SOL     OW22984   5.503   6.918   1.287  0.5990  0.3236 -0.0016
 3504SOL    HW122985   5.415   6.918   1.335 -0.3017 -1.3938 -1.5701
 3504SOL    HW222986   5.491   6.958   1.196  1.7385  1.3242  0.2959
 3505SOL     OW22987   2.411   2.141   1.351 -0.1497 -0.3898 -0.3877
 3505SOL    HW122988   2.430   2.231   1.390 -2.0564 -0.5601  1.0429
 3505SOL    HW222989   2.456   2.132   1.262 -0.5200  2.2136 -0.8615
 3506SOL     OW22990   4.205   0.003   2.774  0.1055  0.4049 -0.3604
 3506SOL    HW122991   4.261   0.052   2.840  0.9371  0.6014 -1.1983
 3506SOL    HW222992   4.210   0.049   2.685 -0.3536 -0.3099 -0.7691
 3507SOL     OW22993   5.793   4.877   0.124 -0.2894  0.0218  0.4831
 3507SOL    HW122994   5.859   4.921   0.186 -0.6388  0.3062  0.6568
 3507SOL    HW222995   5.752   4.947   0.065  0.3786 -0.3122 -0.3876
 3508SOL     OW22996   0.856   0.586   7.779  0.3303 -0.1123  0.2375
 3508SOL    HW122997   0.776   0.646   7.778  0.3068 -0.1589 -0.4521
 3508SOL    HW222998   0.832   0.501   7.826  0.1688  0.1371  0.6140
 3509SOL     OW22999   8.267   4.747   6.306  0.3296 -0.4385  0.1568
 3509SOL    HW123000   8.347   4.800   6.278  1.9826 -1.6342  2.4383
 3509SOL    HW223001   8.217   4.797   6.376  1.0038 -1.1602  1.1690
 3510SOL     OW23002   1.668   6.562   2.927  0.4359  0.0504 -0.5588
 3510SOL    HW123003   1.702   6.632   2.991  0.3153  1.3342 -1.8737
 3510SOL    HW223004   1.601   6.603   2.865  0.2542 -1.2793 -1.2612
 3511SOL     OW23005   2.091   4.751   6.165  0.0783 -0.6981 -0.1169
 3511SOL    HW123006   2.025   4.693   6.212 -1.0866  1.6209  1.1946
 3511SOL    HW223007   2.075   4.747   6.067 -0.6441 -1.7841  0.0365
 3512SOL     OW23008   0.307   5.428   5.234 -0.0985 -0.0704 -0.2499
 3512SOL    HW123009   0.393   5.454   5.188 -0.1209 -2.8858 -2.0134
 3512SOL    HW223010   0.316   5.442   5.332  3.2892 -2.5386 -0.1106
 3513SOL     OW23011   5.395   0.035   8.277  0.3782 -0.1714  0.2693
 3513SOL    HW123012   5.349   0.118   8.245  1.1140  0.3703  0.6141
 3513SOL    HW223013   5.492   0.039   8.254  0.2942 -1.2320 -0.2890
 3514SOL     OW23014   2.824   5.355   7.422  0.4660  0.6894  0.2840
 3514SOL    HW123015   2.894   5.297   7.463  0.0242  0.1528  0.2718
 3514SOL    HW223016   2.764   5.391   7.494  0.1275  0.3205  0.1898
 3515SOL     OW23017   4.436   7.013   7.052 -0.5855 -0.3962 -0.2417
 3515SOL    HW123018   4.460   7.109   7.065  1.1010 -0.7426 -0.7615
 3515SOL    HW223019   4.349   7.008   7.002 -0.2898  0.8585 -0.9128
 3516SOL     OW23020   4.061   7.028   5.219  0.5163 -0.0895 -0.8286
 3516SOL    HW123021   4.064   6.934   5.252 -0.1408  0.2682  0.2714
 3516SOL    HW223022   3.975   7.044   5.171  1.0726 -0.3362 -1.9436
 3517SOL     OW23023   6.557   2.679   1.186  0.5720  0.2153 -0.0484
 3517SOL    HW123024   6.512   2.612   1.126  0.3666  0.1176  0.2156
 3517SOL    HW223025   6.611   2.743   1.130 -3.5347  3.1950 -0.8226
 3518SOL     OW23026   5.390   7.220   2.145  0.3418 -0.0568 -0.1872
 3518SOL    HW123027   5.313   7.270   2.106  1.1151  0.0400 -1.6366
 3518SOL    HW223028   5.471   7.233   2.088  0.9021 -1.8699  0.1372
 3519SOL     OW23029   7.406   4.636   0.505 -0.1220 -0.4299  0.7621
 3519SOL    HW123030   7.402   4.550   0.453 -0.1064  0.2032 -0.3061
 3519SOL    HW223031   7.313   4.672   0.517  0.0836  0.8685 -1.3042
 3520SOL     OW23032   7.431   0.481   6.351 -0.5739 -0.5662  0.2038
 3520SOL    HW123033   7.342   0.517   6.380 -1.0051  0.2576 -2.0317
 3520SOL    HW223034   7.417   0.396   6.299 -0.0186 -0.7946  0.4339
 3521SOL     OW23035   5.213   1.243   6.285 -0.0953 -0.4814 -0.7310
 3521SOL    HW123036   5.208   1.166   6.347 -0.3484 -0.8703 -1.2251
 3521SOL    HW223037   5.125   1.254   6.239  0.1437 -0.3084 -1.1521
 3522SOL     OW23038   8.175   8.994   5.288 -0.0900  0.6627  0.0745
 3522SOL    HW123039   8.251   8.931   5.269 -0.8623 -0.1654 -0.3052
 3522SOL    HW223040   8.186   9.076   5.232  0.5197  0.5463  0.0149
 3523SOL     OW23041   8.857   5.997   4.982 -0.2541 -0.3527  0.1729
 3523SOL    HW123042   8.894   5.999   4.889  1.5055 -1.6881  0.8135
 3523SOL    HW223043   8.848   5.903   5.012 -0.2665  0.0800  1.5624
 3524SOL     OW23044   8.084   0.380   6.408  0.2502  0.3841  0.1868
 3524SOL    HW123045   8.181   0.392   6.388  0.2985  1.1148  0.8648
 3524SOL    HW223046   8.031   0.399   6.325  0.4827  3.0603  0.6084
 3525SOL     OW23047   1.735   2.446   1.660 -0.2806 -0.0366  0.5824
 3525SOL    HW123048   1.710   2.465   1.755 -0.9268  1.0622  0.2005
 3525SOL    HW223049   1.773   2.353   1.653 -0.5595 -0.2506  1.8431
 3526SOL     OW23050   5.375   5.256   4.602  0.3566  0.0729  0.1974
 3526SOL    HW123051   5.374   5.349   4.564 -1.1470 -0.1239 -0.2847
 3526SOL    HW223052   5.441   5.200   4.552  2.0342  1.1439  1.1716
 3527SOL     OW23053   7.259   3.075   3.182 -0.3302 -0.1210  0.1922
 3527SOL    HW123054   7.215   3.128   3.254  0.4853  1.6747 -0.5917
 3527SOL    HW223055   7.253   3.126   3.096  1.3971 -0.8378 -0.3605
 3528SOL     OW23056   3.484   4.687   7.327  0.1403  0.0189 -0.0165
 3528SOL    HW123057   3.552   4.649   7.264 -0.2212 -0.2151 -0.2626
 3528SOL    HW223058   3.512   4.780   7.353  1.3892 -0.6651  1.1324
 3529SOL     OW23059   1.152   4.634   3.508 -0.1700 -0.2068 -0.2571
 3529SOL    HW123060   1.208   4.591   3.438  0.6135  0.3182  0.0328
 3529SOL    HW223061   1.095   4.705   3.467 -1.6705 -1.7010 -0.7785
 3530SOL     OW23062   3.057   6.797   0.967 -0.0339  0.0092  0.1573
 3530SOL    HW123063   3.043   6.701   0.941 -1.1196  0.3727 -0.6355
 3530SOL    HW223064   2.985   6.853   0.927  0.5344  1.1503  0.7113
 3531SOL     OW23065   4.333   1.159   3.969  0.3226  0.1530  0.3268
 3531SOL    HW123066   4.264   1.152   4.041 -0.5857 -1.3177 -0.6775
 3531SOL    HW223067   4.379   1.071   3.959  1.6357  0.8320  0.2607
 3532SOL     OW23068   1.204   3.564   4.948  0.0662 -0.4690 -0.1924
 3532SOL    HW123069   1.158   3.475   4.952  0.0078 -0.4682 -0.8560
 3532SOL    HW223070   1.204   3.605   5.039 -2.1041 -0.0249 -0.3615
 3533SOL     OW23071   3.535   7.957   1.945 -0.2062  0.2702 -0.3495
 3533SOL    HW123072   3.450   8.007   1.961 -1.4849 -0.8134 -3.5209
 3533SOL    HW223073   3.596   8.012   1.888  0.0084 -0.1832 -0.5554
 3534SOL     OW23074   2.388   1.249   4.142 -0.1025  0.5496  0.2620
 3534SOL    HW123075   2.361   1.343   4.123 -1.6543 -0.0636 -0.6118
 3534SOL    HW223076   2.423   1.242   4.236 -1.5329  1.6717  0.8902
 3535SOL     OW23077   0.113   6.117   1.286 -0.3313 -0.2264  0.3171
 3535SOL    HW123078   0.166   6.126   1.202 -3.0632 -1.2277 -1.5496
 3535SOL    HW223079   0.036   6.180   1.284  0.4052  0.8108  2.7637
 3536SOL     OW23080   6.968   4.910   3.707 -0.0425 -0.1724  0.3074
 3536SOL    HW123081   6.917   4.829   3.679  0.5029 -0.9094  1.4053
 3536SOL    HW223082   7.038   4.884   3.774 -0.3077  1.2914  1.1757
 3537SOL     OW23083   4.947   6.437   3.828  0.3053  0.5713 -0.2641
 3537SOL    HW123084   4.852   6.448   3.799 -0.0985 -0.0475  0.7965
 3537SOL    HW223085   4.950   6.383   3.912  1.7450 -1.6470 -1.6632
 3538SOL     OW23086   3.902   6.813   5.072 -0.0702  0.0200  0.5265
 3538SOL    HW123087   3.918   6.739   5.138 -0.8889 -0.9625 -0.3533
 3538SOL    HW223088   3.804   6.827   5.061  0.0778  1.4807  0.9261
 3539SOL     OW23089   3.836   8.687   5.287 -0.0611  0.0942  0.8638
 3539SOL    HW123090   3.739   8.710   5.280 -0.3802 -1.1304  0.9986
 3539SOL    HW223091   3.878   8.741   5.360 -0.1082  2.2432 -0.6516
 3540SOL     OW23092   7.339   2.261   5.080 -0.0322 -0.0792 -0.4858
 3540SOL    HW123093   7.254   2.223   5.117 -1.0626  2.4528 -0.2090
 3540SOL    HW223094   7.399   2.186   5.052 -0.7752 -1.9948  2.8067
 3541SOL     OW23095   4.180   8.820   8.357 -0.1607 -0.0131  0.3582
 3541SOL    HW123096   4.141   8.735   8.321  1.8683 -0.5826 -0.5646
 3541SOL    HW223097   4.184   8.888   8.283 -0.2325  0.3315  0.6716
 3542SOL     OW23098   0.381   4.104   8.176 -0.5207 -0.5375  0.1958
 3542SOL    HW123099   0.315   4.127   8.248  0.4697  1.6300  0.4356
 3542SOL    HW223100   0.353   4.145   8.090  0.0889 -0.2688  0.1225
 3543SOL     OW23101   0.676   8.196   5.295 -0.6228  0.2273 -0.1750
 3543SOL    HW123102   0.684   8.294   5.314  0.3600  0.0790  0.1957
 3543SOL    HW223103   0.601   8.180   5.231 -1.1445  1.1687  0.2071
 3544SOL     OW23104   0.285   4.580   3.747 -0.2881  0.2945 -0.5073
 3544SOL    HW123105   0.339   4.651   3.702  0.6481 -0.7513 -1.0415
 3544SOL    HW223106   0.286   4.497   3.692 -1.4529 -0.1186  0.0745
 3545SOL     OW23107   5.960   2.731   0.703  0.1356  0.0339 -0.1925
 3545SOL    HW123108   5.941   2.775   0.791 -0.0600 -0.9302  0.2453
 3545SOL    HW223109   6.037   2.777   0.659  0.4022  0.3509  0.5975
 3546SOL     OW23110   0.138   2.776   0.509  0.6719 -0.4967  0.6691
 3546SOL    HW123111   0.072   2.850   0.513  0.1736 -0.8126 -1.3719
 3546SOL    HW223112   0.227   2.809   0.542  0.7129  1.3152 -1.1135
 3547SOL     OW23113   2.385   1.780   0.823 -0.1168 -0.1221 -0.5954
 3547SOL    HW123114   2.444   1.854   0.791  1.1347 -1.4407 -1.4345
 3547SOL    HW223115   2.428   1.735   0.902  0.5277 -1.7089 -1.8064
 3548SOL     OW23116   1.856   3.611   1.030 -0.6170 -0.1752 -0.1818
 3548SOL    HW123117   1.851   3.673   0.952  2.6068 -1.1567 -1.2495
 3548SOL    HW223118   1.823   3.659   1.112  1.0299  2.7515 -1.1240
 3549SOL     OW23119   0.109   2.227   6.699 -0.0116 -0.4639 -0.3578
 3549SOL    HW123120   0.068   2.169   6.770  0.1255  0.2257  0.2927
 3549SOL    HW223121   0.171   2.173   6.643 -2.1381 -1.6366 -1.6242
 3550SOL     OW23122   3.755   0.004   4.097 -0.0824 -0.1083  0.3274
 3550SOL    HW123123   3.774  -0.084   4.053 -1.2418 -0.5540  0.6939
 3550SOL    HW223124   3.780  -0.001   4.194  3.0110  1.0582 -0.3662
 3551SOL     OW23125   7.374   8.203   1.234  0.1986  0.7298 -0.0885
 3551SOL    HW123126   7.446   8.243   1.290  1.1814 -0.2852 -0.6066
 3551SOL    HW223127   7.313   8.149   1.292 -0.1606  1.6033  0.3514
 3552SOL     OW23128   6.895   3.870   3.399  0.6396  0.3390 -0.0947
 3552SOL    HW123129   6.817   3.861   3.337  0.6883 -0.2853 -0.0655
 3552SOL    HW223130   6.878   3.944   3.464  0.2429  0.4598 -0.3370
 3553SOL     OW23131   8.202   6.585   6.589 -0.0339  0.2822  0.7316
 3553SOL    HW123132   8.149   6.600   6.505  0.2744  0.8719  0.6418
 3553SOL    HW223133   8.203   6.487   6.610 -0.3172  0.1584  0.1801
 3554SOL     OW23134   1.225   2.811   3.337 -0.3925 -0.2842 -0.4104
 3554SOL    HW123135   1.228   2.889   3.273 -0.6008  0.2101  0.1753
 3554SOL    HW223136   1.318   2.775   3.348 -0.0947  0.6331  0.2121
 3555SOL     OW23137   7.696   0.142   0.760  0.2435  0.2203  0.0443
 3555SOL    HW123138   7.673   0.165   0.855 -0.4773 -1.6121  0.3480
 3555SOL    HW223139   7.794   0.150   0.747  0.3520  0.4478  0.9624
 3556SOL     OW23140   7.325   5.579   8.081 -0.2491  0.2443  0.0586
 3556SOL    HW123141   7.382   5.542   8.008 -0.6895  0.1921 -0.2615
 3556SOL    HW223142   7.272   5.505   8.123  0.6895  0.1238  1.0484
 3557SOL     OW23143   4.599   6.507   7.592 -0.0758 -0.2337  0.4982
 3557SOL    HW123144   4.537   6.570   7.639  0.2809 -0.0354  0.6956
 3557SOL    HW223145   4.553   6.419   7.580 -1.3807  0.7001 -1.6951
 3558SOL     OW23146   0.602   3.441   7.124 -0.0075  0.0494 -0.6815
 3558SOL    HW123147   0.597   3.514   7.192  0.7385  0.4442 -1.0426
 3558SOL    HW223148   0.528   3.453   7.057  0.5117  0.8647 -1.1212
 3559SOL     OW23149   5.170   7.380   2.110 -0.7980 -0.6281  0.2892
 3559SOL    HW123150   5.072   7.364   2.120 -1.8689  2.8579 -3.2851
 3559SOL    HW223151   5.191   7.474   2.136  1.3886 -0.9773 -0.1199
 3560SOL     OW23152   1.664   6.681   7.629 -0.2326 -0.1093  0.5290
 3560SOL    HW123153   1.576   6.723   7.609  0.5179  1.3955  0.3044
 3560SOL    HW223154   1.656   6.624   7.711 -1.3775  0.0906  0.5617
 3561SOL     OW23155   1.307   4.120   2.915 -0.0698 -0.1372 -0.6056
 3561SOL    HW123156   1.345   4.058   2.847 -0.6791  0.0697 -1.1489
 3561SOL    HW223157   1.295   4.211   2.874 -2.1459 -0.4730 -0.7879
 3562SOL     OW23158   7.218   5.372   7.313  0.0002  0.0934 -0.5054
 3562SOL    HW123159   7.243   5.359   7.217 -3.1510 -0.3553 -1.3105
 3562SOL    HW223160   7.204   5.283   7.356  0.4470  0.3245  0.1350
 3563SOL     OW23161   1.408   7.521   7.544 -0.3603  0.2627 -0.1150
 3563SOL    HW123162   1.391   7.616   7.567 -0.9125  0.1460 -0.0292
 3563SOL    HW223163   1.340   7.489   7.478 -1.1245 -0.5031  1.0101
 3564SOL     OW23164   0.510   3.965   0.327 -0.4105 -0.5773  0.1313
 3564SOL    HW123165   0.414   3.979   0.352 -0.6029 -1.1758 -0.2658
 3564SOL    HW223166   0.535   4.029   0.255 -0.6666 -0.7946 -0.1499
 3565SOL     OW23167   6.686   2.965   0.465  0.3787 -0.2409 -0.1468
 3565SOL    HW123168   6.724   2.972   0.557 -0.7499  1.9498  0.1916
 3565SOL    HW223169   6.716   2.879   0.423  3.2020  0.0158  1.1931
 3566SOL     OW23170   2.467   4.294   0.100  0.3979 -1.1953  0.3662
 3566SOL    HW123171   2.373   4.297   0.069  0.7167  1.1167 -0.4656
 3566SOL    HW223172   2.473   4.329   0.194  0.1032 -3.7493  1.3822
 3567SOL     OW23173   3.252   3.813   3.355  0.5730  0.2615  0.1488
 3567SOL    HW123174   3.209   3.851   3.273 -1.4295 -3.4168 -0.6076
 3567SOL    HW223175   3.182   3.793   3.424  1.2654 -3.6350 -0.1703
 3568SOL     OW23176   6.489   1.894   8.807 -0.0956  0.0372 -0.2331
 3568SOL    HW123177   6.492   1.988   8.841  2.3104  0.5535 -1.7033
 3568SOL    HW223178   6.506   1.894   8.708 -3.0226 -1.7235 -0.7839
 3569SOL     OW23179   4.510   7.281   1.878  0.0395 -0.4582  0.3423
 3569SOL    HW123180   4.567   7.225   1.817 -0.4567  1.0751 -1.6005
 3569SOL    HW223181   4.415   7.275   1.848 -0.3096 -0.1970  1.3861
 3570SOL     OW23182   4.140   3.359   2.848 -0.3391 -0.2185  0.2127
 3570SOL    HW123183   4.226   3.368   2.799  0.1562  0.8868  1.2488
 3570SOL    HW223184   4.123   3.263   2.870  0.7773 -0.4109  0.2529
 3571SOL     OW23185   8.119   1.448   5.223  0.8306 -1.0607  0.5235
 3571SOL    HW123186   8.137   1.507   5.302  0.3676  2.5803 -1.9801
 3571SOL    HW223187   8.038   1.392   5.241 -1.4646  2.3326  1.3445
 3572SOL     OW23188   6.708   6.178   0.537 -0.0112  0.2884  0.2366
 3572SOL    HW123189   6.763   6.251   0.578 -1.4775  1.6569 -0.2010
 3572SOL    HW223190   6.764   6.128   0.471  1.1141  0.7644  0.8054
 3573SOL     OW23191   1.294   5.939   1.757  0.3626 -0.0021  0.5189
 3573SOL    HW123192   1.236   5.876   1.808  0.9144 -0.6776  0.3013
 3573SOL    HW223193   1.371   5.968   1.813  1.1846 -1.0491 -0.0564
 3574SOL     OW23194   6.505   0.884   7.842  0.1147 -0.1161 -0.4198
 3574SOL    HW123195   6.407   0.872   7.856  0.3928  0.1074  1.9362
 3574SOL    HW223196   6.543   0.938   7.918  2.0589 -0.2670 -1.2693
 3575SOL     OW23197   1.064   5.362   7.020 -0.4786 -0.2916 -0.1576
 3575SOL    HW123198   1.075   5.342   6.923  0.3996 -0.2188 -0.0801
 3575SOL    HW223199   1.038   5.278   7.069 -0.6333 -0.3896 -0.4072
 3576SOL     OW23200   6.911   4.332   3.302 -0.3405  0.8586  0.4648
 3576SOL    HW123201   6.958   4.390   3.369  1.0847  0.9221 -0.5571
 3576SOL    HW223202   6.980   4.279   3.252 -1.2188  2.3872 -2.4347
 3577SOL     OW23203   0.946   4.312   8.842 -0.7196  0.0087 -0.0677
 3577SOL    HW123204   0.876   4.361   8.789  0.2725  1.0949 -0.4093
 3577SOL    HW223205   0.976   4.370   8.918 -0.0700 -0.3853 -0.0257
 3578SOL     OW23206   1.351   1.385   0.464 -0.5200 -0.0399  0.0479
 3578SOL    HW123207   1.434   1.380   0.408 -0.5649  2.8210 -0.3704
 3578SOL    HW223208   1.376   1.407   0.558 -0.8300  1.7508 -0.2733
 3579SOL     OW23209   6.938   0.486   8.603 -0.4404  0.2956  0.3641
 3579SOL    HW123210   6.945   0.413   8.535 -0.2786  0.9663 -0.3405
 3579SOL    HW223211   7.029   0.506   8.639 -0.3119  0.9995 -0.3439
 3580SOL     OW23212   5.877   4.138   3.874  0.6257 -0.0982  0.1061
 3580SOL    HW123213   5.811   4.075   3.915  0.1918 -0.7576 -1.5530
 3580SOL    HW223214   5.829   4.205   3.818  1.1954  0.9073  0.8014
 3581SOL     OW23215   2.820   0.131   7.302 -0.5146  0.8018  0.2406
 3581SOL    HW123216   2.893   0.063   7.302 -0.7418  0.5522 -0.9697
 3581SOL    HW223217   2.733   0.086   7.321 -0.4050  1.0531  1.3750
 3582SOL     OW23218   7.698   6.483   3.501  0.0710  0.5640  0.0011
 3582SOL    HW123219   7.704   6.521   3.409  1.2761  0.8693  0.2010
 3582SOL    HW223220   7.634   6.407   3.502 -0.3125  0.8729 -0.9851
 3583SOL     OW23221   2.450   1.078   3.952  0.0923 -0.0048  0.3712
 3583SOL    HW123222   2.527   1.108   3.895  1.7035  0.0561  2.4987
 3583SOL    HW223223   2.431   1.148   4.021  0.7627 -1.7293  2.3601
 3584SOL     OW23224   1.168   4.060   6.015  0.1179 -0.1595 -0.5235
 3584SOL    HW123225   1.249   4.024   5.970  1.4209  0.3165  1.3753
 3584SOL    HW223226   1.185   4.155   6.043 -1.3178  0.1513 -0.6593
 3585SOL     OW23227   7.024   1.846   7.567  0.3889  0.1979 -0.1741
 3585SOL    HW123228   6.989   1.820   7.657  0.7408  0.9231  0.1793
 3585SOL    HW223229   6.954   1.895   7.516  1.0207  2.0482  0.7083
 3586SOL     OW23230   8.809   3.412   4.669  0.2474  0.6833  0.7921
 3586SOL    HW123231   8.793   3.503   4.633 -1.1547  0.2579  0.3017
 3586SOL    HW223232   8.901   3.407   4.708  0.1872  2.4097  1.1932
 3587SOL     OW23233   0.819   7.635   7.860 -0.2009 -0.0262 -0.5495
 3587SOL    HW123234   0.796   7.592   7.773 -0.9495 -1.2525  0.2330
 3587SOL    HW223235   0.819   7.734   7.849  2.0959 -0.2172 -2.5046
 3588SOL     OW23236   8.294   1.836   0.270 -0.6382  0.3182  0.2174
 3588SOL    HW123237   8.330   1.927   0.250  0.2576 -0.0978 -0.0893
 3588SOL    HW223238   8.212   1.844   0.326 -0.8120  1.3336 -0.1681
 3589SOL     OW23239   0.237   3.253   6.512 -0.4071 -0.2568 -0.2156
 3589SOL    HW123240   0.240   3.157   6.483 -0.1950 -0.6329  1.0243
 3589SOL    HW223241   0.296   3.308   6.453  0.8208 -1.1825  0.1492
 3590SOL     OW23242   2.080   8.565   1.580  0.3195  0.8930  0.2314
 3590SOL    HW123243   1.990   8.608   1.581  0.4162  1.0902  1.5245
 3590SOL    HW223244   2.136   8.602   1.654  1.0403 -0.0968  0.2003
 3591SOL     OW23245   4.783   8.911   7.674 -0.5621 -0.2121 -0.3859
 3591SOL    HW123246   4.690   8.902   7.638 -0.8462  0.7269  0.0875
 3591SOL    HW223247   4.829   8.985   7.626 -0.9722  1.1093  1.2065
 3592SOL     OW23248   6.049   6.651   6.780  0.3167 -0.3208 -0.1409
 3592SOL    HW123249   6.148   6.637   6.770  0.6659  0.2173  2.1476
 3592SOL    HW223250   6.006   6.564   6.805  0.5288 -0.1378  0.8928
 3593SOL     OW23251   0.904   1.959   7.579  0.3103 -0.3060  0.3339
 3593SOL    HW123252   0.813   1.919   7.590 -1.5354  3.1404 -1.5769
 3593SOL    HW223253   0.895   2.057   7.558  4.4945  0.2015  0.5348
 3594SOL     OW23254   8.410   2.543   2.825 -0.3066  0.2161 -0.0365
 3594SOL    HW123255   8.381   2.452   2.856  1.2884  0.2149  1.5339
 3594SOL    HW223256   8.334   2.607   2.835 -1.2069 -0.7653 -0.4262
 3595SOL     OW23257   0.018   4.127   8.081 -0.1010 -0.8483  0.4085
 3595SOL    HW123258  -0.077   4.112   8.109 -0.0104 -0.6608  0.8203
 3595SOL    HW223259   0.021   4.179   7.996 -0.4058 -2.2738 -0.4916
 3596SOL     OW23260   8.142   3.346   0.086  0.0311 -0.4948  0.1033
 3596SOL    HW123261   8.149   3.446   0.089  0.2639 -0.4444 -1.6310
 3596SOL    HW223262   8.228   3.306   0.118  0.1638 -0.1409  0.1984
 3597SOL     OW23263   1.778   1.299   6.162  0.4873 -0.7032 -0.4383
 3597SOL    HW123264   1.847   1.341   6.102  0.0768  0.3756 -0.1758
 3597SOL    HW223265   1.735   1.223   6.115  0.4492 -0.1132 -1.3800
 3598SOL     OW23266   0.483   3.744   6.108  0.0928 -0.2136  0.3875
 3598SOL    HW123267   0.570   3.792   6.115  0.0320  0.2950 -2.0520
 3598SOL    HW223268   0.420   3.781   6.177  1.5144 -0.0343  1.6301
 3599SOL     OW23269   6.847   3.301   3.453  0.1652 -0.3417  0.2036
 3599SOL    HW123270   6.845   3.399   3.473  1.2349 -0.0283 -1.2183
 3599SOL    HW223271   6.753   3.268   3.443 -0.3140  0.0758  2.7659
 3600SOL     OW23272   1.546   6.607   6.394  0.3913  0.8690  0.1115
 3600SOL    HW123273   1.556   6.527   6.335  0.1326  0.5104  0.5456
 3600SOL    HW223274   1.452   6.642   6.385 -0.2125 -0.2981  1.6932
 3601SOL     OW23275   2.527   8.015   0.573  0.3517  0.3650 -0.5403
 3601SOL    HW123276   2.546   8.049   0.666  0.4254 -0.3267 -0.2986
 3601SOL    HW223277   2.428   8.001   0.563  0.4722 -0.8888 -0.0919
 3602SOL     OW23278   2.377   4.796   7.757  0.7614 -0.0272  0.3041
 3602SOL    HW123279   2.415   4.874   7.706  1.6824  0.0500  1.0833
 3602SOL    HW223280   2.452   4.734   7.782  0.2540 -0.2876  1.1753
 3603SOL     OW23281   6.072   5.803   6.544 -0.6176 -0.0996  0.1147
 3603SOL    HW123282   5.974   5.804   6.564 -0.6367 -0.5862  0.0421
 3603SOL    HW223283   6.095   5.721   6.492 -0.5040  0.9836 -1.5765
 3604SOL     OW23284   4.083   2.294   4.412 -0.2756  0.5007 -0.3629
 3604SOL    HW123285   3.983   2.302   4.421 -0.5974 -1.0095 -2.1005
 3604SOL    HW223286   4.107   2.292   4.315  1.6953  3.1490  0.0207
 3605SOL     OW23287   4.174   6.509   2.530  0.1889  0.4048 -0.0915
 3605SOL    HW123288   4.206   6.574   2.599 -0.8756 -0.8630  1.6358
 3605SOL    HW223289   4.085   6.540   2.495  0.0636  0.3306  0.1509
 3606SOL     OW23290   5.995   7.533   2.524 -0.3416  0.1591 -0.3506
 3606SOL    HW123291   5.958   7.566   2.611  0.9099 -0.3825  0.3960
 3606SOL    HW223292   6.059   7.600   2.487 -0.5056  0.1710 -0.6135
 3607SOL     OW23293   7.119   8.596   1.323 -0.4627  0.0758  0.5816
 3607SOL    HW123294   7.106   8.548   1.409  1.0777  0.5698  1.1178
 3607SOL    HW223295   7.157   8.533   1.254 -2.1375 -0.4361  0.1182
 3608SOL     OW23296   0.442   3.371   6.335  0.4443 -0.7410 -0.8016
 3608SOL    HW123297   0.402   3.442   6.394  2.5198 -0.5345  0.4266
 3608SOL    HW223298   0.452   3.406   6.242  1.3418  0.5603 -0.2286
 3609SOL     OW23299   6.500   4.764   1.095 -0.1011 -0.7262  0.4300
 3609SOL    HW123300   6.418   4.816   1.121 -0.1484 -0.5711 -0.0377
 3609SOL    HW223301   6.580   4.823   1.102 -0.1130 -0.6865  0.2302
 3610SOL     OW23302   2.227   4.409   5.787  0.3063 -0.5468 -0.1178
 3610SOL    HW123303   2.278   4.475   5.842  1.0342  0.5207 -2.0268
 3610SOL    HW223304   2.130   4.434   5.786  0.5171  0.2720 -0.5040
 3611SOL     OW23305   3.005   2.640   3.738  0.1618 -0.1312 -0.2130
 3611SOL    HW123306   3.050   2.550   3.737  1.9440  0.7272  0.5910
 3611SOL    HW223307   2.976   2.661   3.831  0.7228  0.5966 -0.2014
 3612SOL     OW23308   0.403   3.027   8.331  0.2253 -0.1912 -0.2187
 3612SOL    HW123309   0.485   3.083   8.342  0.2085 -0.4652  1.4329
 3612SOL    HW223310   0.401   2.956   8.402 -0.3243 -1.5758 -1.5849
 3613SOL     OW23311   2.074   4.764   5.829 -0.4327  0.1212  0.1794
 3613SOL    HW123312   1.978   4.742   5.816 -0.9395  2.0452  0.5227
 3613SOL    HW223313   2.115   4.784   5.740  0.1574 -2.5687 -0.1944
 3614SOL     OW23314   3.717   5.327   4.058 -0.3760 -0.8294  0.2961
 3614SOL    HW123315   3.630   5.367   4.030  0.0172 -1.3319 -1.6715
 3614SOL    HW223316   3.753   5.269   3.985  0.5362 -2.4084  1.9396
 3615SOL     OW23317   6.471   8.390   1.726  0.8187 -0.7508 -0.1782
 3615SOL    HW123318   6.378   8.387   1.689  1.0980 -0.8331 -0.8862
 3615SOL    HW223319   6.485   8.478   1.771  0.0748 -1.1248  0.8061
 3616SOL     OW23320   7.543   3.325   8.085  0.2160 -0.1759 -0.0486
 3616SOL    HW123321   7.621   3.274   8.121  1.2021  1.0963 -0.3310
 3616SOL    HW223322   7.515   3.395   8.151 -0.1374 -0.0621 -0.3164
 3617SOL     OW23323   8.364   1.321   8.686  0.1791  0.2933 -0.5631
 3617SOL    HW123324   8.438   1.291   8.625  1.9296  0.1860  1.5645
 3617SOL    HW223325   8.369   1.420   8.698 -1.5919  0.6470 -2.3677
 3618SOL     OW23326   5.434   8.749   7.981 -0.1890 -0.1066 -0.1419
 3618SOL    HW123327   5.457   8.653   7.973 -0.6430 -0.4133  1.8323
 3618SOL    HW223328   5.354   8.760   8.040 -0.3564  1.4390 -0.6211
 3619SOL     OW23329   2.312   6.018   2.722  0.0566 -0.0427  0.2032
 3619SOL    HW123330   2.272   5.937   2.678 -0.4799  0.8130 -0.9392
 3619SOL    HW223331   2.244   6.061   2.781 -0.2589  0.6004 -0.6184
 3620SOL     OW23332   3.761   7.141   2.189 -0.2339  0.7868  0.4909
 3620SOL    HW123333   3.842   7.197   2.173  0.0217  0.1671 -0.3904
 3620SOL    HW223334   3.786   7.059   2.241 -0.4602  1.0477  1.0194
 3621SOL     OW23335   8.165   1.824   4.015 -0.2427 -1.1408  0.5201
 3621SOL    HW123336   8.114   1.860   4.093 -0.0923 -1.5534  0.8103
 3621SOL    HW223337   8.229   1.754   4.046  0.9222 -0.2065  0.2381
 3622SOL     OW23338   7.887   8.705   6.279  0.1278 -0.4649 -0.3853
 3622SOL    HW123339   7.964   8.758   6.316  0.2152 -1.4457  0.8860
 3622SOL    HW223340   7.870   8.626   6.338 -1.2908 -0.7485 -1.1499
 3623SOL     OW23341   2.694   8.178   3.474 -0.3988 -0.7826 -0.1400
 3623SOL    HW123342   2.694   8.277   3.487  1.3611 -0.4763 -2.3233
 3623SOL    HW223343   2.685   8.133   3.563 -0.3961  1.3175  0.9484
 3624SOL     OW23344   5.182   0.341   7.074 -0.0435  0.3867  0.0649
 3624SOL    HW123345   5.217   0.321   6.983 -0.4789 -0.2803  0.0486
 3624SOL    HW223346   5.247   0.308   7.143 -0.1422  0.1019  0.0174
 3625SOL     OW23347   4.917   0.936   8.301 -0.1921  0.0018 -0.3776
 3625SOL    HW123348   4.874   0.855   8.342 -0.5316  0.6031  0.4768
 3625SOL    HW223349   4.860   0.971   8.227 -1.1336  0.7029  0.6468
 3626SOL     OW23350   1.863   4.927   7.225  0.0276  0.0457  0.1017
 3626SOL    HW123351   1.783   4.869   7.237  0.1615 -0.6816 -2.1501
 3626SOL    HW223352   1.878   4.944   7.127  3.7990 -1.5612  0.2859
 3627SOL     OW23353   3.999   8.438   4.526  0.4368  0.1612 -0.0517
 3627SOL    HW123354   3.963   8.460   4.436 -2.5363 -0.2891  0.9853
 3627SOL    HW223355   3.978   8.513   4.590 -1.3835 -1.4482  1.2728
 3628SOL     OW23356   3.507   2.683   4.145  0.3755 -0.0384  0.2000
 3628SOL    HW123357   3.458   2.620   4.204 -0.7821 -0.7205 -1.4693
 3628SOL    HW223358   3.606   2.671   4.158  0.1610 -1.7758  0.3348
 3629SOL     OW23359   1.285   5.389   1.389 -0.0466 -0.3738  0.1815
 3629SOL    HW123360   1.200   5.442   1.398  0.0773 -0.2547  0.6686
 3629SOL    HW223361   1.363   5.452   1.394  0.0102 -0.1851 -2.6700
 3630SOL     OW23362   3.124   5.191   5.919  0.5794  0.0100 -0.2466
 3630SOL    HW123363   3.071   5.236   5.848 -1.3445 -2.6329 -0.5846
 3630SOL    HW223364   3.221   5.190   5.893  0.0613  0.1202 -2.2702
 3631SOL     OW23365   2.622   7.933   7.342  0.2454 -0.4406 -0.3379
 3631SOL    HW123366   2.604   8.001   7.413  1.9630 -1.0317  0.7059
 3631SOL    HW223367   2.571   7.956   7.260 -2.6223 -0.3311  1.4187
 3632SOL     OW23368   7.899   8.294   0.473 -0.1744 -0.6912 -0.0660
 3632SOL    HW123369   7.957   8.356   0.526 -0.5481 -0.2163 -0.2146
 3632SOL    HW223370   7.946   8.270   0.388  1.1146 -2.7159  1.1905
 3633SOL     OW23371   4.064   5.564   0.852  0.3243  0.5531 -1.0020
 3633SOL    HW123372   3.966   5.548   0.862  0.1940  0.8013 -1.8277
 3633SOL    HW223373   4.084   5.660   0.870  0.5027  0.3792 -0.2511
 3634SOL     OW23374   8.781   4.661   7.388  0.1887  0.2493  0.1930
 3634SOL    HW123375   8.873   4.701   7.388  0.0443  0.5765 -0.5486
 3634SOL    HW223376   8.748   4.653   7.295 -1.1426  1.5242  0.5380
 3635SOL     OW23377   0.576   3.368   5.219  0.0617  0.9540 -0.3446
 3635SOL    HW123378   0.596   3.445   5.280 -0.2591  1.0205 -0.3188
 3635SOL    HW223379   0.552   3.288   5.274  0.0372  0.9386 -0.3780
 3636SOL     OW23380   8.688   2.381   6.196  0.3838  0.0953  0.2109
 3636SOL    HW123381   8.676   2.395   6.098  2.3567 -1.0164 -0.2135
 3636SOL    HW223382   8.645   2.457   6.245 -1.0040  0.4404 -1.4764
 3637SOL     OW23383   5.492   1.896   7.236  0.1520 -0.1879 -0.4259
 3637SOL    HW123384   5.524   1.803   7.219  0.3417 -0.3259  0.6092
 3637SOL    HW223385   5.564   1.961   7.213  1.2526 -0.5054  1.9933
 3638SOL     OW23386   0.411   0.815   8.775 -0.3099  0.1588 -0.0517
 3638SOL    HW123387   0.380   0.889   8.836  0.1087 -0.4376  0.8859
 3638SOL    HW223388   0.420   0.730   8.827 -0.5629 -0.5060 -1.0825
 3639SOL     OW23389   1.077   4.431   6.175  0.7213  0.2998  0.0652
 3639SOL    HW123390   1.175   4.417   6.165  0.5909  0.4390 -1.4710
 3639SOL    HW223391   1.055   4.439   6.272  2.3923  1.4250  0.3815
 3640SOL     OW23392   2.098   5.927   3.558  0.1927 -0.5964 -0.1578
 3640SOL    HW123393   2.178   5.986   3.547  0.6732 -0.6958  2.4185
 3640SOL    HW223394   2.111   5.842   3.507  0.5618  0.4761 -1.8945
 3641SOL     OW23395   3.085   6.481   0.064  0.3997  0.0830  0.3055
 3641SOL    HW123396   3.077   6.574   0.098 -0.3111  0.0758  0.1698
 3641SOL    HW223397   3.127   6.481  -0.027  0.5913  0.2489  0.3950
 3642SOL     OW23398   8.069   4.217   4.653  0.4619 -0.1325  0.1661
 3642SOL    HW123399   7.974   4.249   4.649  0.2740 -0.7901 -1.0626
 3642SOL    HW223400   8.106   4.233   4.744 -0.4102  1.3322  0.2794
 3643SOL     OW23401   8.589   5.991   0.674 -0.0156 -0.7307  0.3888
 3643SOL    HW123402   8.553   5.910   0.721 -2.7009  0.4594  0.4665
 3643SOL    HW223403   8.540   6.072   0.705  1.4708  0.7187 -0.9613
 3644SOL     OW23404   0.752   5.548   0.215  0.1099  0.1676  0.5020
 3644SOL    HW123405   0.696   5.515   0.291  0.4500 -0.3990  0.5017
 3644SOL    HW223406   0.763   5.648   0.223  0.9716 -0.0189  1.7416
 3645SOL     OW23407   2.736   6.301   2.374 -0.1239 -0.2494  0.1005
 3645SOL    HW123408   2.740   6.207   2.407 -1.2623 -0.2361  0.2792
 3645SOL    HW223409   2.649   6.342   2.399 -0.2624  0.3649 -1.3164
 3646SOL     OW23410   5.291   1.719   1.263  0.3407 -0.3277  0.0494
 3646SOL    HW123411   5.330   1.628   1.277  1.0887 -0.3008 -1.7230
 3646SOL    HW223412   5.202   1.724   1.308  1.4802 -1.0420  2.4427
 3647SOL     OW23413   0.088   4.878   1.610 -0.6324 -0.1887  0.1584
 3647SOL    HW123414   0.097   4.953   1.545  0.4284  0.2074  0.7521
 3647SOL    HW223415   0.179   4.840   1.629 -1.2431 -2.1797 -0.7940
 3648SOL     OW23416   7.111   4.892   2.482 -0.2473  0.6667 -0.6077
 3648SOL    HW123417   7.208   4.913   2.472 -0.4118  1.0722 -1.3713
 3648SOL    HW223418   7.072   4.949   2.554  0.3640 -0.4217  0.6012
 3649SOL     OW23419   5.631   0.270   6.474  0.3325  0.8079  0.3533
 3649SOL    HW123420   5.610   0.215   6.555 -2.7778  1.0006 -0.2665
 3649SOL    HW223421   5.580   0.356   6.478  0.1268  0.8188 -1.8058
 3650SOL     OW23422   3.895   3.521   3.659 -0.0283  0.7715  0.1140
 3650SOL    HW123423   3.903   3.541   3.562 -2.4724  0.3509 -0.2062
 3650SOL    HW223424   3.821   3.575   3.698 -0.9844 -1.1873  1.1014
 3651SOL     OW23425   3.429   1.249   8.531 -0.4279 -0.1425  0.2321
 3651SOL    HW123426   3.511   1.293   8.567 -0.7597 -0.8889  1.9531
 3651SOL    HW223427   3.349   1.305   8.552 -0.5626 -0.2966  0.1305
 3652SOL     OW23428   6.221   4.681   1.601 -0.1105 -0.1732 -0.0435
 3652SOL    HW123429   6.152   4.754   1.608  2.3071  2.2475 -0.7335
 3652SOL    HW223430   6.218   4.641   1.509 -2.5288 -2.1268  0.8264
 3653SOL     OW23431   3.293   2.511   0.308 -0.4292  0.1317  0.2785
 3653SOL    HW123432   3.387   2.528   0.335 -0.2539 -0.5935  0.1446
 3653SOL    HW223433   3.270   2.415   0.326 -0.7552  0.0001 -0.8222
 3654SOL     OW23434   7.725   4.153   8.171 -0.3483 -0.1902 -0.2276
 3654SOL    HW123435   7.751   4.077   8.231 -2.2762 -1.1982 -0.6183
 3654SOL    HW223436   7.649   4.203   8.213  0.1941  0.8420 -0.4847
 3655SOL     OW23437   1.241   3.665   3.061 -0.4477 -0.4621 -0.4097
 3655SOL    HW123438   1.262   3.626   3.150 -3.1328 -0.1946  0.3990
 3655SOL    HW223439   1.218   3.762   3.071 -0.6972 -0.4091 -1.3897
 3656SOL     OW23440   0.542   5.298   0.889 -0.4869 -0.0159  0.2961
 3656SOL    HW123441   0.453   5.257   0.910  0.1479 -1.7823 -0.4024
 3656SOL    HW223442   0.597   5.302   0.973 -0.7057 -0.1868  0.4498
 3657SOL     OW23443   3.860   2.210   2.853  0.1553  0.3629  0.5707
 3657SOL    HW123444   3.773   2.254   2.874 -0.6091 -1.0409  0.4589
 3657SOL    HW223445   3.845   2.137   2.785  1.7928  1.6127 -1.1760
 3658SOL     OW23446   1.653   4.764   7.319  0.0673  0.1144  0.4604
 3658SOL    HW123447   1.596   4.843   7.341 -0.2857 -0.4533  1.5987
 3658SOL    HW223448   1.639   4.692   7.387  0.3854 -0.9387 -0.5676
 3659SOL     OW23449   7.177   0.909   1.630  0.0673  0.2658 -0.7558
 3659SOL    HW123450   7.149   0.914   1.726  1.3417 -2.4862 -0.1710
 3659SOL    HW223451   7.096   0.904   1.572 -0.7727 -3.0148  0.5735
 3660SOL     OW23452   2.817   2.282   3.871  0.5452 -0.1958  0.0399
 3660SOL    HW123453   2.763   2.353   3.826 -0.1781 -1.2659 -0.7857
 3660SOL    HW223454   2.802   2.287   3.970 -0.9318 -0.3647 -0.1638
 3661SOL     OW23455   5.523   3.514   7.819 -0.2017  0.6193 -0.5775
 3661SOL    HW123456   5.531   3.545   7.914 -0.6365  0.3972 -0.4664
 3661SOL    HW223457   5.599   3.550   7.766  1.8959 -1.9550  0.5645
 3662SOL     OW23458   4.581   3.336   1.426  0.1405  0.2531 -0.2446
 3662SOL    HW123459   4.540   3.359   1.514 -2.0504 -0.6051 -1.0013
 3662SOL    HW223460   4.679   3.321   1.438 -0.3100 -0.9786  2.2802
 3663SOL     OW23461   3.802   0.030   2.726  0.6407  0.1707 -0.2831
 3663SOL    HW123462   3.851   0.032   2.813 -0.1828  0.0278  0.1901
 3663SOL    HW223463   3.828  -0.052   2.674  0.1247 -0.4421  0.4219
 3664SOL     OW23464   1.736   4.376   6.574 -0.0770 -0.3512 -0.2822
 3664SOL    HW123465   1.748   4.356   6.671 -0.2351 -4.5818 -1.0474
 3664SOL    HW223466   1.818   4.349   6.524 -0.7080  0.0293 -1.5404
 3665SOL     OW23467   3.585   5.910   8.164  0.2620  0.4126 -0.3732
 3665SOL    HW123468   3.658   5.920   8.231  0.3133 -3.1334  0.2360
 3665SOL    HW223469   3.619   5.857   8.086 -0.4284  2.5979 -2.2013
 3666SOL     OW23470   3.533   4.198   1.439  0.2571  0.2059 -0.0930
 3666SOL    HW123471   3.492   4.206   1.348 -0.6078  0.6214  0.3356
 3666SOL    HW223472   3.529   4.102   1.469 -2.0100  0.5370  0.7020
 3667SOL     OW23473   6.445   4.515   2.793  0.3077 -0.2778 -0.2121
 3667SOL    HW123474   6.436   4.594   2.733  0.6830 -0.4223 -0.4647
 3667SOL    HW223475   6.368   4.452   2.777  0.7086 -0.5951 -0.9716
 3668SOL     OW23476   1.902   5.508   8.014 -0.1202 -0.2783 -0.0049
 3668SOL    HW123477   1.992   5.544   8.041 -0.7663  1.3303  0.0351
 3668SOL    HW223478   1.848   5.489   8.096 -0.3463  0.1417 -0.0529
 3669SOL     OW23479   0.834   1.619   1.364 -0.0841 -0.9606 -0.0626
 3669SOL    HW123480   0.837   1.622   1.464 -2.5261  0.8791 -0.0047
 3669SOL    HW223481   0.879   1.700   1.327 -1.8771 -0.0901 -0.3660
 3670SOL     OW23482   7.680   7.567   5.001  0.3134  0.1212  0.2970
 3670SOL    HW123483   7.749   7.620   5.051 -1.0269  2.2777 -0.0544
 3670SOL    HW223484   7.720   7.480   4.971  2.0676  0.1610  2.3801
 3671SOL     OW23485   5.505   6.558   3.827 -0.0174  0.2978 -0.5491
 3671SOL    HW123486   5.406   6.546   3.816 -0.4403 -0.5515  3.4491
 3671SOL    HW223487   5.550   6.469   3.822  0.3794  0.5169 -0.9059
 3672SOL     OW23488   8.553   2.909   4.205 -1.0982 -0.6062 -0.0761
 3672SOL    HW123489   8.547   2.901   4.305 -3.7246  0.7457 -0.0687
 3672SOL    HW223490   8.494   2.840   4.162  2.3433 -3.2120 -0.8363
 3673SOL     OW23491   6.269   5.404   3.668  0.5200 -0.1084  0.6197
 3673SOL    HW123492   6.220   5.457   3.738  0.8519  0.6569  0.2802
 3673SOL    HW223493   6.203   5.353   3.612  0.0611  1.3479 -0.1871
 3674SOL     OW23494   6.368   0.229   7.532 -0.5861 -0.4207  0.3537
 3674SOL    HW123495   6.403   0.320   7.509 -0.4616 -0.8144 -1.0035
 3674SOL    HW223496   6.291   0.207   7.473 -1.3194 -0.7539  1.4222
 3675SOL     OW23497   2.885   7.112   3.255 -0.1531  0.1409  0.4679
 3675SOL    HW123498   2.801   7.148   3.296 -0.2984  0.1053  0.2040
 3675SOL    HW223499   2.964   7.159   3.293 -0.1799 -0.9812  1.9676
 3676SOL     OW23500   0.545   3.215   7.296  0.1162 -0.1197 -0.4168
 3676SOL    HW123501   0.541   3.277   7.217  1.4202 -0.4739 -0.7713
 3676SOL    HW223502   0.637   3.176   7.303 -0.5879 -1.7195  0.0289
 3677SOL     OW23503   8.592   1.559   7.547 -0.2890  0.4870  0.6618
 3677SOL    HW123504   8.587   1.514   7.458  1.0201  1.7896 -0.0874
 3677SOL    HW223505   8.656   1.510   7.606 -0.6263  0.0280  0.6458
 3678SOL     OW23506   3.735   5.152   8.416  0.0910  0.4768  0.1604
 3678SOL    HW123507   3.648   5.118   8.453 -1.0742  1.9877 -1.1089
 3678SOL    HW223508   3.779   5.210   8.483 -1.1064  1.6993 -0.0778
 3679SOL     OW23509   7.822   7.809   4.839 -0.5195 -0.0680  0.1498
 3679SOL    HW123510   7.837   7.799   4.741 -0.4178  1.0940  0.0329
 3679SOL    HW223511   7.756   7.741   4.871 -1.9494  0.7276 -1.0626
 3680SOL     OW23512   8.151   8.345   8.850 -0.2497 -0.3073  0.1998
 3680SOL    HW123513   8.073   8.282   8.849 -0.5225 -0.0903  3.2407
 3680SOL    HW223514   8.154   8.393   8.938  2.5167  0.6882 -0.3945
 3681SOL     OW23515   8.855   0.012   6.454  0.1697 -0.9195 -0.0089
 3681SOL    HW123516   8.832   0.074   6.529 -1.4271 -2.3854  0.7620
 3681SOL    HW223517   8.953  -0.007   6.455  0.8065  2.1472 -0.7228
 3682SOL     OW23518   8.141   6.447   7.970  0.0521  0.1191  0.2950
 3682SOL    HW123519   8.169   6.426   7.877  0.2087 -0.7966  0.5448
 3682SOL    HW223520   8.137   6.546   7.983 -0.1858  0.2450 -0.7437
 3683SOL     OW23521   2.021   2.643   1.462 -0.7333 -0.0956  0.7032
 3683SOL    HW123522   1.923   2.627   1.449 -0.6742 -0.1416  0.3143
 3683SOL    HW223523   2.034   2.734   1.502 -0.9136  0.0779  0.3750
 3684SOL     OW23524   0.600   8.179   8.579  0.1951  0.6257 -0.4519
 3684SOL    HW123525   0.512   8.189   8.533  0.0943 -2.1738 -0.8985
 3684SOL    HW223526   0.671   8.224   8.524 -0.2844 -0.7515 -2.2618
 3685SOL     OW23527   6.596   2.669   0.157 -0.1418  0.2276 -0.0449
 3685SOL    HW123528   6.498   2.669   0.136  0.0575  0.3876 -1.0001
 3685SOL    HW223529   6.638   2.588   0.118 -0.3412 -1.2354  2.6276
 3686SOL     OW23530   5.118   6.395   6.676 -0.4876  0.2014 -0.2453
 3686SOL    HW123531   5.038   6.355   6.631  0.5055 -1.9490 -0.1377
 3686SOL    HW223532   5.201   6.367   6.628  0.3353  0.7224  0.8661
 3687SOL     OW23533   8.969   2.304   4.317 -0.6597  0.4583 -0.6681
 3687SOL    HW123534   8.993   2.288   4.222 -0.4426  0.2584 -0.5795
 3687SOL    HW223535   8.920   2.391   4.325 -0.3594  0.6474 -0.9091
 3688SOL     OW23536   3.591   8.867   4.798  0.5984  0.1835  0.2494
 3688SOL    HW123537   3.558   8.895   4.888  0.7202 -0.4550  0.4982
 3688SOL    HW223538   3.527   8.801   4.758  0.1847  0.9928 -0.4348
 3689SOL     OW23539   8.545   4.044   1.113 -0.3637 -0.7776  0.0240
 3689SOL    HW123540   8.611   3.987   1.161  0.2104 -0.0567  0.1081
 3689SOL    HW223541   8.586   4.079   1.029 -0.9053 -0.9482 -0.3150
 3690SOL     OW23542   2.365   6.373   6.537 -0.5870 -0.0365  0.2180
 3690SOL    HW123543   2.315   6.396   6.454  1.0280  4.0586  0.2843
 3690SOL    HW223544   2.462   6.396   6.526  0.0626 -1.5425  2.4418
 3691SOL     OW23545   6.579   5.515   7.448 -0.0314 -0.6968 -0.5627
 3691SOL    HW123546   6.673   5.487   7.468  0.2500  0.3270 -0.4610
 3691SOL    HW223547   6.576   5.564   7.361 -0.6750 -1.8342 -1.2010
 3692SOL     OW23548   7.758   6.469   2.844  0.2495  0.1241 -0.6740
 3692SOL    HW123549   7.723   6.558   2.813  0.2338  0.5215  0.4818
 3692SOL    HW223550   7.711   6.396   2.795 -1.2152  0.7027 -0.1458
 3693SOL     OW23551   8.476   3.460   5.133  0.5906 -0.1929  0.3959
 3693SOL    HW123552   8.501   3.400   5.057  1.7644  2.8173 -1.7082
 3693SOL    HW223553   8.495   3.414   5.220  0.6376 -3.1371 -1.0940
 3694SOL     OW23554   8.284   1.711   7.701 -0.1752  0.7298 -0.3457
 3694SOL    HW123555   8.263   1.615   7.687 -0.0564  0.6153  0.2354
 3694SOL    HW223556   8.359   1.738   7.641  0.4270  0.2156  0.1630
 3695SOL     OW23557   1.246   0.237   5.988 -0.1089 -0.4655 -0.2289
 3695SOL    HW123558   1.262   0.199   6.079  0.3137 -0.6975 -0.3951
 3695SOL    HW223559   1.277   0.171   5.919 -0.2804 -0.2263 -0.5359
 3696SOL     OW23560   0.304   8.888   5.464  0.0628 -0.2127 -0.2664
 3696SOL    HW123561   0.246   8.925   5.536  0.4485 -1.0444  0.4716
 3696SOL    HW223562   0.333   8.796   5.488  1.6890  0.1870 -0.6399
 3697SOL     OW23563   2.159   2.819   1.971 -0.2050 -0.3292  0.2300
 3697SOL    HW123564   2.191   2.778   2.056  0.3012  0.4987  0.4464
 3697SOL    HW223565   2.059   2.815   1.968 -0.1255 -2.7293 -0.3554
 3698SOL     OW23566   5.703   3.940   4.603  0.0605  0.3398 -0.3678
 3698SOL    HW123567   5.702   4.012   4.533 -0.2164 -0.4453 -1.1728
 3698SOL    HW223568   5.777   3.958   4.668  0.2125  1.1633 -0.7637
 3699SOL     OW23569   3.150   4.168   6.014  0.3139 -0.4471 -0.0061
 3699SOL    HW123570   3.105   4.081   6.036 -0.7817  0.7896  2.8813
 3699SOL    HW223571   3.211   4.194   6.089 -0.2780  1.8404 -0.2702
 3700SOL     OW23572   8.010   1.561   8.171 -0.4776 -0.2495 -0.4646
 3700SOL    HW123573   8.082   1.566   8.102  1.4875  2.4816  1.6736
 3700SOL    HW223574   8.035   1.495   8.242 -0.2165  0.4417  0.0967
 3701SOL     OW23575   1.285   0.298   4.430  0.0832 -0.1057 -0.1551
 3701SOL    HW123576   1.293   0.278   4.527  4.3838 -0.7588 -0.5283
 3701SOL    HW223577   1.245   0.220   4.383 -0.7635 -0.3155  0.8998
 3702SOL     OW23578   5.683   4.850   8.243  0.5088  0.0002  0.2100
 3702SOL    HW123579   5.594   4.808   8.262 -0.0876  0.3102 -1.7430
 3702SOL    HW223580   5.702   4.919   8.313 -1.2434  0.5984  0.1286
 3703SOL     OW23581   2.516   0.155   5.841 -0.3163 -0.2013 -0.0512
 3703SOL    HW123582   2.595   0.098   5.867 -0.5105  0.2135  1.5069
 3703SOL    HW223583   2.447   0.151   5.913 -1.7881 -0.6400 -1.4560
 3704SOL     OW23584   7.442   0.964   1.709  0.3174  0.8756 -0.0342
 3704SOL    HW123585   7.494   0.964   1.624  1.2285 -0.1525  0.5186
 3704SOL    HW223586   7.344   0.960   1.688  0.5502  0.2263 -1.0206
 3705SOL     OW23587   8.435   8.260   5.086  0.1180  0.6923  0.1854
 3705SOL    HW123588   8.407   8.323   5.013  0.6668 -1.0735 -1.6005
 3705SOL    HW223589   8.442   8.167   5.049  3.1074  0.1976  1.8292
 3706SOL     OW23590   3.231   1.066   1.744  0.7644 -0.2803 -0.5174
 3706SOL    HW123591   3.230   1.152   1.795  1.4114 -0.3911 -0.3084
 3706SOL    HW223592   3.289   1.000   1.792 -1.5707 -1.6057  0.5472
 3707SOL     OW23593   5.738   6.276   6.763 -0.4281 -0.5805 -0.1194
 3707SOL    HW123594   5.656   6.326   6.736 -0.5784 -0.1411  1.1290
 3707SOL    HW223595   5.713   6.196   6.817 -0.1025 -1.1805 -0.8494
 3708SOL     OW23596   5.420   6.621   8.807  0.5479 -0.1422 -0.1746
 3708SOL    HW123597   5.399   6.711   8.767 -2.8139 -0.8018 -0.0243
 3708SOL    HW223598   5.384   6.549   8.747 -0.1703 -1.2726  1.5840
 3709SOL     OW23599   7.634   8.670   1.129  0.3296  0.5582  0.6569
 3709SOL    HW123600   7.726   8.708   1.138 -0.2074  1.9399  0.3367
 3709SOL    HW223601   7.573   8.738   1.090 -1.2798  0.3010  2.6387
 3710SOL     OW23602   7.800   6.339   6.004 -0.4634 -0.3988 -0.2414
 3710SOL    HW123603   7.832   6.274   6.073  1.2020  0.7112  0.0889
 3710SOL    HW223604   7.836   6.314   5.915  1.0866  0.6228  0.0632
 3711SOL     OW23605   3.810   8.201   1.438 -0.1502  0.2685  0.5848
 3711SOL    HW123606   3.791   8.273   1.372  2.7120 -0.6271 -1.3147
 3711SOL    HW223607   3.836   8.242   1.526 -0.3601  1.5368  0.0646
 3712SOL     OW23608   4.459   2.920   8.461 -0.1080  0.2859  0.9206
 3712SOL    HW123609   4.558   2.926   8.451 -0.0964  1.8270  1.8128
 3712SOL    HW223610   4.431   2.823   8.461  0.9769 -0.1059 -2.9440
 3713SOL     OW23611   0.098   1.826   6.548  0.0239  0.5380  0.2505
 3713SOL    HW123612   0.120   1.868   6.460  0.1225 -1.1710 -0.5529
 3713SOL    HW223613   0.180   1.821   6.605  0.0867  1.0642  0.2139
 3714SOL     OW23614   5.767   8.097   2.195 -0.2161  0.5644 -0.1702
 3714SOL    HW123615   5.754   8.017   2.253 -0.8852  0.3742 -0.5890
 3714SOL    HW223616   5.776   8.178   2.253  0.5041  0.1892  0.2535
 3715SOL     OW23617   8.033   4.667   2.366 -0.4180  0.7634  0.1064
 3715SOL    HW123618   7.976   4.586   2.380  5.0076 -3.0339  1.9303
 3715SOL    HW223619   8.070   4.666   2.273 -0.6655  1.4455 -0.0048
 3716SOL     OW23620   2.503   2.609   7.670 -0.1635  0.1838  0.8106
 3716SOL    HW123621   2.488   2.560   7.584 -1.4783 -0.9253  1.6422
 3716SOL    HW223622   2.469   2.702   7.661 -1.2989 -0.2500  0.4624
 3717SOL     OW23623   8.686   5.625   7.730  0.1910 -0.3170  0.1125
 3717SOL    HW123624   8.656   5.530   7.720  1.6274 -0.9577  1.5560
 3717SOL    HW223625   8.783   5.632   7.705 -0.7393  1.4668 -3.2771
 3718SOL     OW23626   5.186   1.516   6.659 -0.0955  0.7174  0.5622
 3718SOL    HW123627   5.230   1.565   6.583 -0.2395  1.2696  0.8338
 3718SOL    HW223628   5.165   1.581   6.732 -0.2054  0.2290  0.9604
 3719SOL     OW23629   0.950   7.074   7.979  0.0664 -0.0643  0.4380
 3719SOL    HW123630   0.958   7.082   7.879 -0.5857 -0.3056  0.3645
 3719SOL    HW223631   0.853   7.067   8.004  0.1985  0.5541  1.1340
 3720SOL     OW23632   7.283   7.085   8.770 -0.3451  0.0255 -0.2866
 3720SOL    HW123633   7.361   7.033   8.804 -1.9321 -1.2826  1.4113
 3720SOL    HW223634   7.243   7.138   8.845  0.4398  2.7013 -1.6956
 3721SOL     OW23635   7.032   3.902   2.527  0.0219  0.3015 -0.0862
 3721SOL    HW123636   7.098   3.977   2.536 -0.1308  0.6966 -1.9851
 3721SOL    HW223637   7.013   3.863   2.617  1.5746  1.2747  0.6855
 3722SOL     OW23638   1.783   4.662   5.845 -0.0719  0.1641  0.3218
 3722SOL    HW123639   1.724   4.669   5.765  0.1232  0.3652  0.1933
 3722SOL    HW223640   1.745   4.715   5.920  0.4941  1.1776 -0.0953
 3723SOL     OW23641   7.165   6.942   5.071 -0.3610  0.1455  0.1870
 3723SOL    HW123642   7.124   6.907   5.156  4.0229 -1.3868  1.7851
 3723SOL    HW223643   7.161   6.872   5.000  1.0834 -0.6764  0.9008
 3724SOL     OW23644   2.896   6.952   8.271 -0.4793 -0.0238 -0.2275
 3724SOL    HW123645   2.903   6.906   8.182 -1.8032 -0.8799  0.0964
 3724SOL    HW223646   2.810   6.927   8.315 -0.1579  0.9540  0.9935
 3725SOL     OW23647   6.386   4.873   6.512 -0.8253  0.0763 -0.6527
 3725SOL    HW123648   6.317   4.802   6.496 -1.7016  0.4709  1.3323
 3725SOL    HW223649   6.473   4.830   6.536 -1.3226 -0.3249  0.4218
 3726SOL     OW23650   6.219   1.128   0.712  0.3720 -0.6447 -0.2030
 3726SOL    HW123651   6.276   1.177   0.778 -0.3242  0.8162 -0.6504
 3726SOL    HW223652   6.238   1.162   0.620 -1.0708 -0.2749 -0.3806
 3727SOL     OW23653   0.612   6.362   5.087 -0.1597 -0.2016 -0.5167
 3727SOL    HW123654   0.705   6.332   5.068  0.4861  1.4096 -0.0074
 3727SOL    HW223655   0.594   6.353   5.185 -1.0301 -1.8145 -0.8115
 3728SOL     OW23656   2.283   1.212   0.972  0.6817 -0.6134  0.0007
 3728SOL    HW123657   2.214   1.191   1.041 -1.1705 -1.7353 -2.0963
 3728SOL    HW223658   2.295   1.311   0.966  0.2762 -0.4735  1.3632
 3729SOL     OW23659   1.375   4.677   2.244  0.5062  0.0274  0.3584
 3729SOL    HW123660   1.415   4.766   2.224  1.0583 -0.1285  0.7437
 3729SOL    HW223661   1.443   4.605   2.226 -0.2168 -0.3785 -0.7671
 3730SOL     OW23662   2.822   1.781   6.819  0.2651  0.3755 -0.9217
 3730SOL    HW123663   2.843   1.879   6.823  0.3555  0.3405 -0.4347
 3730SOL    HW223664   2.792   1.757   6.727  0.8727  0.7310 -1.2183
 3731SOL     OW23665   7.724   8.587   4.852 -0.3651  0.0015  0.0322
 3731SOL    HW123666   7.819   8.606   4.828 -0.1734 -0.4802  0.3983
 3731SOL    HW223667   7.713   8.590   4.952  0.0682 -3.5059  0.2455
 3732SOL     OW23668   7.649   8.862   0.263  0.0026 -0.2586  0.5106
 3732SOL    HW123669   7.741   8.863   0.302 -0.2734 -0.3343  1.1683
 3732SOL    HW223670   7.585   8.823   0.329 -0.3949 -0.8061 -0.1903
 3733SOL     OW23671   3.123   6.011   6.582 -0.1968 -0.1200  0.3202
 3733SOL    HW123672   3.096   5.999   6.677  2.5435  1.3195  1.3206
 3733SOL    HW223673   3.048   6.053   6.531 -1.2692  0.1788  2.1062
 3734SOL     OW23674   2.895   7.733   8.670  0.4554 -0.0783 -0.0347
 3734SOL    HW123675   2.813   7.784   8.646  0.5394  0.8820  1.6387
 3734SOL    HW223676   2.974   7.774   8.625  0.4756  1.0868  1.0444
 3735SOL     OW23677   4.443   0.509   7.985 -0.3913  0.1512  0.0710
 3735SOL    HW123678   4.458   0.461   7.899  0.0734 -0.3658  0.4384
 3735SOL    HW223679   4.349   0.493   8.016 -0.7456  0.8393 -0.6474
 3736SOL     OW23680   1.526   7.544   1.636 -0.1203  0.2085 -0.2014
 3736SOL    HW123681   1.595   7.614   1.655  0.1629  0.1039 -0.8306
 3736SOL    HW223682   1.509   7.539   1.538 -0.6244 -0.1465 -0.1000
 3737SOL     OW23683   6.407   7.319   6.272  0.0984  0.5545  0.1039
 3737SOL    HW123684   6.413   7.233   6.323  0.9916  0.4805 -0.1199
 3737SOL    HW223685   6.450   7.308   6.183  1.9081  1.7604  0.7947
 3738SOL     OW23686   1.320   7.374   5.691 -0.5826 -0.0346  0.3538
 3738SOL    HW123687   1.396   7.418   5.642  0.9023 -0.3757  2.2948
 3738SOL    HW223688   1.262   7.443   5.733 -0.6451  0.1786 -0.0750
 3739SOL     OW23689   6.907   5.234   7.534  0.3367 -0.3809 -0.0844
 3739SOL    HW123690   6.908   5.236   7.634  1.5711  1.5588 -0.1066
 3739SOL    HW223691   6.908   5.327   7.498  2.4528 -1.0224 -1.8826
 3740SOL     OW23692   8.738   5.128   4.298 -0.3997 -0.0997  0.1238
 3740SOL    HW123693   8.835   5.147   4.282  0.1923 -1.7391  1.5324
 3740SOL    HW223694   8.686   5.153   4.217  1.5698 -1.7159 -1.7115
 3741SOL     OW23695   1.997   5.273   8.383 -0.0011  0.2899  0.0344
 3741SOL    HW123696   2.066   5.345   8.382 -0.1828  0.4877  0.9366
 3741SOL    HW223697   2.024   5.199   8.322  0.6530  0.6926 -0.1650
 3742SOL     OW23698   1.778   7.498   8.102  0.1371 -0.1838 -0.2269
 3742SOL    HW123699   1.718   7.557   8.157  0.4575  0.1162 -0.2018
 3742SOL    HW223700   1.801   7.544   8.016 -0.6207 -0.7868 -0.7544
 3743SOL     OW23701   8.020   7.830   6.752  0.1517  0.0800 -0.6427
 3743SOL    HW123702   8.063   7.759   6.696 -0.3530 -0.3606 -0.4784
 3743SOL    HW223703   7.958   7.787   6.818  2.2574  0.4127  1.6361
 3744SOL     OW23704   2.045   4.653   7.131 -0.3067  0.0650  0.2090
 3744SOL    HW123705   2.094   4.715   7.068  0.5835 -2.2226 -1.4406
 3744SOL    HW223706   2.100   4.571   7.145 -2.3159 -1.2066  0.8068
 3745SOL     OW23707   8.427   0.963   0.978  0.5666  0.1049 -0.6519
 3745SOL    HW123708   8.434   0.925   0.885  0.4375 -0.7416 -0.3158
 3745SOL    HW223709   8.417   1.062   0.972 -0.6488 -0.0635 -1.5860
 3746SOL     OW23710   8.373   3.809   0.113  0.4667 -0.3652  0.4593
 3746SOL    HW123711   8.410   3.820   0.205 -1.8383 -1.4595  1.5485
 3746SOL    HW223712   8.335   3.895   0.081 -1.9572 -0.8007  2.0152
 3747SOL     OW23713   3.630   8.488   6.963 -0.0982 -0.0408 -0.4365
 3747SOL    HW123714   3.640   8.429   7.043 -0.1941 -1.2853 -1.3148
 3747SOL    HW223715   3.699   8.561   6.966  2.8909 -2.6710 -1.3940
 3748SOL     OW23716   6.502   5.492   1.541  0.0938  0.1536  0.5479
 3748SOL    HW123717   6.553   5.490   1.627  0.7655  2.6586  0.2320
 3748SOL    HW223718   6.517   5.579   1.495 -2.4381 -0.0863 -0.8205
 3749SOL     OW23719   6.058   7.438   6.949  0.2026 -0.3870 -0.1444
 3749SOL    HW123720   6.128   7.378   6.910 -0.0327 -0.3866 -0.5728
 3749SOL    HW223721   6.099   7.525   6.975  0.5950 -0.8203  0.7011
 3750SOL     OW23722   0.993   3.720   0.942  0.1953 -0.0549  0.0006
 3750SOL    HW123723   1.089   3.743   0.952  0.4060 -1.3706  1.1876
 3750SOL    HW223724   0.948   3.787   0.883  1.4260  1.5700  0.8974
 3751SOL     OW23725   3.996   2.337   0.588 -0.2041  0.6431  0.1641
 3751SOL    HW123726   4.007   2.434   0.611 -1.4915  0.6250  0.8960
 3751SOL    HW223727   3.899   2.312   0.594  0.4727 -1.4728  3.0940
 3752SOL     OW23728   8.613   4.187   6.507  0.3589 -0.3600 -0.3387
 3752SOL    HW123729   8.703   4.146   6.494  0.2100 -0.5880 -0.6595
 3752SOL    HW223730   8.580   4.224   6.420  1.0447  1.5826  0.2019
 3753SOL     OW23731   5.348   2.766   0.041  0.4390 -0.2341  0.1900
 3753SOL    HW123732   5.447   2.751   0.040  0.7879  1.8327  1.2688
 3753SOL    HW223733   5.322   2.811   0.127 -1.4001 -0.5474 -0.1879
 3754SOL     OW23734   8.561   6.700   0.078  0.5285  0.0077  0.4402
 3754SOL    HW123735   8.472   6.742   0.097 -0.1057 -0.7380 -0.8363
 3754SOL    HW223736   8.548   6.615   0.026  2.0445  0.4783 -0.7488
 3755SOL     OW23737   1.232   5.944   0.604 -0.6666  0.6158 -0.0715
 3755SOL    HW123738   1.243   6.037   0.638 -1.1745  0.4422  0.5787
 3755SOL    HW223739   1.225   5.881   0.681 -2.6489  0.3074 -0.4698
 3756SOL     OW23740   5.640   4.814   2.687 -0.3060  0.0929  0.2318
 3756SOL    HW123741   5.624   4.724   2.729 -1.6637  0.4327  0.4932
 3756SOL    HW223742   5.719   4.810   2.627 -0.6169 -1.4054 -0.0957
 3757SOL     OW23743   6.698   1.066   5.328  0.5228  0.2011  0.3545
 3757SOL    HW123744   6.649   1.000   5.271 -0.8846  0.1392  1.5696
 3757SOL    HW223745   6.701   1.154   5.283  0.8945 -0.2685 -0.5380
 3758SOL     OW23746   7.650   4.699   0.384  0.1973  0.8606 -0.0606
 3758SOL    HW123747   7.671   4.789   0.346  0.4982  1.3332  1.1844
 3758SOL    HW223748   7.559   4.701   0.426  0.2346  0.6128  0.0350
 3759SOL     OW23749   7.693   3.689   1.560 -0.5293 -0.7986  0.0516
 3759SOL    HW123750   7.651   3.610   1.515  0.6118 -1.1220 -0.4672
 3759SOL    HW223751   7.738   3.659   1.644  3.2837 -1.4327 -2.1243
 3760SOL     OW23752   2.077   5.228   2.665 -0.5686 -0.0023  0.2964
 3760SOL    HW123753   2.113   5.142   2.630 -3.1979 -1.1370  0.3034
 3760SOL    HW223754   2.060   5.220   2.763  0.7183  1.0946  0.6373
 3761SOL     OW23755   0.773   5.756   0.535 -0.2358 -0.1931  0.0119
 3761SOL    HW123756   0.774   5.739   0.436  2.6035  1.6443 -0.3225
 3761SOL    HW223757   0.851   5.709   0.577 -1.3263 -0.8066  1.3711
 3762SOL     OW23758   0.763   1.757   7.875  0.2052  0.3314  0.0835
 3762SOL    HW123759   0.736   1.852   7.887 -0.7055  0.0209  0.5308
 3762SOL    HW223760   0.804   1.723   7.960 -0.3684  0.0340  0.2417
 3763SOL     OW23761   2.320   0.006   7.612 -0.0299 -0.0466  0.0776
 3763SOL    HW123762   2.335   0.028   7.515 -0.1193  1.0658  0.3117
 3763SOL    HW223763   2.350   0.083   7.668 -1.4547 -0.0471  0.8497
 3764SOL     OW23764   1.758   5.208   3.155 -0.2244  0.6161  0.5988
 3764SOL    HW123765   1.808   5.220   3.241 -0.6492  2.1721  0.6363
 3764SOL    HW223766   1.672   5.260   3.159  0.0948  1.2856 -1.0444
 3765SOL     OW23767   7.850   8.140   0.721 -0.5173 -0.3577 -0.1629
 3765SOL    HW123768   7.777   8.074   0.740 -0.3373 -0.6796 -0.5992
 3765SOL    HW223769   7.855   8.158   0.623 -0.3840  0.0990 -0.0768
 3766SOL     OW23770   8.361   4.912   4.887  0.0864  0.1638  0.3484
 3766SOL    HW123771   8.308   4.877   4.965  0.5282 -1.0568  0.1041
 3766SOL    HW223772   8.353   4.849   4.810  3.5747 -1.1121  0.9616
 3767SOL     OW23773   6.513   1.160   1.525  0.4213  0.1608  0.0448
 3767SOL    HW123774   6.443   1.149   1.454  1.5484 -4.0152 -0.5582
 3767SOL    HW223775   6.588   1.216   1.490 -0.8756  1.5138 -0.6188
 3768SOL     OW23776   8.372   1.679   6.351  0.4715 -0.2072  0.3956
 3768SOL    HW123777   8.295   1.707   6.293  0.8665  1.0448  0.4508
 3768SOL    HW223778   8.450   1.657   6.293  0.2690 -0.8462  0.3674
 3769SOL     OW23779   2.624   8.515   0.099  0.5828 -0.2080  0.1172
 3769SOL    HW123780   2.618   8.588   0.167  1.1429  1.0349 -1.1591
 3769SOL    HW223781   2.532   8.483   0.077  0.3091  0.4117  0.3449
 3770SOL     OW23782   7.213   1.565   0.637  0.5920 -0.1693  0.0067
 3770SOL    HW123783   7.220   1.664   0.639 -3.0736  0.2296 -2.0069
 3770SOL    HW223784   7.288   1.527   0.583  2.6264  1.3894  1.6945
 3771SOL     OW23785   7.259   6.052   0.255 -0.6815 -0.1751  0.4687
 3771SOL    HW123786   7.192   6.125   0.260 -2.5063 -1.7173 -1.0151
 3771SOL    HW223787   7.300   6.049   0.164  0.2161 -0.2974  0.8635
 3772SOL     OW23788   7.428   1.828   8.895  0.2162 -0.4259  0.2102
 3772SOL    HW123789   7.350   1.794   8.947  0.2735 -0.2051  0.4356
 3772SOL    HW223790   7.401   1.837   8.799  0.0812 -0.7281  0.2166
 3773SOL     OW23791   5.347   6.330   8.026 -0.0459  0.3006  0.1814
 3773SOL    HW123792   5.427   6.291   8.073  1.3789 -1.8339 -3.7848
 3773SOL    HW223793   5.279   6.259   8.010 -0.6530  1.0586 -0.6769
 3774SOL     OW23794   7.795   8.374   7.671 -0.6397 -0.1785  0.3408
 3774SOL    HW123795   7.846   8.405   7.590 -1.0195  0.7632  0.4536
 3774SOL    HW223796   7.700   8.359   7.646 -0.8478  0.5212  0.7100
 3775SOL     OW23797   1.062   5.176   1.706 -0.2762  0.5932 -0.2589
 3775SOL    HW123798   1.069   5.103   1.774 -0.7363  0.6797 -0.1096
 3775SOL    HW223799   1.128   5.161   1.633 -2.3318 -1.5870 -1.7419
 3776SOL     OW23800   7.536   0.868   0.286  0.2538 -0.0328  0.5762
 3776SOL    HW123801   7.519   0.849   0.190  0.1554 -1.0774  0.7949
 3776SOL    HW223802   7.492   0.798   0.342  1.8073 -0.4215  1.3168
 3777SOL     OW23803   7.376   4.194   6.230 -0.4624  0.7341  0.5370
 3777SOL    HW123804   7.413   4.179   6.322 -1.0022 -1.9192  0.3510
 3777SOL    HW223805   7.400   4.286   6.199  2.5353  0.5227  2.0260
 3778SOL     OW23806   8.268   5.070   2.399  0.1716 -0.9024  1.0773
 3778SOL    HW123807   8.208   5.009   2.449 -1.1531  0.2294  0.9032
 3778SOL    HW223808   8.337   5.107   2.461 -1.5183  0.5674  2.1264
 3779SOL     OW23809   4.423   8.033   6.249 -0.3486  0.3010  0.6410
 3779SOL    HW123810   4.516   8.037   6.285  0.1994 -1.2411 -0.5489
 3779SOL    HW223811   4.366   7.981   6.313 -0.0911  0.1564  0.7560
 3780SOL     OW23812   3.527   8.940   0.772 -0.6899 -0.5367 -0.3331
 3780SOL    HW123813   3.499   8.951   0.676  0.2072  0.1704 -0.5153
 3780SOL    HW223814   3.609   8.993   0.789 -0.0143 -1.8137  0.4615
 3781SOL     OW23815   1.964   2.300   8.221  0.7545  0.4281  0.5024
 3781SOL    HW123816   1.916   2.242   8.155  0.2720  0.1650  1.0747
 3781SOL    HW223817   2.018   2.368   8.172  1.8194 -0.8945 -0.1958
 3782SOL     OW23818   1.916   3.092   3.229 -1.1038 -0.0856  0.4891
 3782SOL    HW123819   1.935   3.013   3.170 -1.5234 -0.5093  0.9254
 3782SOL    HW223820   1.824   3.126   3.210 -1.8196 -1.1622  1.9765
 3783SOL     OW23821   6.501   6.795   5.167  0.6102 -0.4803  0.4140
 3783SOL    HW123822   6.563   6.717   5.158  1.1062 -0.2228  1.5853
 3783SOL    HW223823   6.547   6.868   5.217  1.4264  1.9201 -3.5878
 3784SOL     OW23824   5.667   0.824   0.265  0.1677 -0.1699  0.5069
 3784SOL    HW123825   5.763   0.803   0.284 -0.1620 -2.0352  0.2874
 3784SOL    HW223826   5.637   0.772   0.185 -1.5420 -1.1153  1.7268
 3785SOL     OW23827   3.167   6.666   4.155  0.2017  0.1204 -0.5095
 3785SOL    HW123828   3.208   6.592   4.101  2.6435  1.7330 -0.9448
 3785SOL    HW223829   3.210   6.670   4.245  0.8208  1.6735 -0.8716
 3786SOL     OW23830   6.399   5.534   2.522  0.3639 -0.1194 -0.3046
 3786SOL    HW123831   6.465   5.608   2.529 -0.1273  0.6863 -3.2155
 3786SOL    HW223832   6.442   5.456   2.476 -0.1336 -0.2909 -0.4863
 3787SOL     OW23833   8.767   4.798   1.147  0.6752  0.0727 -0.1028
 3787SOL    HW123834   8.772   4.867   1.220  0.2097 -0.0493  0.0452
 3787SOL    HW223835   8.672   4.784   1.121  0.8670  0.3681 -0.9793
 3788SOL     OW23836   5.919   7.489   8.353  0.0394  0.6318 -0.0146
 3788SOL    HW123837   5.887   7.576   8.315  0.2174  0.8317  0.2974
 3788SOL    HW223838   5.841   7.438   8.389 -0.0259  0.8040  0.0894
 3789SOL     OW23839   4.899   6.214   3.045  0.3902 -0.0631 -0.7389
 3789SOL    HW123840   4.905   6.309   3.013 -1.7838  0.6559  0.8763
 3789SOL    HW223841   4.973   6.195   3.109  0.0661  0.9345 -0.0724
 3790SOL     OW23842   3.795   4.363   7.213  0.2698 -0.0069  0.0322
 3790SOL    HW123843   3.820   4.350   7.117  0.2096 -0.3810  0.0646
 3790SOL    HW223844   3.849   4.300   7.270 -2.9107 -3.0839 -0.1743
 3791SOL     OW23845   1.346   4.931   3.391 -0.0821 -0.3777  0.0969
 3791SOL    HW123846   1.436   4.948   3.352 -0.4862  0.3119 -0.5622
 3791SOL    HW223847   1.296   4.868   3.333 -0.4443  0.1349 -0.1501
 3792SOL     OW23848   6.613   7.888   1.100 -0.5276 -0.4362 -0.6041
 3792SOL    HW123849   6.596   7.919   1.007 -2.0247  0.7536  0.0551
 3792SOL    HW223850   6.555   7.938   1.164  1.6450 -0.0758  1.1628
 3793SOL     OW23851   3.797   3.812   2.795  0.8038 -0.0815 -0.8660
 3793SOL    HW123852   3.795   3.718   2.760 -0.4178 -0.4035  0.0279
 3793SOL    HW223853   3.881   3.827   2.846 -0.3821 -1.7314  1.7011
 3794SOL     OW23854   8.812   2.166   6.304  0.2855  0.7807  0.1861
 3794SOL    HW123855   8.794   2.248   6.249 -1.1470  0.5555  0.3213
 3794SOL    HW223856   8.777   2.180   6.397  1.9450  0.8322  0.8249
 3795SOL     OW23857   3.952   8.461   6.281 -0.7717  0.5662 -0.6222
 3795SOL    HW123858   4.023   8.530   6.293  0.8067 -0.5018 -3.3049
 3795SOL    HW223859   3.877   8.500   6.228 -0.6421  0.7325 -0.6864
 3796SOL     OW23860   4.286   2.614   0.526 -0.2900 -0.3198 -0.2826
 3796SOL    HW123861   4.347   2.538   0.549  1.7329  1.3456 -0.0434
 3796SOL    HW223862   4.207   2.613   0.587  0.6929 -1.0900  0.9964
 3797SOL     OW23863   3.314   3.212   8.335  0.6635 -0.5652 -0.4255
 3797SOL    HW123864   3.384   3.160   8.285 -0.8153 -1.6178 -1.4272
 3797SOL    HW223865   3.226   3.166   8.327 -0.7567  2.2956 -1.6103
 3798SOL     OW23866   8.241   4.948   6.901 -0.5059 -0.2329  0.2220
 3798SOL    HW123867   8.227   4.915   6.807 -0.3480  0.8322 -0.1822
 3798SOL    HW223868   8.287   4.877   6.954 -2.1942 -1.5437 -0.0086
 3799SOL     OW23869   8.582   2.590   6.373  0.0473 -0.2335  0.2459
 3799SOL    HW123870   8.520   2.621   6.445 -0.7137 -1.3687  0.0876
 3799SOL    HW223871   8.676   2.598   6.405 -0.2958 -1.0480  1.5165
 3800SOL     OW23872   3.362   8.761   3.062 -0.5890  0.2702 -0.2704
 3800SOL    HW123873   3.331   8.670   3.090 -1.5557  0.8724  0.6751
 3800SOL    HW223874   3.460   8.759   3.044 -0.3257 -0.6324  1.1645
 3801SOL     OW23875   7.594   4.207   5.776 -0.2307  0.1678 -0.3745
 3801SOL    HW123876   7.535   4.162   5.844 -0.8144  0.1671 -0.8791
 3801SOL    HW223877   7.547   4.210   5.688  0.9051 -0.6887 -1.0225
 3802SOL     OW23878   3.518   5.047   3.942 -0.0631  0.3073  0.5121
 3802SOL    HW123879   3.562   5.019   4.028 -0.1129 -0.2377  0.3646
 3802SOL    HW223880   3.588   5.062   3.872  0.0104  1.1759  0.7605
 3803SOL     OW23881   6.908   3.574   0.162 -0.0323 -0.6123 -0.7175
 3803SOL    HW123882   6.865   3.578   0.071 -1.2105  1.1019 -0.0990
 3803SOL    HW223883   6.948   3.663   0.184  0.6902 -1.1721  0.2539
 3804SOL     OW23884   5.792   7.503   1.054  0.6609 -0.0490  0.5545
 3804SOL    HW123885   5.783   7.589   1.004  2.5164 -0.6510 -0.8725
 3804SOL    HW223886   5.726   7.501   1.129  0.2841  2.4100  0.3282
 3805SOL     OW23887   4.206   1.329   7.929  0.0074 -0.1851 -0.0352
 3805SOL    HW123888   4.233   1.255   7.990 -0.7273 -0.4868 -0.0683
 3805SOL    HW223889   4.210   1.416   7.978 -1.4154 -0.5191  0.7179
 3806SOL     OW23890   0.781   1.616   2.113 -0.0033  0.8140 -0.1362
 3806SOL    HW123891   0.744   1.530   2.079  0.0250  0.7687 -0.0520
 3806SOL    HW223892   0.863   1.640   2.062  1.7551 -0.7585  1.8531
 3807SOL     OW23893   6.689   2.683   4.518  0.2174  0.1028  0.1250
 3807SOL    HW123894   6.641   2.618   4.459 -0.5143  1.2762 -0.5965
 3807SOL    HW223895   6.788   2.669   4.510  0.0436 -3.0528  2.4414
 3808SOL     OW23896   6.751   3.107   2.557 -0.1493 -0.0673 -0.8293
 3808SOL    HW123897   6.697   3.028   2.527  0.9834 -0.6465 -1.3430
 3808SOL    HW223898   6.755   3.174   2.483 -0.8264  0.3340 -0.5106
 3809SOL     OW23899   2.081   3.999   4.568  0.2899 -0.1461  0.7169
 3809SOL    HW123900   2.101   4.090   4.605 -0.9063  0.0938  0.8073
 3809SOL    HW223901   2.164   3.944   4.568  0.7469  0.5241  1.8528
 3810SOL     OW23902   8.304   6.651   0.827 -0.6560  0.2048  0.3038
 3810SOL    HW123903   8.220   6.633   0.776 -0.4412 -0.1205  0.0599
 3810SOL    HW223904   8.311   6.748   0.847 -0.8184  0.3160 -0.1692
 3811SOL     OW23905   8.156   5.673   0.522 -0.2534 -0.1697  0.0959
 3811SOL    HW123906   8.208   5.758   0.526  0.0938 -0.4787  4.0774
 3811SOL    HW223907   8.177   5.625   0.436  2.9142  1.6573 -0.2160
 3812SOL     OW23908   1.222   0.612   6.594 -0.0241  0.5776  0.4569
 3812SOL    HW123909   1.218   0.643   6.499  0.8801  0.5003  0.3937
 3812SOL    HW223910   1.180   0.522   6.601  1.0992  0.0015 -0.1160
 3813SOL     OW23911   2.628   2.908   7.145  0.3489  0.1061  0.5093
 3813SOL    HW123912   2.726   2.904   7.163  0.1492  0.3307  1.6984
 3813SOL    HW223913   2.583   2.828   7.185 -0.1111  0.6328  1.0677
 3814SOL     OW23914   0.976   2.679   3.449  0.7570  0.5726 -0.1417
 3814SOL    HW123915   0.950   2.711   3.540  0.0462  0.7760 -0.4080
 3814SOL    HW223916   1.056   2.730   3.417 -0.5841  2.3918 -0.7148
 3815SOL     OW23917   3.917   6.620   8.630 -0.4950 -0.6896 -0.6779
 3815SOL    HW123918   3.819   6.640   8.622 -0.7621 -1.4723  0.4500
 3815SOL    HW223919   3.963   6.645   8.545 -1.8445 -1.3208 -1.6279
 3816SOL     OW23920   3.733   2.373   0.615  0.1234  0.6068  0.5496
 3816SOL    HW123921   3.718   2.459   0.665 -0.8072  0.3297  0.7673
 3816SOL    HW223922   3.646   2.343   0.575  0.5103 -0.0767  0.2155
 3817SOL     OW23923   3.708   6.676   1.955  0.1391  0.0609 -0.2938
 3817SOL    HW123924   3.671   6.768   1.968  2.6678  0.9294  1.1242
 3817SOL    HW223925   3.803   6.683   1.925  0.6553 -2.0867  0.7600
 3818SOL     OW23926   0.871   2.849   4.864 -0.2872 -0.3154  0.1295
 3818SOL    HW123927   0.826   2.877   4.779 -2.5879  1.2317  1.8163
 3818SOL    HW223928   0.803   2.813   4.927  1.3029 -0.8232  1.5702
 3819SOL     OW23929   1.470   0.737   0.593 -0.0660  0.0871  0.9827
 3819SOL    HW123930   1.496   0.658   0.648 -0.7912 -1.6198 -1.0296
 3819SOL    HW223931   1.386   0.716   0.542 -0.3747  2.2300  0.5498
 3820SOL     OW23932   1.986   4.019   0.039  0.0508 -0.8782 -0.1491
 3820SOL    HW123933   2.007   3.996  -0.056 -1.0027  0.2213 -0.6590
 3820SOL    HW223934   2.006   4.116   0.054 -0.2964 -0.9253  0.5980
 3821SOL     OW23935   5.152   2.410   7.005  0.0020 -0.3644  0.5720
 3821SOL    HW123936   5.247   2.438   6.992 -0.4331  0.1569 -1.7287
 3821SOL    HW223937   5.096   2.489   7.029 -0.2194 -0.2485 -0.2850
 3822SOL     OW23938   4.402   0.912   5.329 -0.6026  0.1608  0.2231
 3822SOL    HW123939   4.307   0.927   5.356 -0.0699  1.6158  1.3036
 3822SOL    HW223940   4.457   0.992   5.351  1.0302 -0.9320  0.2438
 3823SOL     OW23941   1.894   2.641   1.132 -0.0756  0.7664 -0.0765
 3823SOL    HW123942   1.829   2.709   1.165 -0.5100 -0.6975  2.1783
 3823SOL    HW223943   1.860   2.549   1.153  2.5084 -0.0337  0.8092
 3824SOL     OW23944   7.618   6.124   4.982 -0.0686 -0.1968  0.7834
 3824SOL    HW123945   7.599   6.076   4.897 -0.1789 -0.2723  0.8498
 3824SOL    HW223946   7.620   6.222   4.966 -1.0778 -0.1575  0.8799
 3825SOL     OW23947   7.499   1.009   1.979  0.0740 -0.3946  0.6088
 3825SOL    HW123948   7.487   0.969   1.888  2.4190 -0.8191  0.4656
 3825SOL    HW223949   7.508   0.937   2.047 -1.1553 -0.0754  1.1317
 3826SOL     OW23950   2.913   0.390   7.263  0.4774 -0.3139 -0.2844
 3826SOL    HW123951   2.895   0.292   7.278 -0.7010  0.1508  1.5506
 3826SOL    HW223952   2.896   0.412   7.167 -3.6735 -1.0720  0.1442
 3827SOL     OW23953   7.563   1.507   0.106 -0.2594  0.1478  0.4080
 3827SOL    HW123954   7.651   1.480   0.144 -0.1405  0.7487  0.5635
 3827SOL    HW223955   7.554   1.606   0.111 -0.1756  0.2518 -1.2882
 3828SOL     OW23956   5.588   0.086   3.545 -0.4567 -0.9789 -0.0486
 3828SOL    HW123957   5.625   0.071   3.453 -1.1413 -1.7662 -0.2020
 3828SOL    HW223958   5.593   0.002   3.598  1.4914 -0.0985  1.2311
 3829SOL     OW23959   4.932   5.441   6.228  0.3580  0.4511 -0.5449
 3829SOL    HW123960   4.889   5.351   6.218  0.9198  0.2790 -1.5590
 3829SOL    HW223961   4.990   5.458   6.148  0.9836  1.3161  0.0937
 3830SOL     OW23962   5.919   7.899   1.707  0.0012 -0.6311 -0.3848
 3830SOL    HW123963   5.941   7.807   1.738  0.7905 -1.4006 -3.0646
 3830SOL    HW223964   5.949   7.910   1.612 -1.9671  1.7086 -0.7812
 3831SOL     OW23965   4.108   8.580   8.243 -0.0439  0.1293  0.0637
 3831SOL    HW123966   4.084   8.591   8.147  0.0046  1.3925  0.1897
 3831SOL    HW223967   4.043   8.517   8.286 -0.2675 -0.1778 -0.7133
 3832SOL     OW23968   5.781   6.627   4.007  0.4076  0.3707  0.7671
 3832SOL    HW123969   5.682   6.608   4.008  0.4038  0.1108 -1.7652
 3832SOL    HW223970   5.796   6.724   3.993  0.4965  0.1032 -1.1311
 3833SOL     OW23971   4.901   6.054   0.549 -0.2999 -0.4591  0.5394
 3833SOL    HW123972   4.855   5.996   0.617  0.5836 -2.4398 -0.5109
 3833SOL    HW223973   4.849   6.054   0.464  0.2662 -0.6118  0.1880
 3834SOL     OW23974   8.214   3.267   4.156 -0.4763 -0.1045  0.2173
 3834SOL    HW123975   8.190   3.319   4.238  1.9190  0.2567  0.7440
 3834SOL    HW223976   8.138   3.268   4.091 -1.8942  0.7430  1.8638
 3835SOL     OW23977   6.194   5.673   7.747 -0.0590  0.2006 -0.7438
 3835SOL    HW123978   6.159   5.752   7.798  0.1225 -1.6705  2.4143
 3835SOL    HW223979   6.292   5.683   7.734 -0.7634  2.8751 -4.8915
 3836SOL     OW23980   7.710   7.319   6.175  0.0281 -0.5251 -0.3274
 3836SOL    HW123981   7.677   7.309   6.268  1.2479  3.3522  0.6006
 3836SOL    HW223982   7.809   7.335   6.175  0.3279 -2.0470 -2.4171
 3837SOL     OW23983   1.288   2.972   3.132 -0.1227 -0.3192 -0.0966
 3837SOL    HW123984   1.335   3.040   3.188 -1.0693  0.2860 -0.0191
 3837SOL    HW223985   1.262   3.014   3.045 -3.1821  0.2682  1.0554
 3838SOL     OW23986   6.410   4.267   7.428  0.1376  0.0419  0.7175
 3838SOL    HW123987   6.330   4.315   7.465  0.2875  0.3748  0.6082
 3838SOL    HW223988   6.493   4.299   7.475  0.3196  0.3972  0.1572
 3839SOL     OW23989   4.647   3.608   1.177 -0.0684 -0.3858 -0.1118
 3839SOL    HW123990   4.669   3.640   1.270 -1.8990 -1.1060  0.6117
 3839SOL    HW223991   4.548   3.601   1.168 -0.0247  1.7474 -2.8572
 3840SOL     OW23992   7.403   6.964   2.389  0.2887  0.3958 -0.3339
 3840SOL    HW123993   7.317   6.990   2.345 -1.3119  0.6133  2.8076
 3840SOL    HW223994   7.453   6.901   2.329 -1.5209  1.1151 -2.6743
 3841SOL     OW23995   6.631   3.644   3.483  0.2365  0.5724  0.3887
 3841SOL    HW123996   6.645   3.674   3.389 -0.0757 -1.3206 -0.3005
 3841SOL    HW223997   6.697   3.572   3.506  1.1200  1.8521  2.0553
 3842SOL     OW23998   8.176   1.413   8.380  0.4244 -0.2968 -0.3173
 3842SOL    HW123999   8.232   1.355   8.320 -0.0207  0.4595 -1.4662
 3842SOL    HW224000   8.126   1.355   8.444  0.2670 -1.1711 -1.2210
 3843SOL     OW24001   4.417   2.048   3.741  0.0653 -0.0874  0.0111
 3843SOL    HW124002   4.400   2.146   3.747 -0.1866 -0.1511  0.3469
 3843SOL    HW224003   4.340   2.003   3.695  0.6151 -0.0020 -1.0108
 3844SOL     OW24004   6.950   5.645   8.365  0.6253 -0.1592  0.7067
 3844SOL    HW124005   6.992   5.706   8.298 -1.2143  0.7353  0.3450
 3844SOL    HW224006   6.956   5.551   8.333 -0.6910  0.3138 -0.9518
 3845SOL     OW24007   7.568   5.274   5.701 -0.0344  0.5344  0.2217
 3845SOL    HW124008   7.633   5.199   5.693  1.4215  1.8701 -0.8079
 3845SOL    HW224009   7.512   5.279   5.618  0.2097  0.8805  0.0758
 3846SOL     OW24010   6.113   3.003   0.669  0.2926 -0.4585  0.7820
 3846SOL    HW124011   6.080   3.086   0.714  0.6585 -0.5532  1.2345
 3846SOL    HW224012   6.211   2.994   0.683  0.4818 -0.2819 -0.3942
 3847SOL     OW24013   1.712   1.404   4.603  0.0025 -0.3920 -0.0211
 3847SOL    HW124014   1.733   1.358   4.689 -0.3440  1.9587  1.3462
 3847SOL    HW224015   1.690   1.500   4.620  0.5451  0.2748 -2.8105
 3848SOL     OW24016   0.027   8.479   6.928 -0.1884  0.5700  0.3900
 3848SOL    HW124017   0.090   8.482   7.006 -2.1164  2.0196  1.9217
 3848SOL    HW224018   0.017   8.570   6.889  1.4934 -0.2854 -2.2390
 3849SOL     OW24019   5.047   8.233   7.725 -0.0382 -0.4426 -0.1461
 3849SOL    HW124020   4.967   8.191   7.768 -1.3065  2.1923  0.1823
 3849SOL    HW224021   5.093   8.293   7.791  0.7624 -0.0488 -1.0489
 3850SOL     OW24022   2.891   5.685   1.337  0.4285 -0.5144 -0.1811
 3850SOL    HW124023   2.851   5.763   1.289  0.4319 -1.1292 -1.2045
 3850SOL    HW224024   2.972   5.654   1.288  1.1627 -0.3647  0.9296
 3851SOL     OW24025   8.285   8.064   7.540 -0.2403 -0.4315 -0.4357
 3851SOL    HW124026   8.374   8.096   7.509 -0.1142  0.1222  0.4612
 3851SOL    HW224027   8.226   8.142   7.559 -1.6629 -0.8070 -3.0618
 3852SOL     OW24028   1.377   0.870   1.944  0.4136 -0.4090  0.0957
 3852SOL    HW124029   1.316   0.920   1.883  1.3887  0.0939 -0.4759
 3852SOL    HW224030   1.342   0.876   2.038 -1.3989 -1.6781 -0.4660
 3853SOL     OW24031   6.696   5.229   1.035  0.2209  0.1426  0.5690
 3853SOL    HW124032   6.615   5.284   1.015 -1.0654 -1.6689  0.7565
 3853SOL    HW224033   6.744   5.268   1.114  0.3690  2.0598 -0.4167
 3854SOL     OW24034   5.373   5.028   5.968 -0.1289  0.5655  0.3145
 3854SOL    HW124035   5.440   5.017   5.895  0.0450 -0.5538  0.6291
 3854SOL    HW224036   5.408   5.094   6.035  2.1885 -2.3785  2.1520
 3855SOL     OW24037   8.556   6.365   2.230  0.0769  0.1958  0.6370
 3855SOL    HW124038   8.522   6.403   2.144  0.0222  0.7725  0.9036
 3855SOL    HW224039   8.483   6.312   2.274 -0.1684  0.6010  0.7277
 3856SOL     OW24040   6.953   4.218   7.980 -0.1174 -0.2979  0.0446
 3856SOL    HW124041   7.021   4.262   7.921 -0.2717  0.9607  0.7723
 3856SOL    HW224042   6.935   4.125   7.948  1.2363 -0.3072 -0.7178
 3857SOL     OW24043   2.748   8.397   2.666  0.1951 -0.0521  0.9320
 3857SOL    HW124044   2.728   8.300   2.682 -0.3378 -1.0440 -4.5833
 3857SOL    HW224045   2.847   8.411   2.664  0.3072 -0.8882  0.0961
 3858SOL     OW24046   2.855   7.997   3.099  0.0811 -0.3692  0.1538
 3858SOL    HW124047   2.901   7.943   3.028  2.2073  2.4663 -0.7329
 3858SOL    HW224048   2.788   8.057   3.056  0.5992  0.5735  0.6454
 3859SOL     OW24049   8.093   3.257   1.495  0.2023  0.1632  0.2966
 3859SOL    HW124050   8.185   3.226   1.474  1.0090  3.6405 -1.6390
 3859SOL    HW224051   8.027   3.199   1.447  1.4746 -0.8742 -0.2314
 3860SOL     OW24052   5.022   8.164   1.692 -0.1093 -0.2996  0.3399
 3860SOL    HW124053   5.115   8.195   1.712 -0.2561  0.7488 -0.5605
 3860SOL    HW224054   4.994   8.097   1.761  0.5223  0.9609  1.8545
 3861SOL     OW24055   2.264   7.029   1.760 -0.1394  0.1829 -0.5878
 3861SOL    HW124056   2.298   7.065   1.846 -1.8059  0.4745 -0.0349
 3861SOL    HW224057   2.196   6.957   1.778 -0.3571  0.1106 -1.6535
 3862SOL     OW24058   6.806   5.378   7.227 -0.0950  0.1578  0.1827
 3862SOL    HW124059   6.866   5.300   7.209 -0.2691  0.8054 -3.5545
 3862SOL    HW224060   6.859   5.453   7.266  0.9971 -0.2524 -0.4936
 3863SOL     OW24061   4.041   5.553   6.992  0.4607  0.4440 -0.7159
 3863SOL    HW124062   4.086   5.474   6.950  1.2149 -0.1327  1.1376
 3863SOL    HW224063   4.109   5.623   7.012  0.5855 -0.3802  1.9835
 3864SOL     OW24064   1.389   6.790   4.053  0.0382 -0.4988  0.4230
 3864SOL    HW124065   1.326   6.809   4.128 -1.4664 -2.6141 -0.2591
 3864SOL    HW224066   1.458   6.724   4.083  0.4206 -0.1032  0.4210
 3865SOL     OW24067   0.022   6.053   5.501 -0.3470 -0.1630  0.2759
 3865SOL    HW124068   0.110   6.085   5.465 -1.4024  2.8169  0.2751
 3865SOL    HW224069  -0.047   6.058   5.430 -0.7777 -1.5107  0.5847
 3866SOL     OW24070   8.759   2.523   4.309  0.1316  0.2403 -0.3449
 3866SOL    HW124071   8.796   2.607   4.270 -1.9014  0.0576 -2.7608
 3866SOL    HW224072   8.688   2.486   4.249 -0.2928 -2.2291  1.5817
 3867SOL     OW24073   4.035   2.101   3.153  0.0115  0.0087 -0.0981
 3867SOL    HW124074   3.984   2.125   3.071 -1.1687  3.1092  1.4607
 3867SOL    HW224075   3.972   2.071   3.225  0.5438  1.6322  1.0860
 3868SOL     OW24076   2.196   2.008   4.098  0.3797  0.5856 -0.0918
 3868SOL    HW124077   2.191   2.026   4.000  1.4690 -5.2829 -1.4516
 3868SOL    HW224078   2.104   1.986   4.133  0.2948  0.6240 -0.2944
 3869SOL     OW24079   5.044   6.119   7.231  0.2736 -0.0424  0.2708
 3869SOL    HW124080   5.027   6.111   7.133 -2.5135  0.9149  0.6289
 3869SOL    HW224081   5.061   6.214   7.255 -2.7980  0.3596  1.1833
 3870SOL     OW24082   5.422   4.777   3.297  0.0419 -0.5924 -0.4774
 3870SOL    HW124083   5.492   4.766   3.368  0.5720  2.9027 -0.3451
 3870SOL    HW224084   5.466   4.802   3.211 -0.9501  0.5627 -0.6638
 3871SOL     OW24085   6.072   0.031   0.557  0.2522 -0.3351 -0.3920
 3871SOL    HW124086   5.976   0.028   0.531 -0.2914 -0.2862  1.4786
 3871SOL    HW224087   6.102  -0.060   0.584  0.9663 -0.5040 -1.7171
 3872SOL     OW24088   5.300   0.150   2.975 -0.1898  0.3579  0.2677
 3872SOL    HW124089   5.244   0.090   2.918 -0.1334  0.4384  0.1286
 3872SOL    HW224090   5.368   0.195   2.919  1.3077 -1.2357  0.7437
 3873SOL     OW24091   3.957   6.611   4.779  0.2131 -0.1860  0.0034
 3873SOL    HW124092   3.858   6.625   4.769  0.4748  1.7812 -0.1016
 3873SOL    HW224093   3.995   6.685   4.834  1.6097 -1.0508  0.2127
 3874SOL     OW24094   0.583   5.001   6.929  0.1587  0.4147  0.0941
 3874SOL    HW124095   0.520   5.041   6.996 -0.2228 -0.3001  0.1591
 3874SOL    HW224096   0.565   4.904   6.919 -0.0363  0.5811 -1.3242
 3875SOL     OW24097   4.341   8.622   8.493  0.3764  0.2431  0.2623
 3875SOL    HW124098   4.309   8.635   8.399  0.2685 -1.5037  0.0399
 3875SOL    HW224099   4.328   8.527   8.520 -1.0978  1.0700  2.6280
 3876SOL     OW24100   3.613   7.642   0.940 -0.3523  0.3148 -0.1891
 3876SOL    HW124101   3.514   7.630   0.937 -0.4222  0.8729 -0.3226
 3876SOL    HW224102   3.646   7.667   0.849 -0.2999  1.5823  0.1564
 3877SOL     OW24103   0.590   4.475   2.201 -0.2525  0.3067 -0.1365
 3877SOL    HW124104   0.572   4.407   2.130  0.4645  0.1954 -0.2119
 3877SOL    HW224105   0.644   4.550   2.162 -3.3640  2.3287 -0.7978
 3878SOL     OW24106   2.373   7.684   6.232  0.7339  0.3102  0.1695
 3878SOL    HW124107   2.430   7.736   6.296  1.7234  0.5341 -0.8694
 3878SOL    HW224108   2.285   7.730   6.221  0.2829 -0.1277  1.9150
 3879SOL     OW24109   5.795   7.946   0.968 -0.0948  0.4565 -0.0750
 3879SOL    HW124110   5.802   7.868   1.031  2.3798  0.8247  0.1828
 3879SOL    HW224111   5.742   8.019   1.011 -1.4539 -0.6351  0.1447
 3880SOL     OW24112   0.628   4.119   0.073  0.2158  0.3581  0.1308
 3880SOL    HW124113   0.565   4.176   0.019 -2.2698 -2.7804 -0.4829
 3880SOL    HW224114   0.687   4.068   0.011 -0.5674 -0.9679  0.4515
 3881SOL     OW24115   5.591   3.650   5.431  0.0021 -0.0074  0.0021
 3881SOL    HW124116   5.571   3.719   5.361  0.2090  0.5964  0.5393
 3881SOL    HW224117   5.682   3.666   5.469 -0.3431  0.0162  0.8257
 3882SOL     OW24118   4.452   1.661   1.424  0.5278  0.9128  0.5966
 3882SOL    HW124119   4.395   1.674   1.504  0.2232 -1.3309  0.7742
 3882SOL    HW224120   4.464   1.563   1.407  1.5435  1.3600 -1.4118
 3883SOL     OW24121   4.673   7.371   1.221 -0.0893 -0.2486  0.4212
 3883SOL    HW124122   4.672   7.468   1.243  1.0828 -0.4707  1.5429
 3883SOL    HW224123   4.651   7.319   1.304  0.7321 -0.9867  0.1808
 3884SOL     OW24124   8.899   6.661   2.122 -0.4308  0.4770 -0.2739
 3884SOL    HW124125   8.925   6.587   2.060 -0.6691  0.8222 -0.7878
 3884SOL    HW224126   8.854   6.622   2.203 -0.3053  0.0394 -0.4121
 3885SOL     OW24127   1.747   8.403   6.614  0.5028 -0.9519 -0.5349
 3885SOL    HW124128   1.807   8.323   6.614  1.9289  0.0941  1.0775
 3885SOL    HW224129   1.799   8.484   6.587  0.1001  0.1406  1.8293
 3886SOL     OW24130   0.015   5.534   2.515  0.1682  0.7306 -0.3234
 3886SOL    HW124131   0.009   5.440   2.481 -0.8470  0.6231  0.1443
 3886SOL    HW224132  -0.004   5.597   2.440 -2.8983  0.4768  0.1900
 3887SOL     OW24133   3.541   8.113   0.108  0.3302 -0.2551  0.4106
 3887SOL    HW124134   3.526   8.194   0.051 -1.6637 -0.3822  0.7123
 3887SOL    HW224135   3.547   8.139   0.204 -2.6964 -0.6513  0.7594
 3888SOL     OW24136   2.170   5.890   3.158  0.5442 -0.8019  0.3010
 3888SOL    HW124137   2.135   5.984   3.158  1.7512 -0.3105  3.2321
 3888SOL    HW224138   2.132   5.841   3.080 -1.0123  1.7772 -0.6406
 3889SOL     OW24139   6.919   0.436   8.309 -0.0831  0.0546 -0.3182
 3889SOL    HW124140   7.000   0.388   8.343  0.5031  2.2853  1.5715
 3889SOL    HW224141   6.946   0.503   8.240 -0.6252 -0.7866 -1.3621
 3890SOL     OW24142   3.289   0.488   1.969  0.0799 -0.4693  0.3044
 3890SOL    HW124143   3.314   0.419   1.902 -0.1339 -0.3300  0.0800
 3890SOL    HW224144   3.220   0.549   1.930  0.0734 -0.2905  0.5933
 3891SOL     OW24145   8.576   7.126   6.696  0.0809 -0.4052  0.6557
 3891SOL    HW124146   8.548   7.030   6.700  0.3425 -0.3993  2.5940
 3891SOL    HW224147   8.519   7.173   6.628 -0.9636 -1.6129  0.6637
 3892SOL     OW24148   8.827   5.761   5.074  0.4151  0.2868  0.0248
 3892SOL    HW124149   8.900   5.704   5.036  1.3540 -0.5467  2.9074
 3892SOL    HW224150   8.749   5.704   5.099 -0.3559  0.8760 -1.0057
 3893SOL     OW24151   7.762   6.683   6.706  0.2567 -0.4280 -0.4051
 3893SOL    HW124152   7.736   6.587   6.706 -1.2163 -0.0642  1.6140
 3893SOL    HW224153   7.854   6.694   6.744 -0.2498 -0.8873  0.9714
 3894SOL     OW24154   1.257   5.061   1.982 -0.1665  0.3111  0.2091
 3894SOL    HW124155   1.301   5.010   2.056 -0.4989 -1.5356 -0.8415
 3894SOL    HW224156   1.281   5.158   1.990 -1.2917  0.3878  3.5235
 3895SOL     OW24157   4.309   6.350   3.380  0.1411  0.3713 -0.3409
 3895SOL    HW124158   4.227   6.342   3.324 -0.2113  0.5224  0.1575
 3895SOL    HW224159   4.336   6.259   3.413  0.8391  0.1555 -1.4437
 3896SOL     OW24160   4.263   7.121   3.110  0.0373 -0.4982 -0.7927
 3896SOL    HW124161   4.205   7.100   3.189 -0.0720  0.1184 -0.7060
 3896SOL    HW224162   4.212   7.176   3.045  0.6225  0.2988 -0.5796
 3897SOL     OW24163   2.291   7.757   8.722 -0.2808  1.2228  0.1415
 3897SOL    HW124164   2.303   7.660   8.739  0.7713  1.4495  0.7519
 3897SOL    HW224165   2.312   7.777   8.626 -1.1927  0.7529 -0.1708
 3898SOL     OW24166   6.324   8.238   0.757  0.0752  0.7931 -0.1781
 3898SOL    HW124167   6.360   8.266   0.668 -0.3211  1.2146 -0.2069
 3898SOL    HW224168   6.235   8.195   0.745  0.2728  0.3290 -0.0382
 3899SOL     OW24169   3.793   6.697   6.221  0.4698 -0.4756  0.1377
 3899SOL    HW124170   3.754   6.775   6.171  0.1862 -1.2103 -0.7959
 3899SOL    HW224171   3.766   6.612   6.176 -1.6437 -1.2658  2.8066
 3900SOL     OW24172   0.248   7.266   3.838 -0.1367 -1.0581 -0.1207
 3900SOL    HW124173   0.336   7.223   3.856 -1.5016 -3.6482  0.5914
 3900SOL    HW224174   0.186   7.199   3.797 -1.4166  1.0607 -1.7442
 3901SOL     OW24175   0.870   1.692   6.194  0.6397  0.1484  0.7853
 3901SOL    HW124176   0.842   1.678   6.099 -0.2306 -0.3692  1.1179
 3901SOL    HW224177   0.794   1.673   6.255  1.8542 -1.7781  1.7396
 3902SOL     OW24178   0.572   8.448   0.465 -0.5030 -0.2376  0.2815
 3902SOL    HW124179   0.549   8.441   0.562  0.7775 -1.2716  0.5394
 3902SOL    HW224180   0.619   8.364   0.437  0.5292  0.7043 -0.8352
 3903SOL     OW24181   1.350   4.006   4.426  0.9638 -0.4090  0.8847
 3903SOL    HW124182   1.313   4.079   4.368  1.6225 -0.9674 -0.2722
 3903SOL    HW224183   1.282   3.980   4.494 -1.1296 -1.9313 -1.6615
 3904SOL     OW24184   8.430   4.611   3.501 -0.2178 -0.6765 -0.4950
 3904SOL    HW124185   8.418   4.512   3.496 -1.7248 -0.6347  1.5185
 3904SOL    HW224186   8.399   4.643   3.590  1.7168  1.4214 -0.5324
 3905SOL     OW24187   1.601   8.811   5.205  0.2556 -0.2165 -0.1543
 3905SOL    HW124188   1.688   8.849   5.238  1.0098 -1.0602 -1.1189
 3905SOL    HW224189   1.620   8.738   5.139 -1.1939 -0.5670 -0.1935
 3906SOL     OW24190   2.993   8.354   1.680  0.5922 -0.1007 -0.0397
 3906SOL    HW124191   3.067   8.287   1.674  2.1717  1.4907  1.0722
 3906SOL    HW224192   2.993   8.411   1.598 -1.0799 -1.7645 -1.2204
 3907SOL     OW24193   2.232   5.534   3.576  0.2086  0.0349  0.0495
 3907SOL    HW124194   2.210   5.481   3.658  0.2473 -0.6714 -0.3971
 3907SOL    HW224195   2.147   5.560   3.529  0.2053  0.0293  0.0525
 3908SOL     OW24196   3.503   8.835   7.930 -0.1768 -0.4662  0.2365
 3908SOL    HW124197   3.470   8.851   7.837 -0.2921 -0.6562  0.2464
 3908SOL    HW224198   3.485   8.741   7.957 -1.6362  0.0349  1.0576
 3909SOL     OW24199   8.888   6.267   6.339  0.2040 -0.3897  0.0009
 3909SOL    HW124200   8.866   6.170   6.345  2.2540 -0.7872  1.4751
 3909SOL    HW224201   8.805   6.318   6.314 -1.4654 -2.2166  1.6177
 3910SOL     OW24202   1.230   4.431   2.167  0.1249 -0.2311  0.0392
 3910SOL    HW124203   1.274   4.368   2.103 -1.3836 -0.7532 -0.5063
 3910SOL    HW224204   1.274   4.520   2.163  0.8346 -0.6180 -0.8274
 3911SOL     OW24205   4.900   8.910   2.975  0.2361 -0.8307 -0.5249
 3911SOL    HW124206   4.904   8.823   3.024 -1.9074  0.7206  2.6319
 3911SOL    HW224207   4.813   8.916   2.925 -0.4498  0.1825  0.7484
 3912SOL     OW24208   4.460   6.811   8.440  0.3031 -0.2211  0.3467
 3912SOL    HW124209   4.515   6.749   8.496  0.7344  0.0773  0.2616
 3912SOL    HW224210   4.504   6.822   8.350  0.1678  0.1139  0.3205
 3913SOL     OW24211   4.258   0.392   5.001  0.1306 -0.0962 -0.1809
 3913SOL    HW124212   4.217   0.352   4.919  0.2526 -1.4959  0.4269
 3913SOL    HW224213   4.306   0.476   4.977  3.3109 -2.4112 -2.2008
 3914SOL     OW24214   8.412   2.714   7.395  0.6473 -0.2111 -0.6307
 3914SOL    HW124215   8.390   2.796   7.447  0.4585  0.0907 -1.1837
 3914SOL    HW224216   8.353   2.639   7.425  0.9879 -0.2099  0.0473
 3915SOL     OW24217   2.493   5.357   0.777  0.1930  0.6104 -0.4830
 3915SOL    HW124218   2.425   5.312   0.835  0.9510 -1.5460 -1.1981
 3915SOL    HW224219   2.454   5.373   0.686  0.1423  0.7448 -0.4367
 3916SOL     OW24220   8.469   6.076   1.810  0.3676 -0.1203  0.3233
 3916SOL    HW124221   8.444   6.095   1.905  0.7144 -1.0589  0.6106
 3916SOL    HW224222   8.552   6.126   1.787  1.1710 -1.1282  1.0094
 3917SOL     OW24223   2.931   1.783   0.917  0.4242 -0.2425 -0.4472
 3917SOL    HW124224   2.936   1.712   0.847  0.6285  1.4319 -2.1717
 3917SOL    HW224225   2.838   1.818   0.922  0.5595  0.1130 -0.3853
 3918SOL     OW24226   0.937   5.194   7.946 -0.3261 -0.4549 -0.1762
 3918SOL    HW124227   0.962   5.218   8.039  0.9511  1.0971 -0.8959
 3918SOL    HW224228   1.016   5.159   7.897 -0.5238  0.5049 -1.2195
 3919SOL     OW24229   0.455   1.648   8.778 -0.0075 -0.1587  0.1400
 3919SOL    HW124230   0.510   1.731   8.764 -0.1317  0.0692  0.9498
 3919SOL    HW224231   0.389   1.639   8.704 -0.9264  1.2325  0.7554
 3920SOL     OW24232   3.553   0.460   7.629 -0.5015 -0.7258  0.5242
 3920SOL    HW124233   3.583   0.518   7.705 -1.1578 -1.5358  1.4149
 3920SOL    HW224234   3.617   0.384   7.618 -1.2253 -1.4543  1.2628
 3921SOL     OW24235   6.535   4.306   2.414 -0.8800  0.7196  0.7457
 3921SOL    HW124236   6.460   4.256   2.456  0.1481 -0.5097  1.1532
 3921SOL    HW224237   6.576   4.249   2.342 -0.3332  1.3669  0.5464
 3922SOL     OW24238   4.072   5.201   3.426  0.3235  0.4366  0.1746
 3922SOL    HW124239   4.168   5.176   3.410  0.7418  1.7242  0.6203
 3922SOL    HW224240   4.060   5.226   3.522 -0.7471 -0.9417  0.4153
 3923SOL     OW24241   3.618   7.690   0.479  0.4791  0.2967 -0.0112
 3923SOL    HW124242   3.646   7.750   0.403 -0.3015  0.1391 -0.4336
 3923SOL    HW224243   3.675   7.709   0.559  0.4680  1.3749 -0.2421
 3924SOL     OW24244   0.156   2.923   3.624 -0.4975 -0.0125  0.6113
 3924SOL    HW124245   0.192   2.941   3.715  0.5830 -0.6743  0.3274
 3924SOL    HW224246   0.144   2.824   3.611 -0.5378  0.0644  0.0097
 3925SOL     OW24247   1.732   3.325   5.764 -0.7169 -0.2134  0.0944
 3925SOL    HW124248   1.736   3.325   5.664 -0.0903 -1.0963  0.1128
 3925SOL    HW224249   1.636   3.334   5.794 -0.8810  0.2819 -0.5818
 3926SOL     OW24250   5.577   5.191   7.291  0.0223  0.3126 -0.9916
 3926SOL    HW124251   5.579   5.217   7.195 -0.0945 -0.6433 -1.2580
 3926SOL    HW224252   5.496   5.135   7.309 -2.0333  3.5689  0.4864
 3927SOL     OW24253   0.598   7.627   0.390 -0.9156  0.1585 -0.0792
 3927SOL    HW124254   0.609   7.686   0.309 -1.6756  0.7211  0.2156
 3927SOL    HW224255   0.559   7.681   0.465  0.0719 -0.2868  0.7619
 3928SOL     OW24256   5.820   3.297   3.125  0.0672 -0.1582  0.4601
 3928SOL    HW124257   5.827   3.198   3.118  0.6079 -0.0673 -0.2705
 3928SOL    HW224258   5.882   3.330   3.196  1.0868 -0.1765 -0.4229
 3929SOL     OW24259   2.007   3.204   4.175 -0.6070  0.5754 -0.2355
 3929SOL    HW124260   1.951   3.180   4.096  1.0021  0.2268 -1.3059
 3929SOL    HW224261   2.097   3.161   4.166  0.2352  2.0647  0.8367
 3930SOL     OW24262   0.880   4.034   4.571  0.7550 -0.4899 -0.1689
 3930SOL    HW124263   0.952   3.965   4.561  2.0755  1.0948 -1.7556
 3930SOL    HW224264   0.850   4.065   4.481 -1.7182 -0.8858  0.4707
 3931SOL     OW24265   7.138   4.290   1.139  0.0866 -0.5204 -0.1098
 3931SOL    HW124266   7.150   4.389   1.145 -0.1108 -0.4408 -1.0577
 3931SOL    HW224267   7.215   4.244   1.185  0.7710  0.0599 -0.6616
 3932SOL     OW24268   5.300   1.694   6.481 -0.4816  0.0228 -0.3832
 3932SOL    HW124269   5.325   1.659   6.390  0.7325  1.5403 -0.6496
 3932SOL    HW224270   5.224   1.758   6.473 -1.9238 -1.5879 -0.0271
 3933SOL     OW24271   8.972   1.893   0.277 -0.2092  0.3528  0.1639
 3933SOL    HW124272   9.062   1.871   0.316 -0.8416 -0.3173  1.2931
 3933SOL    HW224273   8.934   1.973   0.324 -0.0132  0.9040 -0.6145
 3934SOL     OW24274   0.012   0.041   0.897  1.0281  0.1619 -0.4860
 3934SOL    HW124275   0.096   0.010   0.852  0.4624 -0.5067 -1.0992
 3934SOL    HW224276  -0.053   0.074   0.828  1.0212  1.2669  0.0336
 3935SOL     OW24277   1.652   2.360   4.672 -0.0251 -0.2567  0.0643
 3935SOL    HW124278   1.682   2.421   4.599 -1.7593 -1.6299 -1.8491
 3935SOL    HW224279   1.718   2.285   4.681 -0.5838 -0.9185 -1.1802
 3936SOL     OW24280   1.566   1.238   7.443  0.2543  0.3591  0.0518
 3936SOL    HW124281   1.559   1.249   7.343 -0.9223  1.4585  0.2449
 3936SOL    HW224282   1.589   1.143   7.464 -2.2959 -0.6011 -1.1824
 3937SOL     OW24283   3.851   8.420   2.706  0.2435 -0.0012 -0.3360
 3937SOL    HW124284   3.868   8.324   2.730 -0.0431  0.0198 -0.0453
 3937SOL    HW224285   3.831   8.471   2.790 -1.2191 -0.0128 -0.6777
 3938SOL     OW24286   6.272   0.500   0.439 -0.3046 -0.5869 -0.5110
 3938SOL    HW124287   6.270   0.405   0.470  4.2233 -0.2543  1.2154
 3938SOL    HW224288   6.204   0.553   0.490  0.1197 -2.0647  1.6642
 3939SOL     OW24289   3.616   4.237   3.244  0.1871 -0.1528  0.0342
 3939SOL    HW124290   3.611   4.333   3.271  0.4984 -0.6068  1.7663
 3939SOL    HW224291   3.554   4.183   3.300  0.6318 -1.0948 -0.3591
 3940SOL     OW24292   0.626   8.861   4.884 -0.0179  0.0567  0.7741
 3940SOL    HW124293   0.657   8.940   4.832 -1.3418 -0.0742 -0.2514
 3940SOL    HW224294   0.645   8.777   4.832 -1.9204 -0.0318  0.1731
 3941SOL     OW24295   6.892   2.224   2.831 -0.0609 -0.3196 -0.3086
 3941SOL    HW124296   6.922   2.211   2.926  1.5345  3.1048 -0.2417
 3941SOL    HW224297   6.945   2.164   2.771  1.1402 -0.2874  0.6830
 3942SOL     OW24298   1.585   5.229   4.539  0.0471 -0.0888 -0.1802
 3942SOL    HW124299   1.658   5.178   4.494  1.6305 -0.1557  2.3501
 3942SOL    HW224300   1.622   5.313   4.579 -1.6801  0.9046 -0.6075
 3943SOL     OW24301   6.543   4.875   4.251  0.3256  0.2445  0.0889
 3943SOL    HW124302   6.478   4.929   4.198  0.2930  0.5338  0.4249
 3943SOL    HW224303   6.634   4.884   4.212 -0.2068 -1.9643 -1.7674
 3944SOL     OW24304   7.454   8.727   1.959  0.2489  0.0710  0.0327
 3944SOL    HW124305   7.404   8.669   2.023 -0.6899  1.7144  0.8078
 3944SOL    HW224306   7.515   8.670   1.904 -1.2926 -1.7734  0.1639
 3945SOL     OW24307   1.282   0.764   6.344  0.3737 -0.0733  0.3941
 3945SOL    HW124308   1.346   0.835   6.376  0.5212 -1.4943  3.4323
 3945SOL    HW224309   1.332   0.695   6.292  0.2847  1.8182 -2.2976
 3946SOL     OW24310   0.217   3.551   5.480 -0.4832 -0.1231  0.0294
 3946SOL    HW124311   0.215   3.650   5.494  0.3998  0.0515 -1.0121
 3946SOL    HW224312   0.173   3.506   5.557 -1.0920  1.0907  0.4091
 3947SOL     OW24313   4.552   6.199   2.166 -0.0223 -0.3558  0.1391
 3947SOL    HW124314   4.456   6.172   2.168 -0.2616  0.6345  2.3257
 3947SOL    HW224315   4.566   6.268   2.095 -0.6314 -1.5267 -1.1405
 3948SOL     OW24316   3.760   1.956   5.283  0.7036  0.2855 -0.3710
 3948SOL    HW124317   3.812   2.038   5.307  1.5940  0.0113 -1.3238
 3948SOL    HW224318   3.695   1.977   5.210 -1.0725  0.8032  1.3141
 3949SOL     OW24319   4.730   8.613   0.001 -0.0424 -0.2560 -0.2724
 3949SOL    HW124320   4.702   8.623  -0.094 -0.0182  1.4104 -0.1290
 3949SOL    HW224321   4.747   8.704   0.040 -0.9808 -0.8557  1.5961
 3950SOL     OW24322   7.376   7.530   6.510  0.2870  0.2344 -0.2292
 3950SOL    HW124323   7.294   7.586   6.511  0.7827  1.0052 -2.1913
 3950SOL    HW224324   7.398   7.503   6.416  1.1150 -1.6772  0.4871
 3951SOL     OW24325   3.733   6.492   3.437  0.7101  0.3051  0.0661
 3951SOL    HW124326   3.657   6.428   3.439 -0.1669  1.2773 -0.9922
 3951SOL    HW224327   3.791   6.473   3.357  1.1460  0.0472  0.4431
 3952SOL     OW24328   7.560   7.020   5.761  0.2892 -0.2858  0.4789
 3952SOL    HW124329   7.594   7.006   5.668  0.8615 -0.4325  0.7031
 3952SOL    HW224330   7.546   6.931   5.805  0.7720 -0.2091  0.7952
 3953SOL     OW24331   2.131   4.822   1.072  0.1494  0.4618  0.1770
 3953SOL    HW124332   2.080   4.784   1.148  1.7517 -0.2908  0.8792
 3953SOL    HW224333   2.104   4.918   1.058  0.5244  0.9019  2.3034
 3954SOL     OW24334   3.911   0.992   0.406  0.3863 -0.2437 -0.5554
 3954SOL    HW124335   3.818   0.980   0.441  0.3824 -0.6657 -0.7065
 3954SOL    HW224336   3.908   1.024   0.312  0.3877 -0.5076 -0.6481
 3955SOL     OW24337   8.770   6.520   2.346  0.0857 -0.6727 -0.5759
 3955SOL    HW124338   8.744   6.616   2.357  1.1630 -0.2993 -1.1671
 3955SOL    HW224339   8.693   6.467   2.313  0.1291  0.4354 -2.4972
 3956SOL     OW24340   4.744   1.046   4.061 -0.1168 -0.2457 -0.1467
 3956SOL    HW124341   4.687   1.097   4.125  0.4075  0.1070  0.0428
 3956SOL    HW224342   4.741   1.090   3.971 -0.4208 -0.4270 -0.2246
 3957SOL     OW24343   2.029   6.594   3.139  0.3002  0.5599  0.1449
 3957SOL    HW124344   1.948   6.615   3.193 -0.4710  1.5809 -1.3718
 3957SOL    HW224345   2.102   6.659   3.162  0.0900  0.7668  0.2299
 3958SOL     OW24346   7.346   2.118   0.651  0.3441  0.5886  0.6794
 3958SOL    HW124347   7.415   2.163   0.707  1.9919 -0.7479 -0.2600
 3958SOL    HW224348   7.289   2.188   0.606  2.9011  1.7655 -0.8287
 3959SOL     OW24349   8.039   4.005   6.071  0.5546  0.3207 -0.6655
 3959SOL    HW124350   7.968   4.034   6.134  0.9820 -0.7478  0.3103
 3959SOL    HW224351   8.012   3.921   6.026  1.0293  0.1209 -0.5799
 3960SOL     OW24352   0.609   2.965   4.906 -0.5594  0.1005 -0.0368
 3960SOL    HW124353   0.617   2.914   4.821  0.9646 -0.8052  0.6408
 3960SOL    HW224354   0.636   3.060   4.890 -0.8550  0.0776 -0.6973
 3961SOL     OW24355   5.569   5.036   7.777  0.0692 -0.4542  0.1812
 3961SOL    HW124356   5.562   5.109   7.709 -0.9309 -1.9071 -1.3380
 3961SOL    HW224357   5.606   4.954   7.733  1.1014 -0.8902  1.8359
 3962SOL     OW24358   4.610   4.177   1.114 -0.2295  0.1916  0.7239
 3962SOL    HW124359   4.600   4.081   1.089 -0.3044 -0.1094  1.8965
 3962SOL    HW224360   4.645   4.228   1.035  2.5907 -1.2927  0.9405
 3963SOL     OW24361   2.762   2.636   6.969 -0.4515  0.0313  0.2530
 3963SOL    HW124362   2.663   2.631   6.955 -0.1102  0.9451 -2.9734
 3963SOL    HW224363   2.807   2.572   6.906  1.0974  1.4882 -0.1638
 3964SOL     OW24364   8.824   4.574   1.567 -0.2186  0.3854 -0.3003
 3964SOL    HW124365   8.857   4.595   1.659 -0.1374 -0.8283 -0.0503
 3964SOL    HW224366   8.725   4.590   1.563  0.0305  1.9429 -0.4478
 3965SOL     OW24367   0.216   2.220   2.786 -0.0539  0.1071 -0.7157
 3965SOL    HW124368   0.297   2.171   2.755 -1.6944 -1.7917 -2.1148
 3965SOL    HW224369   0.154   2.157   2.833 -0.4272  1.6703  0.9634
 3966SOL     OW24370   8.400   7.274   6.498  0.6879 -0.4856  0.5307
 3966SOL    HW124371   8.433   7.362   6.466 -4.1655  2.4153  2.8111
 3966SOL    HW224372   8.367   7.220   6.420  2.1702  0.4027 -0.7292
 3967SOL     OW24373   7.257   6.129   3.975  0.2900 -0.3027  0.8343
 3967SOL    HW124374   7.266   6.051   3.913 -3.6994 -1.4742  1.5641
 3967SOL    HW224375   7.204   6.101   4.055 -0.9961  3.0777  1.2342
 3968SOL     OW24376   1.972   8.457   7.159 -0.4845 -0.5880  0.2900
 3968SOL    HW124377   1.874   8.462   7.182 -0.9719  1.7596 -2.1530
 3968SOL    HW224378   2.019   8.536   7.198  0.4133 -1.5506  1.1871
 3969SOL     OW24379   5.664   8.151   1.945  0.3618 -0.0053  0.0674
 3969SOL    HW124380   5.698   8.135   2.038 -2.5278  1.3712  1.4667
 3969SOL    HW224381   5.636   8.247   1.936 -2.5932 -0.8897 -1.0508
 3970SOL     OW24382   1.561   2.273   5.066 -0.1535  0.2571  0.0423
 3970SOL    HW124383   1.650   2.226   5.069 -0.2466  0.1296  1.2593
 3970SOL    HW224384   1.569   2.357   5.013  0.4478 -0.2609 -0.6960
 3971SOL     OW24385   2.849   3.164   4.490  0.7728 -0.3603 -0.0969
 3971SOL    HW124386   2.930   3.182   4.435  0.6602 -0.4774 -0.3026
 3971SOL    HW224387   2.807   3.250   4.518  1.0952 -0.2985  0.2002
 3972SOL     OW24388   3.072   1.154   5.259 -0.5961 -0.2063  0.8474
 3972SOL    HW124389   3.086   1.218   5.183  0.4540  0.8828  1.9526
 3972SOL    HW224390   3.119   1.187   5.340  0.3882 -2.6295  1.3217
 3973SOL     OW24391   8.591   6.580   4.506 -0.2030  0.5659 -0.2479
 3973SOL    HW124392   8.560   6.609   4.415 -0.8161  1.1230  0.1337
 3973SOL    HW224393   8.612   6.482   4.504  1.8969  1.0086 -1.5580
 3974SOL     OW24394   8.722   5.406   1.605  0.0010 -0.0537  0.5848
 3974SOL    HW124395   8.683   5.431   1.693 -0.5461 -1.0032  0.6134
 3974SOL    HW224396   8.652   5.412   1.534  0.4315  0.6772  0.2110
 3975SOL     OW24397   7.291   7.921   7.943  0.5621 -0.0024  0.0030
 3975SOL    HW124398   7.346   7.866   7.880  0.1161  0.6792 -0.9959
 3975SOL    HW224399   7.236   7.860   8.001  1.9299 -0.6691  0.6359
 3976SOL     OW24400   1.019   6.352   0.850  0.0975  0.3154  0.4858
 3976SOL    HW124401   0.987   6.447   0.853 -0.8255  0.0719 -1.2147
 3976SOL    HW224402   1.107   6.349   0.803 -0.1997  0.2536 -0.0735
 3977SOL     OW24403   6.253   1.287   0.990  0.5152  0.2765  0.0282
 3977SOL    HW124404   6.348   1.300   1.018  0.3562  0.1513  0.6312
 3977SOL    HW224405   6.234   1.343   0.909  1.4321 -0.6099 -0.8150
 3978SOL     OW24406   6.377   7.902   7.867  0.5587  0.1348  0.0623
 3978SOL    HW124407   6.279   7.912   7.853  0.7113  0.8086 -0.5479
 3978SOL    HW224408   6.394   7.824   7.928 -0.5123  1.7228  2.4999
 3979SOL     OW24409   8.065   6.712   7.036 -0.6622  0.0079  0.1457
 3979SOL    HW124410   8.031   6.694   7.128  0.8784 -0.0682  0.7182
 3979SOL    HW224411   8.112   6.800   7.035 -1.9449  0.6989 -0.9311
 3980SOL     OW24412   7.365   6.387   3.854  0.1697  0.0796  0.1974
 3980SOL    HW124413   7.331   6.478   3.877 -0.4569  0.1943 -1.1110
 3980SOL    HW224414   7.315   6.319   3.907 -1.3799  0.3243 -0.9104
 3981SOL     OW24415   6.032   3.338   2.897 -0.5133 -0.1634 -0.0257
 3981SOL    HW124416   5.950   3.335   2.954 -0.0348  0.3427  0.7091
 3981SOL    HW224417   6.043   3.251   2.849 -0.8771 -0.6279  0.7292
 3982SOL     OW24418   5.943   8.139   2.701  0.1770  0.3234 -0.1778
 3982SOL    HW124419   5.974   8.105   2.789  1.7720 -1.0480 -1.2208
 3982SOL    HW224420   5.859   8.091   2.673  0.9005 -0.8478 -0.3936
 3983SOL     OW24421   3.506   6.413   1.671 -0.0533  0.0933 -0.0492
 3983SOL    HW124422   3.556   6.343   1.721 -1.0176  0.5494  1.6025
 3983SOL    HW224423   3.420   6.433   1.719 -0.4281  1.4164 -1.2424
 3984SOL     OW24424   0.531   4.472   2.822  0.2238 -0.5286 -0.4412
 3984SOL    HW124425   0.495   4.387   2.859 -1.1702 -0.2107 -1.0393
 3984SOL    HW224426   0.469   4.507   2.751  1.3119  0.4381 -0.9322
 3985SOL     OW24427   3.933   8.923   0.100 -0.1777  0.0006 -0.1789
 3985SOL    HW124428   3.971   8.840   0.139  0.3610  1.1810  1.8584
 3985SOL    HW224429   3.999   8.963   0.036  0.8069  0.4317  1.0765
 3986SOL     OW24430   6.726   8.930   8.714 -0.3666 -0.3801 -0.2620
 3986SOL    HW124431   6.770   9.017   8.736 -1.2461  0.0926 -0.3344
 3986SOL    HW224432   6.733   8.913   8.616  0.1795 -0.6011 -0.1863
 3987SOL     OW24433   3.356   3.923   5.892 -0.0312  0.4824  0.3936
 3987SOL    HW124434   3.257   3.925   5.903 -0.1418 -0.2221 -0.3866
 3987SOL    HW224435   3.380   3.962   5.803  0.3743  0.5438  0.5315
 3988SOL     OW24436   8.887   2.597   2.036 -0.2435  0.1466  0.0324
 3988SOL    HW124437   8.900   2.690   2.071 -0.9203  0.5363 -0.7400
 3988SOL    HW224438   8.884   2.533   2.113 -0.2385  0.8159  0.5995
 3989SOL     OW24439   5.171   7.313   8.397 -0.2030  0.5612 -0.8893
 3989SOL    HW124440   5.263   7.338   8.428 -0.4972  2.1200 -1.2000
 3989SOL    HW224441   5.175   7.228   8.346  0.8907  0.0175  0.0699
 3990SOL     OW24442   1.295   7.594   2.339  0.5781  0.3208 -0.0664
 3990SOL    HW124443   1.371   7.539   2.374 -0.3983 -0.6341  0.5841
 3990SOL    HW224444   1.211   7.541   2.343  0.0344  1.0392 -1.6699
 3991SOL     OW24445   4.462   3.210   1.219  0.1461 -0.1550  0.7652
 3991SOL    HW124446   4.532   3.160   1.169 -0.6706 -2.1771  1.6185
 3991SOL    HW224447   4.504   3.260   1.295  0.6930 -1.1486  1.1168
 3992SOL     OW24448   4.406   8.292   5.089  0.3844  0.0619 -0.6417
 3992SOL    HW124449   4.490   8.321   5.042 -0.3639  0.5191 -1.7075
 3992SOL    HW224450   4.404   8.333   5.181  0.9972  0.6147 -0.8662
 3993SOL     OW24451   4.124   7.107   1.054  0.3106  0.6224  0.5713
 3993SOL    HW124452   4.208   7.062   1.084  0.0613 -0.3539 -0.1982
 3993SOL    HW224453   4.125   7.202   1.086  0.3650 -0.1888  3.0551
 3994SOL     OW24454   1.832   6.067   1.936 -0.7808  0.2694 -0.1293
 3994SOL    HW124455   1.882   6.019   1.864  0.8463  1.9542 -0.1574
 3994SOL    HW224456   1.872   6.046   2.025 -1.7644 -0.5248  0.1380
 3995SOL     OW24457   8.500   6.547   3.256  0.3595 -0.2762 -0.0761
 3995SOL    HW124458   8.447   6.614   3.204  0.2228 -0.4092 -0.1077
 3995SOL    HW224459   8.439   6.473   3.287  0.1846  0.4585  1.3809
 3996SOL     OW24460   3.436   0.021   4.532  0.1955 -0.0755 -0.3954
 3996SOL    HW124461   3.426  -0.059   4.589  0.9663 -0.2205 -0.4596
 3996SOL    HW224462   3.368   0.019   4.459  0.0732 -0.5599 -0.2668
 3997SOL     OW24463   8.739   6.630   5.111 -0.1104 -0.4936  0.0640
 3997SOL    HW124464   8.732   6.539   5.071  1.5197 -1.1878  1.3128
 3997SOL    HW224465   8.812   6.631   5.180  0.4952  1.9813 -0.5641
 3998SOL     OW24466   2.324   0.544   2.994  0.1711  0.0405 -0.2228
 3998SOL    HW124467   2.330   0.481   2.917  0.0825 -0.4649  0.1803
 3998SOL    HW224468   2.294   0.495   3.076 -1.8179  0.9788 -0.3525
 3999SOL     OW24469   5.419   4.371   4.401  0.3069 -0.0591  0.8271
 3999SOL    HW124470   5.368   4.411   4.325  1.0847 -0.2925  0.1683
 3999SOL    HW224471   5.419   4.434   4.479 -0.3984  0.2310  0.5942
 4000SOL     OW24472   5.377   4.060   5.125 -0.2535  0.4912  0.0665
 4000SOL    HW124473   5.332   4.052   5.036  1.0880 -2.5359 -0.3924
 4000SOL    HW224474   5.460   4.116   5.115  0.6854 -1.0389 -0.9412
 4001SOL     OW24475   4.132   3.929   1.167 -0.0132  0.1715 -0.7121
 4001SOL    HW124476   4.094   3.842   1.135 -1.9784  1.5667 -2.2951
 4001SOL    HW224477   4.072   3.968   1.238  1.0878  0.0347  0.3060
 4002SOL     OW24478   0.321   8.900   6.664 -0.1082 -0.2657 -0.4001
 4002SOL    HW124479   0.391   8.969   6.681  0.2332 -0.3664 -1.3162
 4002SOL    HW224480   0.346   8.814   6.709 -0.7743  0.3379  1.1387
 4003SOL     OW24481   2.669   3.277   3.287 -0.2674  0.0967 -0.0349
 4003SOL    HW124482   2.722   3.192   3.286 -2.0504 -1.0297 -1.7936
 4003SOL    HW224483   2.663   3.313   3.194  0.8082  2.4056  0.7405
 4004SOL     OW24484   5.792   4.758   8.694 -0.4909 -0.0055 -0.2636
 4004SOL    HW124485   5.702   4.802   8.697 -0.0869  0.9214 -1.2574
 4004SOL    HW224486   5.843   4.792   8.614  0.9423 -0.1211  0.5859
 4005SOL     OW24487   6.854   6.871   5.931  0.3400 -0.4699  0.4670
 4005SOL    HW124488   6.851   6.772   5.941 -0.0558 -0.2994  2.0650
 4005SOL    HW224489   6.933   6.896   5.874 -0.2037 -1.7607 -0.8806
 4006SOL     OW24490   3.161   4.116   8.313 -0.8400  0.0118  0.6424
 4006SOL    HW124491   3.156   4.215   8.297  0.5985  0.3317  2.0515
 4006SOL    HW224492   3.238   4.078   8.262 -1.2756 -0.3489  0.2518
 4007SOL     OW24493   7.987   2.756   6.767  0.0089 -0.1651  0.4264
 4007SOL    HW124494   8.021   2.662   6.757  1.3615  0.4258 -0.7508
 4007SOL    HW224495   8.060   2.820   6.743 -1.4602  1.1640 -0.5774
 4008SOL     OW24496   6.762   2.915   4.242  0.1455 -0.4251 -0.2809
 4008SOL    HW124497   6.778   2.847   4.314 -0.4195 -0.5016 -0.2191
 4008SOL    HW224498   6.830   2.988   4.249 -0.7752  0.3121  1.2596
 4009SOL     OW24499   6.967   7.804   7.904 -0.3271 -0.1313 -0.1026
 4009SOL    HW124500   7.028   7.773   7.977 -0.3022 -2.1314 -0.9433
 4009SOL    HW224501   6.884   7.749   7.904 -0.1102 -0.4884 -1.8630
 4010SOL     OW24502   3.835   2.581   5.916 -0.1838 -0.1415 -0.2198
 4010SOL    HW124503   3.820   2.678   5.935  0.9936 -0.3089  1.5888
 4010SOL    HW224504   3.867   2.535   5.998 -0.0921 -1.9434 -1.2412
 4011SOL     OW24505   7.600   1.179   6.188 -0.5063  0.1349  0.4016
 4011SOL    HW124506   7.605   1.103   6.254 -0.7580  0.4910  0.8350
 4011SOL    HW224507   7.691   1.196   6.150 -0.4464 -0.3720  0.3172
 4012SOL     OW24508   8.918   5.321   1.468 -0.2175  0.9679 -0.0295
 4012SOL    HW124509   8.836   5.346   1.519  0.1333  1.5967  0.2153
 4012SOL    HW224510   8.902   5.338   1.370 -0.6624  0.3338 -0.0783
 4013SOL     OW24511   0.297   4.613   4.579  0.3556 -0.4040 -0.1149
 4013SOL    HW124512   0.247   4.695   4.549  1.0437 -0.0975 -0.4529
 4013SOL    HW224513   0.388   4.613   4.536  1.0560 -0.3841  1.3546
 4014SOL     OW24514   0.527   0.112   6.667  0.1283  0.0505  0.1464
 4014SOL    HW124515   0.495   0.206   6.669 -1.7437 -0.5132 -1.4171
 4014SOL    HW224516   0.581   0.097   6.584 -0.9344 -0.6401 -0.4413
 4015SOL     OW24517   6.076   7.178   8.862 -0.2937 -0.1959  0.2251
 4015SOL    HW124518   6.165   7.215   8.886  0.6400 -1.9193 -0.5067
 4015SOL    HW224519   6.028   7.243   8.802  1.7523 -0.5776 -1.9117
 4016SOL     OW24520   2.770   2.623   7.683  0.3614 -0.1898 -0.1300
 4016SOL    HW124521   2.804   2.531   7.666 -0.7563 -0.2819 -2.1473
 4016SOL    HW224522   2.670   2.621   7.686  0.2288  1.2078 -2.1615
 4017SOL     OW24523   2.725   0.331   7.723 -0.9074 -0.6710  1.2403
 4017SOL    HW124524   2.787   0.270   7.773  1.1874 -0.4815 -1.0783
 4017SOL    HW224525   2.768   0.419   7.708 -1.4386 -0.7536 -0.9906
 4018SOL     OW24526   4.610   2.626   6.932 -0.4749 -0.2375 -0.1229
 4018SOL    HW124527   4.665   2.706   6.956 -0.2423  0.0985 -1.7248
 4018SOL    HW224528   4.517   2.654   6.910 -0.7747 -0.5829  0.6679
 4019SOL     OW24529   3.619   1.927   1.225 -0.0001  0.1669  0.3260
 4019SOL    HW124530   3.627   1.837   1.267 -2.0783 -0.8267 -1.3353
 4019SOL    HW224531   3.616   1.997   1.296 -1.4136 -1.3146  1.7513
 4020SOL     OW24532   5.867   1.886   1.106 -0.6134  0.2464  0.4028
 4020SOL    HW124533   5.821   1.873   1.194 -0.2324 -1.4980  0.3601
 4020SOL    HW224534   5.965   1.871   1.118 -0.6329 -0.5490 -0.4472
 4021SOL     OW24535   1.534   1.481   0.687  0.1551 -0.2029  0.2104
 4021SOL    HW124536   1.468   1.556   0.688  0.2966 -0.0775  0.1883
 4021SOL    HW224537   1.601   1.494   0.760  1.2518  0.6669 -0.9032
 4022SOL     OW24538   0.074   8.982   1.871 -0.1288  0.2741 -0.2611
 4022SOL    HW124539   0.158   9.035   1.868 -0.0847  0.3160  1.2104
 4022SOL    HW224540   0.085   8.905   1.934 -0.7596 -0.4885 -1.0591
 4023SOL     OW24541   5.526   4.743   7.678 -0.5141  0.1182 -0.4689
 4023SOL    HW124542   5.482   4.663   7.637 -0.0216 -0.5758  0.3161
 4023SOL    HW224543   5.537   4.727   7.777  0.7036  0.6301 -0.5072
 4024SOL     OW24544   7.942   2.987   4.892  0.2716  0.1553  0.2797
 4024SOL    HW124545   7.850   3.026   4.902 -0.6162 -0.9920 -2.7661
 4024SOL    HW224546   7.996   3.043   4.829 -0.1752 -2.0230 -2.1340
 4025SOL     OW24547   3.142   7.394   5.333  0.2654 -0.0669 -0.3997
 4025SOL    HW124548   3.176   7.432   5.419  2.1434  1.3546 -1.7377
 4025SOL    HW224549   3.126   7.468   5.268 -1.8945 -1.0594 -1.0492
 4026SOL     OW24550   1.576   7.246   2.278 -0.5152  0.2010  0.0490
 4026SOL    HW124551   1.605   7.155   2.306 -0.5124  0.1656 -0.0665
 4026SOL    HW224552   1.598   7.259   2.181  0.0833  0.5626  0.2267
 4027SOL     OW24553   2.638   0.377   7.343 -0.4432 -0.0514  0.1424
 4027SOL    HW124554   2.631   0.278   7.357  0.1201 -0.4821 -2.2343
 4027SOL    HW224555   2.732   0.406   7.359 -0.3018 -0.1493 -0.4982
 4028SOL     OW24556   4.786   2.984   7.434  0.0892  0.4458 -0.9063
 4028SOL    HW124557   4.836   3.053   7.381 -0.3980  1.6076  0.1256
 4028SOL    HW224558   4.839   2.962   7.517 -1.2063  1.9141  0.3520
 4029SOL     OW24559   2.823   1.451   7.565 -0.7208  0.3962 -0.2497
 4029SOL    HW124560   2.821   1.423   7.469 -0.6954  0.4401 -0.2629
 4029SOL    HW224561   2.741   1.417   7.611  0.3213 -1.5301  0.2522
 4030SOL     OW24562   7.427   4.771   6.324 -0.2055  0.5566  0.5338
 4030SOL    HW124563   7.379   4.793   6.240  2.0142  0.9764 -0.6574
 4030SOL    HW224564   7.486   4.691   6.309  1.0653  1.3264  1.3469
 4031SOL     OW24565   0.391   8.928   5.743 -0.1320 -0.0074  0.1879
 4031SOL    HW124566   0.412   8.881   5.829  0.2200  1.1065  0.7096
 4031SOL    HW224567   0.389   8.860   5.669 -0.9919 -1.0557  1.1463
 4032SOL     OW24568   0.192   5.250   0.290  0.3347  0.8202  0.1445
 4032SOL    HW124569   0.106   5.300   0.281 -0.8990 -1.5106 -1.4385
 4032SOL    HW224570   0.173   5.160   0.329  2.1153  0.4175  0.0822
 4033SOL     OW24571   2.592   3.285   6.439  0.0749 -0.4344  0.3534
 4033SOL    HW124572   2.584   3.188   6.461  3.0477 -1.0389 -0.9861
 4033SOL    HW224573   2.619   3.296   6.343  1.3084  1.6475  0.8960
 4034SOL     OW24574   2.602   3.959   0.118  0.6403  0.1693 -0.2597
 4034SOL    HW124575   2.535   4.011   0.065  0.5336  0.2588 -0.0381
 4034SOL    HW224576   2.688   3.952   0.066  0.6339  0.5097 -0.3153
 4035SOL     OW24577   0.281   8.961   7.042 -0.5435 -0.5771  0.1849
 4035SOL    HW124578   0.234   8.873   7.049 -0.4385 -0.5681  1.1432
 4035SOL    HW224579   0.370   8.949   6.999 -1.5312 -0.5499 -1.9311
 4036SOL     OW24580   0.851   7.579   4.534 -0.1955  0.0789  0.0435
 4036SOL    HW124581   0.861   7.663   4.481 -1.6104  1.2689  1.6345
 4036SOL    HW224582   0.941   7.542   4.556  0.4198  0.6407 -1.4798
 4037SOL     OW24583   5.740   2.996   0.185  0.6021 -0.6369  0.7714
 4037SOL    HW124584   5.821   3.032   0.232  2.1283 -2.1379 -0.6728
 4037SOL    HW224585   5.658   3.020   0.238  1.9108  1.3685  1.9780
 4038SOL     OW24586   7.342   4.265   0.497  0.4271 -0.7727 -0.0548
 4038SOL    HW124587   7.250   4.255   0.459 -0.4631  3.8600  0.5159
 4038SOL    HW224588   7.337   4.268   0.597  0.7099  2.4818 -0.0750
 4039SOL     OW24589   8.828   4.833   5.597  0.0141 -0.6591 -0.4639
 4039SOL    HW124590   8.890   4.860   5.523 -0.5630 -0.7301 -0.9756
 4039SOL    HW224591   8.825   4.906   5.666  0.7749 -0.7212 -0.3646
 4040SOL     OW24592   3.767   1.227   2.536 -0.0894  0.1763  0.2933
 4040SOL    HW124593   3.818   1.143   2.522  1.3339  1.0709  0.0704
 4040SOL    HW224594   3.669   1.206   2.541  0.2768 -1.5092  0.5099
 4041SOL     OW24595   6.379   5.751   2.832 -0.4113  0.2607 -0.3750
 4041SOL    HW124596   6.331   5.833   2.864  0.7058  0.5693  0.5314
 4041SOL    HW224597   6.422   5.705   2.909 -1.0812 -1.2247 -0.8755
 4042SOL     OW24598   4.491   8.789   0.219 -0.2629  0.5708 -0.9474
 4042SOL    HW124599   4.549   8.821   0.144  1.2940 -0.1646 -0.0800
 4042SOL    HW224600   4.440   8.866   0.258  1.4106  1.5207 -0.6234
 4043SOL     OW24601   6.099   4.805   3.361  0.6787 -0.4512 -0.5551
 4043SOL    HW124602   6.192   4.778   3.388 -0.2493 -1.5725  1.6221
 4043SOL    HW224603   6.103   4.891   3.311  2.7759  0.0851  0.4703
 4044SOL     OW24604   2.661   6.573   8.583  0.1952  0.2623  0.6667
 4044SOL    HW124605   2.643   6.554   8.680  1.1703 -1.5100  0.5277
 4044SOL    HW224606   2.623   6.499   8.527 -2.9439  2.7177 -0.5608
 4045SOL     OW24607   1.254   8.009   6.065 -0.4562  0.4235 -0.1073
 4045SOL    HW124608   1.296   7.925   6.032  0.4493  1.1604 -0.8515
 4045SOL    HW224609   1.296   8.037   6.151 -1.7784 -0.6800  0.9152
 4046SOL     OW24610   8.732   5.890   5.616  0.6370  0.5175 -0.0651
 4046SOL    HW124611   8.702   5.973   5.568 -1.0469  0.3476  0.6796
 4046SOL    HW224612   8.671   5.872   5.693  0.9606 -1.4614 -0.2546
 4047SOL     OW24613   1.328   8.590   8.734  0.2315 -0.0620 -0.5421
 4047SOL    HW124614   1.269   8.662   8.698 -0.8864  0.5976  2.4138
 4047SOL    HW224615   1.316   8.585   8.833  3.8076 -1.1684 -0.1077
 4048SOL     OW24616   6.928   8.465   5.208  0.1874  0.6092 -0.0466
 4048SOL    HW124617   6.968   8.444   5.119 -0.5687  0.9136 -0.4707
 4048SOL    HW224618   6.893   8.381   5.250 -0.1459  0.5721 -0.3906
 4049SOL     OW24619   7.618   6.615   4.662  0.0264 -0.6514  0.4081
 4049SOL    HW124620   7.607   6.578   4.569 -1.0875  0.7024 -0.0231
 4049SOL    HW224621   7.698   6.674   4.665 -0.9649  0.7362 -0.1725
 4050SOL     OW24622   7.401   2.584   3.794 -0.1394  0.1968  0.8352
 4050SOL    HW124623   7.422   2.497   3.839  0.0591  0.9623  2.2401
 4050SOL    HW224624   7.461   2.594   3.714 -1.4455 -1.7960 -0.4415
 4051SOL     OW24625   8.066   4.583   3.415  0.1190  0.0831  0.4220
 4051SOL    HW124626   8.155   4.606   3.375  0.1885 -1.4992 -0.3775
 4051SOL    HW224627   8.069   4.598   3.514  1.1161  0.4843  0.3361
 4052SOL     OW24628   1.183   4.016   4.833  0.0433 -0.2070  0.0250
 4052SOL    HW124629   1.268   4.034   4.882 -0.1732  0.0382  0.3107
 4052SOL    HW224630   1.126   3.954   4.885 -0.0133 -0.2647 -0.1042
 4053SOL     OW24631   5.543   2.425   0.596 -0.0653 -0.0778  0.1536
 4053SOL    HW124632   5.480   2.394   0.525 -0.9544 -0.7505  1.2022
 4053SOL    HW224633   5.497   2.495   0.652  0.6851  0.5768 -0.0488
 4054SOL     OW24634   3.900   5.449   5.565  0.0055 -0.2989 -0.1202
 4054SOL    HW124635   3.897   5.352   5.544  0.8265 -0.5941  1.1129
 4054SOL    HW224636   3.975   5.492   5.514  0.4997 -0.5661  0.3830
 4055SOL     OW24637   5.352   8.285   7.096 -0.4625  0.4058 -0.1701
 4055SOL    HW124638   5.421   8.308   7.028 -0.4969  0.4585 -0.1873
 4055SOL    HW224639   5.374   8.196   7.137 -1.6967 -0.7700 -1.9445
 4056SOL     OW24640   7.906   1.256   5.278  0.0448 -0.0230 -0.2584
 4056SOL    HW124641   7.846   1.291   5.350 -0.6681 -0.8917 -0.4153
 4056SOL    HW224642   7.918   1.158   5.290  0.3798 -0.0747 -0.9983
 4057SOL     OW24643   2.093   2.622   5.066 -0.0951  0.6107  0.2159
 4057SOL    HW124644   2.033   2.546   5.042  1.3096 -0.8724  1.2899
 4057SOL    HW224645   2.040   2.694   5.111 -1.4407  0.3011 -0.8415
 4058SOL     OW24646   6.719   8.192   0.321  0.3044 -0.4859 -0.4481
 4058SOL    HW124647   6.758   8.267   0.267 -0.4766 -0.2289 -0.6514
 4058SOL    HW224648   6.791   8.153   0.379  0.5123  0.9819  0.2992
 4059SOL     OW24649   5.837   4.829   1.974 -0.3099 -0.4709  0.2138
 4059SOL    HW124650   5.870   4.756   1.915 -1.6785  0.0238 -1.1800
 4059SOL    HW224651   5.751   4.802   2.018 -1.6287  0.8392 -1.4827
 4060SOL     OW24652   6.299   6.134   7.515  0.4484 -0.0833 -0.1526
 4060SOL    HW124653   6.228   6.183   7.464 -0.0250 -0.5796  0.0250
 4060SOL    HW224654   6.294   6.160   7.612 -1.3196 -2.2136  0.3605
 4061SOL     OW24655   1.177   3.322   3.314 -0.1387 -0.5946 -0.2097
 4061SOL    HW124656   1.093   3.345   3.266  0.3005  0.2293 -0.5798
 4061SOL    HW224657   1.254   3.323   3.251  0.3904  0.1793  0.4325
 4062SOL     OW24658   1.861   7.275   6.910  0.5426 -0.1673  0.1422
 4062SOL    HW124659   1.859   7.227   6.998  0.0776  1.3621  0.9870
 4062SOL    HW224660   1.875   7.209   6.837  0.4384 -1.5272  1.3166
 4063SOL     OW24661   8.785   5.139   7.229 -0.0962  0.3230  0.5157
 4063SOL    HW124662   8.802   5.220   7.285  2.5640 -1.3013  2.1317
 4063SOL    HW224663   8.724   5.164   7.153  0.3590  3.7382  1.1762
 4064SOL     OW24664   4.023   3.979   3.287 -0.4970  0.1680 -0.3619
 4064SOL    HW124665   4.015   3.898   3.229  2.1602 -0.4577  0.0681
 4064SOL    HW224666   4.119   3.990   3.315 -1.3250  1.8012  1.9516
 4065SOL     OW24667   8.770   3.781   0.049  0.0969  0.0290  0.7654
 4065SOL    HW124668   8.868   3.766   0.062  0.1762 -1.4387 -1.3235
 4065SOL    HW224669   8.723   3.692   0.047 -0.8624  0.5641 -1.2893
 4066SOL     OW24670   8.805   2.834   5.065 -0.2343 -0.1738 -0.7401
 4066SOL    HW124671   8.888   2.858   5.015 -0.2964 -1.2130 -1.3443
 4066SOL    HW224672   8.827   2.765   5.134 -0.4364  0.1560 -0.3467
 4067SOL     OW24673   0.676   4.551   6.773  0.2520  0.8071 -0.1919
 4067SOL    HW124674   0.590   4.520   6.733  0.1417  0.8352  0.0260
 4067SOL    HW224675   0.747   4.482   6.757 -0.0569  0.3194  0.5262
 4068SOL     OW24676   6.571   2.205   7.420  0.5584  0.1423  0.3552
 4068SOL    HW124677   6.549   2.292   7.464  2.1391  0.2095  1.0711
 4068SOL    HW224678   6.639   2.221   7.348  0.9937 -0.5127  0.6114
 4069SOL     OW24679   3.840   0.902   3.934  0.3554  0.0614  0.0334
 4069SOL    HW124680   3.847   0.938   3.841  0.4521 -0.1930 -0.0605
 4069SOL    HW224681   3.809   0.807   3.931 -0.2445  0.2437  0.2960
 4070SOL     OW24682   7.566   8.451   8.846  0.7077 -0.0170 -0.2267
 4070SOL    HW124683   7.515   8.393   8.909  0.4841  1.7691  1.2671
 4070SOL    HW224684   7.579   8.403   8.759 -0.1163 -1.9884  0.7267
 4071SOL     OW24685   2.389   1.030   3.652 -0.1040  0.2886  0.3973
 4071SOL    HW124686   2.386   1.129   3.667  1.8004  0.4544 -0.2070
 4071SOL    HW224687   2.384   0.983   3.740 -2.2625  0.8763  0.6125
 4072SOL     OW24688   5.235   7.599   1.744 -0.4668 -0.5911  0.6438
 4072SOL    HW124689   5.212   7.670   1.811  1.9454 -0.6949  1.6327
 4072SOL    HW224690   5.241   7.510   1.791  0.4192 -0.7976  0.1434
 4073SOL     OW24691   5.151   6.349   0.238  0.1992  0.3014 -0.3963
 4073SOL    HW124692   5.181   6.286   0.166  0.1858  1.9254 -1.8612
 4073SOL    HW224693   5.142   6.299   0.324  1.4833 -1.4181 -1.2157
 4074SOL     OW24694   0.193   0.211   3.880 -0.6620  0.7818 -0.1727
 4074SOL    HW124695   0.183   0.304   3.917 -1.3223  0.5756  0.1727
 4074SOL    HW224696   0.165   0.209   3.784 -0.2947  1.0173 -0.2855
 4075SOL     OW24697   7.827   4.465   2.105  0.0382  0.5511 -0.2503
 4075SOL    HW124698   7.729   4.467   2.122  0.0344 -0.3951 -0.1041
 4075SOL    HW224699   7.858   4.370   2.105  0.8821  0.8252 -0.6983
 4076SOL     OW24700   2.924   3.175   8.069 -0.0608 -0.2333 -0.4623
 4076SOL    HW124701   3.015   3.182   8.027  0.0809 -0.8598 -0.2669
 4076SOL    HW224702   2.882   3.266   8.073  0.9760  0.2156  0.3661
 4077SOL     OW24703   0.157   3.672   1.744  0.7655 -0.5120  0.0545
 4077SOL    HW124704   0.098   3.594   1.723  0.1645  0.5091 -2.1962
 4077SOL    HW224705   0.251   3.652   1.715  0.9621 -1.0013  0.9820
 4078SOL     OW24706   8.437   5.245   3.225  0.0731 -0.1300 -0.0787
 4078SOL    HW124707   8.359   5.299   3.195 -0.9122 -1.2341  0.4455
 4078SOL    HW224708   8.457   5.174   3.157 -0.3886 -0.8479  0.5253
 4079SOL     OW24709   7.683   8.015   8.891 -0.2210 -0.2795  0.3571
 4079SOL    HW124710   7.590   8.024   8.856  0.1359  1.1545 -0.2513
 4079SOL    HW224711   7.747   8.012   8.814  0.0675 -3.8103  0.6560
 4080SOL     OW24712   2.287   3.330   5.388  0.3588 -0.0288 -0.1773
 4080SOL    HW124713   2.337   3.410   5.358  1.4418 -1.1035 -1.2911
 4080SOL    HW224714   2.191   3.338   5.361  0.1394  1.5249  0.9929
 4081SOL     OW24715   7.172   7.376   8.553  0.3463 -0.5540 -0.2277
 4081SOL    HW124716   7.125   7.378   8.641  0.7799  0.5524 -0.0049
 4081SOL    HW224717   7.253   7.318   8.559 -0.7734 -2.1580 -0.5026
 4082SOL     OW24718   4.933   0.570   5.565  0.0496 -0.1911  1.1686
 4082SOL    HW124719   5.016   0.600   5.611  0.1970 -1.4264  1.7220
 4082SOL    HW224720   4.884   0.649   5.529  2.9031  0.3953 -1.6692
 4083SOL     OW24721   1.142   6.601   3.442  0.1294 -0.4509  0.5586
 4083SOL    HW124722   1.242   6.602   3.433  0.1546  0.5800  0.8336
 4083SOL    HW224723   1.112   6.687   3.483 -0.9670 -0.3486 -0.4490
 4084SOL     OW24724   1.355   7.801   4.087  0.1521 -0.2888 -0.0228
 4084SOL    HW124725   1.373   7.874   4.153  0.3865  1.3437 -1.8584
 4084SOL    HW224726   1.271   7.823   4.036 -1.4079 -2.7472  1.3907
 4085SOL     OW24727   0.735   7.127   6.863  0.0561  0.4422 -0.1594
 4085SOL    HW124728   0.798   7.086   6.797  0.0868 -1.1329  0.8312
 4085SOL    HW224729   0.687   7.203   6.819 -0.4766 -1.0405 -2.2354
 4086SOL     OW24730   7.434   4.980   1.933 -0.0613 -0.0080 -0.0836
 4086SOL    HW124731   7.516   4.932   1.964  0.2760  1.1852  0.8883
 4086SOL    HW224732   7.364   4.977   2.005 -0.9150 -1.0835 -0.9327
 4087SOL     OW24733   3.598   4.857   8.564  0.3178 -0.9593  0.0196
 4087SOL    HW124734   3.558   4.945   8.540  1.6208 -0.9325 -2.1505
 4087SOL    HW224735   3.607   4.851   8.664 -1.1651  0.7197  0.2783
 4088SOL     OW24736   5.464   1.294   5.405  0.0676  0.0287 -0.3232
 4088SOL    HW124737   5.501   1.204   5.380 -0.5176 -0.4410  0.4744
 4088SOL    HW224738   5.480   1.311   5.502 -0.3168  0.5396 -0.3466
 4089SOL     OW24739   1.002   5.059   5.351 -0.3426 -0.1705  0.2605
 4089SOL    HW124740   1.083   5.030   5.299 -0.0644  1.6105 -0.3185
 4089SOL    HW224741   0.987   4.996   5.427  1.6900 -0.4185  0.4744
 4090SOL     OW24742   7.471   5.229   5.442 -0.0472  0.4337 -0.5796
 4090SOL    HW124743   7.450   5.132   5.453  0.8424  0.4972  2.1480
 4090SOL    HW224744   7.560   5.239   5.396  0.9236 -0.1346  1.1047
 4091SOL     OW24745   3.024   3.033   2.785  0.5442 -0.5135  0.2581
 4091SOL    HW124746   3.095   3.103   2.781  1.9963 -1.9957 -0.7578
 4091SOL    HW224747   3.015   3.001   2.880 -1.2710  2.1230  1.0377
 4092SOL     OW24748   6.410   6.365   8.498  0.2794  0.0806 -0.3782
 4092SOL    HW124749   6.449   6.291   8.553  0.6959  0.6266  0.0688
 4092SOL    HW224750   6.342   6.327   8.435  0.2109 -0.6269  0.1105
 4093SOL     OW24751   3.412   3.819   1.016  0.8348 -0.4629  0.0082
 4093SOL    HW124752   3.379   3.895   0.960 -3.6846 -2.2663  0.0261
 4093SOL    HW224753   3.452   3.749   0.956  0.0150 -0.4508 -0.5704
 4094SOL     OW24754   5.223   3.378   0.534  0.2087 -0.6091  0.1130
 4094SOL    HW124755   5.194   3.469   0.503 -1.4195 -2.0628 -2.8296
 4094SOL    HW224756   5.288   3.339   0.468  0.8733 -1.6051  1.3384
 4095SOL     OW24757   7.641   6.976   5.473 -0.3352  1.0581 -0.0436
 4095SOL    HW124758   7.715   7.041   5.492 -0.5744  0.9579  1.2504
 4095SOL    HW224759   7.665   6.922   5.393 -0.0684  2.6318 -1.0546
 4096SOL     OW24760   3.654   4.598   4.181 -0.5492 -0.3183  0.6884
 4096SOL    HW124761   3.616   4.634   4.096  1.2743 -0.5636 -0.2681
 4096SOL    HW224762   3.598   4.628   4.258 -0.9249  1.8433 -0.3871
 4097SOL     OW24763   1.014   7.859   4.363  0.6132 -0.6716  0.0447
 4097SOL    HW124764   1.038   7.799   4.287  1.0554 -0.2714 -0.1297
 4097SOL    HW224765   1.083   7.852   4.435 -0.3112 -1.8114  0.8599
 4098SOL     OW24766   3.693   1.801   4.027 -0.2852 -0.0206  0.0536
 4098SOL    HW124767   3.617   1.829   3.968  0.5894  0.3992 -0.8743
 4098SOL    HW224768   3.743   1.882   4.057 -0.1821 -0.3014  0.6491
 4099SOL     OW24769   6.275   8.377   8.599 -0.3431  0.2359 -1.0656
 4099SOL    HW124770   6.368   8.383   8.565 -0.1251 -0.8922 -0.6847
 4099SOL    HW224771   6.234   8.468   8.600  1.3964  1.0482  0.5615
 4100SOL     OW24772   5.536   5.220   6.086  0.4679 -0.0960 -0.2070
 4100SOL    HW124773   5.526   5.249   6.181  0.6509  0.3479 -0.3210
 4100SOL    HW224774   5.633   5.202   6.067  0.6090  1.0597 -0.6601
 4101SOL     OW24775   4.293   6.296   3.058  0.0656 -0.2985 -0.4539
 4101SOL    HW124776   4.208   6.328   3.100 -0.2880 -1.2596 -0.4153
 4101SOL    HW224777   4.329   6.220   3.112  0.6118 -0.3049 -0.8321
 4102SOL     OW24778   2.672   1.319   4.812  0.0603 -0.9016  0.3173
 4102SOL    HW124779   2.722   1.310   4.898 -0.5772  0.0090  0.7806
 4102SOL    HW224780   2.733   1.358   4.742  0.1322 -0.2220  0.7591
 4103SOL     OW24781   3.930   7.583   1.504  0.2761 -0.1828 -0.4760
 4103SOL    HW124782   3.859   7.538   1.558  1.0400 -0.9772 -0.1204
 4103SOL    HW224783   3.912   7.569   1.406 -0.1570 -0.2275 -0.3882
 4104SOL     OW24784   4.209   4.368   8.379  0.4791  0.2887 -0.5162
 4104SOL    HW124785   4.149   4.301   8.422 -0.2530  0.3912 -1.3686
 4104SOL    HW224786   4.277   4.399   8.445  1.1736 -1.7004 -0.2605
 4105SOL     OW24787   1.191   1.399   7.455 -0.2780  0.0133  0.4991
 4105SOL    HW124788   1.246   1.414   7.372 -1.1533  2.7693  0.3668
 4105SOL    HW224789   1.251   1.371   7.530  0.6130 -1.8259 -0.8616
 4106SOL     OW24790   1.792   2.338   0.447 -0.3324 -0.0989 -0.5512
 4106SOL    HW124791   1.741   2.388   0.376 -0.6326  0.2439 -0.0954
 4106SOL    HW224792   1.770   2.241   0.440 -1.0473  0.0438 -0.3637
 4107SOL     OW24793   4.875   7.115   3.774  0.0704  0.3334 -0.2306
 4107SOL    HW124794   4.800   7.163   3.728  0.2767  1.7369  0.8841
 4107SOL    HW224795   4.837   7.039   3.828 -0.4631  0.5394 -0.3099
 4108SOL     OW24796   2.769   2.748   8.856 -0.1454  0.1042  0.4252
 4108SOL    HW124797   2.714   2.765   8.774  0.5220 -3.7675 -0.9555
 4108SOL    HW224798   2.713   2.765   8.938 -1.9060  0.7386 -0.8693
 4109SOL     OW24799   3.749   1.395   3.157 -0.3815 -0.0793 -0.4334
 4109SOL    HW124800   3.743   1.495   3.160 -0.4679 -0.0585 -1.1685
 4109SOL    HW224801   3.809   1.362   3.230  0.1421  0.5529 -0.5773
 4110SOL     OW24802   5.003   5.237   5.080 -0.0419  0.0911 -0.3292
 4110SOL    HW124803   5.075   5.262   5.016 -1.2685  1.3704 -1.2362
 4110SOL    HW224804   5.012   5.291   5.164  1.7047 -1.7516  0.7105
 4111SOL     OW24805   1.117   1.995   7.730 -0.3977 -0.4548 -0.1301
 4111SOL    HW124806   1.145   2.082   7.691  2.5839 -1.6135 -0.7632
 4111SOL    HW224807   1.025   1.971   7.699  0.0371  0.9211 -2.5919
 4112SOL     OW24808   0.760   2.183   7.278 -0.3024 -0.3379 -0.2168
 4112SOL    HW124809   0.677   2.164   7.225 -0.4881 -0.8223  0.2380
 4112SOL    HW224810   0.735   2.210   7.371 -0.0146  1.6469 -0.6977
 4113SOL     OW24811   1.462   5.620   1.420  0.7155 -0.5681  0.1302
 4113SOL    HW124812   1.517   5.614   1.503  1.4611  1.0556 -0.2129
 4113SOL    HW224813   1.378   5.671   1.439  1.2915  0.5582 -0.2955
 4114SOL     OW24814   2.140   1.243   0.571  0.4327  0.1988 -0.0665
 4114SOL    HW124815   2.091   1.300   0.638 -0.2416 -0.5634  0.0947
 4114SOL    HW224816   2.154   1.296   0.487  1.3537  1.1911  0.6910
 4115SOL     OW24817   0.952   7.432   1.449 -0.5066  0.4490 -0.1648
 4115SOL    HW124818   0.884   7.360   1.454 -0.4446  0.2633 -1.6980
 4115SOL    HW224819   1.023   7.417   1.517 -0.2654 -1.1822 -0.7699
 4116SOL     OW24820   2.115   2.876   2.403  0.5674 -0.2979 -0.6156
 4116SOL    HW124821   2.141   2.915   2.492 -0.6854 -1.0968  0.1088
 4116SOL    HW224822   2.105   2.777   2.411 -1.0923 -0.1938 -1.2734
 4117SOL     OW24823   6.024   4.318   5.058 -0.5046 -0.2375 -0.0678
 4117SOL    HW124824   5.944   4.378   5.049  1.0572  1.8532 -0.5774
 4117SOL    HW224825   6.058   4.323   5.152 -1.4358 -1.7598  0.3590
 4118SOL     OW24826   0.137   8.554   0.023 -0.0172 -0.3018  0.0245
 4118SOL    HW124827   0.206   8.615   0.062  0.0628  0.4496 -1.2729
 4118SOL    HW224828   0.152   8.461   0.058  1.1761  0.0017  0.3553
 4119SOL     OW24829   0.875   1.491   6.811  0.3327 -0.5637  0.2465
 4119SOL    HW124830   0.781   1.477   6.780 -0.0719  2.6943 -0.2185
 4119SOL    HW224831   0.899   1.422   6.879 -2.3622 -1.4938  0.2918
 4120SOL     OW24832   1.355   7.541   5.090  0.6512  0.3875  0.8115
 4120SOL    HW124833   1.256   7.543   5.108  0.4126 -0.4305 -0.3851
 4120SOL    HW224834   1.387   7.633   5.072  0.1832  0.7140  1.5950
 4121SOL     OW24835   2.692   7.222   6.255  0.4578  0.3665 -0.3014
 4121SOL    HW124836   2.746   7.227   6.171 -0.7690  0.4042 -1.0954
 4121SOL    HW224837   2.638   7.138   6.255 -1.3082  1.4766 -0.6474
 4122SOL     OW24838   3.529   1.669   6.417  0.4769  0.0024  0.7225
 4122SOL    HW124839   3.554   1.690   6.511  2.6660  1.2077 -0.1001
 4122SOL    HW224840   3.495   1.575   6.412  0.1571 -0.0062  2.7370
 4123SOL     OW24841   8.818   8.404   5.366 -0.3933  0.0266 -0.2412
 4123SOL    HW124842   8.724   8.401   5.332 -0.8806  0.8537  1.0118
 4123SOL    HW224843   8.867   8.480   5.324 -0.5944  0.2306 -0.1029
 4124SOL     OW24844   5.403   0.392   8.893  0.6011  0.1673  0.5728
 4124SOL    HW124845   5.430   0.479   8.934 -0.7077 -0.3809  2.6679
 4124SOL    HW224846   5.434   0.389   8.798  2.5261  2.0378  1.0916
 4125SOL     OW24847   4.173   6.099   1.167  0.2698 -0.1896  0.6373
 4125SOL    HW124848   4.115   6.154   1.226 -0.4069 -0.3109  0.0988
 4125SOL    HW224849   4.124   6.015   1.142  0.1369  0.3294 -0.9040
 4126SOL     OW24850   7.805   8.609   0.051 -0.4681 -0.4778  0.2896
 4126SOL    HW124851   7.722   8.557   0.073 -0.9814  0.6714  1.1699
 4126SOL    HW224852   7.805   8.631  -0.046 -1.3288 -0.2942  0.3210
 4127SOL     OW24853   8.312   4.373   3.501  0.5449  0.2896 -0.9114
 4127SOL    HW124854   8.338   4.333   3.589 -2.2895  0.5897  0.1240
 4127SOL    HW224855   8.260   4.305   3.448 -0.4134  1.1308 -1.0492
 4128SOL     OW24856   4.960   4.875   4.506 -0.4863  0.2198 -0.2813
 4128SOL    HW124857   5.037   4.899   4.566 -0.9977  0.4252  0.3018
 4128SOL    HW224858   4.993   4.820   4.429  0.7684  2.9400 -1.7576
 4129SOL     OW24859   3.982   5.594   7.314 -0.0446  0.0614  0.1758
 4129SOL    HW124860   3.906   5.644   7.355 -1.2724 -1.1097 -0.6363
 4129SOL    HW224861   3.956   5.561   7.223  0.7189 -2.0869  0.7030
 4130SOL     OW24862   1.403   7.336   1.094 -0.4496 -0.0644  0.0396
 4130SOL    HW124863   1.488   7.385   1.074 -0.6286 -0.4588 -1.7625
 4130SOL    HW224864   1.368   7.366   1.183  1.4436  0.2736  0.7119
 4131SOL     OW24865   2.376   7.362   1.250 -0.2325 -0.1904 -0.4093
 4131SOL    HW124866   2.442   7.372   1.324 -1.5821 -1.0484  0.9474
 4131SOL    HW224867   2.354   7.265   1.237 -0.2290 -0.0305 -1.7511
 4132SOL     OW24868   0.728   2.384   6.676  0.6817 -0.0673  0.1340
 4132SOL    HW124869   0.682   2.296   6.662  0.0075  0.4400 -0.8907
 4132SOL    HW224870   0.793   2.376   6.752 -0.4936 -1.0209  1.0545
 4133SOL     OW24871   0.213   4.957   0.111  0.1270  0.1627  0.3770
 4133SOL    HW124872   0.128   4.982   0.157  0.3258  0.6526  0.4812
 4133SOL    HW224873   0.290   4.972   0.172  0.4168  1.0632 -0.1961
 4134SOL     OW24874   7.552   7.405   1.023  0.0092  0.3154  0.5237
 4134SOL    HW124875   7.599   7.467   0.960 -0.0382  1.6320  1.7499
 4134SOL    HW224876   7.518   7.457   1.101 -3.5099 -0.6199 -0.3095
 4135SOL     OW24877   0.305   1.692   5.764  0.3377 -0.9029 -0.1306
 4135SOL    HW124878   0.376   1.740   5.712  0.2558 -1.9933 -1.2581
 4135SOL    HW224879   0.230   1.755   5.784  1.3453  0.1067  0.5736
 4136SOL     OW24880   7.980   7.817   1.362  0.0850 -0.1957 -0.0853
 4136SOL    HW124881   8.009   7.721   1.364  0.3152 -0.1101  1.7273
 4136SOL    HW224882   7.934   7.839   1.449 -1.4609  0.8794 -1.1554
 4137SOL     OW24883   7.152   0.399   6.465 -0.0383 -0.4458  0.2154
 4137SOL    HW124884   7.222   0.348   6.516  0.6527 -0.8047 -1.0751
 4137SOL    HW224885   7.063   0.387   6.509  0.2126 -2.3354  0.2244
 4138SOL     OW24886   1.411   8.519   6.153 -0.0873  0.3651  0.1203
 4138SOL    HW124887   1.363   8.458   6.090 -0.3494 -1.0920  1.7105
 4138SOL    HW224888   1.346   8.587   6.189 -0.2673  0.2669 -0.0185
 4139SOL     OW24889   1.874   0.591   0.762  0.8227 -0.1604 -0.1693
 4139SOL    HW124890   1.959   0.563   0.716  0.7294  0.5400 -0.7702
 4139SOL    HW224891   1.816   0.511   0.776  0.8581 -0.3781 -1.2577
 4140SOL     OW24892   8.025   0.984   8.802  0.0866 -0.3501  0.4920
 4140SOL    HW124893   8.114   1.025   8.821  0.4952 -1.1445  0.3057
 4140SOL    HW224894   7.959   1.014   8.872 -0.0518  1.9179 -0.5553
 4141SOL     OW24895   7.157   8.336   2.091  0.4800  0.3745  0.1134
 4141SOL    HW124896   7.121   8.285   2.013 -1.3828  1.6406  0.1234
 4141SOL    HW224897   7.107   8.311   2.173  2.3451 -0.8515  0.9165
 4142SOL     OW24898   7.412   6.970   5.185 -0.5638  0.4921  0.3627
 4142SOL    HW124899   7.333   6.962   5.124  0.7802 -0.8317 -1.2589
 4142SOL    HW224900   7.484   7.023   5.140  0.3292 -0.2306  0.9273
 4143SOL     OW24901   4.330   8.051   4.729 -0.6023 -0.0882 -0.1368
 4143SOL    HW124902   4.266   8.090   4.663  2.1512  0.4773 -2.5692
 4143SOL    HW224903   4.343   7.954   4.710 -1.1387 -0.3282  0.6982
 4144SOL     OW24904   2.025   2.273   3.316  0.4912 -0.0644  0.1702
 4144SOL    HW124905   2.048   2.326   3.234 -0.5294  0.6492  0.3397
 4144SOL    HW224906   1.926   2.259   3.320  0.4083  0.8399  1.8432
 4145SOL     OW24907   7.822   5.156   5.673  0.0407  0.2904 -0.2201
 4145SOL    HW124908   7.886   5.222   5.710 -0.0839 -0.4610  1.3955
 4145SOL    HW224909   7.857   5.118   5.587  0.6377  1.5926 -0.5524
 4146SOL     OW24910   1.440   6.335   1.944  0.9000  0.8731 -0.2221
 4146SOL    HW124911   1.434   6.417   2.002  0.5830  0.0893  0.8694
 4146SOL    HW224912   1.395   6.259   1.989 -1.0207  0.6941 -2.3696
 4147SOL     OW24913   1.163   4.796   3.241  0.4599  0.1494  0.5895
 4147SOL    HW124914   1.067   4.812   3.266  0.2815 -0.7498  0.5195
 4147SOL    HW224915   1.178   4.697   3.232  0.9697  0.3660 -1.0619
 4148SOL     OW24916   6.710   2.919   4.683 -0.1472 -0.1158  0.8017
 4148SOL    HW124917   6.677   2.844   4.627  0.7171  0.6567 -0.7628
 4148SOL    HW224918   6.658   3.002   4.662  3.6288  1.5131 -2.8367
 4149SOL     OW24919   8.017   0.732   1.633  0.2379  0.3761 -0.0853
 4149SOL    HW124920   7.972   0.821   1.640 -0.0792  0.4154 -2.2468
 4149SOL    HW224921   8.116   0.745   1.627  0.4454  0.3916  2.6543
 4150SOL     OW24922   3.498   6.792   1.592  0.0417  0.6564  0.4348
 4150SOL    HW124923   3.438   6.741   1.654  0.4640  1.1043  1.2177
 4150SOL    HW224924   3.582   6.740   1.577 -0.1287  0.4750  0.1137
 4151SOL     OW24925   0.429   2.311   7.121 -0.0040  0.5481 -0.4917
 4151SOL    HW124926   0.503   2.243   7.119 -0.1615  0.4019 -1.3214
 4151SOL    HW224927   0.430   2.365   7.037 -0.8924  0.5000 -0.5385
 4152SOL     OW24928   4.187   0.095   8.201 -0.1678  0.1915 -0.6766
 4152SOL    HW124929   4.275   0.055   8.229 -0.9766 -0.8942  0.3990
 4152SOL    HW224930   4.171   0.179   8.253 -0.6451 -0.6486  0.5673
 4153SOL     OW24931   1.874   5.939   0.372 -0.0139  0.4028  0.6430
 4153SOL    HW124932   1.880   6.027   0.324 -0.6343 -0.8481 -1.7702
 4153SOL    HW224933   1.814   5.877   0.321  0.9145 -1.6596  1.9999
 4154SOL     OW24934   3.727   2.837   1.297 -0.0153 -0.1925 -0.5772
 4154SOL    HW124935   3.758   2.758   1.350  1.3976 -1.7569 -3.5762
 4154SOL    HW224936   3.688   2.906   1.358  3.7018 -0.8456  2.7517
 4155SOL     OW24937   3.195   1.451   3.191  0.3125  0.8561 -0.4518
 4155SOL    HW124938   3.105   1.484   3.219  0.3558  1.2229 -0.7397
 4155SOL    HW224939   3.233   1.512   3.122 -0.2514 -0.6132 -2.0978
 4156SOL     OW24940   0.913   3.853   5.678  0.2910 -0.3178  1.0623
 4156SOL    HW124941   0.874   3.921   5.616 -0.3276 -0.9392  0.7560
 4156SOL    HW224942   1.003   3.883   5.708 -0.2945  0.9796  1.5273
 4157SOL     OW24943   2.272   7.760   3.692 -0.3038 -0.3032  0.0168
 4157SOL    HW124944   2.313   7.674   3.660  0.8783  0.5555 -0.7871
 4157SOL    HW224945   2.204   7.739   3.763  0.7047 -1.8202  0.5631
 4158SOL     OW24946   0.307   4.790   2.691  0.5014 -0.4152 -0.0736
 4158SOL    HW124947   0.241   4.796   2.616  0.3560  0.4101  0.1203
 4158SOL    HW224948   0.390   4.839   2.668  0.3016  0.1879  0.4631
 4159SOL     OW24949   2.587   2.235   3.671 -0.5169  0.4820 -0.4024
 4159SOL    HW124950   2.549   2.174   3.601  1.1574 -0.1224 -0.8051
 4159SOL    HW224951   2.633   2.181   3.741  0.6362  1.2656 -0.5466
 4160SOL     OW24952   7.703   2.563   7.459 -0.6748 -0.5823 -0.8126
 4160SOL    HW124953   7.748   2.652   7.450 -1.3417 -0.3179 -1.5894
 4160SOL    HW224954   7.636   2.568   7.532 -2.1719  0.1804 -2.2035
 4161SOL     OW24955   5.056   6.025   0.284  0.4850  0.3539  0.2971
 4161SOL    HW124956   5.130   6.051   0.346  0.5589 -1.1710  0.8650
 4161SOL    HW224957   5.090   5.960   0.217  0.0011  0.7598 -0.3541
 4162SOL     OW24958   6.663   3.875   3.251 -0.3324 -0.5127 -0.6659
 4162SOL    HW124959   6.648   3.783   3.213  0.8545 -1.0994  0.2542
 4162SOL    HW224960   6.632   3.943   3.186 -1.8690 -1.5805 -1.0916
 4163SOL     OW24961   5.009   8.075   2.516 -0.4054 -0.0982 -0.0407
 4163SOL    HW124962   4.981   8.171   2.518 -2.6763 -0.6147 -2.8966
 4163SOL    HW224963   5.090   8.064   2.459  1.2872  0.4033  2.2162
 4164SOL     OW24964   4.195   2.252   2.449 -0.0994 -0.3075 -0.1187
 4164SOL    HW124965   4.129   2.270   2.522  0.9215  1.1821  0.4625
 4164SOL    HW224966   4.251   2.172   2.473 -0.3929 -0.3868  0.2958
 4165SOL     OW24967   8.764   4.169   0.846 -0.2180  0.7280 -0.1639
 4165SOL    HW124968   8.696   4.173   0.772 -2.1416  0.3728  1.5340
 4165SOL    HW224969   8.780   4.262   0.880 -1.4816  0.5883  0.8503
 4166SOL     OW24970   4.959   4.272   3.392 -0.0739  0.2673 -0.2822
 4166SOL    HW124971   4.958   4.205   3.318  1.4069  0.8144 -0.8216
 4166SOL    HW224972   5.054   4.292   3.417 -0.4896  2.0793 -0.0529
 4167SOL     OW24973   6.628   4.796   5.946  0.0878  0.7602  0.3294
 4167SOL    HW124974   6.662   4.782   5.853  0.8158  1.1673  0.5241
 4167SOL    HW224975   6.596   4.709   5.983  0.5693  0.4380 -0.0041
 4168SOL     OW24976   2.334   3.745   6.148 -0.6363  0.3725 -0.0572
 4168SOL    HW124977   2.269   3.695   6.091 -1.6336 -1.0415  2.2705
 4168SOL    HW224978   2.290   3.826   6.187 -0.2754  0.7480 -0.4223
 4169SOL     OW24979   4.109   3.805   3.929  0.1639  0.1371 -0.9257
 4169SOL    HW124980   4.127   3.830   4.025 -0.8257  1.9202 -1.1842
 4169SOL    HW224981   4.161   3.722   3.906  1.3782  0.3878  0.7898
 4170SOL     OW24982   4.722   4.652   2.836  0.2266 -0.5049  0.3943
 4170SOL    HW124983   4.795   4.663   2.903  0.3217  0.5009  0.1293
 4170SOL    HW224984   4.634   4.650   2.883  0.3485 -0.6229  0.6184
 4171SOL     OW24985   1.099   6.381   6.737 -0.1924  0.2282 -0.1875
 4171SOL    HW124986   1.103   6.303   6.799  1.0154 -0.2411 -0.8245
 4171SOL    HW224987   1.159   6.454   6.771  0.3455  0.0333 -0.7078
 4172SOL     OW24988   6.916   2.856   6.219 -0.1144 -0.1675 -0.0647
 4172SOL    HW124989   6.974   2.904   6.153  0.4712 -1.3186 -0.4048
 4172SOL    HW224990   6.944   2.882   6.312  0.2183  0.1244 -0.2431
 4173SOL     OW24991   1.191   7.676   7.304  0.6613  0.0196  0.9152
 4173SOL    HW124992   1.261   7.692   7.235  1.8690  0.5378  2.2541
 4173SOL    HW224993   1.233   7.644   7.389 -0.7122  0.3754  1.7481
 4174SOL     OW24994   1.941   8.879   1.775  0.7881 -0.1432 -0.7369
 4174SOL    HW124995   1.863   8.940   1.762 -1.8474 -3.0568  0.7118
 4174SOL    HW224996   1.936   8.805   1.707  1.7147 -0.8978  0.0182
 4175SOL     OW24997   7.291   2.641   0.874  0.4027 -0.3369  0.5306
 4175SOL    HW124998   7.247   2.616   0.788 -0.1734  2.2431  0.0255
 4175SOL    HW224999   7.314   2.738   0.873  1.2471 -0.4610  2.9362
 4176SOL     OW25000   2.030   5.256   5.874  0.8572  0.2295 -0.2015
 4176SOL    HW125001   2.101   5.316   5.913 -0.0525  0.5984  0.9075
 4176SOL    HW225002   2.067   5.208   5.794  1.9887  1.3221 -0.3500
 4177SOL     OW25003   1.485   0.473   1.116 -0.0493  0.1675 -0.8132
 4177SOL    HW125004   1.580   0.505   1.107  0.0561 -0.3672 -1.7395
 4177SOL    HW225005   1.471   0.435   1.207  0.2169  1.5597 -0.1797
 4178SOL     OW25006   4.057   3.531   8.480 -0.6487  0.2515  0.1105
 4178SOL    HW125007   4.059   3.627   8.510 -0.7624 -0.3295  2.0463
 4178SOL    HW225008   3.963   3.503   8.462 -0.7223  0.1982  0.5749
 4179SOL     OW25009   3.157   5.858   4.561  0.3850  0.5337 -0.6348
 4179SOL    HW125010   3.118   5.784   4.505 -1.1628  0.4792  0.4893
 4179SOL    HW225011   3.151   5.833   4.658 -0.8626  2.4738 -0.1974
 4180SOL     OW25012   6.451   4.793   0.207 -0.1642  0.3677 -0.0521
 4180SOL    HW125013   6.461   4.873   0.148  0.1650  1.1147  1.0163
 4180SOL    HW225014   6.374   4.738   0.176  0.1708  0.6102 -1.3465
 4181SOL     OW25015   3.715   6.554   1.178 -0.2744  0.2924 -0.1901
 4181SOL    HW125016   3.747   6.460   1.162 -0.8847  0.2315 -1.0800
 4181SOL    HW225017   3.661   6.585   1.100 -0.1478  1.3628  0.1307
 4182SOL     OW25018   8.713   0.198   6.699 -0.2596 -0.8287  0.1209
 4182SOL    HW125019   8.661   0.179   6.782 -1.4447  0.3361 -0.3353
 4182SOL    HW225020   8.794   0.253   6.722 -0.4842 -0.6671  0.5215
 4183SOL     OW25021   6.912   5.639   4.511  0.1756 -0.7367 -0.5771
 4183SOL    HW125022   6.898   5.682   4.600  1.5052 -3.0603  0.8209
 4183SOL    HW225023   6.953   5.705   4.448 -0.8083  0.9493  0.5027
 4184SOL     OW25024   5.205   8.001   2.363  0.2350  0.4197 -0.4701
 4184SOL    HW125025   5.298   7.984   2.397 -0.0379  0.7874  0.4585
 4184SOL    HW225026   5.157   7.914   2.351  0.9969  0.1620 -1.8361
 4185SOL     OW25027   8.299   5.548   6.674 -0.2440  0.4738 -0.4592
 4185SOL    HW125028   8.239   5.473   6.700 -0.3336  0.6475 -0.1701
 4185SOL    HW225029   8.394   5.515   6.672 -0.1330  0.6964  1.0019
 4186SOL     OW25030   2.628   8.776   2.651 -0.1527  0.2885 -0.1686
 4186SOL    HW125031   2.656   8.857   2.702  0.2146  0.4845 -0.6758
 4186SOL    HW225032   2.593   8.803   2.562 -1.8259  0.0222  0.3938
 4187SOL     OW25033   6.152   5.603   2.910 -0.3207  0.5083  0.2306
 4187SOL    HW125034   6.233   5.661   2.919  0.4809 -0.5435 -0.1114
 4187SOL    HW225035   6.082   5.650   2.857  1.2970  0.1741 -2.2527
 4188SOL     OW25036   2.269   7.526   3.456 -0.1917  0.6786  0.3082
 4188SOL    HW125037   2.305   7.498   3.368  3.5170  0.6991  1.7536
 4188SOL    HW225038   2.250   7.446   3.512 -1.5813  0.7061 -0.0882
 4189SOL     OW25039   6.484   8.284   6.327 -0.2433 -0.3497 -0.3562
 4189SOL    HW125040   6.508   8.189   6.309  1.9458  0.3112 -1.1866
 4189SOL    HW225041   6.417   8.315   6.260  1.8430 -0.2605 -2.4995
 4190SOL     OW25042   3.325   6.361   4.820 -0.2013  0.0692 -0.2171
 4190SOL    HW125043   3.228   6.371   4.796 -0.0437  1.2057 -0.4328
 4190SOL    HW225044   3.333   6.323   4.912 -0.8479 -0.4268 -0.3640
 4191SOL     OW25045   4.554   4.608   4.251  0.0866  0.0864  0.2090
 4191SOL    HW125046   4.618   4.669   4.205 -2.0305  1.2632 -1.2689
 4191SOL    HW225047   4.598   4.568   4.331  2.2566  1.7719 -0.0854
 4192SOL     OW25048   8.948   4.739   6.081  0.2164 -0.8194  0.4848
 4192SOL    HW125049   9.019   4.670   6.097  0.0433 -1.6039 -1.8938
 4192SOL    HW225050   8.873   4.697   6.028 -0.3726  0.9349 -0.0853
 4193SOL     OW25051   0.721   6.765   6.730 -0.3104 -0.2745 -0.6386
 4193SOL    HW125052   0.745   6.697   6.800  0.4576 -0.4501 -1.0668
 4193SOL    HW225053   0.621   6.775   6.726 -0.3479 -0.0003  0.7262
 4194SOL     OW25054   6.770   3.825   0.575  0.3055 -0.1171  0.4336
 4194SOL    HW125055   6.848   3.790   0.627 -0.2695 -0.7359  0.9091
 4194SOL    HW225056   6.799   3.852   0.484  0.9938 -0.7669  0.4539
 4195SOL     OW25057   1.042   2.383   1.136 -0.5184  0.4180  0.0585
 4195SOL    HW125058   1.125   2.410   1.185 -0.6487  0.0281  0.5009
 4195SOL    HW225059   1.028   2.444   1.059  2.2635 -1.8085 -2.3412
 4196SOL     OW25060   5.752   4.668   0.604  0.4200 -0.9345 -0.0954
 4196SOL    HW125061   5.657   4.700   0.606  1.3839  1.9851  0.2814
 4196SOL    HW225062   5.770   4.622   0.517 -0.5164  1.0969 -1.3891
 4197SOL     OW25063   8.778   6.777   1.903  0.1014  0.0056 -0.0104
 4197SOL    HW125064   8.860   6.793   1.848 -0.2615 -1.6479 -1.0671
 4197SOL    HW225065   8.804   6.745   1.994  0.6294 -0.2168 -0.2393
 4198SOL     OW25066   3.458   8.561   4.785 -0.1643  0.1424 -0.3386
 4198SOL    HW125067   3.369   8.530   4.819  1.0816  0.2593  3.1740
 4198SOL    HW225068   3.531   8.510   4.830  1.6950  3.4384  0.5400
 4199SOL     OW25069   0.379   4.321   2.351 -0.1605  0.3057 -0.2066
 4199SOL    HW125070   0.303   4.383   2.367  0.7738  1.1630  1.0420
 4199SOL    HW225071   0.461   4.375   2.328  0.2320 -0.5650 -0.8710
 4200SOL     OW25072   7.716   1.623   7.323 -0.4172 -0.9213  0.1332
 4200SOL    HW125073   7.750   1.702   7.376  1.9407 -2.6744  1.3384
 4200SOL    HW225074   7.723   1.644   7.225 -1.2637  0.9187  0.4284
 4201SOL     OW25075   0.628   2.625   8.272 -0.1138 -0.1468  0.1747
 4201SOL    HW125076   0.673   2.535   8.271  0.8674  0.3430 -1.4008
 4201SOL    HW225077   0.601   2.649   8.179  0.7464  1.7331  0.3970
 4202SOL     OW25078   6.441   6.677   4.474 -0.0834  0.3786  0.1835
 4202SOL    HW125079   6.415   6.773   4.490  0.1507  0.2251  1.5771
 4202SOL    HW225080   6.381   6.637   4.405 -2.8845  0.3576  2.5026
 4203SOL     OW25081   1.811   0.069   0.330 -0.7166  0.0616  0.3276
 4203SOL    HW125082   1.783  -0.001   0.395 -0.4832 -1.1891 -0.8922
 4203SOL    HW225083   1.747   0.070   0.253 -0.7500  1.2349  0.3571
 4204SOL     OW25084   2.507   2.777   6.413 -0.6141 -0.1367 -0.6721
 4204SOL    HW125085   2.465   2.692   6.445  1.5097 -1.0540 -0.2520
 4204SOL    HW225086   2.451   2.855   6.441 -0.4731 -1.1178  2.5365
 4205SOL     OW25087   5.373   4.372   7.053  0.4050  0.2046  0.1093
 4205SOL    HW125088   5.298   4.305   7.050  0.0119  0.6476 -0.1103
 4205SOL    HW225089   5.458   4.326   7.078 -0.2117 -0.0639  1.7941
 4206SOL     OW25090   2.638   2.703   1.867  1.5399  0.3322 -0.0883
 4206SOL    HW125091   2.552   2.653   1.868  2.1489 -0.7239 -0.3360
 4206SOL    HW225092   2.621   2.799   1.891  0.0504  0.5132 -1.7309
 4207SOL     OW25093   2.033   2.044   6.094  0.0412  0.2753 -0.1723
 4207SOL    HW125094   2.100   1.983   6.051 -0.7425 -0.9332  0.3009
 4207SOL    HW225095   1.941   2.018   6.066 -0.3367  0.9473  0.4195
 4208SOL     OW25096   2.524   8.200   7.196 -0.4161 -0.0416  0.5244
 4208SOL    HW125097   2.562   8.293   7.192  0.2183 -0.3169  0.0684
 4208SOL    HW225098   2.486   8.175   7.108  1.1141 -0.9122  0.0811
 4209SOL     OW25099   4.446   8.972   5.140 -0.3347  0.2455  0.0449
 4209SOL    HW125100   4.472   8.938   5.231 -2.5936  1.1348  1.0506
 4209SOL    HW225101   4.466   9.070   5.135 -0.3501  0.2262 -0.3698
 4210SOL     OW25102   2.095   4.062   2.344 -0.6907 -0.0970 -0.1648
 4210SOL    HW125103   2.178   4.022   2.306 -0.8068 -1.0534  0.5804
 4210SOL    HW225104   2.114   4.100   2.434 -1.1493 -0.6523  0.1671
 4211SOL     OW25105   0.683   7.798   5.144 -0.0958  0.3088  0.2503
 4211SOL    HW125106   0.728   7.719   5.185 -1.2332 -0.4004  0.1410
 4211SOL    HW225107   0.626   7.768   5.068 -0.7434  1.2105  0.3801
 4212SOL     OW25108   8.492   8.122   4.546 -0.1151  0.6066 -0.5451
 4212SOL    HW125109   8.543   8.061   4.485  0.7790  0.5645  0.2384
 4212SOL    HW225110   8.555   8.166   4.610 -1.2596 -0.6747  1.5148
 4213SOL     OW25111   0.253   5.858   3.336 -0.4630 -0.1250  0.4219
 4213SOL    HW125112   0.346   5.854   3.372 -0.0077  0.7237 -0.6271
 4213SOL    HW225113   0.246   5.933   3.270 -1.0258 -2.1518 -1.9094
 4214SOL     OW25114   6.261   5.078   6.391 -0.2422  0.3788  0.5772
 4214SOL    HW125115   6.217   5.148   6.447 -3.6712 -2.3947  1.5402
 4214SOL    HW225116   6.317   5.019   6.450 -0.0885  0.2965  0.3486
 4215SOL     OW25117   5.741   4.507   8.808 -0.0480 -0.6613  0.5537
 4215SOL    HW125118   5.689   4.516   8.893  1.4933  0.8495  1.3707
 4215SOL    HW225119   5.768   4.598   8.776  2.0285 -1.3972  0.1264
 4216SOL     OW25120   3.900   1.515   3.541  0.3273 -0.2359  0.0707
 4216SOL    HW125121   3.855   1.537   3.627  1.5638  0.3336  0.5856
 4216SOL    HW225122   3.970   1.584   3.521  0.4369 -0.6687 -1.1014
 4217SOL     OW25123   2.867   5.629   8.437 -0.4196 -0.0217  0.0668
 4217SOL    HW125124   2.840   5.721   8.465  1.6319  0.7888 -0.5727
 4217SOL    HW225125   2.820   5.604   8.352 -0.2684  0.8103 -0.2622
 4218SOL     OW25126   5.091   2.179   1.859 -0.2593 -0.3821 -0.6928
 4218SOL    HW125127   5.120   2.256   1.916  1.3855 -2.7650  1.7524
 4218SOL    HW225128   5.139   2.182   1.772  1.1320  0.3667  0.0950
 4219SOL     OW25129   4.785   4.238   1.966 -0.6083 -0.2959 -1.2265
 4219SOL    HW125130   4.823   4.150   1.937 -0.2870  0.2012 -2.3543
 4219SOL    HW225131   4.737   4.280   1.889  0.7936  1.3435 -1.2366
 4220SOL     OW25132   5.509   1.945   1.488  0.0643 -0.2685  0.4649
 4220SOL    HW125133   5.580   2.016   1.483 -1.2501  1.0419 -0.1285
 4220SOL    HW225134   5.506   1.895   1.402 -1.2937  1.2649 -0.4236
 4221SOL     OW25135   8.848   5.114   6.897  0.0786 -0.3960  0.4024
 4221SOL    HW125136   8.855   5.131   6.798  0.7489 -0.0605  0.5080
 4221SOL    HW225137   8.753   5.122   6.925 -0.0412  0.0383 -0.1185
 4222SOL     OW25138   7.600   7.210   7.572 -0.6414  0.7651  0.0854
 4222SOL    HW125139   7.537   7.226   7.496 -2.0225  0.3268  1.1102
 4222SOL    HW225140   7.690   7.245   7.548 -0.4657 -1.3897 -2.6227
 4223SOL     OW25141   3.528   6.883   3.540 -0.4040 -0.1578  0.4539
 4223SOL    HW125142   3.568   6.902   3.630 -0.1918  2.2452 -0.0920
 4223SOL    HW225143   3.443   6.935   3.530 -0.5628 -0.6143 -0.6413
 4224SOL     OW25144   2.024   0.221   0.396 -0.0310 -0.1692  0.6061
 4224SOL    HW125145   2.103   0.161   0.380  0.5533  0.8316 -0.3224
 4224SOL    HW225146   1.940   0.166   0.390  0.4709 -0.8357 -0.6606
 4225SOL     OW25147   3.997   7.874   0.482  0.6233 -0.0048 -0.0385
 4225SOL    HW125148   3.999   7.913   0.390 -0.9702 -1.8317 -0.8632
 4225SOL    HW225149   3.934   7.926   0.539  0.2960  0.0570 -0.4612
 4226SOL     OW25150   0.746   5.305   6.095 -0.3381  0.4777  0.2314
 4226SOL    HW125151   0.795   5.304   6.182  1.5206 -0.9952 -0.7909
 4226SOL    HW225152   0.679   5.231   6.093  1.9221 -1.6083 -0.8133
 4227SOL     OW25153   0.746   6.122   6.683  0.2390  1.1589 -0.8928
 4227SOL    HW125154   0.659   6.076   6.664  0.5326  0.3092 -0.1948
 4227SOL    HW225155   0.729   6.201   6.743 -0.0865  1.1425 -0.9623
 4228SOL     OW25156   7.604   7.746   6.099  0.6819 -0.1070 -0.1188
 4228SOL    HW125157   7.590   7.840   6.069 -2.4547 -0.3278  0.4944
 4228SOL    HW225158   7.648   7.694   6.026 -2.4100  0.5550 -2.5394
 4229SOL     OW25159   4.052   5.793   0.414  0.1347 -0.4592  0.0239
 4229SOL    HW125160   3.995   5.753   0.486  1.0361 -0.0176  0.9842
 4229SOL    HW225161   4.063   5.891   0.430  3.2918 -0.9882  1.2904
 4230SOL     OW25162   7.796   5.118   0.566 -0.6942  0.4203  0.3611
 4230SOL    HW125163   7.780   5.217   0.564 -1.0088  0.3744  0.5093
 4230SOL    HW225164   7.890   5.100   0.594 -0.4295  0.6959 -0.3513
 4231SOL     OW25165   5.686   1.046   0.666  0.5242  0.3901  0.1363
 4231SOL    HW125166   5.641   1.099   0.739  1.2595 -0.7598  1.4546
 4231SOL    HW225167   5.785   1.048   0.680  0.5310 -1.9217  0.6615
 4232SOL     OW25168   6.530   6.022   5.347  0.5993  0.3974  0.4020
 4232SOL    HW125169   6.565   5.931   5.327 -1.5417 -0.7977  1.9262
 4232SOL    HW225170   6.605   6.079   5.381  2.1162 -0.5253 -1.2501
 4233SOL     OW25171   2.854   2.244   7.047  0.2919  0.6558  0.4044
 4233SOL    HW125172   2.770   2.297   7.031  0.8508  1.2748 -0.5393
 4233SOL    HW225173   2.851   2.159   6.994  0.1346  0.5415  0.5972
 4234SOL     OW25174   1.551   4.336   3.335  0.0491 -0.4004  0.1849
 4234SOL    HW125175   1.628   4.311   3.393  0.1623  0.8265  0.5902
 4234SOL    HW225176   1.468   4.291   3.367  0.3286 -0.5990  0.6283
 4235SOL     OW25177   8.246   6.369   7.689 -0.5270  0.5068  0.0977
 4235SOL    HW125178   8.176   6.363   7.618  0.3481 -0.0757 -0.7281
 4235SOL    HW225179   8.295   6.455   7.679  1.2599 -0.6606 -1.6038
 4236SOL     OW25180   7.108   4.391   3.084 -0.0810 -0.0036 -0.0070
 4236SOL    HW125181   7.060   4.477   3.104  1.5187  1.2434 -1.4629
 4236SOL    HW225182   7.199   4.392   3.125 -0.4073 -1.4337  0.8087
 4237SOL     OW25183   7.514   7.910   7.314 -0.3467  0.3523  0.3139
 4237SOL    HW125184   7.571   7.958   7.381 -0.1407 -1.7644  1.7045
 4237SOL    HW225185   7.418   7.933   7.329 -0.1801  1.0291  0.3767
 4238SOL     OW25186   2.422   4.730   0.497  0.5361 -0.4317 -0.4383
 4238SOL    HW125187   2.482   4.669   0.549  0.5013 -0.4776 -0.4511
 4238SOL    HW225188   2.477   4.794   0.444  0.5791 -0.6172 -0.6224
 4239SOL     OW25189   4.814   1.629   1.947 -0.4556  0.0339 -0.0217
 4239SOL    HW125190   4.794   1.549   2.004  0.2738  1.2565  2.0155
 4239SOL    HW225191   4.827   1.600   1.853  3.2345 -2.7790  1.2213
 4240SOL     OW25192   6.479   0.007   5.981  0.6084 -0.2744  0.2000
 4240SOL    HW125193   6.563   0.059   6.001  0.4289  0.2662 -0.4342
 4240SOL    HW225194   6.485  -0.032   5.889 -0.6222  1.3600 -0.5988
 4241SOL     OW25195   2.766   6.917   0.659 -0.2615 -0.3003 -0.0947
 4241SOL    HW125196   2.771   6.860   0.740  0.9986  1.7372  1.3115
 4241SOL    HW225197   2.705   6.995   0.675  3.2872  2.4905  0.5254
 4242SOL     OW25198   1.287   0.896   1.517 -0.0332 -0.2408 -0.0101
 4242SOL    HW125199   1.336   0.809   1.526  0.2459  0.2352  3.8007
 4242SOL    HW225200   1.353   0.970   1.508 -0.2753 -0.4070 -4.4355
 4243SOL     OW25201   4.809   3.695   6.964  0.3323 -0.3655  0.1447
 4243SOL    HW125202   4.853   3.606   6.974  0.8940 -0.5697 -3.5074
 4243SOL    HW225203   4.879   3.767   6.967  0.3688 -0.3507 -0.8636
 4244SOL     OW25204   5.964   5.003   6.927  0.4225 -0.4562  0.6558
 4244SOL    HW125205   5.867   4.980   6.935  0.5553 -1.2370  0.0930
 4244SOL    HW225206   5.999   5.033   7.016 -0.9240  2.2440  0.3291
 4245SOL     OW25207   1.811   6.773   4.251  0.8324  0.2333 -0.0856
 4245SOL    HW125208   1.737   6.717   4.215 -0.1444  1.8435 -0.6398
 4245SOL    HW225209   1.817   6.760   4.350 -0.7782  0.7478  0.0961
 4246SOL     OW25210   7.487   5.926   0.501 -0.2850 -0.5141 -0.1472
 4246SOL    HW125211   7.485   6.018   0.462 -0.8798 -1.4167 -2.3738
 4246SOL    HW225212   7.397   5.883   0.490 -0.0015 -1.3826  0.8380
 4247SOL     OW25213   7.517   5.229   7.278 -0.1064 -0.3481 -0.0728
 4247SOL    HW125214   7.436   5.277   7.311 -0.6214 -0.7405 -0.7209
 4247SOL    HW225215   7.578   5.208   7.354 -0.4052  0.3506  0.3583
 4248SOL     OW25216   5.728   7.763   7.687  0.2039  0.5236 -0.2753
 4248SOL    HW125217   5.820   7.727   7.673  0.8021  0.7581  2.7574
 4248SOL    HW225218   5.661   7.702   7.645  1.5485 -1.4224  0.3650
 4249SOL     OW25219   4.655   0.240   6.800 -0.2003 -0.0033 -0.3229
 4249SOL    HW125220   4.632   0.253   6.703  0.2897  0.3245 -0.3923
 4249SOL    HW225221   4.753   0.228   6.810 -0.2336  0.1123  0.1557
 4250SOL     OW25222   5.792   0.560   1.417 -0.5767  0.6716  0.3105
 4250SOL    HW125223   5.871   0.517   1.462 -2.6566 -1.1225  2.3843
 4250SOL    HW225224   5.773   0.512   1.332 -0.7338 -0.2936  0.8763
 4251SOL     OW25225   7.306   2.858   3.403  0.1453  1.5990 -0.5531
 4251SOL    HW125226   7.297   2.905   3.315 -0.3743  2.6227  0.0415
 4251SOL    HW225227   7.359   2.914   3.466  0.3927  0.9285 -0.1612
 4252SOL     OW25228   6.150   4.080   3.786  0.2850  0.3659 -0.1106
 4252SOL    HW125229   6.076   4.028   3.827  0.0773  0.2815 -0.5794
 4252SOL    HW225230   6.236   4.058   3.830  0.0501  0.3539  0.3400
 4253SOL     OW25231   6.922   5.712   3.639 -0.5225  0.2739 -0.3455
 4253SOL    HW125232   6.935   5.697   3.541  0.7143 -0.7093 -0.0345
 4253SOL    HW225233   6.887   5.629   3.682  1.3024 -0.0868  0.4732
 4254SOL     OW25234   4.133   2.465   7.468 -0.6855  0.2547 -0.1105
 4254SOL    HW125235   4.053   2.453   7.526 -0.6988  1.7317  0.2007
 4254SOL    HW225236   4.106   2.509   7.382 -0.7446 -2.3054 -1.4761
 4255SOL     OW25237   7.837   5.302   0.975  0.3808 -0.3243 -0.3025
 4255SOL    HW125238   7.802   5.381   1.025 -0.3275  0.0900 -1.4389
 4255SOL    HW225239   7.896   5.333   0.902  0.1882 -0.8509 -0.6821
 4256SOL     OW25240   6.533   6.835   6.192  0.3840  0.0625  0.0904
 4256SOL    HW125241   6.599   6.765   6.218  0.1468 -0.0897  0.2839
 4256SOL    HW225242   6.448   6.792   6.163 -0.6560  0.2884  2.6299
 4257SOL     OW25243   5.871   7.580   2.761  0.6381  0.1578  0.0478
 4257SOL    HW125244   5.785   7.555   2.716  1.2304  1.5341 -1.9066
 4257SOL    HW225245   5.850   7.623   2.849 -0.6616  0.0629 -0.1954
 4258SOL     OW25246   7.615   3.420   0.041  0.5766 -0.3686 -0.3243
 4258SOL    HW125247   7.523   3.453   0.063  0.4440 -1.2838  0.5358
 4258SOL    HW225248   7.609   3.335  -0.010  0.9365 -1.6602  1.7040
 4259SOL     OW25249   5.067   3.181   1.207 -0.6555 -0.0641 -0.3381
 4259SOL    HW125250   5.051   3.091   1.246 -3.3830  0.1851 -0.8009
 4259SOL    HW225251   5.033   3.184   1.113 -2.4191  2.0179  0.3221
 4260SOL     OW25252   7.357   7.020   5.434  0.4212 -0.0970  0.2276
 4260SOL    HW125253   7.435   7.001   5.494  0.0716 -1.9675  0.1265
 4260SOL    HW225254   7.371   6.972   5.347  0.2909  1.5198 -0.6963
 4261SOL     OW25255   0.412   2.145   0.102  0.9493 -0.2903 -0.2007
 4261SOL    HW125256   0.418   2.243   0.084  1.4900 -0.3251 -0.2201
 4261SOL    HW225257   0.366   2.131   0.190  2.1772  0.0488  0.5188
 4262SOL     OW25258   1.162   3.933   3.055  0.0439  0.0954  0.3158
 4262SOL    HW125259   1.068   3.966   3.058 -0.4535 -1.1131 -1.2753
 4262SOL    HW225260   1.220   3.999   3.007  0.0922  0.9943  1.5847
 4263SOL     OW25261   2.873   6.292   2.141  0.5368 -0.9996  0.3008
 4263SOL    HW125262   2.830   6.209   2.105 -0.6952 -1.0616  1.8803
 4263SOL    HW225263   2.833   6.315   2.229  2.5035 -0.0286  0.9753
 4264SOL     OW25264   2.369   8.581   8.846 -0.3913  0.2945  0.0040
 4264SOL    HW125265   2.404   8.604   8.755  0.0407  1.5837  0.4763
 4264SOL    HW225266   2.312   8.499   8.841  2.1552 -1.4556 -0.8920
 4265SOL     OW25267   5.483   0.034   0.626 -0.1124 -0.7052 -0.3814
 4265SOL    HW125268   5.464   0.037   0.528  3.2649 -0.4469 -1.1060
 4265SOL    HW225269   5.509   0.125   0.657 -4.2885 -0.0458  1.5337
 4266SOL     OW25270   2.606   7.493   5.546  0.0625  0.0403 -0.1578
 4266SOL    HW125271   2.704   7.476   5.553 -0.1088 -0.8129  0.3241
 4266SOL    HW225272   2.588   7.559   5.474  1.0003  0.2774 -0.1758
 4267SOL     OW25273   7.426   1.227   5.987  0.7656 -0.5335 -0.0411
 4267SOL    HW125274   7.441   1.162   5.913 -1.4352 -1.3454  0.1765
 4267SOL    HW225275   7.476   1.196   6.068 -0.5315 -2.1955  0.1658
 4268SOL     OW25276   4.967   4.976   5.301 -0.0930  0.4288 -0.2571
 4268SOL    HW125277   4.934   5.070   5.293  1.2016  0.7787 -1.6745
 4268SOL    HW225278   4.896   4.919   5.343 -0.6465  2.1610  1.2359
 4269SOL     OW25279   7.594   2.785   8.564 -0.7276  0.7701  0.3592
 4269SOL    HW125280   7.630   2.701   8.523 -0.9727 -0.4780  2.6184
 4269SOL    HW225281   7.609   2.862   8.502 -0.0232 -0.8511 -1.5128
 4270SOL     OW25282   3.399   1.269   0.250 -0.0450 -0.3675 -0.0489
 4270SOL    HW125283   3.497   1.285   0.252 -0.3044  1.3583 -0.6324
 4270SOL    HW225284   3.359   1.315   0.170 -1.5162  0.1050  0.9404
 4271SOL     OW25285   4.066   5.991   8.124 -0.4291 -0.3877 -0.1441
 4271SOL    HW125286   4.052   5.913   8.185  0.0740  0.7817  1.4812
 4271SOL    HW225287   3.979   6.017   8.083 -0.7589 -1.2189  0.0036
 4272SOL     OW25288   1.823   1.527   5.228 -0.2232 -0.0998  0.4946
 4272SOL    HW125289   1.830   1.432   5.258 -1.1045 -0.4631 -0.4552
 4272SOL    HW225290   1.729   1.559   5.239  0.3952  1.1644  2.2989
 4273SOL     OW25291   1.197   2.047   0.068 -0.8798  0.0885 -0.0568
 4273SOL    HW125292   1.254   2.004   0.139  0.0165  1.7287  0.2352
 4273SOL    HW225293   1.107   2.068   0.107 -0.6140  0.3887  0.4005
 4274SOL     OW25294   6.230   5.709   7.478  0.0404  0.1707  0.1631
 4274SOL    HW125295   6.209   5.689   7.574  0.1121 -0.5197  0.0318
 4274SOL    HW225296   6.159   5.769   7.441 -0.7795 -0.7558  0.2207
 4275SOL     OW25297   2.845   5.887   8.185  0.0965  0.2910  0.2689
 4275SOL    HW125298   2.812   5.795   8.205  0.1607  0.8016  2.8033
 4275SOL    HW225299   2.944   5.885   8.172 -0.0145 -0.1233 -0.5486
 4276SOL     OW25300   3.764   0.802   4.289 -0.2669 -0.1809 -0.2543
 4276SOL    HW125301   3.664   0.798   4.288 -0.2154 -2.4121 -0.3390
 4276SOL    HW225302   3.794   0.892   4.320 -2.2966  1.0621 -1.7598
 4277SOL     OW25303   8.468   2.015   4.100 -0.2953 -0.5559 -0.0687
 4277SOL    HW125304   8.549   2.073   4.113 -1.0167  0.9705 -2.1493
 4277SOL    HW225305   8.418   2.046   4.019 -3.7077 -0.6422  1.9544
 4278SOL     OW25306   2.363   7.313   5.487 -0.4120 -0.2135  0.2002
 4278SOL    HW125307   2.440   7.360   5.532 -0.5947  0.0222  0.2697
 4278SOL    HW225308   2.398   7.243   5.425 -0.1627 -0.6314  0.8138
 4279SOL     OW25309   3.551   3.009   5.925  0.1575 -0.6234  0.7055
 4279SOL    HW125310   3.645   3.044   5.920  0.2516 -0.6319  2.1625
 4279SOL    HW225311   3.525   2.971   5.837 -0.0455  3.3423 -1.0083
 4280SOL     OW25312   4.093   1.508   2.795  0.1382  0.2906  0.3225
 4280SOL    HW125313   4.020   1.575   2.782  0.2872  0.7837  1.8851
 4280SOL    HW225314   4.176   1.542   2.750 -0.0240  0.7341  0.3513
 4281SOL     OW25315   2.106   5.313   6.280 -0.3777 -0.0064  0.1755
 4281SOL    HW125316   2.064   5.403   6.287 -0.2437  0.1083 -0.4547
 4281SOL    HW225317   2.081   5.257   6.360 -1.6871  0.0641 -0.1900
 4282SOL     OW25318   1.566   3.886   1.852 -0.0697  0.5257  0.1266
 4282SOL    HW125319   1.665   3.889   1.858 -0.0677  1.2245 -0.3058
 4282SOL    HW225320   1.534   3.948   1.780 -0.8617  0.7995  0.7030
 4283SOL     OW25321   7.913   0.417   0.899 -0.0097  0.2452 -0.1206
 4283SOL    HW125322   7.987   0.407   0.833  1.9934  0.0224  2.1002
 4283SOL    HW225323   7.895   0.514   0.914  1.1179  0.3373  0.7040
 4284SOL     OW25324   6.015   0.428   1.522  0.1949  0.0759  0.0576
 4284SOL    HW125325   6.010   0.338   1.477 -0.6343 -0.4396  1.1664
 4284SOL    HW225326   6.073   0.421   1.603 -1.6533 -0.0034  1.3908
 4285SOL     OW25327   3.109   7.345   3.865 -0.4879 -0.1765 -0.3712
 4285SOL    HW125328   3.124   7.388   3.775 -0.6475 -1.2996 -0.9443
 4285SOL    HW225329   3.089   7.248   3.852  0.6573 -0.6081  0.9530
 4286SOL     OW25330   2.162   7.554   7.414  0.4593  0.6721 -0.3091
 4286SOL    HW125331   2.129   7.604   7.334  0.6587  0.9850 -0.1986
 4286SOL    HW225332   2.131   7.600   7.497  0.7563  0.6843 -0.2056
 4287SOL     OW25333   5.724   2.088   0.986  0.1197 -0.8019  0.2870
 4287SOL    HW125334   5.664   2.124   1.058 -0.1018 -0.6462  0.0256
 4287SOL    HW225335   5.767   2.003   1.017  0.2231 -0.6003  0.7016
 4288SOL     OW25336   2.876   6.606   7.923 -0.0647 -0.7722 -0.5955
 4288SOL    HW125337   2.951   6.540   7.928 -0.0110 -0.5677  1.9394
 4288SOL    HW225338   2.909   6.692   7.886  1.0848 -0.5471  0.9106
 4289SOL     OW25339   1.844   3.212   4.739  0.1593  0.6226  0.3629
 4289SOL    HW125340   1.803   3.275   4.673 -0.9422 -0.9824 -0.5000
 4289SOL    HW225341   1.788   3.209   4.822 -0.2207  0.1637  0.0874
 4290SOL     OW25342   1.973   3.729   0.277 -0.2965 -0.5114  0.4121
 4290SOL    HW125343   2.032   3.713   0.197  0.2990 -3.0063  1.2875
 4290SOL    HW225344   1.954   3.826   0.286 -1.6434 -0.3127 -3.6623
 4291SOL     OW25345   0.839   3.774   5.295  0.7259  0.0807 -0.0067
 4291SOL    HW125346   0.820   3.819   5.208 -1.0765 -1.1078 -0.2537
 4291SOL    HW225347   0.890   3.690   5.278  0.8013  0.0985  0.1289
 4292SOL     OW25348   4.733   0.395   1.063  0.3959 -0.2305 -0.4515
 4292SOL    HW125349   4.667   0.403   0.988 -0.1917 -0.8538  0.0007
 4292SOL    HW225350   4.747   0.485   1.103 -0.9166 -0.2503  0.0766
 4293SOL     OW25351   6.439   4.327   3.941 -0.2858 -0.1810 -0.2562
 4293SOL    HW125352   6.341   4.341   3.927 -0.2230  1.6269  0.9255
 4293SOL    HW225353   6.464   4.234   3.916 -2.4255 -0.8323  0.0018
 4294SOL     OW25354   6.855   7.453   8.578  0.7175  0.4021  0.0570
 4294SOL    HW125355   6.867   7.430   8.675  0.3643 -1.9527 -0.4453
 4294SOL    HW225356   6.928   7.410   8.524  0.0512  0.4730 -0.9049
 4295SOL     OW25357   2.591   0.132   8.746 -0.5293 -0.7812 -0.0343
 4295SOL    HW125358   2.602   0.037   8.778 -1.1720 -1.0312 -0.5670
 4295SOL    HW225359   2.622   0.139   8.651 -0.1076 -0.3654  0.1299
 4296SOL     OW25360   7.843   5.367   8.106 -0.1879 -0.0710 -0.1362
 4296SOL    HW125361   7.919   5.342   8.047 -0.1666 -1.0959  0.3139
 4296SOL    HW225362   7.786   5.436   8.060  0.4109 -0.0888 -0.9101
 4297SOL     OW25363   7.460   6.505   1.396 -0.6477  0.2550 -0.0253
 4297SOL    HW125364   7.470   6.604   1.408 -3.7969  0.7226 -0.9183
 4297SOL    HW225365   7.509   6.476   1.314  0.1361  1.0953  0.1360
 4298SOL     OW25366   1.454   2.180   5.318  0.1243 -0.2891 -0.6883
 4298SOL    HW125367   1.489   2.200   5.227 -0.1608  2.9727 -0.1465
 4298SOL    HW225368   1.468   2.083   5.339  1.7209 -0.7136 -3.4967
 4299SOL     OW25369   2.539   3.848   2.508 -0.6321  0.4145  0.0037
 4299SOL    HW125370   2.625   3.899   2.504 -1.0581  1.2437  1.1057
 4299SOL    HW225371   2.490   3.871   2.592 -0.4516 -2.4458  0.9568
 4300SOL     OW25372   0.106   0.270   5.406  0.9261  0.1102 -0.3935
 4300SOL    HW125373   0.058   0.236   5.324  1.6957 -0.2585 -0.6949
 4300SOL    HW225374   0.039   0.284   5.479  0.3309 -0.2760 -0.8492
 4301SOL     OW25375   0.398   8.990   8.111  0.4370  0.4315 -0.1002
 4301SOL    HW125376   0.453   8.909   8.091 -1.5497 -0.7814 -0.7123
 4301SOL    HW225377   0.333   8.969   8.184 -0.2032  1.4359 -0.3722
 4302SOL     OW25378   1.264   8.638   6.996 -0.1452  0.4486 -0.2212
 4302SOL    HW125379   1.328   8.711   6.969 -0.1642  1.0941  1.4300
 4302SOL    HW225380   1.305   8.583   7.068 -1.2725  0.5607  0.5118
 4303SOL     OW25381   7.000   3.262   3.685  0.2351  0.0226  0.1053
 4303SOL    HW125382   6.932   3.284   3.615 -0.0017 -1.9661 -0.3351
 4303SOL    HW225383   7.079   3.323   3.676 -1.2264  1.9809  0.2684
 4304SOL     OW25384   1.135   0.544   7.390 -0.0695 -0.1039  0.0626
 4304SOL    HW125385   1.096   0.486   7.462  1.2754 -0.8395  0.2250
 4304SOL    HW225386   1.190   0.617   7.432 -1.0220  0.7516 -0.1680
 4305SOL     OW25387   3.327   2.633   3.514  0.1170  0.2478  0.1354
 4305SOL    HW125388   3.376   2.556   3.555 -0.9106 -0.9237 -0.7941
 4305SOL    HW225389   3.235   2.604   3.488 -0.3730  1.8692  0.0202
 4306SOL     OW25390   3.129   3.545   0.593  0.3354  0.1856 -0.1274
 4306SOL    HW125391   3.086   3.469   0.643  1.3323  0.3625  1.0101
 4306SOL    HW225392   3.136   3.521   0.496  0.4541 -1.0831  0.1896
 4307SOL     OW25393   1.378   6.359   0.931  0.1328  0.2133 -0.6640
 4307SOL    HW125394   1.285   6.361   0.967  0.2864 -1.5149 -0.1176
 4307SOL    HW225395   1.407   6.452   0.908 -1.0922  0.9822  0.7963
 4308SOL     OW25396   0.563   4.398   8.037  0.6059  0.3939 -0.5088
 4308SOL    HW125397   0.599   4.452   7.961 -1.4124  2.5705  0.0237
 4308SOL    HW225398   0.627   4.402   8.114  1.4396  0.3080 -1.1872
 4309SOL     OW25399   3.726   4.414   4.529  0.3038 -0.2462  0.8372
 4309SOL    HW125400   3.770   4.399   4.440 -0.5723  0.2871  0.2959
 4309SOL    HW225401   3.779   4.370   4.601  2.0587  0.9095  0.2786
 4310SOL     OW25402   4.940   3.498   1.221 -0.1776  0.4383 -0.2958
 4310SOL    HW125403   4.852   3.530   1.185  0.5271  1.2627 -1.3085
 4310SOL    HW225404   5.014   3.548   1.177  0.7912  0.0128  0.8301
 4311SOL     OW25405   4.833   2.184   1.330  0.1317 -0.1046  0.0851
 4311SOL    HW125406   4.743   2.213   1.297 -0.1992  0.2534  1.2783
 4311SOL    HW225407   4.821   2.113   1.400  0.7413  0.3895  0.6980
 4312SOL     OW25408   4.395   3.437   4.171 -0.2404 -0.6683  0.1960
 4312SOL    HW125409   4.395   3.385   4.257  1.2312 -0.8618  0.1005
 4312SOL    HW225410   4.477   3.413   4.118 -0.9045 -0.2106 -1.0562
 4313SOL     OW25411   2.112   3.408   3.612  0.0618 -0.4795 -0.2281
 4313SOL    HW125412   2.133   3.501   3.580 -1.3780 -0.3789 -0.9503
 4313SOL    HW225413   2.178   3.381   3.683  1.2330  0.6157 -0.8796
 4314SOL     OW25414   1.415   6.754   3.753  0.8359  0.0045 -0.2872
 4314SOL    HW125415   1.468   6.677   3.718  0.9012 -0.8675  1.6944
 4314SOL    HW225416   1.423   6.759   3.852 -0.6368  1.4788 -0.2048
 4315SOL     OW25417   5.754   7.949   6.987  0.1658 -0.0019 -0.1651
 4315SOL    HW125418   5.757   7.871   6.924 -2.4122 -1.0576  0.9260
 4315SOL    HW225419   5.710   8.026   6.942  0.2414 -0.0845 -0.3789
 4316SOL     OW25420   5.122   5.510   7.509 -0.2344 -0.1656  0.1944
 4316SOL    HW125421   5.112   5.416   7.542  0.3885 -0.3819 -0.2199
 4316SOL    HW225422   5.151   5.509   7.414 -0.5062  0.4543  0.0998
 4317SOL     OW25423   4.818   2.298   5.044  0.0076 -0.3079  0.6739
 4317SOL    HW125424   4.736   2.242   5.048  0.5172 -1.2458 -1.1272
 4317SOL    HW225425   4.888   2.259   5.104 -0.6825  0.2001  1.8138
 4318SOL     OW25426   7.781   6.571   4.897 -0.2572  0.0309  0.1777
 4318SOL    HW125427   7.761   6.524   4.811 -2.7069  1.5354 -0.1234
 4318SOL    HW225428   7.826   6.507   4.960 -0.8048 -1.8466 -1.2867
 4319SOL     OW25429   2.284   7.433   6.565  0.0839 -0.2413  0.2807
 4319SOL    HW125430   2.359   7.399   6.509 -2.0550 -0.8062 -2.3154
 4319SOL    HW225431   2.274   7.374   6.646  1.2506 -1.2188 -0.2641
 4320SOL     OW25432   3.101   2.379   3.742  0.6096 -0.0365 -0.5138
 4320SOL    HW125433   3.059   2.308   3.799 -0.5264  0.4189 -0.7548
 4320SOL    HW225434   3.158   2.336   3.672 -1.1553 -0.8115 -1.5249
 4321SOL     OW25435   3.002   4.009   1.905 -0.1335  0.8809 -0.2927
 4321SOL    HW125436   3.040   4.027   1.814 -1.7598  2.0086 -0.7604
 4321SOL    HW225437   3.007   3.911   1.923  2.3839  0.9110 -0.5992
 4322SOL     OW25438   0.570   1.450   0.042 -0.1857  0.9086  0.6052
 4322SOL    HW125439   0.510   1.399   0.104 -0.7632 -0.5002 -1.0719
 4322SOL    HW225440   0.516   1.496  -0.027  0.5576  1.0322  0.1040
 4323SOL     OW25441   1.129   1.257   0.389  0.2190 -0.6378 -0.4003
 4323SOL    HW125442   1.118   1.178   0.450  1.3538 -0.3848  0.1427
 4323SOL    HW225443   1.193   1.322   0.430 -0.9620  0.7376 -0.6709
 4324SOL     OW25444   0.711   7.190   0.577 -0.3172  0.1204  0.0017
 4324SOL    HW125445   0.759   7.277   0.564 -0.4662  0.2339  0.1991
 4324SOL    HW225446   0.753   7.120   0.520  1.3242 -0.2446  1.6190
 4325SOL     OW25447   5.060   7.491   8.005 -0.4162  0.8304  0.1517
 4325SOL    HW125448   5.108   7.435   7.937 -0.9900  0.6291 -0.0944
 4325SOL    HW225449   5.115   7.570   8.029  0.6537 -0.1243  0.9026
 4326SOL     OW25450   4.824   8.367   1.638 -0.0150  0.1805  0.1902
 4326SOL    HW125451   4.832   8.314   1.554 -0.8505  0.8335 -0.3054
 4326SOL    HW225452   4.870   8.319   1.712 -1.0724 -1.4269 -0.1739
 4327SOL     OW25453   1.374   8.434   7.619  0.2869  0.3224  0.0451
 4327SOL    HW125454   1.459   8.426   7.568  0.5339  0.2192  0.4735
 4327SOL    HW225455   1.310   8.363   7.587  0.2843  0.5312 -0.4152
 4328SOL     OW25456   4.289   0.129   6.001  0.4448 -0.0154 -0.0858
 4328SOL    HW125457   4.355   0.190   5.959 -2.4773  3.0279 -0.4927
 4328SOL    HW225458   4.295   0.135   6.100  0.6716  0.3792 -0.1251
 4329SOL     OW25459   2.662   7.506   7.475  0.6250 -0.0782 -0.0277
 4329SOL    HW125460   2.594   7.532   7.406 -1.1684  1.5342  2.2449
 4329SOL    HW225461   2.685   7.410   7.465 -1.6042 -0.5171 -1.2400
 4330SOL     OW25462   1.064   4.806   1.712 -0.5515  0.1532  0.0382
 4330SOL    HW125463   1.162   4.791   1.722 -0.8166 -1.5644  0.3594
 4330SOL    HW225464   1.043   4.823   1.616  0.0503  0.3634 -0.0584
 4331SOL     OW25465   7.316   1.447   0.206 -0.2490  0.8687 -0.0339
 4331SOL    HW125466   7.287   1.540   0.183  0.0577  1.4370  1.7715
 4331SOL    HW225467   7.414   1.436   0.188 -0.8031  0.0672 -2.7166
 4332SOL     OW25468   7.172   2.981   1.701  0.0627  0.2660  0.2957
 4332SOL    HW125469   7.207   2.949   1.789 -0.1252 -3.0529 -0.7744
 4332SOL    HW225470   7.100   2.919   1.669  1.5024  0.2612 -3.1223
 4333SOL     OW25471   7.298   5.238   1.564  0.4558 -0.4781  0.4689
 4333SOL    HW125472   7.398   5.244   1.556  0.3108  0.4155 -1.0646
 4333SOL    HW225473   7.274   5.173   1.635  2.1358 -1.2013  0.4129
 4334SOL     OW25474   6.087   3.748   4.869  0.1106  0.5355 -0.5522
 4334SOL    HW125475   6.146   3.668   4.855 -0.4261  0.0562 -0.1149
 4334SOL    HW225476   6.140   3.822   4.910  0.3794  0.0681 -0.0500
 4335SOL     OW25477   0.085   6.185   7.514 -0.2652  0.1930 -0.1919
 4335SOL    HW125478   0.074   6.108   7.578  1.6831  0.3915  0.3916
 4335SOL    HW225479   0.101   6.269   7.566  1.1118  0.3945 -0.9460
 4336SOL     OW25480   4.248   7.043   8.384  0.4324  0.1934  0.1328
 4336SOL    HW125481   4.196   6.959   8.396  2.2112 -1.0731 -0.8122
 4336SOL    HW225482   4.326   7.045   8.447  0.4404  1.0863  0.1080
 4337SOL     OW25483   4.167   7.263   4.699 -0.8274 -0.1795 -0.5017
 4337SOL    HW125484   4.068   7.260   4.682 -1.1105  0.3199  1.0418
 4337SOL    HW225485   4.214   7.286   4.613 -2.1268  0.6647 -1.0073
 4338SOL     OW25486   0.156   2.796   5.075 -0.5057  0.2752  0.4632
 4338SOL    HW125487   0.249   2.781   5.106 -0.4749 -0.1776  0.1618
 4338SOL    HW225488   0.153   2.792   4.975 -0.8754  0.0873  0.4787
 4339SOL     OW25489   2.372   2.590   2.490  0.0547  0.5856  0.3586
 4339SOL    HW125490   2.315   2.631   2.561 -0.5002  0.8094 -0.2113
 4339SOL    HW225491   2.338   2.499   2.469  0.0905  0.6005  0.2363
 4340SOL     OW25492   3.781   1.715   2.534 -0.8499 -0.2723 -0.0877
 4340SOL    HW125493   3.725   1.634   2.549 -1.4846  0.3856  1.1433
 4340SOL    HW225494   3.833   1.704   2.448 -0.1390 -2.4144  0.5691
 4341SOL     OW25495   2.514   2.824   4.386  0.2991 -0.2726  0.0495
 4341SOL    HW125496   2.565   2.835   4.300 -2.9464 -0.2533 -1.9656
 4341SOL    HW225497   2.578   2.798   4.459  3.3527  1.0219 -2.0216
 4342SOL     OW25498   3.209   6.216   2.545  0.5705  0.4257  0.2713
 4342SOL    HW125499   3.138   6.149   2.523  1.3492 -0.5343  0.6395
 4342SOL    HW225500   3.167   6.299   2.582 -0.3219 -0.3760  1.0718
 4343SOL     OW25501   3.190   2.667   4.858  0.0126 -0.6031  0.0778
 4343SOL    HW125502   3.097   2.631   4.856 -0.2850 -0.0063  2.3651
 4343SOL    HW225503   3.188   2.765   4.838  0.2084 -0.6514 -0.1944
 4344SOL     OW25504   5.497   0.301   0.685  0.0063  0.3479 -0.6293
 4344SOL    HW125505   5.579   0.328   0.634  0.7455 -0.4478  0.1279
 4344SOL    HW225506   5.428   0.372   0.676  1.2411  1.6215 -0.2330
 4345SOL     OW25507   1.288   0.572   8.672 -1.0384 -0.2654  0.1790
 4345SOL    HW125508   1.215   0.578   8.605  0.1230 -1.9692 -1.2670
 4345SOL    HW225509   1.279   0.647   8.738 -2.2811  1.3440 -1.7753
 4346SOL     OW25510   1.013   0.186   0.161 -0.2879 -0.2259  0.0273
 4346SOL    HW125511   1.100   0.197   0.208 -0.8617 -0.4106  1.1576
 4346SOL    HW225512   1.020   0.222   0.068  0.2680  2.0984  0.9424
 4347SOL     OW25513   1.328   1.334   7.696 -0.2764  0.2985 -0.2608
 4347SOL    HW125514   1.424   1.358   7.707  0.4796 -2.0821 -1.4351
 4347SOL    HW225515   1.295   1.287   7.778 -0.2235  0.4142 -0.1737
 4348SOL     OW25516   5.536   1.961   0.054  0.0726  0.0897  0.0442
 4348SOL    HW125517   5.610   2.003   0.106  0.3948 -0.9607  0.4489
 4348SOL    HW225518   5.508   2.021  -0.020 -0.3888  1.6251  1.4304
 4349SOL     OW25519   7.134   4.383   7.213  0.6961 -0.4218 -0.4352
 4349SOL    HW125520   7.217   4.341   7.248  0.5212 -1.1575 -0.8857
 4349SOL    HW225521   7.062   4.314   7.206 -0.1785  0.3495  0.6412
 4350SOL     OW25522   7.708   5.132   2.698  0.0040  0.3924  0.3387
 4350SOL    HW125523   7.646   5.181   2.637  0.0341  0.6653  0.5296
 4350SOL    HW225524   7.673   5.136   2.792 -0.9809 -1.5397  0.0813
 4351SOL     OW25525   7.148   5.941   8.621  0.3253  0.5935 -0.4542
 4351SOL    HW125526   7.197   5.983   8.698 -1.6976  1.6675  0.2592
 4351SOL    HW225527   7.205   5.947   8.539  2.0215  0.4802  0.6887
 4352SOL     OW25528   2.356   1.215   0.303  0.7671  0.8856  0.4583
 4352SOL    HW125529   2.312   1.303   0.319  2.2758  1.7482 -0.0959
 4352SOL    HW225530   2.292   1.155   0.254 -1.0349  0.9013  2.6959
 4353SOL     OW25531   8.543   4.243   6.251  0.0672  0.0952 -0.0368
 4353SOL    HW125532   8.536   4.289   6.162 -0.4518  0.3166  0.1201
 4353SOL    HW225533   8.590   4.155   6.238  2.1293  1.1735 -0.1418
 4354SOL     OW25534   8.966   4.116   0.183 -0.1396  0.5724  0.0529
 4354SOL    HW125535   8.913   4.091   0.102 -0.1569  0.2760  0.1547
 4354SOL    HW225536   9.058   4.076   0.176 -0.1393  0.5523  0.1792
 4355SOL     OW25537   1.700   5.006   0.001  0.7662 -0.1345 -0.0427
 4355SOL    HW125538   1.771   5.075   0.019  1.2853 -0.8867  0.8077
 4355SOL    HW225539   1.715   4.927   0.060 -1.2791  0.0412  0.7429
 4356SOL     OW25540   2.739   0.384   6.476 -0.1401 -0.3522 -0.3383
 4356SOL    HW125541   2.694   0.305   6.435 -0.2010 -0.0297 -0.8997
 4356SOL    HW225542   2.835   0.387   6.447  0.6131 -1.7481  1.8559
 4357SOL     OW25543   3.591   8.675   5.770 -0.4227 -0.2066  0.2505
 4357SOL    HW125544   3.535   8.757   5.776 -1.7339 -0.7987 -2.8438
 4357SOL    HW225545   3.673   8.695   5.716 -0.6722 -0.8926 -0.3817
 4358SOL     OW25546   5.557   2.787   1.405  0.0692  0.1689 -0.2766
 4358SOL    HW125547   5.561   2.690   1.425 -1.5051  0.2755  0.5576
 4358SOL    HW225548   5.650   2.824   1.404  0.4910 -0.7741  2.1874
 4359SOL     OW25549   2.863   4.022   5.788  0.0234  0.4293  0.0382
 4359SOL    HW125550   2.894   4.056   5.699  0.7614 -1.3696 -0.4290
 4359SOL    HW225551   2.766   3.998   5.782  0.4546 -1.2425 -0.8139
 4360SOL     OW25552   0.258   3.521   7.516  0.1152 -0.0394 -0.0623
 4360SOL    HW125553   0.317   3.578   7.573  0.4263  2.2195 -2.5909
 4360SOL    HW225554   0.164   3.526   7.550  0.3523  0.9897  0.4563
 4361SOL     OW25555   8.181   7.704   0.168 -0.6227 -0.2800 -0.3516
 4361SOL    HW125556   8.088   7.727   0.140 -0.0217  1.3279 -1.0748
 4361SOL    HW225557   8.178   7.643   0.248 -2.2800 -0.0911 -0.2634
 4362SOL     OW25558   8.874   4.501   2.798 -0.1459 -0.4103  0.8094
 4362SOL    HW125559   8.859   4.600   2.786  0.2772 -0.2965  1.1980
 4362SOL    HW225560   8.835   4.452   2.720 -2.2195 -0.0881  1.6199
 4363SOL     OW25561   7.325   8.962   0.527  0.2555 -0.1317 -0.1720
 4363SOL    HW125562   7.234   9.000   0.545  0.0377 -0.6730 -0.1382
 4363SOL    HW225563   7.393   9.035   0.535 -0.0638  0.0691  0.8107
 4364SOL     OW25564   7.347   3.201   3.552 -0.2076  0.3427  0.0463
 4364SOL    HW125565   7.267   3.189   3.493  0.8155 -1.5202 -1.0146
 4364SOL    HW225566   7.331   3.278   3.615 -3.0013 -0.2704  0.1712
 4365SOL     OW25567   8.301   0.113   1.027  0.2425 -0.2494 -0.4460
 4365SOL    HW125568   8.275   0.026   1.068  2.5155 -1.0515 -0.6867
 4365SOL    HW225569   8.343   0.172   1.096  0.4178 -0.0615 -0.7086
 4366SOL     OW25570   0.233   7.738   7.624  0.0334  0.0428  0.4459
 4366SOL    HW125571   0.298   7.666   7.649  2.7494  1.8805 -0.9627
 4366SOL    HW225572   0.209   7.729   7.527 -1.2210 -0.1504  0.7633
 4367SOL     OW25573   8.897   6.762   8.376 -0.4186  0.1625 -0.1187
 4367SOL    HW125574   8.883   6.775   8.474  0.5999 -1.2264  0.2376
 4367SOL    HW225575   8.979   6.706   8.362  0.5722  2.0157 -1.8424
 4368SOL     OW25576   5.572   4.546   8.469  0.4654  0.4364 -0.3129
 4368SOL    HW125577   5.646   4.603   8.504  0.7413  0.9023 -1.5895
 4368SOL    HW225578   5.571   4.552   8.369 -0.5980 -0.4449 -0.3632
 4369SOL     OW25579   1.096   7.237   3.919 -0.1273  0.4322 -0.4254
 4369SOL    HW125580   1.157   7.160   3.905  0.1010 -0.0153  2.6204
 4369SOL    HW225581   1.088   7.289   3.834  2.1203 -1.1803 -1.6912
 4370SOL     OW25582   4.220   1.144   0.166  0.0746  0.4234 -0.3063
 4370SOL    HW125583   4.152   1.146   0.092  1.0309 -0.6926 -1.2485
 4370SOL    HW225584   4.202   1.065   0.225 -0.6000  1.2312  0.5780
 4371SOL     OW25585   5.629   4.694   5.434 -0.4424  0.1718 -0.1496
 4371SOL    HW125586   5.698   4.650   5.377 -1.1493  0.9631 -1.6543
 4371SOL    HW225587   5.569   4.750   5.377 -2.8892 -1.1867  0.9878
 4372SOL     OW25588   5.190   1.195   1.155  0.7561  0.5129  0.2687
 4372SOL    HW125589   5.259   1.189   1.082 -0.5750 -0.7483 -0.9059
 4372SOL    HW225590   5.225   1.150   1.237  1.3166 -0.2051 -0.3505
 4373SOL     OW25591   4.965   2.538   6.651  0.5511 -0.1796 -0.6511
 4373SOL    HW125592   4.887   2.528   6.590 -0.8105  0.3316  0.9676
 4373SOL    HW225593   4.967   2.631   6.688 -0.3900 -1.2989  2.3379
 4374SOL     OW25594   0.639   0.622   7.206  0.0521  0.3451 -0.4369
 4374SOL    HW125595   0.646   0.708   7.155 -1.7537  1.3184  0.8760
 4374SOL    HW225596   0.613   0.642   7.301  0.9142 -1.5823  0.2271
 4375SOL     OW25597   3.294   1.682   0.129 -0.1454  0.1840  0.6542
 4375SOL    HW125598   3.236   1.647   0.202 -0.2213 -0.7165  0.1665
 4375SOL    HW225599   3.375   1.726   0.168  0.1380 -0.8726  1.2570
 4376SOL     OW25600   0.830   4.083   4.832 -0.2771 -0.1276  0.3188
 4376SOL    HW125601   0.865   4.167   4.875  0.1773  0.2188 -0.7104
 4376SOL    HW225602   0.851   4.085   4.734 -0.1990 -1.4822  0.3007
 4377SOL     OW25603   1.455   3.069   2.659  0.2708  0.3266 -0.0893
 4377SOL    HW125604   1.398   2.989   2.643 -1.1085  1.1334  0.6666
 4377SOL    HW225605   1.523   3.077   2.586 -1.5626  0.1816 -1.8744
 4378SOL     OW25606   1.674   0.469   3.579 -0.7325 -0.0115 -0.4154
 4378SOL    HW125607   1.770   0.474   3.609 -0.4394  0.6630 -1.4738
 4378SOL    HW225608   1.664   0.395   3.513 -0.7622  0.5042 -0.9868
 4379SOL     OW25609   4.010   6.492   0.391  0.1747  0.3841 -0.5476
 4379SOL    HW125610   3.914   6.499   0.419  0.3552  1.1571 -0.1249
 4379SOL    HW225611   4.032   6.566   0.328  1.6624  2.8504  2.7431
 4380SOL     OW25612   2.292   8.688   2.925 -0.3057  0.6705 -0.0739
 4380SOL    HW125613   2.245   8.739   2.853  1.1815  1.6313 -0.3788
 4380SOL    HW225614   2.377   8.651   2.889  0.7479  1.6563  1.3345
 4381SOL     OW25615   0.046   3.556   4.477  0.1944  0.0472 -0.8754
 4381SOL    HW125616   0.040   3.505   4.562 -0.8740  2.1292  0.3263
 4381SOL    HW225617   0.140   3.554   4.444  0.1342 -2.9117 -1.0400
 4382SOL     OW25618   7.988   3.536   3.689 -0.0466 -0.4137 -0.5145
 4382SOL    HW125619   7.952   3.629   3.690  0.5736 -0.1753  0.3350
 4382SOL    HW225620   8.087   3.539   3.672 -0.1703 -0.9704 -1.3686
 4383SOL     OW25621   2.294   5.139   6.949  0.1657 -0.0695 -0.2174
 4383SOL    HW125622   2.202   5.139   6.909  0.2259  1.1502 -0.3621
 4383SOL    HW225623   2.361   5.158   6.878  0.4301  0.2150  0.1046
 4384SOL     OW25624   7.908   8.241   5.496 -0.1553  0.7588  0.2586
 4384SOL    HW125625   7.894   8.312   5.427 -2.9938  0.5834  0.5813
 4384SOL    HW225626   7.997   8.198   5.483  0.8151  3.1178 -1.0900
 4385SOL     OW25627   5.146   7.832   1.880  0.8649  0.2772  0.5123
 4385SOL    HW125628   5.209   7.897   1.837  1.7026 -0.9600 -0.1408
 4385SOL    HW225629   5.056   7.876   1.891  1.0492  1.1124 -1.1207
 4386SOL     OW25630   8.895   4.091   3.779 -0.2115 -0.1335  0.4784
 4386SOL    HW125631   8.912   4.140   3.693 -1.6864 -0.7539 -0.1904
 4386SOL    HW225632   8.912   3.994   3.766  0.5504 -0.0921  1.1789
 4387SOL     OW25633   6.708   8.333   5.464  0.0388  0.0581 -0.0696
 4387SOL    HW125634   6.621   8.367   5.501 -0.3872  0.2828 -1.2542
 4387SOL    HW225635   6.689   8.268   5.390  0.8754  0.4217 -0.6111
 4388SOL     OW25636   4.252   5.095   8.357 -0.4454  0.0092  0.1386
 4388SOL    HW125637   4.160   5.112   8.393 -0.4840  3.1870 -1.3465
 4388SOL    HW225638   4.247   5.076   8.259  0.4998  0.6660 -0.0454
 4389SOL     OW25639   6.813   6.584   6.705 -0.6122  0.2613  0.0376
 4389SOL    HW125640   6.901   6.553   6.739 -1.1495  1.1396  2.2643
 4389SOL    HW225641   6.762   6.505   6.670 -1.1424 -1.1430  3.7708
 4390SOL     OW25642   6.048   0.998   2.791 -0.3906  0.0428 -0.1531
 4390SOL    HW125643   6.021   0.912   2.833  0.3442 -1.3118 -2.3877
 4390SOL    HW225644   6.137   0.988   2.747 -0.3157  1.9373 -0.4793
 4391SOL     OW25645   2.593   2.057   5.497  0.5555 -0.0478 -0.0543
 4391SOL    HW125646   2.615   1.999   5.575 -0.1284 -2.8364 -1.8905
 4391SOL    HW225647   2.519   2.120   5.523  2.3085  1.1228  2.4022
 4392SOL     OW25648   3.647   0.188   8.811 -0.1210 -0.5450 -0.0760
 4392SOL    HW125649   3.624   0.102   8.766  0.8201 -1.3594  0.9853
 4392SOL    HW225650   3.695   0.170   8.896  1.3857  1.0582 -0.5585
 4393SOL     OW25651   6.830   4.789   4.170 -0.0476 -0.5396  0.5966
 4393SOL    HW125652   6.843   4.771   4.268  1.9651  1.2205  0.7028
 4393SOL    HW225653   6.911   4.759   4.120  0.5639  2.0616 -0.0197
 4394SOL     OW25654   2.311   6.722   7.688  0.6991 -0.2267 -0.0305
 4394SOL    HW125655   2.251   6.796   7.657  0.4173 -0.4709 -0.0679
 4394SOL    HW225656   2.283   6.694   7.780  0.7137 -0.3876 -0.0759
 4395SOL     OW25657   4.256   7.946   7.740  0.4413 -0.2395  1.0142
 4395SOL    HW125658   4.173   7.957   7.795  1.5628 -0.8318  2.8720
 4395SOL    HW225659   4.270   8.028   7.684  0.0624  0.9984  2.7024
 4396SOL     OW25660   5.261   4.635   7.846 -0.0419 -0.0844 -0.2719
 4396SOL    HW125661   5.209   4.719   7.829 -0.1156  0.0355  0.5396
 4396SOL    HW225662   5.283   4.592   7.758 -0.4324  0.5181 -0.6744
 4397SOL     OW25663   1.168   1.909   8.492 -0.0698  0.5335  0.3318
 4397SOL    HW125664   1.189   1.825   8.443  1.1624  1.6539 -1.1094
 4397SOL    HW225665   1.104   1.964   8.438  0.6320  1.3926  0.3738
 4398SOL     OW25666   8.713   8.398   0.624  0.6191 -0.0240  0.1932
 4398SOL    HW125667   8.805   8.379   0.590  0.4099  1.3465 -1.1828
 4398SOL    HW225668   8.685   8.489   0.595 -0.8041 -0.0543  1.4264
 4399SOL     OW25669   2.448   2.159   0.404 -0.4761 -0.4406 -0.0976
 4399SOL    HW125670   2.494   2.099   0.338 -0.8760 -1.7051  0.7574
 4399SOL    HW225671   2.363   2.116   0.434 -0.6530  0.4627  0.6927
 4400SOL     OW25672   6.795   8.744   6.020 -0.6710  0.6083 -0.1010
 4400SOL    HW125673   6.774   8.703   6.108 -0.3041 -1.1700 -0.8173
 4400SOL    HW225674   6.710   8.775   5.977 -1.0239  0.1483  0.2532
 4401SOL     OW25675   3.835   1.666   7.973 -0.1721 -0.4986  0.1956
 4401SOL    HW125676   3.862   1.601   7.901  0.0762  1.0392 -1.1325
 4401SOL    HW225677   3.742   1.698   7.954 -0.0955 -0.0696  0.5408
 4402SOL     OW25678   8.615   0.184   0.450 -0.0841 -0.3081  0.2315
 4402SOL    HW125679   8.557   0.212   0.373 -0.5104 -0.3741  0.5260
 4402SOL    HW225680   8.711   0.184   0.422 -0.1160  0.9812  0.0868
 4403SOL     OW25681   0.105   5.691   5.997  0.4840  0.0754  0.2340
 4403SOL    HW125682   0.052   5.686   5.912  0.3687  0.3548  0.2889
 4403SOL    HW225683   0.168   5.614   6.001  0.4403  0.0214 -0.0729
 4404SOL     OW25684   6.568   2.925   2.502  0.2375  0.6927 -0.3696
 4404SOL    HW125685   6.583   2.836   2.545  1.8132  1.2130  0.1890
 4404SOL    HW225686   6.471   2.935   2.478 -0.2284 -0.5408  0.9590
 4405SOL     OW25687   1.452   5.975   0.428 -0.1912  0.0246  0.3423
 4405SOL    HW125688   1.375   5.976   0.491 -0.7529  0.8553 -0.3390
 4405SOL    HW225689   1.445   6.054   0.366  1.3589  0.2699  0.4656
 4406SOL     OW25690   6.866   7.952   0.471  0.5401  0.3381 -0.3125
 4406SOL    HW125691   6.882   7.867   0.420  2.1496  0.9772 -0.9259
 4406SOL    HW225692   6.825   7.931   0.559  3.7891 -1.3785  0.8651
 4407SOL     OW25693   0.718   4.331   7.709  0.6007 -0.0524  0.0156
 4407SOL    HW125694   0.651   4.263   7.738 -1.4780  1.2573 -1.6569
 4407SOL    HW225695   0.769   4.296   7.630 -0.9515  0.5778 -1.2898
 4408SOL     OW25696   7.957   6.259   6.664  0.3013 -0.4448  0.2815
 4408SOL    HW125697   8.012   6.315   6.726  0.4474 -0.7126  0.3935
 4408SOL    HW225698   8.004   6.172   6.647  1.1321  0.3365 -1.5994
 4409SOL     OW25699   0.323   5.229   8.611  0.4271  0.2987 -0.3816
 4409SOL    HW125700   0.318   5.290   8.532  1.1823  1.5660  0.5292
 4409SOL    HW225701   0.379   5.271   8.682 -5.2353  2.0325  3.3464
 4410SOL     OW25702   7.433   3.543   7.776  0.1480  0.3277 -0.3295
 4410SOL    HW125703   7.401   3.533   7.870  0.6574  0.4880 -0.1333
 4410SOL    HW225704   7.361   3.515   7.713 -0.1592  0.1134  0.1107
 4411SOL     OW25705   2.273   7.296   7.487 -0.6763  0.6197  0.3514
 4411SOL    HW125706   2.230   7.354   7.418  1.2423  1.7623  0.0703
 4411SOL    HW225707   2.300   7.352   7.565  0.9763  0.0910  0.1890
 4412SOL     OW25708   6.961   5.614   7.230 -0.1223  0.2277  0.4648
 4412SOL    HW125709   7.061   5.626   7.226 -0.1990  0.8898  0.4982
 4412SOL    HW225710   6.920   5.650   7.147 -0.3626  0.1799  0.5632
 4413SOL     OW25711   6.088   6.842   0.671 -0.1147  0.0664  0.4341
 4413SOL    HW125712   6.007   6.894   0.643 -0.8171  0.6936  3.4278
 4413SOL    HW225713   6.067   6.744   0.671  0.2879 -0.0410 -2.3471
 4414SOL     OW25714   0.147   5.737   2.143 -0.3824 -0.2147 -0.1234
 4414SOL    HW125715   0.236   5.701   2.115 -0.1157 -0.0109  0.4715
 4414SOL    HW225716   0.109   5.793   2.069 -0.9623 -1.9878 -1.2036
 4415SOL     OW25717   2.610   3.781   7.623 -0.2421  0.2354  0.1379
 4415SOL    HW125718   2.602   3.874   7.588  1.9895  0.4575  0.1605
 4415SOL    HW225719   2.705   3.750   7.615 -1.0424 -2.2193 -0.3304
 4416SOL     OW25720   0.056   4.114   4.059 -0.0829 -0.2458  0.4259
 4416SOL    HW125721   0.033   4.092   4.154 -0.7217 -0.5792  0.1989
 4416SOL    HW225722  -0.020   4.165   4.018  0.7248  0.9994  0.4712
 4417SOL     OW25723   6.854   4.257   8.261  0.0949 -0.1281 -0.8167
 4417SOL    HW125724   6.758   4.284   8.262  0.5656  1.5267 -0.3781
 4417SOL    HW225725   6.891   4.271   8.169  0.0014 -0.4823 -0.9087
 4418SOL     OW25726   8.857   4.158   4.963  0.2036  0.5250 -0.2165
 4418SOL    HW125727   8.892   4.242   4.921  0.3465 -0.0085 -1.1945
 4418SOL    HW225728   8.771   4.132   4.919 -0.2547  0.5964  0.6336
 4419SOL     OW25729   3.818   6.053   1.543  0.4419  0.1164  0.2162
 4419SOL    HW125730   3.855   6.047   1.636  0.7536 -0.5001  0.0547
 4419SOL    HW225731   3.719   6.069   1.548  0.0729 -2.1339  0.6764
 4420SOL     OW25732   6.283   4.649   1.255 -0.3798 -0.2340  0.1099
 4420SOL    HW125733   6.314   4.577   1.317  0.3601  0.5400  0.6565
 4420SOL    HW225734   6.337   4.646   1.171  0.5952  0.5421  0.6946
 4421SOL     OW25735   4.884   3.598   0.303  0.1491 -0.3470 -0.2319
 4421SOL    HW125736   4.858   3.687   0.267  1.3237 -0.1931 -0.7260
 4421SOL    HW225737   4.803   3.540   0.311 -0.5527  0.6151 -0.3141
 4422SOL     OW25738   7.735   5.363   0.240  0.3368  0.3929 -0.1546
 4422SOL    HW125739   7.792   5.296   0.194  1.3479  1.4747 -0.5057
 4422SOL    HW225740   7.791   5.417   0.303 -0.7815 -0.2111  1.3900
 4423SOL     OW25741   2.710   8.703   8.346  0.3147  0.2332  0.0579
 4423SOL    HW125742   2.783   8.770   8.334 -0.4705  1.0832 -0.0465
 4423SOL    HW225743   2.749   8.615   8.372  1.3167  0.9064  0.8863
 4424SOL     OW25744   4.896   1.613   7.994 -0.2259 -0.2896 -0.1306
 4424SOL    HW125745   4.982   1.638   7.950  1.3746 -1.8157  2.0102
 4424SOL    HW225746   4.861   1.529   7.953 -1.1341  0.7303 -1.5094
 4425SOL     OW25747   2.974   3.543   1.319  0.1644 -0.8383  0.4122
 4425SOL    HW125748   2.971   3.446   1.342  1.1532 -0.8461  0.5131
 4425SOL    HW225749   3.060   3.564   1.273  0.5638  0.2711  1.6417
 4426SOL     OW25750   4.303   0.626   4.890 -0.3631  0.4525  0.1309
 4426SOL    HW125751   4.376   0.686   4.860 -1.1837  2.2608  1.6323
 4426SOL    HW225752   4.227   0.630   4.824  0.0000  0.2543 -0.3008
 4427SOL     OW25753   8.339   1.919   8.105 -0.0721  0.1102  0.0535
 4427SOL    HW125754   8.350   1.939   8.203 -0.6649  0.2168  0.0978
 4427SOL    HW225755   8.422   1.874   8.071  0.6091  1.1351  0.3326
 4428SOL     OW25756   7.740   6.384   6.866 -0.1678 -0.5266  0.2138
 4428SOL    HW125757   7.838   6.404   6.873 -0.1970 -0.6527  1.1240
 4428SOL    HW225758   7.717   6.358   6.773  0.2075  1.9829 -0.6095
 4429SOL     OW25759   1.522   4.824   0.295  0.1155  0.0283  0.0821
 4429SOL    HW125760   1.608   4.800   0.249  0.6763 -0.3357  1.2876
 4429SOL    HW225761   1.476   4.741   0.326 -0.3125  0.2603  0.0701
 4430SOL     OW25762   4.065   0.187   6.233  0.1295 -0.2436 -0.0559
 4430SOL    HW125763   4.022   0.108   6.190  0.0348 -0.0755 -0.2747
 4430SOL    HW225764   4.163   0.170   6.244  0.0523 -0.5187  0.1936
 4431SOL     OW25765   1.805   7.021   1.408 -0.1388  0.0673 -0.3450
 4431SOL    HW125766   1.871   7.095   1.399 -0.0330 -0.0721 -0.7304
 4431SOL    HW225767   1.712   7.059   1.411 -0.0250  0.2917  0.6060
 4432SOL     OW25768   8.066   6.832   2.493  0.0016  0.2819  0.7330
 4432SOL    HW125769   8.023   6.880   2.569 -0.7422 -0.8734  1.0465
 4432SOL    HW225770   8.015   6.850   2.409  0.4471  1.0320  0.6153
 4433SOL     OW25771   4.331   7.857   6.415 -0.1953  0.0530 -0.0477
 4433SOL    HW125772   4.327   7.888   6.510  1.2376  0.5711 -0.1338
 4433SOL    HW225773   4.414   7.803   6.402 -1.8591 -2.4836 -0.3097
 4434SOL     OW25774   0.811   5.550   6.346 -0.1420 -0.4189 -0.7324
 4434SOL    HW125775   0.840   5.526   6.254  1.8048  0.2052 -0.3149
 4434SOL    HW225776   0.875   5.511   6.412 -2.3579 -2.1715  0.4733
 4435SOL     OW25777   0.138   5.199   3.686  0.4572  0.0918  0.6935
 4435SOL    HW125778   0.225   5.190   3.734  0.4826  1.5802  0.9199
 4435SOL    HW225779   0.076   5.258   3.738  0.1221  0.8822 -0.5944
 4436SOL     OW25780   5.655   0.806   8.741  0.4375 -0.5195 -0.3286
 4436SOL    HW125781   5.670   0.707   8.740 -0.4393 -0.6588 -0.3513
 4436SOL    HW225782   5.742   0.853   8.758  1.1306 -1.2228 -1.8573
 4437SOL     OW25783   8.108   2.056   7.698 -0.1683 -0.1439 -0.2353
 4437SOL    HW125784   8.009   2.044   7.684 -0.1793  0.9978 -1.2722
 4437SOL    HW225785   8.139   1.994   7.769 -1.3812 -1.5333 -0.8760
 4438SOL     OW25786   3.506   8.274   0.822  0.1533  0.0117  0.4120
 4438SOL    HW125787   3.544   8.344   0.882  0.9333 -0.8091  0.8848
 4438SOL    HW225788   3.538   8.184   0.851 -1.8683 -0.6793  0.6119
 4439SOL     OW25789   0.511   8.443   6.538 -0.0616 -0.1718 -0.1993
 4439SOL    HW125790   0.433   8.381   6.540 -1.7262  1.9183  0.6976
 4439SOL    HW225791   0.520   8.483   6.447  0.0479 -0.4763 -0.3254
 4440SOL     OW25792   8.984   6.511   6.678 -0.4180 -0.0332 -0.4234
 4440SOL    HW125793   8.887   6.529   6.663 -0.4517 -0.7293 -1.1106
 4440SOL    HW225794   9.016   6.443   6.612  0.6703  0.5825 -0.5504
 4441SOL     OW25795   8.049   4.869   0.316  0.0152 -0.7270 -0.7940
 4441SOL    HW125796   8.096   4.829   0.395 -3.0876 -2.8801  0.0740
 4441SOL    HW225797   8.022   4.796   0.254  0.1809  0.7244 -2.5941
 4442SOL     OW25798   6.892   2.142   8.531 -0.3637 -0.0191  0.0966
 4442SOL    HW125799   6.892   2.072   8.461 -1.0191 -1.6107  1.6560
 4442SOL    HW225800   6.809   2.197   8.524 -0.2020  0.1427 -0.6429
 4443SOL     OW25801   7.160   6.071   3.042  0.0951 -0.2709 -0.9030
 4443SOL    HW125802   7.085   6.061   3.107 -1.2612  1.9613 -2.0507
 4443SOL    HW225803   7.212   6.154   3.065 -0.4535  0.5826 -2.6888
 4444SOL     OW25804   5.106   5.720   5.211  0.3496  0.5702  0.0545
 4444SOL    HW125805   5.143   5.640   5.164 -0.9648 -1.0148  1.6436
 4444SOL    HW225806   5.012   5.735   5.183  0.4350  1.2755  0.1346
 4445SOL     OW25807   7.295   7.338   1.572  0.7713  0.2912  0.0808
 4445SOL    HW125808   7.269   7.244   1.595  0.9705 -0.0995 -1.2599
 4445SOL    HW225809   7.287   7.352   1.473  2.1285  1.2518  0.0907
 4446SOL     OW25810   3.398   4.672   0.772  0.3190 -0.0685 -0.0682
 4446SOL    HW125811   3.306   4.634   0.782  1.2780 -2.0923  1.3938
 4446SOL    HW225812   3.455   4.644   0.849  1.9641  1.8182 -0.5326
 4447SOL     OW25813   1.303   7.581   3.554 -0.3055  0.4794  0.7621
 4447SOL    HW125814   1.331   7.644   3.627  3.0798  0.3904 -0.3729
 4447SOL    HW225815   1.262   7.633   3.479  0.9893  1.1918  0.5294
 4448SOL     OW25816   8.938   5.001   3.389 -0.9652  0.1663 -0.4152
 4448SOL    HW125817   8.889   5.077   3.432 -2.2528 -1.2241  0.6406
 4448SOL    HW225818   9.022   4.983   3.440 -1.5872 -0.3043  0.4663
 4449SOL     OW25819   6.278   3.244   0.509  0.3732  0.3085  0.3417
 4449SOL    HW125820   6.364   3.294   0.504 -0.6796  1.9014 -3.8685
 4449SOL    HW225821   6.201   3.308   0.502 -1.0578 -1.6050 -2.5459
 4450SOL     OW25822   6.007   6.213   6.666 -0.5351 -0.1787 -0.0171
 4450SOL    HW125823   5.915   6.187   6.696 -0.8192 -0.5928 -1.2333
 4450SOL    HW225824   6.075   6.163   6.720 -1.0609 -2.0394 -1.0310
 4451SOL     OW25825   2.809   1.644   3.221 -0.7235 -0.3531  0.6808
 4451SOL    HW125826   2.733   1.701   3.253  1.2646  2.8400 -0.1123
 4451SOL    HW225827   2.870   1.624   3.298 -0.1399  0.6342  0.4747
 4452SOL     OW25828   0.994   6.618   7.930  0.0295 -0.0131  0.4501
 4452SOL    HW125829   0.962   6.690   7.992  0.4396  1.9131 -1.5362
 4452SOL    HW225830   0.917   6.560   7.905 -0.3300 -0.2247  1.9839
 4453SOL     OW25831   8.552   8.423   5.279 -0.0913 -0.0056 -0.8122
 4453SOL    HW125832   8.538   8.369   5.196  2.2877 -1.6009 -0.2290
 4453SOL    HW225833   8.504   8.380   5.355 -1.7418  1.1074 -1.1906
 4454SOL     OW25834   1.333   4.343   6.131  0.0783  0.1777 -0.1496
 4454SOL    HW125835   1.347   4.438   6.159 -3.2800  1.0118 -1.1630
 4454SOL    HW225836   1.361   4.331   6.036  0.3342  0.1689 -0.0750
 4455SOL     OW25837   1.313   4.636   8.571  0.2492  0.6283 -0.1808
 4455SOL    HW125838   1.409   4.662   8.566  0.5646 -0.1639  1.3388
 4455SOL    HW225839   1.301   4.544   8.534  0.3464  0.1197  1.0241
 4456SOL     OW25840   7.325   0.194   8.224  0.1843  0.0911  0.4406
 4456SOL    HW125841   7.406   0.138   8.235  1.1310  0.8289 -2.3742
 4456SOL    HW225842   7.255   0.143   8.174  0.1762  0.5709 -0.0535
 4457SOL     OW25843   6.042   8.227   7.309  0.0078 -0.2401  0.1698
 4457SOL    HW125844   5.954   8.255   7.347  0.1275 -1.0787  1.0743
 4457SOL    HW225845   6.028   8.185   7.219 -0.9985 -4.0427  1.9904
 4458SOL     OW25846   6.898   8.598   8.592 -0.0409 -0.2989 -0.0573
 4458SOL    HW125847   6.916   8.515   8.540 -0.4744  0.7917 -2.0104
 4458SOL    HW225848   6.947   8.675   8.550  0.1819  0.4805  1.5876
 4459SOL     OW25849   3.663   5.603   2.337 -0.4653  0.2547 -0.2912
 4459SOL    HW125850   3.640   5.640   2.427  0.6739 -0.9906  0.5378
 4459SOL    HW225851   3.736   5.657   2.297  0.4617 -0.4166  0.4546
 4460SOL     OW25852   6.534   0.113   8.762 -0.1312  0.5373  0.3780
 4460SOL    HW125853   6.571   0.021   8.776 -1.2742  0.0324  0.1382
 4460SOL    HW225854   6.604   0.181   8.785  1.2563 -0.4085 -0.9205
 4461SOL     OW25855   5.853   6.112   0.552  0.0001  0.2103  0.0851
 4461SOL    HW125856   5.837   6.015   0.534  1.0729 -0.4187  2.3443
 4461SOL    HW225857   5.765   6.158   0.564 -0.4649 -0.9166  1.1470
 4462SOL     OW25858   7.101   0.171   8.837  0.0211 -0.3438  0.0819
 4462SOL    HW125859   7.178   0.109   8.817  0.0880  0.1641 -1.3048
 4462SOL    HW225860   7.137   0.259   8.866 -0.0202  0.1495 -1.3485
 4463SOL     OW25861   7.742   6.301   2.091 -0.3566  0.5311 -0.2580
 4463SOL    HW125862   7.781   6.243   2.163  3.1383  2.1447 -0.7371
 4463SOL    HW225863   7.742   6.251   2.005 -0.1615  0.2065 -0.0731
 4464SOL     OW25864   2.963   7.187   7.885  0.3366 -0.8344  0.2968
 4464SOL    HW125865   2.990   7.261   7.945  2.2200 -0.4810 -0.9457
 4464SOL    HW225866   3.044   7.146   7.842 -0.8719 -1.6643 -1.2935
 4465SOL     OW25867   1.371   5.123   0.706 -0.5965 -0.2603 -0.4328
 4465SOL    HW125868   1.301   5.194   0.702 -0.8625 -0.4967 -0.0562
 4465SOL    HW225869   1.401   5.100   0.614  0.1183  0.9603 -0.5158
 4466SOL     OW25870   1.172   0.955   7.666 -0.0013 -0.3267 -0.1131
 4466SOL    HW125871   1.128   1.032   7.619  1.3104  1.5511  1.6081
 4466SOL    HW225872   1.165   0.968   7.765 -0.4858 -2.8896  0.2238
 4467SOL     OW25873   2.122   3.937   8.669  0.4862  0.0056  0.4319
 4467SOL    HW125874   2.162   4.008   8.611  0.4350  1.5609  2.2715
 4467SOL    HW225875   2.179   3.855   8.666  1.6481  0.8215 -0.0971
 4468SOL     OW25876   8.463   3.181   7.571 -0.2328 -0.6254  0.4506
 4468SOL    HW125877   8.530   3.204   7.641  0.9360 -0.4747 -0.7080
 4468SOL    HW225878   8.453   3.258   7.508 -0.6738 -1.0765 -0.0361
 4469SOL     OW25879   0.769   6.319   0.668  0.3293  0.9793  0.3656
 4469SOL    HW125880   0.826   6.252   0.717 -3.0855 -2.7461 -0.5155
 4469SOL    HW225881   0.747   6.395   0.729  0.6913 -0.8491  2.8596
 4470SOL     OW25882   8.512   2.955   8.299 -1.2501 -0.4894  0.0286
 4470SOL    HW125883   8.484   2.943   8.203 -0.7383  2.6172 -0.5612
 4470SOL    HW225884   8.596   2.904   8.316 -0.8648 -0.3726 -1.4536
 4471SOL     OW25885   5.479   7.301   8.030 -0.0357  0.3568  0.5390
 4471SOL    HW125886   5.517   7.392   8.013 -0.5831  0.9616  2.4588
 4471SOL    HW225887   5.381   7.302   8.015  0.0649 -0.1089 -0.1617
 4472SOL     OW25888   1.943   6.494   1.938  0.0482 -0.7204  0.6532
 4472SOL    HW125889   1.851   6.455   1.934 -1.9609  3.6166  1.3707
 4472SOL    HW225890   1.980   6.503   1.846 -1.8844  1.0260  0.0163
 4473SOL     OW25891   6.543   6.400   4.678  0.1780  0.5521  0.1419
 4473SOL    HW125892   6.549   6.447   4.766  0.4080 -0.6557  0.7824
 4473SOL    HW225893   6.569   6.462   4.605 -0.0283  1.5721  0.9250
 4474SOL     OW25894   8.282   6.017   5.739 -0.7030 -0.2752 -0.4975
 4474SOL    HW125895   8.319   6.011   5.831  0.2571  1.3029 -0.7591
 4474SOL    HW225896   8.318   5.942   5.683  0.7661  0.2459 -0.2769
 4475SOL     OW25897   1.821   3.735   8.148 -0.3985  0.2997  0.3378
 4475SOL    HW125898   1.844   3.639   8.130  1.1717  0.9529 -1.2187
 4475SOL    HW225899   1.802   3.747   8.245  0.4477 -1.3805  0.7277
 4476SOL     OW25900   1.288   3.845   5.226  0.2409  0.0756  0.0243
 4476SOL    HW125901   1.219   3.871   5.294  0.5699  0.7621  0.1006
 4476SOL    HW225902   1.316   3.926   5.175  2.0644  0.0817  0.9957
 4477SOL     OW25903   7.334   3.844   7.584 -0.2009  0.1223 -0.1029
 4477SOL    HW125904   7.403   3.915   7.591  0.3245 -0.4799  0.9418
 4477SOL    HW225905   7.365   3.762   7.632 -1.5000 -0.2617  0.1082
 4478SOL     OW25906   1.582   5.940   4.074 -0.3439  0.3270 -0.4341
 4478SOL    HW125907   1.621   5.991   4.151 -0.7354 -1.9169  1.2974
 4478SOL    HW225908   1.486   5.919   4.093 -1.5171  2.8486 -3.1642
 4479SOL     OW25909   6.182   7.845   7.519  0.1980  0.0616  0.7011
 4479SOL    HW125910   6.234   7.861   7.435 -0.9039  0.0724  0.0034
 4479SOL    HW225911   6.118   7.920   7.534  0.3634  0.0458  1.5430
 4480SOL     OW25912   2.026   7.743   2.253 -0.3045 -0.5178 -0.1295
 4480SOL    HW125913   2.095   7.700   2.312  0.2072  2.3426  1.4665
 4480SOL    HW225914   1.981   7.817   2.303 -0.9966  0.9451 -2.8072
 4481SOL     OW25915   3.931   8.176   7.877  0.3201 -0.0583  0.1271
 4481SOL    HW125916   3.951   8.108   7.948 -0.4579  1.2020  1.5841
 4481SOL    HW225917   3.867   8.138   7.811  0.7176 -1.0977  0.3332
 4482SOL     OW25918   5.627   6.492   6.262 -0.2800  0.2465  0.3575
 4482SOL    HW125919   5.632   6.478   6.163 -1.5652  3.0188 -0.1417
 4482SOL    HW225920   5.684   6.424   6.308 -1.5269 -2.6222 -2.1370
 4483SOL     OW25921   3.617   5.778   1.540  0.5885  0.1556 -0.1409
 4483SOL    HW125922   3.715   5.776   1.523  0.9012 -1.4552  1.6296
 4483SOL    HW225923   3.588   5.691   1.581 -1.3807  1.0295  0.4189
 4484SOL     OW25924   2.219   7.332   3.637 -0.2752 -0.0351  0.1251
 4484SOL    HW125925   2.249   7.372   3.723 -0.8734 -2.3181  1.4412
 4484SOL    HW225926   2.121   7.346   3.626 -0.2194  0.1583 -0.1532
 4485SOL     OW25927   4.466   3.817   2.118 -0.1771  0.2220  0.5573
 4485SOL    HW125928   4.446   3.914   2.105 -0.0624  0.2766  0.7883
 4485SOL    HW225929   4.388   3.772   2.162 -0.8592 -0.1137 -0.9559
 4486SOL     OW25930   4.773   3.786   0.169  0.0958  0.1427  0.0700
 4486SOL    HW125931   4.689   3.734   0.184 -0.7032  1.3962  0.0304
 4486SOL    HW225932   4.755   3.883   0.183  1.5770  0.4159  0.1927
 4487SOL     OW25933   2.649   2.546   2.265  0.1523  0.5964 -0.2100
 4487SOL    HW125934   2.714   2.619   2.245  1.1693 -0.6085 -1.4408
 4487SOL    HW225935   2.566   2.585   2.304  0.0992  2.5726 -2.1712
 4488SOL     OW25936   6.105   3.992   4.436 -0.0309  0.6576  0.8812
 4488SOL    HW125937   6.086   3.943   4.351  0.2958  0.2665  1.0358
 4488SOL    HW225938   6.091   3.931   4.514 -1.6736  1.3931  1.1914
 4489SOL     OW25939   0.654   6.348   3.131 -0.2146  0.2117  0.0956
 4489SOL    HW125940   0.614   6.416   3.071 -0.5684  0.5123  0.6682
 4489SOL    HW225941   0.686   6.270   3.077 -0.2061  0.6382 -0.5104
 4490SOL     OW25942   6.792   1.890   3.600  0.0458 -0.1938  0.2688
 4490SOL    HW125943   6.880   1.843   3.597 -0.9617 -2.0951 -0.4501
 4490SOL    HW225944   6.766   1.917   3.508 -0.3476 -0.1005  0.4061
 4491SOL     OW25945   0.621   4.874   6.188 -1.1328  0.0364  0.1946
 4491SOL    HW125946   0.604   4.830   6.276  2.9200  0.5061  1.3114
 4491SOL    HW225947   0.570   4.960   6.183 -0.2466  0.7542  2.7365
 4492SOL     OW25948   3.075   3.938   8.523 -0.5892 -0.4736 -0.2234
 4492SOL    HW125949   3.149   3.911   8.586 -2.1630 -2.7684  0.7367
 4492SOL    HW225950   3.108   4.008   8.461  1.6525  0.3764  1.8258
 4493SOL     OW25951   0.784   8.781   0.156 -0.6576  0.3072 -0.9617
 4493SOL    HW125952   0.868   8.808   0.202 -0.6560  0.3866 -1.0117
 4493SOL    HW225953   0.805   8.743   0.066 -0.5377 -1.2731 -0.2823
 4494SOL     OW25954   8.968   6.363   3.092 -0.9829  0.4415 -0.2805
 4494SOL    HW125955   8.922   6.300   3.029 -0.6375 -0.1913  0.0949
 4494SOL    HW225956   8.914   6.447   3.101 -1.7929 -0.0757 -0.2670
 4495SOL     OW25957   4.292   6.110   8.232 -0.0736 -0.4695 -0.2009
 4495SOL    HW125958   4.200   6.090   8.197  0.4072 -1.8019 -0.7257
 4495SOL    HW225959   4.332   6.027   8.270  0.8916  0.1279  0.1026
 4496SOL     OW25960   8.587   5.477   3.451  0.2399  0.6271  0.1838
 4496SOL    HW125961   8.591   5.520   3.541  0.9189  2.8174 -0.8553
 4496SOL    HW225962   8.533   5.393   3.457 -0.9236  1.4761  2.3307
 4497SOL     OW25963   8.907   8.364   1.098  0.5948  0.0261 -0.3041
 4497SOL    HW125964   8.930   8.459   1.077 -0.9953 -0.2243 -3.4084
 4497SOL    HW225965   8.913   8.350   1.197 -1.5723  3.9882  0.4873
 4498SOL     OW25966   4.378   1.163   8.826  0.3011  0.1445 -0.7517
 4498SOL    HW125967   4.320   1.237   8.794 -0.6840 -0.5029 -0.4849
 4498SOL    HW225968   4.347   1.131   8.915  0.2496 -1.0874 -1.2013
 4499SOL     OW25969   1.704   0.645   0.432 -0.3089 -0.3698  0.4770
 4499SOL    HW125970   1.631   0.690   0.484 -1.2619 -1.4968  0.1183
 4499SOL    HW225971   1.666   0.571   0.376  0.6668  0.8414 -1.9035
 4500SOL     OW25972   7.354   0.849   0.950  0.4651  0.7636 -0.1521
 4500SOL    HW125973   7.348   0.932   1.006 -0.3148  1.7042 -1.5887
 4500SOL    HW225974   7.340   0.769   1.008 -2.8595  1.8095  0.6232
 4501SOL     OW25975   4.680   6.950   3.875  0.0690 -0.3089  0.2626
 4501SOL    HW125976   4.682   6.859   3.833 -0.3685 -0.6963  1.0698
 4501SOL    HW225977   4.658   6.941   3.972 -0.6331  0.7109  0.2039
 4502SOL     OW25978   5.232   6.488   3.794  0.4450 -0.1140 -0.2687
 4502SOL    HW125979   5.277   6.465   3.881  1.6399 -0.1909 -0.8892
 4502SOL    HW225980   5.133   6.487   3.806  0.5992  0.0208  1.1318
 4503SOL     OW25981   3.702   7.450   1.609 -0.5065  0.1685  0.4859
 4503SOL    HW125982   3.684   7.356   1.579  1.4992 -0.4020  0.9674
 4503SOL    HW225983   3.652   7.514   1.551  1.0718 -1.0427 -2.3091
 4504SOL     OW25984   3.951   3.979   2.288 -0.3577  0.3134 -0.4931
 4504SOL    HW125985   3.907   3.938   2.368  1.0658  0.2317  0.2704
 4504SOL    HW225986   3.961   3.910   2.216 -0.6517  0.1045 -0.3330
 4505SOL     OW25987   5.927   0.717   0.289  0.0477  0.0580 -0.2646
 4505SOL    HW125988   6.020   0.746   0.270  0.2581 -0.1705  0.3868
 4505SOL    HW225989   5.920   0.618   0.278 -0.3968  0.2138 -1.4085
 4506SOL     OW25990   4.441   2.323   3.707 -0.6389  0.4666  0.4754
 4506SOL    HW125991   4.442   2.320   3.607 -0.2793  0.1519  0.4828
 4506SOL    HW225992   4.408   2.411   3.738 -1.5154  0.2799  0.0806
 4507SOL     OW25993   1.739   0.541   2.703 -0.3176  0.5639 -0.1467
 4507SOL    HW125994   1.683   0.505   2.778 -1.2398  1.2051 -0.5152
 4507SOL    HW225995   1.834   0.515   2.717 -0.6531 -0.2502  0.6744
 4508SOL     OW25996   4.414   4.772   2.165 -0.2312  0.1598  0.3826
 4508SOL    HW125997   4.320   4.805   2.179 -0.3010 -0.2073  0.8082
 4508SOL    HW225998   4.473   4.810   2.236  0.2750  1.6910 -0.8282
 4509SOL     OW25999   8.598   8.036   8.659  0.3557 -0.2739 -0.2577
 4509SOL    HW126000   8.621   7.938   8.653  0.3654 -0.3569  0.9592
 4509SOL    HW226001   8.512   8.046   8.709  1.1785  0.4367  1.0226
 4510SOL     OW26002   2.319   7.082   4.181 -0.0449  0.2505 -0.2128
 4510SOL    HW126003   2.321   6.986   4.155  0.5417  0.5823 -1.4427
 4510SOL    HW226004   2.258   7.132   4.120  0.0637  0.7523  0.0827
 4511SOL     OW26005   6.245   3.743   1.526 -0.4032  0.4878 -0.0211
 4511SOL    HW126006   6.270   3.829   1.570  0.2229 -0.0743  0.7308
 4511SOL    HW226007   6.305   3.728   1.447  0.1900  0.2254  0.4747
 4512SOL     OW26008   5.807   1.541   8.501 -0.0554  0.3199 -0.1482
 4512SOL    HW126009   5.717   1.513   8.532 -1.0722  0.5008 -2.8725
 4512SOL    HW226010   5.845   1.607   8.567 -1.9500  0.3842  0.9254
 4513SOL     OW26011   8.503   5.757   7.254  0.3951  0.2547  0.5517
 4513SOL    HW126012   8.504   5.827   7.182 -0.0077 -0.8926 -0.5790
 4513SOL    HW226013   8.533   5.798   7.340  1.0090  1.6105 -0.2917
 4514SOL     OW26014   7.672   5.940   2.477 -0.1308 -0.6336 -0.4765
 4514SOL    HW126015   7.674   5.943   2.577 -1.5182 -2.2522 -0.3675
 4514SOL    HW226016   7.661   5.845   2.446 -1.5040  0.0097 -2.0994
 4515SOL     OW26017   7.385   8.682   5.564 -0.3530  0.3934  0.7731
 4515SOL    HW126018   7.295   8.721   5.547 -0.5707 -0.4983 -0.1829
 4515SOL    HW226019   7.384   8.631   5.650 -1.0686 -0.5490  0.2071
 4516SOL     OW26020   6.332   4.849   8.177  0.6422 -0.2438 -0.0794
 4516SOL    HW126021   6.265   4.805   8.237 -1.0653 -0.6282 -2.2165
 4516SOL    HW226022   6.324   4.948   8.185  0.1040 -0.2922 -0.0302
 4517SOL     OW26023   6.536   1.027   8.511 -0.4132 -0.3584  0.3358
 4517SOL    HW126024   6.618   1.048   8.457 -0.4189 -0.1388  0.4117
 4517SOL    HW226025   6.563   1.006   8.605 -0.4637 -0.0826  0.4106
 4518SOL     OW26026   6.612   2.794   8.529  0.8819 -0.2824 -0.1708
 4518SOL    HW126027   6.634   2.838   8.441 -0.3482  0.4576 -0.1207
 4518SOL    HW226028   6.513   2.784   8.537  0.9922 -0.3746  1.1238
 4519SOL     OW26029   3.146   5.360   5.430 -0.0096 -0.0417 -0.4431
 4519SOL    HW126030   3.198   5.282   5.466 -1.1347  0.5232  2.5140
 4519SOL    HW226031   3.200   5.405   5.359  2.5607 -0.8576  0.9140
 4520SOL     OW26032   3.456   5.725   3.722 -0.0076 -0.5448 -0.1053
 4520SOL    HW126033   3.543   5.773   3.714 -0.1845 -0.0370  0.9870
 4520SOL    HW226034   3.424   5.728   3.816 -0.9235 -1.2411 -0.3803
 4521SOL     OW26035   5.001   8.971   7.460 -0.0883  0.4674  0.1676
 4521SOL    HW126036   5.040   8.945   7.371  0.9369 -0.1691  0.7938
 4521SOL    HW226037   5.073   8.971   7.529 -1.2837 -1.0799  1.4328
 4522SOL     OW26038   3.920   0.044   2.982  0.7801 -0.2082  0.1264
 4522SOL    HW126039   4.017   0.062   2.968 -0.0057  4.8289  0.3989
 4522SOL    HW226040   3.907  -0.006   3.068  3.1665 -2.3205 -0.6815
 4523SOL     OW26041   8.812   5.923   2.865 -0.3993  0.3091  0.0936
 4523SOL    HW126042   8.893   5.866   2.854  0.3515  0.8283  2.6134
 4523SOL    HW226043   8.732   5.864   2.879  0.0705 -0.1663  0.8184
 4524SOL     OW26044   1.094   5.475   6.402  0.1584  0.4195 -0.0096
 4524SOL    HW126045   1.121   5.385   6.437 -0.2492  0.1981 -0.2605
 4524SOL    HW226046   1.148   5.546   6.448  1.0872 -0.0039 -0.4197
 4525SOL     OW26047   2.417   4.142   3.046 -0.0732 -0.1228  0.2271
 4525SOL    HW126048   2.401   4.239   3.031 -3.0083 -0.4468  0.9095
 4525SOL    HW226049   2.453   4.128   3.139 -0.6219  0.2176  0.4900
 4526SOL     OW26050   3.515   7.694   1.859 -0.4632 -0.2468  0.3864
 4526SOL    HW126051   3.517   7.725   1.764  1.5482 -1.3699  0.0297
 4526SOL    HW226052   3.520   7.773   1.920  2.0236  0.3268 -0.4918
 4527SOL     OW26053   6.868   4.330   6.451  0.0498  0.0783 -0.5147
 4527SOL    HW126054   6.817   4.291   6.527  2.0517  0.2208  0.9575
 4527SOL    HW226055   6.907   4.256   6.396 -0.2326 -0.0151 -0.5921
 4528SOL     OW26056   4.540   2.662   7.816  0.4581 -0.1544  0.0825
 4528SOL    HW126057   4.509   2.746   7.860  1.8730  1.0245 -1.1205
 4528SOL    HW226058   4.466   2.625   7.759  0.4652  1.3746 -0.9531
 4529SOL     OW26059   1.684   8.848   0.483 -0.2274  0.1294  0.1437
 4529SOL    HW126060   1.650   8.902   0.560  0.8591  0.3894  0.4426
 4529SOL    HW226061   1.678   8.751   0.505 -0.2649  0.1914  0.4076
 4530SOL     OW26062   7.846   3.478   5.831  0.0472  0.5022 -0.0218
 4530SOL    HW126063   7.918   3.443   5.771 -0.5202 -0.8999  0.1158
 4530SOL    HW226064   7.826   3.411   5.902  0.7660  2.1720  1.8113
 4531SOL     OW26065   7.421   7.236   5.804  0.2948 -0.3490  0.1052
 4531SOL    HW126066   7.490   7.303   5.778  1.1498 -0.8086  1.1425
 4531SOL    HW226067   7.462   7.145   5.809 -1.0402 -1.1004 -2.0539
 4532SOL     OW26068   8.799   6.835   4.941 -0.4440  0.1326 -0.5697
 4532SOL    HW126069   8.713   6.877   4.911  0.1751  0.0543 -2.5064
 4532SOL    HW226070   8.779   6.767   5.012 -1.7029  1.8316  0.7503
 4533SOL     OW26071   2.440   1.699   4.984  0.5570 -0.2503  0.0825
 4533SOL    HW126072   2.444   1.599   4.992 -0.3009 -0.1240  2.4587
 4533SOL    HW226073   2.486   1.727   4.900 -1.1872 -2.8000 -1.7926
 4534SOL     OW26074   1.727   4.115   2.139 -0.3426 -0.1529 -0.3672
 4534SOL    HW126075   1.745   4.031   2.088  0.1242 -0.6183  0.5333
 4534SOL    HW226076   1.631   4.117   2.167 -0.2651 -0.5870 -0.0545
 4535SOL     OW26077   4.672   4.085   4.744  0.7164 -0.0393 -0.0527
 4535SOL    HW126078   4.634   4.061   4.655 -0.0218  0.1960  0.1878
 4535SOL    HW226079   4.728   4.010   4.778 -2.4928 -1.9409  1.2190
 4536SOL     OW26080   2.478   2.207   1.672 -0.9258 -0.6740 -0.1814
 4536SOL    HW126081   2.430   2.275   1.616  0.0961  0.2045  0.0092
 4536SOL    HW226082   2.569   2.191   1.635 -0.5673 -0.7391  0.7182
 4537SOL     OW26083   8.999   6.281   6.895 -0.0697  0.1791  0.6876
 4537SOL    HW126084   9.019   6.301   6.799 -0.9600  0.1465  0.4926
 4537SOL    HW226085   8.900   6.285   6.910  0.0958  0.6550  1.7095
 4538SOL     OW26086   5.153   2.954   0.931 -0.2159 -1.0553 -0.2977
 4538SOL    HW126087   5.226   2.962   0.862 -1.3880 -1.1843 -1.5836
 4538SOL    HW226088   5.077   2.902   0.892 -1.8514  0.8390  0.3098
 4539SOL     OW26089   1.718   8.416   2.419 -0.3923 -0.2980 -0.6238
 4539SOL    HW126090   1.730   8.389   2.323 -2.0268 -0.1516 -0.8833
 4539SOL    HW226091   1.636   8.373   2.456  1.1843 -1.7337  1.2537
 4540SOL     OW26092   5.925   6.860   5.154 -0.3059  0.6349 -0.2609
 4540SOL    HW126093   5.965   6.795   5.219 -0.1599  1.0284  0.0439
 4540SOL    HW226094   5.981   6.862   5.071 -1.7056 -1.4913 -1.2918
 4541SOL     OW26095   2.173   4.741   6.735 -0.0801  0.5785 -0.1673
 4541SOL    HW126096   2.155   4.643   6.743 -1.3262  0.7191 -1.1219
 4541SOL    HW226097   2.246   4.767   6.798  0.1764 -0.9413  0.1702
 4542SOL     OW26098   3.238   4.572   3.478 -0.3498  0.0080 -0.0345
 4542SOL    HW126099   3.192   4.510   3.541  0.2670  0.6581  1.0752
 4542SOL    HW226100   3.202   4.665   3.491  0.6206  0.3565  0.2038
 4543SOL     OW26101   8.319   2.968   6.543  0.0042 -0.0410  0.3514
 4543SOL    HW126102   8.265   2.956   6.626 -1.2496  1.8125 -0.1573
 4543SOL    HW226103   8.261   2.958   6.463  0.8094  0.0576 -0.2577
 4544SOL     OW26104   4.642   5.758   0.987  0.6429 -0.2637 -0.0634
 4544SOL    HW126105   4.713   5.736   0.920  0.3474  2.7691 -1.4310
 4544SOL    HW226106   4.683   5.801   1.067  0.6358 -1.0301  0.3591
 4545SOL     OW26107   0.887   6.991   3.203  0.5641 -0.6619 -0.1921
 4545SOL    HW126108   0.856   6.897   3.220  0.1410 -0.6396 -0.8244
 4545SOL    HW226109   0.899   7.005   3.104  0.5054 -0.0170 -0.1101
 4546SOL     OW26110   3.237   2.111   3.316 -0.6143  0.0289 -0.7532
 4546SOL    HW126111   3.290   2.189   3.348  1.2317 -2.3153  2.1931
 4546SOL    HW226112   3.139   2.129   3.327 -0.1723  1.5107  0.9067
 4547SOL     OW26113   4.517   7.272   6.000 -0.1652  0.2700 -0.3403
 4547SOL    HW126114   4.429   7.238   6.034 -0.2301  0.3068 -0.4712
 4547SOL    HW226115   4.539   7.225   5.914 -1.2045  1.9887 -1.5692
 4548SOL     OW26116   0.516   3.831   8.801  0.1382  0.0376 -0.1899
 4548SOL    HW126117   0.557   3.889   8.731  1.3821 -1.1653 -0.4649
 4548SOL    HW226118   0.586   3.772   8.842 -0.8126 -0.1868  1.1738
 4549SOL     OW26119   3.609   4.885   5.378  0.1283  0.3049 -0.1235
 4549SOL    HW126120   3.520   4.853   5.344 -0.7397 -0.3612  2.6542
 4549SOL    HW226121   3.620   4.982   5.355 -1.7737  0.6623  0.3864
 4550SOL     OW26122   5.579   4.741   3.995 -0.1453  0.1243 -0.2109
 4550SOL    HW126123   5.614   4.671   4.057 -0.3085  1.4974  1.4594
 4550SOL    HW226124   5.500   4.785   4.037 -1.3849 -0.1671 -2.1942
 4551SOL     OW26125   3.978   3.847   2.059  0.2368 -0.6807 -0.4896
 4551SOL    HW126126   3.948   3.752   2.072  0.1180 -0.9984 -2.9082
 4551SOL    HW226127   3.991   3.865   1.962 -2.2091  2.5816 -0.2903
 4552SOL     OW26128   7.460   5.786   0.208 -0.9693  0.2940 -0.2552
 4552SOL    HW126129   7.466   5.757   0.303 -2.6396  1.2976  0.1673
 4552SOL    HW226130   7.516   5.725   0.151  0.8339  0.2765  1.4716
 4553SOL     OW26131   5.983   3.284   0.156 -0.1932 -0.2319  0.3001
 4553SOL    HW126132   5.935   3.270   0.243  0.3745  1.2342  0.8614
 4553SOL    HW226133   5.934   3.352   0.102 -0.7425 -1.4048 -0.6955
 4554SOL     OW26134   2.358   7.062   4.974 -0.4387  0.0145  0.2369
 4554SOL    HW126135   2.428   7.013   5.026 -0.3231  0.2765  0.3329
 4554SOL    HW226136   2.396   7.148   4.940 -1.3176  1.1716  2.0926
 4555SOL     OW26137   4.807   7.386   7.651 -0.1959 -0.1919 -0.6241
 4555SOL    HW126138   4.881   7.326   7.618  0.9910  0.7335  0.3129
 4555SOL    HW226139   4.740   7.398   7.578  2.3913  1.8185 -2.8076
 4556SOL     OW26140   2.051   3.681   8.495 -0.3275 -0.3140 -0.3532
 4556SOL    HW126141   2.090   3.726   8.575 -0.6074  1.5532 -1.2443
 4556SOL    HW226142   1.957   3.712   8.481 -1.5111 -3.2837  0.6094
 4557SOL     OW26143   6.230   3.957   0.938  0.1041 -0.1351 -0.3760
 4557SOL    HW126144   6.268   3.964   1.030 -1.7736  2.1132  0.2865
 4557SOL    HW226145   6.282   4.016   0.876  0.1405 -0.1001 -0.3123
 4558SOL     OW26146   2.024   8.421   3.265  0.2198  0.0148 -0.3605
 4558SOL    HW126147   2.035   8.448   3.169  0.5895  0.3970 -0.2108
 4558SOL    HW226148   2.091   8.469   3.321 -0.8498  0.7799  0.2757
 4559SOL     OW26149   3.082   6.932   7.872  0.3625  0.2006  0.0867
 4559SOL    HW126150   3.086   6.901   7.777  0.2394 -1.2884  0.5593
 4559SOL    HW226151   2.987   6.933   7.902  0.3449  1.2666  0.0056
 4560SOL     OW26152   1.487   1.405   1.558 -0.6746 -0.3733  0.5682
 4560SOL    HW126153   1.575   1.451   1.566 -1.1546  1.1448 -2.3235
 4560SOL    HW226154   1.416   1.461   1.602 -0.8718  0.5488 -0.8863
 4561SOL     OW26155   6.935   6.019   3.855 -0.2438  0.7572 -0.2293
 4561SOL    HW126156   6.996   6.084   3.810  0.0795  0.5162 -0.1373
 4561SOL    HW226157   6.879   5.973   3.786  0.4894  0.1447 -0.4170
 4562SOL     OW26158   5.215   8.890   0.448  0.3009  0.0882  0.0353
 4562SOL    HW126159   5.311   8.862   0.443  0.3210  0.0695  0.4665
 4562SOL    HW226160   5.159   8.811   0.472  0.1271  0.0061 -0.6494
 4563SOL     OW26161   2.187   3.615   5.923 -0.1341 -0.4238 -0.6955
 4563SOL    HW126162   2.142   3.702   5.899  0.4411  0.4253  1.2162
 4563SOL    HW226163   2.128   3.539   5.897 -1.1102  0.5753 -1.4466
 4564SOL     OW26164   5.605   3.883   1.280 -0.4085  0.2208  0.2221
 4564SOL    HW126165   5.568   3.938   1.206  1.2561  0.2430 -0.6272
 4564SOL    HW226166   5.618   3.789   1.249  1.4916  0.5127  0.0357
 4565SOL     OW26167   4.421   2.572   6.667 -0.1529  1.0139 -0.2036
 4565SOL    HW126168   4.511   2.605   6.639  0.3172  1.2727  1.5135
 4565SOL    HW226169   4.401   2.604   6.760 -2.0254  0.9557 -0.5530
 4566SOL     OW26170   3.782   7.464   2.371  0.1031 -0.2804  0.6076
 4566SOL    HW126171   3.859   7.408   2.339 -0.6983 -1.2787  0.3860
 4566SOL    HW226172   3.699   7.408   2.373 -0.9070  1.1268 -0.4743
 4567SOL     OW26173   2.578   1.460   3.190 -0.3136 -0.2234 -0.3499
 4567SOL    HW126174   2.663   1.512   3.185 -1.2197  1.5322  1.4913
 4567SOL    HW226175   2.591   1.370   3.149  3.4819 -1.3999  3.1174
 4568SOL     OW26176   8.495   4.287   5.023 -0.4519 -0.4836 -1.1333
 4568SOL    HW126177   8.452   4.360   5.077 -1.3045 -1.4330 -0.5015
 4568SOL    HW226178   8.551   4.230   5.083  1.5901  0.6515 -1.9284
 4569SOL     OW26179   8.801   1.193   6.800 -0.3215  0.2858  0.6273
 4569SOL    HW126180   8.759   1.165   6.714  0.3012 -0.6165  0.6092
 4569SOL    HW226181   8.778   1.126   6.871  0.7072  0.0245  0.7222
 4570SOL     OW26182   6.761   3.942   5.666 -0.0300  0.7712  0.0824
 4570SOL    HW126183   6.764   3.844   5.646  0.6304  0.7061  0.4684
 4570SOL    HW226184   6.752   3.993   5.581 -1.4114  0.3378 -0.0496
 4571SOL     OW26185   4.166   8.474   1.121 -0.3082 -0.0456 -0.3850
 4571SOL    HW126186   4.084   8.531   1.118 -1.4704 -1.6881 -0.3953
 4571SOL    HW226187   4.150   8.389   1.072  1.2794 -0.5653 -0.0473
 4572SOL     OW26188   2.239   2.084   0.994  0.5275  0.0079  0.2348
 4572SOL    HW126189   2.290   2.162   1.031 -0.9654  2.0038 -1.8563
 4572SOL    HW226190   2.257   2.076   0.896 -0.5851 -1.3262  0.1283
 4573SOL     OW26191   4.877   2.248   6.197  0.1337 -0.7999  0.4136
 4573SOL    HW126192   4.841   2.340   6.184 -0.8888 -1.4256 -1.5653
 4573SOL    HW226193   4.807   2.181   6.170  1.4926 -2.1170  0.0752
 4574SOL     OW26194   0.247   1.597   8.570 -0.5115 -0.3352  0.7426
 4574SOL    HW126195   0.180   1.650   8.623 -1.1584 -0.5688  0.1662
 4574SOL    HW226196   0.205   1.512   8.539 -0.2462 -0.0640 -0.3999
 4575SOL     OW26197   1.868   5.645   5.509 -0.0747  0.1030  0.5604
 4575SOL    HW126198   1.780   5.682   5.538  0.6440  1.6883  0.7882
 4575SOL    HW226199   1.939   5.673   5.573  0.8848  0.3363 -0.5766
 4576SOL     OW26200   4.902   4.005   8.057 -0.2126 -0.1437  0.6529
 4576SOL    HW126201   4.994   4.045   8.057 -1.9888  4.2680 -1.3941
 4576SOL    HW226202   4.895   3.940   7.981  0.7068  0.9510 -0.4114
 4577SOL     OW26203   3.575   8.820   6.159 -0.0188  0.2533 -0.1119
 4577SOL    HW126204   3.617   8.838   6.247 -0.1821  1.7180 -0.3066
 4577SOL    HW226205   3.543   8.726   6.155  4.3242 -1.3177 -0.4241
 4578SOL     OW26206   1.567   3.929   4.570 -0.6432  0.1027 -0.2448
 4578SOL    HW126207   1.608   3.984   4.643  0.4164 -1.1958  0.1717
 4578SOL    HW226208   1.484   3.974   4.537 -0.9643  0.8891  1.5304
 4579SOL     OW26209   2.203   7.727   5.531 -0.7237 -0.0768 -0.4320
 4579SOL    HW126210   2.155   7.702   5.615  0.3258 -5.0782 -1.1305
 4579SOL    HW226211   2.294   7.761   5.553 -1.0635  0.2594  0.4969
 4580SOL     OW26212   3.295   7.572   6.863  0.0730 -0.2859  0.6097
 4580SOL    HW126213   3.333   7.593   6.953  1.6286  1.6521 -0.4574
 4580SOL    HW226214   3.213   7.628   6.848  0.2015 -0.1158  0.5469
 4581SOL     OW26215   8.670   0.038   7.339  0.3450 -0.2752  0.0527
 4581SOL    HW126216   8.736   0.015   7.411 -0.1060 -1.2564  0.1626
 4581SOL    HW226217   8.701  -0.000   7.252 -1.3734 -3.0836  0.5962
 4582SOL     OW26218   2.138   2.828   1.665  0.2244 -0.2097 -0.1674
 4582SOL    HW126219   2.148   2.827   1.764 -0.6784 -1.2472 -0.0749
 4582SOL    HW226220   2.229   2.821   1.622  0.5691 -0.4684  0.5909
 4583SOL     OW26221   8.410   7.470   6.275 -0.2216  0.2558  0.1389
 4583SOL    HW126222   8.317   7.495   6.301 -0.6297 -0.7106 -0.3521
 4583SOL    HW226223   8.432   7.512   6.187 -0.1037  0.6772  0.3679
 4584SOL     OW26224   8.337   2.828   3.729 -0.4567 -0.1429 -0.2076
 4584SOL    HW126225   8.299   2.913   3.764 -1.2913 -0.0745 -1.2490
 4584SOL    HW226226   8.278   2.792   3.656  0.3929 -1.1067 -0.4413
 4585SOL     OW26227   2.550   4.577   3.598 -0.2604 -0.0684  0.2992
 4585SOL    HW126228   2.638   4.562   3.642  0.5380  0.7467 -0.9861
 4585SOL    HW226229   2.564   4.599   3.501 -1.7550  1.7008  0.4432
 4586SOL     OW26230   5.195   4.595   2.772  0.0525 -0.4859 -0.4529
 4586SOL    HW126231   5.109   4.590   2.721  0.3795  0.8711 -1.1567
 4586SOL    HW226232   5.207   4.687   2.808  0.3914 -1.1206  1.1086
 4587SOL     OW26233   8.299   8.795   4.645  0.0427 -0.2163  0.1874
 4587SOL    HW126234   8.253   8.805   4.733  0.7210  2.3114  0.3016
 4587SOL    HW226235   8.398   8.790   4.660  0.1405 -0.0891 -0.4139
 4588SOL     OW26236   4.891   0.310   5.511  0.0113  0.3102 -0.0423
 4588SOL    HW126237   4.905   0.397   5.559 -1.3813  0.8828 -0.6229
 4588SOL    HW226238   4.804   0.314   5.462 -0.0661 -1.4288 -0.0622
 4589SOL     OW26239   4.532   2.107   2.542 -0.0650 -0.4180  1.1183
 4589SOL    HW126240   4.485   2.193   2.564  3.1807  1.3180  1.7627
 4589SOL    HW226241   4.546   2.101   2.443 -0.6225 -0.3624  1.0363
 4590SOL     OW26242   5.154   4.627   4.589  0.2216  0.0686  0.5646
 4590SOL    HW126243   5.180   4.532   4.570  0.2904 -0.4085  2.9915
 4590SOL    HW226244   5.212   4.665   4.660 -0.1878  1.7701  0.0323
 4591SOL     OW26245   1.530   0.281   6.049 -0.5404  0.1687 -0.4653
 4591SOL    HW126246   1.577   0.212   6.105  1.1437  1.4817 -0.2332
 4591SOL    HW226247   1.446   0.242   6.013  0.2118 -1.9156 -0.0474
 4592SOL     OW26248   4.303   3.511   1.752  0.2115 -0.4235  0.2662
 4592SOL    HW126249   4.242   3.467   1.686  0.5849  1.1961 -1.2015
 4592SOL    HW226250   4.397   3.507   1.718  0.1769  1.9759 -0.2044
 4593SOL     OW26251   1.313   0.787   6.793 -0.0684  0.1907  0.4749
 4593SOL    HW126252   1.322   0.884   6.769 -3.0009  0.6663  1.1235
 4593SOL    HW226253   1.275   0.737   6.716  0.0373 -0.1662  0.6568
 4594SOL     OW26254   4.423   0.973   7.896 -0.1651  0.3091 -0.7195
 4594SOL    HW126255   4.368   0.921   7.831 -1.3658 -0.0708  0.5773
 4594SOL    HW226256   4.498   0.915   7.930  0.9632  0.7716 -2.3503
 4595SOL     OW26257   4.209   4.714   2.924  0.7153  0.4149 -0.2170
 4595SOL    HW126258   4.112   4.693   2.926  0.7267  0.4288  1.3634
 4595SOL    HW226259   4.262   4.631   2.942  1.0087  0.3854 -1.1756
 4596SOL     OW26260   3.193   8.875   5.151  0.0668  0.3238 -0.5458
 4596SOL    HW126261   3.109   8.824   5.136  1.6702 -2.3920 -0.6668
 4596SOL    HW226262   3.209   8.886   5.249  0.1956 -0.2893 -0.4930
 4597SOL     OW26263   8.651   7.689   5.368  0.1702  0.4962 -0.6756
 4597SOL    HW126264   8.693   7.615   5.421 -0.5977  0.7086  0.2353
 4597SOL    HW226265   8.693   7.776   5.393 -0.3981  0.6344 -0.1981
 4598SOL     OW26266   8.011   8.734   6.996  0.3683 -0.3967  0.4883
 4598SOL    HW126267   8.089   8.723   7.057  0.8963 -0.4258 -0.1944
 4598SOL    HW226268   7.996   8.649   6.945  0.3904 -0.1239  0.0262
 4599SOL     OW26269   7.529   3.754   3.250  0.0381 -0.3961  0.1250
 4599SOL    HW126270   7.555   3.850   3.262 -0.1884 -0.5267  1.8646
 4599SOL    HW226271   7.505   3.737   3.155 -0.2198  1.3530 -0.1370
 4600SOL     OW26272   6.768   3.935   2.795 -0.0094 -0.0793 -0.4698
 4600SOL    HW126273   6.687   3.880   2.774  0.7460 -0.7396 -1.7685
 4600SOL    HW226274   6.748   4.031   2.778 -1.4072  0.1028  2.0166
 4601SOL     OW26275   5.219   1.517   8.690  0.5488 -0.1066  0.0710
 4601SOL    HW126276   5.304   1.514   8.637  0.8401 -1.2937  0.5728
 4601SOL    HW226277   5.164   1.594   8.661  1.3929  0.1434 -0.8982
 4602SOL     OW26278   5.202   6.788   7.653  0.4957  0.5824  0.0378
 4602SOL    HW126279   5.218   6.706   7.598 -0.6014 -0.4473  1.2351
 4602SOL    HW226280   5.280   6.850   7.643  1.1567 -0.4157 -1.1948
 4603SOL     OW26281   2.490   1.443   1.586 -0.0338  0.0110  0.6034
 4603SOL    HW126282   2.548   1.509   1.536  0.3165 -0.1344  0.8156
 4603SOL    HW226283   2.527   1.351   1.574 -0.3455 -0.1071  0.5648
 4604SOL     OW26284   8.027   3.966   4.986 -0.8944  0.0414 -0.8664
 4604SOL    HW126285   7.987   4.055   4.964  0.3603  0.8120 -0.0545
 4604SOL    HW226286   7.960   3.912   5.037  0.0882  2.5082  3.2377
 4605SOL     OW26287   6.232   3.591   1.246 -0.5386  0.3551 -0.1488
 4605SOL    HW126288   6.232   3.497   1.280 -0.9790 -0.5124 -2.4636
 4605SOL    HW226289   6.323   3.630   1.256  0.0393 -0.8590 -0.5845
 4606SOL     OW26290   1.184   5.177   6.078  0.0015 -0.0482  0.1105
 4606SOL    HW126291   1.088   5.162   6.051 -0.3831 -2.2686  2.5541
 4606SOL    HW226292   1.220   5.095   6.121  2.3009  1.5645  1.3846
 4607SOL     OW26293   6.263   4.039   3.536  0.0781  0.8079 -0.5342
 4607SOL    HW126294   6.238   4.072   3.627 -2.9429  0.3017 -1.1122
 4607SOL    HW226295   6.194   4.069   3.470  0.7650 -1.1229 -2.1844
 4608SOL     OW26296   0.391   2.219   8.061  0.2959  0.1758 -0.2023
 4608SOL    HW126297   0.303   2.249   8.097  0.7718 -1.6389  2.6308
 4608SOL    HW226298   0.414   2.273   7.980 -3.3569  0.7198 -0.9682
 4609SOL     OW26299   2.670   4.925   0.957  0.0286 -0.0969 -0.5804
 4609SOL    HW126300   2.597   4.895   1.018 -0.4720  0.0539 -1.1025
 4609SOL    HW226301   2.632   4.982   0.884  0.9481  1.6514  0.2896
 4610SOL     OW26302   1.931   0.178   2.347 -0.4480 -1.2830  0.8975
 4610SOL    HW126303   1.891   0.204   2.259 -0.1471  0.3576  1.2215
 4610SOL    HW226304   1.948   0.079   2.349 -0.0360 -1.2658 -1.0571
 4611SOL     OW26305   0.914   6.513   8.375 -0.4232  0.4887 -0.4358
 4611SOL    HW126306   1.010   6.541   8.364 -0.1279 -0.9402 -1.6348
 4611SOL    HW226307   0.886   6.525   8.471  1.3090 -0.1921  0.1694
 4612SOL     OW26308   1.073   2.415   3.031 -0.6676  0.3961  0.6593
 4612SOL    HW126309   1.170   2.438   3.037 -0.5259 -0.1439  0.4928
 4612SOL    HW226310   1.040   2.384   3.120 -0.7666  0.8888  0.7937
 4613SOL     OW26311   3.590   7.151   6.446 -0.0116 -0.1695 -0.0056
 4613SOL    HW126312   3.562   7.189   6.534 -0.0060 -2.9848  1.2529
 4613SOL    HW226313   3.523   7.084   6.415  1.5282 -1.4830 -0.6022
 4614SOL     OW26314   2.187   1.476   3.001 -0.4477  0.2615 -0.1799
 4614SOL    HW126315   2.249   1.471   2.923 -0.0903  1.6092  0.0079
 4614SOL    HW226316   2.148   1.386   3.018  2.1800 -0.8192  0.2926
 4615SOL     OW26317   2.585   8.629   2.183 -0.0161  0.2917 -0.3190
 4615SOL    HW126318   2.639   8.590   2.108 -0.4458 -0.3324 -0.3147
 4615SOL    HW226319   2.617   8.591   2.270 -0.2836  0.1194 -0.2945
 4616SOL     OW26320   5.064   8.623   0.088  0.2405  0.0507  0.2396
 4616SOL    HW126321   4.982   8.578   0.124 -0.1983  1.6904  1.3294
 4616SOL    HW226322   5.129   8.639   0.163  0.4411  1.1092 -0.1491
 4617SOL     OW26323   8.608   6.566   1.574 -0.1742 -0.2827 -0.3387
 4617SOL    HW126324   8.557   6.484   1.545  1.3901 -1.0248 -1.0138
 4617SOL    HW226325   8.642   6.552   1.666  0.3178 -0.5027 -0.5529
 4618SOL     OW26326   6.861   1.814   8.048 -0.0269 -0.2137  0.9501
 4618SOL    HW126327   6.960   1.807   8.040 -0.0270 -0.3806  1.0879
 4618SOL    HW226328   6.832   1.908   8.028  0.3159  0.2469  2.5959
 4619SOL     OW26329   7.530   5.835   6.876 -0.1616 -0.0167  0.1090
 4619SOL    HW126330   7.492   5.855   6.786  3.7318  0.6929 -1.4812
 4619SOL    HW226331   7.507   5.741   6.902 -2.6049  0.2690 -0.8970
 4620SOL     OW26332   0.690   4.628   4.721 -0.2570 -0.3265  0.4715
 4620SOL    HW126333   0.734   4.656   4.807  0.6337  0.9274 -0.3906
 4620SOL    HW226334   0.606   4.578   4.743  0.1770 -0.3985  2.0867
 4621SOL     OW26335   2.657   2.085   4.398  0.5688  0.5872  0.1807
 4621SOL    HW126336   2.560   2.111   4.392  0.3630  0.1487  1.3856
 4621SOL    HW226337   2.714   2.167   4.397  0.1203  0.9058  0.5896
 4622SOL     OW26338   3.039   4.943   5.959 -0.6132 -0.0397 -0.3794
 4622SOL    HW126339   2.953   4.946   6.010  0.1708 -1.0915  1.0363
 4622SOL    HW226340   3.067   5.036   5.936 -1.2498  0.4199  0.6688
 4623SOL     OW26341   2.817   0.130   6.843  0.2763  0.3555  0.6159
 4623SOL    HW126342   2.744   0.072   6.808  0.9916 -0.1247 -0.1098
 4623SOL    HW226343   2.811   0.221   6.802  0.3502  0.1812  0.2189
 4624SOL     OW26344   3.284   2.287   3.060 -0.3137 -0.3177  0.0122
 4624SOL    HW126345   3.323   2.293   3.152  0.8715  0.3528 -0.5216
 4624SOL    HW226346   3.238   2.373   3.038 -0.6700 -0.5095  0.0126
 4625SOL     OW26347   3.161   4.372   8.277  0.1354  0.0100 -0.0337
 4625SOL    HW126348   3.189   4.437   8.207  1.3848  0.1365  0.5648
 4625SOL    HW226349   3.101   4.418   8.343  0.8354  0.5121  0.2660
 4626SOL     OW26350   2.714   8.715   8.692  0.0082  0.2967 -1.0339
 4626SOL    HW126351   2.626   8.682   8.657 -0.4836  2.4889 -1.9518
 4626SOL    HW226352   2.788   8.671   8.642 -0.5779 -0.8757 -0.8951
 4627SOL     OW26353   4.669   8.474   7.442  0.4000  0.3557 -0.0844
 4627SOL    HW126354   4.651   8.481   7.344 -0.6499  1.2256  0.1670
 4627SOL    HW226355   4.655   8.379   7.471  0.7636  0.0855 -0.7789
 4628SOL     OW26356   3.458   0.567   6.272  0.3046  0.1901  0.1959
 4628SOL    HW126357   3.379   0.613   6.231  0.3316  0.0931  0.0335
 4628SOL    HW226358   3.461   0.586   6.370  1.5741  2.3524 -0.2365
 4629SOL     OW26359   5.572   7.128   6.922  0.1327  0.0141  0.5609
 4629SOL    HW126360   5.562   7.227   6.932  2.2459  0.0896  2.4484
 4629SOL    HW226361   5.485   7.084   6.943 -1.1400  1.4974 -1.3886
 4630SOL     OW26362   5.723   1.260   6.531 -0.1320  0.4204 -1.0218
 4630SOL    HW126363   5.674   1.173   6.521 -0.6507  0.8203 -1.9486
 4630SOL    HW226364   5.756   1.290   6.442  0.4769  0.9326 -0.6263
 4631SOL     OW26365   5.773   6.468   7.294  0.0994  0.3388  0.6752
 4631SOL    HW126366   5.692   6.509   7.251  0.1868  0.6779  0.8342
 4631SOL    HW226367   5.801   6.388   7.241 -1.5278 -0.9860  1.7378
 4632SOL     OW26368   0.190   6.146   1.020  0.6667 -0.4781 -0.1545
 4632SOL    HW126369   0.105   6.128   0.971  0.3275  1.2131 -0.2036
 4632SOL    HW226370   0.246   6.210   0.968  2.0440 -1.6546 -0.1743
 4633SOL     OW26371   5.687   4.246   6.010 -0.1175  0.0984 -0.3796
 4633SOL    HW126372   5.593   4.211   6.015  0.1076 -0.6271 -1.1870
 4633SOL    HW226373   5.724   4.230   5.919  0.8012  0.3780 -0.0605
 4634SOL     OW26374   3.466   7.157   7.391  0.4404  0.0745 -0.3284
 4634SOL    HW126375   3.417   7.147   7.478 -0.6785 -2.4096 -1.2081
 4634SOL    HW226376   3.564   7.152   7.407  0.2290 -0.9401  0.7365
 4635SOL     OW26377   2.212   4.983   2.305  0.3139 -0.4519  0.4344
 4635SOL    HW126378   2.242   4.891   2.282  1.3240  0.4737 -2.1893
 4635SOL    HW226379   2.113   4.985   2.316  0.0044 -1.4032 -1.9033
 4636SOL     OW26380   0.209   4.726   3.948  0.0798 -0.1544  0.0454
 4636SOL    HW126381   0.242   4.659   3.882 -0.2102 -0.0073 -0.2501
 4636SOL    HW226382   0.130   4.774   3.910 -1.4125 -1.5353  1.3245
 4637SOL     OW26383   2.119   4.117   8.105 -0.4372 -0.5511 -0.3964
 4637SOL    HW126384   2.115   4.018   8.120  1.3439 -0.3508  1.7214
 4637SOL    HW226385   2.113   4.164   8.193  0.0541  1.1703 -1.2585
 4638SOL     OW26386   8.205   8.533   4.644  0.1177 -0.1038 -0.0462
 4638SOL    HW126387   8.112   8.499   4.630  0.1238  0.5790 -1.9209
 4638SOL    HW226388   8.217   8.618   4.592  2.0917 -0.7218 -0.6202
 4639SOL     OW26389   4.216   5.287   0.924 -0.4958 -0.0003  0.2124
 4639SOL    HW126390   4.163   5.236   0.991 -2.3923  0.7248 -0.7167
 4639SOL    HW226391   4.173   5.375   0.906  2.0747  1.4470  0.8654
 4640SOL     OW26392   8.490   7.090   4.220 -0.1350 -0.0931 -0.4266
 4640SOL    HW126393   8.504   7.130   4.129 -0.1448  3.5275  1.0528
 4640SOL    HW226394   8.437   7.006   4.212  1.6777 -0.9933 -3.9261
 4641SOL     OW26395   4.298   6.707   7.442  0.0787 -0.4311  0.1250
 4641SOL    HW126396   4.360   6.723   7.519 -1.7198  1.2106  1.2565
 4641SOL    HW226397   4.209   6.677   7.477 -0.3248 -1.0276 -1.3983
 4642SOL     OW26398   8.154   2.514   0.275  0.2803  0.1752 -0.1303
 4642SOL    HW126399   8.175   2.584   0.343 -0.7529  0.1185  0.2548
 4642SOL    HW226400   8.064   2.532   0.235  0.1062 -0.8019 -0.1918
 4643SOL     OW26401   8.419   8.367   5.510 -0.4999 -0.0269  0.7800
 4643SOL    HW126402   8.337   8.319   5.541  0.4534 -1.7534  0.7132
 4643SOL    HW226403   8.495   8.347   5.573  0.0843  0.8858  0.3803
 4644SOL     OW26404   7.930   3.766   2.975 -0.0974 -0.4350  0.0002
 4644SOL    HW126405   8.022   3.804   2.965  0.1636 -0.6888  1.3433
 4644SOL    HW226406   7.936   3.672   3.010 -0.9237  0.4691  2.7233
 4645SOL     OW26407   2.692   1.117   5.172  0.1340 -0.6490 -0.3441
 4645SOL    HW126408   2.763   1.123   5.242  0.7301 -0.8152 -0.9316
 4645SOL    HW226409   2.643   1.031   5.182  1.5089 -1.5638 -1.3528
 4646SOL     OW26410   0.866   2.973   0.173 -0.1744  0.2760 -0.3142
 4646SOL    HW126411   0.838   3.054   0.225  1.3167  0.0262  0.8912
 4646SOL    HW226412   0.958   2.986   0.138 -0.2759 -0.5293 -0.8948
 4647SOL     OW26413   7.216   6.726   8.846  0.1279 -0.1131  0.0449
 4647SOL    HW126414   7.247   6.650   8.902 -0.5062 -0.0015  0.5507
 4647SOL    HW226415   7.281   6.742   8.772  1.7227  0.6412  1.5757
 4648SOL     OW26416   4.688   5.454   7.384  0.1578  0.3359 -0.1063
 4648SOL    HW126417   4.651   5.362   7.397  1.0615 -0.1221 -0.7481
 4648SOL    HW226418   4.623   5.522   7.418  0.9148 -0.6707  3.5615
 4649SOL     OW26419   8.886   2.021   7.997  0.0750  0.4655 -0.2152
 4649SOL    HW126420   8.815   2.010   8.067 -0.1822 -2.2563 -0.8164
 4649SOL    HW226421   8.845   2.010   7.907  1.0541  0.0847 -0.6182
 4650SOL     OW26422   4.533   8.829   8.445 -0.0923 -0.2340  0.5266
 4650SOL    HW126423   4.453   8.807   8.389 -0.5620  1.7582  0.3389
 4650SOL    HW226424   4.617   8.805   8.396 -0.5617 -1.4645  0.3278
 4651SOL     OW26425   6.352   0.135   2.078  0.2159  0.1914 -0.0648
 4651SOL    HW126426   6.437   0.083   2.089 -1.1168 -1.9093  0.6418
 4651SOL    HW226427   6.309   0.149   2.167 -0.3461  0.9408 -0.4475
 4652SOL     OW26428   2.728   8.479   1.986  0.7386  0.6103 -0.2145
 4652SOL    HW126429   2.646   8.487   1.929 -0.9870 -1.1849  1.9324
 4652SOL    HW226430   2.764   8.386   1.981 -0.6385 -0.1705  3.1622
 4653SOL     OW26431   4.625   1.637   3.386 -0.0057  0.5293 -0.2910
 4653SOL    HW126432   4.555   1.652   3.456  1.1769  1.5990  0.6856
 4653SOL    HW226433   4.582   1.627   3.297 -1.4427  0.4753  0.3964
 4654SOL     OW26434   2.537   7.107   0.621 -0.2553 -0.2623 -0.2637
 4654SOL    HW126435   2.503   7.199   0.641  0.1185 -0.2722  0.4262
 4654SOL    HW226436   2.463   7.041   0.634 -0.3043 -0.1498  0.0250
 4655SOL     OW26437   8.206   8.428   7.371 -0.1961  0.1852 -0.3298
 4655SOL    HW126438   8.116   8.386   7.383 -1.4742  2.3851 -1.8695
 4655SOL    HW226439   8.233   8.422   7.275  2.7738 -3.2278  0.6057
 4656SOL     OW26440   5.535   4.873   8.623 -0.1864  0.4627 -0.6649
 4656SOL    HW126441   5.498   4.889   8.531 -1.6008  0.3694 -0.1181
 4656SOL    HW226442   5.461   4.879   8.690  0.3273 -2.1992  0.2007
 4657SOL     OW26443   5.631   4.754   2.116  0.4001 -0.7272 -0.2521
 4657SOL    HW126444   5.592   4.823   2.177 -0.2276 -0.8488 -0.5033
 4657SOL    HW226445   5.598   4.663   2.142 -0.4491 -0.7061 -1.1988
 4658SOL     OW26446   4.593   0.662   3.126 -0.0067 -0.3452 -0.1296
 4658SOL    HW126447   4.526   0.722   3.082 -0.6040 -1.5227 -0.8562
 4658SOL    HW226448   4.582   0.569   3.090  0.5499 -0.9943  1.3716
 4659SOL     OW26449   8.378   6.302   3.262  0.2732  0.2290  0.4376
 4659SOL    HW126450   8.300   6.276   3.205  1.3361  0.8749 -1.3576
 4659SOL    HW226451   8.449   6.232   3.256  1.0830  1.1019 -0.4067
 4660SOL     OW26452   2.263   6.609   4.740  0.4484 -0.7071 -0.4370
 4660SOL    HW126453   2.224   6.677   4.678  0.5259  1.0968  1.4140
 4660SOL    HW226454   2.348   6.644   4.779  0.5222 -1.8938  0.4980
 4661SOL     OW26455   7.924   2.552   0.024  0.7838  0.3514  0.0355
 4661SOL    HW126456   7.970   2.604  -0.048 -0.9800  1.5714 -0.2468
 4661SOL    HW226457   7.948   2.456   0.016  0.4199  0.4281 -2.3625
 4662SOL     OW26458   5.711   8.053   1.693  0.5490 -0.0554 -0.5368
 4662SOL    HW126459   5.793   7.995   1.692  0.0270 -0.8294  0.6331
 4662SOL    HW226460   5.687   8.075   1.787 -1.6559 -1.3506 -0.7875
 4663SOL     OW26461   2.573   4.814   0.231 -0.3351 -0.6729 -0.0702
 4663SOL    HW126462   2.645   4.751   0.204 -0.4454 -0.7282 -0.2378
 4663SOL    HW226463   2.598   4.859   0.317  0.1957 -0.2045 -0.4684
 4664SOL     OW26464   5.149   0.720   6.610 -0.4289  1.0265 -0.2672
 4664SOL    HW126465   5.119   0.736   6.704 -0.7116  0.1147 -0.1978
 4664SOL    HW226466   5.069   0.717   6.550 -0.4536 -0.9590 -0.1517
 4665SOL     OW26467   4.277   8.273   6.228  0.6990  0.7806  0.1093
 4665SOL    HW126468   4.354   8.336   6.217  1.8601 -0.8091 -1.2154
 4665SOL    HW226469   4.312   8.185   6.261 -0.4261 -0.2050 -1.2617
 4666SOL     OW26470   5.622   7.832   2.812  0.4699 -0.8796 -0.3150
 4666SOL    HW126471   5.658   7.774   2.885  0.0080 -1.6345 -0.6765
 4666SOL    HW226472   5.580   7.774   2.741  2.3657 -0.2623 -1.9805
 4667SOL     OW26473   6.375   7.329   7.356  0.2224  0.2432 -0.4037
 4667SOL    HW126474   6.303   7.265   7.326  0.9665  0.1115 -1.9296
 4667SOL    HW226475   6.336   7.394   7.421 -1.2432  0.0522 -1.0629
 4668SOL     OW26476   4.668   0.073   8.252 -0.1734 -0.2646 -0.0219
 4668SOL    HW126477   4.754   0.116   8.278 -0.0937 -0.4504  0.0183
 4668SOL    HW226478   4.631   0.023   8.331  0.2799 -1.1804 -0.3898
 4669SOL     OW26479   2.213   3.229   6.203  0.3635  0.0370  0.1474
 4669SOL    HW126480   2.277   3.168   6.156 -0.4102 -0.7495  0.1211
 4669SOL    HW226481   2.212   3.318   6.157 -0.5773 -0.8036 -1.4884
 4670SOL     OW26482   0.061   2.031   2.906 -0.3299 -0.2312 -0.2302
 4670SOL    HW126483   0.075   1.987   2.994  0.9864 -0.8376 -0.7314
 4670SOL    HW226484  -0.037   2.041   2.889 -0.6033 -1.1347  0.7879
 4671SOL     OW26485   7.176   7.890   2.053  0.0407  0.3951 -0.1425
 4671SOL    HW126486   7.267   7.879   2.093  0.7889 -0.2169 -1.9602
 4671SOL    HW226487   7.182   7.945   1.969 -1.2541  0.2635 -0.3399
 4672SOL     OW26488   8.553   8.131   7.450  0.0806 -0.2938 -0.3026
 4672SOL    HW126489   8.650   8.144   7.469 -0.4431  1.0710  1.5890
 4672SOL    HW226490   8.515   8.214   7.410 -0.3736 -0.7351 -0.8022
 4673SOL     OW26491   6.560   7.939   8.274  0.9000  0.1476  0.4116
 4673SOL    HW126492   6.548   7.977   8.366  0.3747 -2.7210  1.5647
 4673SOL    HW226493   6.635   7.987   8.228  1.6071  1.1675  2.5732
 4674SOL     OW26494   5.594   3.951   6.106 -0.1200 -0.0422 -0.2844
 4674SOL    HW126495   5.669   3.906   6.057 -1.7085 -0.8434 -2.0260
 4674SOL    HW226496   5.552   3.885   6.169  1.0646  0.6129  1.2337
 4675SOL     OW26497   8.054   1.913   8.790 -0.0870  0.0973 -0.5068
 4675SOL    HW126498   8.049   1.821   8.831 -2.9213 -0.4047 -1.8416
 4675SOL    HW226499   8.135   1.918   8.732  1.7347 -0.5381  1.8838
 4676SOL     OW26500   1.241   6.273   6.125  0.5444 -0.3204  0.3811
 4676SOL    HW126501   1.247   6.174   6.136  0.5665 -0.2902  0.6444
 4676SOL    HW226502   1.204   6.314   6.208 -1.7010 -0.3224 -0.5904
 4677SOL     OW26503   2.577   2.312   3.114 -0.1918 -0.5018  0.2428
 4677SOL    HW126504   2.648   2.359   3.062 -1.0088  1.4394  0.8621
 4677SOL    HW226505   2.608   2.219   3.136  2.0837  0.2763  0.3945
 4678SOL     OW26506   7.986   5.426   7.127 -0.2487 -0.1099  0.0999
 4678SOL    HW126507   7.919   5.499   7.111 -1.4768 -0.9671  1.2717
 4678SOL    HW226508   8.029   5.402   7.040 -0.7807  1.0859 -0.5150
 4679SOL     OW26509   7.279   8.858   1.044 -0.1908 -0.1040 -0.1259
 4679SOL    HW126510   7.215   8.853   1.120 -0.2150  0.8246 -0.0752
 4679SOL    HW226511   7.317   8.950   1.039  0.8695 -0.5506 -0.3808
 4680SOL     OW26512   8.349   4.211   8.456  0.5233 -0.5301  0.8216
 4680SOL    HW126513   8.391   4.294   8.419  0.2178 -1.2614 -1.2299
 4680SOL    HW226514   8.393   4.131   8.416 -0.1225 -1.3508  1.7326
 4681SOL     OW26515   5.427   8.526   5.908  0.4255  0.0622  0.1102
 4681SOL    HW126516   5.416   8.478   5.821  1.2043 -0.6268  0.3729
 4681SOL    HW226517   5.355   8.594   5.919 -0.2939 -0.5763 -0.5944
 4682SOL     OW26518   8.126   1.629   5.474 -0.3279 -0.3770 -0.6748
 4682SOL    HW126519   8.199   1.674   5.423  0.1103 -0.2710  0.0306
 4682SOL    HW226520   8.097   1.687   5.550  0.4957 -1.3988  0.4630
 4683SOL     OW26521   5.508   7.871   2.438  0.5206  0.7555  0.8661
 4683SOL    HW126522   5.583   7.844   2.377  0.1881  0.7396  0.4668
 4683SOL    HW226523   5.452   7.792   2.459 -0.3753  1.0933 -0.1976
 4684SOL     OW26524   8.441   6.563   4.740  0.2965  0.6284 -0.4536
 4684SOL    HW126525   8.490   6.575   4.654  0.9861 -0.7662 -0.2798
 4684SOL    HW226526   8.488   6.613   4.813  1.7158 -0.9923 -0.2139
 4685SOL     OW26527   5.770   8.578   6.797  0.4434 -0.1280 -0.1073
 4685SOL    HW126528   5.732   8.517   6.727  1.3154 -1.0358  0.2141
 4685SOL    HW226529   5.857   8.543   6.829  0.7810  1.0950  0.3525
 4686SOL     OW26530   7.043   1.989   7.267 -0.2687 -0.1856 -0.3379
 4686SOL    HW126531   7.115   2.051   7.300 -0.6107  1.1054 -1.9324
 4686SOL    HW226532   7.085   1.916   7.214  0.0095 -0.4403  0.2237
 4687SOL     OW26533   3.680   0.652   6.953 -0.5038  0.0663 -0.3623
 4687SOL    HW126534   3.611   0.722   6.970  0.0504  0.4107  0.5335
 4687SOL    HW226535   3.677   0.624   6.857 -2.2937 -0.3647 -0.1936
 4688SOL     OW26536   8.505   6.829   1.635 -0.9058  0.0377  0.3614
 4688SOL    HW126537   8.503   6.912   1.580  1.8191  0.2675  0.5558
 4688SOL    HW226538   8.520   6.750   1.576 -0.6069 -0.0098  0.5029
 4689SOL     OW26539   0.368   6.348   2.046  0.3611 -0.3675  0.1378
 4689SOL    HW126540   0.449   6.359   2.104  0.4347  0.9302 -0.1856
 4689SOL    HW226541   0.295   6.407   2.080 -0.6989 -2.0564  0.8480
 4690SOL     OW26542   5.772   5.788   0.203 -0.5173 -0.0192  0.1511
 4690SOL    HW126543   5.871   5.798   0.216 -0.2892  0.0915 -1.6294
 4690SOL    HW226544   5.754   5.707   0.147 -1.3266  1.0172 -1.1033
 4691SOL     OW26545   1.047   5.899   5.221 -0.3076 -0.6588  0.2274
 4691SOL    HW126546   1.053   5.991   5.260  0.8362  0.6795 -2.9485
 4691SOL    HW226547   0.997   5.840   5.284 -3.0516  2.6763  1.3631
 4692SOL     OW26548   5.315   4.436   2.419  0.8384 -0.1417  0.0325
 4692SOL    HW126549   5.398   4.469   2.374 -0.2412  0.5227 -1.4982
 4692SOL    HW226550   5.236   4.453   2.361  0.0073 -3.8284 -0.0718
 4693SOL     OW26551   0.358   5.809   6.374 -0.1939  0.3097  0.3897
 4693SOL    HW126552   0.323   5.786   6.283 -1.1465  0.4313  0.7109
 4693SOL    HW226553   0.457   5.798   6.376 -0.1903  0.1033 -0.6023
 4694SOL     OW26554   3.536   4.746   7.931  0.3411 -0.1983  0.0770
 4694SOL    HW126555   3.551   4.839   7.963  1.6619 -0.1872 -0.5482
 4694SOL    HW226556   3.503   4.689   8.007 -0.2910  0.7239  0.4988
 4695SOL     OW26557   7.577   4.886   6.674  0.1216 -0.5150 -0.0616
 4695SOL    HW126558   7.598   4.859   6.768 -0.9819 -0.9910  0.0617
 4695SOL    HW226559   7.511   4.821   6.635  2.3000 -1.6581 -1.9424
 4696SOL     OW26560   8.281   4.581   0.217 -0.5185 -0.4039  0.4817
 4696SOL    HW126561   8.191   4.615   0.192 -0.5223 -0.7334  0.0489
 4696SOL    HW226562   8.280   4.482   0.223 -0.0875 -0.4405  0.0619
 4697SOL     OW26563   1.816   6.195   6.534 -0.4268  0.2832 -0.1800
 4697SOL    HW126564   1.797   6.191   6.632  0.3245  0.8971 -0.0017
 4697SOL    HW226565   1.914   6.179   6.518 -0.4550  0.6696 -0.7813
 4698SOL     OW26566   1.699   4.378   1.816  0.0317 -0.0366 -0.3403
 4698SOL    HW126567   1.663   4.337   1.732  0.0775 -1.0322  0.1207
 4698SOL    HW226568   1.624   4.419   1.868 -0.2395 -0.7891 -0.1172
 4699SOL     OW26569   7.324   0.844   0.670  0.0174  0.0660  0.2153
 4699SOL    HW126570   7.253   0.906   0.638 -1.4174 -1.6961 -0.0955
 4699SOL    HW226571   7.322   0.839   0.770 -1.1043 -0.8961  0.1533
 4700SOL     OW26572   4.385   1.177   1.537 -0.1896 -0.0137  0.2090
 4700SOL    HW126573   4.375   1.131   1.625  0.7684  1.0546  0.8852
 4700SOL    HW226574   4.461   1.135   1.486  0.9722  1.0799  1.0121
 4701SOL     OW26575   3.878   7.330   7.722 -0.1883 -0.2498  1.1379
 4701SOL    HW126576   3.846   7.236   7.734 -1.4426  0.1707  1.1657
 4701SOL    HW226577   3.805   7.394   7.747  0.8711  0.7476  1.7559
 4702SOL     OW26578   6.001   2.772   0.051  0.1817  0.1450  0.1117
 4702SOL    HW126579   5.982   2.761  -0.047  0.3757 -2.3423  0.3255
 4702SOL    HW226580   6.098   2.791   0.064  0.2947 -0.2742 -0.1268
 4703SOL     OW26581   8.266   8.595   7.571 -0.1187  0.4834 -0.5074
 4703SOL    HW126582   8.236   8.550   7.487 -0.7069  0.1722 -0.1391
 4703SOL    HW226583   8.256   8.532   7.648  0.4197  0.7652 -0.2038
 4704SOL     OW26584   4.698   3.274   8.390 -0.0076  0.1744 -0.4079
 4704SOL    HW126585   4.729   3.294   8.297 -1.5894 -0.4329 -1.0830
 4704SOL    HW226586   4.754   3.325   8.456  1.8699 -0.2496 -1.6181
 4705SOL     OW26587   4.184   3.844   5.315 -0.0271 -0.6007 -0.0146
 4705SOL    HW126588   4.260   3.798   5.361  1.3645  0.1966 -1.4389
 4705SOL    HW226589   4.133   3.777   5.261  0.8428 -0.8360 -0.5710
 4706SOL     OW26590   2.193   5.796   2.607 -0.3599  0.3297  0.2448
 4706SOL    HW126591   2.244   5.717   2.639  1.2947  0.8181 -1.1448
 4706SOL    HW226592   2.101   5.768   2.581 -0.1589 -0.9137  0.8203
 4707SOL     OW26593   8.908   3.166   4.543  0.4398  0.4824  0.2077
 4707SOL    HW126594   8.951   3.175   4.454 -1.1018  1.5621 -0.4478
 4707SOL    HW226595   8.889   3.257   4.581 -2.1382  0.0677  0.0269
 4708SOL     OW26596   4.047   0.859   3.540  0.1479 -0.8500 -0.3158
 4708SOL    HW126597   3.960   0.883   3.582 -0.0018 -0.0345 -1.0985
 4708SOL    HW226598   4.035   0.845   3.442  0.6964 -1.7641 -0.2584
 4709SOL     OW26599   3.778   1.290   8.881  0.0295  0.1569 -0.4747
 4709SOL    HW126600   3.706   1.229   8.848  1.1560 -1.8944  0.7006
 4709SOL    HW226601   3.842   1.310   8.806  0.3515 -1.1804 -0.5830
 4710SOL     OW26602   2.662   3.625   2.712 -0.1757 -0.2054 -0.6090
 4710SOL    HW126603   2.706   3.539   2.739 -1.0170 -0.4984 -0.1497
 4710SOL    HW226604   2.714   3.667   2.639 -0.1003 -1.4224 -1.2744
 4711SOL     OW26605   8.633   4.532   0.061 -0.2083  0.1866  0.1566
 4711SOL    HW126606   8.620   4.590   0.141  3.5774  0.4185  0.6961
 4711SOL    HW226607   8.634   4.589  -0.022 -0.4984  0.3817  0.2867
 4712SOL     OW26608   2.979   5.463   7.114 -0.0320  0.1773  0.1197
 4712SOL    HW126609   2.972   5.526   7.036 -1.0163 -0.9684 -0.7428
 4712SOL    HW226610   3.073   5.429   7.120 -0.1141 -0.3139 -1.0659
 4713SOL     OW26611   3.849   2.418   5.683  0.1576  0.1008  0.2277
 4713SOL    HW126612   3.788   2.348   5.722 -1.1947  0.1395 -1.7289
 4713SOL    HW226613   3.862   2.491   5.750 -1.7763 -0.0357  0.8038
 4714SOL     OW26614   0.433   5.693   8.280 -0.3075  0.1731 -0.7427
 4714SOL    HW126615   0.515   5.650   8.317 -1.4116 -1.1720  0.2050
 4714SOL    HW226616   0.446   5.792   8.274  1.2918 -0.0158 -0.3994
 4715SOL     OW26617   6.602   8.547   6.396  0.1768  0.0655 -0.4745
 4715SOL    HW126618   6.591   8.602   6.313  3.0895 -1.9561 -2.2925
 4715SOL    HW226619   6.571   8.454   6.378  2.9200 -0.9661 -0.0158
 4716SOL     OW26620   4.759   8.243   6.788 -0.2547 -0.3037 -0.0003
 4716SOL    HW126621   4.675   8.189   6.787 -0.3970 -0.0751 -0.4553
 4716SOL    HW226622   4.805   8.235   6.700 -0.4676  0.6188 -0.1972
 4717SOL     OW26623   4.729   3.165   3.172 -0.2064 -0.0757  0.6215
 4717SOL    HW126624   4.794   3.226   3.127  1.6337 -1.3563  1.4636
 4717SOL    HW226625   4.734   3.179   3.271  0.4386 -1.7574  0.8453
 4718SOL     OW26626   1.203   1.672   5.764 -0.0904  0.2589  0.2901
 4718SOL    HW126627   1.219   1.573   5.760  0.1662  0.3158 -0.1150
 4718SOL    HW226628   1.250   1.716   5.688 -0.3027  0.6814  0.4046
 4719SOL     OW26629   8.183   1.870   4.884  0.0525 -0.4471 -0.3812
 4719SOL    HW126630   8.088   1.852   4.859 -0.1060  0.1668 -0.2216
 4719SOL    HW226631   8.235   1.893   4.802 -0.1188  0.0327 -0.3518
 4720SOL     OW26632   3.909   2.043   8.755  0.0039 -0.2096  0.4858
 4720SOL    HW126633   3.909   2.060   8.657 -0.9387 -1.5303  0.2335
 4720SOL    HW226634   3.909   2.129   8.805  0.6115  0.4652 -0.6713
 4721SOL     OW26635   2.880   2.370   0.433  0.6467 -0.5399 -0.2401
 4721SOL    HW126636   2.906   2.452   0.485  0.6025 -1.3351  1.0515
 4721SOL    HW226637   2.817   2.396   0.360  1.0281  0.6540 -0.1640
 4722SOL     OW26638   8.374   6.510   1.083 -0.0610  0.0159 -0.3668
 4722SOL    HW126639   8.327   6.558   1.008 -0.6471  0.2593  0.1463
 4722SOL    HW226640   8.305   6.468   1.142  0.3913  0.0441  0.1770
 4723SOL     OW26641   2.999   3.903   1.515 -0.1207  0.7386 -0.9303
 4723SOL    HW126642   3.053   3.964   1.573 -0.9945 -0.8238  1.5901
 4723SOL    HW226643   3.047   3.887   1.429  1.8739  1.9383 -0.0633
 4724SOL     OW26644   6.276   4.993   6.985 -0.3428 -0.2242 -0.2294
 4724SOL    HW126645   6.222   5.006   7.068 -0.9087 -0.4691 -0.5569
 4724SOL    HW226646   6.372   4.977   7.009 -0.1507  1.6161  0.2990
 4725SOL     OW26647   3.094   6.823   5.496 -0.6956  0.0008 -0.1867
 4725SOL    HW126648   3.126   6.782   5.411  0.1960  0.0118  0.1306
 4725SOL    HW226649   3.070   6.751   5.562 -1.5810 -0.0080 -0.5133
 4726SOL     OW26650   2.987   0.580   5.707  0.1737  0.6929  0.7688
 4726SOL    HW126651   3.015   0.534   5.624 -2.8688  2.5107 -1.3767
 4726SOL    HW226652   2.973   0.678   5.689 -3.2606  0.6517  2.6294
 4727SOL     OW26653   3.817   6.882   1.491 -0.2631  0.1380 -0.3180
 4727SOL    HW126654   3.733   6.934   1.477 -0.1212 -0.0377 -1.9558
 4727SOL    HW226655   3.843   6.837   1.405 -0.4060 -2.6788  1.0508
 4728SOL     OW26656   4.782   0.526   6.680  0.5985 -0.0123 -0.0042
 4728SOL    HW126657   4.790   0.508   6.778  3.2853  0.1855 -0.1389
 4728SOL    HW226658   4.703   0.477   6.643  1.6589 -3.0624  1.5822
 4729SOL     OW26659   7.434   3.886   0.549 -0.7731 -0.4180 -0.0249
 4729SOL    HW126660   7.502   3.818   0.524 -0.0792  0.4211 -0.4462
 4729SOL    HW226661   7.431   3.896   0.649 -0.2856 -0.4575 -0.0089
 4730SOL     OW26662   0.562   6.449   0.991 -0.0579 -0.1421  0.3149
 4730SOL    HW126663   0.625   6.466   0.915  0.7774 -0.8579  0.8419
 4730SOL    HW226664   0.506   6.530   1.006 -1.2917 -0.4964 -2.0621
 4731SOL     OW26665   5.242   5.828   5.687 -0.1383  0.4853  0.6613
 4731SOL    HW126666   5.215   5.779   5.770  0.0738  0.6176  0.8122
 4731SOL    HW226667   5.329   5.875   5.704 -0.6838  1.4714  0.7453
 4732SOL     OW26668   7.192   7.975   2.513 -0.2456 -0.2089 -0.3998
 4732SOL    HW126669   7.224   7.904   2.450 -1.6022 -0.0863 -1.2644
 4732SOL    HW226670   7.104   7.949   2.551 -1.7612  1.9044 -2.3249
 4733SOL     OW26671   5.364   0.989   2.649 -0.9353 -0.3523 -0.1952
 4733SOL    HW126672   5.357   1.001   2.550  0.5914  0.5426 -0.2161
 4733SOL    HW226673   5.403   1.071   2.689  1.4596 -1.8944  0.7497
 4734SOL     OW26674   5.803   4.047   1.408 -0.2549  0.0231  0.7680
 4734SOL    HW126675   5.896   4.016   1.429 -0.5638 -1.1083  0.5106
 4734SOL    HW226676   5.750   3.970   1.372 -0.8110  1.0578 -0.6468
 4735SOL     OW26677   3.929   6.698   6.729  1.0155  0.1935 -0.2174
 4735SOL    HW126678   3.997   6.639   6.772  1.9838  0.6227 -1.1289
 4735SOL    HW226679   3.880   6.648   6.658 -0.7391 -0.5821  1.4803
 4736SOL     OW26680   1.847   0.495   6.403 -0.1995  0.1557  0.0880
 4736SOL    HW126681   1.780   0.529   6.470 -0.9971  0.2062 -0.7161
 4736SOL    HW226682   1.807   0.499   6.312  0.3473 -1.2843 -0.2343
 4737SOL     OW26683   2.176   6.681   6.503  0.1362 -0.1441  0.0972
 4737SOL    HW126684   2.169   6.746   6.427 -0.3720  0.9590  1.0717
 4737SOL    HW226685   2.197   6.590   6.467  0.4500  0.4698 -1.3184
 4738SOL     OW26686   8.177   5.241   8.130  0.6158 -0.3030 -0.3747
 4738SOL    HW126687   8.228   5.307   8.186  1.9594 -1.5403 -0.1120
 4738SOL    HW226688   8.165   5.278   8.038  2.0799 -0.0264 -0.4628
 4739SOL     OW26689   6.076   5.407   5.437 -1.0713 -0.5463 -0.0393
 4739SOL    HW126690   6.012   5.333   5.414  0.2854 -1.5499 -0.6587
 4739SOL    HW226691   6.144   5.373   5.502 -0.1245  0.0073 -0.7283
 4740SOL     OW26692   8.529   6.784   7.110 -0.1943 -0.2510 -0.3326
 4740SOL    HW126693   8.506   6.790   7.207 -0.4613 -0.8707 -0.3546
 4740SOL    HW226694   8.446   6.799   7.056 -0.4453 -1.8941 -0.4244
 4741SOL     OW26695   8.426   0.208   6.446  0.0542 -0.0215  0.2949
 4741SOL    HW126696   8.361   0.283   6.433  1.0685  0.9175  0.5659
 4741SOL    HW226697   8.518   0.240   6.427  0.5356 -1.1316  0.7022
 4742SOL     OW26698   3.233   4.808   7.395 -0.2026  0.0287 -0.5135
 4742SOL    HW126699   3.311   4.749   7.375  1.4193  1.4915  1.2649
 4742SOL    HW226700   3.194   4.842   7.310  0.9347 -0.9283 -1.4346
 4743SOL     OW26701   3.229   1.670   6.841 -0.3204  0.5773 -0.9344
 4743SOL    HW126702   3.246   1.657   6.743 -1.2791  0.6815 -1.1148
 4743SOL    HW226703   3.175   1.594   6.876  1.1041 -0.1265 -0.1961
 4744SOL     OW26704   7.185   5.365   0.312  0.3331  0.2935  0.0600
 4744SOL    HW126705   7.209   5.430   0.383 -0.3697  1.8752 -1.1087
 4744SOL    HW226706   7.265   5.345   0.256  0.8589 -0.8710  1.2184
 4745SOL     OW26707   1.301   5.151   0.189 -0.0096  0.4556  0.3603
 4745SOL    HW126708   1.211   5.112   0.170  1.1959 -2.6922  0.7146
 4745SOL    HW226709   1.320   5.144   0.287  0.1461  2.2151  0.4671
 4746SOL     OW26710   5.228   1.950   7.650  0.2602  0.5562  0.1385
 4746SOL    HW126711   5.131   1.973   7.650  0.1937  0.2830  1.3447
 4746SOL    HW226712   5.251   1.900   7.733  1.4795  0.8141 -0.0322
 4747SOL     OW26713   2.861   0.077   1.415 -0.7515  0.0838 -0.1984
 4747SOL    HW126714   2.788   0.039   1.471 -0.6111 -0.1248 -0.1572
 4747SOL    HW226715   2.877   0.018   1.336 -1.3466  0.6820 -0.7715
 4748SOL     OW26716   2.134   1.685   8.347  0.1253  0.4530  0.3397
 4748SOL    HW126717   2.088   1.744   8.281 -0.9611  0.2438  0.8971
 4748SOL    HW226718   2.078   1.603   8.364 -0.7268  1.5640  3.1866
 4749SOL     OW26719   4.141   0.200   1.074 -0.0035 -0.2622  0.4264
 4749SOL    HW126720   4.156   0.298   1.083  1.0725 -0.3105 -0.6725
 4749SOL    HW226721   4.073   0.170   1.141 -0.2745  1.2086  0.8245
 4750SOL     OW26722   1.075   6.604   0.643  0.5568  0.3426  0.1143
 4750SOL    HW126723   1.088   6.514   0.602  5.8314  1.3631 -0.8408
 4750SOL    HW226724   1.145   6.619   0.713 -0.1836  3.7318  0.2113
 4751SOL     OW26725   2.503   4.845   6.407  0.2848  0.6772  0.2137
 4751SOL    HW126726   2.415   4.863   6.364  0.9463  0.3515 -1.3024
 4751SOL    HW226727   2.517   4.746   6.416 -0.3342  0.7383  2.2455
 4752SOL     OW26728   2.452   0.957   6.378  0.4444  0.0352  0.1395
 4752SOL    HW126729   2.521   0.996   6.439  0.0038  3.2992 -1.3451
 4752SOL    HW226730   2.377   0.919   6.432  0.9634  1.1361  1.6580
 4753SOL     OW26731   8.580   2.149   2.262 -0.0284 -0.0134 -0.1243
 4753SOL    HW126732   8.596   2.206   2.182  0.0052 -1.0813 -0.8891
 4753SOL    HW226733   8.488   2.109   2.256 -1.0478  1.9763  1.6696
 4754SOL     OW26734   7.406   3.438   0.869  0.3567  0.4358 -0.2843
 4754SOL    HW126735   7.357   3.511   0.822  0.4878  0.9051  0.2908
 4754SOL    HW226736   7.395   3.450   0.968  1.2466  0.2830 -0.1616
 4755SOL     OW26737   5.105   1.596   7.733 -0.3222  0.0899 -0.3118
 4755SOL    HW126738   5.178   1.584   7.666 -0.7939 -0.6208 -0.7122
 4755SOL    HW226739   5.030   1.647   7.690 -0.9904 -1.1236 -0.6082
 4756SOL     OW26740   1.507   0.721   5.743  0.1849 -0.0318  0.3437
 4756SOL    HW126741   1.434   0.700   5.678  0.0646  0.6033  0.2618
 4756SOL    HW226742   1.555   0.637   5.769  0.2525 -0.2868 -0.5858
 4757SOL     OW26743   0.560   4.952   2.724  0.4307  0.5698 -0.8164
 4757SOL    HW126744   0.622   4.877   2.748  0.6215  0.9902  0.0452
 4757SOL    HW226745   0.564   5.022   2.795 -2.6355 -0.3669  0.3952
 4758SOL     OW26746   4.593   4.102   1.544 -0.1956  0.6738  0.2149
 4758SOL    HW126747   4.627   4.170   1.479  0.9552  0.4298  0.5507
 4758SOL    HW226748   4.666   4.076   1.607  0.4505 -3.4400 -2.0803
 4759SOL     OW26749   0.997   3.124   7.003  0.0538 -0.0962 -0.1132
 4759SOL    HW126750   0.943   3.185   6.946  0.3840 -0.8257 -1.2250
 4759SOL    HW226751   1.040   3.054   6.946  1.4844 -0.0349  0.8497
 4760SOL     OW26752   7.957   8.789   1.398  0.1274 -0.2145  0.0555
 4760SOL    HW126753   7.873   8.813   1.447 -0.0059 -1.1810  0.3092
 4760SOL    HW226754   8.032   8.845   1.432 -0.5537  1.2205 -0.7180
 4761SOL     OW26755   1.845   3.869   1.947 -0.3163  0.0357  0.1193
 4761SOL    HW126756   1.933   3.899   1.911 -1.0863  2.0287 -0.1412
 4761SOL    HW226757   1.859   3.792   2.010  1.5751  0.2517 -0.0186
 4762SOL     OW26758   7.537   2.693   1.435 -0.1745 -0.3732 -0.6116
 4762SOL    HW126759   7.617   2.692   1.375 -0.0486 -0.3779 -0.4429
 4762SOL    HW226760   7.466   2.634   1.396  0.8737 -2.4683  0.5622
 4763SOL     OW26761   8.265   8.567   6.746  0.2617  0.8060 -0.2359
 4763SOL    HW126762   8.274   8.664   6.769 -0.8096  0.4733  1.6689
 4763SOL    HW226763   8.339   8.516   6.789 -0.2216  0.5437  0.2949
 4764SOL     OW26764   8.541   7.435   8.806 -0.8167  0.6020 -0.2662
 4764SOL    HW126765   8.534   7.450   8.707  1.0415  1.5250 -0.2643
 4764SOL    HW226766   8.488   7.505   8.854 -0.5394  1.0193 -0.5649
 4765SOL     OW26767   4.517   5.152   3.781  0.2776  0.1171  0.2575
 4765SOL    HW126768   4.424   5.155   3.745  0.6223  1.5876 -0.5794
 4765SOL    HW226769   4.515   5.124   3.877 -1.0194  0.0598  0.2268
 4766SOL     OW26770   0.155   0.465   1.217  0.4846  0.4647  0.1888
 4766SOL    HW126771   0.094   0.491   1.142  0.5741  0.4737  0.1180
 4766SOL    HW226772   0.149   0.532   1.290  1.7468  1.4489 -0.5800
 4767SOL     OW26773   0.311   2.930   4.302  0.1060  0.3752  0.1649
 4767SOL    HW126774   0.251   2.891   4.372  0.9029 -1.5929 -0.2065
 4767SOL    HW226775   0.406   2.927   4.334  0.6289 -1.6837 -1.4344
 4768SOL     OW26776   2.919   3.217   7.646  0.0060 -0.2823  0.1691
 4768SOL    HW126777   2.854   3.218   7.569 -0.1650  0.8113  0.3191
 4768SOL    HW226778   2.868   3.218   7.732  0.2135 -0.1204  0.2897
 4769SOL     OW26779   6.394   4.190   2.639  0.0364  0.3111  0.6494
 4769SOL    HW126780   6.342   4.264   2.681  0.7763  1.3002 -0.1431
 4769SOL    HW226781   6.491   4.201   2.660  0.4675  1.0395 -1.5952
 4770SOL     OW26782   3.219   0.337   0.381 -0.1323  0.1300  0.2507
 4770SOL    HW126783   3.255   0.359   0.471 -3.6933  0.7365  1.6200
 4770SOL    HW226784   3.228   0.416   0.321 -0.7157  0.8283  1.0784
 4771SOL     OW26785   4.695   1.541   0.402 -0.0884 -0.1730  0.0449
 4771SOL    HW126786   4.622   1.566   0.338 -0.6124 -2.0317 -0.1181
 4771SOL    HW226787   4.718   1.445   0.390  1.3615  0.0239  1.1330
 4772SOL     OW26788   2.119   7.157   6.502 -0.4104 -0.3459 -0.0246
 4772SOL    HW126789   2.023   7.183   6.497 -0.2395  0.8547  2.2739
 4772SOL    HW226790   2.162   7.201   6.581  2.0049 -0.9715 -0.9295
 4773SOL     OW26791   5.989   6.896   1.857 -0.4271 -0.2799 -0.2569
 4773SOL    HW126792   6.013   6.876   1.762 -2.0834  1.0328 -0.9757
 4773SOL    HW226793   5.954   6.814   1.901  1.1481 -1.1016 -0.5127
 4774SOL     OW26794   8.622   0.311   0.719  0.0866 -0.0317 -0.0089
 4774SOL    HW126795   8.719   0.286   0.724  0.0931 -0.0254 -0.0908
 4774SOL    HW226796   8.587   0.289   0.628  0.0702  0.1785 -0.0525
 4775SOL     OW26797   1.976   8.475   6.055 -0.0691  0.6373 -0.1055
 4775SOL    HW126798   2.023   8.431   5.978 -0.0315 -0.9115  0.7760
 4775SOL    HW226799   1.878   8.463   6.046 -0.1243  1.2550 -0.3770
 4776SOL     OW26800   1.403   2.453   1.543  0.2362 -0.4764 -0.0494
 4776SOL    HW126801   1.498   2.448   1.510  0.6815  0.5022  1.0749
 4776SOL    HW226802   1.403   2.460   1.642 -0.9548  1.1510 -0.1457
 4777SOL     OW26803   8.077   4.095   2.792  0.6106  0.3422  0.3204
 4777SOL    HW126804   8.039   4.156   2.862 -2.5548 -0.6654 -0.4290
 4777SOL    HW226805   8.014   4.019   2.777  2.2427 -0.5842 -2.1092
 4778SOL     OW26806   3.778   7.142   4.979  0.3292 -0.2731 -0.3236
 4778SOL    HW126807   3.710   7.077   4.946 -1.7597  0.8207  1.6570
 4778SOL    HW226808   3.782   7.221   4.918 -0.3883 -0.2052 -0.2795
 4779SOL     OW26809   7.289   0.241   6.269 -1.1064  0.0150 -0.5031
 4779SOL    HW126810   7.331   0.159   6.306  0.4444  0.9853 -0.0578
 4779SOL    HW226811   7.234   0.285   6.341 -0.3195  0.4207 -0.1376
 4780SOL     OW26812   6.234   4.163   2.361 -0.2179  0.5522 -0.2198
 4780SOL    HW126813   6.268   4.150   2.268  0.7950  0.6473  0.1226
 4780SOL    HW226814   6.280   4.098   2.422 -0.6177  0.7278  0.2710
 4781SOL     OW26815   8.762   8.934   7.097  0.4509 -0.2173  0.8961
 4781SOL    HW126816   8.758   8.838   7.071  0.3587  0.1203 -0.3717
 4781SOL    HW226817   8.813   8.985   7.027 -0.3060  0.8083  1.0784
 4782SOL     OW26818   3.146   5.286   7.773  0.0398  0.0104 -0.6099
 4782SOL    HW126819   3.212   5.334   7.715  1.0676  0.3743  0.8477
 4782SOL    HW226820   3.083   5.352   7.815  0.5825 -0.0440  0.2993
 4783SOL     OW26821   3.673   7.069   4.279 -0.1383 -0.2404 -0.1476
 4783SOL    HW126822   3.687   7.168   4.284 -1.5573 -0.1192  2.0987
 4783SOL    HW226823   3.737   7.022   4.339 -1.1154 -0.4884  0.7256
 4784SOL     OW26824   3.296   6.160   3.964  0.0744 -0.5991 -0.2032
 4784SOL    HW126825   3.263   6.154   4.059 -0.9610 -0.3537 -0.5446
 4784SOL    HW226826   3.260   6.083   3.912  1.6703 -1.4457 -0.1014
 4785SOL     OW26827   8.200   7.492   3.048 -0.3492  0.2023  0.0216
 4785SOL    HW126828   8.197   7.455   2.956 -0.9327  1.8657 -0.6528
 4785SOL    HW226829   8.284   7.544   3.061 -0.4824  0.3676  0.2519
 4786SOL     OW26830   5.200   1.550   0.077  0.3383 -0.8167  0.1154
 4786SOL    HW126831   5.279   1.611   0.086 -1.0612  1.0389 -0.1333
 4786SOL    HW226832   5.185   1.529  -0.019  0.5022 -1.1300  0.1595
 4787SOL     OW26833   1.873   0.178   1.074 -0.7129 -0.1300 -0.3207
 4787SOL    HW126834   1.946   0.110   1.072 -0.9542 -0.4596  1.3765
 4787SOL    HW226835   1.794   0.141   1.124 -1.1210  1.1323  0.0005
 4788SOL     OW26836   5.354   4.595   1.631 -0.2931 -1.2373 -0.4927
 4788SOL    HW126837   5.264   4.632   1.607  0.1383 -0.0892 -0.3932
 4788SOL    HW226838   5.402   4.567   1.548 -0.8310 -2.0617 -0.5262
 4789SOL     OW26839   2.234   4.641   7.575 -0.5536  0.2581  0.4622
 4789SOL    HW126840   2.136   4.661   7.568 -0.3095  1.5372  0.5196
 4789SOL    HW226841   2.277   4.707   7.636  0.3241 -0.3714  0.5273
 4790SOL     OW26842   4.820   8.624   6.817 -0.0465  0.0893  0.6730
 4790SOL    HW126843   4.769   8.669   6.890 -1.8415 -0.4257 -0.2504
 4790SOL    HW226844   4.843   8.531   6.844  1.5739  0.7470  1.6187
 4791SOL     OW26845   1.079   4.054   1.393  0.0040  0.2176 -0.4956
 4791SOL    HW126846   1.017   3.975   1.391  1.3840 -0.9354  1.0475
 4791SOL    HW226847   1.036   4.129   1.444 -1.2015  0.4002 -1.7433
 4792SOL     OW26848   3.421   5.139   7.861 -0.1631  0.0797 -0.1637
 4792SOL    HW126849   3.498   5.099   7.909  1.1440  1.1630 -1.3151
 4792SOL    HW226850   3.335   5.104   7.900  0.8976 -2.7478 -0.2231
 4793SOL     OW26851   8.618   0.171   1.504 -0.0974 -0.2936  0.3388
 4793SOL    HW126852   8.583   0.189   1.412  0.3295 -1.3947 -0.0421
 4793SOL    HW226853   8.715   0.149   1.499  0.3648  1.4001  1.2508
 4794SOL     OW26854   7.857   4.207   5.044  0.3133  0.1365  0.0585
 4794SOL    HW126855   7.901   4.169   5.125  0.7111 -1.3149 -0.8245
 4794SOL    HW226856   7.871   4.306   5.042  0.0790  0.2209  1.8853
 4795SOL     OW26857   4.092   8.682   6.297  0.3567 -0.0713  0.3675
 4795SOL    HW126858   4.136   8.718   6.215 -0.8476 -1.6803 -1.0350
 4795SOL    HW226859   4.037   8.754   6.339  1.1067  0.8165 -0.1459
 4796SOL     OW26860   8.585   5.281   1.077  0.4204 -0.0156  0.5685
 4796SOL    HW126861   8.542   5.335   1.004  1.9499  0.1645 -0.2071
 4796SOL    HW226862   8.577   5.184   1.055  1.0024  0.0415  0.0667
 4797SOL     OW26863   3.880   3.464   1.124  0.2624 -0.4779  0.0128
 4797SOL    HW126864   3.891   3.422   1.034  1.3927 -0.2154  0.0107
 4797SOL    HW226865   3.783   3.470   1.148  0.0357 -2.0658 -0.4665
 4798SOL     OW26866   6.050   6.408   7.784  0.2206 -0.3395 -0.3801
 4798SOL    HW126867   5.973   6.456   7.740  0.6369  0.5569 -0.1498
 4798SOL    HW226868   6.123   6.473   7.801  0.8692 -1.1125 -0.2132
 4799SOL     OW26869   0.396   3.431   4.787  0.0719 -0.1497 -0.0506
 4799SOL    HW126870   0.448   3.516   4.783  0.4944 -0.4735 -1.5927
 4799SOL    HW226871   0.337   3.423   4.707 -2.3577  0.1843  1.6503
 4800SOL     OW26872   0.005   8.001   0.077  0.3249  0.0902  0.4330
 4800SOL    HW126873  -0.061   8.044   0.015 -0.6034 -3.7880 -1.4210
 4800SOL    HW226874  -0.042   7.966   0.158  0.7391  0.6343  0.9195
 4801SOL     OW26875   8.795   3.622   7.846 -0.0535 -0.5152 -0.3932
 4801SOL    HW126876   8.851   3.560   7.900 -1.2302 -0.5544  0.8093
 4801SOL    HW226877   8.774   3.704   7.900  0.7808  0.5639 -1.6608
 4802SOL     OW26878   0.426   2.513   6.634 -0.4439 -0.3492  0.4364
 4802SOL    HW126879   0.509   2.508   6.579 -0.7040 -0.7629  0.0798
 4802SOL    HW226880   0.347   2.530   6.575 -0.3185  2.4348  1.0155
 4803SOL     OW26881   8.447   7.747   3.842  0.1214  0.2989 -0.0191
 4803SOL    HW126882   8.367   7.750   3.902  0.0659 -2.5947  0.1634
 4803SOL    HW226883   8.423   7.702   3.756  0.5987  2.9976 -1.6206
 4804SOL     OW26884   1.018   4.691   6.490  0.3344  0.2714 -0.3248
 4804SOL    HW126885   1.108   4.711   6.450 -0.0455 -1.1347 -1.9352
 4804SOL    HW226886   1.010   4.737   6.578  2.0912  1.5665 -0.8142
 4805SOL     OW26887   7.917   8.267   0.183  0.4384  0.3207 -0.3749
 4805SOL    HW126888   7.987   8.338   0.189 -0.9569  1.7542 -0.6173
 4805SOL    HW226889   7.854   8.289   0.109 -0.9853 -0.2649  0.6359
 4806SOL     OW26890   3.865   1.055   1.483  0.1114  0.0163  0.1801
 4806SOL    HW126891   3.797   0.982   1.478  0.0261  0.1252 -0.2939
 4806SOL    HW226892   3.913   1.062   1.395 -1.6173  2.1954 -0.6381
 4807SOL     OW26893   2.045   3.049   0.639  0.1251  0.7498 -0.0799
 4807SOL    HW126894   1.975   3.003   0.692  0.7403  0.8280  0.8071
 4807SOL    HW226895   2.040   3.148   0.655 -1.1606  1.0248 -1.9389
 4808SOL     OW26896   3.373   3.965   5.411 -0.1110  0.3811  0.3366
 4808SOL    HW126897   3.297   3.961   5.346 -0.4653 -0.7298  0.8032
 4808SOL    HW226898   3.458   3.945   5.363 -0.3769 -0.4769  0.2042
 4809SOL     OW26899   4.948   5.243   2.462 -0.1343 -0.3084 -0.1071
 4809SOL    HW126900   5.018   5.236   2.391 -0.2403  0.7650 -0.3300
 4809SOL    HW226901   4.875   5.176   2.444 -0.6173  0.5779 -1.5336
 4810SOL     OW26902   7.194   0.436   1.031 -0.9099 -0.1758 -0.7177
 4810SOL    HW126903   7.280   0.389   1.048 -0.7907  0.2384 -0.1628
 4810SOL    HW226904   7.190   0.462   0.934 -0.6516 -0.6710 -0.8641
 4811SOL     OW26905   6.026   8.043   7.052 -0.0427 -0.3663  0.1691
 4811SOL    HW126906   5.932   8.010   7.042 -0.7769  1.5266  0.7234
 4811SOL    HW226907   6.042   8.119   6.989  0.7975  0.0259  0.8496
 4812SOL     OW26908   3.243   8.992   1.736  0.3522 -0.0978 -0.5011
 4812SOL    HW126909   3.183   8.915   1.719 -2.0623  1.4531  0.6733
 4812SOL    HW226910   3.200   9.076   1.704  1.4113  1.1959  1.3260
 4813SOL     OW26911   8.617   5.521   1.354  0.3127 -1.1792  0.4547
 4813SOL    HW126912   8.545   5.466   1.311  0.2883 -0.3065 -0.6216
 4813SOL    HW226913   8.574   5.593   1.409  0.3428  0.1191 -1.1810
 4814SOL     OW26914   0.294   3.423   2.919 -0.1922 -0.5467  0.0499
 4814SOL    HW126915   0.387   3.411   2.884 -0.4668 -2.4298 -0.0678
 4814SOL    HW226916   0.298   3.469   3.007  0.9755 -1.9496  0.7569
 4815SOL     OW26917   5.165   3.412   7.206  0.5677  0.2792 -0.2929
 4815SOL    HW126918   5.196   3.347   7.275 -0.4553  1.2459  1.0853
 4815SOL    HW226919   5.189   3.505   7.234  1.2638  0.5816 -1.8437
 4816SOL     OW26920   2.320   7.014   3.421  0.5188  0.0060  0.1764
 4816SOL    HW126921   2.260   6.939   3.451  1.9852 -1.5986 -0.7904
 4816SOL    HW226922   2.347   6.999   3.326  0.6045  1.9441 -0.1215
 4817SOL     OW26923   8.827   0.133   1.824 -0.2916 -0.8664 -0.1217
 4817SOL    HW126924   8.829   0.135   1.724  0.1670 -1.3181 -0.1218
 4817SOL    HW226925   8.914   0.098   1.859 -0.2680 -0.2560  0.4507
 4818SOL     OW26926   4.933   0.962   7.743  0.3724  0.2576 -0.1106
 4818SOL    HW126927   5.021   0.914   7.740  0.0498 -0.3163 -0.5720
 4818SOL    HW226928   4.896   0.968   7.650 -0.1781  0.2949  0.1110
 4819SOL     OW26929   3.387   3.981   3.605  0.1980  0.0272  0.4358
 4819SOL    HW126930   3.361   3.885   3.614 -0.8666  0.0203 -2.0684
 4819SOL    HW226931   3.485   3.991   3.621  0.9650 -2.0555 -2.4011
 4820SOL     OW26932   5.637   7.521   7.552  0.4200  0.3858 -0.0528
 4820SOL    HW126933   5.571   7.562   7.489 -1.0661  0.2545  1.4007
 4820SOL    HW226934   5.704   7.469   7.499  0.6887  2.3437 -1.7057
 4821SOL     OW26935   6.939   6.310   7.875  0.0251  0.3018  0.6571
 4821SOL    HW126936   6.851   6.339   7.913 -0.2741  1.4189 -0.8812
 4821SOL    HW226937   7.009   6.377   7.899  0.0723  0.4102  0.2034
 4822SOL     OW26938   1.537   6.503   2.552 -0.1101  0.0512  1.0622
 4822SOL    HW126939   1.553   6.547   2.464 -0.4261 -0.5585  0.6911
 4822SOL    HW226940   1.556   6.405   2.544  3.2139  0.5270  2.5996
 4823SOL     OW26941   1.051   6.811   4.855  0.5753 -0.0416 -0.0307
 4823SOL    HW126942   0.964   6.860   4.850  1.5210  1.5042 -2.5519
 4823SOL    HW226943   1.065   6.761   4.769  2.2719 -0.1115  0.2753
 4824SOL     OW26944   6.088   7.772   4.903  0.5102 -0.0420  0.3169
 4824SOL    HW126945   6.154   7.729   4.965 -0.9948 -0.7241  1.4944
 4824SOL    HW226946   6.095   7.730   4.812  1.1796 -0.6290  0.6323
 4825SOL     OW26947   8.938   6.031   0.879 -0.0448  0.1842  0.4036
 4825SOL    HW126948   8.908   5.971   0.805 -1.1907  0.8944  0.2807
 4825SOL    HW226949   8.934   5.981   0.966 -2.0256  0.3988  0.4484
 4826SOL     OW26950   6.049   3.979   1.505  0.4269 -0.1378  0.1109
 4826SOL    HW126951   6.119   4.044   1.533  0.4887 -0.7600  1.4191
 4826SOL    HW226952   6.089   3.912   1.442  0.8858 -0.2181  0.4883
 4827SOL     OW26953   1.589   3.652   4.581 -0.1480  0.0094 -0.0928
 4827SOL    HW126954   1.536   3.629   4.663  1.3096 -0.6205  0.6838
 4827SOL    HW226955   1.584   3.750   4.565 -2.7891 -0.2235 -0.9021
 4828SOL     OW26956   2.646   6.383   6.939 -0.1798  0.1252  0.0327
 4828SOL    HW126957   2.726   6.439   6.963 -0.5736  0.2014  1.1907
 4828SOL    HW226958   2.563   6.437   6.953 -0.5385 -0.6165  0.7921
 4829SOL     OW26959   2.778   5.207   2.216 -0.3347  0.6436 -0.6848
 4829SOL    HW126960   2.749   5.187   2.123 -0.6342 -0.0428 -0.4537
 4829SOL    HW226961   2.733   5.143   2.279  1.4520 -0.2828 -0.2867
 4830SOL     OW26962   2.306   4.945   7.353  0.3236 -0.3405 -0.2735
 4830SOL    HW126963   2.349   4.857   7.333  1.6835  0.2894 -0.1647
 4830SOL    HW226964   2.208   4.932   7.367  0.5929 -1.9176  0.2176
 4831SOL     OW26965   5.455   6.073   5.856  0.1854 -0.3457  0.2637
 4831SOL    HW126966   5.490   6.056   5.764 -1.7794  0.6032 -0.6841
 4831SOL    HW226967   5.427   5.986   5.898  0.4905 -0.7102 -0.2826
 4832SOL     OW26968   7.742   3.974   1.962  0.1390  0.2937 -0.0018
 4832SOL    HW126969   7.790   3.903   2.012  0.9981  0.8121 -0.0781
 4832SOL    HW226970   7.717   3.939   1.871  1.4370  0.3913 -0.4179
 4833SOL     OW26971   4.084   7.698   4.403 -0.1668  0.2829  0.5979
 4833SOL    HW126972   4.016   7.635   4.367  0.7351  0.2453 -1.0925
 4833SOL    HW226973   4.168   7.648   4.425 -0.1439  0.5727  1.1683
 4834SOL     OW26974   3.447   8.501   5.920  0.4923 -0.0315 -0.0476
 4834SOL    HW126975   3.509   8.563   5.872  2.1118 -0.7723  1.0506
 4834SOL    HW226976   3.475   8.406   5.903  0.2635 -0.3395  1.2842
 4835SOL     OW26977   3.452   2.368   1.187  0.1240 -0.4100 -0.2371
 4835SOL    HW126978   3.509   2.362   1.104  0.8977 -3.0175  0.4329
 4835SOL    HW226979   3.466   2.457   1.230  2.3228 -0.2985 -1.0882
 4836SOL     OW26980   2.493   6.069   3.005 -0.3163 -0.0406 -0.0350
 4836SOL    HW126981   2.426   5.995   3.009  0.6626 -1.0034 -1.0288
 4836SOL    HW226982   2.568   6.043   2.944  1.3343  0.7374  1.6153
 4837SOL     OW26983   4.325   2.205   5.605 -0.4516  0.3414  0.7877
 4837SOL    HW126984   4.237   2.203   5.652 -0.4692 -0.9185  0.7429
 4837SOL    HW226985   4.393   2.157   5.660 -0.2391 -0.2829 -0.0021
 4838SOL     OW26986   2.999   7.523   2.839 -0.4671 -0.3385  0.1149
 4838SOL    HW126987   2.936   7.549   2.912  0.0462 -1.4508  0.9579
 4838SOL    HW226988   3.073   7.591   2.834 -1.2507  0.4876 -0.2945
 4839SOL     OW26989   0.783   6.450   7.864  0.3006  0.1159 -0.6161
 4839SOL    HW126990   0.780   6.389   7.784 -0.0039  0.6818 -1.0339
 4839SOL    HW226991   0.698   6.440   7.916  1.5022 -2.0916  1.0097
 4840SOL     OW26992   7.959   2.710   8.173 -0.3729  0.3921  0.2165
 4840SOL    HW126993   7.929   2.642   8.106  1.4231  0.9954 -1.2637
 4840SOL    HW226994   7.910   2.796   8.158 -2.2287 -0.3806  1.7168
 4841SOL     OW26995   4.451   0.785   5.613  0.2147 -0.6074 -0.8866
 4841SOL    HW126996   4.417   0.839   5.690  0.0204 -0.7068 -0.9020
 4841SOL    HW226997   4.418   0.825   5.527  1.3900  0.1935 -0.9835
 4842SOL     OW26998   4.561   6.898   6.838  0.1767 -0.2244  0.0646
 4842SOL    HW126999   4.581   6.805   6.870 -0.2877  0.4321  2.3710
 4842SOL    HW227000   4.509   6.946   6.908 -1.8379  0.9545 -2.2075
 4843SOL     OW27001   3.171   0.535   6.653 -0.2529  0.0270  0.2596
 4843SOL    HW127002   3.181   0.530   6.553  0.1169 -2.3958  0.3725
 4843SOL    HW227003   3.100   0.470   6.682 -0.8753  1.2564  1.5118
 4844SOL     OW27004   7.009   8.816   1.579  0.1032  0.4156 -0.8024
 4844SOL    HW127005   7.065   8.898   1.567  0.7721 -0.5989 -5.5251
 4844SOL    HW227006   6.915   8.835   1.550 -0.1146 -0.0327 -0.3961
 4845SOL     OW27007   4.367   4.496   8.595 -0.4378  0.1921  0.3786
 4845SOL    HW127008   4.289   4.452   8.640  0.4378 -1.7517  0.0365
 4845SOL    HW227009   4.391   4.580   8.645 -0.5623 -1.0184  2.5251
 4846SOL     OW27010   0.293   5.680   7.079  0.2812  0.4610 -0.3596
 4846SOL    HW127011   0.327   5.678   7.173  0.1868 -0.9335 -0.3510
 4846SOL    HW227012   0.345   5.616   7.024 -2.3856 -1.8007 -0.3234
 4847SOL     OW27013   5.034   1.407   7.374 -0.1728  0.1990 -0.2464
 4847SOL    HW127014   5.024   1.335   7.443 -0.1878  0.0023 -0.4543
 4847SOL    HW227015   5.097   1.476   7.408 -1.7101  1.1245  0.8261
 4848SOL     OW27016   8.870   3.728   0.713  0.4267 -0.0095  0.4400
 4848SOL    HW127017   8.934   3.783   0.659  0.1134 -0.7683 -0.7118
 4848SOL    HW227018   8.834   3.784   0.788  0.4920  1.2011 -0.4189
 4849SOL     OW27019   1.951   6.584   4.482  0.2810  0.4956  0.2297
 4849SOL    HW127020   2.026   6.535   4.438  0.3343  0.7750  0.0056
 4849SOL    HW227021   1.868   6.529   4.479  1.2903 -1.3121  3.5388
 4850SOL     OW27022   2.230   6.167   2.242 -0.3976 -0.0100  0.0339
 4850SOL    HW127023   2.315   6.120   2.217 -0.4495 -0.4753  0.7171
 4850SOL    HW227024   2.233   6.260   2.207  0.6017  0.1300  0.4628
 4851SOL     OW27025   1.438   4.082   1.053  0.1010  0.2208  0.3636
 4851SOL    HW127026   1.374   4.131   1.112 -1.1040  0.1085 -0.8165
 4851SOL    HW227027   1.453   3.990   1.089 -0.7283  0.1092  0.4299
 4852SOL     OW27028   8.474   4.815   1.185  0.0460  0.0305 -0.0356
 4852SOL    HW127029   8.415   4.814   1.265  1.3000 -1.4796  0.8860
 4852SOL    HW227030   8.438   4.751   1.116 -0.3919  0.4691 -0.2167
 4853SOL     OW27031   3.459   6.051   4.256  0.1186 -0.0394 -0.4926
 4853SOL    HW127032   3.378   5.996   4.237 -1.0748  0.8323  1.9684
 4853SOL    HW227033   3.540   6.001   4.225 -1.0017 -2.8058  0.8557
 4854SOL     OW27034   7.513   3.804   5.643  0.8789  0.5814  0.7079
 4854SOL    HW127035   7.505   3.895   5.603  0.6233 -0.2652 -1.1921
 4854SOL    HW227036   7.606   3.791   5.679  1.6199  0.7323 -1.1431
 4855SOL     OW27037   2.366   0.029   5.122 -0.1915  0.4759 -0.0562
 4855SOL    HW127038   2.414   0.060   5.040 -1.3790 -0.5602 -1.1671
 4855SOL    HW227039   2.268   0.027   5.105 -0.4231 -0.1887  1.2533
 4856SOL     OW27040   3.732   6.661   0.465  0.4254  0.0311 -0.6256
 4856SOL    HW127041   3.665   6.592   0.489  1.2106 -0.8045 -0.7987
 4856SOL    HW227042   3.740   6.728   0.539  1.1020 -1.1808  0.4047
 4857SOL     OW27043   0.976   0.078   6.468 -0.4302  0.2237 -0.1270
 4857SOL    HW127044   1.076   0.085   6.467 -0.4828  1.8519  2.6058
 4857SOL    HW227045   0.938   0.154   6.519 -3.1463 -0.0708 -1.6242
 4858SOL     OW27046   5.313   0.071   8.554 -0.1520 -0.5406  0.2963
 4858SOL    HW127047   5.328   0.049   8.458 -1.2932  1.4523 -0.3773
 4858SOL    HW227048   5.367   0.151   8.579  1.0396 -1.7322  1.6564
 4859SOL     OW27049   4.356   5.133   0.678  0.2192  0.1533  0.2593
 4859SOL    HW127050   4.399   5.205   0.623 -0.3905 -0.0990 -0.5657
 4859SOL    HW227051   4.337   5.168   0.770  1.9240  0.3506  0.5399
 4860SOL     OW27052   1.576   5.882   0.065 -0.4038 -0.6116  0.1925
 4860SOL    HW127053   1.538   5.906  -0.024 -0.3419 -0.8606  0.0990
 4860SOL    HW227054   1.601   5.965   0.115  0.7370 -0.5174 -0.5240
 4861SOL     OW27055   4.723   1.114   1.768 -0.2765  0.1193 -0.0560
 4861SOL    HW127056   4.640   1.168   1.757 -0.5114 -0.0121  0.9403
 4861SOL    HW227057   4.699   1.018   1.785  0.1191 -0.1884 -1.1670
 4862SOL     OW27058   7.906   4.269   6.659 -0.7062 -0.2610  0.0583
 4862SOL    HW127059   7.859   4.337   6.601 -2.1242 -1.7319 -0.5472
 4862SOL    HW227060   7.988   4.236   6.611  0.1167  1.1659  0.4501
 4863SOL     OW27061   2.014   7.402   2.911  0.3134  0.2070  0.3598
 4863SOL    HW127062   1.958   7.328   2.948 -1.8974  1.7817  0.3076
 4863SOL    HW227063   2.074   7.437   2.982  0.0744 -0.4426  0.8872
 4864SOL     OW27064   1.894   6.281   0.473 -0.5753  0.0850 -1.0904
 4864SOL    HW127065   1.929   6.255   0.562 -1.0126  2.6584 -0.1254
 4864SOL    HW227066   1.934   6.368   0.445 -2.7346  0.8385 -1.9910
 4865SOL     OW27067   6.033   5.501   6.849 -0.2117  0.1347 -0.0984
 4865SOL    HW127068   5.991   5.476   6.761  1.3546  0.6332 -1.0063
 4865SOL    HW227069   6.105   5.568   6.834  0.1302  0.1695  1.5764
 4866SOL     OW27070   7.534   2.403   7.937  0.1611 -0.3776 -0.1611
 4866SOL    HW127071   7.479   2.353   8.004  0.3161  1.2545  1.2453
 4866SOL    HW227072   7.609   2.346   7.905 -1.1498 -1.9058 -0.5263
 4867SOL     OW27073   1.374   8.941   0.423 -0.4532  0.2336 -0.1485
 4867SOL    HW127074   1.442   9.006   0.456 -1.1165 -0.0592  1.8518
 4867SOL    HW227075   1.408   8.848   0.435 -0.6446  0.1263 -0.4231
 4868SOL     OW27076   4.731   2.858   7.004 -0.3227  0.2668  0.1149
 4868SOL    HW127077   4.666   2.929   6.977 -0.7012  0.3257  1.1588
 4868SOL    HW227078   4.796   2.896   7.070  0.3634  0.0268 -0.4139
 4869SOL     OW27079   4.936   5.520   4.699  0.6371  0.0311 -0.3934
 4869SOL    HW127080   4.939   5.560   4.608  0.9471  1.6458  0.3149
 4869SOL    HW227081   4.841   5.519   4.732  0.8262  1.7108  0.2414
 4870SOL     OW27082   6.461   3.729   1.308  0.7683  0.0153  0.2147
 4870SOL    HW127083   6.511   3.714   1.393  0.2935  2.8341  1.0492
 4870SOL    HW227084   6.525   3.752   1.235  0.8922  1.6702  0.8175
 4871SOL     OW27085   0.618   5.459   0.421 -0.3195 -0.0418 -0.3474
 4871SOL    HW127086   0.646   5.531   0.484  1.1350 -0.5167 -0.4471
 4871SOL    HW227087   0.544   5.405   0.462 -0.2368  0.4336  0.4280
 4872SOL     OW27088   1.459   2.782   6.645  0.1878 -0.6423  0.3680
 4872SOL    HW127089   1.471   2.813   6.739 -1.5054  2.1550 -0.2895
 4872SOL    HW227090   1.402   2.700   6.645 -2.3826  1.0779  1.6226
 4873SOL     OW27091   7.695   7.658   8.876  0.5698 -0.0234 -0.0598
 4873SOL    HW127092   7.608   7.610   8.887  0.1791  1.0915  2.1056
 4873SOL    HW227093   7.689   7.720   8.798 -1.4674  1.8263  1.4962
 4874SOL     OW27094   8.632   0.586   4.336  0.2859 -0.0479 -0.2596
 4874SOL    HW127095   8.602   0.573   4.241  1.9026 -0.9771 -0.6498
 4874SOL    HW227096   8.725   0.623   4.337 -1.0559  3.5147  0.9396
 4875SOL     OW27097   2.840   6.558   6.993  0.1502 -0.2571 -0.5589
 4875SOL    HW127098   2.892   6.583   6.911  1.8419 -3.1619 -0.4550
 4875SOL    HW227099   2.846   6.632   7.060  0.7152  1.1654 -2.1427
 4876SOL     OW27100   6.136   5.313   2.208 -0.2804  0.5042  0.0258
 4876SOL    HW127101   6.126   5.397   2.155 -0.8374 -1.0109 -2.3363
 4876SOL    HW227102   6.050   5.262   2.207  0.7035 -1.2058 -0.5466
 4877SOL     OW27103   6.987   7.483   0.583 -0.2578 -0.6686  0.3949
 4877SOL    HW127104   6.916   7.514   0.646 -0.0279  0.5671  0.0515
 4877SOL    HW227105   6.994   7.547   0.506  0.0091 -1.7401 -0.4800
 4878SOL     OW27106   3.035   7.272   4.500  0.7436 -0.7010  0.6074
 4878SOL    HW127107   3.007   7.346   4.439  2.5828 -0.6083 -0.1465
 4878SOL    HW227108   2.965   7.260   4.571  0.4868  1.8836  0.8704
 4879SOL     OW27109   1.833   8.060   5.187 -0.4728 -0.2986 -0.7433
 4879SOL    HW127110   1.752   8.012   5.222  0.1373 -1.3212 -0.6957
 4879SOL    HW227111   1.901   8.066   5.260  0.1990 -1.0595 -1.2981
 4880SOL     OW27112   3.778   3.303   7.636  0.6130  0.3553  0.0958
 4880SOL    HW127113   3.758   3.366   7.711 -0.2169  0.0741  0.1133
 4880SOL    HW227114   3.865   3.257   7.653  1.0458  1.2290  0.2631
 4881SOL     OW27115   2.697   8.259   2.300 -0.1612 -0.5093  0.5979
 4881SOL    HW127116   2.758   8.226   2.371  1.3399  0.7732 -0.0620
 4881SOL    HW227117   2.732   8.231   2.210  0.8308  2.2724  0.0577
 4882SOL     OW27118   6.764   8.601   5.537 -0.2618 -0.2770  0.3767
 4882SOL    HW127119   6.746   8.608   5.635 -1.8321 -1.3946  0.1765
 4882SOL    HW227120   6.757   8.505   5.509  0.9350 -0.0557 -0.6919
 4883SOL     OW27121   0.796   2.566   3.783 -0.3048  0.0223 -0.8200
 4883SOL    HW127122   0.708   2.523   3.767 -0.9696  1.1337 -0.2528
 4883SOL    HW227123   0.826   2.545   3.876  0.0208 -0.3304 -1.0029
 4884SOL     OW27124   2.407   4.447   5.085 -0.0906 -0.4010  0.2178
 4884SOL    HW127125   2.338   4.429   5.014  0.1260  1.7516 -0.5765
 4884SOL    HW227126   2.460   4.364   5.101 -3.4280 -2.4143  1.5184
 4885SOL     OW27127   7.055   6.342   8.641  0.2205  0.4157 -0.1840
 4885SOL    HW127128   7.139   6.323   8.591  0.3274  1.0198 -0.2273
 4885SOL    HW227129   6.987   6.271   8.621  0.8226 -0.2388  0.0842
 4886SOL     OW27130   7.952   8.113   7.796 -0.1525 -0.2080 -0.0178
 4886SOL    HW127131   7.882   8.128   7.866  0.3523 -1.2219  0.7181
 4886SOL    HW227132   7.962   8.015   7.779  2.5541 -0.2355  1.4046
 4887SOL     OW27133   0.152   4.130   8.323  0.1215  0.2265 -0.5603
 4887SOL    HW127134   0.097   4.130   8.239 -0.1762 -0.6038 -0.3746
 4887SOL    HW227135   0.173   4.035   8.348 -0.5640  0.4206  0.7944
 4888SOL     OW27136   0.274   3.974   4.155  0.3289  0.0440  0.4241
 4888SOL    HW127137   0.223   4.046   4.108  1.5479  1.0507  0.6291
 4888SOL    HW227138   0.248   3.885   4.118  0.5924  0.7557 -1.5163
 4889SOL     OW27139   1.182   1.811   4.773 -0.2692  0.2674  0.5969
 4889SOL    HW127140   1.169   1.892   4.829  0.7281  0.7588  0.1337
 4889SOL    HW227141   1.164   1.729   4.827 -0.6323  0.7708  1.2445
 4890SOL     OW27142   6.776   4.454   8.855 -0.7672 -0.2110  0.7088
 4890SOL    HW127143   6.728   4.513   8.790  0.1214  1.4378  1.5069
 4890SOL    HW227144   6.833   4.511   8.915  2.5697 -2.0996 -0.5419
 4891SOL     OW27145   0.130   1.296   8.568 -0.3463 -0.1388  0.3662
 4891SOL    HW127146   0.158   1.258   8.656 -1.4762 -1.4839  0.1712
 4891SOL    HW227147   0.061   1.367   8.583 -1.0970 -0.8890  0.5513
 4892SOL     OW27148   8.199   7.767   8.396 -0.1732  0.1452 -0.2229
 4892SOL    HW127149   8.121   7.704   8.386  2.3159 -3.1227 -0.1082
 4892SOL    HW227150   8.215   7.783   8.493 -0.1947  0.1546 -0.2207
 4893SOL     OW27151   2.503   0.839   8.187 -0.0805  0.5010 -0.0556
 4893SOL    HW127152   2.542   0.878   8.104 -1.4791 -0.2084 -1.0606
 4893SOL    HW227153   2.508   0.739   8.182 -2.0673  0.4070 -0.2083
 4894SOL     OW27154   6.647   6.947   5.361 -0.1842  0.1509  0.0252
 4894SOL    HW127155   6.738   6.907   5.359 -0.5884 -0.7745  0.0080
 4894SOL    HW227156   6.646   7.024   5.425  0.2241 -0.7993  1.2007
 4895SOL     OW27157   5.456   3.100   0.191 -0.4266 -0.3195  0.3187
 4895SOL    HW127158   5.483   3.047   0.111  1.3548 -0.3961  0.9491
 4895SOL    HW227159   5.485   3.195   0.180  0.7802 -0.5576  1.3221
 4896SOL     OW27160   7.572   3.055   7.778  0.0023  0.0868  0.3264
 4896SOL    HW127161   7.661   3.038   7.822  1.0343  0.2432 -1.6452
 4896SOL    HW227162   7.580   3.039   7.680 -1.9670  0.8997  0.0123
 4897SOL     OW27163   1.810   3.787   8.430 -0.3221  0.3099  0.0049
 4897SOL    HW127164   1.836   3.862   8.490 -1.1222  1.0057 -0.5151
 4897SOL    HW227165   1.765   3.716   8.483 -0.3073  0.5627  0.3573
 4898SOL     OW27166   2.825   4.749   3.594 -0.2175  0.3889  0.0010
 4898SOL    HW127167   2.823   4.650   3.604  1.0622  0.4560  1.1971
 4898SOL    HW227168   2.920   4.779   3.583 -0.6497  1.4287 -0.9862
 4899SOL     OW27169   7.551   1.804   1.058  0.2498 -0.4124 -0.7197
 4899SOL    HW127170   7.498   1.735   1.107 -0.0507  0.8020  0.7033
 4899SOL    HW227171   7.501   1.891   1.059  0.5104 -0.2029 -2.6869
 4900SOL     OW27172   7.125   5.661   4.800  0.1368 -0.4455  0.1207
 4900SOL    HW127173   7.105   5.711   4.884 -0.9793 -1.3691  0.4038
 4900SOL    HW227174   7.180   5.719   4.739  1.3503  0.0701  1.6613
 4901SOL     OW27175   8.588   5.454   4.711  0.1790 -0.0815  0.2085
 4901SOL    HW127176   8.653   5.467   4.636 -0.0883  0.6421  0.0995
 4901SOL    HW227177   8.509   5.402   4.678  0.5576 -0.6960  0.2627
 4902SOL     OW27178   8.546   1.022   4.205 -0.0708  0.2900 -0.0882
 4902SOL    HW127179   8.548   0.976   4.116  0.5693 -1.2369  0.6985
 4902SOL    HW227180   8.636   1.062   4.223 -0.1254  0.3720 -0.0015
 4903SOL     OW27181   5.868   2.412   7.008  0.4387 -0.1265 -0.7205
 4903SOL    HW127182   5.795   2.403   6.941 -0.8138 -0.2318  0.6374
 4903SOL    HW227183   5.860   2.340   7.076  0.8387  0.8382  0.3655
 4904SOL     OW27184   4.716   3.526   8.795 -0.1390 -0.6252 -0.4238
 4904SOL    HW127185   4.803   3.533   8.845 -0.9247  0.3521  0.8456
 4904SOL    HW227186   4.651   3.472   8.848 -0.9333  0.2812 -0.4684
 4905SOL     OW27187   0.964   5.808   5.666  0.1976 -0.0829 -0.7602
 4905SOL    HW127188   0.960   5.729   5.727 -1.0486  1.1592  0.8192
 4905SOL    HW227189   0.979   5.777   5.572 -1.2355 -2.2395 -0.3041
 4906SOL     OW27190   3.365   6.354   3.315 -0.5072  0.0023 -0.5699
 4906SOL    HW127191   3.391   6.393   3.226 -0.3062  0.5122 -0.2871
 4906SOL    HW227192   3.383   6.256   3.314 -1.0376 -0.0897 -1.2919
 4907SOL     OW27193   4.929   8.682   7.496 -0.3210  0.1634  0.3346
 4907SOL    HW127194   4.905   8.772   7.533 -0.1151  0.7859 -1.0008
 4907SOL    HW227195   4.903   8.611   7.561  0.3833  1.2462  1.8304
 4908SOL     OW27196   2.576   7.585   7.727  0.4158 -0.1592  0.0936
 4908SOL    HW127197   2.590   7.681   7.752  0.3059 -0.0347 -0.3265
 4908SOL    HW227198   2.592   7.573   7.629 -3.2916  0.1518 -0.6012
 4909SOL     OW27199   3.662   4.503   6.104 -0.1713  0.1100 -0.5977
 4909SOL    HW127200   3.614   4.417   6.117  0.4412 -0.3306 -1.2151
 4909SOL    HW227201   3.649   4.534   6.010 -0.8968  1.0043 -0.2086
 4910SOL     OW27202   0.006   2.486   6.546 -0.3602  0.3978  0.0248
 4910SOL    HW127203   0.055   2.544   6.611 -1.8757 -0.7243  2.2539
 4910SOL    HW227204   0.013   2.390   6.576 -0.6768 -0.1946 -1.7561
 4911SOL     OW27205   3.825   2.876   0.042 -0.0026  0.1667  0.4425
 4911SOL    HW127206   3.770   2.865  -0.041  0.9954 -0.1045 -0.1888
 4911SOL    HW227207   3.856   2.787   0.075  1.7805  0.4446 -0.3976
 4912SOL     OW27208   2.652   5.149   1.520 -0.0158 -0.3240  0.0892
 4912SOL    HW127209   2.654   5.049   1.529  2.0968 -0.2267  1.0192
 4912SOL    HW227210   2.669   5.174   1.425  0.1574 -0.8379 -0.0182
 4913SOL     OW27211   8.204   6.342   1.235  0.1431 -0.3078  0.0207
 4913SOL    HW127212   8.229   6.295   1.320  1.2371  0.4090  0.1103
 4913SOL    HW227213   8.111   6.379   1.244 -0.0085 -0.8164  0.6479
 4914SOL     OW27214   1.771   8.328   5.232 -0.4100  0.0748 -0.4110
 4914SOL    HW127215   1.776   8.368   5.324  2.6607  0.7829 -0.8379
 4914SOL    HW227216   1.786   8.229   5.238 -0.5199  0.0747 -0.1087
 4915SOL     OW27217   3.103   4.696   4.311 -1.2857  0.5064 -0.3028
 4915SOL    HW127218   3.056   4.753   4.378 -0.5893  1.2997 -0.4870
 4915SOL    HW227219   3.196   4.729   4.299 -0.4533 -1.4702  0.5595
 4916SOL     OW27220   4.100   0.442   7.856 -0.3798  0.1978 -0.0007
 4916SOL    HW127221   4.183   0.424   7.803 -0.2226  2.6321 -0.6526
 4916SOL    HW227222   4.125   0.460   7.952 -0.2197  0.2503 -0.0523
 4917SOL     OW27223   0.865   6.361   6.550 -0.3985 -0.1006  0.1189
 4917SOL    HW127224   0.941   6.360   6.615 -2.0283  1.1357  2.0754
 4917SOL    HW227225   0.814   6.276   6.556 -1.8706  0.8878  2.0898
 4918SOL     OW27226   3.493   6.222   0.623  0.5444 -0.5424 -0.1730
 4918SOL    HW127227   3.481   6.158   0.547 -2.1703  0.1648 -0.3884
 4918SOL    HW227228   3.519   6.312   0.587 -0.6485 -0.2321 -0.2925
 4919SOL     OW27229   2.552   3.692   1.969 -0.7232  0.0286  0.1040
 4919SOL    HW127230   2.532   3.618   2.034  0.5137 -0.5480 -0.1583
 4919SOL    HW227231   2.643   3.679   1.930 -0.9103  1.1218 -0.7385
 4920SOL     OW27232   7.576   4.646   7.401  1.0846 -0.0084  0.0002
 4920SOL    HW127233   7.611   4.740   7.409 -4.8506  2.5739 -1.7557
 4920SOL    HW227234   7.562   4.623   7.305 -0.7167 -1.3718  0.5494
 4921SOL     OW27235   0.043   4.808   4.406 -0.0640  0.6744  0.4949
 4921SOL    HW127236  -0.027   4.777   4.470  0.0101 -0.2249  0.1507
 4921SOL    HW227237   0.119   4.849   4.456  0.5351 -1.0872  1.0812
 4922SOL     OW27238   7.112   0.786   1.193  0.2371 -0.2129  0.0207
 4922SOL    HW127239   7.024   0.738   1.198 -0.6432  1.4335  1.0207
 4922SOL    HW227240   7.186   0.724   1.218 -0.8111 -1.2137  0.6790
 4923SOL     OW27241   7.303   3.167   4.111  0.0971  0.1323  0.3345
 4923SOL    HW127242   7.208   3.138   4.125 -0.4585  1.3730 -0.8178
 4923SOL    HW227243   7.341   3.198   4.199 -0.7105  0.0585  0.7162
 4924SOL     OW27244   6.438   1.051   1.035  0.4482  0.0745  0.2848
 4924SOL    HW127245   6.338   1.041   1.035  0.4624 -0.4465  2.5648
 4924SOL    HW227246   6.477   0.994   0.963 -0.9084  0.5065 -0.8152
 4925SOL     OW27247   2.934   3.186   5.291  0.4661 -0.9353 -0.2184
 4925SOL    HW127248   2.911   3.089   5.293 -2.6921 -0.2341  1.4109
 4925SOL    HW227249   2.958   3.217   5.382 -0.0263  0.1224 -0.4331
 4926SOL     OW27250   0.091   8.592   6.595 -0.1731 -0.6802 -0.4904
 4926SOL    HW127251   0.030   8.517   6.619 -0.3352 -0.7021 -0.9786
 4926SOL    HW227252   0.075   8.669   6.658  1.7868 -1.9765  1.6755
 4927SOL     OW27253   2.434   8.064   8.043 -0.4180  0.6513  0.1389
 4927SOL    HW127254   2.427   8.003   7.964 -0.5865 -0.6518  1.1292
 4927SOL    HW227255   2.529   8.096   8.052 -0.2853  0.3857 -0.2876
 4928SOL     OW27256   3.591   5.599   4.183  0.3851  0.0373 -0.3693
 4928SOL    HW127257   3.577   5.581   4.086 -0.4855  1.1789 -0.4682
 4928SOL    HW227258   3.629   5.691   4.195  1.4697 -0.4786  0.3223
 4929SOL     OW27259   0.224   4.186   0.402  0.5723 -0.5492 -0.4074
 4929SOL    HW127260   0.180   4.274   0.420  0.5641 -0.7777  0.7014
 4929SOL    HW227261   0.180   4.143   0.323 -1.5370 -0.9939  0.9651
 4930SOL     OW27262   5.744   3.613   7.709 -0.4899  0.1818  0.3079
 4930SOL    HW127263   5.785   3.680   7.772 -1.6228  0.5181  0.7070
 4930SOL    HW227264   5.812   3.583   7.643  0.2639  1.0927  0.6635
 4931SOL     OW27265   2.022   6.545   2.325  0.4463 -0.4457  0.3694
 4931SOL    HW127266   2.047   6.518   2.418  1.0216 -3.5584 -0.6286
 4931SOL    HW227267   1.940   6.495   2.296  0.0365  0.7867 -0.6996
 4932SOL     OW27268   6.679   8.425   1.539 -0.0450  0.2426 -0.3807
 4932SOL    HW127269   6.684   8.520   1.571  1.6184 -0.7087  2.3683
 4932SOL    HW227270   6.619   8.373   1.599 -0.4934 -0.5769 -1.5329
 4933SOL     OW27271   8.032   1.224   6.274 -0.1623  0.1682  0.0468
 4933SOL    HW127272   8.064   1.148   6.218  2.3800  1.3952 -0.2441
 4933SOL    HW227273   7.966   1.279   6.223  0.5173  0.0645 -0.9357
 4934SOL     OW27274   7.611   0.491   8.716  0.1626  0.3183  0.6643
 4934SOL    HW127275   7.543   0.418   8.712  1.1102 -0.5557  0.3467
 4934SOL    HW227276   7.697   0.455   8.752  0.9508  1.0362 -0.4620
 4935SOL     OW27277   4.977   7.872   2.772 -0.2132  0.5469 -0.4639
 4935SOL    HW127278   4.894   7.908   2.728  0.5273 -0.0531 -2.4186
 4935SOL    HW227279   4.958   7.781   2.808 -0.7149  0.8667  0.0904
 4936SOL     OW27280   4.457   0.539   0.482  0.4836  0.0797 -0.0404
 4936SOL    HW127281   4.521   0.602   0.526  0.2110  0.0976  0.3379
 4936SOL    HW227282   4.373   0.587   0.459  0.5410  0.0166 -0.3839
 4937SOL     OW27283   3.773   8.040   6.828  0.0045 -0.2685 -0.3985
 4937SOL    HW127284   3.752   8.008   6.736  2.3731  0.8827 -1.3877
 4937SOL    HW227285   3.869   8.020   6.850  0.0522  1.2908  0.9939
 4938SOL     OW27286   3.685   5.424   5.091  0.8953  0.3279 -0.2466
 4938SOL    HW127287   3.661   5.439   5.187  1.3733  1.6043 -0.3168
 4938SOL    HW227288   3.711   5.512   5.049 -1.4328  0.1683 -2.1198
 4939SOL     OW27289   0.798   2.055   5.424 -0.6095  0.0573  0.5424
 4939SOL    HW127290   0.828   2.150   5.415 -1.3301  0.2702  0.3260
 4939SOL    HW227291   0.841   2.014   5.505  2.4171 -0.5025 -1.2849
 4940SOL     OW27292   8.660   7.190   3.963 -0.3097  0.2108 -0.4769
 4940SOL    HW127293   8.736   7.136   3.927 -1.0094 -0.3190 -1.1561
 4940SOL    HW227294   8.600   7.218   3.888 -0.2009  1.5530 -0.0830
 4941SOL     OW27295   8.963   0.488   0.986  0.3825  0.5669  0.1476
 4941SOL    HW127296   9.012   0.495   0.899  1.1162 -3.1997  0.1694
 4941SOL    HW227297   8.864   0.488   0.969  0.5316 -2.6701 -0.9951
 4942SOL     OW27298   8.588   8.435   8.660 -0.1568 -0.2244 -0.3491
 4942SOL    HW127299   8.554   8.342   8.651 -0.5185 -0.0850 -0.4528
 4942SOL    HW227300   8.637   8.445   8.747  0.5989 -0.7264 -0.7204
 4943SOL     OW27301   8.187   5.870   1.329  0.6234  0.3647 -0.0461
 4943SOL    HW127302   8.176   5.808   1.407  0.0580  1.1544  0.5027
 4943SOL    HW227303   8.132   5.952   1.343  0.7578  0.6506 -1.1375
 4944SOL     OW27304   5.315   7.482   6.818  0.3113 -0.2240 -0.2205
 4944SOL    HW127305   5.225   7.479   6.862 -0.3086 -0.8038 -1.5077
 4944SOL    HW227306   5.304   7.474   6.719  1.8219 -0.7879 -0.3547
 4945SOL     OW27307   4.519   4.565   8.010 -0.2687 -0.2849 -0.3448
 4945SOL    HW127308   4.525   4.465   8.014  2.1036 -0.0863  2.3548
 4945SOL    HW227309   4.600   4.601   7.963 -0.0042  0.4897  0.7013
 4946SOL     OW27310   7.239   8.417   1.158  0.0399 -0.1800 -0.3716
 4946SOL    HW127311   7.265   8.454   1.068  0.9778  0.3190  0.0960
 4946SOL    HW227312   7.290   8.333   1.174  2.2006  1.3200  0.9751
 4947SOL     OW27313   4.547   2.780   5.685 -0.0963 -0.2307  0.5444
 4947SOL    HW127314   4.598   2.831   5.616  0.7639 -0.0676  1.2882
 4947SOL    HW227315   4.543   2.683   5.660 -0.6946 -0.0004 -0.2620
 4948SOL     OW27316   3.730   0.754   1.066  0.3289  0.0146  0.0881
 4948SOL    HW127317   3.701   0.659   1.055 -1.7028  0.7355 -1.0148
 4948SOL    HW227318   3.829   0.759   1.060  0.3537 -1.8212 -1.5581
 4949SOL     OW27319   3.573   6.279   3.531  0.0731 -0.4010  0.3097
 4949SOL    HW127320   3.633   6.204   3.502  0.5027 -0.2170  0.7164
 4949SOL    HW227321   3.544   6.264   3.625  1.5963  0.8427  1.0019
 4950SOL     OW27322   1.050   5.622   7.096  0.2448 -0.4204 -0.2667
 4950SOL    HW127323   1.048   5.529   7.062  2.3206 -1.0501  1.2422
 4950SOL    HW227324   1.082   5.622   7.191 -0.9357  1.7019  0.1684
 4951SOL     OW27325   2.748   0.789   6.022  0.2709 -0.0256 -0.0682
 4951SOL    HW127326   2.722   0.793   5.925 -0.6097 -2.4682  0.0379
 4951SOL    HW227327   2.798   0.872   6.046  0.1519  0.8036 -2.5138
 4952SOL     OW27328   2.228   3.429   3.228  0.8280 -0.1083  0.5848
 4952SOL    HW127329   2.138   3.429   3.271  1.2104  1.1517  1.4110
 4952SOL    HW227330   2.258   3.524   3.214  2.0485 -0.5206  0.3580
 4953SOL     OW27331   0.094   1.324   0.575  0.9942 -0.4114 -0.4547
 4953SOL    HW127332   0.146   1.396   0.621  3.0589 -1.6264 -0.8508
 4953SOL    HW227333   0.071   1.353   0.482  1.4946 -0.1204 -0.4866
 4954SOL     OW27334   5.350   6.736   2.876 -0.0478 -0.0439 -0.0423
 4954SOL    HW127335   5.309   6.807   2.818  0.6538 -0.2168 -0.7587
 4954SOL    HW227336   5.298   6.651   2.867 -1.7760  0.7702  1.9507
 4955SOL     OW27337   1.603   0.725   6.282 -0.4804  0.5089  0.5853
 4955SOL    HW127338   1.572   0.820   6.269 -2.9693 -0.2687  0.5106
 4955SOL    HW227339   1.616   0.707   6.379 -0.9638  0.6475  0.6762
 4956SOL     OW27340   8.402   4.372   5.936 -0.0049 -0.0178  0.0628
 4956SOL    HW127341   8.378   4.374   5.839  1.2109  1.6430 -0.2439
 4956SOL    HW227342   8.332   4.322   5.987  0.0777 -2.1796 -1.8499
 4957SOL     OW27343   1.641   7.585   2.608 -0.4163 -0.5986  0.2748
 4957SOL    HW127344   1.575   7.657   2.631 -0.8042 -1.7143  2.8096
 4957SOL    HW227345   1.721   7.593   2.667 -0.6903 -2.5588  0.9376
 4958SOL     OW27346   8.589   0.517   8.861 -0.1303  0.2170 -0.4092
 4958SOL    HW127347   8.634   0.437   8.901 -0.6191 -0.1987 -0.6870
 4958SOL    HW227348   8.490   0.500   8.856  0.0341 -0.1550 -2.7719
 4959SOL     OW27349   5.619   6.760   4.751  0.3189  0.5148  0.3670
 4959SOL    HW127350   5.656   6.729   4.839 -0.8823  1.4761  1.2270
 4959SOL    HW227351   5.646   6.855   4.735  1.0140  0.1644 -0.5830
 4960SOL     OW27352   6.341   0.451   0.167  1.0109  0.1922  0.0989
 4960SOL    HW127353   6.322   0.355   0.148 -0.2792  0.7450 -1.4787
 4960SOL    HW227354   6.317   0.472   0.262  1.8194 -1.1579  0.6116
 4961SOL     OW27355   5.427   5.682   5.340 -0.2326  0.0681  0.6244
 4961SOL    HW127356   5.395   5.641   5.426  0.0502 -1.0152  0.2133
 4961SOL    HW227357   5.352   5.684   5.274  0.1150 -1.0757  0.1775
 4962SOL     OW27358   5.702   2.412   2.467 -0.2630 -0.2401 -0.1401
 4962SOL    HW127359   5.738   2.371   2.384  1.1008  0.8766 -0.1247
 4962SOL    HW227360   5.604   2.427   2.457 -0.0459  0.2425 -1.7017
 4963SOL     OW27361   5.573   2.927   2.179  0.2343 -0.3719 -0.2895
 4963SOL    HW127362   5.634   2.960   2.251  0.1779  0.5568 -0.6592
 4963SOL    HW227363   5.559   2.829   2.189  0.5309 -0.3103  0.7406
 4964SOL     OW27364   0.805   1.507   3.896 -0.0862  0.3034 -0.2736
 4964SOL    HW127365   0.833   1.572   3.966 -1.1639 -0.3929  0.8153
 4964SOL    HW227366   0.853   1.420   3.910  0.5345  0.5109 -1.0747
 4965SOL     OW27367   2.853   1.566   2.416  0.1008 -0.1588  0.2179
 4965SOL    HW127368   2.854   1.630   2.339 -0.1680 -1.8980 -1.2636
 4965SOL    HW227369   2.769   1.578   2.469  0.1566  0.8566  0.0859
 4966SOL     OW27370   8.895   1.431   7.295 -0.5004 -0.0776 -0.0478
 4966SOL    HW127371   8.844   1.516   7.292 -0.1973  0.1407  0.8578
 4966SOL    HW227372   8.909   1.397   7.202 -1.2216  0.4928 -0.3683
 4967SOL     OW27373   6.603   4.248   4.615 -0.1661 -0.2504  0.2464
 4967SOL    HW127374   6.541   4.240   4.694  0.3162 -0.7004  0.5850
 4967SOL    HW227375   6.615   4.345   4.592 -1.8879 -0.2004 -0.5426
 4968SOL     OW27376   7.030   0.056   7.601 -0.2005 -0.2014 -0.2501
 4968SOL    HW127377   7.031   0.143   7.650  0.7735  0.9406 -2.2406
 4968SOL    HW227378   6.936   0.023   7.592 -0.5924  0.7674  0.3287
 4969SOL     OW27379   1.297   4.355   8.521  0.7900 -0.2399  0.5862
 4969SOL    HW127380   1.328   4.270   8.477 -0.7542 -0.3486 -0.3245
 4969SOL    HW227381   1.214   4.337   8.573  0.0082  0.8861 -0.2647
 4970SOL     OW27382   3.452   0.040   0.214 -0.0721 -0.2871  0.6398
 4970SOL    HW127383   3.451  -0.043   0.159 -0.2267 -1.2846  2.1050
 4970SOL    HW227384   3.543   0.082   0.208  0.2707 -1.0189  0.5515
 4971SOL     OW27385   1.149   7.076   6.836  0.6012 -0.1762  0.9223
 4971SOL    HW127386   1.247   7.070   6.814  0.3732 -1.9588  0.2960
 4971SOL    HW227387   1.095   7.051   6.756 -0.3605  0.3136  1.4100
 4972SOL     OW27388   7.822   4.126   1.113  0.2299 -0.5213  0.0947
 4972SOL    HW127389   7.847   4.030   1.101  0.3929 -0.5207  0.4158
 4972SOL    HW227390   7.901   4.177   1.147 -0.4146 -0.6879  1.9316
 4973SOL     OW27391   4.886   3.967   5.141 -0.2128  0.4166 -0.0273
 4973SOL    HW127392   4.807   3.975   5.202 -0.9087  0.3183 -0.9101
 4973SOL    HW227393   4.969   3.959   5.196 -1.1086 -2.8824  0.9836
 4974SOL     OW27394   6.865   1.717   7.771 -0.0158  0.2638  0.2865
 4974SOL    HW127395   6.899   1.635   7.817 -1.5746  0.6950  2.3057
 4974SOL    HW227396   6.833   1.782   7.840  2.6432  3.2726 -1.1662
 4975SOL     OW27397   4.853   0.027   7.064 -0.1996 -1.1566 -0.6249
 4975SOL    HW127398   4.935   0.006   7.010 -0.4813  0.0392 -1.5286
 4975SOL    HW227399   4.852   0.125   7.086  0.4825 -1.7900  2.4910
 4976SOL     OW27400   3.500   6.509   0.504 -0.1249 -0.2569 -0.4132
 4976SOL    HW127401   3.483   6.588   0.563  0.5612 -0.3434 -0.0945
 4976SOL    HW227402   3.437   6.512   0.427 -0.9978 -0.1135  0.2915
 4977SOL     OW27403   4.946   0.705   3.577  0.3511  0.5741 -0.5161
 4977SOL    HW127404   4.901   0.734   3.661  0.0653 -0.0384 -0.4546
 4977SOL    HW227405   4.894   0.630   3.536  2.2064 -1.2375  0.4019
 4978SOL     OW27406   3.013   3.385   6.796 -0.5115 -0.0179 -0.3184
 4978SOL    HW127407   2.927   3.353   6.834 -0.6269  0.6298 -0.0449
 4978SOL    HW227408   3.043   3.467   6.844  1.3269 -1.4173  0.9970
 4979SOL     OW27409   0.376   6.771   8.406 -0.1262  0.2651 -0.6173
 4979SOL    HW127410   0.431   6.696   8.442  0.6325  0.8923 -0.4517
 4979SOL    HW227411   0.410   6.798   8.316  0.2624  1.0812 -0.2391
 4980SOL     OW27412   7.406   2.698   5.851 -0.1038 -0.1877 -0.0021
 4980SOL    HW127413   7.456   2.616   5.825  1.8046  0.9905 -0.0893
 4980SOL    HW227414   7.312   2.673   5.875  0.2277 -2.2777 -0.7811
 4981SOL     OW27415   2.841   2.629   4.550  0.0866  0.0978 -0.1881
 4981SOL    HW127416   2.769   2.690   4.584 -1.6373 -1.1516 -1.4851
 4981SOL    HW227417   2.846   2.548   4.608  1.0421  0.5735  0.3976
 4982SOL     OW27418   0.176   0.461   8.012  0.0996 -0.0525  0.2838
 4982SOL    HW127419   0.215   0.373   7.985  0.1210 -0.1649  0.6746
 4982SOL    HW227420   0.106   0.488   7.946 -1.1040 -1.1764  1.0756
 4983SOL     OW27421   6.213   3.386   7.225 -0.5015  0.0155 -0.1745
 4983SOL    HW127422   6.276   3.459   7.196 -1.1728  0.1378 -1.3925
 4983SOL    HW227423   6.253   3.334   7.300 -0.1895  1.9240  1.0201
 4984SOL     OW27424   8.170   6.662   3.178 -0.1510 -0.1415 -0.1324
 4984SOL    HW127425   8.100   6.700   3.239  1.5199 -0.0115  1.7583
 4984SOL    HW227426   8.126   6.602   3.112 -2.0475 -0.2657  1.1753
 4985SOL     OW27427   6.653   4.006   1.377  0.3988 -0.2617  0.1641
 4985SOL    HW127428   6.603   3.980   1.460 -1.3759 -0.0816 -0.8267
 4985SOL    HW227429   6.634   4.101   1.355 -0.1091 -0.6568 -1.1295
 4986SOL     OW27430   4.334   5.020   3.359 -0.4320  0.5867  0.5067
 4986SOL    HW127431   4.325   4.967   3.275  1.2290 -0.4588  0.9586
 4986SOL    HW227432   4.368   5.112   3.336  2.6420 -0.5471  0.2076
 4987SOL     OW27433   8.609   0.922   5.470 -0.3886  0.0868 -0.4070
 4987SOL    HW127434   8.686   0.881   5.421 -0.3985 -0.8518  0.3590
 4987SOL    HW227435   8.608   1.021   5.451  0.8679  0.0830 -0.6008
 4988SOL     OW27436   8.398   8.294   6.517  0.2300 -0.0126 -0.4571
 4988SOL    HW127437   8.340   8.249   6.449 -0.5304 -0.1725  0.2864
 4988SOL    HW227438   8.490   8.255   6.512 -0.1526 -0.9263 -0.5314
 4989SOL     OW27439   0.454   4.358   8.892 -0.0871 -0.4933 -0.1442
 4989SOL    HW127440   0.465   4.348   8.793  0.5118 -0.6364 -0.0647
 4989SOL    HW227441   0.496   4.444   8.922 -0.0779 -0.5531  0.0154
 4990SOL     OW27442   6.854   4.341   1.154  0.2096  0.1670 -0.1496
 4990SOL    HW127443   6.952   4.327   1.168  0.4951  1.6041 -0.5892
 4990SOL    HW227444   6.839   4.385   1.065 -0.8354 -0.0781 -0.0998
 4991SOL     OW27445   0.426   6.690   1.284 -0.0540  0.1274  0.2437
 4991SOL    HW127446   0.424   6.709   1.186 -0.1176 -0.3303  0.1565
 4991SOL    HW227447   0.519   6.667   1.312 -0.1923 -0.5746  0.1316
 4992SOL     OW27448   6.116   7.053   8.335 -0.2556 -0.1768 -0.3859
 4992SOL    HW127449   6.157   7.099   8.413 -2.4562  1.0635  0.0672
 4992SOL    HW227450   6.186   7.038   8.265  1.4640 -0.2250  1.3124
 4993SOL     OW27451   2.564   4.104   7.225 -0.0030 -0.6132  0.4749
 4993SOL    HW127452   2.618   4.068   7.149  0.0296 -1.6842  0.9998
 4993SOL    HW227453   2.618   4.173   7.274 -0.0965  0.2148 -0.5739
 4994SOL     OW27454   4.567   0.162   3.916 -0.1131  0.0406  0.2952
 4994SOL    HW127455   4.603   0.250   3.888  0.3035 -0.1962  0.0894
 4994SOL    HW227456   4.477   0.148   3.875  0.5699 -0.3895 -1.0859
 4995SOL     OW27457   2.777   4.094   6.128  0.2739  0.3774 -0.5284
 4995SOL    HW127458   2.746   4.003   6.101  1.3640 -0.4399  0.9013
 4995SOL    HW227459   2.814   4.142   6.048  0.1201 -0.5986 -1.1991
 4996SOL     OW27460   1.219   1.409   3.974  0.2608  0.3387 -0.4810
 4996SOL    HW127461   1.308   1.369   3.953  1.7662  2.0768  2.3101
 4996SOL    HW227462   1.188   1.376   4.064 -1.6084  0.2816 -1.1158
 4997SOL     OW27463   5.001   4.350   5.495 -0.3253 -0.1374 -0.2456
 4997SOL    HW127464   5.046   4.429   5.454 -0.8620 -0.2825 -1.1333
 4997SOL    HW227465   5.048   4.324   5.579 -1.7205  2.7533  1.5016
 4998SOL     OW27466   5.590   1.817   2.481  0.3133 -0.3348 -0.1147
 4998SOL    HW127467   5.628   1.862   2.561  0.4536 -1.1059  0.2558
 4998SOL    HW227468   5.546   1.732   2.508  1.7540 -1.3998 -1.0534
 4999SOL     OW27469   2.830   1.696   1.227 -0.0581  0.0145 -0.1027
 4999SOL    HW127470   2.784   1.739   1.149  0.1058  0.8474  0.2559
 4999SOL    HW227471   2.925   1.726   1.231 -0.1467  0.2228  0.5936
 5000SOL     OW27472   8.288   2.480   4.802 -0.1131  0.1329 -0.0599
 5000SOL    HW127473   8.369   2.429   4.832 -0.9266 -0.9664  0.3334
 5000SOL    HW227474   8.284   2.567   4.850 -0.6158 -0.9813  1.9872
 5001SOL     OW27475   6.286   3.268   4.716  0.2177  0.8278 -0.0068
 5001SOL    HW127476   6.250   3.177   4.695 -2.1728  1.6799  0.3554
 5001SOL    HW227477   6.320   3.269   4.810  2.1343 -0.2259 -0.6388
 5002SOL     OW27478   5.571   4.594   5.102 -0.1308 -0.2732 -0.3242
 5002SOL    HW127479   5.625   4.667   5.060 -1.5233  0.1717 -1.3839
 5002SOL    HW227480   5.528   4.629   5.185 -1.0660  0.2305 -1.0109
 5003SOL     OW27481   6.832   5.492   3.781  0.2521  0.0170 -0.4744
 5003SOL    HW127482   6.734   5.478   3.778  0.3212 -0.5437 -0.0758
 5003SOL    HW227483   6.865   5.484   3.875  0.8490 -0.9955 -0.7623
 5004SOL     OW27484   0.282   4.250   6.809  0.1654  0.3762 -0.0265
 5004SOL    HW127485   0.196   4.260   6.758  1.0747  2.6419 -1.1953
 5004SOL    HW227486   0.287   4.319   6.881  0.9970  0.2643  0.0345
 5005SOL     OW27487   0.390   3.828   8.089 -0.5367  0.2119  0.1465
 5005SOL    HW127488   0.300   3.823   8.047 -1.0983  0.9984  1.2534
 5005SOL    HW227489   0.433   3.915   8.065  1.1921 -1.3683 -2.8637
 5006SOL     OW27490   1.832   5.080   6.412  0.2783  0.0878  0.5479
 5006SOL    HW127491   1.927   5.080   6.442  0.0515 -0.8385  1.2958
 5006SOL    HW227492   1.793   4.989   6.425 -0.7687  0.5150  0.4268
 5007SOL     OW27493   1.134   6.200   3.678 -0.6360 -0.0219  0.2422
 5007SOL    HW127494   1.063   6.270   3.665 -0.1685  0.7445  1.7575
 5007SOL    HW227495   1.091   6.110   3.683 -1.3234  0.2340 -0.8181
 5008SOL     OW27496   4.306   3.741   8.801 -0.3647 -0.3229  0.5108
 5008SOL    HW127497   4.249   3.664   8.830  0.6768 -0.8478  1.1723
 5008SOL    HW227498   4.364   3.713   8.724 -2.4486  0.7963 -1.5316
 5009SOL     OW27499   2.989   5.002   2.266  0.1870  0.3587  0.2240
 5009SOL    HW127500   2.985   5.094   2.226  2.4633  1.2615  1.9111
 5009SOL    HW227501   2.994   5.010   2.365  1.7238 -1.5267  0.3199
 5010SOL     OW27502   4.132   7.642   5.034  0.4814 -0.4596  0.1718
 5010SOL    HW127503   4.049   7.662   5.087 -0.0520 -0.7567 -0.5395
 5010SOL    HW227504   4.208   7.697   5.069 -0.0294 -0.1348  0.7891
 5011SOL     OW27505   3.960   0.679   8.167  0.2752 -0.6017  0.0944
 5011SOL    HW127506   4.002   0.734   8.095  2.1594 -2.6899 -0.4434
 5011SOL    HW227507   3.979   0.720   8.256  2.5829 -0.9181 -0.2191
 5012SOL     OW27508   3.994   3.261   7.941  0.2552 -0.2551 -0.4365
 5012SOL    HW127509   3.911   3.271   7.996  0.5287  0.5440 -0.1663
 5012SOL    HW227510   4.040   3.349   7.934  0.6256 -0.5123 -1.3203
 5013SOL     OW27511   5.426   1.724   0.118  0.4109  0.0299  0.4618
 5013SOL    HW127512   5.481   1.653   0.075  0.0094  1.4987 -2.6651
 5013SOL    HW227513   5.472   1.812   0.109 -0.8759  0.7528  0.7667
 5014SOL     OW27514   6.696   1.229   7.592  0.1637  0.3970 -0.8867
 5014SOL    HW127515   6.686   1.325   7.567  1.4993  0.8184  0.1304
 5014SOL    HW227516   6.725   1.176   7.512  1.9240  1.2920 -0.8797
 5015SOL     OW27517   4.910   7.697   0.453  0.7543 -0.5335  0.6770
 5015SOL    HW127518   4.897   7.673   0.549  0.2698 -2.2670  0.1998
 5015SOL    HW227519   5.005   7.680   0.427  0.5676 -1.3570  0.5103
 5016SOL     OW27520   6.880   5.600   3.397  0.3659  0.1773 -0.5624
 5016SOL    HW127521   6.781   5.613   3.406  0.2093 -1.1350 -0.3233
 5016SOL    HW227522   6.904   5.506   3.423  1.7271  0.6073 -0.2123
 5017SOL     OW27523   8.784   6.234   2.938  0.0219  0.1319 -0.3298
 5017SOL    HW127524   8.688   6.259   2.947  0.4735  2.8010 -2.3472
 5017SOL    HW227525   8.794   6.161   2.871 -0.6746 -0.8942  0.6681
 5018SOL     OW27526   3.828   4.682   3.718 -0.1773  0.2018 -0.2506
 5018SOL    HW127527   3.811   4.691   3.816 -0.1675 -0.9025 -0.1407
 5018SOL    HW227528   3.926   4.694   3.701  0.1656 -1.8815  0.1662
 5019SOL     OW27529   4.469   4.590   3.983  0.1995 -0.1218  0.0488
 5019SOL    HW127530   4.472   4.604   4.082 -0.2589  0.5640 -0.0277
 5019SOL    HW227531   4.433   4.673   3.939  1.8166  0.1341 -0.8184
 5020SOL     OW27532   3.164   1.595   1.414 -0.5562  0.2060 -0.0402
 5020SOL    HW127533   3.105   1.625   1.339  0.4300  2.9261  0.2270
 5020SOL    HW227534   3.257   1.631   1.401 -0.1693  0.0659  2.0734
 5021SOL     OW27535   6.532   7.150   8.643 -0.3546  0.5919  1.0428
 5021SOL    HW127536   6.529   7.222   8.713  0.5007  2.4657 -0.7815
 5021SOL    HW227537   6.583   7.183   8.564  0.4877 -2.2468  0.3486
 5022SOL     OW27538   4.635   6.250   7.907  0.5278  0.2009  0.0565
 5022SOL    HW127539   4.704   6.307   7.951 -0.5455 -0.1231  2.2566
 5022SOL    HW227540   4.545   6.292   7.921 -0.2910 -2.0445  1.8197
 5023SOL     OW27541   7.719   4.562   3.437 -0.3687 -0.0628  0.5635
 5023SOL    HW127542   7.696   4.642   3.493  1.3683  1.5227 -0.9133
 5023SOL    HW227543   7.808   4.576   3.394 -0.3180 -2.5481 -0.2165
 5024SOL     OW27544   6.728   5.080   1.876  0.2309  0.5561  0.0477
 5024SOL    HW127545   6.670   5.142   1.824 -1.3547 -1.1760 -0.2709
 5024SOL    HW227546   6.739   4.994   1.827  2.4805  0.5609  0.4566
 5025SOL     OW27547   8.664   5.462   0.343  0.4631  0.1292 -1.0021
 5025SOL    HW127548   8.667   5.534   0.411 -0.0573 -1.8572  1.1977
 5025SOL    HW227549   8.645   5.501   0.253 -0.2445  2.6481  0.2064
 5026SOL     OW27550   2.223   1.706   6.360  0.3942 -0.4239 -0.5170
 5026SOL    HW127551   2.298   1.711   6.294 -0.3474  1.9003 -1.2401
 5026SOL    HW227552   2.223   1.788   6.418 -1.2021 -0.6903 -0.0917
 5027SOL     OW27553   2.309   4.787   6.966  0.3789 -0.4003 -0.2053
 5027SOL    HW127554   2.374   4.714   6.988  0.0599 -0.8895 -0.8553
 5027SOL    HW227555   2.354   4.875   6.976  0.8416 -0.6958  0.3551
 5028SOL     OW27556   7.183   4.580   8.374 -0.6269 -0.4214 -0.1515
 5028SOL    HW127557   7.175   4.676   8.347  0.0524 -1.0800 -2.8381
 5028SOL    HW227558   7.094   4.546   8.402 -0.9575  0.8870  0.4241
 5029SOL     OW27559   6.704   1.184   7.853  0.4252 -0.0878 -0.6432
 5029SOL    HW127560   6.735   1.097   7.893  2.2450  1.2097  0.8224
 5029SOL    HW227561   6.697   1.174   7.754  2.6254 -1.3355 -0.7012
 5030SOL     OW27562   4.974   5.658   4.484  0.1510  0.2184 -0.0750
 5030SOL    HW127563   5.064   5.674   4.443  0.6152  1.4000  1.3278
 5030SOL    HW227564   4.924   5.745   4.489 -0.3053 -0.0899  0.8888
 5031SOL     OW27565   5.921   3.511   6.314 -0.2788  0.0357 -0.1338
 5031SOL    HW127566   5.859   3.448   6.267  2.0143 -0.3933 -2.7472
 5031SOL    HW227567   5.973   3.461   6.383 -0.8187 -0.2052  0.1046
 5032SOL     OW27568   1.062   5.007   0.170 -0.4127 -0.7354  0.6196
 5032SOL    HW127569   1.054   4.992   0.071 -0.3872  0.2873  0.4530
 5032SOL    HW227570   0.976   4.981   0.214 -0.4625 -1.0971  0.3145
 5033SOL     OW27571   0.278   1.418   4.717  0.1211  0.0454 -0.5041
 5033SOL    HW127572   0.188   1.377   4.703 -0.5160  1.1485  0.3010
 5033SOL    HW227573   0.283   1.505   4.669  0.0393  0.9443  1.0693
 5034SOL     OW27574   1.382   6.308   2.327 -0.1616  0.2357  0.3489
 5034SOL    HW127575   1.451   6.378   2.306  0.2723  0.0337  1.0737
 5034SOL    HW227576   1.308   6.313   2.260 -1.1537  2.7439  1.5727
 5035SOL     OW27577   0.789   1.362   1.245 -0.1819 -1.0897 -0.5075
 5035SOL    HW127578   0.694   1.339   1.269 -1.3719  0.7150 -3.2281
 5035SOL    HW227579   0.818   1.442   1.297 -0.0692 -1.7019  0.4005
 5036SOL     OW27580   2.130   1.781   4.610 -0.1253  0.0750 -0.1977
 5036SOL    HW127581   2.032   1.800   4.599  0.3366  2.4781 -0.3415
 5036SOL    HW227582   2.154   1.699   4.558 -1.8536  0.0615 -0.9965
 5037SOL     OW27583   1.474   8.009   8.718 -0.5267 -0.6406 -0.6099
 5037SOL    HW127584   1.461   8.100   8.678 -0.1970 -0.6518 -0.7498
 5037SOL    HW227585   1.521   7.951   8.652 -0.2935 -0.7658 -0.3362
 5038SOL     OW27586   4.903   3.030   0.743  0.1514  0.3431 -0.3667
 5038SOL    HW127587   4.807   3.049   0.726  0.0269 -0.7122 -0.8745
 5038SOL    HW227588   4.939   3.095   0.810 -1.6278 -0.9625  1.9536
 5039SOL     OW27589   8.808   0.141   1.175 -0.4739 -0.0136 -0.2705
 5039SOL    HW127590   8.742   0.215   1.156 -0.3366  0.0486 -0.5129
 5039SOL    HW227591   8.897   0.181   1.197 -0.1173 -0.1175 -1.4543
 5040SOL     OW27592   3.728   7.014   5.768 -0.2928 -0.0350 -0.2989
 5040SOL    HW127593   3.754   6.938   5.827  0.2076  0.1286 -0.3073
 5040SOL    HW227594   3.801   7.033   5.702  1.1406  2.7098  1.9609
 5041SOL     OW27595   3.032   7.731   2.017 -0.2594 -0.2199 -0.1284
 5041SOL    HW127596   3.059   7.635   2.007  0.4813 -0.0881  0.6049
 5041SOL    HW227597   3.105   7.790   1.984 -0.2590  0.1109  0.4495
 5042SOL     OW27598   2.622   8.910   7.271  0.9920 -0.2071 -0.4052
 5042SOL    HW127599   2.588   8.912   7.177 -0.7874  1.1641  0.2205
 5042SOL    HW227600   2.712   8.866   7.274  1.1477 -0.1009 -2.7612
 5043SOL     OW27601   7.631   7.188   1.251  0.0189 -0.2373  0.0067
 5043SOL    HW127602   7.623   7.111   1.188 -3.5716  0.4029 -0.4680
 5043SOL    HW227603   7.677   7.264   1.204  0.0667 -0.7904 -0.8552
 5044SOL     OW27604   1.963   5.600   3.217 -0.2321  0.1924  0.0730
 5044SOL    HW127605   1.947   5.637   3.126 -0.6504 -2.2810 -0.9074
 5044SOL    HW227606   1.880   5.611   3.273 -0.3860  0.6147 -0.2380
 5045SOL     OW27607   4.145   7.372   7.259  0.0633  0.2137 -0.2031
 5045SOL    HW127608   4.082   7.332   7.326 -0.8495  0.2479 -1.0321
 5045SOL    HW227609   4.161   7.306   7.186  1.4484 -0.0094  0.2900
 5046SOL     OW27610   7.777   0.426   8.313 -0.0217 -0.1627  0.4144
 5046SOL    HW127611   7.711   0.432   8.238  0.4061 -0.8271 -0.0254
 5046SOL    HW227612   7.780   0.513   8.362 -0.9465 -0.0055  0.2030
 5047SOL     OW27613   1.454   5.467   2.638 -0.3093  0.3624 -0.1758
 5047SOL    HW127614   1.371   5.434   2.683 -0.6509 -1.7566 -2.2768
 5047SOL    HW227615   1.521   5.393   2.634  0.6205  1.2413 -0.9809
 5048SOL     OW27616   3.357   6.478   4.100 -0.1209  0.3399 -0.4000
 5048SOL    HW127617   3.392   6.417   4.171  0.4617  0.4527 -0.5841
 5048SOL    HW227618   3.405   6.461   4.014  1.6251  2.5419  0.0822
 5049SOL     OW27619   7.249   4.649   4.210 -0.4310 -0.4039  0.6657
 5049SOL    HW127620   7.221   4.725   4.268 -0.2147  0.5135 -0.4336
 5049SOL    HW227621   7.171   4.615   4.158  0.1638  1.2386 -1.3401
 5050SOL     OW27622   1.749   1.112   0.713  0.1253  0.1227  0.1179
 5050SOL    HW127623   1.815   1.066   0.654 -1.1517 -1.5188 -0.0694
 5050SOL    HW227624   1.798   1.159   0.787  1.5128 -0.7617 -0.2141
 5051SOL     OW27625   5.409   8.951   2.711  0.1968 -0.2708 -0.1006
 5051SOL    HW127626   5.482   8.906   2.763  0.0601 -1.2205 -0.7180
 5051SOL    HW227627   5.340   8.883   2.685 -0.0334  0.3016 -1.0056
 5052SOL     OW27628   7.971   5.395   3.655 -0.3281 -0.2976  0.1180
 5052SOL    HW127629   7.998   5.483   3.616 -0.8303 -0.8396 -1.4737
 5052SOL    HW227630   8.021   5.380   3.740 -0.5860  1.7407  0.6711
 5053SOL     OW27631   2.886   4.486   7.001  0.3792  0.5669 -0.5403
 5053SOL    HW127632   2.881   4.586   7.000  1.1837  0.6082 -0.3710
 5053SOL    HW227633   2.827   4.449   6.929 -0.8362  1.1270  0.1526
 5054SOL     OW27634   4.706   4.129   2.687  0.5357  0.1700  0.6553
 5054SOL    HW127635   4.627   4.154   2.631  1.0794  0.0747 -0.1586
 5054SOL    HW227636   4.736   4.037   2.663  1.3936  0.5135  0.3893
 5055SOL     OW27637   7.413   8.016   1.864 -0.0160  0.1325 -0.9069
 5055SOL    HW127638   7.354   8.039   1.786 -0.7027  1.5368 -0.0088
 5055SOL    HW227639   7.407   8.089   1.932  2.0980 -0.1317 -0.4034
 5056SOL     OW27640   6.084   1.518   8.495  0.3242 -0.0527 -0.1386
 5056SOL    HW127641   6.117   1.494   8.586  0.1933  3.6186  0.9534
 5056SOL    HW227642   5.986   1.540   8.500  0.0338 -1.0058 -1.4135
 5057SOL     OW27643   2.147   5.940   7.766  0.1612 -0.1092  0.0186
 5057SOL    HW127644   2.097   5.854   7.767 -1.2960  0.7125 -0.5439
 5057SOL    HW227645   2.178   5.962   7.859 -0.5013 -0.6556  0.3718
 5058SOL     OW27646   3.512   5.347   0.981  0.3064  0.2133  0.1055
 5058SOL    HW127647   3.514   5.247   0.992  0.4020  0.3309  1.1554
 5058SOL    HW227648   3.518   5.391   1.070  3.3769  1.2097 -0.5280
 5059SOL     OW27649   2.980   1.504   4.853 -0.4675  0.6564  0.1359
 5059SOL    HW127650   2.930   1.584   4.886  0.3098  0.3179  2.2370
 5059SOL    HW227651   2.939   1.421   4.892  1.2868  0.3323  1.3692
 5060SOL     OW27652   1.259   5.058   5.184  0.0370  0.2569 -0.3272
 5060SOL    HW127653   1.288   5.026   5.094 -1.2514  1.7342 -1.2874
 5060SOL    HW227654   1.327   5.120   5.222 -0.2573  1.0338 -1.0716
 5061SOL     OW27655   5.118   6.067   3.890 -0.0034  0.0380  0.1050
 5061SOL    HW127656   5.211   6.039   3.914  1.1285  3.1361 -0.5271
 5061SOL    HW227657   5.093   6.149   3.942 -2.3613 -0.6879  0.1767
 5062SOL     OW27658   0.400   1.300   0.202  0.0682  0.5959 -0.0307
 5062SOL    HW127659   0.468   1.268   0.268 -0.6788 -0.4208  0.2521
 5062SOL    HW227660   0.336   1.362   0.247 -1.4400 -1.3804  0.6501
 5063SOL     OW27661   5.095   1.732   6.828  0.0618 -0.4404 -0.0276
 5063SOL    HW127662   5.181   1.743   6.878  0.9801 -1.3605 -1.3597
 5063SOL    HW227663   5.065   1.821   6.793  2.1521 -0.5660 -2.2463
 5064SOL     OW27664   3.529   5.969   1.695  0.1386 -0.2127 -0.0613
 5064SOL    HW127665   3.512   5.923   1.782  0.5121 -0.2105  0.0144
 5064SOL    HW227666   3.548   5.901   1.624 -1.5732 -0.2789 -0.4568
 5065SOL     OW27667   3.282   6.568   3.506  0.0387 -0.4404  0.3627
 5065SOL    HW127668   3.314   6.482   3.465 -0.1032  0.0094 -0.7031
 5065SOL    HW227669   3.261   6.634   3.434 -2.5440 -0.4498  1.0544
 5066SOL     OW27670   3.821   4.605   4.736  0.3845 -0.0072 -0.1136
 5066SOL    HW127671   3.817   4.508   4.763  1.9987  0.7842  3.2467
 5066SOL    HW227672   3.861   4.612   4.645  0.8159 -2.4698 -0.1659
 5067SOL     OW27673   8.127   2.752   0.417 -0.1634 -0.5466  0.2162
 5067SOL    HW127674   8.203   2.811   0.391 -1.0555  0.6700  0.3528
 5067SOL    HW227675   8.041   2.790   0.383 -0.8223 -1.4441  0.8279
 5068SOL     OW27676   7.553   4.144   4.393  0.2202  0.5319  0.1504
 5068SOL    HW127677   7.483   4.195   4.342 -0.3746  1.5248  1.9021
 5068SOL    HW227678   7.636   4.199   4.400  1.0498 -0.4601 -1.5270
 5069SOL     OW27679   5.875   4.832   3.137 -0.0214  0.3947 -0.1528
 5069SOL    HW127680   5.900   4.882   3.220  0.4625 -0.6958  0.3780
 5069SOL    HW227681   5.948   4.766   3.115 -0.4655  0.1937 -1.0511
 5070SOL     OW27682   0.922   4.915   6.087 -0.3832  0.0026  0.1371
 5070SOL    HW127683   0.831   4.912   6.130 -0.7410  0.6857 -0.5583
 5070SOL    HW227684   0.926   4.993   6.025 -0.3529 -1.7518 -2.1289
 5071SOL     OW27685   0.986   4.306   3.150  0.6122 -0.4074  0.0321
 5071SOL    HW127686   0.937   4.227   3.112 -0.5788  0.0214  0.6434
 5071SOL    HW227687   1.076   4.277   3.183 -0.3035 -1.7839  1.3913
 5072SOL     OW27688   7.256   2.051   7.935 -0.1363  0.2877 -0.0393
 5072SOL    HW127689   7.345   2.020   7.900 -0.2084 -0.4542  0.4354
 5072SOL    HW227690   7.267   2.142   7.975  0.3018  0.4245 -0.4599
 5073SOL     OW27691   8.942   7.162   7.102 -0.1388 -0.1419 -0.6813
 5073SOL    HW127692   8.859   7.111   7.080 -0.8790  2.0441 -3.2065
 5073SOL    HW227693   9.005   7.159   7.024 -0.0433  2.4137 -0.7687
 5074SOL     OW27694   0.289   5.250   1.122 -0.2947 -0.2892  0.2816
 5074SOL    HW127695   0.357   5.247   1.195 -0.7194  1.3827  0.7597
 5074SOL    HW227696   0.222   5.176   1.136  2.4122 -3.1278 -1.2323
 5075SOL     OW27697   8.971   4.681   1.779 -0.0738 -0.0105  0.7135
 5075SOL    HW127698   8.946   4.753   1.844 -2.2763  1.0050 -1.1921
 5075SOL    HW227699   9.001   4.722   1.694 -0.5218 -1.3616 -0.1111
 5076SOL     OW27700   4.745   5.277   5.782  0.6063 -0.1392  0.0001
 5076SOL    HW127701   4.722   5.232   5.869  1.8921 -2.1523 -0.6726
 5076SOL    HW227702   4.834   5.323   5.790 -0.3218  1.6350  0.4264
 5077SOL     OW27703   0.846   1.063   6.294 -0.0662 -0.2543  1.1647
 5077SOL    HW127704   0.841   1.138   6.227 -0.6318 -0.0141  1.4678
 5077SOL    HW227705   0.916   0.998   6.266  0.1189  0.1577  0.6555
 5078SOL     OW27706   7.452   3.243   0.297 -0.6078 -0.0795  0.6210
 5078SOL    HW127707   7.411   3.314   0.241  0.2896  1.1635  1.4945
 5078SOL    HW227708   7.495   3.285   0.377  0.4594 -1.5385  0.8397
 5079SOL     OW27709   4.690   3.894   1.059 -0.2564 -1.0193  0.0923
 5079SOL    HW127710   4.634   3.819   1.094 -0.4293 -0.5306  0.8680
 5079SOL    HW227711   4.784   3.882   1.088 -0.1912 -1.1818 -0.1796
 5080SOL     OW27712   1.061   1.208   7.625  0.1345 -0.5778 -0.1736
 5080SOL    HW127713   0.973   1.248   7.602  0.4637 -0.0943 -0.5950
 5080SOL    HW227714   1.132   1.243   7.563  0.2386 -2.6529 -1.2749
 5081SOL     OW27715   1.680   4.012   4.792  0.5874  0.1604  0.1442
 5081SOL    HW127716   1.776   3.987   4.790  0.3910 -0.6007  0.1826
 5081SOL    HW227717   1.671   4.106   4.824  1.2895  0.0924  0.5496
 5082SOL     OW27718   3.094   8.485   6.591  0.2141 -0.8349 -0.3497
 5082SOL    HW127719   3.083   8.458   6.687  0.8186 -0.4397 -0.1692
 5082SOL    HW227720   3.027   8.556   6.569  1.5220  0.6487  0.3944
 5083SOL     OW27721   3.615   1.119   8.725 -0.6138 -0.1755 -0.1672
 5083SOL    HW127722   3.532   1.163   8.692 -1.3381 -1.4158 -0.0216
 5083SOL    HW227723   3.658   1.068   8.650  0.2978  0.8687 -0.3703
 5084SOL     OW27724   7.395   0.696   6.627  0.0757 -0.1545 -0.1905
 5084SOL    HW127725   7.470   0.636   6.602 -1.8016 -3.1513  1.1044
 5084SOL    HW227726   7.321   0.688   6.559 -0.1040  0.8601 -0.1254
 5085SOL     OW27727   3.645   4.648   5.863 -0.0990  0.2092  0.4825
 5085SOL    HW127728   3.642   4.724   5.798 -0.2556 -1.4620 -1.5038
 5085SOL    HW227729   3.705   4.576   5.828 -0.9050 -1.1172  1.7470
 5086SOL     OW27730   4.426   4.575   1.810 -0.5251  0.1983  0.3031
 5086SOL    HW127731   4.435   4.507   1.737 -1.6180  1.1480 -0.7510
 5086SOL    HW227732   4.484   4.550   1.887 -0.5740 -1.6866 -0.2540
 5087SOL     OW27733   8.672   7.222   1.224 -0.6452  0.3806  0.5828
 5087SOL    HW127734   8.679   7.129   1.188  1.1114  0.6350  0.2258
 5087SOL    HW227735   8.728   7.230   1.306 -1.2415  0.9699  0.9340
 5088SOL     OW27736   2.753   4.094   6.919  0.0906  0.2620 -0.0420
 5088SOL    HW127737   2.847   4.099   6.951  0.7276  2.2304 -2.0912
 5088SOL    HW227738   2.732   4.001   6.888  0.6273 -0.7263  2.4301
 5089SOL     OW27739   4.099   8.466   3.282  0.5817  0.2934  0.1343
 5089SOL    HW127740   4.023   8.405   3.261 -0.9428  2.5916 -1.3065
 5089SOL    HW227741   4.111   8.470   3.382 -1.2041 -0.0930  0.3848
 5090SOL     OW27742   8.338   4.262   0.902 -0.6856  0.1545  0.2473
 5090SOL    HW127743   8.389   4.176   0.911 -1.4076 -0.2274  0.7675
 5090SOL    HW227744   8.327   4.285   0.805 -2.0081 -1.2707  0.0359
 5091SOL     OW27745   2.227   3.256   1.494  0.1330 -0.4722  0.1474
 5091SOL    HW127746   2.219   3.209   1.582 -1.5525 -0.3951  0.0419
 5091SOL    HW227747   2.260   3.350   1.509 -1.7304  0.0840  0.8592
 5092SOL     OW27748   3.380   5.644   7.991 -0.7608  0.3048  0.1328
 5092SOL    HW127749   3.298   5.680   8.035 -0.6661 -0.7279  1.1765
 5092SOL    HW227750   3.454   5.638   8.059  0.1981  1.2607 -0.8044
 5093SOL     OW27751   6.243   2.789   8.291 -0.6989 -0.5535  0.6785
 5093SOL    HW127752   6.191   2.873   8.305  2.4354  1.3498  1.5360
 5093SOL    HW227753   6.288   2.763   8.377 -0.8688 -2.5852  0.1770
 5094SOL     OW27754   5.342   2.573   1.237  0.2432 -0.5225  0.7021
 5094SOL    HW127755   5.392   2.658   1.255  0.8768 -0.5898 -0.6923
 5094SOL    HW227756   5.246   2.585   1.263 -0.3664  1.6570 -2.3499
 5095SOL     OW27757   4.830   0.901   6.960  0.3210  0.3887 -0.8877
 5095SOL    HW127758   4.810   0.867   6.868 -1.1976  0.7292 -0.6948
 5095SOL    HW227759   4.844   1.000   6.956 -1.0929  0.6134 -0.5610
 5096SOL     OW27760   0.870   7.971   0.588  0.5808  0.6108 -0.3841
 5096SOL    HW127761   0.959   8.009   0.563  1.0023  0.6221  1.0508
 5096SOL    HW227762   0.841   8.010   0.675 -0.6524  0.3085 -0.6539
 5097SOL     OW27763   2.541   1.823   1.250  0.5478  0.2527 -0.3105
 5097SOL    HW127764   2.534   1.740   1.305  2.0811  1.2476  1.4485
 5097SOL    HW227765   2.474   1.890   1.282  0.5359  0.3501 -0.5406
 5098SOL     OW27766   0.207   8.097   5.163 -0.2954 -0.4607 -0.1699
 5098SOL    HW127767   0.155   8.052   5.235 -0.8055 -0.2059 -0.3755
 5098SOL    HW227768   0.146   8.155   5.109  0.4920  1.1117  0.5880
 5099SOL     OW27769   3.476   3.757   6.098  0.5386 -0.3238  0.0672
 5099SOL    HW127770   3.456   3.786   6.004  0.6409 -0.3143  0.0472
 5099SOL    HW227771   3.537   3.824   6.141 -1.6954  1.1011  1.0747
 5100SOL     OW27772   0.182   3.433   6.077 -0.1879 -0.2901 -0.0962
 5100SOL    HW127773   0.149   3.430   6.171  0.9976  3.4780  0.5334
 5100SOL    HW227774   0.145   3.356   6.026  0.1134 -3.1012  3.7402
 5101SOL     OW27775   8.119   5.114   7.767 -0.0472 -0.0558  0.1217
 5101SOL    HW127776   8.050   5.065   7.820  0.6725 -1.0758  0.1303
 5101SOL    HW227777   8.208   5.105   7.812  0.2912  0.3299 -0.4674
 5102SOL     OW27778   2.650   6.840   5.898 -0.0368  0.4655  0.7947
 5102SOL    HW127779   2.620   6.934   5.881  0.4758  0.7742  1.5490
 5102SOL    HW227780   2.679   6.831   5.994 -0.3938 -0.5467  0.8152
 5103SOL     OW27781   5.715   0.429   3.399  0.0946 -0.1544  0.2434
 5103SOL    HW127782   5.704   0.526   3.421 -0.2588  0.3193 -1.8797
 5103SOL    HW227783   5.746   0.380   3.480 -0.0304  1.6723  1.4378
 5104SOL     OW27784   6.384   8.684   3.166  0.0178  0.2043  0.0460
 5104SOL    HW127785   6.286   8.673   3.183 -0.2363  2.1788  0.0516
 5104SOL    HW227786   6.405   8.656   3.072 -0.1401 -2.2908  0.7244
 5105SOL     OW27787   4.411   7.953   8.275  0.6160 -0.2242 -0.1448
 5105SOL    HW127788   4.488   7.958   8.211  0.6149 -0.6951 -0.1869
 5105SOL    HW227789   4.368   7.862   8.268 -0.9600  0.5848 -1.3134
 5106SOL     OW27790   2.970   2.003   7.847 -0.1381  0.2451 -0.8634
 5106SOL    HW127791   2.884   2.015   7.798 -1.5823  0.4086  1.6190
 5106SOL    HW227792   2.964   1.922   7.906  0.3080  1.8717  1.5043
 5107SOL     OW27793   2.974   0.861   5.708 -0.5291  0.4595  0.2785
 5107SOL    HW127794   2.888   0.913   5.705  0.1209  1.5538  0.3650
 5107SOL    HW227795   2.994   0.835   5.802 -0.7149  0.2816  0.2706
 5108SOL     OW27796   4.672   2.933   3.031 -0.1880  0.2055  0.2014
 5108SOL    HW127797   4.750   2.885   2.991 -0.8628  0.4149 -1.4010
 5108SOL    HW227798   4.702   3.021   3.066  0.0779  0.8528 -1.5909
 5109SOL     OW27799   1.221   7.890   4.981  0.3143 -0.0408  0.2756
 5109SOL    HW127800   1.207   7.962   4.913  1.2104 -2.1034 -2.1802
 5109SOL    HW227801   1.139   7.833   4.986  1.1498 -1.3856 -0.9515
 5110SOL     OW27802   8.066   3.418   4.638  0.0807  0.8860  0.6684
 5110SOL    HW127803   8.005   3.445   4.712  0.7502 -1.7192  2.2250
 5110SOL    HW227804   8.161   3.420   4.670  0.4585  0.7014 -0.4137
 5111SOL     OW27805   2.364   0.140   0.439  0.1362  0.0766 -0.1572
 5111SOL    HW127806   2.424   0.088   0.379  0.8651  1.0165 -0.2437
 5111SOL    HW227807   2.276   0.092   0.448  0.6495 -0.9507 -0.5636
 5112SOL     OW27808   6.583   5.684   3.752  0.1707  0.3510  0.1321
 5112SOL    HW127809   6.490   5.720   3.756 -1.2929 -2.7726 -2.9140
 5112SOL    HW227810   6.589   5.600   3.806  1.0242  0.1794 -0.2224
 5113SOL     OW27811   6.155   6.405   1.207  0.1714  0.5568 -0.3048
 5113SOL    HW127812   6.116   6.328   1.158  2.5880 -0.6479 -0.4303
 5113SOL    HW227813   6.186   6.474   1.141  3.2809 -0.9956 -0.5764
 5114SOL     OW27814   4.682   5.150   4.345  0.5398 -0.2307 -0.2174
 5114SOL    HW127815   4.653   5.056   4.367  0.5135 -0.2319 -0.2568
 5114SOL    HW227816   4.692   5.159   4.246  0.1367 -0.0742 -0.2439
 5115SOL     OW27817   2.398   0.790   2.578  0.6212  0.0816 -0.1773
 5115SOL    HW127818   2.327   0.839   2.629 -1.2024 -0.0680 -2.4849
 5115SOL    HW227819   2.480   0.783   2.634  0.0385  3.4550  1.1868
 5116SOL     OW27820   1.482   3.119   5.994 -0.8064 -0.2398 -0.1539
 5116SOL    HW127821   1.440   3.140   5.906 -0.7161 -2.2328 -0.6923
 5116SOL    HW227822   1.582   3.113   5.982 -0.8223 -0.8513  0.0101
 5117SOL     OW27823   2.134   2.896   5.254  0.1602 -0.3976  0.1624
 5117SOL    HW127824   2.116   2.938   5.343 -0.3069  2.1382 -1.0656
 5117SOL    HW227825   2.220   2.932   5.217 -0.7448  0.2642 -1.3649
 5118SOL     OW27826   2.961   6.934   7.425  0.5951  0.0854  0.2571
 5118SOL    HW127827   2.969   7.005   7.355 -1.2725  1.7753  1.7095
 5118SOL    HW227828   3.048   6.924   7.473  0.7210  1.8012  0.4104
 5119SOL     OW27829   7.168   1.013   6.010 -0.0857 -0.2697 -0.0613
 5119SOL    HW127830   7.164   1.111   6.033 -4.2657 -0.6453  1.1192
 5119SOL    HW227831   7.114   0.996   5.928 -0.7782 -1.8577  0.7195
 5120SOL     OW27832   3.061   7.927   1.486 -0.3424 -0.2132  0.6557
 5120SOL    HW127833   3.025   7.846   1.439  2.8234 -1.0046 -0.5552
 5120SOL    HW227834   3.027   7.929   1.580 -1.3434 -2.3423  0.3793
 5121SOL     OW27835   3.914   4.513   6.240 -0.4333  0.1859  0.4823
 5121SOL    HW127836   3.973   4.589   6.211  1.3357 -1.9311 -1.6817
 5121SOL    HW227837   3.823   4.525   6.202 -0.2551  1.3513  0.3869
 5122SOL     OW27838   8.017   8.948   5.484 -0.1852  0.4030 -0.2501
 5122SOL    HW127839   8.067   8.977   5.403 -1.4100  1.3082 -0.6881
 5122SOL    HW227840   7.969   9.026   5.524  0.6581  0.0386  1.5349
 5123SOL     OW27841   1.820   5.485   2.799 -0.4351 -0.3479  0.0079
 5123SOL    HW127842   1.731   5.445   2.778 -0.9547  0.1943  1.1167
 5123SOL    HW227843   1.874   5.421   2.854 -1.6238  0.7691  2.5791
 5124SOL     OW27844   8.240   5.106   8.664 -0.4050  0.4253 -0.3510
 5124SOL    HW127845   8.241   5.060   8.576 -0.9140  0.4376 -0.3657
 5124SOL    HW227846   8.220   5.040   8.736  0.4520  0.3344 -0.1928
 5125SOL     OW27847   4.320   0.331   8.571 -0.0199 -0.0393  0.1558
 5125SOL    HW127848   4.272   0.325   8.659 -0.5559  0.8210 -0.0716
 5125SOL    HW227849   4.403   0.275   8.574  1.4788  2.2399  2.1674
 5126SOL     OW27850   8.284   7.104   1.144 -0.4708  0.4956  0.7330
 5126SOL    HW127851   8.342   7.184   1.163 -0.0392 -0.2261  2.5726
 5126SOL    HW227852   8.233   7.080   1.226  0.5680 -2.0560  0.6887
 5127SOL     OW27853   3.488   1.966   6.539  0.0179  0.1228  0.2146
 5127SOL    HW127854   3.544   1.895   6.581  1.0489  0.9933  0.3118
 5127SOL    HW227855   3.496   2.051   6.592  0.3735  0.8897 -1.0567
 5128SOL     OW27856   0.696   6.205   1.853  0.6367  0.2844 -0.5155
 5128SOL    HW127857   0.792   6.218   1.828  0.7112  1.0258  0.1208
 5128SOL    HW227858   0.687   6.208   1.952 -0.1439  0.9476 -0.6044
 5129SOL     OW27859   2.884   2.965   3.983 -0.1681  0.1275  0.1463
 5129SOL    HW127860   2.804   2.976   4.043 -0.5067  0.4859 -0.3716
 5129SOL    HW227861   2.920   2.872   3.992 -1.0904 -0.2613 -0.1787
 5130SOL     OW27862   2.194   7.517   8.631  0.1285 -0.1635 -0.1664
 5130SOL    HW127863   2.127   7.485   8.565  0.5153  1.6000 -1.4380
 5130SOL    HW227864   2.286   7.492   8.601  0.1681 -1.4362  0.9267
 5131SOL     OW27865   4.483   4.126   0.191  0.5064 -0.3275 -0.0293
 5131SOL    HW127866   4.426   4.055   0.232 -3.5274  1.7888 -1.6702
 5131SOL    HW227867   4.448   4.216   0.218  2.8125  1.0581 -1.5042
 5132SOL     OW27868   5.048   6.547   7.834 -0.2490  0.2788 -0.2908
 5132SOL    HW127869   5.089   6.475   7.778 -0.1528  1.3125 -1.5615
 5132SOL    HW227870   5.069   6.636   7.795 -2.7189  0.8856 -0.3278
 5133SOL     OW27871   2.286   6.142   4.510  0.1602  0.1665 -0.7325
 5133SOL    HW127872   2.296   6.043   4.496 -1.6630 -0.2802  0.7698
 5133SOL    HW227873   2.264   6.159   4.606  3.5310  2.3185 -0.2872
 5134SOL     OW27874   3.680   2.775   8.061 -0.7038 -0.1814 -0.0423
 5134SOL    HW127875   3.733   2.693   8.038 -1.9934 -0.7878 -0.8989
 5134SOL    HW227876   3.741   2.855   8.060  0.1174 -0.7978 -1.5108
 5135SOL     OW27877   3.251   4.277   2.635 -0.1081 -0.0021  0.0226
 5135SOL    HW127878   3.262   4.189   2.589 -0.6864  0.0696 -0.2475
 5135SOL    HW227879   3.179   4.269   2.704 -1.0842  0.6301 -0.9211
 5136SOL     OW27880   2.871   7.360   8.739 -0.0125 -0.2793 -0.1753
 5136SOL    HW127881   2.902   7.411   8.659 -0.5713  1.4210  0.6730
 5136SOL    HW227882   2.910   7.268   8.737  3.8496  1.2451  0.0512
 5137SOL     OW27883   4.201   6.970   6.928 -0.0671  0.5248 -0.0141
 5137SOL    HW127884   4.179   6.975   6.830 -0.5830  0.7178  0.1096
 5137SOL    HW227885   4.125   6.927   6.977 -0.3875  1.6393  0.4842
 5138SOL     OW27886   4.447   3.966   7.074  0.0634  0.3154 -1.0214
 5138SOL    HW127887   4.481   3.891   7.019  2.2699  1.9495 -1.9555
 5138SOL    HW227888   4.504   3.976   7.156 -1.4004 -0.2254  0.0938
 5139SOL     OW27889   3.435   2.821   2.623 -0.5617  0.0964 -0.7851
 5139SOL    HW127890   3.362   2.802   2.689  0.1246 -0.4240 -0.1588
 5139SOL    HW227891   3.513   2.863   2.671 -1.1283  2.3000 -1.7490
 5140SOL     OW27892   1.978   2.082   6.909  0.2061 -0.6757  0.4454
 5140SOL    HW127893   1.941   2.027   6.984 -0.5935  0.1525  0.6700
 5140SOL    HW227894   1.918   2.074   6.830  1.0575 -1.5587 -0.1242
 5141SOL     OW27895   8.473   4.223   0.419 -0.6191 -0.3837  0.0411
 5141SOL    HW127896   8.506   4.244   0.327  1.8384 -1.0576  0.7450
 5141SOL    HW227897   8.400   4.155   0.412  0.7633 -1.7908 -1.3212
 5142SOL     OW27898   6.024   8.821   8.571 -0.3147  0.6898 -1.2168
 5142SOL    HW127899   6.036   8.919   8.581  0.8559  0.4328  0.1148
 5142SOL    HW227900   6.080   8.788   8.495  1.0123  0.7478 -0.2875
 5143SOL     OW27901   6.520   2.298   5.576  0.3281 -0.7536  0.0244
 5143SOL    HW127902   6.490   2.314   5.482 -1.8722 -0.8238  0.7004
 5143SOL    HW227903   6.446   2.318   5.639  0.8137 -3.5424  1.5823
 5144SOL     OW27904   6.195   4.600   5.393 -0.5499 -0.0404  0.0560
 5144SOL    HW127905   6.237   4.591   5.484 -0.1434 -0.9599 -0.2244
 5144SOL    HW227906   6.245   4.669   5.340 -0.2226 -0.1644  0.2024
 5145SOL     OW27907   8.814   7.538   6.268  0.3400  0.5755  0.1577
 5145SOL    HW127908   8.808   7.546   6.368 -4.8526 -1.9390  0.2471
 5145SOL    HW227909   8.843   7.445   6.244  0.3401  0.7754 -0.6310
 5146SOL     OW27910   1.787   1.898   1.570 -0.4637 -0.9390  0.0242
 5146SOL    HW127911   1.689   1.881   1.565 -0.4928 -0.4686 -1.2480
 5146SOL    HW227912   1.822   1.921   1.479  0.6685 -0.2581  0.6107
 5147SOL     OW27913   3.540   8.256   6.594 -0.0172  0.2741 -0.2218
 5147SOL    HW127914   3.634   8.223   6.596 -0.0656  0.1428 -0.1028
 5147SOL    HW227915   3.479   8.185   6.629 -0.0970  0.5697  0.2401
 5148SOL     OW27916   3.383   0.126   1.470 -0.1161  0.0962 -0.6806
 5148SOL    HW127917   3.349   0.080   1.388 -0.6189 -0.2039 -0.3084
 5148SOL    HW227918   3.353   0.222   1.470  0.1273  0.1720 -0.9873
 5149SOL     OW27919   7.334   8.007   5.732  0.0944  0.0189 -0.1019
 5149SOL    HW127920   7.311   7.912   5.710  1.4851 -0.8178  1.8741
 5149SOL    HW227921   7.261   8.067   5.701 -1.7497 -1.9126  0.4101
 5150SOL     OW27922   8.027   0.078   1.722 -0.1778 -0.3314  0.2790
 5150SOL    HW127923   7.990  -0.004   1.765 -1.2083  0.6952  1.4089
 5150SOL    HW227924   7.978   0.158   1.756  1.3752  0.8339 -0.1461
 5151SOL     OW27925   3.161   6.768   6.124  0.4105 -0.3602  0.2835
 5151SOL    HW127926   3.235   6.704   6.105  1.0930  0.1813  1.0492
 5151SOL    HW227927   3.179   6.854   6.077  0.6282 -0.0040  0.9949
 5152SOL     OW27928   6.534   2.520   7.949  0.4152  0.5386 -0.7531
 5152SOL    HW127929   6.593   2.469   8.012  3.2541  0.7820 -3.0951
 5152SOL    HW227930   6.526   2.614   7.979 -1.3489 -0.2170  1.2567
 5153SOL     OW27931   8.769   3.538   3.570 -0.3229 -0.2795  0.2342
 5153SOL    HW127932   8.860   3.514   3.536 -0.5880 -1.6515  0.4643
 5153SOL    HW227933   8.700   3.488   3.518 -0.9422  0.6427  0.1648
 5154SOL     OW27934   5.229   1.389   1.562 -0.3244 -0.4282  0.7024
 5154SOL    HW127935   5.178   1.343   1.634 -0.4565 -0.8904  0.3139
 5154SOL    HW227936   5.326   1.389   1.584 -0.4481  0.1753  1.2903
 5155SOL     OW27937   3.733   4.629   7.222  0.5544  1.0477  0.1608
 5155SOL    HW127938   3.816   4.676   7.252  0.7548  0.2259  0.9123
 5155SOL    HW227939   3.752   4.531   7.210 -0.4819  0.7372  1.0333
 5156SOL     OW27940   4.550   2.320   0.107 -0.9693  0.0692  0.0716
 5156SOL    HW127941   4.492   2.316   0.188  1.1726 -0.8828  1.6016
 5156SOL    HW227942   4.646   2.306   0.133 -0.3310 -1.2291 -2.7318
 5157SOL     OW27943   8.909   7.920   7.918  0.0628  0.2602 -0.3206
 5157SOL    HW127944   8.882   7.872   7.834  0.3292  0.7532 -0.6939
 5157SOL    HW227945   8.833   7.920   7.982  0.5547 -2.0182  0.3153
 5158SOL     OW27946   2.139   5.922   7.476  0.3825  0.2314  0.1764
 5158SOL    HW127947   2.130   5.926   7.575 -0.2881 -0.9479  0.1777
 5158SOL    HW227948   2.078   5.990   7.434 -1.6154 -1.2854  0.5038
 5159SOL     OW27949   2.149   0.282   2.054 -0.5693 -0.0776  0.3378
 5159SOL    HW127950   2.136   0.346   2.130 -2.2651 -0.2795  0.2428
 5159SOL    HW227951   2.196   0.200   2.086 -0.3871  0.2695  0.9521
 5160SOL     OW27952   4.082   1.676   2.490  0.5331 -0.7631  0.0036
 5160SOL    HW127953   4.149   1.703   2.421  1.1938 -0.4900  0.7509
 5160SOL    HW227954   4.026   1.601   2.454  2.1481 -1.9454 -0.1155
 5161SOL     OW27955   3.914   8.083   8.617  0.3641  0.0933 -0.0522
 5161SOL    HW127956   3.962   8.078   8.705  0.7475  2.5512 -0.0998
 5161SOL    HW227957   3.915   8.177   8.584 -4.0191  0.1356 -0.3120
 5162SOL     OW27958   4.520   1.983   3.359 -0.2768  0.0962 -0.3277
 5162SOL    HW127959   4.588   1.982   3.432  0.3360  1.3525 -0.8623
 5162SOL    HW227960   4.461   2.063   3.371 -1.3445 -0.7142 -0.1562
 5163SOL     OW27961   3.902   2.142   8.487 -0.2295  0.0589  0.4732
 5163SOL    HW127962   3.925   2.084   8.408  1.0590  0.0980  0.8239
 5163SOL    HW227963   3.829   2.205   8.461 -1.4109 -1.4681 -0.0237
 5164SOL     OW27964   0.240   0.270   4.664 -0.2588  0.3558 -0.4083
 5164SOL    HW127965   0.289   0.329   4.728 -1.0578  0.3598  0.2068
 5164SOL    HW227966   0.182   0.325   4.605  1.8541  0.5330 -2.3948
 5165SOL     OW27967   3.930   0.327   7.650  0.7777 -0.0343 -0.2736
 5165SOL    HW127968   3.950   0.382   7.569 -2.7123  3.9276  1.3136
 5165SOL    HW227969   3.977   0.367   7.729  0.9245 -1.4508  0.3750
 5166SOL     OW27970   6.587   4.211   7.654 -0.0078 -0.0965  0.1287
 5166SOL    HW127971   6.501   4.162   7.639 -0.9455  2.0033 -1.5112
 5166SOL    HW227972   6.652   4.150   7.700 -0.4644 -3.5573 -3.5636
 5167SOL     OW27973   7.191   5.981   6.205 -0.4837 -0.6316  0.2600
 5167SOL    HW127974   7.245   5.920   6.264 -1.6320 -2.3596 -0.4241
 5167SOL    HW227975   7.109   5.933   6.174 -0.9743  0.9916 -1.0301
 5168SOL     OW27976   2.351   3.397   4.246 -0.1898  0.9356 -0.4157
 5168SOL    HW127977   2.268   3.364   4.200  0.4992  0.6432 -1.4443
 5168SOL    HW227978   2.326   3.469   4.312 -1.3743  0.2080 -0.0502
 5169SOL     OW27979   7.563   3.439   0.495 -0.6226 -0.3776 -0.0039
 5169SOL    HW127980   7.601   3.493   0.420 -0.7517  0.5211  0.5713
 5169SOL    HW227981   7.625   3.442   0.574 -0.9386 -0.5263  0.2543
 5170SOL     OW27982   3.482   6.549   0.117 -0.2730  0.4379 -0.2676
 5170SOL    HW127983   3.455   6.532   0.023 -0.3061 -0.7739 -0.0431
 5170SOL    HW227984   3.573   6.512   0.134  0.6282  2.5494 -0.4038
 5171SOL     OW27985   5.571   7.452   8.491  0.2948 -0.2119  0.0285
 5171SOL    HW127986   5.601   7.423   8.582  1.0597  0.5028  0.0048
 5171SOL    HW227987   5.564   7.372   8.431 -1.0391 -0.8130  0.9361
 5172SOL     OW27988   5.034   5.141   1.060 -0.9260 -0.1567 -0.7904
 5172SOL    HW127989   5.026   5.066   0.994 -1.5101 -0.3891 -0.4586
 5172SOL    HW227990   5.107   5.120   1.125  0.8131  0.8586 -2.3765
 5173SOL     OW27991   0.865   6.834   8.800 -0.4270  0.0433 -0.3944
 5173SOL    HW127992   0.834   6.760   8.860 -0.2750  0.3179  0.0249
 5173SOL    HW227993   0.794   6.905   8.796  0.5347  1.1595  1.3779
 5174SOL     OW27994   7.808   0.495   2.221  0.1051  0.4974  0.1215
 5174SOL    HW127995   7.744   0.493   2.145  0.5319  1.3244 -0.2622
 5174SOL    HW227996   7.822   0.402   2.255 -1.9885  0.4170  0.7993
 5175SOL     OW27997   1.357   6.245   8.861 -0.4430 -0.0562  0.1554
 5175SOL    HW127998   1.450   6.223   8.832  0.0122 -0.7691  2.0719
 5175SOL    HW227999   1.293   6.184   8.815  0.2989 -1.4908  0.9903
 5176SOL     OW28000   3.659   6.704   2.289 -0.2138  0.3047  0.3139
 5176SOL    HW128001   3.609   6.705   2.203 -0.4064 -0.2693  0.4126
 5176SOL    HW228002   3.689   6.610   2.309  0.4870  0.5627  0.4939
 5177SOL     OW28003   7.209   3.064   0.068 -0.0670 -0.5434  0.2959
 5177SOL    HW128004   7.246   2.997   0.004  0.4462 -1.6328  1.7333
 5177SOL    HW228005   7.112   3.045   0.084 -1.0179  1.5517 -2.4774
 5178SOL     OW28006   7.046   8.259   5.398  0.1215  0.2913 -0.2944
 5178SOL    HW128007   7.002   8.302   5.477 -1.2498  1.4974 -1.6782
 5178SOL    HW228008   7.078   8.331   5.335  0.3812 -0.6660 -1.2638
 5179SOL     OW28009   7.473   0.936   6.518 -0.2550 -0.1947 -0.8086
 5179SOL    HW128010   7.406   0.964   6.449 -0.0962  0.4368 -0.7166
 5179SOL    HW228011   7.447   0.848   6.557 -2.2693  1.0907  0.8485
 5180SOL     OW28012   6.564   8.983   2.212 -0.3019  0.1438 -0.4936
 5180SOL    HW128013   6.502   8.928   2.268  0.6639 -0.6444 -0.1936
 5180SOL    HW228014   6.618   9.043   2.270  1.5908 -1.5661 -0.4465
 5181SOL     OW28015   5.612   0.659   0.896 -0.0611  0.8113  0.1484
 5181SOL    HW128016   5.545   0.606   0.845  1.0157 -0.1691 -0.2640
 5181SOL    HW228017   5.591   0.654   0.994 -0.5641  0.4950  0.0236
 5182SOL     OW28018   3.238   5.147   5.608 -0.5313  0.3475  0.0590
 5182SOL    HW128019   3.201   5.054   5.609  2.5960 -0.9688  0.6682
 5182SOL    HW228020   3.287   5.164   5.694  4.1816  0.2621 -2.4433
 5183SOL     OW28021   4.137   6.877   4.953  0.1979 -0.0200  0.0319
 5183SOL    HW128022   4.215   6.875   5.015 -0.4270  0.6112  0.8623
 5183SOL    HW228023   4.054   6.851   5.003  0.2674 -3.4023 -1.4873
 5184SOL     OW28024   5.803   2.255   7.234 -0.2535 -0.0665  0.2718
 5184SOL    HW128025   5.881   2.198   7.258 -0.7476 -1.3788 -1.1754
 5184SOL    HW228026   5.789   2.324   7.305  0.8008 -1.2743  1.6764
 5185SOL     OW28027   2.075   5.929   0.701  0.3843 -0.1348  0.4073
 5185SOL    HW128028   2.092   5.904   0.796 -1.0472  0.7634  0.9185
 5185SOL    HW228029   2.019   5.858   0.657  1.0948 -0.5780  0.1947
 5186SOL     OW28030   8.060   6.542   2.267  0.2688 -0.2049 -0.2067
 5186SOL    HW128031   8.024   6.497   2.185  0.6535 -1.6244  0.3897
 5186SOL    HW228032   7.984   6.568   2.326  0.1480 -2.8254  0.8577
 5187SOL     OW28033   2.687   6.332   5.865  0.0441 -0.6883 -0.3067
 5187SOL    HW128034   2.730   6.417   5.897  0.4721 -0.8395 -0.4802
 5187SOL    HW228035   2.730   6.302   5.780 -0.2488 -0.9685 -0.3591
 5188SOL     OW28036   6.129   5.194   6.805 -0.8531  0.1994 -0.1805
 5188SOL    HW128037   6.085   5.118   6.854  0.8596 -0.6173  0.1163
 5188SOL    HW228038   6.113   5.279   6.855 -2.1162 -0.0730 -0.0960
 5189SOL     OW28039   0.075   8.884   1.602  0.6568 -0.7866  0.3998
 5189SOL    HW128040   0.013   8.812   1.635 -1.1897  0.6414  0.1410
 5189SOL    HW228041   0.091   8.950   1.675 -1.0532  0.7787 -0.5899
 5190SOL     OW28042   7.740   3.151   5.062 -0.0723 -0.1020 -0.0228
 5190SOL    HW128043   7.753   3.230   5.001  2.0888 -0.2097  0.2888
 5190SOL    HW228044   7.807   3.154   5.136  1.0506 -3.0737 -0.8669
 5191SOL     OW28045   8.209   3.487   8.350  0.6039 -0.4194  0.7392
 5191SOL    HW128046   8.231   3.543   8.271 -1.0778 -1.1536 -0.2755
 5191SOL    HW228047   8.175   3.546   8.424  0.7944  0.1204  0.3972
 5192SOL     OW28048   5.893   3.645   6.572  0.5389 -0.1000  0.8425
 5192SOL    HW128049   5.939   3.585   6.637 -0.0519 -0.3004  1.0774
 5192SOL    HW228050   5.926   3.624   6.479 -1.5116 -2.6072  0.5934
 5193SOL     OW28051   4.893   3.694   2.097 -0.1118 -0.3352  0.6493
 5193SOL    HW128052   4.927   3.639   2.021 -0.1478  0.7261 -0.1513
 5193SOL    HW228053   4.952   3.773   2.109 -1.3845  0.6938  0.2504
 5194SOL     OW28054   1.396   6.589   0.539 -0.4165 -0.5090 -0.1832
 5194SOL    HW128055   1.372   6.672   0.591 -1.9317 -1.0704  0.0442
 5194SOL    HW228056   1.491   6.563   0.559 -0.7695 -0.3334  1.8066
 5195SOL     OW28057   5.357   2.647   2.635  0.6177  0.1317 -0.9178
 5195SOL    HW128058   5.289   2.714   2.666  0.0214 -1.0174  0.3637
 5195SOL    HW228059   5.323   2.599   2.554  0.9374  1.1905 -1.6867
 5196SOL     OW28060   7.322   5.732   2.424 -0.2161  0.2138 -0.1062
 5196SOL    HW128061   7.344   5.726   2.521 -2.2146 -1.9878  0.2734
 5196SOL    HW228062   7.247   5.797   2.410  0.1957  0.6688 -0.1972
 5197SOL     OW28063   5.592   7.078   0.113 -0.1890 -0.6831  0.5690
 5197SOL    HW128064   5.571   7.066   0.017  0.3069  0.4643  0.3075
 5197SOL    HW228065   5.554   7.165   0.146 -1.7314 -1.7989  1.8236
 5198SOL     OW28066   0.992   8.914   0.291 -0.1165 -0.1656 -0.5145
 5198SOL    HW128067   1.005   8.897   0.388  1.1123 -1.3215 -0.8753
 5198SOL    HW228068   0.998   9.013   0.273  0.7998 -0.0493  0.4095
 5199SOL     OW28069   7.966   7.471   3.591  0.5250 -1.2963 -0.4000
 5199SOL    HW128070   7.962   7.374   3.615 -1.8857 -1.1652 -0.1339
 5199SOL    HW228071   7.968   7.526   3.674 -1.1863 -1.0408 -0.5127
 5200SOL     OW28072   1.878   4.360   0.323  0.1303 -0.5299 -0.3376
 5200SOL    HW128073   1.804   4.302   0.357 -1.1878  1.3562  0.0823
 5200SOL    HW228074   1.898   4.430   0.391  0.1849  0.8669 -1.7895
 5201SOL     OW28075   2.943   3.657   4.357 -0.1396 -0.2629  0.0159
 5201SOL    HW128076   2.994   3.615   4.282  1.3361 -1.0293  1.4090
 5201SOL    HW228077   2.963   3.608   4.442  1.2302  2.9214  1.6289
 5202SOL     OW28078   1.399   5.333   8.543  0.3111 -0.3367  0.2990
 5202SOL    HW128079   1.414   5.430   8.564 -0.1722 -0.5343  1.6041
 5202SOL    HW228080   1.465   5.278   8.594 -0.3352 -0.7737  0.6645
 5203SOL     OW28081   7.285   6.095   8.783  0.5791 -0.2751  0.4540
 5203SOL    HW128082   7.341   6.036   8.841  1.4400 -1.1090 -1.1955
 5203SOL    HW228083   7.345   6.155   8.729 -0.0947 -1.2015 -1.3495
 5204SOL     OW28084   2.070   0.841   7.036 -0.1084 -0.1140 -0.2334
 5204SOL    HW128085   1.993   0.777   7.046 -2.0388  2.4606  2.0428
 5204SOL    HW228086   2.090   0.884   7.124  0.9027  2.6855 -1.7616
 5205SOL     OW28087   6.904   4.609   4.982 -0.0004  0.2115  0.3669
 5205SOL    HW128088   6.996   4.584   4.954 -0.4773 -0.6944 -0.4563
 5205SOL    HW228089   6.845   4.528   4.980 -0.5190  0.5283  2.1302
 5206SOL     OW28090   2.518   6.515   2.945  0.2136  0.6973 -0.2923
 5206SOL    HW128091   2.564   6.598   2.978 -0.4959  0.8939  0.2054
 5206SOL    HW228092   2.445   6.540   2.881 -0.4861  0.5088  0.4206
 5207SOL     OW28093   5.320   8.360   0.546  0.2708 -0.0057 -0.2065
 5207SOL    HW128094   5.375   8.307   0.482  0.8604  1.0452 -0.5660
 5207SOL    HW228095   5.370   8.371   0.632  0.5664  0.8456 -0.4909
 5208SOL     OW28096   6.586   5.253   1.704 -0.4300 -0.3373  0.1999
 5208SOL    HW128097   6.583   5.351   1.723  0.1563 -0.5190  1.2710
 5208SOL    HW228098   6.507   5.228   1.647  1.4133  1.4000 -3.2965
 5209SOL     OW28099   0.084   5.000   7.003 -0.1752  0.0106 -0.4527
 5209SOL    HW128100   0.075   4.903   6.978 -0.7994  0.5403 -2.3862
 5209SOL    HW228101   0.009   5.052   6.962 -1.0463  1.0122  2.3448
 5210SOL     OW28102   4.640   1.854   8.662  0.0742  0.3270 -0.1959
 5210SOL    HW128103   4.564   1.839   8.725 -0.6525  0.3868 -1.0500
 5210SOL    HW228104   4.662   1.951   8.658  2.5437 -0.0221  2.7409
 5211SOL     OW28105   6.576   5.761   8.012  0.0741  0.5528 -0.2415
 5211SOL    HW128106   6.602   5.759   8.108 -1.1266  1.2940  0.1081
 5211SOL    HW228107   6.476   5.765   8.005  0.0715 -1.3001 -1.5370
 5212SOL     OW28108   6.146   6.359   4.186 -0.3322 -0.2650 -0.5571
 5212SOL    HW128109   6.194   6.388   4.104 -0.4040 -1.7568 -1.1402
 5212SOL    HW228110   6.057   6.403   4.190  0.0595  0.5586 -0.7732
 5213SOL     OW28111   1.707   6.617   3.798 -0.8994 -0.2067 -0.0570
 5213SOL    HW128112   1.722   6.716   3.791  1.4457 -0.4259  1.4706
 5213SOL    HW228113   1.657   6.586   3.717 -1.1508  2.1267 -0.8425
 5214SOL     OW28114   3.813   4.911   7.078  0.8908 -0.1184 -0.0326
 5214SOL    HW128115   3.838   4.909   7.175 -2.5717 -1.9914  0.9082
 5214SOL    HW228116   3.715   4.931   7.069  0.7884 -1.6588 -3.0446
 5215SOL     OW28117   2.980   7.905   2.883  0.5811 -0.1280 -0.0213
 5215SOL    HW128118   3.037   7.973   2.838  1.6564 -0.5532  0.6758
 5215SOL    HW228119   2.923   7.859   2.815 -0.0053  1.3240 -0.5193
 5216SOL     OW28120   4.240   1.828   5.072 -0.2323 -0.5857 -0.1677
 5216SOL    HW128121   4.311   1.775   5.118 -0.8116 -1.4901 -0.3099
 5216SOL    HW228122   4.280   1.913   5.037  0.5938 -0.7012  0.4710
 5217SOL     OW28123   2.740   3.389   3.520 -0.2500 -0.2208  0.2835
 5217SOL    HW128124   2.808   3.442   3.469  1.1286 -0.6726  1.5988
 5217SOL    HW228125   2.683   3.337   3.456  0.1153  0.7661 -0.8772
 5218SOL     OW28126   8.493   4.839   8.589 -0.7370 -0.3156  0.0846
 5218SOL    HW128127   8.395   4.822   8.600 -0.6831 -0.7034 -0.0060
 5218SOL    HW228128   8.510   4.885   8.502 -0.6816 -1.6891 -0.6407
 5219SOL     OW28129   4.640   3.370   0.222 -0.5409 -0.1103 -0.3327
 5219SOL    HW128130   4.580   3.317   0.163  0.7745 -1.2355 -0.6798
 5219SOL    HW228131   4.606   3.464   0.229 -0.4293  0.1785 -3.3053
 5220SOL     OW28132   8.670   4.602   0.401  0.2557 -0.3117  0.0721
 5220SOL    HW128133   8.738   4.535   0.370 -1.7703 -1.4884 -1.9660
 5220SOL    HW228134   8.661   4.675   0.335 -0.4409 -0.1596  0.3221
 5221SOL     OW28135   7.878   4.091   6.256  0.3960  0.3479 -0.4133
 5221SOL    HW128136   7.791   4.127   6.290 -0.3906 -2.7004  1.0252
 5221SOL    HW228137   7.916   4.027   6.323  0.9311 -2.6280 -3.4402
 5222SOL     OW28138   1.016   1.987   6.005 -0.1869 -0.3034 -0.0675
 5222SOL    HW128139   1.012   1.971   6.104 -0.7007  1.4799  0.2054
 5222SOL    HW228140   0.933   2.033   5.975  0.9990  1.3016 -0.9498
 5223SOL     OW28141   6.968   2.459   6.654 -0.2146 -0.3260 -0.0315
 5223SOL    HW128142   6.945   2.487   6.747 -0.5182 -1.2069  0.1629
 5223SOL    HW228143   7.057   2.497   6.629 -0.9665  1.4747 -0.0768
 5224SOL     OW28144   6.725   8.024   7.322 -0.6436 -0.1771 -0.2809
 5224SOL    HW128145   6.814   8.069   7.330 -0.5172 -0.2713 -1.0851
 5224SOL    HW228146   6.659   8.070   7.380  0.2114 -0.8298  1.2322
 5225SOL     OW28147   3.830   3.697   0.776  0.4989 -0.0647 -0.6546
 5225SOL    HW128148   3.874   3.780   0.812 -1.7962  0.9089  0.0408
 5225SOL    HW228149   3.754   3.672   0.836  0.9293 -2.4965 -1.0747
 5226SOL     OW28150   5.386   3.470   2.652  0.2671  0.1212 -0.7247
 5226SOL    HW128151   5.482   3.455   2.628  0.3290  0.6426 -0.8079
 5226SOL    HW228152   5.351   3.548   2.600  0.7248  1.9913  1.7084
 5227SOL     OW28153   5.696   3.939   8.694  0.9213 -0.3037  0.2864
 5227SOL    HW128154   5.730   4.019   8.744  0.4432 -0.6123  1.1015
 5227SOL    HW228155   5.599   3.927   8.712  0.7486 -0.4462 -0.6883
 5228SOL     OW28156   4.895   1.100   0.408 -0.2057  0.4467 -0.0063
 5228SOL    HW128157   4.810   1.056   0.436 -0.3795  0.6523 -0.2032
 5228SOL    HW228158   4.875   1.188   0.366  0.2679  1.6667  2.2437
 5229SOL     OW28159   6.019   5.437   6.194 -0.0030  0.5200 -0.0560
 5229SOL    HW128160   6.002   5.339   6.198 -0.2541  0.5889  0.6634
 5229SOL    HW228161   6.062   5.460   6.107 -1.4875  0.0188 -0.9365
 5230SOL     OW28162   2.335   6.634   1.250 -0.0989  0.6561  0.0934
 5230SOL    HW128163   2.289   6.615   1.163  1.3805 -0.7986 -0.4083
 5230SOL    HW228164   2.396   6.713   1.240  0.0530  0.5034 -0.1902
 5231SOL     OW28165   0.392   5.952   1.110 -0.3349  0.1931  0.0381
 5231SOL    HW128166   0.317   6.014   1.087 -0.5505  0.3844  1.2231
 5231SOL    HW228167   0.463   5.959   1.040 -0.5797  1.4033 -0.1089
 5232SOL     OW28168   2.616   0.298   2.672  0.0592  0.7186 -0.2243
 5232SOL    HW128169   2.528   0.302   2.625  0.5878  0.6024 -1.2539
 5232SOL    HW228170   2.611   0.350   2.757 -0.4181  2.4326 -1.2662
 5233SOL     OW28171   1.486   2.208   0.760 -0.4255  0.1240 -0.3676
 5233SOL    HW128172   1.402   2.172   0.802 -0.0003 -1.4621 -0.8454
 5233SOL    HW228173   1.560   2.206   0.827 -0.4431  0.2585 -0.3447
 5234SOL     OW28174   5.330   1.878   2.920  0.1517 -0.1353  0.4661
 5234SOL    HW128175   5.316   1.795   2.867  1.6025 -1.7738  2.5995
 5234SOL    HW228176   5.254   1.942   2.903 -2.1773 -2.7957  0.5386
 5235SOL     OW28177   1.694   6.560   4.935 -0.6563 -1.0466 -0.3996
 5235SOL    HW128178   1.686   6.652   4.973  1.6480 -1.1843  0.5335
 5235SOL    HW228179   1.653   6.494   4.999 -3.0432 -0.6012 -1.4569
 5236SOL     OW28180   4.295   6.354   6.915 -0.1533  0.2052 -0.3310
 5236SOL    HW128181   4.353   6.419   6.965  0.1579 -1.1937  1.1820
 5236SOL    HW228182   4.344   6.320   6.835  0.0691  1.0742 -0.5675
 5237SOL     OW28183   8.153   5.271   7.545 -0.1865  0.4499 -1.0437
 5237SOL    HW128184   8.160   5.209   7.623 -0.1358  1.1647 -0.4813
 5237SOL    HW228185   8.094   5.230   7.475 -0.2801 -0.1594 -0.6084
 5238SOL     OW28186   4.927   7.188   6.340  0.3316 -0.2347 -0.2885
 5238SOL    HW128187   4.849   7.252   6.347  1.5519  1.3216 -0.6364
 5238SOL    HW228188   4.911   7.110   6.400 -1.1768  0.4183  0.1871
 5239SOL     OW28189   0.424   6.982   2.458 -0.2730  0.3019 -0.3758
 5239SOL    HW128190   0.510   6.973   2.508 -0.2943 -1.7577 -0.6705
 5239SOL    HW228191   0.348   6.989   2.522 -0.0583  0.3297 -0.1242
 5240SOL     OW28192   6.656   8.662   7.533 -0.5899  0.5312  0.1538
 5240SOL    HW128193   6.677   8.728   7.461 -2.0835  2.2582  1.2561
 5240SOL    HW228194   6.558   8.664   7.553 -0.4799 -1.2405  0.9899
 5241SOL     OW28195   3.103   5.648   1.935 -0.1780 -0.4964  0.3334
 5241SOL    HW128196   3.171   5.576   1.922  1.2577  1.0537 -0.9562
 5241SOL    HW228197   3.037   5.645   1.860  0.8493  0.5760 -0.6165
 5242SOL     OW28198   8.328   2.414   3.323  0.1620  0.0756  0.1170
 5242SOL    HW128199   8.397   2.485   3.338  0.0770  0.2716 -0.3776
 5242SOL    HW228200   8.355   2.357   3.245 -1.2169  1.4171 -1.3824
 5243SOL     OW28201   8.306   6.847   2.603  0.4507  0.5676  0.0878
 5243SOL    HW128202   8.337   6.942   2.612 -0.3631  0.7868  0.6362
 5243SOL    HW228203   8.218   6.845   2.557 -0.4400  0.2270  1.7709
 5244SOL     OW28204   1.272   5.684   6.206 -0.4961 -0.3833  0.2176
 5244SOL    HW128205   1.259   5.700   6.304 -0.2539 -0.7725  0.3160
 5244SOL    HW228206   1.355   5.730   6.175 -2.1446  2.2133 -0.4398
 5245SOL     OW28207   8.178   7.974   0.890 -0.0538  0.4956 -0.0547
 5245SOL    HW128208   8.232   8.055   0.916  1.4190 -0.9695  1.6596
 5245SOL    HW228209   8.114   7.952   0.964  0.9405 -1.0342  0.3689
 5246SOL     OW28210   1.658   0.312   1.711  0.2072  0.1067 -0.7720
 5246SOL    HW128211   1.622   0.338   1.800  2.4774  1.4796 -0.2303
 5246SOL    HW228212   1.617   0.370   1.640 -0.0191  0.4302 -0.3774
 5247SOL     OW28213   7.032   0.594   8.112  0.2300 -0.1934  0.3803
 5247SOL    HW128214   7.047   0.684   8.070  1.0999  0.1461  1.4038
 5247SOL    HW228215   6.982   0.536   8.048 -1.2957  1.3724  0.1232
 5248SOL     OW28216   8.858   5.983   6.323  0.0234 -0.6330  0.3248
 5248SOL    HW128217   8.911   5.935   6.393  1.2287  0.3368  0.1094
 5248SOL    HW228218   8.908   5.980   6.236 -0.6075 -0.2989 -0.0532
 5249SOL     OW28219   7.251   5.774   7.246  0.1977 -0.0683 -0.6648
 5249SOL    HW128220   7.230   5.868   7.272  2.1804 -0.1540  1.3309
 5249SOL    HW228221   7.240   5.764   7.147 -0.6688  2.0818 -0.8126
 5250SOL     OW28222   4.133   2.918   6.888  0.0981  0.4885  0.4337
 5250SOL    HW128223   4.066   2.870   6.944 -0.9212  1.2153 -0.1524
 5250SOL    HW228224   4.163   3.001   6.936 -0.2811  0.7645  0.1945
 5251SOL     OW28225   4.602   6.353   4.350  0.6395  0.1281  0.1258
 5251SOL    HW128226   4.528   6.348   4.417 -0.1824 -0.5683 -0.8180
 5251SOL    HW228227   4.644   6.263   4.340  1.1047  0.3487  0.0963
 5252SOL     OW28228   7.488   3.253   4.609 -0.0751 -0.2630 -0.2783
 5252SOL    HW128229   7.569   3.306   4.637 -0.9145  0.8893 -0.0146
 5252SOL    HW228230   7.479   3.173   4.668 -0.5659  0.9685  1.3458
 5253SOL     OW28231   2.026   3.803   1.574 -0.1404 -0.3688  0.5119
 5253SOL    HW128232   1.995   3.719   1.619 -1.4387 -0.0303  0.2792
 5253SOL    HW228233   2.033   3.876   1.641  1.4175 -0.7497  0.7968
 5254SOL     OW28234   1.235   1.621   5.336 -0.1833  0.4407 -0.0939
 5254SOL    HW128235   1.291   1.558   5.391 -0.4772  0.8342  0.6698
 5254SOL    HW228236   1.158   1.571   5.297 -0.9093  0.4988  1.2329
 5255SOL     OW28237   3.297   8.746   5.446 -0.2531 -0.1283  0.5058
 5255SOL    HW128238   3.269   8.837   5.478 -3.5113 -0.7301 -0.4075
 5255SOL    HW228239   3.302   8.684   5.525 -2.3878 -0.1778  0.6370
 5256SOL     OW28240   3.790   5.557   0.992  0.2814  0.3184 -0.2985
 5256SOL    HW128241   3.714   5.528   1.050 -0.0075  1.8697  0.1087
 5256SOL    HW228242   3.761   5.558   0.896  0.1736 -0.3228 -0.2745
 5257SOL     OW28243   2.076   2.247   1.732  0.3579  0.3053 -0.4574
 5257SOL    HW128244   2.099   2.344   1.732 -0.5240  0.5406  1.2976
 5257SOL    HW228245   2.156   2.193   1.758 -0.0579  0.8610  2.1759
 5258SOL     OW28246   4.014   3.605   2.885  0.1340 -0.0116 -0.3875
 5258SOL    HW128247   4.107   3.641   2.876  0.6850 -1.5788 -1.1199
 5258SOL    HW228248   4.018   3.508   2.906 -1.3504 -0.2773 -1.2589
 5259SOL     OW28249   7.922   7.689   5.897 -0.0617  0.0690  0.1187
 5259SOL    HW128250   7.985   7.639   5.838 -0.7722  0.5414 -1.0757
 5259SOL    HW228251   7.847   7.628   5.925 -0.8096  0.3808 -1.1547
 5260SOL     OW28252   8.234   7.559   8.806  0.5412  0.3241 -0.0573
 5260SOL    HW128253   8.162   7.568   8.875  0.4091 -2.6288  0.2487
 5260SOL    HW228254   8.264   7.463   8.801  1.7877  0.8150 -2.8697
 5261SOL     OW28255   0.373   2.992   6.787  0.2516 -0.2757 -0.5604
 5261SOL    HW128256   0.330   2.961   6.703 -0.1936 -0.7687 -0.1520
 5261SOL    HW228257   0.471   3.009   6.771 -0.0007  0.4084 -1.3711
 5262SOL     OW28258   1.956   3.105   6.637  0.0491  0.1557 -0.2542
 5262SOL    HW128259   1.972   3.195   6.596 -0.4345  0.1753 -0.4120
 5262SOL    HW228260   2.040   3.072   6.680  0.3622  0.4633 -0.6254
 5263SOL     OW28261   6.659   1.693   7.378  0.2273  0.1388  0.1723
 5263SOL    HW128262   6.702   1.784   7.385  2.5349 -1.0087  1.6336
 5263SOL    HW228263   6.649   1.669   7.281 -0.6679  2.0427 -0.2431
 5264SOL     OW28264   1.251   5.145   1.490  0.4220 -0.0064  0.2245
 5264SOL    HW128265   1.254   5.244   1.480 -0.2115  0.1438  1.4456
 5264SOL    HW228266   1.297   5.102   1.412  2.0087  1.2802  0.4238
 5265SOL     OW28267   1.009   6.443   0.161  0.3092  0.1924 -0.5770
 5265SOL    HW128268   1.048   6.352   0.145 -2.7365 -1.2206 -0.3941
 5265SOL    HW228269   1.001   6.459   0.259  1.5906  1.0035 -0.6018
 5266SOL     OW28270   4.591   6.850   3.367 -0.5135 -0.1975 -0.1535
 5266SOL    HW128271   4.558   6.857   3.273  0.3906 -1.7430 -0.6139
 5266SOL    HW228272   4.666   6.784   3.371  0.7820  1.3102  1.3180
 5267SOL     OW28273   1.543   2.390   3.534  0.8705  0.2128  0.5538
 5267SOL    HW128274   1.627   2.338   3.546  0.2980 -0.9222 -0.2408
 5267SOL    HW228275   1.486   2.380   3.616 -0.1767 -2.1976 -0.4155
 5268SOL     OW28276   3.341   7.691   6.435  0.1190 -0.4665 -0.0675
 5268SOL    HW128277   3.245   7.711   6.453  0.2907  0.1902  0.1033
 5268SOL    HW228278   3.361   7.705   6.338  0.1399 -0.2052 -0.0256
 5269SOL     OW28279   4.862   7.603   6.539  0.1048  0.5531  0.3263
 5269SOL    HW128280   4.913   7.689   6.545  2.0997 -0.5890 -0.1018
 5269SOL    HW228281   4.854   7.576   6.443  1.8199 -1.1132  0.6334
 5270SOL     OW28282   5.536   4.388   6.422  0.3482  0.2732  0.1802
 5270SOL    HW128283   5.510   4.312   6.363 -0.1451 -0.1083  0.8752
 5270SOL    HW228284   5.596   4.451   6.372  2.6906 -1.7924  0.3353
 5271SOL     OW28285   6.626   8.184   5.241 -0.0910 -0.5071 -0.2364
 5271SOL    HW128286   6.588   8.219   5.156  0.0248  0.0238 -0.0745
 5271SOL    HW228287   6.642   8.086   5.233 -2.1121 -0.8627 -0.0694
 5272SOL     OW28288   4.167   8.061   0.736 -0.1433 -0.0161  0.2764
 5272SOL    HW128289   4.198   7.985   0.680  0.0540  0.4214 -0.2129
 5272SOL    HW228290   4.068   8.055   0.748 -0.0187 -0.8035  0.9295
 5273SOL     OW28291   2.716   1.527   4.065  0.1581  0.4394 -0.7123
 5273SOL    HW128292   2.756   1.583   3.993  0.0409  0.1560 -0.9981
 5273SOL    HW228293   2.714   1.431   4.035 -1.7476  0.6036 -1.1393
 5274SOL     OW28294   4.127   8.992   8.802 -0.4662  0.2291  0.6254
 5274SOL    HW128295   4.207   9.038   8.838 -0.8806  2.1801 -0.8393
 5274SOL    HW228296   4.156   8.917   8.742  0.2803  0.7411  0.3317
 5275SOL     OW28297   5.759   6.322   6.396 -0.2916 -0.1027  0.2013
 5275SOL    HW128298   5.805   6.233   6.402  0.1771 -0.0353 -2.0874
 5275SOL    HW228299   5.801   6.385   6.462 -1.5190 -1.9062  2.8214
 5276SOL     OW28300   5.060   6.913   3.566  0.2690 -0.3604 -0.8055
 5276SOL    HW128301   5.043   7.010   3.583  0.4235 -0.3591 -0.6527
 5276SOL    HW228302   5.022   6.859   3.641  1.1611 -0.3413 -0.3316
 5277SOL     OW28303   3.540   8.636   5.084  0.0703 -0.2156  0.0961
 5277SOL    HW128304   3.456   8.590   5.056  0.9263 -1.2861 -0.7431
 5277SOL    HW228305   3.616   8.604   5.028  0.8499  1.5569  0.1029
 5278SOL     OW28306   2.963   4.744   8.227  0.3340  0.2701  0.3531
 5278SOL    HW128307   2.950   4.716   8.132  0.1560  0.5289  0.2990
 5278SOL    HW228308   3.031   4.686   8.270  1.5170  1.0941 -0.3678
 5279SOL     OW28309   8.904   8.389   4.834  0.2756 -0.7169  0.1149
 5279SOL    HW128310   8.915   8.379   4.735  1.1943  0.2991  0.0967
 5279SOL    HW228311   8.822   8.442   4.853  1.6475  1.6451 -0.2584
 5280SOL     OW28312   6.252   7.045   0.608 -0.3586  0.5145 -0.1147
 5280SOL    HW128313   6.324   7.011   0.547 -0.7992 -0.2610 -0.2042
 5280SOL    HW228314   6.194   6.969   0.637 -0.7176  1.0263  0.5270
 5281SOL     OW28315   1.325   6.370   7.797 -0.2441  0.1578  0.7152
 5281SOL    HW128316   1.258   6.357   7.871  0.5427 -0.6417  1.2931
 5281SOL    HW228317   1.307   6.304   7.724 -1.1029  1.0339  0.1263
 5282SOL     OW28318   7.122   8.069   7.774  0.3466 -0.2688 -0.2236
 5282SOL    HW128319   7.187   8.026   7.837  0.4695  0.5698  0.2205
 5282SOL    HW228320   7.072   7.998   7.724 -0.1903 -0.9527  1.2653
 5283SOL     OW28321   6.108   1.267   8.754 -0.0395 -0.4310  0.0025
 5283SOL    HW128322   6.155   1.219   8.680  0.3005 -0.0785 -0.0148
 5283SOL    HW228323   6.012   1.243   8.755 -0.3562  0.7060 -1.4839
 5284SOL     OW28324   5.314   5.914   2.854  0.2966  0.2165 -0.2493
 5284SOL    HW128325   5.267   5.864   2.781  0.8015 -1.1151  0.3240
 5284SOL    HW228326   5.411   5.920   2.833  0.4119  0.0025  0.2239
 5285SOL     OW28327   0.628   7.810   2.827  0.1405 -0.2285 -0.7915
 5285SOL    HW128328   0.559   7.882   2.839  2.9001  2.7955 -2.2026
 5285SOL    HW228329   0.669   7.788   2.916 -1.2392 -0.5935 -0.2385
 5286SOL     OW28330   5.084   6.115   8.812 -0.0632  0.1953  0.3865
 5286SOL    HW128331   5.018   6.183   8.844 -0.0437 -0.2063  1.3022
 5286SOL    HW228332   5.042   6.059   8.742 -0.2560  0.8048  0.0101
 5287SOL     OW28333   6.296   5.296   8.764 -0.6176  0.2167 -0.6956
 5287SOL    HW128334   6.240   5.224   8.724  0.3100 -1.7777  1.4969
 5287SOL    HW228335   6.385   5.300   8.718  0.0960 -1.4460  0.4892
 5288SOL     OW28336   1.554   1.568   5.965  0.9184 -0.4789  0.1853
 5288SOL    HW128337   1.566   1.506   5.887  1.9573 -1.4150  1.0845
 5288SOL    HW228338   1.500   1.647   5.936  0.8289 -1.0856 -1.3490
 5289SOL     OW28339   4.158   4.536   5.311 -0.0836  0.2551  0.4694
 5289SOL    HW128340   4.084   4.475   5.340  0.3680 -0.4855  0.0739
 5289SOL    HW228341   4.244   4.507   5.354  0.2312  0.2917 -0.1299
 5290SOL     OW28342   0.090   6.994   8.604  0.1465  0.5108 -0.2966
 5290SOL    HW128343   0.172   7.025   8.652 -0.2183 -0.8869  1.2937
 5290SOL    HW228344   0.052   7.069   8.551  1.5510  1.6143  0.2135
 5291SOL     OW28345   5.519   0.486   2.356  0.3086  0.0939 -0.2532
 5291SOL    HW128346   5.533   0.394   2.391 -0.3343 -0.3045 -1.0221
 5291SOL    HW228347   5.607   0.526   2.330  0.6399 -0.1121  0.5410
 5292SOL     OW28348   3.835   7.439   3.818  0.0318 -0.3369  0.0361
 5292SOL    HW128349   3.905   7.367   3.821  2.2331  1.4671 -4.0076
 5292SOL    HW228350   3.870   7.521   3.863 -0.1950  0.0257 -0.4539
 5293SOL     OW28351   2.253   5.072   1.336 -0.3504 -0.0262  0.6267
 5293SOL    HW128352   2.322   5.024   1.390  0.9868  0.3764 -0.6822
 5293SOL    HW228353   2.162   5.051   1.371  0.3710 -1.4616  1.6666
 5294SOL     OW28354   0.951   3.468   4.135 -0.0258  0.8342 -0.2057
 5294SOL    HW128355   0.927   3.505   4.045  1.2351  2.2093 -0.0094
 5294SOL    HW228356   0.990   3.541   4.191  0.1544 -0.2513  1.1032
 5295SOL     OW28357   7.374   5.020   2.440  0.0597  0.1588  0.2576
 5295SOL    HW128358   7.412   5.105   2.478  1.0572 -0.5262  0.8116
 5295SOL    HW228359   7.449   4.964   2.403 -0.4937 -0.9056  0.7406
 5296SOL     OW28360   2.064   4.453   2.026  0.0926  0.3115  0.0444
 5296SOL    HW128361   2.133   4.504   1.975 -0.6958  0.2958 -1.0381
 5296SOL    HW228362   2.039   4.370   1.976 -0.4073  0.0959  0.6389
 5297SOL     OW28363   3.224   5.075   7.423  0.7611  0.1186  0.5697
 5297SOL    HW128364   3.237   4.977   7.409  0.0902  0.1775 -0.4966
 5297SOL    HW228365   3.302   5.112   7.474  0.6036 -1.1234  1.7537
 5298SOL     OW28366   1.222   3.768   6.490 -0.0495  0.0767  0.0093
 5298SOL    HW128367   1.269   3.728   6.411  1.0457 -0.1793  0.7948
 5298SOL    HW228368   1.252   3.862   6.503 -0.8666  0.3995 -0.3869
 5299SOL     OW28369   6.849   6.531   1.896  0.2489  0.2627 -0.2561
 5299SOL    HW128370   6.839   6.514   1.994  0.2681 -2.3103 -0.6695
 5299SOL    HW228371   6.918   6.470   1.858  1.0166  1.9768 -1.7021
 5300SOL     OW28372   8.688   7.527   2.976 -0.7633  0.1446 -0.2002
 5300SOL    HW128373   8.776   7.532   3.023 -2.0370 -0.2037  2.2744
 5300SOL    HW228374   8.700   7.480   2.888  1.5671  0.4335 -0.0659
 5301SOL     OW28375   2.189   4.981   2.619  0.7359  0.4496 -0.1510
 5301SOL    HW128376   2.250   4.903   2.634  0.7905  0.2246 -1.4153
 5301SOL    HW228377   2.185   5.000   2.521  0.0017  1.4600  0.0739
 5302SOL     OW28378   8.048   6.208   8.062  0.1295  0.2285 -0.5268
 5302SOL    HW128379   8.001   6.175   7.981  2.0712  0.3751 -1.7491
 5302SOL    HW228380   8.106   6.286   8.038  3.2395 -1.7249  0.2650
 5303SOL     OW28381   2.341   0.794   5.707  0.0729  0.2518  0.3171
 5303SOL    HW128382   2.348   0.885   5.747  1.1445  0.0925  0.5302
 5303SOL    HW228383   2.348   0.800   5.607 -1.5667  0.5548  0.2176
 5304SOL     OW28384   1.066   2.801   3.858  0.1207  0.0469 -0.1679
 5304SOL    HW128385   1.131   2.843   3.795  1.4573 -0.4553  0.8353
 5304SOL    HW228386   0.975   2.840   3.844  0.0537 -1.1778 -3.4456
 5305SOL     OW28387   6.510   6.778   1.847 -0.3040 -0.2328 -0.8293
 5305SOL    HW128388   6.416   6.745   1.847 -0.1997 -0.5327  0.4954
 5305SOL    HW228389   6.572   6.700   1.842 -0.0999 -0.0774 -0.7041
 5306SOL     OW28390   7.822   3.409   1.295 -0.5754  0.2816  0.2505
 5306SOL    HW128391   7.838   3.446   1.203 -0.0386 -0.6238 -0.0228
 5306SOL    HW228392   7.827   3.309   1.292 -0.7167  0.2455  1.2333
 5307SOL     OW28393   8.312   4.786   7.167  0.7202 -0.4596 -0.4609
 5307SOL    HW128394   8.316   4.769   7.265  1.6535 -0.2024 -0.4553
 5307SOL    HW228395   8.228   4.746   7.130 -1.3187  2.2720  1.0161
 5308SOL     OW28396   7.522   6.450   1.127 -0.2337 -0.3293 -0.2226
 5308SOL    HW128397   7.569   6.363   1.114  0.7513  0.4568 -2.2237
 5308SOL    HW228398   7.428   6.442   1.095 -0.4716 -0.9609  0.6257
 5309SOL     OW28399   3.185   7.720   8.107 -0.5998 -0.0025  0.4398
 5309SOL    HW128400   3.145   7.774   8.033  2.3271  0.3268 -0.9790
 5309SOL    HW228401   3.239   7.779   8.167  2.3403 -1.1879 -0.9225
 5310SOL     OW28402   1.052   4.476   6.851 -0.5209 -0.8047 -0.1486
 5310SOL    HW128403   1.020   4.559   6.896 -0.2896 -0.4337 -0.6681
 5310SOL    HW228404   0.978   4.439   6.794 -0.1407 -0.1017 -1.1267
 5311SOL     OW28405   4.469   3.858   7.652 -0.2149 -0.1244  0.1862
 5311SOL    HW128406   4.545   3.821   7.598 -0.5283 -1.3623  0.5876
 5311SOL    HW228407   4.390   3.873   7.593  0.3115  1.1076 -0.2200
 5312SOL     OW28408   2.034   2.484   2.765 -0.0210  0.0285 -0.7164
 5312SOL    HW128409   1.943   2.504   2.727  0.4425 -0.5333 -2.1498
 5312SOL    HW228410   2.025   2.417   2.839 -0.8517  0.5656 -0.3188
 5313SOL     OW28411   1.184   0.485   8.023  0.4690  0.0110  0.5332
 5313SOL    HW128412   1.104   0.473   8.083  1.0164  0.8371  1.4379
 5313SOL    HW228413   1.183   0.577   7.985  0.3655 -0.3657 -0.3947
 5314SOL     OW28414   4.775   4.145   5.658  0.0378  0.2544  0.6138
 5314SOL    HW128415   4.757   4.241   5.634 -0.2699 -0.3766 -1.7677
 5314SOL    HW228416   4.744   4.128   5.752  0.4350  2.5684  1.1956
 5315SOL     OW28417   6.455   1.744   2.025  0.3789 -0.4655 -0.0548
 5315SOL    HW128418   6.550   1.758   1.999  1.0423  0.0829  2.4753
 5315SOL    HW228419   6.404   1.829   2.015  0.8188 -0.0530  1.1444
 5316SOL     OW28420   7.893   1.176   2.388 -0.5364  0.8256 -0.0690
 5316SOL    HW128421   7.953   1.246   2.349  3.6300 -2.2109  0.5779
 5316SOL    HW228422   7.884   1.100   2.324  0.4845 -1.0034  1.9071
 5317SOL     OW28423   0.245   2.518   4.197  0.5434 -0.9471  0.0878
 5317SOL    HW128424   0.164   2.528   4.139  1.0633 -1.9792 -0.8332
 5317SOL    HW228425   0.250   2.424   4.231  2.7590 -1.6303 -1.9940
 5318SOL     OW28426   1.991   1.646   1.668 -0.6627 -0.4296  1.0089
 5318SOL    HW128427   1.956   1.730   1.627 -0.4771  0.1969  2.1050
 5318SOL    HW228428   2.091   1.645   1.661 -0.7152 -0.8813  0.3795
 5319SOL     OW28429   4.255   3.404   8.641  0.4524 -0.1815 -0.2862
 5319SOL    HW128430   4.189   3.458   8.589  0.7130 -0.9516 -1.4194
 5319SOL    HW228431   4.332   3.462   8.668 -0.0285  0.3875 -0.1205
 5320SOL     OW28432   8.254   3.779   5.621 -0.1593 -0.2769 -0.7714
 5320SOL    HW128433   8.229   3.874   5.644  0.1333 -0.0804 -1.2518
 5320SOL    HW228434   8.173   3.722   5.620 -0.1452 -0.3748  1.1376
 5321SOL     OW28435   7.985   7.084   4.755  1.1030  0.1409  0.0488
 5321SOL    HW128436   7.933   7.033   4.686  0.3293 -0.2157  0.8802
 5321SOL    HW228437   7.995   7.179   4.725 -1.6687  0.6797  0.7211
 5322SOL     OW28438   1.440   1.129   1.465  0.5879 -0.7821 -0.0914
 5322SOL    HW128439   1.526   1.102   1.421  1.3591 -0.6513  1.3272
 5322SOL    HW228440   1.451   1.220   1.506 -0.3898 -0.5491 -0.3379
 5323SOL     OW28441   1.859   1.557   1.357 -0.0537  0.0732  0.5688
 5323SOL    HW128442   1.858   1.632   1.290  1.0723 -2.1844 -2.0840
 5323SOL    HW228443   1.948   1.554   1.402  0.1383 -0.0885  0.1806
 5324SOL     OW28444   5.800   0.154   8.086  0.0834  0.3570  0.0192
 5324SOL    HW128445   5.742   0.075   8.105  0.9263 -0.4322 -0.6210
 5324SOL    HW228446   5.746   0.225   8.040 -0.4729 -0.1938 -0.1843
 5325SOL     OW28447   1.220   6.776   8.267  0.3116  0.6006  0.1836
 5325SOL    HW128448   1.130   6.796   8.228  0.9129 -1.2628 -2.2821
 5325SOL    HW228449   1.208   6.730   8.355 -1.3392 -3.5176 -2.0255
 5326SOL     OW28450   5.021   5.310   6.800 -0.1815 -0.2294  0.3267
 5326SOL    HW128451   5.040   5.251   6.879  0.0609  0.7025  0.9713
 5326SOL    HW228452   5.001   5.403   6.832  1.5660  0.5681 -0.7966
 5327SOL     OW28453   4.414   3.584   3.610 -0.8395 -0.4075 -0.0610
 5327SOL    HW128454   4.357   3.660   3.580  2.9819  2.0134 -1.5151
 5327SOL    HW228455   4.406   3.508   3.545 -1.2904  0.4477 -1.0059
 5328SOL     OW28456   7.545   5.409   2.135 -0.2350  0.2761  0.2075
 5328SOL    HW128457   7.451   5.401   2.104  0.3159 -0.2451 -1.3609
 5328SOL    HW228458   7.550   5.476   2.209 -2.1968 -1.3971  1.9065
 5329SOL     OW28459   3.610   2.404   5.359  0.6970 -0.0561  0.1786
 5329SOL    HW128460   3.707   2.418   5.380  1.1363 -2.8443  0.1444
 5329SOL    HW228461   3.576   2.324   5.408 -1.4102  0.4543 -0.3842
 5330SOL     OW28462   3.601   0.391   3.556  0.6226 -0.2561 -0.1690
 5330SOL    HW128463   3.512   0.436   3.564  1.4054  2.0107 -3.3204
 5330SOL    HW228464   3.589   0.299   3.517 -0.3471 -0.0666 -0.3164
 5331SOL     OW28465   6.199   2.536   1.310 -0.2852  0.8675  0.2952
 5331SOL    HW128466   6.281   2.485   1.335 -0.1977  0.8015 -0.1183
 5331SOL    HW228467   6.162   2.583   1.391 -1.2126 -1.0457  1.0153
 5332SOL     OW28468   2.975   4.258   6.496  0.2336  0.2220  0.3839
 5332SOL    HW128469   3.000   4.332   6.434  0.5534 -0.3697 -0.2069
 5332SOL    HW228470   2.952   4.295   6.586  2.9778  0.8040  0.8768
 5333SOL     OW28471   6.347   4.433   1.407  0.2130 -0.1410  0.4108
 5333SOL    HW128472   6.397   4.353   1.373 -0.4131  0.1651 -1.2697
 5333SOL    HW228473   6.327   4.421   1.504  2.3425 -0.8894  0.7927
 5334SOL     OW28474   7.842   4.760   5.629 -0.1544  0.2563  0.3823
 5334SOL    HW128475   7.887   4.848   5.616  0.6065 -0.4245 -1.6631
 5334SOL    HW228476   7.791   4.762   5.716  0.2518  2.5176  0.6097
 5335SOL     OW28477   1.484   5.409   5.411 -0.7576 -0.2957 -0.2776
 5335SOL    HW128478   1.391   5.445   5.413 -0.3593  0.7298  0.7711
 5335SOL    HW228479   1.520   5.408   5.504  0.4875 -0.1247 -0.7512
 5336SOL     OW28480   7.710   6.683   8.573  0.1324 -0.0353  0.5546
 5336SOL    HW128481   7.769   6.761   8.594  1.7377 -1.1027  0.1495
 5336SOL    HW228482   7.689   6.682   8.475 -0.3526  0.2035  0.6563
 5337SOL     OW28483   6.140   4.666   0.805  0.1603 -0.0601  0.3329
 5337SOL    HW128484   6.192   4.750   0.787 -1.1940  0.5905 -0.6189
 5337SOL    HW228485   6.173   4.593   0.745  1.1844 -0.1643  1.0015
 5338SOL     OW28486   8.620   7.812   0.928 -0.0053 -0.0362 -0.6260
 5338SOL    HW128487   8.603   7.911   0.922 -0.2197 -0.1271 -1.7793
 5338SOL    HW228488   8.588   7.768   0.844 -0.0667 -1.1147 -0.0499
 5339SOL     OW28489   5.505   4.072   1.037  0.7296 -0.2252  0.0101
 5339SOL    HW128490   5.587   4.045   0.986  0.7852 -1.2289  0.6212
 5339SOL    HW228491   5.473   4.161   1.004  0.1247 -1.3462 -2.4914
 5340SOL     OW28492   0.578   0.221   1.391 -0.2673  0.4124 -0.2329
 5340SOL    HW128493   0.536   0.293   1.334  1.6796  2.5194  0.8967
 5340SOL    HW228494   0.654   0.180   1.341  0.8317  1.5943  0.4390
 5341SOL     OW28495   7.534   5.556   8.420  0.3160 -0.1443 -0.0172
 5341SOL    HW128496   7.511   5.569   8.323 -0.2067 -0.8890  0.0027
 5341SOL    HW228497   7.471   5.490   8.460  1.1569 -0.5727  0.5899
 5342SOL     OW28498   0.654   6.228   1.125 -0.4425  0.6219  0.0360
 5342SOL    HW128499   0.604   6.308   1.092  0.8410  0.2660 -2.9238
 5342SOL    HW228500   0.750   6.252   1.137  0.1296 -0.6603 -1.7204
 5343SOL     OW28501   4.980   6.951   4.624 -0.2873 -0.4041 -0.1172
 5343SOL    HW128502   4.962   6.957   4.526 -1.3081  1.4574  0.1588
 5343SOL    HW228503   4.998   7.043   4.660 -1.0098 -0.9378  1.6434
 5344SOL     OW28504   6.425   6.305   4.285  0.2476 -0.1424  0.0265
 5344SOL    HW128505   6.449   6.266   4.374  1.7033  1.3392  0.3109
 5344SOL    HW228506   6.327   6.321   4.281  0.3053  0.7091  1.7705
 5345SOL     OW28507   2.664   2.769   8.270 -0.3223 -0.1451  0.2429
 5345SOL    HW128508   2.708   2.858   8.257  0.0468 -0.1850  1.1615
 5345SOL    HW228509   2.711   2.700   8.214 -1.1412  0.3893 -1.1286
 5346SOL     OW28510   7.166   7.081   2.603  0.1631 -0.9396 -0.3306
 5346SOL    HW128511   7.209   7.161   2.646 -0.4218 -0.4528 -0.6445
 5346SOL    HW228512   7.068   7.083   2.620  0.4712 -2.8919  1.7148
 5347SOL     OW28513   5.422   8.234   5.885 -0.1961 -0.1858  0.2338
 5347SOL    HW128514   5.478   8.213   5.965 -1.0444 -3.4631  0.0038
 5347SOL    HW228515   5.479   8.236   5.804  0.0776 -0.4380  0.4195
 5348SOL     OW28516   8.783   4.082   8.205 -0.3329  0.9260  0.1864
 5348SOL    HW128517   8.755   3.990   8.234 -2.4078  1.9735  1.5640
 5348SOL    HW228518   8.832   4.127   8.280 -0.4635  1.4361 -0.0329
 5349SOL     OW28519   0.411   3.396   0.678 -0.0672  0.3996 -0.4631
 5349SOL    HW128520   0.457   3.315   0.644 -0.4055  0.3187 -0.7275
 5349SOL    HW228521   0.354   3.436   0.606  0.1838  0.9342 -0.3682
 5350SOL     OW28522   6.008   4.769   4.961  0.1930  0.2798  0.0165
 5350SOL    HW128523   6.051   4.854   4.930  1.9427 -0.6869 -0.2550
 5350SOL    HW228524   6.057   4.691   4.922  0.1569 -0.9029  2.2610
 5351SOL     OW28525   3.819   0.850   2.681  0.2628  0.2105  0.3039
 5351SOL    HW128526   3.819   0.752   2.662 -1.3651  0.4055 -0.7949
 5351SOL    HW228527   3.784   0.866   2.774 -3.3502 -0.0391 -0.9454
 5352SOL     OW28528   7.469   5.251   8.248 -0.3922  0.4510 -0.2746
 5352SOL    HW128529   7.539   5.249   8.177  0.4915  1.4420  0.5644
 5352SOL    HW228530   7.507   5.220   8.334 -1.4017 -0.5031 -0.1545
 5353SOL     OW28531   5.198   4.987   7.357  0.5536 -0.1052 -0.5680
 5353SOL    HW128532   5.232   5.072   7.316 -0.6686  0.5627 -0.2337
 5353SOL    HW228533   5.249   4.967   7.440  0.5744  0.5279 -0.4281
 5354SOL     OW28534   7.498   5.113   0.572  0.0811  0.4727 -0.1879
 5354SOL    HW128535   7.583   5.066   0.594 -0.2967  0.5776  1.5614
 5354SOL    HW228536   7.489   5.195   0.628 -0.8118  0.8696 -0.8977
 5355SOL     OW28537   3.120   5.892   8.156  0.5287 -0.4915 -0.4995
 5355SOL    HW128538   3.181   5.830   8.206  0.6093 -0.8191 -1.0001
 5355SOL    HW228539   3.175   5.954   8.099  0.3668 -1.1820 -1.4064
 5356SOL     OW28540   3.415   5.731   3.008 -0.3116 -0.6136 -0.7346
 5356SOL    HW128541   3.359   5.749   2.927 -1.6779  1.6401  0.6522
 5356SOL    HW228542   3.464   5.814   3.035  0.1962 -1.3411  0.6903
 5357SOL     OW28543   0.784   4.376   8.277  0.5115 -0.0327 -0.5676
 5357SOL    HW128544   0.715   4.310   8.307  1.7942 -1.3524 -0.4274
 5357SOL    HW228545   0.803   4.441   8.351  0.4982 -0.5985 -0.0606
 5358SOL     OW28546   4.050   1.082   8.868 -0.3754  0.6785  0.3825
 5358SOL    HW128547   4.062   0.983   8.871 -0.7898  0.6172  0.0488
 5358SOL    HW228548   4.068   1.115   8.776 -0.8828  0.8250  0.3317
 5359SOL     OW28549   7.434   8.754   6.593 -0.4675 -0.4090  0.4890
 5359SOL    HW128550   7.379   8.716   6.668 -0.8330  1.3134  1.1271
 5359SOL    HW228551   7.526   8.773   6.626 -1.0296  1.6749  0.9257
 5360SOL     OW28552   4.459   0.272   5.147  0.0963 -0.8896  0.3448
 5360SOL    HW128553   4.397   0.311   5.079  2.2446  1.8381 -0.1197
 5360SOL    HW228554   4.412   0.267   5.235 -1.4210 -0.7933 -0.4350
 5361SOL     OW28555   2.672   7.333   3.343 -0.2824  0.7153  0.1037
 5361SOL    HW128556   2.620   7.418   3.344 -1.5821 -0.0616  2.1257
 5361SOL    HW228557   2.611   7.257   3.366  1.0808 -0.6384 -0.6589
 5362SOL     OW28558   0.705   1.336   5.079 -0.7669 -0.2585 -0.5323
 5362SOL    HW128559   0.752   1.425   5.075  1.0550 -1.1579  0.0595
 5362SOL    HW228560   0.648   1.325   4.998  0.5254  0.6208 -1.5866
 5363SOL     OW28561   4.401   1.313   3.158 -0.1877 -0.3483 -0.0931
 5363SOL    HW128562   4.427   1.409   3.165 -0.2145 -0.4164  0.8732
 5363SOL    HW228563   4.483   1.257   3.154 -0.1729 -0.3034 -0.5666
 5364SOL     OW28564   6.290   8.050   8.268 -0.6558 -0.0359  0.0540
 5364SOL    HW128565   6.331   8.118   8.330  2.5016 -1.7461 -0.0226
 5364SOL    HW228566   6.362   7.988   8.236 -3.2051 -2.4957 -1.0592
 5365SOL     OW28567   1.668   3.792   5.630 -0.4720 -0.0269 -0.3435
 5365SOL    HW128568   1.759   3.790   5.674 -1.1313  0.7952  1.0859
 5365SOL    HW228569   1.659   3.875   5.575 -0.7023  0.3653  0.2799
 5366SOL     OW28570   8.236   3.972   7.588 -0.2945 -0.8162  0.1370
 5366SOL    HW128571   8.233   4.052   7.649 -0.2661  0.1015 -1.0398
 5366SOL    HW228572   8.221   3.889   7.642 -1.0597  0.0317  1.2849
 5367SOL     OW28573   4.295   2.519   8.551  0.0430  0.5824  0.3210
 5367SOL    HW128574   4.201   2.496   8.575 -0.6815  2.2585 -0.8418
 5367SOL    HW228575   4.345   2.545   8.634 -0.9284  1.1214  0.7337
 5368SOL     OW28576   4.123   2.345   0.228  0.2740  0.4580 -0.4358
 5368SOL    HW128577   4.202   2.328   0.287  0.5752  0.8725 -0.7149
 5368SOL    HW228578   4.091   2.439   0.240 -1.1411 -0.1713  0.8101
 5369SOL     OW28579   1.372   5.762   6.967 -0.0875 -0.3650 -0.2021
 5369SOL    HW128580   1.358   5.663   6.955  0.9468 -0.5817  0.3395
 5369SOL    HW228581   1.420   5.799   6.887 -0.2498 -0.3369 -0.2882
 5370SOL     OW28582   5.438   8.403   0.788 -0.5247  0.5372 -0.1040
 5370SOL    HW128583   5.362   8.413   0.852  0.1117  1.7882  0.4912
 5370SOL    HW228584   5.509   8.471   0.810 -0.0613  0.6341 -1.8178
 5371SOL     OW28585   8.461   7.621   3.079  0.0785 -0.1643  0.5783
 5371SOL    HW128586   8.478   7.714   3.111  1.0491  0.1591 -0.8292
 5371SOL    HW228587   8.548   7.579   3.051 -0.2576 -1.7311  1.8299
 5372SOL     OW28588   0.990   8.958   8.838  0.6214 -0.0006  0.6283
 5372SOL    HW128589   1.010   8.940   8.935 -1.3398 -1.1104  0.8459
 5372SOL    HW228590   0.998   9.056   8.820  1.3519  0.1751  1.8293
 5373SOL     OW28591   4.387   6.365   4.544  0.4402  0.2264  0.1307
 5373SOL    HW128592   4.315   6.423   4.582 -0.0692  0.1281 -0.6666
 5373SOL    HW228593   4.434   6.318   4.618 -2.1687 -1.8800  0.5226
 5374SOL     OW28594   3.788   6.529   7.102 -0.6418  0.1960 -0.1774
 5374SOL    HW128595   3.861   6.577   7.150 -0.1802 -0.1280 -0.5437
 5374SOL    HW228596   3.809   6.528   7.004 -0.6782 -0.6983 -0.1773
 5375SOL     OW28597   0.544   5.132   5.832 -0.0409  0.1332 -0.2203
 5375SOL    HW128598   0.536   5.226   5.799 -0.6355  0.1769  0.0396
 5375SOL    HW228599   0.495   5.122   5.918 -1.0964 -0.7283 -0.8949
 5376SOL     OW28600   6.741   2.865   0.026 -0.2168  0.0921  0.0229
 5376SOL    HW128601   6.777   2.817  -0.054  0.5213  1.3787 -0.4470
 5376SOL    HW228602   6.674   2.808   0.073 -0.8583 -0.5810 -1.6714
 5377SOL     OW28603   4.890   0.284   7.097 -0.6554 -0.3869  0.4421
 5377SOL    HW128604   4.858   0.349   7.029 -1.9101 -0.7541  0.6656
 5377SOL    HW228605   4.990   0.281   7.097 -0.5628  2.0086  0.8716
 5378SOL     OW28606   1.322   7.032   7.607 -0.1069 -0.0888 -0.4356
 5378SOL    HW128607   1.231   7.058   7.575 -0.5783  0.4816  1.3114
 5378SOL    HW228608   1.374   7.114   7.631  1.0239 -0.3890 -1.8037
 5379SOL     OW28609   2.288   0.059   2.054  0.2948 -0.1773  0.0247
 5379SOL    HW128610   2.336  -0.028   2.059 -1.7739 -1.3693 -0.6747
 5379SOL    HW228611   2.234   0.064   1.970 -3.0751 -0.1098  2.0703
 5380SOL     OW28612   3.076   1.809   0.590  0.3595 -0.3560  0.5744
 5380SOL    HW128613   3.145   1.745   0.623  0.9456 -0.4087 -0.7084
 5380SOL    HW228614   3.014   1.762   0.527 -0.5113 -0.1750  1.2919
 5381SOL     OW28615   4.985   0.901   8.814 -0.0787 -0.1235 -0.6812
 5381SOL    HW128616   5.039   0.964   8.870  0.4057 -0.0377 -1.2445
 5381SOL    HW228617   4.890   0.933   8.812 -0.3018 -0.6176  0.8218
 5382SOL     OW28618   4.421   8.209   5.859  1.0476  0.0423  0.3573
 5382SOL    HW128619   4.516   8.219   5.887  1.3422  0.1982 -0.6701
 5382SOL    HW228620   4.388   8.295   5.820  0.7568 -0.2643 -0.0827
 5383SOL     OW28621   4.149   4.887   7.972 -0.4699  0.2774  0.8933
 5383SOL    HW128622   4.179   4.792   7.974 -1.2704  0.0303  1.3286
 5383SOL    HW228623   4.173   4.928   7.884 -0.8338 -0.5638  0.3940
 5384SOL     OW28624   0.346   3.551   6.539 -0.7042  0.3774  0.2867
 5384SOL    HW128625   0.394   3.639   6.536 -0.8382  0.5184  1.7595
 5384SOL    HW228626   0.347   3.516   6.633 -1.3031 -0.8342 -0.1477
 5385SOL     OW28627   6.143   6.199   1.674  0.4652  0.0777  0.0718
 5385SOL    HW128628   6.181   6.197   1.581 -0.7200  0.6886 -0.4352
 5385SOL    HW228629   6.047   6.226   1.670  1.0601  2.6225  1.6948
 5386SOL     OW28630   4.579   5.548   6.344  0.4720 -0.8172 -0.0827
 5386SOL    HW128631   4.593   5.633   6.396  0.5591  0.2450 -1.8282
 5386SOL    HW228632   4.541   5.569   6.255 -0.8922 -2.7616  0.0172
 5387SOL     OW28633   7.800   5.565   6.796 -0.9189  0.1246  0.0705
 5387SOL    HW128634   7.794   5.587   6.893  0.4808 -0.8325  0.3869
 5387SOL    HW228635   7.735   5.491   6.775 -1.0619  0.1779  0.3217
 5388SOL     OW28636   3.380   5.545   6.154 -0.2800  0.2363 -0.0564
 5388SOL    HW128637   3.319   5.466   6.145 -1.0186  0.7291  0.5085
 5388SOL    HW228638   3.420   5.566   6.065 -1.2682  0.1673 -0.5287
 5389SOL     OW28639   5.021   6.523   3.570  0.0019  0.4942  0.3978
 5389SOL    HW128640   4.977   6.488   3.653 -0.6504  1.7313  0.5888
 5389SOL    HW228641   5.045   6.619   3.583  0.6570  0.4626 -0.5478
 5390SOL     OW28642   0.411   3.800   6.497  0.1587  0.1514 -0.5359
 5390SOL    HW128643   0.364   3.850   6.424  0.1038 -2.1645 -2.1240
 5390SOL    HW228644   0.508   3.791   6.475 -0.2378 -2.3244 -1.3452
 5391SOL     OW28645   7.395   4.541   4.710  0.4675 -0.3572  0.4124
 5391SOL    HW128646   7.396   4.479   4.632 -1.5373 -1.0588  0.9273
 5391SOL    HW228647   7.375   4.634   4.680  1.7937 -0.2406 -0.1473
 5392SOL     OW28648   6.622   5.189   2.845 -0.2169  0.2235  0.3098
 5392SOL    HW128649   6.716   5.206   2.873 -0.6698 -0.6805  2.5221
 5392SOL    HW228650   6.590   5.263   2.787  1.6015  0.9136  0.1554
 5393SOL     OW28651   3.906   0.059   1.262 -0.0098  0.0279  0.3547
 5393SOL    HW128652   3.961  -0.018   1.229  0.5576 -0.0664  1.5265
 5393SOL    HW228653   3.811   0.030   1.273 -0.0364 -0.1744 -0.3425
 5394SOL     OW28654   4.477   4.056   6.611 -0.5176  0.6625  0.5390
 5394SOL    HW128655   4.493   4.063   6.513 -0.6570  2.3825  0.6207
 5394SOL    HW228656   4.564   4.039   6.658 -0.9841 -4.3646 -0.1871
 5395SOL     OW28657   0.819   6.888   6.278 -0.2442  0.0694  0.6291
 5395SOL    HW128658   0.827   6.788   6.269  0.0725  0.0398  1.2064
 5395SOL    HW228659   0.724   6.912   6.294 -0.3840 -0.1057  0.0900
 5396SOL     OW28660   5.208   8.532   2.372  0.0813  0.8791 -0.3094
 5396SOL    HW128661   5.151   8.486   2.439  1.9797  1.6286  1.9075
 5396SOL    HW228662   5.302   8.537   2.406  0.7797  2.6360 -2.3663
 5397SOL     OW28663   5.874   1.655   7.940  0.1415  0.2927 -0.3157
 5397SOL    HW128664   5.865   1.683   8.035  2.0593 -0.8432  0.2356
 5397SOL    HW228665   5.861   1.734   7.880 -0.8772  1.0462  0.8877
 5398SOL     OW28666   7.570   1.822   7.024 -0.0059 -0.4674 -0.2436
 5398SOL    HW128667   7.611   1.900   6.976  0.8454 -1.6355 -1.4734
 5398SOL    HW228668   7.490   1.852   7.075 -1.5683  0.6591 -3.2218
 5399SOL     OW28669   6.734   8.612   7.089  0.4330 -1.0467 -0.1603
 5399SOL    HW128670   6.672   8.621   7.011 -0.3762 -1.7338  0.3841
 5399SOL    HW228671   6.828   8.601   7.057  0.2680 -0.0214 -1.0000
 5400SOL     OW28672   8.528   6.788   1.067  0.0513 -0.1288  0.4903
 5400SOL    HW128673   8.567   6.702   1.033  0.5797  0.2312  0.1846
 5400SOL    HW228674   8.468   6.827   0.997  0.7242  0.3415  0.1647
 5401SOL     OW28675   6.684   5.627   5.998  0.3055  0.0484 -0.3623
 5401SOL    HW128676   6.656   5.672   5.913 -1.0456  0.3762  0.2424
 5401SOL    HW228677   6.774   5.586   5.986  0.8993  1.6197 -1.4040
 5402SOL     OW28678   1.763   2.790   6.622 -0.6621 -0.5735 -0.4012
 5402SOL    HW128679   1.806   2.854   6.557 -0.7645  1.1406  1.1715
 5402SOL    HW228680   1.664   2.803   6.620 -0.5766  0.3447  0.9596
 5403SOL     OW28681   0.113   5.044   1.173 -0.3757  0.0523 -0.0986
 5403SOL    HW128682   0.044   5.067   1.104 -1.8813 -1.7331  0.7631
 5403SOL    HW228683   0.125   4.945   1.176  2.5898  0.3588 -0.5284
 5404SOL     OW28684   0.684   6.576   3.279 -0.4602  0.2981 -0.2170
 5404SOL    HW128685   0.589   6.606   3.288 -0.3190  0.4146  0.9843
 5404SOL    HW228686   0.685   6.482   3.243 -1.0376  0.1590  0.1130
 5405SOL     OW28687   3.736   1.827   7.098  0.2224 -0.0887  0.4090
 5405SOL    HW128688   3.641   1.803   7.077 -0.1109 -0.8986  2.6503
 5405SOL    HW228689   3.745   1.926   7.105  0.1451  0.1373 -2.4385
 5406SOL     OW28690   1.837   6.573   0.972  0.0003 -0.1319  0.3436
 5406SOL    HW128691   1.810   6.537   0.883  0.6726 -0.5103  0.2856
 5406SOL    HW228692   1.860   6.497   1.032 -1.2661  0.0820  1.1132
 5407SOL     OW28693   3.738   3.282   8.036  0.3831 -0.0640 -0.2717
 5407SOL    HW128694   3.691   3.206   7.993  0.5722 -0.3703  0.0600
 5407SOL    HW228695   3.682   3.365   8.029 -0.1273 -0.3853 -0.0251
 5408SOL     OW28696   6.796   7.388   6.016  0.0862 -0.0321  0.2293
 5408SOL    HW128697   6.710   7.350   6.051  0.4916 -0.7804  0.4448
 5408SOL    HW228698   6.834   7.450   6.085 -1.5794  2.3648 -0.9509
 5409SOL     OW28699   2.739   7.950   1.696 -0.3041 -0.0547  0.1027
 5409SOL    HW128700   2.838   7.943   1.707 -0.2044 -0.3467 -0.9631
 5409SOL    HW228701   2.696   7.948   1.786  0.6685  0.2482  0.5842
 5410SOL     OW28702   1.852   8.445   4.542  0.1404  0.5984  0.2775
 5410SOL    HW128703   1.884   8.362   4.588  0.3409  0.5221  0.0096
 5410SOL    HW228704   1.758   8.433   4.512  0.8035 -0.3150 -1.5573
 5411SOL     OW28705   8.566   5.091   7.640  0.0059 -0.0899  0.2978
 5411SOL    HW128706   8.598   5.186   7.646 -1.6908  0.5238 -0.1094
 5411SOL    HW228707   8.541   5.069   7.546  1.3114 -1.2693  0.2072
 5412SOL     OW28708   0.398   6.384   2.442 -0.2380  0.3621 -0.1390
 5412SOL    HW128709   0.425   6.296   2.481  0.5982  0.6304 -0.1076
 5412SOL    HW228710   0.308   6.375   2.399  0.7820 -1.0399 -2.0126
 5413SOL     OW28711   5.370   6.455   5.489 -0.0552 -0.4556 -0.0121
 5413SOL    HW128712   5.352   6.392   5.565  2.1019 -0.0134  0.9086
 5413SOL    HW228713   5.390   6.403   5.406 -0.0618 -0.9730  0.3104
 5414SOL     OW28714   4.999   5.265   5.911 -0.9352  0.3292 -0.3006
 5414SOL    HW128715   5.067   5.325   5.952  1.0857 -1.7086 -0.5179
 5414SOL    HW228716   4.995   5.179   5.962  0.5279 -1.6533 -3.3021
 5415SOL     OW28717   1.001   4.905   1.962  0.5366 -0.1541 -0.2335
 5415SOL    HW128718   1.012   4.865   1.871  2.2585 -0.5151  0.1127
 5415SOL    HW228719   1.080   4.962   1.984 -0.0774  0.3038  0.8555
 5416SOL     OW28720   3.621   2.577   3.166  0.5171 -0.8783 -0.5675
 5416SOL    HW128721   3.712   2.613   3.144  0.6226 -0.2903  0.7987
 5416SOL    HW228722   3.574   2.641   3.226 -0.4042 -1.6805 -0.4315
 5417SOL     OW28723   7.804   1.727   4.182  0.0545  0.1122  0.2408
 5417SOL    HW128724   7.862   1.798   4.222 -0.9257 -0.0462  1.9908
 5417SOL    HW228725   7.830   1.638   4.218 -0.5558 -0.0804  0.2243
 5418SOL     OW28726   1.471   1.839   5.887  0.0650 -0.2283  0.4877
 5418SOL    HW128727   1.413   1.918   5.907 -0.4758 -0.2017 -1.1041
 5418SOL    HW228728   1.549   1.869   5.831  1.0341 -0.4544  1.7046
 5419SOL     OW28729   3.006   1.546   7.961 -0.2069  0.0997  0.1962
 5419SOL    HW128730   3.076   1.490   8.004 -0.4389  0.0536  0.5184
 5419SOL    HW228731   3.025   1.555   7.864 -0.3518 -0.8083  0.0811
 5420SOL     OW28732   1.184   4.620   7.159  0.6760 -0.0716 -0.5146
 5420SOL    HW128733   1.212   4.651   7.250 -1.5147  0.5080  0.0004
 5420SOL    HW228734   1.265   4.595   7.106  2.0510  0.4569  1.2692
 5421SOL     OW28735   6.570   7.538   3.278 -1.0125 -0.2747  0.3821
 5421SOL    HW128736   6.553   7.606   3.206 -5.3935 -1.5820  0.0564
 5421SOL    HW228737   6.572   7.584   3.366 -1.6804  0.5649 -0.0322
 5422SOL     OW28738   4.901   2.740   2.924  0.5351 -0.5692  0.4504
 5422SOL    HW128739   4.948   2.825   2.899  0.1419 -0.3005  0.6106
 5422SOL    HW228740   4.897   2.732   3.024 -0.4433 -0.1954  0.4526
 5423SOL     OW28741   7.783   3.217   5.978 -0.1681 -0.3325 -0.4300
 5423SOL    HW128742   7.880   3.205   5.997  0.0012  0.7543 -0.5445
 5423SOL    HW228743   7.733   3.232   6.063 -0.1343 -0.2620 -0.4221
 5424SOL     OW28744   5.701   2.140   7.589  0.0264 -0.1973  1.0621
 5424SOL    HW128745   5.612   2.096   7.580 -0.2112  0.5563 -0.4482
 5424SOL    HW228746   5.691   2.230   7.632 -0.4963  1.5497 -2.5294
 5425SOL     OW28747   1.993   3.442   3.364 -0.0272  0.5070 -0.8113
 5425SOL    HW128748   2.018   3.390   3.446  1.8770  0.3292 -1.4611
 5425SOL    HW228749   1.915   3.501   3.384 -0.4504 -0.5366  0.7322
 5426SOL     OW28750   0.004   5.777   0.482 -0.1225 -0.1778  0.1046
 5426SOL    HW128751   0.080   5.752   0.421  0.9442 -0.6070  1.5645
 5426SOL    HW228752  -0.001   5.711   0.557 -1.5696  0.2014  0.3527
 5427SOL     OW28753   1.527   4.475   7.412  0.1524 -0.6723 -0.1886
 5427SOL    HW128754   1.552   4.472   7.315 -0.4115  0.6762 -0.3975
 5427SOL    HW228755   1.437   4.434   7.425 -0.6491  0.9300 -0.5594
 5428SOL     OW28756   0.116   4.337   4.279 -0.2959 -0.0191  0.1165
 5428SOL    HW128757   0.047   4.406   4.298 -1.8059 -1.0673 -1.3775
 5428SOL    HW228758   0.095   4.292   4.192  1.9896 -0.7148 -0.1041
 5429SOL     OW28759   2.646   1.043   6.558  0.3008 -0.3142  0.3167
 5429SOL    HW128760   2.721   1.081   6.611  1.1462 -0.3725 -0.8190
 5429SOL    HW228761   2.607   0.964   6.606  0.9909 -0.3034  0.8963
 5430SOL     OW28762   8.050   1.256   6.918  0.0620  0.1181  0.5417
 5430SOL    HW128763   7.994   1.272   7.000 -0.0705  0.1987  0.4355
 5430SOL    HW228764   7.990   1.240   6.840  0.1901  0.1088  0.4467
 5431SOL     OW28765   2.563   8.627   6.278  0.0074 -0.0422  0.7202
 5431SOL    HW128766   2.596   8.552   6.335  1.7126 -1.0198 -1.4780
 5431SOL    HW228767   2.641   8.683   6.248 -0.3692 -1.5644 -3.3949
 5432SOL     OW28768   6.689   2.602   0.676 -0.1692 -0.2329  0.2909
 5432SOL    HW128769   6.657   2.691   0.707 -0.0646  0.0587 -0.4178
 5432SOL    HW228770   6.611   2.541   0.662 -0.1237 -0.8626  2.5692
 5433SOL     OW28771   5.881   4.853   1.134 -0.3505  0.3821 -0.5347
 5433SOL    HW128772   5.925   4.935   1.098 -0.8876  0.6499 -0.5900
 5433SOL    HW228773   5.922   4.772   1.093 -0.0582  0.6371 -0.7446
 5434SOL     OW28774   3.322   2.054   0.812  0.1784 -0.1946  0.1554
 5434SOL    HW128775   3.227   2.054   0.840  0.5224 -1.8885  1.3983
 5434SOL    HW228776   3.358   2.148   0.815 -1.2654  0.3671  0.2297
 5435SOL     OW28777   4.453   5.075   0.413 -0.8529  0.1167 -0.0567
 5435SOL    HW128778   4.475   5.156   0.466 -2.4918 -0.5602  1.7293
 5435SOL    HW228779   4.354   5.065   0.405 -0.8497 -3.6174  2.9227
 5436SOL     OW28780   3.143   3.948   3.143  0.1948 -0.0292 -0.5333
 5436SOL    HW128781   3.209   3.993   3.084 -0.2727 -0.9812 -1.7850
 5436SOL    HW228782   3.051   3.983   3.123  0.0702 -0.1300 -0.1501
 5437SOL     OW28783   0.427   6.506   7.686  0.4339  0.1636 -0.1983
 5437SOL    HW128784   0.405   6.566   7.609 -0.4129 -1.6737 -1.4260
 5437SOL    HW228785   0.509   6.454   7.664 -0.5798 -1.3490 -0.4394
 5438SOL     OW28786   4.128   4.006   1.760  0.2896 -0.2342  0.0648
 5438SOL    HW128787   4.157   4.047   1.673  1.3239 -2.0324 -0.4895
 5438SOL    HW228788   4.106   4.077   1.826  2.8841  1.1965 -0.5594
 5439SOL     OW28789   8.178   4.632   2.985 -0.5214 -0.4849 -0.1524
 5439SOL    HW128790   8.227   4.601   3.067  1.8892  1.7909 -0.6835
 5439SOL    HW228791   8.081   4.640   3.006 -0.1229 -1.1765  2.0964
 5440SOL     OW28792   7.803   6.889   2.288 -0.0766 -0.0758  0.0464
 5440SOL    HW128793   7.755   6.946   2.355  0.9743 -0.5938  1.2677
 5440SOL    HW228794   7.842   6.947   2.217 -1.7914  0.4178 -0.5177
 5441SOL     OW28795   2.248   3.048   0.427 -0.3735  0.1063 -0.2378
 5441SOL    HW128796   2.222   3.025   0.521 -1.1458  1.6825 -0.0610
 5441SOL    HW228797   2.266   3.146   0.421  0.2210 -0.0871 -1.6150
 5442SOL     OW28798   5.853   6.213   3.371 -0.5019  0.2981  0.3114
 5442SOL    HW128799   5.753   6.218   3.373 -0.5163 -0.1148  0.8272
 5442SOL    HW228800   5.890   6.273   3.442 -0.4324 -0.7123  1.1420
 5443SOL     OW28801   3.473   1.651   4.810 -0.6343 -0.2048 -0.0072
 5443SOL    HW128802   3.451   1.567   4.760 -0.4309  0.1519 -0.7044
 5443SOL    HW228803   3.395   1.714   4.805 -0.1810  0.2978 -0.8668
 5444SOL     OW28804   3.370   0.361   7.906  0.3219  0.1559 -0.5743
 5444SOL    HW128805   3.321   0.291   7.853 -0.4000  0.3006 -0.1095
 5444SOL    HW228806   3.451   0.390   7.855 -0.0828 -0.0802 -1.3690
 5445SOL     OW28807   3.984   1.404   2.548 -0.1538  0.1747  0.4536
 5445SOL    HW128808   4.006   1.402   2.646 -0.9764  1.0860  0.6681
 5445SOL    HW228809   3.907   1.343   2.530  0.5548 -0.6533  0.2272
 5446SOL     OW28810   7.647   5.209   1.228  0.2024  0.4408 -0.2442
 5446SOL    HW128811   7.606   5.183   1.141 -0.4587  1.8762 -0.3693
 5446SOL    HW228812   7.610   5.150   1.301 -0.1282  0.0244 -0.7471
 5447SOL     OW28813   7.359   4.870   5.684 -0.1435  0.3787 -0.5910
 5447SOL    HW128814   7.410   4.925   5.750  0.2390  0.2035 -0.7419
 5447SOL    HW228815   7.261   4.884   5.699 -0.0482  1.2297 -0.7362
 5448SOL     OW28816   7.448   6.436   6.952  0.4074  0.3182  0.3520
 5448SOL    HW128817   7.540   6.397   6.958  0.0801 -0.2568  2.0353
 5448SOL    HW228818   7.441   6.494   6.871  0.9481 -3.0430 -2.2314
 5449SOL     OW28819   3.058   4.983   5.217 -0.5460  0.1401 -0.0556
 5449SOL    HW128820   3.011   5.035   5.288  2.6796 -0.0785  2.3734
 5449SOL    HW228821   3.125   5.042   5.171  0.4260 -0.8307  0.0797
 5450SOL     OW28822   6.043   2.121   7.293 -0.3447  0.4138 -0.3559
 5450SOL    HW128823   6.006   2.071   7.372  0.7546 -1.5318 -1.0396
 5450SOL    HW228824   6.142   2.108   7.288  0.1542  3.5588  0.0340
 5451SOL     OW28825   2.999   6.598   0.488 -0.5737  0.3306  0.0365
 5451SOL    HW128826   3.043   6.621   0.402 -0.8180  3.2269  0.6445
 5451SOL    HW228827   3.068   6.579   0.557 -0.3403  0.3948 -0.1782
 5452SOL     OW28828   2.168   5.067   8.888  0.2750 -1.0770 -0.2462
 5452SOL    HW128829   2.141   5.041   8.795  1.1687 -0.0290 -0.8019
 5452SOL    HW228830   2.239   5.004   8.921  0.6212 -0.8834 -0.6231
 5453SOL     OW28831   0.747   7.553   8.147  0.1147 -0.4105 -0.0440
 5453SOL    HW128832   0.759   7.620   8.074 -0.3028 -0.0780  0.1888
 5453SOL    HW228833   0.706   7.470   8.110 -2.2441  0.5922  0.1992
 5454SOL     OW28834   6.536   6.527   0.463 -0.3123  0.1457 -0.1176
 5454SOL    HW128835   6.441   6.554   0.480  0.0818  0.9014  0.9499
 5454SOL    HW228836   6.590   6.608   0.442  0.1021 -0.2829 -0.6921
 5455SOL     OW28837   0.538   3.876   5.691 -0.2901  0.0422  0.2475
 5455SOL    HW128838   0.514   3.935   5.614  2.2970  0.6297 -0.1628
 5455SOL    HW228839   0.604   3.806   5.661  0.3940 -0.0129  1.8060
 5456SOL     OW28840   3.184   3.931   2.827  0.2120 -0.1410  0.3441
 5456SOL    HW128841   3.213   4.015   2.871  1.7200  1.4093 -3.3661
 5456SOL    HW228842   3.086   3.934   2.808  0.0887  0.3625  1.0842
 5457SOL     OW28843   2.727   6.403   2.818 -0.0194 -0.0881 -0.6149
 5457SOL    HW128844   2.662   6.346   2.769  0.9412 -1.0076 -0.8338
 5457SOL    HW228845   2.683   6.443   2.898 -0.3549 -2.2195  0.2981
 5458SOL     OW28846   0.688   1.854   7.291  0.4282 -0.1760 -0.3262
 5458SOL    HW128847   0.728   1.812   7.372  1.0204  0.4809 -0.2675
 5458SOL    HW228848   0.718   1.804   7.209  1.0516  0.0649 -0.2499
 5459SOL     OW28849   6.940   5.446   0.198  0.0040 -0.2118  0.1686
 5459SOL    HW128850   6.951   5.442   0.099 -0.7535 -1.4446  0.1298
 5459SOL    HW228851   7.025   5.418   0.242  0.5529  0.9574 -0.1177
 5460SOL     OW28852   7.322   3.035   3.794  0.4738  0.7007  0.2502
 5460SOL    HW128853   7.413   3.049   3.834  0.3679 -0.3457  0.8580
 5460SOL    HW228854   7.304   3.108   3.727  1.7508  0.9211  0.1303
 5461SOL     OW28855   4.798   1.834   2.777  0.1251  0.8611 -0.3275
 5461SOL    HW128856   4.788   1.902   2.705  2.0839  0.7347 -0.7442
 5461SOL    HW228857   4.729   1.849   2.848 -2.2934  0.5417 -2.5669
 5462SOL     OW28858   7.608   5.205   8.470  0.0454 -0.2217  0.2342
 5462SOL    HW128859   7.707   5.207   8.482  0.3919 -2.4419 -1.8143
 5462SOL    HW228860   7.563   5.208   8.560  2.0300 -1.2826  1.3027
 5463SOL     OW28861   1.503   5.490   0.653  0.4314 -0.1874 -0.4184
 5463SOL    HW128862   1.489   5.476   0.751  1.7725  0.2042 -0.1548
 5463SOL    HW228863   1.422   5.461   0.603 -0.3001 -0.3021  0.8173
 5464SOL     OW28864   0.691   5.382   3.619 -0.0013 -0.6173  0.3097
 5464SOL    HW128865   0.782   5.347   3.638 -0.1295 -0.8775  0.4425
 5464SOL    HW228866   0.639   5.388   3.704 -0.1648 -0.6327  0.2108
 5465SOL     OW28867   0.470   7.938   5.323 -0.0387  0.1061  0.0694
 5465SOL    HW128868   0.440   7.843   5.313  0.6317 -0.3361  2.1340
 5465SOL    HW228869   0.550   7.953   5.264  0.9281 -1.1209  1.0256
 5466SOL     OW28870   3.367   7.323   0.389  0.0994 -0.5741 -0.4346
 5466SOL    HW128871   3.443   7.259   0.387  0.1798 -0.5046  0.3395
 5466SOL    HW228872   3.281   7.272   0.384  0.0965 -0.9135  2.4123
 5467SOL     OW28873   4.120   8.993   1.812  0.1963 -0.1419 -0.0358
 5467SOL    HW128874   4.127   9.052   1.892  1.5464  0.4829 -0.6018
 5467SOL    HW228875   4.040   9.020   1.758 -0.1471  0.0680  0.5634
 5468SOL     OW28876   3.102   7.400   3.104 -0.2923 -0.1877  0.3295
 5468SOL    HW128877   3.107   7.368   3.009  0.8424  1.3766 -0.1512
 5468SOL    HW228878   3.006   7.412   3.130 -0.6306 -1.1758 -0.4228
 5469SOL     OW28879   7.489   8.560   0.617  0.1036  0.2037  0.2307
 5469SOL    HW128880   7.411   8.510   0.580 -0.0149 -0.5998  1.5077
 5469SOL    HW228881   7.456   8.635   0.674  0.2847  1.6008 -1.4679
 5470SOL     OW28882   2.660   3.572   1.187  0.4447  0.5864 -0.3651
 5470SOL    HW128883   2.605   3.576   1.270  0.8900  2.7618 -0.1580
 5470SOL    HW228884   2.745   3.522   1.207 -0.9461 -1.8653 -0.4256
 5471SOL     OW28885   5.196   4.204   1.930 -0.4643  0.1899  0.5525
 5471SOL    HW128886   5.210   4.285   1.987 -1.6201 -1.0709  2.6999
 5471SOL    HW228887   5.098   4.192   1.911 -0.1269  0.4556 -1.5429
 5472SOL     OW28888   7.853   0.190   0.478 -0.2675  0.2334 -0.1513
 5472SOL    HW128889   7.917   0.266   0.478  0.1333 -0.1028  1.1217
 5472SOL    HW228890   7.886   0.117   0.538 -1.5249 -0.2137  0.0305
 5473SOL     OW28891   7.923   4.038   5.322  0.4571 -0.6133  0.4482
 5473SOL    HW128892   7.948   4.111   5.387  0.8980 -1.2629  1.0202
 5473SOL    HW228893   7.996   3.971   5.319 -0.1687 -1.2883  0.2935
 5474SOL     OW28894   7.355   4.234   8.295 -0.4043 -0.5609 -0.0384
 5474SOL    HW128895   7.370   4.268   8.388  0.7461 -0.7692 -0.1494
 5474SOL    HW228896   7.382   4.305   8.229 -0.2752 -0.7885 -0.2296
 5475SOL     OW28897   6.665   4.202   6.640 -0.3507 -0.3787  0.8210
 5475SOL    HW128898   6.624   4.267   6.704  1.5722  0.4897  1.1974
 5475SOL    HW228899   6.595   4.137   6.610 -1.6003  0.0427  2.7161
 5476SOL     OW28900   4.385   1.901   7.653 -0.6835 -0.3037 -0.2019
 5476SOL    HW128901   4.292   1.874   7.678 -1.3566  1.6240 -0.4767
 5476SOL    HW228902   4.442   1.820   7.639 -3.2537 -1.5947 -3.6430
 5477SOL     OW28903   0.402   5.530   6.497 -0.2281 -0.2577 -0.0840
 5477SOL    HW128904   0.468   5.604   6.506 -0.1170 -0.1427 -1.6282
 5477SOL    HW228905   0.326   5.545   6.559 -0.4007  1.3902 -0.6709
 5478SOL     OW28906   4.877   5.889   5.599 -0.5623 -0.0071 -0.0497
 5478SOL    HW128907   4.956   5.853   5.550  1.1620  1.6039  1.5044
 5478SOL    HW228908   4.855   5.828   5.676 -0.2273  0.0324  0.0799
 5479SOL     OW28909   0.812   0.136   1.236  0.1069  0.0355 -0.3204
 5479SOL    HW128910   0.864   0.051   1.233  2.7254  1.5661  0.3703
 5479SOL    HW228911   0.833   0.186   1.320 -1.4282  1.3761 -0.6870
 5480SOL     OW28912   2.761   2.387   1.018 -0.2457  0.1410  0.0555
 5480SOL    HW128913   2.849   2.354   0.984  0.9838  2.0821  1.2822
 5480SOL    HW228914   2.768   2.408   1.115 -2.2264 -0.1889  0.2941
 5481SOL     OW28915   4.229   6.255   7.480  0.5819  0.2700 -0.2096
 5481SOL    HW128916   4.173   6.179   7.513  0.0698  0.6290 -0.2514
 5481SOL    HW228917   4.301   6.275   7.546  0.8735 -0.4141 -0.3137
 5482SOL     OW28918   7.685   4.190   4.838 -0.2147  0.2840  0.5610
 5482SOL    HW128919   7.736   4.221   4.918  0.3775 -0.6434  0.5539
 5482SOL    HW228920   7.588   4.212   4.850 -0.0970  0.3560  1.4393
 5483SOL     OW28921   3.681   4.621   6.952  0.0311 -0.2031 -0.3003
 5483SOL    HW128922   3.717   4.614   7.045 -0.8169 -0.4596  0.0194
 5483SOL    HW228923   3.732   4.690   6.901  0.3356  0.1215  0.4347
 5484SOL     OW28924   5.503   0.562   1.424 -0.1025  0.1430  0.3493
 5484SOL    HW128925   5.470   0.577   1.517  0.8834 -1.2206  0.9473
 5484SOL    HW228926   5.601   0.540   1.426 -0.3609 -1.2107 -0.8701
 5485SOL     OW28927   7.384   8.532   3.783  0.2996  0.4303  1.0983
 5485SOL    HW128928   7.338   8.612   3.746 -0.3949 -0.6579 -0.4264
 5485SOL    HW228929   7.475   8.524   3.742 -0.2121 -0.3991  0.1119
 5486SOL     OW28930   6.631   5.776   5.301 -0.2682  0.0516  0.0611
 5486SOL    HW128931   6.702   5.726   5.252 -1.4235 -0.9069 -0.6676
 5486SOL    HW228932   6.658   5.787   5.397  0.6685 -0.6601 -0.1123
 5487SOL     OW28933   2.838   6.837   3.216  0.3079  0.5331  0.6152
 5487SOL    HW128934   2.852   6.934   3.237  1.4899  0.3235  0.8829
 5487SOL    HW228935   2.879   6.782   3.289  1.2093 -0.1764 -0.4143
 5488SOL     OW28936   8.006   3.794   1.417 -0.0887  0.0939 -0.1108
 5488SOL    HW128937   7.909   3.801   1.392 -0.6206 -0.3381  1.7799
 5488SOL    HW228938   8.021   3.711   1.471  1.0587  0.9385  0.8948
 5489SOL     OW28939   0.301   4.442   6.998  0.0495 -0.2398 -0.8785
 5489SOL    HW128940   0.397   4.450   7.028 -0.2543 -0.4603  0.1735
 5489SOL    HW228941   0.242   4.489   7.064 -0.3131  2.7231 -3.1916
 5490SOL     OW28942   4.907   6.104   7.518 -0.8363 -0.2996 -0.0631
 5490SOL    HW128943   4.943   6.156   7.441 -0.0589 -0.9696 -0.1635
 5490SOL    HW228944   4.980   6.046   7.556 -0.0973  2.7690  3.5979
 5491SOL     OW28945   2.577   4.560   2.466  0.1652 -0.3052  1.0484
 5491SOL    HW128946   2.649   4.492   2.479  0.0453 -0.8255 -0.9229
 5491SOL    HW228947   2.616   4.652   2.472  1.3253 -0.5859 -1.6098
 5492SOL     OW28948   6.959   4.641   0.051  0.0293 -0.1126 -0.1106
 5492SOL    HW128949   6.950   4.737   0.075  1.3908 -0.7273  3.0855
 5492SOL    HW228950   7.037   4.628  -0.009  1.4120  0.4707  1.5326
 5493SOL     OW28951   1.298   2.217   4.989  0.5497 -0.1322  0.3386
 5493SOL    HW128952   1.285   2.268   4.904 -0.9421  1.2061  1.3336
 5493SOL    HW228953   1.393   2.224   5.019  1.9033 -3.3011 -2.8619
 5494SOL     OW28954   2.184   7.376   5.788 -0.7265  0.0365  0.8375
 5494SOL    HW128955   2.152   7.334   5.703 -2.3057 -0.8942  1.8745
 5494SOL    HW228956   2.272   7.421   5.772 -1.0743 -0.0044 -1.3214
 5495SOL     OW28957   3.620   2.354   2.707 -0.0653  0.0152  0.9935
 5495SOL    HW128958   3.591   2.356   2.802  2.1551 -3.1445  1.8263
 5495SOL    HW228959   3.550   2.311   2.651 -0.7740  0.6097  1.4207
 5496SOL     OW28960   2.162   3.782   4.302  0.3543 -0.3182  0.1148
 5496SOL    HW128961   2.208   3.856   4.352  1.6234 -1.4185  0.6217
 5496SOL    HW228962   2.199   3.777   4.209 -1.2469  1.0377 -0.6198
 5497SOL     OW28963   5.556   6.812   3.194 -0.4914  0.0807 -0.3993
 5497SOL    HW128964   5.627   6.866   3.241 -0.0753 -0.3523 -0.5234
 5497SOL    HW228965   5.545   6.846   3.101 -1.6684  1.2652  0.1536
 5498SOL     OW28966   3.304   2.328   5.789 -0.6920 -0.1196 -0.1649
 5498SOL    HW128967   3.233   2.265   5.822  0.9274 -1.6228  0.5083
 5498SOL    HW228968   3.373   2.340   5.860 -0.2457  1.3200 -0.8268
 5499SOL     OW28969   1.428   5.282   8.845  0.1425 -0.0874 -0.3135
 5499SOL    HW128970   1.378   5.366   8.822  1.7541  0.8592 -0.3727
 5499SOL    HW228971   1.389   5.243   8.929 -0.5962  0.7369 -0.2582
 5500SOL     OW28972   8.726   2.397   5.202  0.2666  0.8150  0.6734
 5500SOL    HW128973   8.646   2.337   5.206 -3.0852  5.0937  0.3575
 5500SOL    HW228974   8.746   2.418   5.106  1.6062  0.0426  0.7733
 5501SOL     OW28975   5.864   7.228   0.685 -0.0250  0.2193 -0.1387
 5501SOL    HW128976   5.931   7.252   0.615 -0.9108  0.5843 -0.8616
 5501SOL    HW228977   5.842   7.131   0.678 -0.6547  0.4060 -0.8459
 5502SOL     OW28978   7.698   8.595   5.124 -0.2705  0.2164  0.1576
 5502SOL    HW128979   7.660   8.682   5.156  0.1469  0.8969 -1.1937
 5502SOL    HW228980   7.757   8.557   5.195 -1.4063  0.4420  1.2344
 5503SOL     OW28981   0.213   0.555   3.708  0.1817 -0.4587  0.3755
 5503SOL    HW128982   0.178   0.479   3.653  0.3971 -0.7013  0.5705
 5503SOL    HW228983   0.231   0.523   3.801 -2.6958  0.5920  1.3313
 5504SOL     OW28984   3.694   5.123   2.832 -0.7080 -0.0243  0.1297
 5504SOL    HW128985   3.625   5.156   2.767 -1.5290  0.0154  1.0042
 5504SOL    HW228986   3.659   5.132   2.925  0.2879 -0.4809  0.5577
 5505SOL     OW28987   0.627   7.275   7.667 -0.0912  0.1964 -0.7279
 5505SOL    HW128988   0.655   7.360   7.623 -1.0762  1.2209  0.5984
 5505SOL    HW228989   0.534   7.251   7.640  0.5696 -1.0846 -1.9778
 5506SOL     OW28990   2.725   4.591   0.155 -0.3197 -0.1410 -0.3523
 5506SOL    HW128991   2.679   4.552   0.076  0.4462  0.8698 -1.3141
 5506SOL    HW228992   2.757   4.518   0.215 -0.2817 -0.9319 -1.3273
 5507SOL     OW28993   2.221   4.670   2.155 -0.0528 -0.3822 -0.0371
 5507SOL    HW128994   2.305   4.623   2.180 -1.5140 -2.9991  0.1708
 5507SOL    HW228995   2.209   4.668   2.056  0.5113  0.7021 -0.1339
 5508SOL     OW28996   0.177   5.029   4.014 -0.4200 -0.2834  0.2872
 5508SOL    HW128997   0.272   5.013   4.043 -0.1071 -0.6478 -0.9092
 5508SOL    HW228998   0.162   4.987   3.924 -1.3762  0.7660 -0.0552
 5509SOL     OW28999   8.331   5.576   5.422  0.4242 -0.1763 -0.5100
 5509SOL    HW129000   8.302   5.566   5.327  0.1926 -0.1369 -0.4446
 5509SOL    HW229001   8.299   5.496   5.474  2.2123 -1.1374 -0.8659
 5510SOL     OW29002   3.658   8.085   1.732  0.3909  0.0702 -0.6380
 5510SOL    HW129003   3.749   8.116   1.757 -0.1312  1.1449 -0.0366
 5510SOL    HW229004   3.661   7.988   1.706  1.1678 -0.8482  2.6289
 5511SOL     OW29005   5.668   5.965   7.258  0.1434  0.3520  0.2076
 5511SOL    HW129006   5.654   6.015   7.172 -2.8559 -0.7793 -0.0235
 5511SOL    HW229007   5.721   5.882   7.240  0.1551  0.4976 -0.4322
 5512SOL     OW29008   0.320   0.366   7.348 -0.4436 -0.2228  0.0721
 5512SOL    HW129009   0.277   0.345   7.436 -1.3085  0.8583 -0.0887
 5512SOL    HW229010   0.277   0.446   7.308  0.3560 -0.3505 -1.0647
 5513SOL     OW29011   3.732   2.232   2.050 -0.1814 -0.6866 -0.3071
 5513SOL    HW129012   3.830   2.217   2.037  0.0421  0.1350  0.3674
 5513SOL    HW229013   3.714   2.330   2.061 -0.9664 -0.9108  0.4756
 5514SOL     OW29014   2.655   4.794   7.137 -0.6004  0.3402  0.3482
 5514SOL    HW129015   2.726   4.828   7.199 -0.0369 -0.5217  0.1817
 5514SOL    HW229016   2.598   4.871   7.107  1.1421  1.2884 -0.6458
 5515SOL     OW29017   8.967   2.762   8.554 -0.2940  0.2271  0.0473
 5515SOL    HW129018   8.900   2.791   8.485 -0.6253 -0.3498  0.1218
 5515SOL    HW229019   8.919   2.728   8.634  0.0943 -0.1180  0.1299
 5516SOL     OW29020   0.981   1.373   6.303  0.1619 -0.1177  0.4903
 5516SOL    HW129021   1.081   1.375   6.301  0.1708  0.4140  1.0375
 5516SOL    HW229022   0.948   1.445   6.365 -0.5856  0.3478 -0.4347
 5517SOL     OW29023   6.092   4.212   8.131 -0.1076  0.6299  0.3106
 5517SOL    HW129024   6.131   4.154   8.059 -0.9897  1.0763 -0.5441
 5517SOL    HW229025   5.992   4.201   8.131 -0.2471  1.9054  0.3652
 5518SOL     OW29026   7.706   5.488   1.134 -0.0198 -0.1634  0.2145
 5518SOL    HW129027   7.670   5.399   1.163  2.4615 -1.1629  0.3162
 5518SOL    HW229028   7.676   5.559   1.198 -2.1866 -0.8457  0.0249
 5519SOL     OW29029   3.314   3.669   1.551 -0.8846  0.0707  0.2482
 5519SOL    HW129030   3.298   3.684   1.453 -0.2135  1.3859  0.3274
 5519SOL    HW229031   3.248   3.602   1.586 -2.8260  1.5089 -0.5510
 5520SOL     OW29032   0.720   4.072   6.338  0.5293  0.0110  0.2721
 5520SOL    HW129033   0.726   3.982   6.294 -0.3243  0.5733 -1.0100
 5520SOL    HW229034   0.773   4.138   6.286  1.9331  0.0634  1.7440
 5521SOL     OW29035   8.571   2.202   8.789 -0.1029 -0.4377 -0.0166
 5521SOL    HW129036   8.626   2.241   8.716 -1.9546  2.4179  0.0474
 5521SOL    HW229037   8.610   2.229   8.878 -0.6223  0.2016  0.0244
 5522SOL     OW29038   2.340   4.663   3.187 -0.4079 -0.2999  0.1108
 5522SOL    HW129039   2.265   4.603   3.161 -1.3132  1.1594 -0.7660
 5522SOL    HW229040   2.312   4.758   3.173  1.5765  0.2695 -0.1202
 5523SOL     OW29041   5.599   1.527   8.162 -0.1152  0.8438  0.3983
 5523SOL    HW129042   5.697   1.548   8.169 -0.0205  0.9586 -1.1306
 5523SOL    HW229043   5.564   1.561   8.075 -1.2762 -0.1936  0.4463
 5524SOL     OW29044   6.550   6.548   6.443  0.5479 -0.1489 -0.3872
 5524SOL    HW129045   6.621   6.489   6.482  0.3776 -0.6304 -0.8055
 5524SOL    HW229046   6.591   6.609   6.376  1.0122  1.3264  1.1864
 5525SOL     OW29047   1.546   4.261   1.620  0.1512 -0.2642 -0.4150
 5525SOL    HW129048   1.541   4.185   1.555  0.9662  1.1434 -2.1598
 5525SOL    HW229049   1.453   4.289   1.645 -0.1636 -1.1508 -0.5635
 5526SOL     OW29050   2.606   1.906   1.525  0.0332 -0.2466  0.0904
 5526SOL    HW129051   2.667   1.966   1.473 -0.0384 -0.2203  0.0371
 5526SOL    HW229052   2.511   1.927   1.501 -0.0071 -0.1129  0.3595
 5527SOL     OW29053   3.783   8.523   3.355  0.0362  0.4594 -0.0186
 5527SOL    HW129054   3.809   8.454   3.423 -0.5649 -0.2868 -0.5234
 5527SOL    HW229055   3.762   8.477   3.268  0.7773  1.3947 -0.6973
 5528SOL     OW29056   4.735   7.176   2.213  0.4444  0.4034  0.4115
 5528SOL    HW129057   4.753   7.248   2.146 -1.5416  1.7679  1.2725
 5528SOL    HW229058   4.696   7.096   2.167 -0.6158  1.2129 -0.1025
 5529SOL     OW29059   6.665   4.478   6.902 -0.2205  0.0508  0.0557
 5529SOL    HW129060   6.632   4.387   6.928  0.1837  0.4414  2.0088
 5529SOL    HW229061   6.596   4.546   6.925 -0.0832  0.3579 -0.4297
 5530SOL     OW29062   6.701   6.564   4.517  0.6459 -0.1060 -0.3500
 5530SOL    HW129063   6.777   6.590   4.457  2.4201 -0.2455  1.7904
 5530SOL    HW229064   6.630   6.634   4.513  2.5331  1.9097  0.4248
 5531SOL     OW29065   3.639   1.777   2.913  0.1729  0.7585  0.1799
 5531SOL    HW129066   3.621   1.857   2.856  0.2851 -0.0790 -1.0456
 5531SOL    HW229067   3.554   1.728   2.929  0.2509  0.6215  0.1737
 5532SOL     OW29068   0.304   3.811   5.180 -0.9209 -0.4392  0.7059
 5532SOL    HW129069   0.206   3.798   5.195 -0.7930 -1.8496  0.3939
 5532SOL    HW229070   0.352   3.726   5.200  0.1226 -0.0644 -0.1753
 5533SOL     OW29071   8.658   5.960   4.539  0.0105  0.3266  0.3590
 5533SOL    HW129072   8.624   6.034   4.482  0.4074 -0.6543 -1.1602
 5533SOL    HW229073   8.647   5.984   4.636 -0.2989  2.1523 -0.1298
 5534SOL     OW29074   6.769   4.220   2.076 -0.0816  0.1073 -0.3219
 5534SOL    HW129075   6.774   4.319   2.071  0.7663  0.0167 -1.4392
 5534SOL    HW229076   6.847   4.185   2.128 -0.8787  0.0763  0.8747
 5535SOL     OW29077   8.199   3.898   5.312  0.8577  0.3498  0.2442
 5535SOL    HW129078   8.250   3.840   5.248  2.1900  1.7255  0.0272
 5535SOL    HW229079   8.235   3.887   5.404  0.8677  0.5498  0.2646
 5536SOL     OW29080   0.712   0.362   4.352 -0.5362  0.4352  0.3723
 5536SOL    HW129081   0.672   0.280   4.392 -1.1789  0.7135  0.3041
 5536SOL    HW229082   0.640   0.422   4.319 -0.0778  1.2645  0.8706
 5537SOL     OW29083   1.805   7.256   0.032 -0.0117  0.2744 -0.1821
 5537SOL    HW129084   1.747   7.181   0.001 -1.4916  1.5361 -0.5324
 5537SOL    HW229085   1.821   7.320  -0.044  1.4562  0.1863  0.0374
 5538SOL     OW29086   2.137   2.169   7.816  0.1023 -0.4009 -0.5850
 5538SOL    HW129087   2.203   2.225   7.866 -0.5171  1.1319 -1.4445
 5538SOL    HW229088   2.051   2.164   7.867  0.3254 -0.9935 -0.2662
 5539SOL     OW29089   1.065   3.390   6.545 -0.6723 -0.8820  0.3766
 5539SOL    HW129090   1.113   3.457   6.603 -3.5453  2.2440 -0.7093
 5539SOL    HW229091   1.061   3.302   6.592  1.9381  0.0587  2.4926
 5540SOL     OW29092   6.091   4.186   3.397  0.6620  0.4000 -0.1216
 5540SOL    HW129093   6.007   4.152   3.354  0.9391  1.4295 -1.5107
 5540SOL    HW229094   6.071   4.270   3.447  0.8673  0.6479 -0.4565
 5541SOL     OW29095   5.287   0.694   0.322 -0.2953  0.1279 -0.2023
 5541SOL    HW129096   5.227   0.754   0.374  0.5364 -0.1582  1.1122
 5541SOL    HW229097   5.350   0.648   0.384  0.7087 -0.2366 -1.4630
 5542SOL     OW29098   7.975   3.823   8.793  0.5302 -0.2584  0.4661
 5542SOL    HW129099   7.905   3.876   8.841 -0.4325 -0.5789 -0.5519
 5542SOL    HW229100   8.041   3.886   8.752  1.5568  0.0035  2.4727
 5543SOL     OW29101   7.922   6.311   5.756 -0.2332 -0.3961 -0.5046
 5543SOL    HW129102   7.891   6.398   5.718 -1.2940  0.4501  2.1236
 5543SOL    HW229103   8.020   6.300   5.740 -0.1435  1.1668 -1.1328
 5544SOL     OW29104   3.966   5.440   8.427 -0.6390  0.1094 -0.3227
 5544SOL    HW129105   3.964   5.466   8.330 -0.5496  1.9310  0.1351
 5544SOL    HW229106   4.035   5.369   8.441  1.8265  2.2329 -1.0749
 5545SOL     OW29107   2.615   4.710   5.880 -0.4114  0.3233 -0.0117
 5545SOL    HW129108   2.662   4.625   5.904  1.8055  1.2085 -1.1083
 5545SOL    HW229109   2.665   4.757   5.807 -1.0349  3.0461  1.2242
 5546SOL     OW29110   8.615   5.530   1.824 -0.4642  0.1265 -0.3218
 5546SOL    HW129111   8.532   5.551   1.877  0.0423  1.3970 -0.0282
 5546SOL    HW229112   8.650   5.614   1.782  0.9153 -0.3307 -0.1063
 5547SOL     OW29113   3.029   5.994   6.827 -0.1046  0.0741 -0.7746
 5547SOL    HW129114   2.940   5.948   6.824 -0.4473  0.6835 -0.1949
 5547SOL    HW229115   3.046   6.026   6.920  0.9416 -0.4501 -0.7767
 5548SOL     OW29116   5.695   1.072   1.646 -0.0004 -0.8911  0.1684
 5548SOL    HW129117   5.700   1.028   1.557 -0.2941  1.2585 -0.9307
 5548SOL    HW229118   5.785   1.070   1.690  0.3153 -1.2924 -0.4905
 5549SOL     OW29119   0.729   3.474   5.438 -0.2639  0.0180 -0.2381
 5549SOL    HW129120   0.719   3.543   5.509  0.0825 -2.0806  1.9169
 5549SOL    HW229121   0.803   3.501   5.376  0.8683  0.8914  1.4404
 5550SOL     OW29122   3.998   2.697   8.099 -0.4969  0.1281 -0.4834
 5550SOL    HW129123   3.987   2.761   8.023 -1.4653  0.5164 -0.0240
 5550SOL    HW229124   4.042   2.743   8.176 -1.4349  0.3246 -0.0590
 5551SOL     OW29125   1.760   0.858   5.785  0.1801 -0.3512 -0.4355
 5551SOL    HW129126   1.683   0.799   5.757  1.0229 -1.2370 -0.9085
 5551SOL    HW229127   1.845   0.821   5.748  1.0151 -0.1594  1.2529
 5552SOL     OW29128   1.446   6.877   2.326 -0.5160  0.2802 -0.2780
 5552SOL    HW129129   1.397   6.954   2.367 -1.0836 -0.0647 -0.3072
 5552SOL    HW229130   1.422   6.869   2.229 -2.1604 -1.2641  0.2242
 5553SOL     OW29131   3.139   7.200   0.258  0.8851  0.5804 -0.5496
 5553SOL    HW129132   3.202   7.203   0.181  1.3486 -2.7144 -0.3970
 5553SOL    HW229133   3.051   7.164   0.228  1.8405 -3.1546  0.8185
 5554SOL     OW29134   2.062   2.981   6.344  0.7757 -0.0684  0.4818
 5554SOL    HW129135   2.048   2.948   6.251 -0.8074 -1.0256  1.0281
 5554SOL    HW229136   1.973   2.985   6.391  1.7944 -1.5472  2.5901
 5555SOL     OW29137   3.774   0.498   6.171  0.7840  0.1498 -0.3384
 5555SOL    HW129138   3.712   0.501   6.093 -0.2848 -0.8184  0.4550
 5555SOL    HW229139   3.728   0.536   6.252  1.4285 -0.0327  0.1184
 5556SOL     OW29140   7.303   4.582   1.409  0.7867 -0.3400  0.0410
 5556SOL    HW129141   7.263   4.493   1.433 -2.0354  0.0199 -3.0259
 5556SOL    HW229142   7.382   4.568   1.350  0.6596 -0.8181 -0.0170
 5557SOL     OW29143   3.053   3.888   5.960 -0.1654  0.1823  0.2092
 5557SOL    HW129144   2.986   3.929   5.899  2.3262  1.2921 -1.8969
 5557SOL    HW229145   3.071   3.794   5.933  1.5949  0.9502 -1.4030
 5558SOL     OW29146   1.603   0.507   7.642 -0.3466  0.4881 -0.4343
 5558SOL    HW129147   1.518   0.474   7.600  0.1913 -2.1967  0.5091
 5558SOL    HW229148   1.591   0.510   7.742  0.7031  0.0341 -0.2976
 5559SOL     OW29149   5.694   4.140   8.084 -0.1385 -0.1361 -0.5347
 5559SOL    HW129150   5.741   4.078   8.147  0.2353 -1.3558 -1.9944
 5559SOL    HW229151   5.678   4.094   7.997 -3.1150  0.6135 -0.4519
 5560SOL     OW29152   7.336   8.406   1.528  0.5336 -0.4250 -0.4061
 5560SOL    HW129153   7.386   8.420   1.442 -2.3137  0.5400 -1.9535
 5560SOL    HW229154   7.343   8.489   1.584 -0.7774  0.3894 -1.4101
 5561SOL     OW29155   0.204   7.142   4.468 -0.5991 -0.4749  0.4568
 5561SOL    HW129156   0.183   7.046   4.483  0.9393 -0.9976 -0.6644
 5561SOL    HW229157   0.292   7.164   4.511 -2.4442  1.2531  3.5783
 5562SOL     OW29158   0.270   0.372   0.253  0.1600  0.0350  0.5902
 5562SOL    HW129159   0.363   0.380   0.217 -0.1387 -1.2879 -0.5208
 5562SOL    HW229160   0.206   0.415   0.189 -0.2050 -0.9121  0.3030
 5563SOL     OW29161   6.669   7.137   5.570  0.5875 -0.4123 -0.1088
 5563SOL    HW129162   6.608   7.192   5.513 -0.0598 -0.8152  0.1919
 5563SOL    HW229163   6.723   7.197   5.629  0.1533 -0.0825 -0.0506
 5564SOL     OW29164   4.038   4.294   0.298  0.8783 -0.5812 -0.4750
 5564SOL    HW129165   3.945   4.297   0.335  0.8580 -0.8631 -0.4991
 5564SOL    HW229166   4.084   4.213   0.333  1.5864  0.2995  0.6599
 5565SOL     OW29167   7.748   5.669   2.470 -0.5399  0.5394  0.0870
 5565SOL    HW129168   7.819   5.646   2.403 -1.8164  0.9377 -1.4341
 5565SOL    HW229169   7.753   5.605   2.547  0.2440 -0.6341 -0.9172
 5566SOL     OW29170   2.836   8.565   4.905  0.0275 -0.3295 -0.1602
 5566SOL    HW129171   2.763   8.599   4.964 -0.6243  0.7903 -1.5972
 5566SOL    HW229172   2.815   8.470   4.879 -0.5217 -0.2766  0.0711
 5567SOL     OW29173   7.768   7.314   4.906 -0.0548  0.2909 -0.3852
 5567SOL    HW129174   7.720   7.288   4.822  1.5173 -1.1987 -0.8684
 5567SOL    HW229175   7.848   7.370   4.883  0.8426 -0.7945  0.0290
 5568SOL     OW29176   8.282   6.435   0.417 -0.4685  0.0132  0.1830
 5568SOL    HW129177   8.377   6.416   0.392 -0.6868  0.4229 -0.9745
 5568SOL    HW229178   8.235   6.476   0.339 -1.0730  1.6006  1.3553
 5569SOL     OW29179   2.286   0.508   5.584 -0.0837 -0.5384  0.8611
 5569SOL    HW129180   2.275   0.589   5.642  1.6258 -0.0956  0.6036
 5569SOL    HW229181   2.374   0.464   5.604  0.9026  0.0804 -1.9216
 5570SOL     OW29182   7.198   7.406   1.085 -0.5416 -0.3556  0.1991
 5570SOL    HW129183   7.240   7.382   0.998 -0.4082  1.4945 -0.2780
 5570SOL    HW229184   7.264   7.391   1.159  1.6803  3.9908 -0.6929
 5571SOL     OW29185   2.729   2.430   0.223 -0.3004 -0.1214 -0.0298
 5571SOL    HW129186   2.796   2.444   0.150 -0.0146  0.7696  0.4036
 5571SOL    HW229187   2.645   2.392   0.183 -0.8037  2.0525 -1.1215
 5572SOL     OW29188   2.700   7.632   1.119  0.2249 -0.1662 -0.2436
 5572SOL    HW129189   2.620   7.657   1.173  0.3332  0.8475 -0.5334
 5572SOL    HW229190   2.685   7.544   1.075 -0.5704 -0.1686  0.0247
 5573SOL     OW29191   7.218   3.313   2.986  0.5822 -0.4828  0.4091
 5573SOL    HW129192   7.154   3.386   3.009  1.2899  0.2954 -0.0755
 5573SOL    HW229193   7.311   3.349   2.984  0.9730 -1.4692  0.4839
 5574SOL     OW29194   4.584   0.391   6.529  0.2668  0.0911  0.4208
 5574SOL    HW129195   4.617   0.320   6.467  0.3296  0.7356 -0.2954
 5574SOL    HW229196   4.485   0.384   6.537 -0.0103  1.3208 -1.4563
 5575SOL     OW29197   3.631   5.010   8.002 -0.1880 -0.1812 -0.3512
 5575SOL    HW129198   3.722   5.005   7.959 -0.4004 -0.9371 -0.7257
 5575SOL    HW229199   3.640   4.992   8.100  0.1806  0.6187 -0.2372
 5576SOL     OW29200   5.303   1.366   3.126 -0.2241 -0.1521  0.7667
 5576SOL    HW129201   5.378   1.422   3.162 -1.3523  1.6004  0.4701
 5576SOL    HW229202   5.269   1.305   3.198  0.2969  0.3331  1.4285
 5577SOL     OW29203   0.668   4.565   7.817  0.5645  0.2764 -0.1128
 5577SOL    HW129204   0.696   4.492   7.756  1.7127  0.1997  0.4867
 5577SOL    HW229205   0.748   4.600   7.866 -0.3010  0.5038  1.1552
 5578SOL     OW29206   6.597   4.747   0.431  0.0392 -0.0526 -0.4724
 5578SOL    HW129207   6.559   4.780   0.344  0.1913 -0.6681 -0.7740
 5578SOL    HW229208   6.533   4.685   0.475  0.8026 -1.3299 -1.1284
 5579SOL     OW29209   3.861   2.449   7.560  0.2347 -0.1907  0.0488
 5579SOL    HW129210   3.831   2.512   7.631 -0.4558 -0.9480  0.4275
 5579SOL    HW229211   3.788   2.384   7.539  0.6941 -0.4388 -0.8304
 5580SOL     OW29212   2.180   1.431   7.648 -0.0819 -0.4744 -0.5376
 5580SOL    HW129213   2.175   1.361   7.577  1.1133  0.4657 -1.5810
 5580SOL    HW229214   2.119   1.407   7.723  0.2071 -2.5459 -0.9379
 5581SOL     OW29215   1.929   2.773   7.436 -0.2646 -0.7618 -0.0618
 5581SOL    HW129216   2.016   2.823   7.438 -0.9171  0.3656  0.7098
 5581SOL    HW229217   1.928   2.711   7.358  0.6408  0.3181 -0.9479
 5582SOL     OW29218   5.950   2.769   0.344  0.2660  0.0232  0.5453
 5582SOL    HW129219   5.963   2.760   0.245 -2.2685  0.2630  0.1457
 5582SOL    HW229220   5.903   2.687   0.378  0.7118  0.1538  1.4782
 5583SOL     OW29221   5.360   2.041   3.252  0.3617 -0.0800 -0.2854
 5583SOL    HW129222   5.416   2.120   3.227  0.4219  0.6465  2.0723
 5583SOL    HW229223   5.418   1.960   3.258  0.7968  0.2679  0.1861
 5584SOL     OW29224   1.179   3.347   6.877  0.2721 -0.0043  0.1097
 5584SOL    HW129225   1.159   3.277   6.945  1.3789 -1.1242 -0.6866
 5584SOL    HW229226   1.185   3.305   6.786  1.4801  1.0210 -0.3044
 5585SOL     OW29227   5.390   8.172   2.204  0.5145  0.0994 -0.4796
 5585SOL    HW129228   5.410   8.096   2.142 -0.1723  0.2734 -0.9195
 5585SOL    HW229229   5.386   8.139   2.298 -0.0264 -0.4593 -0.6937
 5586SOL     OW29230   1.629   6.047   2.390  0.3761  0.1018  0.6241
 5586SOL    HW129231   1.573   6.078   2.313  1.4869  2.1495  0.5938
 5586SOL    HW229232   1.579   5.980   2.443 -0.6240 -0.9403 -1.5777
 5587SOL     OW29233   1.389   2.739   2.594  0.2112 -0.0112 -0.5741
 5587SOL    HW129234   1.304   2.702   2.633  0.5676 -1.3041 -0.9886
 5587SOL    HW229235   1.378   2.749   2.495  0.1704  0.8839 -0.4849
 5588SOL     OW29236   0.831   3.653   6.999 -0.0230  1.0549 -0.1031
 5588SOL    HW129237   0.871   3.582   6.942  0.5198  0.5922  0.8502
 5588SOL    HW229238   0.893   3.732   7.003 -0.3938  1.3885 -0.7386
 5589SOL     OW29239   0.361   1.439   5.887 -0.6199 -0.2204 -0.7300
 5589SOL    HW129240   0.312   1.517   5.846  0.6405  0.6559 -0.6057
 5589SOL    HW229241   0.309   1.355   5.872 -2.3897  0.7588 -0.1837
 5590SOL     OW29242   1.920   5.687   2.965 -0.3701 -0.1416 -0.1344
 5590SOL    HW129243   1.911   5.597   2.923  1.6752 -0.9426  1.0449
 5590SOL    HW229244   1.961   5.750   2.900 -1.5272 -0.1239 -0.8650
 5591SOL     OW29245   5.507   5.214   8.189  0.7511 -0.4468  0.2497
 5591SOL    HW129246   5.596   5.239   8.225  1.0436 -0.6944 -0.2899
 5591SOL    HW229247   5.512   5.123   8.148 -0.0522 -0.9804  1.3136
 5592SOL     OW29248   7.157   2.071   0.097 -0.2221 -0.2285 -0.4702
 5592SOL    HW129249   7.228   2.131   0.059  0.0600 -1.7578 -2.4568
 5592SOL    HW229250   7.069   2.094   0.056  0.0297 -1.6705 -1.9091
 5593SOL     OW29251   7.640   5.332   6.059 -0.0350  0.0715  0.0558
 5593SOL    HW129252   7.738   5.332   6.036  0.2526 -1.6500  1.1742
 5593SOL    HW229253   7.587   5.359   5.979  1.3050  0.1124 -0.8399
 5594SOL     OW29254   7.455   3.883   1.457  0.3761 -0.5916  0.6129
 5594SOL    HW129255   7.477   3.968   1.504  1.0940 -0.4436  0.0103
 5594SOL    HW229256   7.361   3.887   1.423  1.8077  1.8330 -3.4191
 5595SOL     OW29257   6.575   3.422   7.821 -0.2486 -0.2806 -0.0128
 5595SOL    HW129258   6.585   3.480   7.740  0.2565 -1.9423 -1.1642
 5595SOL    HW229259   6.569   3.326   7.793  0.6615 -0.9419  1.9783
 5596SOL     OW29260   2.382   3.577   4.451 -0.1655  0.3302 -0.1220
 5596SOL    HW129261   2.307   3.555   4.513 -0.2916  1.5747  0.1727
 5596SOL    HW229262   2.371   3.670   4.416  0.5959  0.0997 -1.0147
 5597SOL     OW29263   4.097   1.732   3.470 -0.2316 -0.3101 -0.2691
 5597SOL    HW129264   4.175   1.732   3.409 -0.2050  0.6626 -0.2464
 5597SOL    HW229265   4.100   1.814   3.528 -1.2565 -0.2667 -0.2672
 5598SOL     OW29266   8.026   6.058   0.828 -0.4820 -0.2479  0.0555
 5598SOL    HW129267   7.938   6.012   0.815 -0.6115  0.2415 -0.7957
 5598SOL    HW229268   8.099   6.002   0.788 -0.3479 -0.8499  1.1212
 5599SOL     OW29269   3.509   7.454   7.981 -0.2446  0.1910 -0.4299
 5599SOL    HW129270   3.415   7.456   7.946  0.2329  2.1371 -1.6956
 5599SOL    HW229271   3.508   7.470   8.079 -1.1760  1.4019 -0.6197
 5600SOL     OW29272   7.748   8.704   7.061 -0.3672  0.2645 -0.1567
 5600SOL    HW129273   7.837   8.743   7.038  0.2135  0.6744  2.5363
 5600SOL    HW229274   7.726   8.630   6.997  0.7317  1.8167 -2.3895
 5601SOL     OW29275   5.874   4.905   7.802  0.2033  0.2189 -0.0469
 5601SOL    HW129276   5.865   4.860   7.891 -1.4081 -0.0301 -0.3099
 5601SOL    HW229277   5.867   4.836   7.730  1.0467  0.4791 -0.3780
 5602SOL     OW29278   2.787   1.105   0.545 -0.3480  0.0315 -0.1053
 5602SOL    HW129279   2.732   1.180   0.510 -1.7729 -1.3308 -0.8834
 5602SOL    HW229280   2.749   1.073   0.632  0.1003  0.0659  0.1026
 5603SOL     OW29281   0.323   4.691   5.259 -0.6981  0.2909  0.3532
 5603SOL    HW129282   0.277   4.778   5.272  0.6125  0.9519  0.6954
 5603SOL    HW229283   0.408   4.690   5.312 -0.0418 -0.6790 -0.6867
 5604SOL     OW29284   5.780   3.266   7.863 -0.2912 -0.9227 -0.2443
 5604SOL    HW129285   5.778   3.313   7.775  1.5374 -0.1935  0.0742
 5604SOL    HW229286   5.775   3.167   7.848  0.9145 -0.8510 -1.2418
 5605SOL     OW29287   4.522   4.824   8.717  0.1446  0.4533 -0.4441
 5605SOL    HW129288   4.539   4.897   8.784  1.1004 -0.7394  0.6322
 5605SOL    HW229289   4.461   4.859   8.646  0.0158  2.0942  0.4273
 5606SOL     OW29290   4.686   8.011   0.973 -0.0209 -0.7212  0.0276
 5606SOL    HW129291   4.726   8.008   1.064  2.4421  1.0809 -0.9257
 5606SOL    HW229292   4.759   8.015   0.905 -1.8234 -1.2851 -2.0179
 5607SOL     OW29293   5.118   6.588   4.301 -0.9614 -0.0298 -0.0095
 5607SOL    HW129294   5.148   6.656   4.369 -0.1910  0.7297 -1.1010
 5607SOL    HW229295   5.197   6.558   4.248 -1.6869 -0.0680 -1.0735
 5608SOL     OW29296   0.861   7.379   4.024  0.3500  0.3194  0.2010
 5608SOL    HW129297   0.806   7.399   3.943 -0.4684 -1.7202  0.2176
 5608SOL    HW229298   0.948   7.339   3.996 -0.0475 -0.6461  0.3195
 5609SOL     OW29299   2.269   3.848   1.470  0.2937 -0.4909 -0.4269
 5609SOL    HW129300   2.188   3.844   1.530  0.1857  0.8505 -0.4689
 5609SOL    HW229301   2.332   3.917   1.504 -0.0484  0.7349 -2.1971
 5610SOL     OW29302   4.221   0.674   0.440 -0.1734  0.1126 -0.2772
 5610SOL    HW129303   4.230   0.751   0.376 -0.7928 -1.6007 -2.4633
 5610SOL    HW229304   4.130   0.676   0.482 -0.4857  0.1067 -0.9471
 5611SOL     OW29305   6.142   5.808   2.211  0.4504 -0.6316  0.3050
 5611SOL    HW129306   6.173   5.880   2.273 -0.2729  0.8714 -1.0400
 5611SOL    HW229307   6.080   5.747   2.259  0.2078  0.2923  1.1890
 5612SOL     OW29308   3.392   8.569   6.861 -0.7077 -0.2001  0.0699
 5612SOL    HW129309   3.489   8.561   6.882 -0.8720 -1.5032  0.3313
 5612SOL    HW229310   3.372   8.524   6.774 -0.8070  1.4624 -0.8087
 5613SOL     OW29311   5.728   4.895   3.631 -0.0187  0.2139  0.3254
 5613SOL    HW129312   5.652   4.850   3.584  1.3185 -1.5474 -0.2057
 5613SOL    HW229313   5.692   4.950   3.706 -1.9413  0.7485 -0.9564
 5614SOL     OW29314   8.975   6.346   1.212  0.5623  0.1595 -0.1515
 5614SOL    HW129315   9.039   6.420   1.229  0.5592  0.2498 -0.5289
 5614SOL    HW229316   8.892   6.360   1.266  0.9534 -0.0848  0.5143
 5615SOL     OW29317   5.340   5.297   5.194  0.2905  0.0307  0.4911
 5615SOL    HW129318   5.414   5.278   5.130 -0.4770  0.5783 -0.5917
 5615SOL    HW229319   5.274   5.221   5.191  0.0632  0.2350  0.3495
 5616SOL     OW29320   2.501   2.666   7.217  0.2787  0.4813 -0.4959
 5616SOL    HW129321   2.408   2.700   7.230  0.3386  0.9753 -1.2921
 5616SOL    HW229322   2.528   2.611   7.296 -0.3880  1.0049  0.1027
 5617SOL     OW29323   7.712   6.604   6.028 -0.3835 -0.5666 -0.4732
 5617SOL    HW129324   7.791   6.660   6.003 -0.9640 -0.0289 -1.1342
 5617SOL    HW229325   7.728   6.509   6.000  0.0955 -0.4985 -0.4410
 5618SOL     OW29326   2.199   3.985   4.922 -0.1953  0.1904 -0.2151
 5618SOL    HW129327   2.250   3.904   4.953 -0.0700  0.6341  0.7526
 5618SOL    HW229328   2.113   3.956   4.879  1.2270 -0.6154 -2.6359
 5619SOL     OW29329   2.262   8.308   0.100 -0.0639  0.8136  0.4920
 5619SOL    HW129330   2.190   8.356   0.049  0.7076 -1.0223 -2.4077
 5619SOL    HW229331   2.224   8.226   0.143  0.1986  0.0880 -0.6603
 5620SOL     OW29332   6.484   7.418   8.009 -0.0807  0.0771 -0.0248
 5620SOL    HW129333   6.461   7.378   8.097 -0.6999 -0.4169 -0.4039
 5620SOL    HW229334   6.573   7.383   7.978 -0.7623 -1.2854 -0.5047
 5621SOL     OW29335   4.714   5.252   4.604 -0.0050  0.8028  0.2913
 5621SOL    HW129336   4.757   5.169   4.640  1.4216  1.1789 -0.5047
 5621SOL    HW229337   4.693   5.240   4.507  1.1346  1.7167 -0.0843
 5622SOL     OW29338   4.120   3.460   1.969  0.5926  0.5596  0.1771
 5622SOL    HW129339   4.026   3.467   1.936  0.4925 -0.5099  0.2450
 5622SOL    HW229340   4.183   3.472   1.893  0.3820 -0.1503 -0.1112
 5623SOL     OW29341   8.372   1.721   5.323 -0.1342  0.1417  0.4192
 5623SOL    HW129342   8.448   1.659   5.307 -0.9037 -0.6049 -0.4345
 5623SOL    HW229343   8.383   1.802   5.265  0.3322  0.3135  0.7523
 5624SOL     OW29344   7.482   8.109   4.180  0.3905  0.8470 -0.0452
 5624SOL    HW129345   7.468   8.125   4.083 -0.2689 -0.0408 -0.1065
 5624SOL    HW229346   7.415   8.041   4.213  0.6651  1.0690  0.9981
 5625SOL     OW29347   4.913   1.149   2.336 -0.3668 -0.1189 -0.9086
 5625SOL    HW129348   4.907   1.124   2.240  1.6288  1.2300 -1.4200
 5625SOL    HW229349   4.950   1.073   2.389  0.9396 -0.0010 -1.6355
 5626SOL     OW29350   2.517   4.816   4.461  0.1185  0.3243  0.2334
 5626SOL    HW129351   2.597   4.801   4.402  0.0815  1.4212 -0.1059
 5626SOL    HW229352   2.529   4.900   4.512 -1.4012  1.1877 -0.7892
 5627SOL     OW29353   5.975   6.707   2.718 -0.0045  0.2972 -0.5937
 5627SOL    HW129354   5.924   6.721   2.803 -0.6473  0.2567 -0.9610
 5627SOL    HW229355   5.948   6.620   2.677  1.9752 -0.7399  0.2994
 5628SOL     OW29356   2.247   3.245   7.611  0.4907 -0.3971  0.3889
 5628SOL    HW129357   2.165   3.301   7.626 -1.0936 -2.2794 -0.9024
 5628SOL    HW229358   2.229   3.151   7.641  2.0813 -0.9026 -0.2033
 5629SOL     OW29359   1.557   8.969   1.520 -0.0227  0.2611  0.3897
 5629SOL    HW129360   1.567   9.050   1.461 -1.1632  0.3738  0.3371
 5629SOL    HW229361   1.544   8.888   1.463 -0.6574  0.3013  0.4714
 5630SOL     OW29362   2.066   6.809   4.588 -0.0694 -0.3064  0.3967
 5630SOL    HW129363   2.010   6.742   4.538  0.6774 -0.7181  0.1010
 5630SOL    HW229364   2.016   6.840   4.669 -0.3638 -1.3519  0.6252
 5631SOL     OW29365   2.576   4.762   1.981 -0.1406 -0.4254  0.5263
 5631SOL    HW129366   2.675   4.776   1.970 -0.1133 -1.8854 -1.2875
 5631SOL    HW229367   2.558   4.716   2.067  0.8603 -1.0664  0.4007
 5632SOL     OW29368   2.443   5.978   0.618 -0.1385 -0.0151 -0.1691
 5632SOL    HW129369   2.495   5.990   0.702 -1.8643  1.1984  0.7693
 5632SOL    HW229370   2.414   5.883   0.610  1.9709 -0.6322 -0.5683
 5633SOL     OW29371   8.999   5.020   0.252 -0.0235 -0.3023 -0.5554
 5633SOL    HW129372   8.930   5.067   0.197 -0.3774 -2.3497 -1.9359
 5633SOL    HW229373   8.966   5.011   0.346 -0.9652  0.1098 -0.8348
 5634SOL     OW29374   2.704   0.010   2.809 -0.6650  0.1770  0.0849
 5634SOL    HW129375   2.707   0.105   2.779 -2.5616  0.3075  0.2362
 5634SOL    HW229376   2.716   0.007   2.909  0.5902  0.1519 -0.0613
 5635SOL     OW29377   1.470   3.422   5.777  0.3868 -0.3855 -0.7139
 5635SOL    HW129378   1.424   3.482   5.842  2.3534  0.0623  0.3004
 5635SOL    HW229379   1.450   3.452   5.683 -0.8817  0.1430 -0.2869
 5636SOL     OW29380   8.833   8.773   4.682  0.3220  0.3192  0.2201
 5636SOL    HW129381   8.861   8.870   4.680 -0.5369  0.5911  1.1685
 5636SOL    HW229382   8.915   8.715   4.681  0.8307  1.0474 -0.8288
 5637SOL     OW29383   4.232   1.135   2.180 -0.0490 -0.3937 -0.1823
 5637SOL    HW129384   4.160   1.187   2.225  1.3447  0.5351  1.0528
 5637SOL    HW229385   4.299   1.105   2.248  1.0859 -0.6351 -1.3717
 5638SOL     OW29386   3.450   4.861   2.932  0.5101  0.1211  0.3869
 5638SOL    HW129387   3.419   4.936   2.991  0.9163 -1.2052  2.3544
 5638SOL    HW229388   3.539   4.829   2.964  1.9341  0.9890 -2.5081
 5639SOL     OW29389   7.143   3.342   4.326  0.0194 -0.2297 -1.0054
 5639SOL    HW129390   7.169   3.411   4.259  0.4180 -0.0760 -0.6954
 5639SOL    HW229391   7.139   3.383   4.417  2.6145 -1.1079 -0.4438
 5640SOL     OW29392   4.850   3.120   6.706  0.2254  0.1579 -0.3430
 5640SOL    HW129393   4.849   3.031   6.660 -0.0080 -0.1656  0.2758
 5640SOL    HW229394   4.756   3.145   6.732  0.2945  0.5710 -0.4876
 5641SOL     OW29395   0.489   0.212   5.723 -0.3368  0.4374  0.2461
 5641SOL    HW129396   0.472   0.115   5.734 -1.5860  0.7990  1.7092
 5641SOL    HW229397   0.423   0.251   5.658 -1.2306  0.7090  1.3122
 5642SOL     OW29398   6.609   8.362   8.313 -0.5519 -0.0018  0.3796
 5642SOL    HW129399   6.653   8.280   8.275 -2.6458 -0.7974 -0.4046
 5642SOL    HW229400   6.676   8.436   8.319  0.5525 -0.7369 -2.1769
 5643SOL     OW29401   7.108   8.778   6.797  0.0630  0.2601  0.0652
 5643SOL    HW129402   7.118   8.845   6.870  1.8507 -0.2167  0.2681
 5643SOL    HW229403   7.106   8.824   6.708 -2.7259  0.8977  0.4068
 5644SOL     OW29404   2.722   1.618   5.646 -0.2892 -0.2339  0.0798
 5644SOL    HW129405   2.729   1.524   5.614 -0.7237 -0.0505 -0.5730
 5644SOL    HW229406   2.747   1.680   5.572  0.4872  0.1545  0.6607
 5645SOL     OW29407   1.704   6.768   2.371 -0.0517 -0.5347  0.2938
 5645SOL    HW129408   1.768   6.843   2.382  0.3557 -0.7002 -0.8459
 5645SOL    HW229409   1.610   6.803   2.369  0.1063 -0.1176  0.3025
 5646SOL     OW29410   4.342   8.454   5.795  0.2944  0.0294 -0.1738
 5646SOL    HW129411   4.274   8.456   5.868  1.0251 -0.6770  0.5513
 5646SOL    HW229412   4.297   8.461   5.706 -0.8319 -1.4895  0.2441
 5647SOL     OW29413   5.466   7.992   7.210 -0.2775  0.0140  0.0820
 5647SOL    HW129414   5.386   7.998   7.269  0.5160  1.9195  1.0041
 5647SOL    HW229415   5.549   7.991   7.266  0.4925  1.9280 -0.9706
 5648SOL     OW29416   8.901   1.619   6.581 -0.2122  0.0738  0.1933
 5648SOL    HW129417   8.941   1.587   6.495  1.2447  0.2506  0.7841
 5648SOL    HW229418   8.932   1.713   6.598 -3.4881  1.4313 -0.9369
 5649SOL     OW29419   6.188   5.103   2.710 -0.5616 -0.8369  0.3183
 5649SOL    HW129420   6.155   5.194   2.734 -1.6792 -0.9302 -0.8130
 5649SOL    HW229421   6.267   5.111   2.648 -0.9214 -0.6434 -0.1141
 5650SOL     OW29422   3.384   4.285   3.649 -0.8861  0.3524 -0.3820
 5650SOL    HW129423   3.392   4.188   3.628  1.1154  0.0807  1.3994
 5650SOL    HW229424   3.386   4.339   3.565 -0.2286 -1.0616 -1.2784
 5651SOL     OW29425   8.072   4.305   0.662  0.5143 -0.1883  0.0659
 5651SOL    HW129426   8.167   4.324   0.637 -0.4498  0.9917 -2.8799
 5651SOL    HW229427   8.070   4.263   0.753  3.7327  1.0327  0.7776
 5652SOL     OW29428   0.090   6.649   3.584  0.0319  0.0334  0.1965
 5652SOL    HW129429   0.114   6.586   3.658 -1.9641  0.9532  1.6868
 5652SOL    HW229430   0.042   6.598   3.512  1.8208 -0.8348 -0.3969
 5653SOL     OW29431   1.763   5.473   0.116  0.2405 -0.6584 -0.0175
 5653SOL    HW129432   1.796   5.384   0.148 -0.4617 -0.4415  1.3403
 5653SOL    HW229433   1.755   5.471   0.016  0.7165 -1.9476 -0.0471
 5654SOL     OW29434   7.277   0.686   8.287 -0.4894  0.5767  0.0123
 5654SOL    HW129435   7.355   0.716   8.341 -0.7928  1.3892  0.0140
 5654SOL    HW229436   7.251   0.593   8.314  1.4968 -0.3443 -1.1454
 5655SOL     OW29437   0.583   0.896   5.473 -0.7809 -0.3286  0.1753
 5655SOL    HW129438   0.557   0.836   5.549  1.2169 -0.6105  0.6591
 5655SOL    HW229439   0.567   0.991   5.498 -2.2253 -0.5485  0.1030
 5656SOL     OW29440   1.519   4.790   8.079 -0.1508 -0.0623 -0.0948
 5656SOL    HW129441   1.452   4.725   8.043  0.3260 -0.2733 -0.6249
 5656SOL    HW229442   1.601   4.739   8.108 -1.0253 -0.0578  2.5565
 5657SOL     OW29443   0.140   7.930   1.444  0.0188  0.2694 -0.1212
 5657SOL    HW129444   0.090   8.013   1.419  0.8284  1.2076  1.2861
 5657SOL    HW229445   0.085   7.876   1.508 -0.2150  0.0655 -0.4924
 5658SOL     OW29446   4.907   0.226   7.451 -0.6487 -0.6237 -0.9692
 5658SOL    HW129447   4.927   0.130   7.430  2.0709  0.1520 -2.2096
 5658SOL    HW229448   4.975   0.284   7.406 -0.4945  1.7110  2.1735
 5659SOL     OW29449   5.134   1.225   3.298 -0.9022  0.2998 -0.6408
 5659SOL    HW129450   5.048   1.238   3.347 -0.9486  0.8909 -0.8764
 5659SOL    HW229451   5.131   1.138   3.249 -1.1399  0.0512 -0.1818
 5660SOL     OW29452   5.705   2.568   5.443  0.0383  0.0590  0.3379
 5660SOL    HW129453   5.622   2.571   5.388 -0.9222 -0.2605  1.7409
 5660SOL    HW229454   5.718   2.476   5.480  2.9335 -0.8509 -2.6890
 5661SOL     OW29455   6.275   5.255   5.007 -0.2622 -0.5034 -0.2390
 5661SOL    HW129456   6.304   5.235   5.101 -1.3374 -0.9533  0.0008
 5661SOL    HW229457   6.356   5.271   4.950  0.5448 -2.8278  0.1807
 5662SOL     OW29458   0.674   0.423   1.774  0.4131 -0.0662  0.4230
 5662SOL    HW129459   0.686   0.454   1.868  1.1312  0.3399  0.1996
 5662SOL    HW229460   0.631   0.496   1.720  1.1206  0.1516  0.1511
 5663SOL     OW29461   1.699   6.257   5.138 -0.4872  0.2113 -0.0234
 5663SOL    HW129462   1.691   6.345   5.185  0.5966  0.7447 -0.8568
 5663SOL    HW229463   1.764   6.199   5.187  0.6701  0.7808 -0.8601
 5664SOL     OW29464   1.065   5.423   2.689  0.1000  0.1959  0.3221
 5664SOL    HW129465   1.088   5.396   2.783  1.9374 -0.9868 -0.4439
 5664SOL    HW229466   1.040   5.342   2.636  0.4989  0.6687 -0.5996
 5665SOL     OW29467   7.648   8.820   7.897 -0.0922 -0.4230  0.1740
 5665SOL    HW129468   7.694   8.802   7.809 -1.0769 -3.0047  0.1536
 5665SOL    HW229469   7.716   8.819   7.970  0.4175 -0.5976 -0.2954
 5666SOL     OW29470   1.125   3.644   6.086 -0.2903  0.7361  0.0768
 5666SOL    HW129471   1.058   3.717   6.074 -0.2406  0.5152 -1.5948
 5666SOL    HW229472   1.081   3.564   6.127 -1.7328 -0.4420 -3.6558
 5667SOL     OW29473   0.182   3.951   1.772  0.1210 -0.0834 -0.4671
 5667SOL    HW129474   0.086   3.945   1.796  0.2294 -1.4384 -0.3421
 5667SOL    HW229475   0.220   3.859   1.762  1.5066  0.4326 -0.0850
 5668SOL     OW29476   3.143   3.482   1.006  0.2755  0.6546  0.2660
 5668SOL    HW129477   3.073   3.554   1.010  1.1708  1.5294  0.2541
 5668SOL    HW229478   3.124   3.421   0.929 -1.4244 -0.1077  1.2529
 5669SOL     OW29479   2.909   0.818   2.762  0.1736  0.2730 -0.0423
 5669SOL    HW129480   2.956   0.904   2.784  1.3807 -0.2482 -0.5712
 5669SOL    HW229481   2.928   0.794   2.667 -1.2752  0.1265 -0.2974
 5670SOL     OW29482   0.438   5.143   7.804  0.1660  0.1068 -0.3718
 5670SOL    HW129483   0.411   5.227   7.851  1.3990  0.7763 -0.8386
 5670SOL    HW229484   0.499   5.090   7.863 -1.6010 -1.0722  0.4157
 5671SOL     OW29485   0.809   5.553   2.731 -0.6839  0.4298 -0.0259
 5671SOL    HW129486   0.896   5.503   2.728 -0.6107  0.4297  1.3999
 5671SOL    HW229487   0.741   5.498   2.778 -1.3283  0.6304 -0.7158
 5672SOL     OW29488   2.523   8.406   8.392  0.6735  0.0615  0.1834
 5672SOL    HW129489   2.607   8.460   8.391  0.5978  0.1705 -1.6524
 5672SOL    HW229490   2.466   8.431   8.314 -0.3239 -1.1848  0.4913
 5673SOL     OW29491   7.945   5.835   8.211  0.7102  0.1153  0.1054
 5673SOL    HW129492   7.853   5.820   8.175  0.3637  2.2761  0.0031
 5673SOL    HW229493   8.011   5.782   8.158 -0.2036  0.4787 -1.4154
 5674SOL     OW29494   5.015   1.376   1.335  0.2683 -0.5630 -0.1003
 5674SOL    HW129495   5.080   1.419   1.398 -0.9689  1.4145 -0.1233
 5674SOL    HW229496   5.056   1.369   1.244  1.1075 -1.0442  0.3056
 5675SOL     OW29497   7.308   4.486   6.331  0.1448  0.1382 -0.0022
 5675SOL    HW129498   7.259   4.399   6.341 -0.8747  0.4056 -2.3596
 5675SOL    HW229499   7.245   4.562   6.350  0.7562  0.3976  1.0228
 5676SOL     OW29500   0.402   5.782   2.446  0.1474 -0.3820  0.1210
 5676SOL    HW129501   0.349   5.850   2.396  0.1609  0.9204  1.8212
 5676SOL    HW229502   0.492   5.771   2.403  0.6944  1.7590  0.6579
 5677SOL     OW29503   7.699   6.942   4.852  0.0335  0.9047 -0.0474
 5677SOL    HW129504   7.627   6.872   4.848  0.9138  0.0886 -2.0721
 5677SOL    HW229505   7.693   7.002   4.772  0.1684  2.2978  0.9596
 5678SOL     OW29506   4.526   8.261   0.256  0.1123 -0.4552 -0.2680
 5678SOL    HW129507   4.573   8.344   0.284 -0.9740 -0.0633  0.3976
 5678SOL    HW229508   4.535   8.250   0.157  1.1354 -0.1007 -0.2209
 5679SOL     OW29509   2.359   7.786   8.465 -0.6081  0.1881  0.0748
 5679SOL    HW129510   2.455   7.784   8.436 -1.0265  2.0928 -1.5949
 5679SOL    HW229511   2.302   7.748   8.392 -1.1841 -0.4599  0.8544
 5680SOL     OW29512   1.505   0.521   0.791  0.3392  0.0531  0.5466
 5680SOL    HW129513   1.536   0.426   0.793  1.4699  0.3668 -0.9289
 5680SOL    HW229514   1.526   0.565   0.878 -2.5065 -1.7263  2.2327
 5681SOL     OW29515   3.914   1.287   4.502  0.6887  0.2863  0.8030
 5681SOL    HW129516   3.929   1.333   4.415  1.3723 -1.9371 -0.3065
 5681SOL    HW229517   3.973   1.326   4.572 -0.0960  2.3070  0.3657
 5682SOL     OW29518   3.734   4.304   8.176  0.0362  0.6822 -0.1561
 5682SOL    HW129519   3.778   4.389   8.205  1.1655 -0.4195  1.3838
 5682SOL    HW229520   3.673   4.271   8.249  0.1540 -0.2174 -0.4608
 5683SOL     OW29521   8.583   7.780   5.109 -0.0117 -0.1679 -0.0685
 5683SOL    HW129522   8.615   7.747   5.198  1.1125  1.7527  0.2690
 5683SOL    HW229523   8.568   7.703   5.048  2.1735 -1.3178  0.8050
 5684SOL     OW29524   8.324   1.422   5.437 -0.1292  0.0238  0.3779
 5684SOL    HW129525   8.407   1.458   5.395  0.9669 -1.7841  0.9192
 5684SOL    HW229526   8.256   1.494   5.445  1.0538  1.3011 -0.9377
 5685SOL     OW29527   8.546   5.845   2.830  0.2045 -0.0354 -0.5708
 5685SOL    HW129528   8.548   5.925   2.770 -0.9765 -0.0855 -0.6874
 5685SOL    HW229529   8.478   5.860   2.902  2.5442  0.6235  1.6100
 5686SOL     OW29530   1.593   6.660   0.066 -0.0502  0.1616 -0.5323
 5686SOL    HW129531   1.668   6.726   0.063  0.0797 -0.0546 -3.1466
 5686SOL    HW229532   1.514   6.702   0.111  0.8879  1.1520  0.2372
 5687SOL     OW29533   4.407   6.669   7.702  0.2316 -0.6662  0.0636
 5687SOL    HW129534   4.311   6.677   7.728  0.0616  2.3232 -1.3178
 5687SOL    HW229535   4.463   6.724   7.764  0.9493 -1.4835  0.1553
 5688SOL     OW29536   6.231   5.112   0.104  0.2881  0.3901  0.2564
 5688SOL    HW129537   6.288   5.098   0.023 -0.4178  0.0113 -0.1823
 5688SOL    HW229538   6.154   5.172   0.080  1.1280  1.8379  1.1275
 5689SOL     OW29539   3.674   1.366   0.887  0.0209  0.2965  0.0575
 5689SOL    HW129540   3.597   1.302   0.894 -1.7013  2.2493 -0.5532
 5689SOL    HW229541   3.717   1.376   0.977  0.0655 -1.4176  0.2385
 5690SOL     OW29542   3.242   6.111   1.819 -0.1552 -0.2593 -0.3739
 5690SOL    HW129543   3.203   6.169   1.891  2.0247 -0.1435  0.7353
 5690SOL    HW229544   3.322   6.155   1.780  2.0065 -2.8156  1.0136
 5691SOL     OW29545   8.554   7.186   3.198  0.7414  0.1125  0.1360
 5691SOL    HW129546   8.602   7.101   3.223 -1.3476 -0.1167  3.7462
 5691SOL    HW229547   8.490   7.167   3.123  0.5421 -1.4651  0.6766
 5692SOL     OW29548   4.587   4.582   7.356  0.3584 -0.4834  0.0084
 5692SOL    HW129549   4.616   4.486   7.358 -1.0625 -0.9513 -1.1366
 5692SOL    HW229550   4.616   4.624   7.270 -1.9215 -0.8298 -0.9573
 5693SOL     OW29551   8.703   7.022   1.040  0.2204 -0.3065  0.0615
 5693SOL    HW129552   8.635   6.949   1.047 -0.7112  0.6230  0.7557
 5693SOL    HW229553   8.789   6.991   1.080 -0.5872 -0.5198  1.6387
 5694SOL     OW29554   3.301   1.119   0.665 -0.1379 -0.6118 -0.3240
 5694SOL    HW129555   3.280   1.183   0.591 -1.9459  1.9590  2.2786
 5694SOL    HW229556   3.397   1.125   0.689  0.1033 -0.2822 -1.3630
 5695SOL     OW29557   2.686   3.836   6.065 -0.6666 -0.1419 -0.1480
 5695SOL    HW129558   2.737   3.777   6.003 -0.0799 -0.0511  0.2398
 5695SOL    HW229559   2.623   3.781   6.120 -0.9260 -0.2646 -0.5705
 5696SOL     OW29560   3.877   4.779   6.842  0.1838 -0.6820 -0.0952
 5696SOL    HW129561   3.976   4.790   6.838  0.1093 -0.4695 -1.6150
 5696SOL    HW229562   3.841   4.827   6.923  1.2310 -0.0798  0.0176
 5697SOL     OW29563   4.346   2.232   0.962 -0.1732 -0.1538 -0.3918
 5697SOL    HW129564   4.274   2.250   1.029  0.7291 -0.5307  0.7009
 5697SOL    HW229565   4.370   2.135   0.964  0.5858  0.0269 -0.5138
 5698SOL     OW29566   2.289   8.158   6.673  0.1579  0.0779  0.7277
 5698SOL    HW129567   2.242   8.232   6.624  1.8631  0.6261 -0.0934
 5698SOL    HW229568   2.224   8.083   6.689 -1.0076  0.8304 -0.3607
 5699SOL     OW29569   5.090   8.192   1.092  0.9276  0.7891 -0.6336
 5699SOL    HW129570   5.156   8.258   1.130  0.8885 -0.0331  0.9185
 5699SOL    HW229571   5.071   8.215   0.996  1.5311  2.5397 -0.3579
 5700SOL     OW29572   6.864   6.561   0.646  0.1660  0.5500 -0.3998
 5700SOL    HW129573   6.865   6.651   0.691  0.6461  0.0687  0.5638
 5700SOL    HW229574   6.931   6.561   0.572  1.9362  0.2280  1.1489
 5701SOL     OW29575   5.376   0.219   2.607 -0.2101  0.2193 -0.4268
 5701SOL    HW129576   5.404   0.124   2.623 -0.1206  0.1382 -1.0551
 5701SOL    HW229577   5.279   0.221   2.584 -0.5978  0.4398  1.1367
 5702SOL     OW29578   4.350   5.546   6.736 -0.3285 -0.0523  0.2230
 5702SOL    HW129579   4.392   5.575   6.822 -0.2185  2.1972 -0.5454
 5702SOL    HW229580   4.252   5.563   6.740 -0.6082 -1.6638  0.5636
 5703SOL     OW29581   7.086   8.369   7.827  0.1118  0.2028  0.0866
 5703SOL    HW129582   7.084   8.440   7.756 -0.2198 -0.0990 -0.2028
 5703SOL    HW229583   7.071   8.280   7.786  1.1633 -0.1085  0.3637
 5704SOL     OW29584   8.307   7.090   3.387  0.4321  0.4580 -0.2720
 5704SOL    HW129585   8.351   7.139   3.312  0.3621  0.8617 -0.0499
 5704SOL    HW229586   8.321   6.992   3.375  0.5368  0.5282 -0.7405
 5705SOL     OW29587   4.852   4.420   2.152  0.1464  0.2765  0.2136
 5705SOL    HW129588   4.822   4.356   2.082 -0.0207  0.8489 -0.2422
 5705SOL    HW229589   4.777   4.435   2.217 -0.1496  0.7645 -0.2358
 5706SOL     OW29590   5.419   6.328   4.692 -0.2128 -0.3599  0.1348
 5706SOL    HW129591   5.399   6.334   4.790 -0.3385  0.2635  0.0729
 5706SOL    HW229592   5.423   6.420   4.653  0.9760 -0.5628 -0.2260
 5707SOL     OW29593   8.351   5.784   8.309  0.3467  0.0976 -0.0686
 5707SOL    HW129594   8.313   5.714   8.368  0.9393 -0.7011 -0.6164
 5707SOL    HW229595   8.279   5.848   8.282 -0.5714 -1.2647 -0.9267
 5708SOL     OW29596   3.231   5.847   1.775 -0.1938  0.1110  0.7202
 5708SOL    HW129597   3.196   5.787   1.847  2.1005 -1.1626  0.8313
 5708SOL    HW229598   3.211   5.942   1.797 -1.2184 -0.4013  2.0663
 5709SOL     OW29599   1.330   6.165   4.282  0.3744 -0.3751 -0.1634
 5709SOL    HW129600   1.317   6.106   4.361  0.9838  0.5182  0.6171
 5709SOL    HW229601   1.324   6.111   4.198 -0.1631 -1.3443  0.4948
 5710SOL     OW29602   7.133   3.786   5.134 -0.6190  0.1199 -0.5350
 5710SOL    HW129603   7.187   3.740   5.204 -0.8357 -2.5944 -2.0989
 5710SOL    HW229604   7.179   3.871   5.108  0.8518 -0.1942  0.9387
 5711SOL     OW29605   4.208   5.431   5.927 -0.0886  0.0148  0.0547
 5711SOL    HW129606   4.110   5.428   5.904  0.3933  0.8080 -2.2312
 5711SOL    HW229607   4.224   5.380   6.012 -2.1839 -1.8970 -0.6509
 5712SOL     OW29608   3.725   3.804   1.394 -0.4152  0.3295 -0.3308
 5712SOL    HW129609   3.808   3.747   1.391 -0.4938  0.2419 -1.1823
 5712SOL    HW229610   3.742   3.884   1.451 -0.5607 -0.9395  1.5055
 5713SOL     OW29611   2.766   4.920   2.814  0.2677  0.4533 -0.0170
 5713SOL    HW129612   2.677   4.933   2.769 -1.0707  0.9410  2.7062
 5713SOL    HW229613   2.789   5.002   2.865  1.4166 -0.3838  0.8198
 5714SOL     OW29614   0.579   7.307   0.802 -0.5801  0.3404  0.0047
 5714SOL    HW129615   0.650   7.313   0.871 -0.5092  0.1822 -0.0539
 5714SOL    HW229616   0.614   7.258   0.722 -1.0474 -0.5941  0.3618
 5715SOL     OW29617   5.554   5.058   0.086  0.1067  0.4030  0.5543
 5715SOL    HW129618   5.487   4.994   0.124 -1.7776  1.7470 -0.4166
 5715SOL    HW229619   5.600   5.106   0.161  0.9436 -1.4517  1.2632
 5716SOL     OW29620   1.428   1.219   0.800  0.4347 -0.4645  0.0244
 5716SOL    HW129621   1.459   1.124   0.789 -1.1092 -1.5049  3.7199
 5716SOL    HW229622   1.502   1.282   0.776  1.9605 -2.6155 -1.1038
 5717SOL     OW29623   5.461   6.280   6.718  0.9054 -0.2557 -0.2355
 5717SOL    HW129624   5.425   6.330   6.639  2.7274 -0.1592 -1.0310
 5717SOL    HW229625   5.523   6.209   6.686  1.5749 -0.2930  1.1194
 5718SOL     OW29626   4.147   2.728   3.063  0.0506  0.1954 -0.5588
 5718SOL    HW129627   4.193   2.692   3.143 -0.2122 -1.7522 -1.2525
 5718SOL    HW229628   4.184   2.685   2.980  0.2267  2.0612 -1.4879
 5719SOL     OW29629   5.688   6.547   3.185 -0.2876  0.2437  0.2264
 5719SOL    HW129630   5.703   6.485   3.263  2.7523 -0.2432 -0.7140
 5719SOL    HW229631   5.653   6.635   3.219 -0.1326 -0.3619  2.0116
 5720SOL     OW29632   8.253   3.278   5.911 -0.4082 -0.1143 -0.0244
 5720SOL    HW129633   8.340   3.298   5.956  0.0453  1.1330 -1.4126
 5720SOL    HW229634   8.270   3.243   5.819 -1.3526 -1.4075  0.2753
 5721SOL     OW29635   8.635   0.772   8.857 -0.7510 -0.0121  0.3987
 5721SOL    HW129636   8.631   0.674   8.837 -0.6070  0.2812 -1.0928
 5721SOL    HW229637   8.692   0.787   8.938  1.0201 -0.9611 -0.6545
 5722SOL     OW29638   1.683   6.785   3.505 -0.8760 -0.0729  0.1222
 5722SOL    HW129639   1.600   6.739   3.535 -1.5045  1.6489  1.0627
 5722SOL    HW229640   1.681   6.881   3.533  1.5423 -0.0661  0.3920
 5723SOL     OW29641   1.126   7.919   5.238  0.2630  0.8649  0.3749
 5723SOL    HW129642   1.181   7.912   5.154  1.0615 -0.0682  0.9709
 5723SOL    HW229643   1.075   8.005   5.237  0.5508  1.0344 -0.8970
 5724SOL     OW29644   5.944   0.224   7.267  0.2759  0.0038  0.5935
 5724SOL    HW129645   5.974   0.306   7.316  1.8457  0.7076 -1.4428
 5724SOL    HW229646   5.844   0.219   7.268  0.1270  2.1795  0.4213
 5725SOL     OW29647   4.958   1.950   7.162  0.0488 -0.4023  0.0387
 5725SOL    HW129648   4.969   2.044   7.130 -1.2786  0.6427  2.5265
 5725SOL    HW229649   4.890   1.903   7.105  0.4902  0.2281 -1.0142
 5726SOL     OW29650   2.374   7.242   8.764  0.2835  0.3672 -0.2629
 5726SOL    HW129651   2.418   7.329   8.741 -1.3876  2.0092  2.3950
 5726SOL    HW229652   2.276   7.248   8.745 -0.0751 -0.4339  1.2239
 5727SOL     OW29653   1.088   0.783   6.924  0.4193  0.0667 -0.0502
 5727SOL    HW129654   1.176   0.777   6.879  1.2953  1.0962  1.4609
 5727SOL    HW229655   1.080   0.710   6.993  0.2145  0.1447  0.0118
 5728SOL     OW29656   0.890   8.821   6.151 -0.0984  0.2840  0.4161
 5728SOL    HW129657   0.935   8.907   6.128  0.1172  0.2481  0.7048
 5728SOL    HW229658   0.918   8.792   6.242 -1.2708  0.6411  0.8960
 5729SOL     OW29659   5.793   6.433   2.635 -0.3351  0.0439 -0.3535
 5729SOL    HW129660   5.798   6.515   2.692 -0.4466 -0.8035  0.8906
 5729SOL    HW229661   5.757   6.357   2.689  1.8488 -1.3973 -0.8501
 5730SOL     OW29662   5.574   1.853   6.208  0.3237  0.8176  0.6744
 5730SOL    HW129663   5.561   1.801   6.293  0.0284  0.9468  0.7120
 5730SOL    HW229664   5.519   1.811   6.135  1.1340  0.2873  0.3668
 5731SOL     OW29665   3.884   7.952   5.511 -0.8119  0.2359 -0.1156
 5731SOL    HW129666   3.956   7.894   5.473  0.2924  2.2943 -1.2725
 5731SOL    HW229667   3.827   7.987   5.437 -3.4379 -1.8856  0.8555
 5732SOL     OW29668   6.405   0.899   2.317 -0.1045  0.2750  0.1592
 5732SOL    HW129669   6.366   0.813   2.286  0.3146  0.5113 -1.0453
 5732SOL    HW229670   6.350   0.975   2.283  2.1475  0.6815 -2.7394
 5733SOL     OW29671   4.667   3.059   0.587 -0.2921  0.0578 -0.3089
 5733SOL    HW129672   4.645   3.150   0.550  0.2007  0.1816 -0.3004
 5733SOL    HW229673   4.583   3.006   0.597 -0.5008  0.2520 -1.0050
 5734SOL     OW29674   2.217   2.476   6.726 -0.5478  0.1432 -0.6074
 5734SOL    HW129675   2.121   2.501   6.730 -0.6404 -0.4487  1.0398
 5734SOL    HW229676   2.234   2.397   6.785  1.2627  1.3237  0.5163
 5735SOL     OW29677   5.218   7.073   8.309  0.1415 -0.4459  0.1537
 5735SOL    HW129678   5.275   7.052   8.389  1.5927  0.4439 -0.6227
 5735SOL    HW229679   5.231   7.002   8.240  1.0869  0.2661 -0.4158
 5736SOL     OW29680   8.056   6.945   0.054 -0.0967  0.5277 -0.2291
 5736SOL    HW129681   8.118   6.885   0.004  0.4263  2.4120 -1.9239
 5736SOL    HW229682   8.081   6.945   0.151  2.0700  0.6321 -0.7471
 5737SOL     OW29683   6.465   8.764   0.818 -0.3242 -0.0247  0.1586
 5737SOL    HW129684   6.543   8.819   0.787 -1.0475 -0.2902 -2.2793
 5737SOL    HW229685   6.483   8.668   0.800 -1.5387 -0.0114 -1.1898
 5738SOL     OW29686   7.252   5.105   6.633 -0.1251 -0.1159  0.1065
 5738SOL    HW129687   7.220   5.017   6.668 -0.5981  0.4757  1.1802
 5738SOL    HW229688   7.340   5.127   6.674  0.0646 -0.1491 -0.2763
 5739SOL     OW29689   2.496   1.803   7.394 -0.1693  0.2415  0.0621
 5739SOL    HW129690   2.546   1.773   7.476  0.2490 -1.2806 -0.7216
 5739SOL    HW229691   2.400   1.779   7.402 -0.2138  0.5122  0.3151
 5740SOL     OW29692   1.207   4.269   7.460 -0.2770 -0.2288  0.4929
 5740SOL    HW129693   1.228   4.187   7.514 -0.6005 -1.2183 -0.8699
 5740SOL    HW229694   1.267   4.273   7.380  1.4124  2.1692  1.8171
 5741SOL     OW29695   0.867   7.378   3.522 -0.2211  0.3167 -0.0987
 5741SOL    HW129696   0.780   7.389   3.571 -0.2795  3.8076 -0.8588
 5741SOL    HW229697   0.855   7.315   3.445 -1.6342 -0.4705  0.7397
 5742SOL     OW29698   8.445   2.050   6.365  0.2280 -0.0565 -0.3505
 5742SOL    HW129699   8.533   2.011   6.337 -0.3227 -0.8357 -0.9896
 5742SOL    HW229700   8.386   2.060   6.285 -1.1155 -1.7079  0.4109
 5743SOL     OW29701   2.829   1.325   3.511  0.0835  0.0350 -0.5185
 5743SOL    HW129702   2.763   1.395   3.538 -1.0510 -1.3484  0.3683
 5743SOL    HW229703   2.807   1.239   3.557 -1.6015 -2.2754 -5.3207
 5744SOL     OW29704   1.979   5.568   6.292 -0.0338 -0.1633 -0.1299
 5744SOL    HW129705   1.890   5.553   6.335 -0.3534  1.6158 -0.1337
 5744SOL    HW229706   1.975   5.648   6.232  1.4256 -0.3876 -0.5690
 5745SOL     OW29707   5.518   3.211   5.423  0.2568 -0.1739  0.2318
 5745SOL    HW129708   5.512   3.167   5.512 -0.4123  1.0641  0.8161
 5745SOL    HW229709   5.613   3.238   5.406  0.3829 -0.3998  0.5770
 5746SOL     OW29710   3.646   3.641   1.801 -0.1868 -0.5349  0.4854
 5746SOL    HW129711   3.556   3.670   1.832 -1.0075 -2.9619  0.4634
 5746SOL    HW229712   3.642   3.616   1.704 -0.0524 -2.8922  1.0725
 5747SOL     OW29713   6.572   5.263   4.943 -0.3596  0.7136 -0.4389
 5747SOL    HW129714   6.622   5.254   4.857  1.6672  0.7246  0.7112
 5747SOL    HW229715   6.580   5.179   4.996 -0.6281  1.1122  0.2457
 5748SOL     OW29716   8.875   1.940   1.015  0.1138 -0.3040  0.0279
 5748SOL    HW129717   8.961   1.942   0.965 -0.2572 -1.7809 -0.7056
 5748SOL    HW229718   8.799   1.952   0.952 -0.2714 -0.1106  0.5208
 5749SOL     OW29719   6.178   7.200   8.559  0.0134 -0.6459 -0.2647
 5749SOL    HW129720   6.219   7.116   8.596 -0.3076 -0.4903  0.4452
 5749SOL    HW229721   6.086   7.211   8.596 -0.1831 -0.3109 -0.8558
 5750SOL     OW29722   1.446   8.864   6.865  0.2058 -0.0368 -0.1851
 5750SOL    HW129723   1.372   8.874   6.799 -1.5661 -3.6224  1.1124
 5750SOL    HW229724   1.533   8.849   6.818 -0.2995  1.6516 -1.6874
 5751SOL     OW29725   8.927   1.930   4.127  0.4559  0.8878  0.3683
 5751SOL    HW129726   8.970   1.842   4.108  0.4527  0.5954  1.7194
 5751SOL    HW229727   8.845   1.917   4.182 -0.4269  1.6004 -0.7634
 5752SOL     OW29728   0.457   7.516   4.222  0.1387  0.5069  0.1047
 5752SOL    HW129729   0.371   7.495   4.269  1.5300 -1.5312  1.8290
 5752SOL    HW229730   0.513   7.575   4.280  0.4457  0.7697 -0.4567
 5753SOL     OW29731   4.001   0.711   1.096  0.0130 -0.3622 -0.0647
 5753SOL    HW129732   4.027   0.807   1.098 -1.0909 -0.0631  0.0300
 5753SOL    HW229733   4.036   0.665   1.178 -0.1346  0.1260  0.2687
 5754SOL     OW29734   4.851   3.795   7.896 -0.0205 -0.1818  0.3454
 5754SOL    HW129735   4.822   3.728   7.965  0.7182 -1.3698 -0.4900
 5754SOL    HW229736   4.884   3.747   7.815  1.6946  1.1662  0.2185
 5755SOL     OW29737   0.623   7.125   7.397 -0.0467  0.3344  0.1367
 5755SOL    HW129738   0.656   7.077   7.316  1.0178  1.0223  0.1569
 5755SOL    HW229739   0.642   7.070   7.479 -1.0089 -0.3022 -0.0554
 5756SOL     OW29740   2.820   5.543   7.978 -0.2635  0.1090  0.2809
 5756SOL    HW129741   2.775   5.603   7.911 -0.6996 -1.3148 -0.7411
 5756SOL    HW229742   2.917   5.534   7.955 -1.0885 -3.2611 -2.4465
 5757SOL     OW29743   5.910   4.953   2.325  0.0368 -0.2506  0.0561
 5757SOL    HW129744   5.868   4.863   2.316  0.0758 -0.2813  0.1750
 5757SOL    HW229745   5.924   4.974   2.422 -0.8168  0.2805  0.0711
 5758SOL     OW29746   4.683   5.335   3.556 -0.0986  0.1098 -0.2590
 5758SOL    HW129747   4.649   5.406   3.495  0.1287  0.8009  0.4163
 5758SOL    HW229748   4.607   5.292   3.604 -0.3228 -0.7387 -1.3362
 5759SOL     OW29749   0.845   7.096   7.710  0.2368 -0.1889  0.0860
 5759SOL    HW129750   0.794   7.175   7.675  0.9064  0.8042  1.3166
 5759SOL    HW229751   0.784   7.040   7.766  0.1779  0.3810  0.6065
 5760SOL     OW29752   5.591   2.837   1.762  0.4092 -0.3600  0.1069
 5760SOL    HW129753   5.678   2.799   1.792  0.6945  0.9222  0.9388
 5760SOL    HW229754   5.528   2.762   1.740  1.2906 -1.3052  0.7467
 5761SOL     OW29755   1.706   5.948   6.367 -0.4014  0.5958  0.0867
 5761SOL    HW129756   1.761   5.906   6.439  0.1870 -2.3288 -1.9738
 5761SOL    HW229757   1.705   6.047   6.379  2.7218  0.4588  1.9417
 5762SOL     OW29758   3.043   1.817   1.773  0.0149 -0.3057 -0.2364
 5762SOL    HW129759   3.026   1.800   1.870  1.0969  1.2616  0.2441
 5762SOL    HW229760   3.086   1.736   1.732  0.6783 -0.5363  0.8793
 5763SOL     OW29761   7.818   6.754   3.535  0.1970  0.0686 -0.0537
 5763SOL    HW129762   7.823   6.661   3.571  0.6710  0.6626  1.4754
 5763SOL    HW229763   7.750   6.759   3.462  0.2160 -1.4781 -0.1870
 5764SOL     OW29764   0.862   0.693   1.690 -0.5392  0.4598  0.2964
 5764SOL    HW129765   0.887   0.749   1.769  0.2899  1.4122 -0.6266
 5764SOL    HW229766   0.765   0.707   1.670 -0.9799 -0.5093  1.7096
 5765SOL     OW29767   4.442   5.853   7.984 -0.0172 -0.0406 -0.6371
 5765SOL    HW129768   4.437   5.759   8.017 -1.9397  0.0699 -0.5531
 5765SOL    HW229769   4.497   5.907   8.047 -1.8740 -0.3190  1.3065
 5766SOL     OW29770   7.513   4.340   7.480 -0.1905 -0.3093 -0.5255
 5766SOL    HW129771   7.547   4.333   7.574 -3.8200 -0.4950  0.8619
 5766SOL    HW229772   7.523   4.434   7.448  0.8625 -0.1880  0.1333
 5767SOL     OW29773   5.906   1.761   8.649 -0.0836  0.3987  0.3457
 5767SOL    HW129774   5.945   1.853   8.645 -0.1238  0.4743  1.4976
 5767SOL    HW229775   5.895   1.734   8.745 -1.2435 -0.3143  0.0182
 5768SOL     OW29776   4.495   5.289   6.207  0.3445 -0.4179 -0.1156
 5768SOL    HW129777   4.554   5.362   6.240 -0.7788 -0.0903  1.1904
 5768SOL    HW229778   4.402   5.324   6.193  0.2595 -1.1196 -1.3866
 5769SOL     OW29779   3.596   3.635   0.899 -0.6185  0.5524  0.1144
 5769SOL    HW129780   3.599   3.590   0.988  4.2105 -1.5222 -0.9318
 5769SOL    HW229781   3.568   3.570   0.829  0.6600  0.7052 -0.5690
 5770SOL     OW29782   6.617   2.223   8.507  0.0348  0.3138  0.5994
 5770SOL    HW129783   6.571   2.250   8.422 -0.8688 -1.5612  0.4673
 5770SOL    HW229784   6.555   2.239   8.584  0.1921  0.3690  0.7132
 5771SOL     OW29785   5.441   5.844   6.502  0.6063 -0.2678 -0.8453
 5771SOL    HW129786   5.472   5.878   6.413 -0.9670  3.2476 -0.1510
 5771SOL    HW229787   5.354   5.796   6.490 -0.6788  2.0069 -1.0110
 5772SOL     OW29788   7.600   5.587   5.255  0.0804 -0.0223 -0.1711
 5772SOL    HW129789   7.517   5.574   5.200  0.1923 -0.7663 -0.1677
 5772SOL    HW229790   7.576   5.589   5.352 -0.1232  1.3412 -0.2368
 5773SOL     OW29791   3.884   1.961   2.702 -0.2294  0.0644 -0.1449
 5773SOL    HW129792   3.939   1.887   2.741  1.2035  1.0831 -0.1836
 5773SOL    HW229793   3.788   1.933   2.698  0.5127 -2.4669 -1.7596
 5774SOL     OW29794   8.525   1.665   8.303  0.0324 -0.2991  0.2199
 5774SOL    HW129795   8.623   1.675   8.320 -0.2093  1.8898  0.4406
 5774SOL    HW229796   8.507   1.574   8.266  2.0083 -1.1006  1.1741
 5775SOL     OW29797   0.001   8.376   7.912 -0.0015 -0.1553  0.0578
 5775SOL    HW129798   0.030   8.348   8.003 -3.3858 -2.6262  0.5038
 5775SOL    HW229799   0.080   8.378   7.850  1.6082 -3.2009  1.9217
 5776SOL     OW29800   1.185   2.794   5.375 -0.0583 -0.2093  0.2524
 5776SOL    HW129801   1.090   2.765   5.385 -0.2300  0.6993  1.4293
 5776SOL    HW229802   1.212   2.788   5.279 -1.3693 -0.2663 -0.1228
 5777SOL     OW29803   3.155   6.421   0.944 -0.3091 -0.9928  0.1203
 5777SOL    HW129804   3.167   6.340   0.886 -2.0966  1.0392 -3.2852
 5777SOL    HW229805   3.241   6.473   0.946 -0.0221 -1.4558 -0.1004
 5778SOL     OW29806   3.884   0.070   8.296 -0.5112 -0.2393 -0.2147
 5778SOL    HW129807   3.790   0.090   8.266 -0.8358 -0.0609  0.8896
 5778SOL    HW229808   3.909   0.133   8.369 -0.7257 -2.3965  1.7665
 5779SOL     OW29809   7.785   3.426   2.768  0.1114 -0.7501  0.1021
 5779SOL    HW129810   7.686   3.433   2.762  0.1502 -0.4315 -0.2198
 5779SOL    HW229811   7.816   3.350   2.710  0.2851  0.8749 -1.9940
 5780SOL     OW29812   0.961   8.339   4.922  0.9724 -0.2951 -0.3143
 5780SOL    HW129813   0.887   8.311   4.983  0.5821 -1.2808 -1.2277
 5780SOL    HW229814   0.953   8.436   4.902 -0.1285 -0.4227 -0.4938
 5781SOL     OW29815   5.605   8.298   4.001  0.5538 -1.0205  0.0157
 5781SOL    HW129816   5.560   8.291   4.090  0.7841 -1.0218  0.1322
 5781SOL    HW229817   5.536   8.290   3.929  0.2239  0.0599  0.2021
 5782SOL     OW29818   2.193   5.195   3.673 -0.2241  0.4536  0.2033
 5782SOL    HW129819   2.239   5.193   3.584 -0.3864 -0.6350  0.1410
 5782SOL    HW229820   2.261   5.214   3.744  0.1502 -0.0673 -0.0079
 5783SOL     OW29821   2.880   8.362   7.383 -0.1373  0.8316 -0.0966
 5783SOL    HW129822   2.856   8.387   7.477  0.7976  1.1764  0.0492
 5783SOL    HW229823   2.915   8.268   7.381 -0.1878  0.8136 -0.1098
 5784SOL     OW29824   0.752   6.968   0.729 -0.7448  0.0402 -0.1927
 5784SOL    HW129825   0.663   6.923   0.739 -1.1497  1.0327  0.7656
 5784SOL    HW229826   0.739   7.060   0.694 -0.0348 -0.0161 -0.6278
 5785SOL     OW29827   7.933   5.216   0.076 -0.2065 -0.1225  0.1368
 5785SOL    HW129828   7.993   5.295   0.065 -2.0999  1.5003  1.1394
 5785SOL    HW229829   7.873   5.209  -0.004 -1.3246  0.6121  0.8926
 5786SOL     OW29830   0.383   0.602   6.451  0.1127 -0.4633 -0.0788
 5786SOL    HW129831   0.407   0.596   6.354  1.2326 -3.2842  0.3155
 5786SOL    HW229832   0.351   0.694   6.472 -2.8289 -0.5220 -3.7199
 5787SOL     OW29833   1.437   0.328   5.667  0.0482  0.5290 -0.2972
 5787SOL    HW129834   1.381   0.377   5.600 -0.1301  0.6239 -0.0790
 5787SOL    HW229835   1.392   0.244   5.694 -1.7061  2.2960  2.5289
 5788SOL     OW29836   0.038   4.991   6.048 -0.0978 -0.1108  0.3327
 5788SOL    HW129837  -0.024   5.054   6.095 -0.0626  1.2576 -1.3861
 5788SOL    HW229838   0.006   4.897   6.060 -0.3510  0.2343  2.6541
 5789SOL     OW29839   8.706   0.497   0.913 -0.2729 -0.1644  0.0599
 5789SOL    HW129840   8.644   0.571   0.939 -0.2613 -0.0151 -0.3277
 5789SOL    HW229841   8.664   0.441   0.842  0.4510  0.5559 -0.9464
 5790SOL     OW29842   2.552   6.625   0.612 -0.3045 -0.4486  0.8355
 5790SOL    HW129843   2.479   6.562   0.583 -0.9269 -0.3476  2.1636
 5790SOL    HW229844   2.569   6.613   0.709  0.2691  0.7458  0.8862
 5791SOL     OW29845   6.398   0.528   2.954  0.4602 -0.1506  0.0537
 5791SOL    HW129846   6.330   0.579   2.901  0.3558 -1.1803 -0.8364
 5791SOL    HW229847   6.441   0.588   3.021 -1.7167  0.3855  0.9957
 5792SOL     OW29848   6.715   5.389   7.954 -0.1321 -0.5349  0.4425
 5792SOL    HW129849   6.746   5.397   8.049 -1.3200 -0.0774  0.8101
 5792SOL    HW229850   6.731   5.476   7.907 -0.0981 -0.5671  0.3950
 5793SOL     OW29851   7.987   0.030   1.001 -0.4016 -0.5386  0.5066
 5793SOL    HW129852   8.059   0.083   0.955 -0.3288 -0.1058  1.1170
 5793SOL    HW229853   8.025  -0.054   1.037 -0.1044 -0.0979  1.2250
 5794SOL     OW29854   8.235   3.063   5.662 -0.0517  0.0196  0.2923
 5794SOL    HW129855   8.187   3.047   5.748  2.0799 -1.0193  1.3272
 5794SOL    HW229856   8.203   2.997   5.593 -1.8181  0.9127  0.2409
 5795SOL     OW29857   0.231   0.775   2.592  0.3665  0.3902  0.3017
 5795SOL    HW129858   0.184   0.803   2.675  1.5432 -0.8306  1.4109
 5795SOL    HW229859   0.291   0.848   2.560 -2.2465  1.9742 -1.1510
 5796SOL     OW29860   7.151   1.811   1.097  0.2120  0.0930 -0.0245
 5796SOL    HW129861   7.229   1.839   1.042  0.2715  1.2960  0.6548
 5796SOL    HW229862   7.115   1.890   1.147 -2.7081 -0.0108 -1.8780
 5797SOL     OW29863   3.821   1.833   6.109 -0.3422  0.1179 -0.2566
 5797SOL    HW129864   3.748   1.766   6.095  1.4716 -1.7717 -0.9190
 5797SOL    HW229865   3.856   1.864   6.020  0.6305 -0.0834  0.0442
 5798SOL     OW29866   6.175   0.922   1.315 -0.4455 -0.7345 -0.5104
 5798SOL    HW129867   6.262   0.875   1.330 -0.7330 -1.5697 -1.3689
 5798SOL    HW229868   6.101   0.866   1.353 -1.0111 -2.0772 -3.4207
 5799SOL     OW29869   0.047   3.563   0.916  0.3548 -0.6641 -0.1411
 5799SOL    HW129870   0.002   3.502   0.850  1.1537 -1.8188  0.3626
 5799SOL    HW229871   0.077   3.646   0.869 -1.1068 -0.4624 -0.7569
 5800SOL     OW29872   6.836   3.580   1.906  0.4152  0.0315 -0.0018
 5800SOL    HW129873   6.740   3.605   1.894  0.3120 -0.3569  0.0239
 5800SOL    HW229874   6.886   3.598   1.822  0.1192 -0.7118 -0.3338
 5801SOL     OW29875   8.513   7.574   4.954 -0.2622 -0.5200  0.5142
 5801SOL    HW129876   8.562   7.506   4.898  0.9153 -0.0107  0.9046
 5801SOL    HW229877   8.470   7.641   4.894  1.9536  0.6884  0.2031
 5802SOL     OW29878   4.632   4.664   5.501 -0.4818  0.2870 -0.3255
 5802SOL    HW129879   4.550   4.606   5.501 -0.9351  0.9253  0.4908
 5802SOL    HW229880   4.608   4.756   5.530  0.1858  0.9817 -1.9091
 5803SOL     OW29881   3.486   4.883   4.652  0.3605 -0.1518  0.4943
 5803SOL    HW129882   3.541   4.843   4.725  1.1377 -1.7058 -0.9047
 5803SOL    HW229883   3.539   4.953   4.605  0.2964 -0.0008  0.6468
 5804SOL     OW29884   6.453   4.578   5.985 -0.3652 -0.2597  0.3967
 5804SOL    HW129885   6.408   4.572   5.896 -2.4724 -0.2546  1.4283
 5804SOL    HW229886   6.514   4.500   5.997 -1.1393 -1.0097 -0.4644
 5805SOL     OW29887   1.445   0.235   0.106  0.1672  0.2294  0.1484
 5805SOL    HW129888   1.479   0.315   0.155 -2.7305  1.2378  0.6124
 5805SOL    HW229889   1.440   0.256   0.008 -0.7112  0.6630  0.2852
 5806SOL     OW29890   3.869   5.763   1.460 -0.2077  0.6303  0.3769
 5806SOL    HW129891   3.839   5.761   1.365  0.7543 -1.4004  0.0882
 5806SOL    HW229892   3.896   5.856   1.484  2.2007  0.6975 -2.2284
 5807SOL     OW29893   1.819   2.168   1.711 -0.2077  0.6057  0.7158
 5807SOL    HW129894   1.808   2.073   1.681 -2.6575  0.9904  0.2639
 5807SOL    HW229895   1.916   2.191   1.715  0.3659 -1.3946 -0.8297
 5808SOL     OW29896   3.965   6.653   1.655 -0.4660  0.5264 -0.2757
 5808SOL    HW129897   3.911   6.716   1.599 -1.1700 -1.3054 -1.7225
 5808SOL    HW229898   3.907   6.577   1.685  0.4167  0.4434  1.2801
 5809SOL     OW29899   7.098   4.021   6.462  0.3263  0.2990  0.4271
 5809SOL    HW129900   7.158   3.945   6.485 -0.9776 -0.0844  2.6947
 5809SOL    HW229901   7.109   4.094   6.529 -0.1541  1.1218 -0.3739
 5810SOL     OW29902   8.663   7.268   2.752  0.1286  0.0872 -0.0609
 5810SOL    HW129903   8.753   7.295   2.720  0.1200 -0.0226 -0.1765
 5810SOL    HW229904   8.663   7.171   2.777  0.0657  0.1060  0.0127
 5811SOL     OW29905   3.979   3.961   0.105 -0.5314  0.1750  0.1706
 5811SOL    HW129906   3.953   3.872   0.066 -1.0715  0.6783 -0.6217
 5811SOL    HW229907   4.077   3.977   0.089 -0.5109 -0.1184  0.0002
 5812SOL     OW29908   6.487   2.401   0.752 -0.1060 -0.6747  0.0961
 5812SOL    HW129909   6.486   2.304   0.775 -0.8210 -0.8574 -0.7196
 5812SOL    HW229910   6.421   2.420   0.680  0.4792  0.3074 -0.2018
 5813SOL     OW29911   4.071   5.876   0.838  0.1069  0.0494 -0.2329
 5813SOL    HW129912   4.146   5.932   0.804  0.1991 -0.2884 -0.5947
 5813SOL    HW229913   4.086   5.853   0.934  0.7617 -0.4972 -0.4580
 5814SOL     OW29914   3.689   7.192   0.412  0.0276 -0.2974  0.2000
 5814SOL    HW129915   3.673   7.198   0.510  1.6746  1.1703  0.4149
 5814SOL    HW229916   3.692   7.284   0.373  1.3413 -0.7721 -0.8793
 5815SOL     OW29917   4.189   2.291   1.225 -0.3456  0.0614  0.6445
 5815SOL    HW129918   4.180   2.384   1.262 -2.9511 -1.2618  3.5065
 5815SOL    HW229919   4.252   2.239   1.283  3.0483  0.6138 -2.3243
 5816SOL     OW29920   4.220   6.295   0.361 -0.1959 -0.3050  0.0675
 5816SOL    HW129921   4.164   6.378   0.364 -2.0906 -1.4608 -1.7806
 5816SOL    HW229922   4.161   6.214   0.357  1.5737 -1.6009 -1.3055
 5817SOL     OW29923   4.759   2.133   7.986  0.6282  0.1184 -0.1701
 5817SOL    HW129924   4.823   2.203   7.954  2.8918 -2.4569 -1.5170
 5817SOL    HW229925   4.801   2.080   8.059 -0.2414 -1.1559 -0.5692
 5818SOL     OW29926   0.746   4.470   2.599 -0.3436  0.1227 -0.0135
 5818SOL    HW129927   0.663   4.470   2.654 -0.7520 -0.4453 -0.6187
 5818SOL    HW229928   0.826   4.483   2.658 -0.8494  0.5205  0.5869
 5819SOL     OW29929   6.439   8.970   6.893 -0.3273 -0.8336  0.4263
 5819SOL    HW129930   6.411   9.063   6.914 -0.9164 -0.9773  0.3064
 5819SOL    HW229931   6.366   8.924   6.841  0.6849 -0.7905 -1.0784
 5820SOL     OW29932   8.379   7.396   5.150  0.2157 -0.4812 -0.7105
 5820SOL    HW129933   8.447   7.323   5.147 -0.6602 -1.2956 -0.8866
 5820SOL    HW229934   8.412   7.474   5.096  1.3345 -0.5744 -0.1812
 5821SOL     OW29935   1.198   1.069   8.230 -0.3580  0.2590 -0.2866
 5821SOL    HW129936   1.241   0.981   8.211 -1.5848 -0.5775  0.7322
 5821SOL    HW229937   1.263   1.130   8.276  0.6741  0.1018 -1.5240
 5822SOL     OW29938   4.154   3.500   8.889  0.3059 -0.5098 -0.5729
 5822SOL    HW129939   4.193   3.421   8.841 -1.5814 -2.0619  0.3610
 5822SOL    HW229940   4.115   3.470   8.976 -1.6713  1.2158 -0.8334
 5823SOL     OW29941   5.673   8.189   6.793 -0.7169  0.6013  0.1324
 5823SOL    HW129942   5.667   8.116   6.725 -0.0921  0.7219 -0.0472
 5823SOL    HW229943   5.607   8.261   6.770 -1.2750  0.1384  0.2622
 5824SOL     OW29944   2.187   1.285   5.254 -0.3643 -0.3002  0.3426
 5824SOL    HW129945   2.225   1.206   5.206 -1.7639 -1.1575  0.6100
 5824SOL    HW229946   2.160   1.258   5.346 -1.0023  0.4469  0.3785
 5825SOL     OW29947   5.744   6.703   5.007  0.0764 -0.2115  0.0130
 5825SOL    HW129948   5.690   6.646   5.070 -1.1408  2.5510  1.5911
 5825SOL    HW229949   5.826   6.735   5.054 -1.0556  2.2248  0.3677
 5826SOL     OW29950   0.442   8.979   7.272  0.9730  0.4888 -0.5991
 5826SOL    HW129951   0.380   8.991   7.195 -0.0209  0.2245  0.1520
 5826SOL    HW229952   0.500   9.061   7.281  1.4268  0.3194 -1.9061
 5827SOL     OW29953   1.798   5.935   7.190  0.0412 -1.0533  0.2488
 5827SOL    HW129954   1.810   5.971   7.097 -0.3390 -0.6494  0.3518
 5827SOL    HW229955   1.733   5.858   7.188  1.6003 -2.3766 -0.1133
 5828SOL     OW29956   3.369   1.627   1.810 -0.1948 -0.1666 -0.0928
 5828SOL    HW129957   3.412   1.546   1.769  1.6244  0.3587  0.6989
 5828SOL    HW229958   3.298   1.598   1.874  1.7233 -1.2537  1.6219
 5829SOL     OW29959   8.520   7.531   7.440 -0.0865  0.0527  0.4668
 5829SOL    HW129960   8.421   7.536   7.439 -0.0173  1.3511 -1.1920
 5829SOL    HW229961   8.556   7.588   7.513 -0.4788  1.2779 -0.2963
 5830SOL     OW29962   1.523   7.921   6.499  0.1531  0.0238 -0.7919
 5830SOL    HW129963   1.540   7.828   6.534 -0.2862 -0.6499 -2.3215
 5830SOL    HW229964   1.609   7.971   6.494  0.7130 -1.0203 -1.9470
 5831SOL     OW29965   6.785   2.422   5.625  0.2657  0.3067  0.4057
 5831SOL    HW129966   6.818   2.373   5.705  1.3922  0.2150 -0.1110
 5831SOL    HW229967   6.700   2.379   5.593 -0.5964  0.7957  1.9698
 5832SOL     OW29968   3.104   3.582   7.553 -0.0823 -0.2413 -0.0767
 5832SOL    HW129969   3.107   3.485   7.575 -0.0400 -0.1665  0.2478
 5832SOL    HW229970   3.084   3.594   7.456  0.5988 -0.5881 -0.2632
 5833SOL     OW29971   7.743   1.956   6.277  0.2647  0.3987  0.1282
 5833SOL    HW129972   7.673   2.020   6.245 -0.7066 -0.3458  0.7325
 5833SOL    HW229973   7.704   1.864   6.284  2.3094 -0.7866 -3.1287
 5834SOL     OW29974   4.201   3.767   2.215  0.4518  0.0574  0.1919
 5834SOL    HW129975   4.205   3.701   2.290 -0.4482 -0.4551 -0.1939
 5834SOL    HW229976   4.115   3.755   2.165  0.8608  0.6631 -0.6746
 5835SOL     OW29977   7.184   4.558   1.160 -0.0565  0.1253  0.1839
 5835SOL    HW129978   7.220   4.566   1.253  1.3030 -0.0412 -0.3129
 5835SOL    HW229979   7.148   4.647   1.131 -0.1906  0.2611  0.7576
 5836SOL     OW29980   3.195   5.217   8.156  0.0451  0.0932  0.2297
 5836SOL    HW129981   3.151   5.144   8.103  0.5461  0.5284 -0.7909
 5836SOL    HW229982   3.262   5.264   8.099 -1.2342  2.2480  0.4486
 5837SOL     OW29983   3.659   6.154   4.951 -0.5559 -0.0215 -0.0990
 5837SOL    HW129984   3.650   6.185   4.856 -0.9643  1.8328  0.5134
 5837SOL    HW229985   3.754   6.166   4.982 -0.7320  0.7410  0.1643
 5838SOL     OW29986   8.255   2.617   6.169 -0.6085  0.4050 -0.4790
 5838SOL    HW129987   8.173   2.572   6.204 -2.1291  2.5762 -1.1240
 5838SOL    HW229988   8.318   2.636   6.245 -2.1305  1.5461  0.5207
 5839SOL     OW29989   8.422   0.451   6.788  0.1806  0.3257 -0.1087
 5839SOL    HW129990   8.506   0.499   6.763 -1.7022  3.7899 -0.0268
 5839SOL    HW229991   8.409   0.455   6.887 -0.3266  0.1570 -0.1663
 5840SOL     OW29992   5.141   7.155   7.260  0.2412  0.6688  0.2919
 5840SOL    HW129993   5.237   7.183   7.261  0.1777  1.0054 -1.2998
 5840SOL    HW229994   5.134   7.057   7.246  0.3803  0.4438  1.7863
 5841SOL     OW29995   8.965   6.209   1.870  0.2395  0.1386  0.0680
 5841SOL    HW129996   9.033   6.222   1.798  1.3496  0.2026  1.1123
 5841SOL    HW229997   8.964   6.112   1.897 -0.3444  0.0695 -0.2089
 5842SOL     OW29998   3.142   1.507   1.891  0.0917 -0.3361  0.5919
 5842SOL    HW129999   3.093   1.516   1.804 -0.2633  0.4885  0.8660
 5842SOL    HW230000   3.087   1.547   1.964  0.6322 -0.5230  1.1045
 5843SOL     OW30001   5.470   3.879   7.986 -0.3315 -0.3697  0.1849
 5843SOL    HW130002   5.473   3.887   8.086 -0.1324  1.0562  0.0784
 5843SOL    HW230003   5.499   3.965   7.945  0.4387 -1.2330 -1.1223
 5844SOL     OW30004   0.112   3.891   0.886  0.0044 -0.3977 -0.4167
 5844SOL    HW130005   0.210   3.893   0.904 -0.2900  0.2566  1.2282
 5844SOL    HW230006   0.095   3.911   0.790  1.5146 -1.2663 -0.8853
 5845SOL     OW30007   3.565   1.095   0.736  0.3691 -0.4138  0.5840
 5845SOL    HW130008   3.613   1.058   0.656 -1.7818  1.5088 -1.7024
 5845SOL    HW230009   3.626   1.094   0.815  3.6942  0.5538 -1.8337
 5846SOL     OW30010   4.401   4.640   6.915 -0.4395 -0.1307 -0.2906
 5846SOL    HW130011   4.431   4.558   6.866  0.1288 -0.5704  0.7808
 5846SOL    HW230012   4.432   4.636   7.010 -1.5474  0.7054  0.1242
 5847SOL     OW30013   6.794   6.977   2.291 -0.2387  0.0922  0.1449
 5847SOL    HW130014   6.700   6.980   2.324 -0.7333 -0.6380 -1.1309
 5847SOL    HW230015   6.825   6.882   2.289  0.3140  0.2747  0.0110
 5848SOL     OW30016   0.376   5.231   3.331  0.4067 -0.2531 -0.0485
 5848SOL    HW130017   0.330   5.319   3.326  0.7747 -0.1545 -2.4659
 5848SOL    HW230018   0.474   5.246   3.344  0.5583 -0.2503 -1.0968
 5849SOL     OW30019   0.269   4.148   5.304 -0.0326 -0.5589  0.0971
 5849SOL    HW130020   0.183   4.195   5.327  0.2870  0.3864 -0.6357
 5849SOL    HW230021   0.258   4.099   5.218  0.1468 -0.4699  0.0242
 5850SOL     OW30022   7.454   2.005   7.771 -0.4060  0.1545 -0.2304
 5850SOL    HW130023   7.424   1.968   7.683  0.8893  1.5322 -1.2751
 5850SOL    HW230024   7.504   2.090   7.756  0.5715 -0.0386  1.7791
 5851SOL     OW30025   2.082   8.241   4.564 -0.0646  0.2279 -1.2467
 5851SOL    HW130026   2.181   8.250   4.574 -0.3574  1.6592  0.6990
 5851SOL    HW230027   2.053   8.152   4.599  0.4155  0.2465 -0.8030
 5852SOL     OW30028   3.614   2.383   6.012 -0.1933 -0.1335  0.4901
 5852SOL    HW130029   3.608   2.351   5.918  0.1314 -1.0954  0.7898
 5852SOL    HW230030   3.703   2.428   6.027 -0.0689 -0.3621  0.4469
 5853SOL     OW30031   2.994   7.582   1.152  0.5028  0.4248  0.4356
 5853SOL    HW130032   3.036   7.537   1.073  0.8617  1.1906  0.1882
 5853SOL    HW230033   2.898   7.602   1.132  0.9699  1.9608 -0.3855
 5854SOL     OW30034   1.137   0.106   7.361 -0.1721 -0.1160 -0.0571
 5854SOL    HW130035   1.103   0.113   7.267 -1.1573 -3.3922  0.0067
 5854SOL    HW230036   1.233   0.079   7.359 -0.3394 -0.7168 -0.1325
 5855SOL     OW30037   6.959   4.058   0.886 -0.3028 -0.2483 -0.0731
 5855SOL    HW130038   6.880   4.117   0.874 -0.9969 -0.9087  1.1807
 5855SOL    HW230039   7.015   4.092   0.962  0.4346 -0.0008 -0.7089
 5856SOL     OW30040   5.253   0.843   2.862 -0.4050  0.1446 -0.6409
 5856SOL    HW130041   5.214   0.757   2.829  1.2130 -0.8178 -0.0753
 5856SOL    HW230042   5.271   0.903   2.784  2.3497 -1.6785 -1.4655
 5857SOL     OW30043   8.857   6.135   7.134 -0.0404 -0.3795 -0.3038
 5857SOL    HW130044   8.767   6.168   7.105 -0.1403 -1.5083 -1.2608
 5857SOL    HW230045   8.928   6.176   7.077 -0.1956 -2.1291 -1.8076
 5858SOL     OW30046   8.711   7.978   8.112 -0.1662 -0.6077  0.1439
 5858SOL    HW130047   8.703   7.984   8.211 -2.5229 -2.8875  0.1494
 5858SOL    HW230048   8.645   8.039   8.069  0.2395 -0.2948 -0.0419
 5859SOL     OW30049   4.614   8.449   5.625 -0.0676  0.1804 -0.1133
 5859SOL    HW130050   4.658   8.461   5.714  0.7915 -0.1569 -0.4849
 5859SOL    HW230051   4.516   8.431   5.638 -0.2805  1.7920  0.6826
 5860SOL     OW30052   1.132   0.763   0.905  0.0168 -0.1210 -0.5455
 5860SOL    HW130053   1.181   0.733   0.987 -0.1310 -0.5205 -0.5988
 5860SOL    HW230054   1.155   0.858   0.885  2.5556 -0.9743 -1.8769
 5861SOL     OW30055   1.024   8.988   8.296 -0.2634 -0.3211 -0.3716
 5861SOL    HW130056   1.110   9.032   8.321 -0.9656  1.8703 -1.7075
 5861SOL    HW230057   1.009   8.998   8.197 -0.6851 -3.1505 -0.6343
 5862SOL     OW30058   7.940   7.127   6.316  0.5403  0.4920 -0.3213
 5862SOL    HW130059   7.970   7.109   6.222  1.1974  0.8560 -0.1832
 5862SOL    HW230060   7.843   7.154   6.315  0.7438  1.2310 -0.9808
 5863SOL     OW30061   8.816   0.656   7.192 -0.1151 -0.0410  0.5221
 5863SOL    HW130062   8.786   0.713   7.115  0.6111  1.8144  1.5717
 5863SOL    HW230063   8.751   0.581   7.205 -0.9710  0.3996 -1.0469
 5864SOL     OW30064   6.229   2.166   5.894 -0.8750 -0.4363 -0.5599
 5864SOL    HW130065   6.169   2.146   5.972  0.3919  3.9677  1.6578
 5864SOL    HW230066   6.323   2.143   5.917 -0.7010 -0.6157 -1.4161
 5865SOL     OW30067   8.729   3.876   1.291 -0.0099 -0.3013  0.1466
 5865SOL    HW130068   8.761   3.803   1.230  2.2651  0.2515  0.6270
 5865SOL    HW230069   8.807   3.932   1.320 -1.9453  3.5077 -1.6887
 5866SOL     OW30070   5.819   3.822   5.999  0.2292  0.2242  0.1801
 5866SOL    HW130071   5.862   3.776   6.076  1.0655 -0.1825 -0.5155
 5866SOL    HW230072   5.886   3.831   5.925 -0.2753  1.4880 -0.1315
 5867SOL     OW30073   3.394   0.241   8.168 -0.5773  0.3237  0.0941
 5867SOL    HW130074   3.387   0.283   8.078  0.8271 -1.6904 -0.9991
 5867SOL    HW230075   3.313   0.263   8.222 -0.2201  3.7186 -0.6921
 5868SOL     OW30076   3.962   7.843   6.716  0.2622  0.2167 -0.0977
 5868SOL    HW130077   3.876   7.792   6.723  0.6612 -0.3662  0.6812
 5868SOL    HW230078   3.981   7.864   6.621 -0.7127  0.2876 -0.2824
 5869SOL     OW30079   4.420   2.285   3.417  0.1470 -0.3215 -0.2754
 5869SOL    HW130080   4.361   2.226   3.361 -2.1635  1.7527 -0.1325
 5869SOL    HW230081   4.432   2.373   3.371  2.7714 -0.5305 -0.0465
 5870SOL     OW30082   2.052   4.492   2.322  0.3889  0.0470 -0.2011
 5870SOL    HW130083   2.061   4.551   2.243 -0.8279 -1.9660 -1.9084
 5870SOL    HW230084   1.996   4.412   2.298  0.3156 -0.8035  2.5704
 5871SOL     OW30085   1.611   3.943   6.445 -0.8064  0.1959 -0.1640
 5871SOL    HW130086   1.532   3.993   6.481 -0.9573 -0.3084  0.2203
 5871SOL    HW230087   1.592   3.845   6.449  0.7902 -0.0404  2.1673
 5872SOL     OW30088   0.531   8.966   1.063  0.0039  0.4821  0.1905
 5872SOL    HW130089   0.487   9.054   1.081 -1.1935  0.1853 -1.2265
 5872SOL    HW230090   0.609   8.979   1.002 -0.1157  0.5686  0.0558
 5873SOL     OW30091   8.020   1.024   8.391 -0.1176  0.2978 -0.0455
 5873SOL    HW130092   8.086   1.047   8.318 -0.4188  1.4354  0.0207
 5873SOL    HW230093   8.038   1.082   8.470  1.5219 -2.3524  1.5857
 5874SOL     OW30094   0.496   4.877   5.619  0.2281  0.4614  0.3308
 5874SOL    HW130095   0.402   4.850   5.602  0.4289  0.5722 -1.0825
 5874SOL    HW230096   0.498   4.961   5.672 -0.5252  1.6895 -1.5250
 5875SOL     OW30097   4.247   5.261   0.255  0.0067  0.0642 -0.1889
 5875SOL    HW130098   4.209   5.169   0.248 -0.4808  0.3970 -2.2395
 5875SOL    HW230099   4.181   5.321   0.300  0.6837 -0.7549  1.9745
 5876SOL     OW30100   3.073   2.811   8.174  0.2446 -0.6192 -0.4117
 5876SOL    HW130101   3.080   2.725   8.225  0.8680 -1.1114 -1.3185
 5876SOL    HW230102   3.028   2.794   8.086  1.6898 -0.3019 -1.2234
 5877SOL     OW30103   0.855   6.760   0.590  0.3868 -0.2580  0.3131
 5877SOL    HW130104   0.853   6.848   0.638  1.5448  0.2798 -0.5991
 5877SOL    HW230105   0.943   6.715   0.605  1.0265  0.2199 -1.8220
 5878SOL     OW30106   2.406   1.777   8.358  0.3597  0.1690 -0.0403
 5878SOL    HW130107   2.321   1.726   8.351 -0.9747  2.4221 -0.6641
 5878SOL    HW230108   2.421   1.805   8.453  0.4846 -0.3433  0.0920
 5879SOL     OW30109   1.461   1.132   4.337  0.6562 -0.0743 -0.1529
 5879SOL    HW130110   1.413   1.210   4.376 -0.2433 -0.7765  0.1573
 5879SOL    HW230111   1.399   1.055   4.330  1.6876 -0.9358  0.0538
 5880SOL     OW30112   6.053   6.957   2.814  0.1033  0.1000  0.4190
 5880SOL    HW130113   6.111   7.022   2.765  1.5091 -1.3987  0.0322
 5880SOL    HW230114   6.049   6.871   2.763 -1.5722 -0.1969  1.0180
 5881SOL     OW30115   0.426   3.709   1.693 -0.5262  0.2314  0.6621
 5881SOL    HW130116   0.426   3.634   1.627  0.6869  0.6152  0.2036
 5881SOL    HW230117   0.372   3.785   1.657  0.1761  0.4596  0.0771
 5882SOL     OW30118   8.927   7.236   8.530  0.5266 -0.0863  0.3527
 5882SOL    HW130119   8.890   7.263   8.619  0.5761  3.3051 -0.5870
 5882SOL    HW230120   8.856   7.186   8.478 -0.8808  1.4925  0.7217
 5883SOL     OW30121   6.592   3.182   3.535 -0.5261 -0.0512  0.2719
 5883SOL    HW130122   6.637   3.188   3.624 -0.4222  3.3959  0.0763
 5883SOL    HW230123   6.495   3.160   3.548 -0.2653 -0.6992  1.1533
 5884SOL     OW30124   0.786   1.315   5.863  0.0802  0.3482 -0.2205
 5884SOL    HW130125   0.787   1.284   5.958  1.1603 -0.2304 -0.4120
 5884SOL    HW230126   0.701   1.286   5.819 -1.1287  1.9424  0.9869
 5885SOL     OW30127   5.759   6.956   2.769  0.1252 -0.2879  0.0639
 5885SOL    HW130128   5.707   6.902   2.836  0.8228 -1.3360 -0.2363
 5885SOL    HW230129   5.849   6.977   2.806 -0.3563  1.2314  0.4373
 5886SOL     OW30130   6.600   5.564   5.547  0.0349  0.2635 -0.2794
 5886SOL    HW130131   6.696   5.581   5.568  0.2560 -2.0411  0.7764
 5886SOL    HW230132   6.593   5.516   5.460 -0.3738  2.7606 -1.6789
 5887SOL     OW30133   0.997   0.068   6.078 -0.7480  0.7592 -0.3102
 5887SOL    HW130134   1.079   0.010   6.076 -0.1468  1.6303 -1.3631
 5887SOL    HW230135   1.015   0.153   6.028 -1.5963  1.9034  1.2974
 5888SOL     OW30136   2.917   0.867   0.700 -0.1826  0.2098  0.3126
 5888SOL    HW130137   2.829   0.912   0.714  0.4224  1.6255 -0.2955
 5888SOL    HW230138   2.938   0.863   0.602  0.6835  0.3887  0.4813
 5889SOL     OW30139   2.468   1.037   2.256 -0.4772  0.6634 -0.2068
 5889SOL    HW130140   2.545   1.026   2.319  1.0348  3.4529 -1.5173
 5889SOL    HW230141   2.453   0.951   2.207  2.8489  0.5297 -1.0862
 5890SOL     OW30142   8.221   6.130   1.025 -0.0908 -0.0883  0.1962
 5890SOL    HW130143   8.222   6.195   1.101  0.7978 -0.2757  0.3529
 5890SOL    HW230144   8.141   6.148   0.967 -1.0125 -0.2283  1.4119
 5891SOL     OW30145   3.897   2.512   3.484  0.6394 -0.1529  0.1330
 5891SOL    HW130146   3.867   2.523   3.579  0.2641  0.3845 -0.0435
 5891SOL    HW230147   3.930   2.600   3.450  0.4253 -0.2614 -0.3549
 5892SOL     OW30148   6.850   3.325   4.516 -0.6547  0.3677  0.1460
 5892SOL    HW130149   6.854   3.248   4.452  0.8530  1.1408 -0.7231
 5892SOL    HW230150   6.943   3.360   4.532 -1.1850  1.1897  1.5334
 5893SOL     OW30151   6.618   2.201   2.730  0.3235 -0.0071 -0.8731
 5893SOL    HW130152   6.712   2.214   2.761  0.4597 -0.8961 -0.8984
 5893SOL    HW230153   6.603   2.253   2.647  0.1648  1.8400  0.2982
 5894SOL     OW30154   8.258   2.456   5.165  0.0490  0.5350 -0.1980
 5894SOL    HW130155   8.207   2.539   5.187  0.3276  0.3852  1.0843
 5894SOL    HW230156   8.356   2.473   5.178  0.1719  0.2470 -0.7309
 5895SOL     OW30157   4.816   3.041   1.345 -0.0660 -0.5901 -0.2297
 5895SOL    HW130158   4.897   2.985   1.331  0.4200 -0.2418  1.1574
 5895SOL    HW230159   4.746   3.016   1.278  0.2689 -2.6023  0.1489
 5896SOL     OW30160   6.190   0.134   7.348  0.0233  0.7617 -0.3977
 5896SOL    HW130161   6.175   0.047   7.397  0.2568  1.1888  0.4469
 5896SOL    HW230162   6.102   0.167   7.313  0.2324 -0.8585 -2.5401
 5897SOL     OW30163   5.345   7.622   2.763  0.1922 -0.1160 -0.5306
 5897SOL    HW130164   5.322   7.637   2.667 -0.5988 -0.2000 -0.3544
 5897SOL    HW230165   5.372   7.526   2.776 -5.0486 -1.6207  0.3477
 5898SOL     OW30166   7.450   0.349   1.504  0.2311 -0.1726 -0.2939
 5898SOL    HW130167   7.369   0.291   1.499 -1.1841  1.8216 -0.9696
 5898SOL    HW230168   7.428   0.441   1.471  2.3234  0.8969  1.1763
 5899SOL     OW30169   7.089   4.629   4.614  0.1337  0.0504  0.6116
 5899SOL    HW130170   7.026   4.664   4.683  1.3871 -0.9986  2.2961
 5899SOL    HW230171   7.182   4.660   4.635  0.3563  0.8474 -1.3674
 5900SOL     OW30172   3.083   2.574   3.434  0.4432 -0.1532  0.5081
 5900SOL    HW130173   3.045   2.616   3.516  2.1603 -0.8585  1.7010
 5900SOL    HW230174   3.024   2.499   3.404 -0.0074 -0.1201  1.3111
 5901SOL     OW30175   7.719   8.795   8.711 -0.4867 -0.0526 -0.1063
 5901SOL    HW130176   7.704   8.824   8.617 -0.2594 -1.9687 -0.7594
 5901SOL    HW230177   7.630   8.776   8.754 -0.9158  4.5850  1.3917
 5902SOL     OW30178   3.656   2.627   0.731 -0.4598  0.7787 -0.2190
 5902SOL    HW130179   3.557   2.639   0.727 -0.3928  1.0301 -1.1143
 5902SOL    HW230180   3.699   2.676   0.655  0.1290 -1.7153 -1.5215
 5903SOL     OW30181   0.236   7.359   1.411 -1.0318 -0.1077  0.2131
 5903SOL    HW130182   0.260   7.366   1.314  0.2128 -0.8179  0.4510
 5903SOL    HW230183   0.235   7.450   1.452  2.7810 -0.0827  0.5031
 5904SOL     OW30184   6.808   4.480   0.934 -0.1698  0.0464 -0.3006
 5904SOL    HW130185   6.786   4.570   0.972  3.9579  0.9905  0.0177
 5904SOL    HW230186   6.859   4.490   0.849  0.0038 -1.9991 -0.4799
 5905SOL     OW30187   2.916   5.127   0.285 -0.5395 -0.5935 -0.0396
 5905SOL    HW130188   2.850   5.098   0.216  0.8487 -0.2923 -1.5160
 5905SOL    HW230189   3.007   5.135   0.244 -0.0284  1.4102  1.3683
 5906SOL     OW30190   4.716   2.771   4.846  0.3295 -0.1649  0.2668
 5906SOL    HW130191   4.690   2.862   4.878 -1.1811 -0.7978  0.9172
 5906SOL    HW230192   4.695   2.762   4.749 -0.6992 -0.2082  0.4806
 5907SOL     OW30193   7.150   2.654   5.951 -0.1822 -0.1327 -0.8403
 5907SOL    HW130194   7.173   2.628   6.045 -0.5708 -1.2821 -1.0516
 5907SOL    HW230195   7.058   2.622   5.928  0.1762 -0.4984 -1.8402
 5908SOL     OW30196   5.174   6.159   3.493  0.2535  0.4977 -0.2016
 5908SOL    HW130197   5.114   6.131   3.567  2.5353  0.5001  1.7032
 5908SOL    HW230198   5.132   6.235   3.442 -1.2067  0.6710  1.2376
 5909SOL     OW30199   7.971   3.451   0.647 -0.0282 -0.1339 -0.2834
 5909SOL    HW130200   7.877   3.481   0.660 -0.0344 -0.3687  0.2133
 5909SOL    HW230201   8.009   3.495   0.565 -0.2391  0.7467  0.0898
 5910SOL     OW30202   8.928   0.063   6.017 -0.1784 -0.3517  0.4404
 5910SOL    HW130203   9.012   0.010   6.028  1.0356  1.4952  0.2713
 5910SOL    HW230204   8.862   0.035   6.087  0.5208 -1.9094  0.4962
 5911SOL     OW30205   2.479   5.040   2.217 -0.4260 -0.0556  0.0604
 5911SOL    HW130206   2.548   4.972   2.243 -0.2612  0.7671  1.8489
 5911SOL    HW230207   2.396   5.024   2.270 -0.9597  0.1198 -0.7211
 5912SOL     OW30208   4.848   5.204   6.150  0.3657  0.4799  0.0761
 5912SOL    HW130209   4.768   5.200   6.089  0.7652  2.1072 -0.5725
 5912SOL    HW230210   4.856   5.117   6.199 -1.5338  0.1218 -0.1883
 5913SOL     OW30211   2.590   5.828   2.468 -0.3461  0.6050  0.0899
 5913SOL    HW130212   2.504   5.867   2.435  0.4390  1.6501 -0.7353
 5913SOL    HW230213   2.606   5.741   2.422  0.0950  1.4291 -1.3566
 5914SOL     OW30214   5.907   3.774   7.978  0.2741  0.1335 -0.2188
 5914SOL    HW130215   5.941   3.826   7.899  2.8989 -0.8325  0.2471
 5914SOL    HW230216   5.833   3.826   8.022  0.7315  2.0245 -1.6093
 5915SOL     OW30217   0.958   8.195   0.305  0.1639 -0.4369  0.1349
 5915SOL    HW130218   0.901   8.257   0.251 -1.1521 -1.9396 -0.2373
 5915SOL    HW230219   1.011   8.136   0.244  0.5233 -0.4643  0.4752
 5916SOL     OW30220   5.970   5.179   6.170  0.0550  1.1818  0.1163
 5916SOL    HW130221   5.883   5.135   6.148  0.1614  0.2650  1.4656
 5916SOL    HW230222   6.046   5.121   6.140  0.2092  1.8078 -0.7258
 5917SOL     OW30223   5.226   2.029   2.686  0.0238 -1.0220 -0.0320
 5917SOL    HW130224   5.159   2.040   2.760  0.2802 -0.4821  0.1240
 5917SOL    HW230225   5.204   1.947   2.633 -1.8854  0.1611 -1.1469
 5918SOL     OW30226   1.973   6.103   3.037  0.4544 -0.1734 -0.3484
 5918SOL    HW130227   2.011   6.194   3.025  0.1741 -0.4543 -4.2082
 5918SOL    HW230228   1.874   6.109   3.050  0.2460  0.0704 -1.8919
 5919SOL     OW30229   1.651   5.646   5.982 -0.0648  0.2506  0.3396
 5919SOL    HW130230   1.605   5.575   6.035 -0.3786  0.6940  0.6607
 5919SOL    HW230231   1.586   5.718   5.957  0.0570  0.0088 -0.7263
 5920SOL     OW30232   6.107   1.581   5.475 -0.6580 -0.4951 -0.3824
 5920SOL    HW130233   6.125   1.509   5.408 -0.5154 -0.3135 -0.5399
 5920SOL    HW230234   6.108   1.670   5.430  1.6638 -0.1592  0.2253
 5921SOL     OW30235   3.661   0.020   1.430  0.4308 -0.3309  0.5831
 5921SOL    HW130236   3.730   0.042   1.499  0.4920 -0.2187  0.4874
 5921SOL    HW230237   3.571   0.012   1.473  0.2700  0.9533  0.4866
 5922SOL     OW30238   3.135   0.187   1.583 -0.4154 -0.2891 -0.4976
 5922SOL    HW130239   3.166   0.251   1.513  0.0235 -0.3521 -0.3639
 5922SOL    HW230240   3.061   0.130   1.547 -0.2021 -0.3070 -0.9001
 5923SOL     OW30241   8.217   8.241   6.324 -0.3376  0.1311  0.6151
 5923SOL    HW130242   8.200   8.161   6.267 -2.7047 -0.3080  1.8609
 5923SOL    HW230243   8.206   8.324   6.270 -2.0907 -0.2954  0.2995
 5924SOL     OW30244   5.498   5.204   4.989  0.7200 -0.0683  0.3476
 5924SOL    HW130245   5.538   5.263   4.918  3.2654 -1.5878  0.4792
 5924SOL    HW230246   5.428   5.146   4.948 -0.6758  1.8711 -0.1017
 5925SOL     OW30247   2.188   7.811   3.420  0.1386  0.0014  0.3630
 5925SOL    HW130248   2.180   7.712   3.411  0.1965 -0.0103  0.4394
 5925SOL    HW230249   2.223   7.833   3.511  1.4522  0.0251 -0.1390
 5926SOL     OW30250   2.260   7.151   8.219  0.3102  0.5047  0.0827
 5926SOL    HW130251   2.287   7.177   8.312  0.7630 -0.8524  0.3366
 5926SOL    HW230252   2.308   7.209   8.154  1.5487  0.1041  0.6298
 5927SOL     OW30253   7.119   4.718   2.238  0.2757  0.0704 -0.1351
 5927SOL    HW130254   7.079   4.747   2.325 -0.7892  0.3562 -0.7005
 5927SOL    HW230255   7.065   4.757   2.163  1.7499  0.6300 -0.9301
 5928SOL     OW30256   4.196   2.378   6.650 -0.1586 -0.2535 -0.2752
 5928SOL    HW130257   4.261   2.453   6.645 -0.0626 -0.3621 -0.6426
 5928SOL    HW230258   4.231   2.300   6.598 -0.4065 -0.4435 -0.1599
 5929SOL     OW30259   8.920   6.475   1.651 -0.2501 -0.2542  0.9300
 5929SOL    HW130260   8.906   6.573   1.636 -1.0426 -0.7242 -1.6018
 5929SOL    HW230261   9.016   6.453   1.638 -0.0597  0.1954  1.5681
 5930SOL     OW30262   0.999   8.733   7.020 -0.1570 -0.6989 -0.6440
 5930SOL    HW130263   1.090   8.693   7.014  0.9109  1.6863 -1.2836
 5930SOL    HW230264   0.992   8.809   6.955 -1.8428  0.5441  0.9198
 5931SOL     OW30265   8.055   4.221   0.922  0.5840  0.4657  0.6349
 5931SOL    HW130266   8.139   4.254   0.964  0.4985  0.5365  0.7498
 5931SOL    HW230267   7.995   4.182   0.992  1.0690 -0.7454  0.3847
 5932SOL     OW30268   6.644   4.470   1.479 -0.3879 -0.3035 -0.3357
 5932SOL    HW130269   6.589   4.551   1.460 -0.6481 -0.2087  0.7954
 5932SOL    HW230270   6.610   4.393   1.424 -1.8966 -0.3397  0.6172
 5933SOL     OW30271   2.872   1.433   2.748  0.4843 -0.1120 -0.3543
 5933SOL    HW130272   2.943   1.394   2.806  0.7725 -0.2765 -0.8085
 5933SOL    HW230273   2.828   1.360   2.696 -0.2008 -0.0414  0.1299
 5934SOL     OW30274   3.707   4.511   2.732 -0.0123 -0.0269  0.1641
 5934SOL    HW130275   3.724   4.566   2.814 -0.9808 -2.1276  1.8294
 5934SOL    HW230276   3.644   4.560   2.672  1.2400  1.8370  0.3144
 5935SOL     OW30277   7.168   2.760   4.732  0.1497  0.0140 -0.0395
 5935SOL    HW130278   7.263   2.745   4.703  0.1025 -1.3982  0.5001
 5935SOL    HW230279   7.167   2.802   4.823  0.2591  1.3040 -0.6209
 5936SOL     OW30280   4.242   7.813   1.287 -0.0540  0.1593 -0.7350
 5936SOL    HW130281   4.192   7.879   1.343 -1.5258 -2.2004  0.8236
 5936SOL    HW230282   4.222   7.828   1.190 -1.4603  1.1019 -0.2996
 5937SOL     OW30283   1.250   5.022   2.543  0.3271  0.3559  0.1269
 5937SOL    HW130284   1.272   5.084   2.468  1.7316  0.2474  0.4403
 5937SOL    HW230285   1.333   4.976   2.574 -0.3846 -0.2330  1.1922
 5938SOL     OW30286   4.397   0.385   5.995  0.2971  0.4510 -0.2793
 5938SOL    HW130287   4.315   0.439   5.975  0.9239  1.5541  0.1037
 5938SOL    HW230288   4.436   0.416   6.081  1.3202  0.1629 -0.6409
 5939SOL     OW30289   4.347   3.226   7.052  0.2359 -0.1046 -0.6545
 5939SOL    HW130290   4.280   3.229   7.126  0.1105 -0.2535 -0.7643
 5939SOL    HW230291   4.435   3.260   7.086 -0.3398  1.7714 -0.9726
 5940SOL     OW30292   3.716   7.138   8.066  0.1640 -0.3106 -0.0133
 5940SOL    HW130293   3.650   7.179   8.004 -1.0277 -1.9677  0.1373
 5940SOL    HW230294   3.777   7.209   8.101  0.6400  0.7015 -2.7799
 5941SOL     OW30295   5.130   8.002   6.044 -0.0228 -0.7104 -0.0406
 5941SOL    HW130296   5.112   8.096   6.015 -1.7466 -1.7095 -2.3765
 5941SOL    HW230297   5.207   8.001   6.107  1.5509  2.0098 -1.8218
 5942SOL     OW30298   5.293   6.214   7.458  0.1190 -0.4262  0.7016
 5942SOL    HW130299   5.307   6.181   7.364 -2.5082  0.0327  0.0834
 5942SOL    HW230300   5.309   6.140   7.522 -0.5956 -1.4806 -0.3090
 5943SOL     OW30301   0.414   7.249   4.589  0.1724  0.5483  0.1096
 5943SOL    HW130302   0.462   7.222   4.673  1.7586  3.0430  0.0475
 5943SOL    HW230303   0.472   7.311   4.536 -2.3272  2.0011 -1.0016
 5944SOL     OW30304   3.177   1.107   0.310  0.1453 -0.0666  0.5246
 5944SOL    HW130305   3.169   1.058   0.223  0.1664 -1.6024  1.3609
 5944SOL    HW230306   3.251   1.174   0.304  1.4109 -1.4813 -0.0353
 5945SOL     OW30307   1.415   3.469   3.970 -0.3221  0.3793  0.5010
 5945SOL    HW130308   1.463   3.406   3.910  0.4371  2.3351 -1.0076
 5945SOL    HW230309   1.448   3.457   4.064 -0.1545 -1.4017  0.2155
 5946SOL     OW30310   5.867   6.959   0.583  0.0053 -0.2767  0.7126
 5946SOL    HW130311   5.889   6.939   0.488 -1.4480  0.9843  0.0952
 5946SOL    HW230312   5.792   6.900   0.613 -1.5651  1.3862  0.1298
 5947SOL     OW30313   3.177   8.209   8.338  0.4356 -0.2442  0.4133
 5947SOL    HW130314   3.223   8.291   8.303 -0.7644  0.6446  0.8851
 5947SOL    HW230315   3.211   8.188   8.430  0.9670 -0.4685  0.1717
 5948SOL     OW30316   7.619   3.273   3.750 -0.0759 -0.6509  0.4946
 5948SOL    HW130317   7.588   3.358   3.792  1.6782  0.4396 -0.3537
 5948SOL    HW230318   7.612   3.199   3.816 -0.6527  0.3549  1.5833
 5949SOL     OW30319   0.755   5.296   5.124 -0.0563  0.6991  0.1162
 5949SOL    HW130320   0.844   5.306   5.167  0.1755  0.7977 -0.3834
 5949SOL    HW230321   0.717   5.206   5.147 -0.2877  1.0662  1.1698
 5950SOL     OW30322   7.345   6.499   3.239 -0.2746  0.2146  0.3376
 5950SOL    HW130323   7.423   6.509   3.176  0.2452  0.1399  0.9621
 5950SOL    HW230324   7.282   6.575   3.225 -0.9118 -0.5932 -1.3061
 5951SOL     OW30325   3.832   1.305   7.103  0.1136  0.3265 -0.8644
 5951SOL    HW130326   3.776   1.368   7.156  1.6214  0.3346  0.7473
 5951SOL    HW230327   3.892   1.357   7.041  1.2332  0.4961  0.3403
 5952SOL     OW30328   1.969   2.935   4.762  0.1119 -0.1159 -0.5527
 5952SOL    HW130329   1.942   3.030   4.777 -1.0572 -0.5646  0.2976
 5952SOL    HW230330   2.053   2.915   4.812  1.7277  1.1276 -2.6868
 5953SOL     OW30331   6.971   8.655   7.399  0.0175 -0.2748  0.2075
 5953SOL    HW130332   6.928   8.597   7.468 -1.6136 -1.0033 -1.3527
 5953SOL    HW230333   6.901   8.715   7.358  0.8133 -0.2663 -1.1860
 5954SOL     OW30334   0.248   2.150   0.356 -0.1365  0.6698 -0.3321
 5954SOL    HW130335   0.187   2.205   0.300  1.4895  1.0340 -1.8049
 5954SOL    HW230336   0.210   2.058   0.367  0.0213  0.2327 -3.0074
 5955SOL     OW30337   4.644   0.885   2.304  0.3293 -0.6669 -0.2223
 5955SOL    HW130338   4.667   0.839   2.390  1.6109  0.7445  0.2069
 5955SOL    HW230339   4.608   0.976   2.323  0.4837 -0.3959 -1.1814
 5956SOL     OW30340   2.783   1.512   4.647 -0.3993 -0.3114  0.2085
 5956SOL    HW130341   2.820   1.480   4.560  0.6287 -1.3424  1.0148
 5956SOL    HW230342   2.855   1.514   4.716 -1.6228 -1.4835  1.5687
 5957SOL     OW30343   1.415   4.533   5.016  0.2336  0.5196  0.4017
 5957SOL    HW130344   1.431   4.523   5.114  1.0060 -2.3619  0.0172
 5957SOL    HW230345   1.465   4.613   4.982  0.6903  1.0024  2.1803
 5958SOL     OW30346   6.201   6.429   3.912 -0.0251  0.3126  0.5488
 5958SOL    HW130347   6.282   6.486   3.899  2.1904 -1.5244  5.2886
 5958SOL    HW230348   6.210   6.345   3.859  1.3881 -0.0736  1.3932
 5959SOL     OW30349   6.351   0.697   0.779 -0.2505  0.5050  0.1242
 5959SOL    HW130350   6.272   0.757   0.784 -0.8677 -0.1715 -1.2246
 5959SOL    HW230351   6.324   0.610   0.738  0.8439 -0.3202  1.1422
 5960SOL     OW30352   5.237   3.504   1.514  0.5216 -0.3088 -0.0406
 5960SOL    HW130353   5.324   3.542   1.483 -0.1814  0.7624 -0.7474
 5960SOL    HW230354   5.161   3.555   1.472 -0.4462 -1.3456  0.4109
 5961SOL     OW30355   5.749   8.263   7.043  0.3132  0.1340  0.2304
 5961SOL    HW130356   5.745   8.212   6.957 -1.3626  0.5850  0.0251
 5961SOL    HW230357   5.807   8.343   7.031 -0.8633  0.8457 -0.8462
 5962SOL     OW30358   5.376   2.879   7.887  1.1724  0.1107 -0.4815
 5962SOL    HW130359   5.317   2.896   7.808 -0.9418 -1.7765  0.6260
 5962SOL    HW230360   5.354   2.944   7.960  1.8764  0.7025 -0.7952
 5963SOL     OW30361   7.998   2.190   2.382 -0.3275 -0.0468  0.4374
 5963SOL    HW130362   8.063   2.204   2.457 -1.6655 -1.6998  1.9816
 5963SOL    HW230363   8.040   2.132   2.312  0.9763  1.6022 -0.1828
 5964SOL     OW30364   1.300   4.139   7.984 -0.3815  0.8245  0.2847
 5964SOL    HW130365   1.224   4.100   8.036  0.6705  0.3437  1.4794
 5964SOL    HW230366   1.386   4.100   8.016  0.5311  2.6509  0.1201
 5965SOL     OW30367   2.866   0.327   0.102 -0.1865  0.0029 -0.5280
 5965SOL    HW130368   2.807   0.407   0.096 -0.0587 -0.0061 -2.5629
 5965SOL    HW230369   2.931   0.329   0.025  1.5567 -0.6798  0.8969
 5966SOL     OW30370   8.986   1.024   7.330  0.5146 -0.5026  0.2048
 5966SOL    HW130371   8.892   1.055   7.343  0.8727  0.3195  0.8284
 5966SOL    HW230372   8.988   0.924   7.333 -0.1192 -0.4774  1.6488
 5967SOL     OW30373   3.796   7.635   4.169 -0.1184 -0.2212 -0.4860
 5967SOL    HW130374   3.866   7.628   4.098  0.2758  0.5184 -0.1712
 5967SOL    HW230375   3.721   7.572   4.148  0.5859 -0.9321 -0.8829
 5968SOL     OW30376   2.385   7.685   1.996 -0.6027 -0.4193 -0.4363
 5968SOL    HW130377   2.292   7.664   2.027 -1.3000  2.4609 -0.4326
 5968SOL    HW230378   2.389   7.677   1.897  0.1470 -4.0499 -0.2038
 5969SOL     OW30379   8.937   3.020   7.255 -0.0352 -0.1710 -0.1561
 5969SOL    HW130380   8.952   3.048   7.350 -0.6312  0.2738 -0.1916
 5969SOL    HW230381   8.897   2.928   7.254 -0.8615  0.1790  0.0593
 5970SOL     OW30382   2.263   0.398   5.049  0.5880 -0.1564  0.1971
 5970SOL    HW130383   2.274   0.388   4.950  0.9504 -2.5638  0.4416
 5970SOL    HW230384   2.351   0.381   5.094 -0.4229 -3.0858  1.1577
 5971SOL     OW30385   2.254   5.619   6.253 -0.0083 -0.3684 -0.1169
 5971SOL    HW130386   2.290   5.529   6.279  0.8612 -0.8216 -2.7199
 5971SOL    HW230387   2.156   5.622   6.270  0.0156 -1.6735  0.3319
 5972SOL     OW30388   4.751   5.731   3.112  0.2415 -0.3243 -0.0219
 5972SOL    HW130389   4.824   5.776   3.163 -0.1046 -0.8370  0.9475
 5972SOL    HW230390   4.790   5.678   3.036  0.6174  1.9069 -1.4164
 5973SOL     OW30391   5.257   3.971   4.854 -0.2084  0.1235 -0.4551
 5973SOL    HW130392   5.168   4.016   4.864 -0.3920 -0.0108 -1.4399
 5973SOL    HW230393   5.249   3.896   4.789  0.7699  0.4860 -0.9914
 5974SOL     OW30394   7.725   3.066   3.019  0.3586 -0.2362  0.3381
 5974SOL    HW130395   7.718   3.154   3.066 -0.0659  0.0164 -0.2001
 5974SOL    HW230396   7.648   3.008   3.046 -0.6632  0.4306 -1.1433
 5975SOL     OW30397   3.939   6.209   4.345 -0.1354 -0.1661 -0.4731
 5975SOL    HW130398   3.865   6.160   4.390  0.3672  0.7338  1.3854
 5975SOL    HW230399   3.915   6.305   4.335  1.2944  0.4317  1.4262
 5976SOL     OW30400   0.559   2.123   5.798  0.0081  0.2654 -0.5992
 5976SOL    HW130401   0.486   2.120   5.866  0.2522  1.8204 -0.2631
 5976SOL    HW230402   0.525   2.163   5.713  0.6522  1.6760 -0.2034
 5977SOL     OW30403   2.482   4.971   7.578  0.0595  0.1184  0.7619
 5977SOL    HW130404   2.577   4.983   7.550 -0.4384  0.1182 -0.9474
 5977SOL    HW230405   2.425   4.952   7.498 -1.2028 -1.0641  1.9002
 5978SOL     OW30406   4.102   6.036   0.542 -0.0117 -0.3204  0.0640
 5978SOL    HW130407   4.050   6.120   0.533 -1.1334 -0.7262  2.3838
 5978SOL    HW230408   4.179   6.050   0.604  0.0923 -0.8598  0.0654
 5979SOL     OW30409   7.337   3.259   2.454 -0.0185  0.1254  0.4996
 5979SOL    HW130410   7.250   3.220   2.424  0.0908  0.2591  0.0140
 5979SOL    HW230411   7.332   3.359   2.450  0.5025  0.1162 -0.5063
 5980SOL     OW30412   8.837   6.279   0.697 -0.6576 -0.4680  0.2378
 5980SOL    HW130413   8.835   6.179   0.692 -0.9584 -0.6436  3.0651
 5980SOL    HW230414   8.873   6.307   0.785  0.4985  1.9661 -0.9498
 5981SOL     OW30415   0.150   6.869   4.495  1.0466 -0.4066 -0.1782
 5981SOL    HW130416   0.115   6.846   4.585  1.0612  1.1745  0.2532
 5981SOL    HW230417   0.220   6.803   4.468 -0.1403 -1.8493  0.2355
 5982SOL     OW30418   0.021   4.246   3.574 -0.2777  0.3659 -0.5792
 5982SOL    HW130419   0.071   4.261   3.659 -0.2956  1.3908 -0.7453
 5982SOL    HW230420   0.072   4.284   3.497  0.8797 -2.6428 -1.3638
 5983SOL     OW30421   2.465   8.486   1.869 -0.0673  0.0824  0.4011
 5983SOL    HW130422   2.485   8.429   1.789  0.6118 -0.2120  0.7718
 5983SOL    HW230423   2.379   8.456   1.910 -0.4322  0.2559 -0.2374
 5984SOL     OW30424   6.432   6.263   2.534  0.3904 -0.3334  0.1645
 5984SOL    HW130425   6.495   6.292   2.607 -0.3460 -1.8206  1.4245
 5984SOL    HW230426   6.474   6.191   2.480  1.0193  0.9184 -1.0340
 5985SOL     OW30427   2.010   6.236   3.826 -0.6200  0.3290  0.4166
 5985SOL    HW130428   2.022   6.262   3.730 -0.1171  0.8299  0.6141
 5985SOL    HW230429   1.994   6.137   3.831  0.7096  0.0820 -0.0769
 5986SOL     OW30430   7.951   4.550   0.778 -0.4809  0.2994 -0.3123
 5986SOL    HW130431   7.874   4.582   0.723 -0.3453  4.1776  1.5310
 5986SOL    HW230432   7.994   4.472   0.734 -3.7985 -0.2491 -2.7569
 5987SOL     OW30433   6.952   1.839   5.992  0.3303  0.1201  0.6072
 5987SOL    HW130434   6.941   1.846   6.091  0.9477  0.3813  0.6628
 5987SOL    HW230435   7.035   1.788   5.971 -0.6500 -1.3304  0.2095
 5988SOL     OW30436   3.350   1.789   1.156  0.3234 -0.5325  0.4009
 5988SOL    HW130437   3.378   1.867   1.212  1.2619 -0.3479 -0.3118
 5988SOL    HW230438   3.430   1.736   1.130 -0.2138 -1.1974  0.0831
 5989SOL     OW30439   1.208   6.189   8.231 -0.0814  0.0875  0.5338
 5989SOL    HW130440   1.195   6.251   8.153  0.3103 -1.4386 -0.7843
 5989SOL    HW230441   1.144   6.213   8.303 -1.6251  0.4820 -0.9305
 5990SOL     OW30442   8.045   4.245   8.439  0.2557 -0.6670  0.1335
 5990SOL    HW130443   8.093   4.162   8.465 -0.5367 -0.1654  3.3912
 5990SOL    HW230444   7.979   4.269   8.510 -0.4143  2.0688 -1.3469
 5991SOL     OW30445   1.467   4.658   1.296 -0.3437 -0.2798  0.3206
 5991SOL    HW130446   1.372   4.654   1.265 -0.2252 -1.7227  0.1107
 5991SOL    HW230447   1.518   4.722   1.238 -0.7948 -0.8047 -0.6759
 5992SOL     OW30448   4.144   2.458   6.221 -0.6911 -0.0860  0.2179
 5992SOL    HW130449   4.173   2.514   6.298 -0.2534  0.3647 -0.2720
 5992SOL    HW230450   4.150   2.511   6.136  0.5965 -1.1435 -0.3753
 5993SOL     OW30451   4.247   7.864   0.289  0.0915  0.0631  0.3520
 5993SOL    HW130452   4.232   7.767   0.303 -0.5126  0.3351  1.7032
 5993SOL    HW230453   4.344   7.881   0.270  0.1407 -0.8309 -0.1929
 5994SOL     OW30454   3.140   5.657   3.985 -0.5369 -0.2976  0.1037
 5994SOL    HW130455   3.076   5.697   4.051  1.4791  1.1682  1.2462
 5994SOL    HW230456   3.183   5.730   3.932 -1.0320 -1.3719 -1.8512
 5995SOL     OW30457   2.697   8.193   5.589  0.2201  0.3444  0.1675
 5995SOL    HW130458   2.753   8.226   5.513 -0.3554  1.2492  0.1268
 5995SOL    HW230459   2.666   8.100   5.569  2.3980 -0.4871  0.5810
 5996SOL     OW30460   7.933   3.255   7.231 -0.2398 -0.1252  0.2332
 5996SOL    HW130461   8.027   3.265   7.266 -0.7061  0.7705  1.2765
 5996SOL    HW230462   7.915   3.326   7.163  0.6970 -1.9246 -1.9743
 5997SOL     OW30463   1.893   2.775   0.535 -0.3750 -0.3193  0.0265
 5997SOL    HW130464   1.801   2.766   0.495 -0.8888  0.2520  1.0691
 5997SOL    HW230465   1.948   2.835   0.478 -1.1538  0.6162  0.2526
 5998SOL     OW30466   2.596   0.515   2.270  0.3330 -0.6458  0.0764
 5998SOL    HW130467   2.657   0.463   2.330 -0.2442  0.1024  1.3387
 5998SOL    HW230468   2.516   0.459   2.247  0.9695 -1.2464 -0.7198
 5999SOL     OW30469   7.053   0.331   7.651 -0.3576  0.6020  0.0888
 5999SOL    HW130470   7.093   0.404   7.707  0.5131  1.0766 -1.1567
 5999SOL    HW230471   7.065   0.352   7.554 -2.8346  0.3133 -0.3080
 6000SOL     OW30472   4.822   3.258   2.610  0.0441  0.6549  0.6367
 6000SOL    HW130473   4.790   3.323   2.541 -0.7677  0.3108  0.6804
 6000SOL    HW230474   4.748   3.194   2.632  1.4276 -1.4917 -0.8124
 6001SOL     OW30475   1.789   3.628   6.256  0.7851  0.4020 -0.4381
 6001SOL    HW130476   1.707   3.656   6.206 -0.1852 -0.4041  0.6731
 6001SOL    HW230477   1.768   3.622   6.354  1.9815 -0.5608 -0.2245
 6002SOL     OW30478   1.677   2.263   6.604  0.2357 -0.3099 -0.1140
 6002SOL    HW130479   1.599   2.253   6.667  1.2678  1.5760  1.5239
 6002SOL    HW230480   1.726   2.177   6.598  0.0848 -0.5358  1.6477
 6003SOL     OW30481   8.802   7.265   5.800  0.0491 -0.2251  0.0879
 6003SOL    HW130482   8.860   7.236   5.877  0.2478  0.2778  0.1352
 6003SOL    HW230483   8.843   7.234   5.714  0.0518 -0.4227  0.1603
 6004SOL     OW30484   2.219   6.685   7.940 -0.5302  0.0364 -0.8358
 6004SOL    HW130485   2.121   6.671   7.928 -1.0218  1.4883  1.2079
 6004SOL    HW230486   2.258   6.608   7.991 -0.9174  0.2065 -0.2726
 6005SOL     OW30487   2.130   4.573   0.899 -0.3227 -0.3611  0.0609
 6005SOL    HW130488   2.223   4.552   0.871 -0.1250  1.6695 -0.8231
 6005SOL    HW230489   2.128   4.660   0.948 -1.9139  0.1761 -0.9311
 6006SOL     OW30490   3.194   3.543   6.922  0.2194  0.4889  0.2943
 6006SOL    HW130491   3.284   3.579   6.946  0.7335 -0.5257 -0.0686
 6006SOL    HW230492   3.149   3.507   7.003  0.8360 -0.5133  0.1943
 6007SOL     OW30493   8.382   8.349   4.267 -0.5831 -0.4747  0.3537
 6007SOL    HW130494   8.454   8.287   4.300 -1.7926 -3.0051 -1.5412
 6007SOL    HW230495   8.294   8.321   4.305 -1.0802  0.3332 -0.1907
 6008SOL     OW30496   6.021   4.900   8.795  0.3366 -0.1714 -0.0437
 6008SOL    HW130497   5.947   4.836   8.814  0.2436  0.9065  3.7521
 6008SOL    HW230498   6.108   4.860   8.822  0.4808  0.6071  0.6778
 6009SOL     OW30499   8.867   1.975   7.103 -0.5386  0.2312  0.0847
 6009SOL    HW130500   8.854   1.876   7.090 -0.1606 -0.7433  5.5983
 6009SOL    HW230501   8.804   2.025   7.044 -3.8395 -3.4332  0.2756
 6010SOL     OW30502   0.054   8.951   8.073  0.4879  0.0013 -0.0093
 6010SOL    HW130503  -0.011   8.929   7.999 -0.4188  1.2393  0.3977
 6010SOL    HW230504   0.143   8.971   8.033  0.2840 -0.4108 -0.6908
 6011SOL     OW30505   3.608   4.245   6.676 -0.1823  0.2053 -0.2979
 6011SOL    HW130506   3.658   4.331   6.668 -0.0267  0.0535 -0.9640
 6011SOL    HW230507   3.517   4.255   6.638 -0.8636  0.6397  1.4170
 6012SOL     OW30508   5.813   4.470   3.266 -0.5435 -0.1702  0.0886
 6012SOL    HW130509   5.738   4.498   3.206 -0.2401 -1.3705 -0.8831
 6012SOL    HW230510   5.833   4.543   3.331 -0.5098  1.3985 -1.6392
 6013SOL     OW30511   6.827   3.518   8.766 -0.1708 -0.1668  0.5129
 6013SOL    HW130512   6.918   3.514   8.725  0.2783  0.5731  1.4151
 6013SOL    HW230513   6.788   3.426   8.770  1.0463 -0.6662  1.2406
 6014SOL     OW30514   5.496   4.154   1.912  0.3516 -0.0281  0.3872
 6014SOL    HW130515   5.541   4.224   1.857 -0.1630 -0.4824 -0.6030
 6014SOL    HW230516   5.397   4.171   1.915  0.0281 -1.5832 -1.1206
 6015SOL     OW30517   1.986   0.100   3.260  0.5581  0.2548  0.5451
 6015SOL    HW130518   1.979   0.181   3.203  2.3320  0.9645  1.2994
 6015SOL    HW230519   2.039   0.121   3.342 -0.7639 -1.1121  1.7955
 6016SOL     OW30520   0.413   3.599   5.271 -0.0931 -0.1196 -0.3742
 6016SOL    HW130521   0.423   3.519   5.213  0.7043 -0.5921  0.4056
 6016SOL    HW230522   0.355   3.577   5.350  0.5287 -0.0856  0.1026
 6017SOL     OW30523   1.835   5.467   5.761 -0.3844 -0.4274  0.2293
 6017SOL    HW130524   1.908   5.410   5.800 -1.9554 -0.6120  3.0599
 6017SOL    HW230525   1.847   5.561   5.791 -1.2162 -0.4382  0.6126
 6018SOL     OW30526   7.604   2.599   6.225 -0.2366  1.0915 -0.4570
 6018SOL    HW130527   7.636   2.668   6.161  4.4123  1.1978  1.8020
 6018SOL    HW230528   7.642   2.509   6.201 -1.0064  0.5362  0.3346
 6019SOL     OW30529   0.915   4.013   3.466 -0.2004 -0.0092  0.5472
 6019SOL    HW130530   0.970   3.936   3.498  0.7433  0.0511 -0.8500
 6019SOL    HW230531   0.970   4.070   3.404  0.0905  3.4985  3.8230
 6020SOL     OW30532   2.249   3.292   2.524  0.1609 -0.3631 -0.4464
 6020SOL    HW130533   2.304   3.331   2.450  0.5443  0.8900  0.4963
 6020SOL    HW230534   2.298   3.301   2.611  0.0960 -2.5960 -0.1465
 6021SOL     OW30535   1.407   2.067   3.475  0.2448 -0.1027  0.7609
 6021SOL    HW130536   1.375   2.147   3.424  1.6125 -0.3621 -0.5290
 6021SOL    HW230537   1.378   1.984   3.427 -1.6907 -0.4049  2.4162
 6022SOL     OW30538   5.581   8.034   8.202  0.0427  0.1215 -0.3122
 6022SOL    HW130539   5.509   7.965   8.191  1.3880 -1.5474  1.2570
 6022SOL    HW230540   5.544   8.113   8.250 -1.0711 -0.1679 -0.6662
 6023SOL     OW30541   8.116   1.009   0.273  0.9308  0.1414 -0.0923
 6023SOL    HW130542   8.022   0.982   0.256  0.1657  2.3873  0.3306
 6023SOL    HW230543   8.156   1.047   0.189  0.8675  0.8402  0.1917
 6024SOL     OW30544   4.380   3.626   6.184 -0.1514 -0.0887 -0.3549
 6024SOL    HW130545   4.338   3.717   6.184 -0.0246 -0.0300 -0.5440
 6024SOL    HW230546   4.310   3.557   6.201 -0.6394 -0.1372 -2.4769
 6025SOL     OW30547   5.438   7.084   8.492  0.9168  0.4020  0.3368
 6025SOL    HW130548   5.499   7.127   8.425  0.4305  0.8771  0.2020
 6025SOL    HW230549   5.390   7.154   8.544  1.3957  0.0422  1.2914
 6026SOL     OW30550   6.162   7.313   0.701 -0.2281  0.1765  0.1451
 6026SOL    HW130551   6.187   7.218   0.683  2.3903  0.2678  2.8395
 6026SOL    HW230552   6.101   7.317   0.780  1.1844  0.8392  1.2186
 6027SOL     OW30553   8.008   4.547   8.773  0.2021 -0.4052  0.2519
 6027SOL    HW130554   8.036   4.455   8.802  1.1594 -0.2878 -0.2535
 6027SOL    HW230555   7.926   4.541   8.717  0.7235 -1.0400 -0.4477
 6028SOL     OW30556   3.979   2.157   1.086  0.5994 -0.4300 -0.1199
 6028SOL    HW130557   3.961   2.062   1.110 -0.3056  0.3476  2.4817
 6028SOL    HW230558   4.064   2.187   1.129  0.4147  0.1952 -0.1730
 6029SOL     OW30559   4.223   8.563   1.603 -0.4923  0.4045 -0.6072
 6029SOL    HW130560   4.190   8.608   1.685 -0.1689  1.4764 -1.0615
 6029SOL    HW230561   4.184   8.606   1.522 -0.6417 -0.5068 -1.0355
 6030SOL     OW30562   7.849   2.973   0.870 -0.4175 -0.3275  0.3203
 6030SOL    HW130563   7.796   3.053   0.846  0.3032 -0.6250 -2.5081
 6030SOL    HW230564   7.895   2.938   0.788  1.1210 -2.2592  1.9498
 6031SOL     OW30565   2.443   2.112   8.763  0.2284 -0.1430  0.2650
 6031SOL    HW130566   2.371   2.128   8.830  1.2966 -0.6015  1.5369
 6031SOL    HW230567   2.532   2.110   8.809  1.3281  2.9714 -1.6222
 6032SOL     OW30568   8.651   0.239   0.040 -0.5070 -0.2309 -0.2487
 6032SOL    HW130569   8.691   0.197   0.121  1.8621  2.1846 -0.1393
 6032SOL    HW230570   8.680   0.188  -0.041  1.5574  0.5618 -0.0335
 6033SOL     OW30571   2.915   0.420   3.511  0.6336 -0.4362 -0.0537
 6033SOL    HW130572   2.980   0.453   3.442  1.3439  0.5059  1.0376
 6033SOL    HW230573   2.873   0.335   3.479  0.2793  0.4417 -2.0361
 6034SOL     OW30574   5.176   8.928   3.685 -0.1659  0.3452  0.4682
 6034SOL    HW130575   5.114   8.950   3.760 -1.7740 -0.3427 -0.6370
 6034SOL    HW230576   5.210   9.012   3.644 -2.4286  0.7909 -0.5820
 6035SOL     OW30577   4.167   2.836   1.395  0.2889  0.4008  0.2337
 6035SOL    HW130578   4.146   2.801   1.304 -1.6423  2.1202 -0.0242
 6035SOL    HW230579   4.183   2.760   1.458 -0.1203 -0.8210 -1.1199
 6036SOL     OW30580   6.870   8.356   1.813  0.0719  0.2025 -0.9069
 6036SOL    HW130581   6.933   8.283   1.840  0.9071  1.2198 -0.0238
 6036SOL    HW230582   6.906   8.403   1.733 -0.3038 -0.1396 -1.2799
 6037SOL     OW30583   4.170   2.508   7.033  0.3588  0.1253 -0.2320
 6037SOL    HW130584   4.095   2.537   7.093 -0.8763  0.7513 -2.0402
 6037SOL    HW230585   4.257   2.514   7.083 -0.8629 -1.4701  2.1738
 6038SOL     OW30586   2.472   5.711   8.195  0.1691  0.3511  0.2170
 6038SOL    HW130587   2.398   5.718   8.262  0.4102  2.0384  0.3370
 6038SOL    HW230588   2.436   5.730   8.104  0.0861 -0.7485  0.0095
 6039SOL     OW30589   2.333   7.483   5.270  0.2079  0.2053  0.4795
 6039SOL    HW130590   2.313   7.389   5.297 -3.0090  0.6704 -0.0915
 6039SOL    HW230591   2.393   7.525   5.338  0.5352 -1.8250  1.4737
 6040SOL     OW30592   6.676   5.100   2.520 -0.3475 -0.4611 -0.0618
 6040SOL    HW130593   6.723   5.071   2.436 -0.4874 -1.3577  0.1638
 6040SOL    HW230594   6.711   5.047   2.597  1.5394  2.0208  0.8818
 6041SOL     OW30595   1.194   5.216   6.504  0.1290 -0.6816 -0.2568
 6041SOL    HW130596   1.221   5.196   6.410 -2.1884 -0.0067 -1.1232
 6041SOL    HW230597   1.117   5.157   6.529 -1.7734  1.7325 -0.1819
 6042SOL     OW30598   1.475   1.233   2.287  0.7212  0.4048  0.3553
 6042SOL    HW130599   1.459   1.186   2.374 -1.6645 -0.2906 -0.4304
 6042SOL    HW230600   1.480   1.332   2.303  0.7664  0.2486  1.3328
 6043SOL     OW30601   2.581   4.588   6.398  0.7880  0.4450 -0.0438
 6043SOL    HW130602   2.656   4.571   6.461 -0.3999 -1.0138  1.0022
 6043SOL    HW230603   2.514   4.514   6.404  1.3231 -0.4781 -4.0570
 6044SOL     OW30604   2.865   1.320   5.053 -0.5240 -0.1823 -0.4974
 6044SOL    HW130605   2.820   1.240   5.092 -0.2815  1.3566  3.2139
 6044SOL    HW230606   2.963   1.314   5.068 -0.2529 -0.1991 -2.1876
 6045SOL     OW30607   4.154   2.547   5.310 -0.0438  0.3422  0.3892
 6045SOL    HW130608   4.144   2.635   5.357  1.1561 -0.3456  1.9654
 6045SOL    HW230609   4.213   2.487   5.363  0.5946 -0.8069 -1.5446
 6046SOL     OW30610   1.888   5.126   3.910  0.5494  0.1607 -0.3688
 6046SOL    HW130611   1.805   5.117   3.855 -0.5261  3.8558  0.4902
 6046SOL    HW230612   1.898   5.047   3.970 -1.5114 -1.0292 -1.5404
 6047SOL     OW30613   2.726   5.295   4.244 -0.1222 -0.3516 -0.0953
 6047SOL    HW130614   2.771   5.335   4.325  0.2971 -2.2740  0.6335
 6047SOL    HW230615   2.639   5.341   4.230 -0.5828 -0.5329  1.9579
 6048SOL     OW30616   4.024   8.160   4.505 -0.5588  0.5025 -0.1050
 6048SOL    HW130617   3.945   8.153   4.443 -2.0166  0.2071  1.7374
 6048SOL    HW230618   4.033   8.254   4.537 -0.2692  0.4905 -0.1464
 6049SOL     OW30619   7.386   3.499   0.152  0.2255  0.5465  0.2338
 6049SOL    HW130620   7.372   3.592   0.184  1.4829  1.3850 -1.6192
 6049SOL    HW230621   7.312   3.473   0.090  0.4787  0.7181 -0.1409
 6050SOL     OW30622   0.377   6.661   0.998  0.0298 -0.3207  0.1145
 6050SOL    HW130623   0.359   6.757   1.016  2.0120 -0.0119  0.5143
 6050SOL    HW230624   0.291   6.615   0.975 -0.8002  1.7392 -1.0562
 6051SOL     OW30625   0.493   2.039   4.701  0.1549 -0.5631  0.4084
 6051SOL    HW130626   0.591   2.035   4.718  0.3516 -1.4564 -0.9270
 6051SOL    HW230627   0.446   1.983   4.769  0.5908 -0.3985  0.8487
 6052SOL     OW30628   6.616   5.077   6.378  0.3804  0.2325 -0.0608
 6052SOL    HW130629   6.637   5.048   6.471 -1.1222  2.0609  0.8827
 6052SOL    HW230630   6.518   5.095   6.370  0.4426 -0.2201 -2.0968
 6053SOL     OW30631   4.391   4.761   0.844  0.1184 -0.0974 -0.0638
 6053SOL    HW130632   4.424   4.733   0.934 -2.4760  1.6142  1.5143
 6053SOL    HW230633   4.441   4.842   0.814 -1.0386  1.1822  1.3215
 6054SOL     OW30634   8.509   3.585   0.015  0.0009 -0.4330 -0.2165
 6054SOL    HW130635   8.468   3.654   0.073  1.5774 -0.0384  0.4713
 6054SOL    HW230636   8.488   3.494   0.052  1.0756 -0.1830  1.0547
 6055SOL     OW30637   2.992   4.675   7.475 -0.2103 -0.2598  0.1711
 6055SOL    HW130638   3.034   4.593   7.438 -0.6223 -0.6183  0.4896
 6055SOL    HW230639   3.061   4.746   7.488  0.1696 -0.6117  0.0521
 6056SOL     OW30640   4.500   6.033   2.447 -0.0035  0.0188  0.2755
 6056SOL    HW130641   4.567   6.101   2.418  1.1487  0.7321  4.3200
 6056SOL    HW230642   4.548   5.951   2.478 -1.1125 -0.3769  0.9527
 6057SOL     OW30643   4.348   0.168   7.850  0.4207 -0.3845 -0.0156
 6057SOL    HW130644   4.387   0.191   7.940 -0.5462  0.9331  0.0807
 6057SOL    HW230645   4.311   0.075   7.853 -2.1050  0.6388  1.8295
 6058SOL     OW30646   6.154   6.205   3.143 -0.0861 -0.4834 -0.0403
 6058SOL    HW130647   6.191   6.157   3.064  0.0883  0.9297 -0.8499
 6058SOL    HW230648   6.228   6.235   3.202 -0.0548  0.5466 -0.5914
 6059SOL     OW30649   3.212   6.288   5.895  0.1197 -0.2063  0.1700
 6059SOL    HW130650   3.276   6.358   5.862  0.6285 -0.2614  1.0180
 6059SOL    HW230651   3.261   6.201   5.904 -0.5863 -0.7534 -1.1776
 6060SOL     OW30652   3.993   7.125   4.320  0.4901  1.6376 -0.0655
 6060SOL    HW130653   4.009   7.151   4.224 -0.0748  2.5087  0.0766
 6060SOL    HW230654   4.000   7.206   4.378 -0.8299  1.4070  0.4297
 6061SOL     OW30655   7.548   8.417   4.752  0.0713  0.3790 -0.3400
 6061SOL    HW130656   7.524   8.444   4.659  0.3659  2.2474  0.1118
 6061SOL    HW230657   7.637   8.455   4.776  0.6647 -1.2895  0.2146
 6062SOL     OW30658   3.423   0.306   6.804 -0.0044  0.1322  0.0196
 6062SOL    HW130659   3.501   0.249   6.780  0.9660  1.4710 -0.0193
 6062SOL    HW230660   3.419   0.316   6.904  0.0344  0.2995  0.0035
 6063SOL     OW30661   7.625   3.877   1.739  0.4598  0.5381 -0.4322
 6063SOL    HW130662   7.556   3.947   1.721  1.0514  0.6345 -2.4611
 6063SOL    HW230663   7.635   3.819   1.659  1.9044 -0.1927  0.2581
 6064SOL     OW30664   0.308   7.907   6.322 -0.4438 -0.6158  0.3031
 6064SOL    HW130665   0.265   7.971   6.258 -1.1703 -1.1317  0.2707
 6064SOL    HW230666   0.376   7.956   6.376 -0.7785  0.1265  0.0727
 6065SOL     OW30667   5.255   7.348   7.856 -0.5808 -0.0663 -0.0393
 6065SOL    HW130668   5.237   7.265   7.803 -1.7502  0.0301  0.1870
 6065SOL    HW230669   5.327   7.402   7.811  0.0304 -1.0905 -0.3012
 6066SOL     OW30670   1.034   5.545   0.365 -0.1381  0.1897  0.3634
 6066SOL    HW130671   1.038   5.446   0.372  2.1027  0.2080 -0.4469
 6066SOL    HW230672   1.018   5.584   0.456 -1.7828 -0.9122  0.5812
 6067SOL     OW30673   5.827   1.147   8.450 -0.2543 -0.0313 -0.0107
 6067SOL    HW130674   5.755   1.216   8.445  1.3129  1.7117  0.9522
 6067SOL    HW230675   5.849   1.129   8.545  0.4453 -0.7352 -0.3003
 6068SOL     OW30676   2.130   3.836   7.207  0.0192  0.2361  0.4559
 6068SOL    HW130677   2.173   3.916   7.165 -0.8402  0.8749  0.7878
 6068SOL    HW230678   2.165   3.825   7.300  2.2797 -1.4562 -0.5579
 6069SOL     OW30679   1.404   1.753   0.937  0.2863 -0.1735 -0.3377
 6069SOL    HW130680   1.322   1.791   0.981  0.9627  0.0904  0.7127
 6069SOL    HW230681   1.379   1.714   0.848 -0.9128  0.2373 -0.1906
 6070SOL     OW30682   2.494   0.317   2.931 -0.0679 -0.1072  0.2016
 6070SOL    HW130683   2.485   0.301   3.030 -3.1932  0.3004  0.0231
 6070SOL    HW230684   2.501   0.229   2.884 -0.6556 -0.3702  0.6020
 6071SOL     OW30685   5.457   5.610   0.971 -0.1221  0.3116 -0.0861
 6071SOL    HW130686   5.521   5.549   0.925 -0.9270  0.9717 -2.1467
 6071SOL    HW230687   5.503   5.696   0.995 -0.1942  0.7564 -1.4974
 6072SOL     OW30688   8.349   8.621   4.184  0.1271  0.3557  0.2586
 6072SOL    HW130689   8.316   8.674   4.262 -1.0202 -2.3477  1.6991
 6072SOL    HW230690   8.350   8.524   4.208  0.8044 -0.4454 -2.7567
 6073SOL     OW30691   5.087   1.916   7.949 -0.2352  0.8609 -0.2671
 6073SOL    HW130692   5.074   1.942   8.045 -0.4664 -1.4824  0.3707
 6073SOL    HW230693   5.164   1.853   7.942 -1.0615 -0.0534 -1.4207
 6074SOL     OW30694   0.323   0.339   5.556  0.3433 -0.7624 -0.4104
 6074SOL    HW130695   0.264   0.303   5.484  1.9027  0.7983 -2.5366
 6074SOL    HW230696   0.301   0.435   5.573  0.6171 -0.8549  0.5285
 6075SOL     OW30697   4.014   3.132   7.696  0.3040  0.3200 -0.4785
 6075SOL    HW130698   4.007   3.174   7.786 -0.4028 -0.5611 -0.1081
 6075SOL    HW230699   4.096   3.165   7.650  0.1822  1.4712  0.1211
 6076SOL     OW30700   6.008   0.956   2.151  0.9026 -0.0686 -0.1640
 6076SOL    HW130701   5.944   0.973   2.226  0.2346  1.5188 -1.0552
 6076SOL    HW230702   5.968   0.892   2.086  0.7556 -0.0736 -0.0687
 6077SOL     OW30703   7.443   3.502   8.708 -0.0890  0.2577 -0.1821
 6077SOL    HW130704   7.362   3.528   8.656 -0.4918 -1.0860 -0.2565
 6077SOL    HW230705   7.503   3.582   8.719 -0.7480  0.9338 -1.3338
 6078SOL     OW30706   4.389   2.941   0.589  0.3772 -0.4302 -0.3271
 6078SOL    HW130707   4.367   2.854   0.546  0.2359 -0.0093 -1.1299
 6078SOL    HW230708   4.305   2.994   0.603  0.4369 -0.5255  0.3704
 6079SOL     OW30709   2.911   4.997   6.639  0.5234 -0.0020  0.1697
 6079SOL    HW130710   2.996   5.039   6.669 -0.1271  0.5144  1.3446
 6079SOL    HW230711   2.869   4.948   6.716  0.0103 -0.6704 -0.5280
 6080SOL     OW30712   7.228   6.936   2.121  0.2082  0.4720  0.0885
 6080SOL    HW130713   7.194   6.842   2.129  3.6021 -0.6381  2.6387
 6080SOL    HW230714   7.179   6.994   2.186 -1.0252  0.2342 -0.6060
 6081SOL     OW30715   7.695   3.962   4.260 -0.2992 -0.1819  0.1249
 6081SOL    HW130716   7.683   3.901   4.182 -0.6813  1.5873 -1.2371
 6081SOL    HW230717   7.637   4.042   4.248  1.7306  1.4332  0.8398
 6082SOL     OW30718   0.552   6.294   5.355  0.6125 -0.9245 -0.1651
 6082SOL    HW130719   0.588   6.204   5.380 -0.3828 -1.0026  1.0594
 6082SOL    HW230720   0.513   6.338   5.437 -1.4442 -0.5579 -1.3044
 6083SOL     OW30721   7.874   3.977   4.539  0.0039 -0.3255 -0.2087
 6083SOL    HW130722   7.923   3.895   4.570  0.7514  0.1895 -0.0148
 6083SOL    HW230723   7.866   3.974   4.439 -0.6055 -0.9792 -0.1472
 6084SOL     OW30724   2.127   4.104   5.712 -0.2721  0.6044  0.2616
 6084SOL    HW130725   2.090   4.061   5.629  0.3245  0.1648  0.2176
 6084SOL    HW230726   2.142   4.201   5.695 -0.7241  0.6363  0.0462
 6085SOL     OW30727   3.620   0.938   1.381  0.0851 -0.1292  0.1144
 6085SOL    HW130728   3.527   0.956   1.348 -0.0034  0.1316  0.5082
 6085SOL    HW230729   3.645   0.843   1.358  0.3987  0.3375 -1.5656
 6086SOL     OW30730   3.258   8.738   8.108  0.1427 -0.5164 -0.3145
 6086SOL    HW130731   3.184   8.740   8.176  1.5748 -0.8231  1.2852
 6086SOL    HW230732   3.263   8.826   8.062 -0.2228  0.0316  0.6735
 6087SOL     OW30733   4.345   4.704   6.149 -0.0433 -0.2535  0.2982
 6087SOL    HW130734   4.252   4.729   6.176 -0.1604 -0.1912 -0.1528
 6087SOL    HW230735   4.398   4.680   6.230 -0.3291  0.1273  0.6013
 6088SOL     OW30736   5.279   7.384   2.380  0.0837 -0.5744 -0.1681
 6088SOL    HW130737   5.186   7.396   2.415  0.4669  1.7603  0.0742
 6088SOL    HW230738   5.276   7.327   2.298 -1.4860 -0.9388  0.1212
 6089SOL     OW30739   8.707   6.501   8.197 -0.1873 -0.1801 -0.0952
 6089SOL    HW130740   8.659   6.423   8.237  0.7163 -0.2635  0.8613
 6089SOL    HW230741   8.805   6.493   8.215 -0.0223  0.9192 -0.4195
 6090SOL     OW30742   0.758   0.180   8.056  0.4844 -0.3352 -0.3649
 6090SOL    HW130743   0.789   0.274   8.065  1.0254 -0.4182 -1.3213
 6090SOL    HW230744   0.713   0.152   8.140 -4.0267  2.3582 -1.7129
 6091SOL     OW30745   2.894   3.924   2.755 -0.3200  0.1147 -0.0577
 6091SOL    HW130746   2.840   3.916   2.838  1.6235 -0.4422  1.1728
 6091SOL    HW230747   2.881   3.842   2.698  0.1367 -0.5464  0.7847
 6092SOL     OW30748   7.720   6.981   3.649  0.3375 -0.0260  0.2309
 6092SOL    HW130749   7.767   6.894   3.632  0.4979  0.3572 -1.3299
 6092SOL    HW230750   7.630   6.980   3.606  0.0886  0.3623  0.7327
 6093SOL     OW30751   8.701   3.387   1.058  0.7985 -0.2718 -0.3207
 6093SOL    HW130752   8.621   3.359   1.112  0.6690 -0.9751 -0.8734
 6093SOL    HW230753   8.756   3.307   1.036  1.1302  0.0833 -0.7845
 6094SOL     OW30754   7.464   3.451   3.081  0.1464 -0.1602  0.0960
 6094SOL    HW130755   7.452   3.462   3.179 -1.3130  0.5509 -0.1397
 6094SOL    HW230756   7.465   3.541   3.037 -1.0944 -0.5298 -0.7295
 6095SOL     OW30757   2.435   6.382   0.893  0.2989  0.4280  0.1048
 6095SOL    HW130758   2.362   6.434   0.847  0.8168  0.2389 -0.9561
 6095SOL    HW230759   2.394   6.304   0.941 -0.5309  2.0565  2.0975
 6096SOL     OW30760   6.197   3.176   4.008 -0.1644  0.2693  0.0852
 6096SOL    HW130761   6.246   3.253   4.048 -0.8277  0.0835  1.2796
 6096SOL    HW230762   6.238   3.090   4.040  0.5399  0.1123 -1.1983
 6097SOL     OW30763   8.464   6.586   5.334  0.5071  0.5084 -0.3534
 6097SOL    HW130764   8.531   6.517   5.306 -0.6059  0.1002 -2.0944
 6097SOL    HW230765   8.371   6.550   5.321 -0.0603  1.5087  0.8605
 6098SOL     OW30766   7.789   6.166   3.477 -0.2418  0.0872  0.0325
 6098SOL    HW130767   7.817   6.105   3.552  1.2686 -1.0620 -1.4048
 6098SOL    HW230768   7.848   6.247   3.477 -0.7106  0.4297  0.5185
 6099SOL     OW30769   8.730   1.479   6.027 -0.0669  0.5838  0.2767
 6099SOL    HW130770   8.816   1.500   5.980 -0.7771  1.9880 -0.4314
 6099SOL    HW230771   8.679   1.411   5.976 -0.3202  1.2728 -0.3921
 6100SOL     OW30772   1.800   1.967   5.918 -0.0263  0.3441 -0.3070
 6100SOL    HW130773   1.762   2.059   5.909 -0.0190  0.2748 -1.0607
 6100SOL    HW230774   1.851   1.943   5.836  0.7167  0.0018  0.2430
 6101SOL     OW30775   3.876   2.652   0.189  0.5671  0.4580  0.6900
 6101SOL    HW130776   3.821   2.576   0.222  1.6149 -1.4827 -1.8137
 6101SOL    HW230777   3.958   2.661   0.246  0.2303 -0.0454  1.2597
 6102SOL     OW30778   8.450   2.877   8.009 -0.5203  0.2327  0.2502
 6102SOL    HW130779   8.385   2.885   7.934 -0.7127  0.8008  0.4681
 6102SOL    HW230780   8.543   2.889   7.975 -0.5053 -0.9514 -0.1201
 6103SOL     OW30781   7.243   6.609   0.225 -1.0238  0.3117 -0.7608
 6103SOL    HW130782   7.245   6.518   0.267 -0.4708  0.0146 -1.4197
 6103SOL    HW230783   7.172   6.664   0.269 -1.4948 -0.5015 -0.4848
 6104SOL     OW30784   8.138   2.598   2.547 -0.7733  0.4607  0.2260
 6104SOL    HW130785   8.149   2.602   2.647  2.0861  1.2536 -0.0612
 6104SOL    HW230786   8.169   2.508   2.514 -1.0835  0.4419 -0.0107
 6105SOL     OW30787   2.502   7.879   3.488  0.1143  0.2872  0.0977
 6105SOL    HW130788   2.431   7.932   3.535 -3.1512 -0.9260 -3.2102
 6105SOL    HW230789   2.540   7.932   3.413 -0.6016 -0.6859 -0.9786
 6106SOL     OW30790   7.454   3.520   3.372  0.1662 -0.1795 -0.7491
 6106SOL    HW130791   7.386   3.538   3.443  0.3084  0.1143 -0.6846
 6106SOL    HW230792   7.485   3.607   3.333 -1.6506 -0.4471 -2.8425
 6107SOL     OW30793   7.485   5.138   6.764  0.2056 -0.2029  0.0584
 6107SOL    HW130794   7.520   5.048   6.739  3.4040  1.1969 -0.7948
 6107SOL    HW230795   7.507   5.158   6.859 -0.0592 -0.1019  0.1008
 6108SOL     OW30796   4.897   4.057   1.771  0.2142  0.0904 -0.3318
 6108SOL    HW130797   4.956   3.978   1.758 -1.5939 -1.5220  0.9501
 6108SOL    HW230798   4.807   4.027   1.803 -0.3940  2.6816  0.5490
 6109SOL     OW30799   7.278   2.365   6.007 -0.8295  0.4434  0.6249
 6109SOL    HW130800   7.317   2.277   6.031  0.2192  0.7691  0.1357
 6109SOL    HW230801   7.301   2.388   5.912 -2.6356  0.4102  0.1639
 6110SOL     OW30802   0.919   4.944   0.968  0.2784 -0.0278  0.0783
 6110SOL    HW130803   1.007   4.970   0.929 -0.9312  1.0799 -2.0035
 6110SOL    HW230804   0.887   5.018   1.028 -0.4788  0.7747 -1.3000
 6111SOL     OW30805   3.207   8.512   1.497  0.1928 -0.2596  0.3067
 6111SOL    HW130806   3.202   8.564   1.411 -0.0105  0.7181  0.8985
 6111SOL    HW230807   3.263   8.430   1.483 -0.7509 -0.6964 -1.0492
 6112SOL     OW30808   8.135   0.576   6.914  0.3166 -0.3775 -0.0765
 6112SOL    HW130809   8.051   0.622   6.884  0.9953  1.2080  0.4310
 6112SOL    HW230810   8.154   0.499   6.853 -1.4421 -0.6892 -0.2643
 6113SOL     OW30811   5.631   2.792   0.343 -0.3861 -0.2867 -0.9244
 6113SOL    HW130812   5.710   2.760   0.395 -0.5749  0.1031 -0.3952
 6113SOL    HW230813   5.659   2.809   0.248  0.1660 -0.1321 -0.7363
 6114SOL     OW30814   5.622   3.248   8.107  0.0799 -0.5400  0.6247
 6114SOL    HW130815   5.622   3.334   8.158 -0.9185  0.4238 -0.9468
 6114SOL    HW230816   5.705   3.242   8.052  0.0827 -0.5101  0.6258
 6115SOL     OW30817   4.721   3.941   6.378 -0.4010 -0.6720 -0.2449
 6115SOL    HW130818   4.672   3.855   6.389 -2.7149  0.7542  0.9654
 6115SOL    HW230819   4.755   3.972   6.467 -1.2097  0.5591 -0.3397
 6116SOL     OW30820   0.972   2.645   4.325 -0.2384  0.0147 -0.2890
 6116SOL    HW130821   1.053   2.704   4.319 -0.2900  0.0448 -0.6982
 6116SOL    HW230822   0.981   2.571   4.258  1.2386 -2.1631  2.2093
 6117SOL     OW30823   8.507   5.877   6.994 -0.3644  0.6588  0.2882
 6117SOL    HW130824   8.435   5.834   6.941  0.7238 -1.6543  0.6122
 6117SOL    HW230825   8.595   5.836   6.970  0.5417  1.7339  1.6642
 6118SOL     OW30826   8.979   8.818   8.433  0.7798  0.8364  0.1553
 6118SOL    HW130827   8.997   8.765   8.350  0.6414  1.7593 -0.4625
 6118SOL    HW230828   9.018   8.770   8.512 -0.9447 -1.1228 -0.1386
 6119SOL     OW30829   0.116   1.665   3.352  0.1521 -0.1217  0.4391
 6119SOL    HW130830   0.133   1.577   3.397  4.8727  0.0008 -0.8639
 6119SOL    HW230831   0.094   1.650   3.256  1.0753  0.1343  0.1894
 6120SOL     OW30832   0.969   8.164   4.719  0.2213  0.6632 -0.4614
 6120SOL    HW130833   1.003   8.090   4.776 -1.6183  0.8338  0.9162
 6120SOL    HW230834   0.960   8.247   4.773 -0.5829  1.0952 -1.2328
 6121SOL     OW30835   7.628   4.769   3.638  0.6106  0.1421 -0.2218
 6121SOL    HW130836   7.679   4.699   3.689  3.4316 -0.2783 -3.4817
 6121SOL    HW230837   7.667   4.859   3.657  1.1517  0.0764 -1.0172
 6122SOL     OW30838   0.398   8.434   0.935  0.2648 -0.0635  0.0045
 6122SOL    HW130839   0.395   8.432   1.035  2.0989 -0.1372  0.0716
 6122SOL    HW230840   0.309   8.461   0.900 -0.3623  0.0890  1.6645
 6123SOL     OW30841   0.152   5.422   1.623 -0.1934  0.8632 -0.2611
 6123SOL    HW130842   0.074   5.388   1.571 -0.3637 -1.8487  1.6346
 6123SOL    HW230843   0.119   5.475   1.701 -0.2239 -0.8014  0.8929
 6124SOL     OW30844   1.320   0.827   8.187 -0.8434  0.0388 -0.5022
 6124SOL    HW130845   1.325   0.762   8.111  0.5496  0.0008 -0.3861
 6124SOL    HW230846   1.401   0.817   8.244 -1.3907  0.7877  0.4121
 6125SOL     OW30847   4.737   7.170   8.638 -0.3407 -0.6385 -0.3348
 6125SOL    HW130848   4.830   7.160   8.601 -0.0198  2.1266 -0.4141
 6125SOL    HW230849   4.671   7.135   8.573  0.6000 -1.7916 -0.6780
 6126SOL     OW30850   8.243   6.754   5.640  0.0500 -0.2505 -0.6898
 6126SOL    HW130851   8.171   6.728   5.576 -0.3815  0.7788 -0.6293
 6126SOL    HW230852   8.266   6.850   5.627 -2.9196  1.1592  3.4482
 6127SOL     OW30853   8.503   3.423   3.423  0.1670 -0.5988  0.0533
 6127SOL    HW130854   8.450   3.447   3.341 -0.4693 -1.0449  0.3301
 6127SOL    HW230855   8.484   3.329   3.449  3.0051 -1.5993 -1.2858
 6128SOL     OW30856   8.493   6.655   8.237 -0.0411 -0.4399  0.2221
 6128SOL    HW130857   8.575   6.599   8.246  0.1198 -0.0870  1.0257
 6128SOL    HW230858   8.412   6.601   8.258 -0.2315 -1.4015 -2.7219
 6129SOL     OW30859   1.928   8.838   6.775  0.0423  0.1021  0.1752
 6129SOL    HW130860   1.910   8.895   6.855  0.0019 -0.5107  0.6027
 6129SOL    HW230861   1.937   8.896   6.694 -0.9967  0.6359  0.4384
 6130SOL     OW30862   5.031   1.636   3.743 -0.3566  0.0145 -0.0745
 6130SOL    HW130863   4.980   1.558   3.706 -0.9470  0.1475  0.4496
 6130SOL    HW230864   4.996   1.721   3.704 -1.3621  0.2005  1.1897
 6131SOL     OW30865   8.443   2.314   6.416  0.4845  0.4932  0.0218
 6131SOL    HW130866   8.441   2.214   6.411 -0.3663  0.5251 -0.5261
 6131SOL    HW230867   8.478   2.351   6.330  0.6266  0.6713  0.1568
 6132SOL     OW30868   2.979   4.474   5.761 -0.1918 -0.2008  0.0996
 6132SOL    HW130869   2.989   4.546   5.692  0.8042 -0.2627  0.1663
 6132SOL    HW230870   3.061   4.417   5.761 -1.3360 -1.8902 -0.5546
 6133SOL     OW30871   4.057   7.711   1.706 -0.3448 -0.0903  0.2789
 6133SOL    HW130872   4.012   7.667   1.627  0.0516  0.2627 -0.1423
 6133SOL    HW230873   4.123   7.778   1.673 -1.2925  1.1807  0.9204
 6134SOL     OW30874   8.154   8.790   6.420  0.0538 -0.3891  0.4405
 6134SOL    HW130875   8.112   8.805   6.509  1.8305  0.7423  1.1288
 6134SOL    HW230876   8.199   8.701   6.419 -1.2929 -1.0832  0.1100
 6135SOL     OW30877   7.138   4.739   0.480 -0.0238  0.0692 -0.2727
 6135SOL    HW130878   7.156   4.825   0.432 -1.5629  1.2269  1.1521
 6135SOL    HW230879   7.047   4.707   0.456 -0.7401  0.5748  1.7215
 6136SOL     OW30880   4.730   7.415   7.098  0.2629 -0.5051  0.7120
 6136SOL    HW130881   4.715   7.436   7.002 -1.0396  0.2625  1.0580
 6136SOL    HW230882   4.664   7.345   7.127  1.2100 -1.3612  0.8450
 6137SOL     OW30883   3.419   7.701   6.136 -0.4030 -0.0515  0.0985
 6137SOL    HW130884   3.343   7.750   6.093  0.4000  1.5401  0.4519
 6137SOL    HW230885   3.447   7.625   6.078 -0.4476  1.0302 -1.3772
 6138SOL     OW30886   1.728   4.637   8.112  0.3243 -0.3531 -0.0189
 6138SOL    HW130887   1.796   4.606   8.046 -2.2337 -0.7178 -2.5644
 6138SOL    HW230888   1.690   4.558   8.160  0.4846 -0.3172  0.1643
 6139SOL     OW30889   4.109   2.414   2.275  0.8329 -0.4785 -0.2525
 6139SOL    HW130890   4.156   2.364   2.348  0.2069 -2.5546 -1.2262
 6139SOL    HW230891   4.047   2.481   2.316 -0.4192 -2.4461  1.2027
 6140SOL     OW30892   8.963   5.560   3.053 -0.1198  0.2443 -0.1486
 6140SOL    HW130893   8.966   5.460   3.051  1.9862  0.2893 -2.4602
 6140SOL    HW230894   8.869   5.590   3.065 -0.6127 -2.0086  2.0678
 6141SOL     OW30895   5.355   5.781   2.103  0.5988 -0.7106  0.4341
 6141SOL    HW130896   5.448   5.764   2.070 -0.2370 -3.6616 -0.5982
 6141SOL    HW230897   5.296   5.803   2.025  0.2702  0.3600  0.9844
 6142SOL     OW30898   2.424   5.739   1.548  0.7305  0.0198  0.0132
 6142SOL    HW130899   2.524   5.728   1.546  0.8568  1.1403 -1.4024
 6142SOL    HW230900   2.400   5.806   1.619  0.6515 -2.8447  2.7934
 6143SOL     OW30901   2.708   0.694   8.606  0.5655 -0.3490 -0.5661
 6143SOL    HW130902   2.778   0.677   8.537  0.9647 -1.0570  0.0034
 6143SOL    HW230903   2.657   0.609   8.623  1.2208 -0.4876  0.8249
 6144SOL     OW30904   0.977   1.378   5.644  0.0150  0.3315 -0.6733
 6144SOL    HW130905   0.949   1.366   5.739  0.2608  1.7387 -0.4086
 6144SOL    HW230906   0.937   1.463   5.608 -0.6674 -0.5597 -2.0569
 6145SOL     OW30907   1.752   1.693   7.850 -0.2920 -0.2697  1.1669
 6145SOL    HW130908   1.680   1.757   7.874 -0.8396  0.0253 -1.1150
 6145SOL    HW230909   1.814   1.735   7.783 -1.7581 -2.6997 -1.8413
 6146SOL     OW30910   2.099   1.823   1.315  0.8799  0.2333  0.3575
 6146SOL    HW130911   2.044   1.894   1.359  0.9376  0.2690  0.3712
 6146SOL    HW230912   2.046   1.781   1.241  0.7311  0.0746  0.5545
 6147SOL     OW30913   4.403   5.246   4.433 -0.3872  0.3456  0.4182
 6147SOL    HW130914   4.499   5.233   4.407 -0.9826  0.8008 -2.2178
 6147SOL    HW230915   4.356   5.158   4.437 -0.4301  0.3083 -0.7446
 6148SOL     OW30916   8.476   5.219   1.346 -0.1914 -0.0168 -0.1023
 6148SOL    HW130917   8.471   5.259   1.254  0.6316  0.5867  0.1150
 6148SOL    HW230918   8.387   5.179   1.369 -1.2611  2.2474 -0.0810
 6149SOL     OW30919   5.238   6.711   2.002  0.0439 -0.5669 -0.3824
 6149SOL    HW130920   5.315   6.759   2.043 -1.9636  1.4830  1.0983
 6149SOL    HW230921   5.266   6.671   1.915  2.4288  1.1707 -0.4459
 6150SOL     OW30922   8.024   6.692   7.301 -0.2961 -0.1112  0.2875
 6150SOL    HW130923   7.979   6.604   7.287 -0.3562 -0.0869  0.3281
 6150SOL    HW230924   8.024   6.715   7.398 -0.5033  0.0502  0.2506
 6151SOL     OW30925   3.371   6.552   3.776  0.1941  0.7476  0.2719
 6151SOL    HW130926   3.351   6.542   3.678  0.3979  0.6975  0.2340
 6151SOL    HW230927   3.465   6.523   3.794  0.3780  1.3832  0.3714
 6152SOL     OW30928   4.982   2.731   0.353  0.0264  0.6994 -0.3552
 6152SOL    HW130929   4.944   2.692   0.269  0.5646 -1.5523  0.3887
 6152SOL    HW230930   4.995   2.829   0.342 -1.9041  0.7801 -2.1346
 6153SOL     OW30931   1.926   7.716   6.015 -0.9279 -0.0742  0.1400
 6153SOL    HW130932   1.856   7.728   5.945 -0.7775 -0.4316 -0.0695
 6153SOL    HW230933   1.931   7.620   6.042 -1.3571  0.1519  1.0236
 6154SOL     OW30934   5.326   1.921   6.842 -0.4461  0.3784 -0.2246
 6154SOL    HW130935   5.276   1.929   6.928  0.0860 -0.2434  0.1419
 6154SOL    HW230936   5.405   1.982   6.842  0.6792 -1.0429  0.5256
 6155SOL     OW30937   8.758   5.221   5.699 -0.2069 -0.0947  0.6689
 6155SOL    HW130938   8.807   5.139   5.727 -1.6144 -1.8375 -1.7362
 6155SOL    HW230939   8.660   5.203   5.699 -0.5448  1.6448  0.3321
 6156SOL     OW30940   8.853   3.926   0.948 -0.1144 -0.0584 -0.3282
 6156SOL    HW130941   8.952   3.923   0.932  0.5630  0.4561  3.2465
 6156SOL    HW230942   8.819   4.017   0.923  0.3331 -0.2048 -1.4934
 6157SOL     OW30943   8.514   1.434   7.308  0.1437  0.5712  0.6136
 6157SOL    HW130944   8.503   1.439   7.209  1.3447  0.8762  0.4872
 6157SOL    HW230945   8.450   1.367   7.345 -0.3494  0.4937 -0.3596
 6158SOL     OW30946   0.047   1.193   5.168  0.0864  0.5016 -0.4126
 6158SOL    HW130947  -0.042   1.148   5.164 -0.3820  1.2507  1.2252
 6158SOL    HW230948   0.117   1.127   5.195 -0.1431  0.1588 -0.6505
 6159SOL     OW30949   5.387   5.902   0.722  0.2001 -0.3465 -0.0652
 6159SOL    HW130950   5.455   5.936   0.658  0.6710  0.5138  0.8913
 6159SOL    HW230951   5.299   5.945   0.703  0.8759  1.7872  1.4001
 6160SOL     OW30952   8.822   6.643   5.484  0.7382  0.1994 -0.1016
 6160SOL    HW130953   8.819   6.556   5.434 -1.0156 -0.9896  1.9908
 6160SOL    HW230954   8.901   6.644   5.545  0.0018 -0.5374  0.8860
 6161SOL     OW30955   0.259   6.125   1.517 -0.3962  0.4772 -0.0340
 6161SOL    HW130956   0.192   6.180   1.567 -1.2838 -0.1369 -0.5369
 6161SOL    HW230957   0.227   6.111   1.423  1.1296  1.3945 -0.7080
 6162SOL     OW30958   1.806   4.621   4.944 -0.3210  0.2799 -0.5929
 6162SOL    HW130959   1.841   4.658   5.030  1.3033  1.1985 -1.6106
 6162SOL    HW230960   1.719   4.665   4.922 -1.1014 -0.4738  0.9190
 6163SOL     OW30961   8.214   6.628   0.206  0.2136  0.3941  0.0217
 6163SOL    HW130962   8.193   6.676   0.291  1.4629  1.1549 -0.0788
 6163SOL    HW230963   8.259   6.691   0.143  2.2497 -1.0192  0.0313
 6164SOL     OW30964   8.660   1.846   8.846 -0.0556  0.1199  0.2225
 6164SOL    HW130965   8.561   1.855   8.834 -0.3390 -0.6682  1.7513
 6164SOL    HW230966   8.684   1.750   8.859  0.8379  0.3576  0.3889
 6165SOL     OW30967   3.991   1.794   5.252 -0.0726 -0.7591 -0.2826
 6165SOL    HW130968   3.922   1.866   5.255  1.7204  0.9475  1.2622
 6165SOL    HW230969   4.056   1.813   5.179  0.3660 -0.8281  0.0856
 6166SOL     OW30970   2.497   7.189   0.345 -0.5388 -0.5810 -0.2872
 6166SOL    HW130971   2.539   7.169   0.433  0.1876 -2.5130 -1.0521
 6166SOL    HW230972   2.565   7.184   0.273 -0.8426  2.3367 -0.8429
 6167SOL     OW30973   3.440   7.844   5.808 -0.3902 -0.4192  0.0977
 6167SOL    HW130974   3.448   7.891   5.719 -1.2458 -2.2529 -0.9782
 6167SOL    HW230975   3.531   7.824   5.843 -0.0459 -0.4474 -0.7908
 6168SOL     OW30976   1.269   4.127   1.727  0.2444 -0.2438 -0.3687
 6168SOL    HW130977   1.188   4.077   1.760 -0.3676  1.6021  1.0245
 6168SOL    HW230978   1.323   4.067   1.668 -1.2368 -2.0679  0.0612
 6169SOL     OW30979   2.863   1.581   0.752 -0.1280  0.0278 -0.3096
 6169SOL    HW130980   2.765   1.580   0.735 -0.3838  1.3404  1.0274
 6169SOL    HW230981   2.897   1.487   0.755 -1.5891 -0.4807  0.6215
 6170SOL     OW30982   0.928   0.331   6.248  0.0841  0.1428  0.0709
 6170SOL    HW130983   0.889   0.395   6.182 -1.5314 -1.2183 -0.3212
 6170SOL    HW230984   0.928   0.239   6.209  1.1537 -0.3334  1.1418
 6171SOL     OW30985   2.628   0.026   1.233 -0.3566  0.1910 -0.9995
 6171SOL    HW130986   2.668  -0.059   1.200 -1.4420 -0.2390 -1.2212
 6171SOL    HW230987   2.663   0.103   1.179 -2.0162 -0.4830 -3.1281
 6172SOL     OW30988   2.580   3.603   0.709  0.2635  0.0125 -0.1233
 6172SOL    HW130989   2.611   3.591   0.804 -0.2269 -0.7664 -0.0546
 6172SOL    HW230990   2.602   3.695   0.678  1.4559 -0.1026  0.3677
 6173SOL     OW30991   8.620   3.482   4.857  0.0749 -0.5848  0.5810
 6173SOL    HW130992   8.684   3.469   4.781 -0.2295 -2.0235  0.5695
 6173SOL    HW230993   8.636   3.412   4.927 -2.4457 -1.8740 -0.0728
 6174SOL     OW30994   4.301   1.226   4.686 -0.4614 -0.2276 -0.0405
 6174SOL    HW130995   4.362   1.304   4.683 -1.7458  0.7394 -2.0273
 6174SOL    HW230996   4.350   1.146   4.721  1.3826  0.9851  0.1881
 6175SOL     OW30997   2.303   8.737   6.235  0.0390  0.5865  0.1279
 6175SOL    HW130998   2.300   8.703   6.141 -1.5227 -0.4374  0.5252
 6175SOL    HW230999   2.395   8.724   6.273  0.3117 -0.2319 -0.8035
 6176SOL     OW31000   2.813   8.287   5.310 -0.2908 -0.6391 -0.4818
 6176SOL    HW131001   2.830   8.384   5.291  1.5338 -1.3033 -2.4647
 6176SOL    HW231002   2.875   8.231   5.254  1.3020 -2.8770  3.3264
 6177SOL     OW31003   8.780   5.329   6.685 -0.4492 -0.0555  0.6563
 6177SOL    HW131004   8.767   5.237   6.650 -0.5218 -0.6547  2.2013
 6177SOL    HW231005   8.865   5.368   6.650 -0.1513 -0.9168  0.4307
 6178SOL     OW31006   8.097   7.827   4.935  0.4373  0.1739  0.4705
 6178SOL    HW131007   8.090   7.926   4.953  1.0694  1.1330 -4.1182
 6178SOL    HW231008   8.007   7.791   4.911  0.5884  0.0905  0.0271
 6179SOL     OW31009   1.671   5.512   5.019 -0.1716  0.4053  0.0390
 6179SOL    HW131010   1.690   5.562   4.935 -1.2310  0.5373 -0.1265
 6179SOL    HW231011   1.584   5.543   5.058 -0.2720 -0.4907  0.5496
 6180SOL     OW31012   1.633   8.138   4.339 -0.1194  0.2322 -0.0975
 6180SOL    HW131013   1.631   8.056   4.283  0.5379  0.4881 -0.5028
 6180SOL    HW231014   1.670   8.214   4.285 -0.2709  0.6767  0.4217
 6181SOL     OW31015   8.930   3.491   4.259  0.1197  0.3328 -0.0456
 6181SOL    HW131016   8.909   3.393   4.250 -0.4060  0.2397  2.0389
 6181SOL    HW231017   8.975   3.507   4.347 -0.6008  2.1062  0.0127
 6182SOL     OW31018   0.307   0.123   4.392 -0.3014 -0.2161 -0.1902
 6182SOL    HW131019   0.242   0.131   4.316  0.0861 -0.4784 -0.5561
 6182SOL    HW231020   0.258   0.127   4.479 -0.5830  1.7110 -0.4164
 6183SOL     OW31021   5.331   5.550   6.273 -0.0470 -0.3326  0.2249
 6183SOL    HW131022   5.245   5.551   6.324 -0.2712 -0.5982 -0.1392
 6183SOL    HW231023   5.363   5.643   6.259 -1.1840 -0.1339 -1.1408
 6184SOL     OW31024   8.935   4.629   6.427  0.2821  0.2914  0.2561
 6184SOL    HW131025   8.956   4.532   6.416  0.1086  0.4184 -1.2412
 6184SOL    HW231026   8.918   4.671   6.338 -2.7329  0.9941  1.0960
 6185SOL     OW31027   7.210   0.473   8.636  0.4822 -0.1131 -0.4467
 6185SOL    HW131028   7.265   0.556   8.648 -0.0141  0.5972 -2.8354
 6185SOL    HW231029   7.213   0.445   8.540 -2.8745 -0.3754 -0.5286
 6186SOL     OW31030   8.938   6.343   5.499  0.4181  0.5958 -0.0574
 6186SOL    HW131031   8.953   6.244   5.490  1.1792  0.9506 -3.5720
 6186SOL    HW231032   8.868   6.360   5.568 -0.0662 -2.4364  0.2716
 6187SOL     OW31033   2.852   8.904   2.426 -0.0183  0.6699 -0.3244
 6187SOL    HW131034   2.753   8.892   2.417  0.1545 -0.8692 -0.2905
 6187SOL    HW231035   2.886   8.849   2.502  1.0530  0.1629 -1.1482
 6188SOL     OW31036   0.960   4.128   2.525  0.3083 -0.1112  0.3118
 6188SOL    HW131037   0.860   4.134   2.530  0.2168 -0.4946 -0.9546
 6188SOL    HW231038   0.995   4.196   2.462  0.7807 -0.5194  0.1300
 6189SOL     OW31039   0.268   8.869   1.411 -0.2074 -0.3598  0.7605
 6189SOL    HW131040   0.235   8.810   1.338 -0.1049  0.0997  0.3444
 6189SOL    HW231041   0.195   8.883   1.478 -0.9898  0.9341 -0.3280
 6190SOL     OW31042   6.669   2.957   1.630  0.3230  0.3513 -0.3219
 6190SOL    HW131043   6.687   3.008   1.546  0.3190  1.1949  0.1842
 6190SOL    HW231044   6.648   2.862   1.607  1.5565  0.2650 -1.1918
 6191SOL     OW31045   3.087   3.549   8.611 -0.0823  0.4132  0.7416
 6191SOL    HW131046   3.122   3.605   8.686  0.1813  0.0470  0.8963
 6191SOL    HW231047   2.992   3.575   8.591  0.0325  0.8967  0.8227
 6192SOL     OW31048   4.412   7.027   4.308 -0.5459  0.3103  0.2776
 6192SOL    HW131049   4.461   7.065   4.387 -1.5651  0.7410  0.7086
 6192SOL    HW231050   4.381   7.102   4.250 -1.1056  0.0573  0.2545
 6193SOL     OW31051   4.625   2.772   4.540 -0.3289 -0.0436 -0.0214
 6193SOL    HW131052   4.719   2.790   4.512  0.4449 -0.8884  1.9989
 6193SOL    HW231053   4.562   2.821   4.478  1.4232  0.8226 -1.1494
 6194SOL     OW31054   2.307   6.411   1.565 -0.0753  0.1399  0.1208
 6194SOL    HW131055   2.380   6.349   1.537 -0.3128 -0.6818  1.2745
 6194SOL    HW231056   2.345   6.502   1.584  0.0753  0.7375 -2.8636
 6195SOL     OW31057   4.103   1.460   3.963  0.9077  0.4852 -0.4255
 6195SOL    HW131058   4.190   1.500   3.993  1.3075 -0.3149 -0.4926
 6195SOL    HW231059   4.121   1.385   3.899  0.3054 -1.3118  1.4377
 6196SOL     OW31060   6.973   2.056   1.102 -0.3276 -0.3107  0.3389
 6196SOL    HW131061   6.986   2.118   1.024  1.3619 -0.2869  0.6185
 6196SOL    HW231062   6.901   1.990   1.081 -0.6009  0.3492 -0.8300
 6197SOL     OW31063   6.931   3.639   1.617 -0.0104 -0.1370 -0.2762
 6197SOL    HW131064   6.932   3.735   1.590 -0.1701 -0.4564 -1.4573
 6197SOL    HW231065   6.994   3.588   1.559 -1.1248 -1.0256 -0.7104
 6198SOL     OW31066   3.435   3.191   1.653  0.0955  0.0159 -1.0750
 6198SOL    HW131067   3.496   3.177   1.575 -2.1295 -3.3150 -2.3335
 6198SOL    HW231068   3.354   3.243   1.623 -0.8740 -1.4730 -1.0751
 6199SOL     OW31069   3.692   3.142   1.518 -0.3045  0.4580 -0.5838
 6199SOL    HW131070   3.718   3.221   1.574 -1.5622 -0.1832  0.9452
 6199SOL    HW231071   3.712   3.058   1.567 -0.1525 -0.1573 -1.6830
 6200SOL     OW31072   7.351   1.589   8.080 -0.4485  0.4758  0.2268
 6200SOL    HW131073   7.331   1.532   8.159  0.2640  0.8523  0.6869
 6200SOL    HW231074   7.271   1.643   8.056 -0.4283  0.9390  1.1777
 6201SOL     OW31075   7.334   8.857   8.097 -0.1231  0.4530  0.3332
 6201SOL    HW131076   7.251   8.913   8.103  0.5224  1.4753 -0.1923
 6201SOL    HW231077   7.347   8.827   8.002 -0.7810 -1.1050  0.7057
 6202SOL     OW31078   5.256   5.545   4.643 -0.0209  0.0825  0.7942
 6202SOL    HW131079   5.274   5.587   4.554  1.3096  2.5567  2.1737
 6202SOL    HW231080   5.166   5.571   4.675 -0.0935  0.0197  0.6437
 6203SOL     OW31081   4.905   0.780   2.705  0.0284 -0.3635 -0.1502
 6203SOL    HW131082   4.985   0.730   2.736  1.5954  1.4716 -1.0951
 6203SOL    HW231083   4.839   0.788   2.779  1.7270  0.0381  1.3358
 6204SOL     OW31084   3.002   7.721   2.572 -0.4939  0.4917  0.8747
 6204SOL    HW131085   3.017   7.781   2.493 -1.1989 -2.6577 -1.7197
 6204SOL    HW231086   3.090   7.683   2.602 -0.6264 -0.9248 -0.5196
 6205SOL     OW31087   6.145   4.545   4.852 -0.0940 -0.1821 -0.1525
 6205SOL    HW131088   6.081   4.469   4.863 -2.8072  1.8249 -1.2549
 6205SOL    HW231089   6.181   4.546   4.758 -1.8237  1.1439 -0.8328
 6206SOL     OW31090   0.158   0.369   6.792  0.3019 -0.0803 -0.4234
 6206SOL    HW131091   0.247   0.408   6.818  0.8594 -2.6305  1.7358
 6206SOL    HW231092   0.092   0.387   6.865 -1.1102  2.1213 -2.1854
 6207SOL     OW31093   8.027   2.113   5.899  0.0825 -0.3472 -0.9238
 6207SOL    HW131094   8.122   2.084   5.917 -0.5226 -0.9382  1.4560
 6207SOL    HW231095   7.973   2.033   5.874 -0.5785 -0.6442  1.3014
 6208SOL     OW31096   5.546   2.773   2.447 -0.0859 -0.2203  0.7296
 6208SOL    HW131097   5.543   2.852   2.509  3.0109 -0.4000  1.1743
 6208SOL    HW231098   5.552   2.689   2.501  1.0153 -0.4789  0.2088
 6209SOL     OW31099   1.636   7.072   2.011  0.1255  0.1629 -0.5765
 6209SOL    HW131100   1.656   7.024   1.925  0.4650  0.4024 -0.6312
 6209SOL    HW231101   1.661   7.168   2.002  1.1621 -0.0315  0.1531
 6210SOL     OW31102   0.203   8.174   6.281  0.5128 -0.0602 -0.2703
 6210SOL    HW131103   0.109   8.160   6.251 -0.1135  0.9970  1.1479
 6210SOL    HW231104   0.243   8.251   6.231 -0.2756  1.2106  1.0279
 6211SOL     OW31105   2.413   3.092   5.441 -0.2655  0.2774  0.1828
 6211SOL    HW131106   2.359   3.176   5.436 -0.6538 -0.1047 -2.8090
 6211SOL    HW231107   2.504   3.108   5.404 -0.5910 -0.7818 -1.1168
 6212SOL     OW31108   2.459   4.939   5.132  0.4304  0.4786 -0.1718
 6212SOL    HW131109   2.376   4.986   5.104  0.2796 -0.2477 -0.9621
 6212SOL    HW231110   2.437   4.846   5.161  1.1298 -0.1733 -1.6925
 6213SOL     OW31111   3.465   3.199   0.779  0.7938 -0.7364  0.1389
 6213SOL    HW131112   3.519   3.191   0.862  2.1548  0.2401 -0.6391
 6213SOL    HW231113   3.487   3.124   0.717  1.7561  0.0314 -0.4559
 6214SOL     OW31114   0.183   3.103   5.655 -0.4215 -0.1134 -0.0080
 6214SOL    HW131115   0.240   3.167   5.707 -1.4973  0.3925  0.5612
 6214SOL    HW231116   0.137   3.041   5.718 -0.0258 -0.9307 -0.5104
 6215SOL     OW31117   7.238   0.937   8.195  0.4246  0.1712  0.1382
 6215SOL    HW131118   7.232   0.844   8.231  0.6777 -0.3147 -1.0440
 6215SOL    HW231119   7.334   0.960   8.177  0.3785  0.7179  0.5671
 6216SOL     OW31120   0.786   7.525   1.096 -0.0860 -0.3958 -0.2311
 6216SOL    HW131121   0.686   7.535   1.095 -0.0768 -0.3399 -2.6048
 6216SOL    HW231122   0.816   7.485   1.010  2.1254  1.3290 -0.3006
 6217SOL     OW31123   3.194   5.756   6.287  0.5123 -0.1484  0.2479
 6217SOL    HW131124   3.213   5.750   6.385 -3.4808 -1.1053  1.0766
 6217SOL    HW231125   3.251   5.692   6.238  1.6665 -0.5797  2.1085
 6218SOL     OW31126   6.574   0.019   7.317 -0.4757  0.0053 -0.5135
 6218SOL    HW131127   6.560   0.022   7.416  0.1281  0.4531 -0.4418
 6218SOL    HW231128   6.627  -0.062   7.294  0.3763  0.5118 -0.3467
 6219SOL     OW31129   0.749   4.106   6.603  1.2207 -0.9393 -0.2413
 6219SOL    HW131130   0.663   4.156   6.613  2.0558  0.3991  0.3762
 6219SOL    HW231131   0.750   4.059   6.514  1.2451  1.7890 -1.7554
 6220SOL     OW31132   6.140   2.182   2.596  0.3001  0.2506  0.0181
 6220SOL    HW131133   6.171   2.236   2.674 -2.3242 -0.4446  1.6028
 6220SOL    HW231134   6.176   2.221   2.511  2.0907  1.8033  1.4707
 6221SOL     OW31135   4.477   0.182   1.752  0.2566 -0.3531 -0.1893
 6221SOL    HW131136   4.552   0.169   1.816  1.9117 -0.2787 -2.0483
 6221SOL    HW231137   4.503   0.145   1.662 -1.6618  0.2870 -1.0374
 6222SOL     OW31138   4.701   8.743   7.012 -0.1497  0.0890  0.1490
 6222SOL    HW131139   4.624   8.708   7.066 -0.9338  0.0578 -0.9766
 6222SOL    HW231140   4.707   8.842   7.023 -1.1226  0.2514 -0.7374
 6223SOL     OW31141   6.688   1.882   5.913  0.2349  0.0908  0.7699
 6223SOL    HW131142   6.786   1.871   5.926  0.2237 -0.4199  0.4281
 6223SOL    HW231143   6.665   1.871   5.817 -0.1759  0.0876  0.8656
 6224SOL     OW31144   1.735   2.148   0.887  1.1230  0.3717  0.2238
 6224SOL    HW131145   1.792   2.070   0.859  1.1349  0.3082  0.4274
 6224SOL    HW231146   1.754   2.225   0.826 -0.2981 -0.3626 -1.1962
 6225SOL     OW31147   8.615   4.344   4.459  0.0468  0.2565  0.2708
 6225SOL    HW131148   8.648   4.277   4.392  0.6285  2.3514 -1.6105
 6225SOL    HW231149   8.593   4.298   4.544 -0.5175 -2.4730 -1.2870
 6226SOL     OW31150   1.663   5.539   7.381  0.1023  0.5904  0.0923
 6226SOL    HW131151   1.591   5.609   7.376  0.5703  0.8959 -2.8323
 6226SOL    HW231152   1.736   5.571   7.442  0.0575  2.4338 -0.7940
 6227SOL     OW31153   5.200   7.895   5.118  0.1598  0.2892 -0.0669
 6227SOL    HW131154   5.173   7.816   5.172  2.0830 -0.2296  0.1805
 6227SOL    HW231155   5.167   7.884   5.024  1.2854 -1.3256 -0.2952
 6228SOL     OW31156   4.371   8.856   5.625  0.2690 -0.0596  0.6708
 6228SOL    HW131157   4.349   8.762   5.600  1.2094 -0.1535  0.1546
 6228SOL    HW231158   4.322   8.920   5.566 -0.7019 -0.2087  1.3008
 6229SOL     OW31159   7.402   5.057   6.401 -0.7917  0.5133  0.2904
 6229SOL    HW131160   7.328   5.104   6.448 -1.5874  0.3130 -0.7502
 6229SOL    HW231161   7.379   4.960   6.390  0.3390  0.1037  1.4039
 6230SOL     OW31162   6.105   8.671   3.233  0.0467 -0.1094  0.7820
 6230SOL    HW131163   6.038   8.645   3.302 -1.3339 -0.4341 -0.6298
 6230SOL    HW231164   6.060   8.726   3.163  1.2586 -0.3162 -0.1808
 6231SOL     OW31165   2.634   1.868   4.208  0.3640  0.1433 -0.0341
 6231SOL    HW131166   2.681   1.793   4.256  0.7882  0.4570  0.0408
 6231SOL    HW231167   2.631   1.948   4.267 -2.3216 -0.5706  0.8729
 6232SOL     OW31168   5.722   4.435   6.206  0.1390 -0.0373 -0.0871
 6232SOL    HW131169   5.698   4.356   6.149  0.9616 -0.6274  0.3936
 6232SOL    HW231170   5.821   4.445   6.211  0.0447  1.6289 -0.9635
 6233SOL     OW31171   6.274   2.828   1.541 -0.0443 -0.0361  0.8306
 6233SOL    HW131172   6.325   2.867   1.465 -1.2631 -2.3730 -1.2629
 6233SOL    HW231173   6.283   2.886   1.621  1.1545  2.5606 -1.1363
 6234SOL     OW31174   2.419   4.384   2.348  0.3626  0.2411 -0.4877
 6234SOL    HW131175   2.406   4.305   2.408 -1.4177  1.9162  1.4225
 6234SOL    HW231176   2.464   4.458   2.399 -0.1119  1.2850 -1.5585
 6235SOL     OW31177   2.090   1.183   2.765 -0.0716 -0.6050  0.0350
 6235SOL    HW131178   2.110   1.190   2.863  0.5703  0.7180 -0.1887
 6235SOL    HW231179   1.991   1.196   2.751  0.3271  2.8528  0.1702
 6236SOL     OW31180   6.282   2.569   8.788  0.2230 -0.0115  0.7489
 6236SOL    HW131181   6.310   2.621   8.869  0.8896 -0.3027  0.7029
 6236SOL    HW231182   6.243   2.481   8.817 -2.4767  1.1728  0.9308
 6237SOL     OW31183   0.054   4.840   2.865 -0.2551  0.5628 -0.0941
 6237SOL    HW131184   0.131   4.787   2.831 -1.8959 -0.2508 -2.6900
 6237SOL    HW231185   0.047   4.829   2.964  1.8383 -0.8036 -0.0598
 6238SOL     OW31186   1.717   5.376   5.275 -0.2382  0.3484 -0.1049
 6238SOL    HW131187   1.627   5.402   5.310  0.0077  1.0410  0.0197
 6238SOL    HW231188   1.725   5.402   5.179 -0.0297  0.6416 -0.0084
 6239SOL     OW31189   8.298   0.690   5.458 -0.1319 -0.0802  0.0434
 6239SOL    HW131190   8.317   0.788   5.465 -0.6530 -0.1513  2.7627
 6239SOL    HW231191   8.217   0.677   5.400 -0.6683  1.1590  0.4859
 6240SOL     OW31192   8.886   4.300   5.612  0.1822  0.5289  0.6210
 6240SOL    HW131193   8.889   4.395   5.644 -2.1199  0.8493 -0.0633
 6240SOL    HW231194   8.945   4.244   5.670  1.5122  2.3608  1.0680
 6241SOL     OW31195   4.691   8.902   6.288 -0.1067 -0.4868  0.5615
 6241SOL    HW131196   4.774   8.847   6.281 -0.8115 -1.5776  0.7187
 6241SOL    HW231197   4.637   8.892   6.205  0.8217  1.7284 -0.3504
 6242SOL     OW31198   5.300   4.979   8.737 -0.1209 -0.4478 -0.0203
 6242SOL    HW131199   5.255   4.897   8.703 -0.1670 -0.8185  0.9347
 6242SOL    HW231200   5.324   5.038   8.659 -1.2303 -0.7618 -0.6113
 6243SOL     OW31201   2.367   6.993   8.627 -0.4381  0.1539  0.1003
 6243SOL    HW131202   2.346   7.055   8.703 -0.1015  1.6377 -0.9991
 6243SOL    HW231203   2.315   6.908   8.639  0.3795 -0.0494  2.5199
 6244SOL     OW31204   7.040   7.866   7.641 -0.4339  0.5022  0.4929
 6244SOL    HW131205   7.004   7.819   7.722 -0.3362 -0.1457  0.1652
 6244SOL    HW231206   6.992   7.833   7.559 -0.3053  0.9175  0.2491
 6245SOL     OW31207   1.945   1.955   5.060 -0.1328 -0.0746  0.7635
 6245SOL    HW131208   2.015   2.009   5.012 -0.9443 -0.2691 -0.6723
 6245SOL    HW231209   1.965   1.858   5.048 -2.4281 -0.2136 -2.4576
 6246SOL     OW31210   5.186   0.650   5.652  0.0051 -0.4041  0.2391
 6246SOL    HW131211   5.205   0.655   5.750  0.3898  0.1214  0.1348
 6246SOL    HW231212   5.260   0.600   5.606 -0.9421 -2.0176  0.4346
 6247SOL     OW31213   3.302   6.802   1.828  0.0293 -0.0773 -0.2439
 6247SOL    HW131214   3.237   6.827   1.757 -0.8169  1.7214  1.1203
 6247SOL    HW231215   3.304   6.702   1.838 -1.7769 -0.2096 -0.9953
 6248SOL     OW31216   7.038   1.232   1.107  0.0119 -0.0499  0.0854
 6248SOL    HW131217   7.055   1.311   1.166 -0.8987 -0.2581  0.6287
 6248SOL    HW231218   7.056   1.257   1.012 -0.8326  0.9747  0.1935
 6249SOL     OW31219   2.597   0.152   7.482  0.5081 -0.2000 -0.4466
 6249SOL    HW131220   2.521   0.128   7.421 -0.2856  1.4225 -0.1270
 6249SOL    HW231221   2.567   0.223   7.546  2.3828  0.6336 -0.4710
 6250SOL     OW31222   4.569   1.779   6.333 -0.0784  0.2945  0.7136
 6250SOL    HW131223   4.561   1.769   6.432  0.4100 -0.1485  0.7128
 6250SOL    HW231224   4.594   1.690   6.293  0.6999  0.6984  0.3020
 6251SOL     OW31225   8.108   6.136   6.949 -0.4068  0.3341  0.3728
 6251SOL    HW131226   8.207   6.127   6.959 -0.5490 -0.7145  0.9220
 6251SOL    HW231227   8.063   6.069   7.008 -1.4534  1.1863  0.5462
 6252SOL     OW31228   7.592   2.037   7.273  0.0200 -0.1472 -0.1291
 6252SOL    HW131229   7.582   2.136   7.276  1.1850 -0.0513  1.0737
 6252SOL    HW231230   7.502   1.994   7.271 -0.4869  0.9372 -0.4013
 6253SOL     OW31231   6.109   5.037   3.217 -0.3227 -0.1023  0.3311
 6253SOL    HW131232   6.045   5.112   3.202 -1.0816 -0.6450  0.8020
 6253SOL    HW231233   6.174   5.033   3.141 -1.4523 -0.1395 -0.6537
 6254SOL     OW31234   6.772   0.959   7.980 -0.1890  0.5799 -0.3444
 6254SOL    HW131235   6.849   0.902   7.953  0.4634  1.6824 -0.8397
 6254SOL    HW231236   6.735   0.926   8.067  0.3111 -0.4581 -0.5157
 6255SOL     OW31237   7.877   6.875   8.342 -0.0721  0.0961  0.7245
 6255SOL    HW131238   7.852   6.780   8.323 -0.9343  0.4217  0.2244
 6255SOL    HW231239   7.932   6.879   8.425 -0.1570 -0.8221  0.8300
 6256SOL     OW31240   0.786   4.031   8.751 -0.2118  0.4609 -0.3437
 6256SOL    HW131241   0.845   3.963   8.708  0.0954  0.6187 -0.1724
 6256SOL    HW231242   0.842   4.106   8.787 -0.5434  0.7953 -0.5151
 6257SOL     OW31243   2.854   1.734   4.900  0.3914  0.2526  0.6986
 6257SOL    HW131244   2.789   1.671   4.944 -0.4381  1.6055  1.4707
 6257SOL    HW231245   2.848   1.823   4.945 -1.3013  2.0415 -2.8318
 6258SOL     OW31246   5.697   0.879   1.411 -0.1237 -0.1178 -0.1529
 6258SOL    HW131247   5.715   0.785   1.440 -0.0240  0.3294  1.2784
 6258SOL    HW231248   5.716   0.888   1.313 -0.0795 -1.5654 -0.2878
 6259SOL     OW31249   2.819   3.897   4.256 -0.5831  0.4495 -0.0380
 6259SOL    HW131250   2.845   3.966   4.323 -2.0883  2.1712 -1.1716
 6259SOL    HW231251   2.854   3.808   4.284  0.0532  1.3944  2.2580
 6260SOL     OW31252   7.153   4.691   7.974 -0.3985 -0.4363 -0.1194
 6260SOL    HW131253   7.150   4.754   7.897  0.7721 -1.0821 -0.7025
 6260SOL    HW231254   7.063   4.649   7.987 -0.7961  0.2549 -0.6321
 6261SOL     OW31255   7.630   3.239   6.214  0.5214 -0.4742  0.3219
 6261SOL    HW131256   7.546   3.209   6.169  0.7685  0.8221 -1.0405
 6261SOL    HW231257   7.607   3.307   6.284  0.5498  0.8537 -0.9510
 6262SOL     OW31258   8.993   3.177   5.237  0.0916  0.3320  0.4009
 6262SOL    HW131259   8.955   3.242   5.303  0.7099  1.4372 -0.3261
 6262SOL    HW231260   9.023   3.094   5.285  0.7013  1.1992  1.5322
 6263SOL     OW31261   1.637   2.823   0.485 -0.4446 -0.1460 -0.4884
 6263SOL    HW131262   1.609   2.911   0.522  0.1829  0.1626 -0.7533
 6263SOL    HW231263   1.619   2.821   0.387  2.2978  0.7994 -1.0506
 6264SOL     OW31264   0.332   2.196   5.953  0.4135  0.3405  0.5035
 6264SOL    HW131265   0.334   2.263   6.028 -0.8641  0.4899  0.4118
 6264SOL    HW231266   0.250   2.139   5.961  0.9071 -0.4567 -0.0824
 6265SOL     OW31267   5.732   8.450   8.777 -0.7137 -0.2382 -0.6378
 6265SOL    HW131268   5.803   8.383   8.801 -0.3794  0.1824 -0.4489
 6265SOL    HW231269   5.762   8.541   8.804 -0.5995  0.1652 -2.0857
 6266SOL     OW31270   8.788   5.666   5.462 -0.4884  0.2488  0.7911
 6266SOL    HW131271   8.753   5.734   5.527 -1.5688 -1.2862  1.8641
 6266SOL    HW231272   8.729   5.665   5.381  0.9802  2.3078 -0.3350
 6267SOL     OW31273   6.886   6.761   8.506 -0.1536 -0.2761 -0.3127
 6267SOL    HW131274   6.791   6.793   8.514  0.8198  2.3873  1.2492
 6267SOL    HW231275   6.905   6.695   8.579 -0.2401  0.7646  0.6803
 6268SOL     OW31276   5.960   5.688   3.285  0.6067  0.0937 -0.4689
 6268SOL    HW131277   6.004   5.771   3.317 -0.9523  1.1625 -1.0345
 6268SOL    HW231278   5.874   5.711   3.239 -0.5807 -1.9368  0.6648
 6269SOL     OW31279   4.266   3.897   0.165  0.3281 -0.4343  0.2775
 6269SOL    HW131280   4.270   3.860   0.258 -0.8622 -0.3856  0.3593
 6269SOL    HW231281   4.277   3.822   0.099 -1.4668 -0.8785  0.4503
 6270SOL     OW31282   4.672   8.487   7.983 -0.2018 -0.0992  0.4225
 6270SOL    HW131283   4.751   8.516   7.930 -0.7782 -0.9022 -0.9035
 6270SOL    HW231284   4.654   8.553   8.056  1.8083 -0.0329  0.8704
 6271SOL     OW31285   8.212   8.649   7.168 -0.3809 -0.5899 -0.5382
 6271SOL    HW131286   8.264   8.709   7.229 -0.7246 -0.7989 -0.0265
 6271SOL    HW231287   8.265   8.567   7.149 -1.2916 -1.7079  1.5803
 6272SOL     OW31288   6.958   8.700   5.347 -0.0599 -0.6750 -0.8074
 6272SOL    HW131289   6.959   8.634   5.273 -0.8369 -1.6305  0.0215
 6272SOL    HW231290   6.895   8.670   5.419 -1.9107  1.9000 -1.2726
 6273SOL     OW31291   4.333   0.511   2.092  0.5759 -0.3241  0.4706
 6273SOL    HW131292   4.360   0.604   2.119  0.1018 -0.0591  0.0476
 6273SOL    HW231293   4.236   0.497   2.116  1.0247 -1.2076  1.8454
 6274SOL     OW31294   4.475   4.300   5.237 -0.1541 -0.5842 -0.1878
 6274SOL    HW131295   4.453   4.221   5.294 -0.8909 -0.4447 -0.2787
 6274SOL    HW231296   4.513   4.269   5.150  3.8225 -0.7832  1.4691
 6275SOL     OW31297   2.358   0.749   0.354  0.1308  0.2401 -0.5708
 6275SOL    HW131298   2.345   0.650   0.357  2.3596 -0.1097 -1.1797
 6275SOL    HW231299   2.335   0.788   0.443  0.4997 -1.0064  0.0933
 6276SOL     OW31300   1.361   7.842   0.240  0.3965  0.2461 -0.0766
 6276SOL    HW131301   1.317   7.770   0.294 -0.1509 -0.3584 -1.3032
 6276SOL    HW231302   1.339   7.931   0.279 -3.7288  0.1012 -1.8894
 6277SOL     OW31303   4.396   2.097   8.594  0.1339 -0.2343 -0.0373
 6277SOL    HW131304   4.357   2.126   8.507 -0.4897  0.0011  0.3112
 6277SOL    HW231305   4.327   2.048   8.647 -0.1261  1.3537  1.1465
 6278SOL     OW31306   6.539   5.370   4.159  0.7363 -0.4282 -0.1967
 6278SOL    HW131307   6.572   5.280   4.186  2.2890 -0.0364 -0.6998
 6278SOL    HW231308   6.590   5.441   4.207 -0.5399  0.1972  0.2719
 6279SOL     OW31309   3.095   8.099   5.485 -0.1932  0.5349  0.2846
 6279SOL    HW131310   3.081   8.011   5.441 -1.8729  0.7497  0.3627
 6279SOL    HW231311   3.167   8.091   5.555  0.8459 -0.3458 -0.8723
 6280SOL     OW31312   8.239   0.213   5.139  0.2746 -0.6962 -0.0243
 6280SOL    HW131313   8.279   0.287   5.193 -0.3602 -1.6643  1.8227
 6280SOL    HW231314   8.295   0.196   5.058 -0.3100  2.7324 -1.2470
 6281SOL     OW31315   0.572   3.678   6.877  0.3664  0.2519  0.1232
 6281SOL    HW131316   0.555   3.768   6.837  1.0263  0.1399 -0.4192
 6281SOL    HW231317   0.661   3.678   6.923 -0.0585  0.1590  0.9463
 6282SOL     OW31318   5.902   5.250   3.860  0.0534  0.1630 -0.3148
 6282SOL    HW131319   5.871   5.311   3.788  0.8093  0.3588 -0.4737
 6282SOL    HW231320   5.901   5.156   3.827 -2.3945 -0.0684  0.3544
 6283SOL     OW31321   2.901   8.016   3.372 -0.2707  0.3185  0.6464
 6283SOL    HW131322   2.894   8.010   3.272  1.5226  0.7112  0.4805
 6283SOL    HW231323   2.837   8.085   3.405 -0.9651  0.1038 -0.2256
 6284SOL     OW31324   2.478   5.175   6.750  0.1764  0.0539 -0.0154
 6284SOL    HW131325   2.502   5.079   6.730  2.1591  0.7216 -0.9477
 6284SOL    HW231326   2.478   5.227   6.665  0.9199  1.2736  0.7248
 6285SOL     OW31327   7.729   3.260   6.858  0.4525 -0.1031  0.2864
 6285SOL    HW131328   7.779   3.332   6.906  1.3992 -0.8246  0.4086
 6285SOL    HW231329   7.680   3.204   6.925 -0.4077  0.5089  0.1789
 6286SOL     OW31330   2.652   5.638   4.602  0.3491 -0.5103  0.4387
 6286SOL    HW131331   2.595   5.720   4.607 -0.3657 -0.8886 -1.0396
 6286SOL    HW231332   2.740   5.656   4.645  0.0869  0.9432  0.4050
 6287SOL     OW31333   4.003   5.182   5.130 -0.1361  0.2031 -0.3125
 6287SOL    HW131334   4.079   5.244   5.111 -0.2488  0.7046  0.7827
 6287SOL    HW231335   4.039   5.094   5.161  0.0065  0.7039  0.9815
 6288SOL     OW31336   2.019   2.695   6.648  0.4584 -0.0899  0.2675
 6288SOL    HW131337   1.920   2.688   6.640  0.4368 -1.2300  1.3687
 6288SOL    HW231338   2.061   2.684   6.558 -0.3715 -0.5824 -0.0588
 6289SOL     OW31339   1.757   2.631   0.748 -0.4200 -0.3935 -0.0162
 6289SOL    HW131340   1.806   2.696   0.689  0.0895 -0.5686  0.2045
 6289SOL    HW231341   1.686   2.584   0.696 -0.4182 -0.0584 -0.3171
 6290SOL     OW31342   3.861   3.894   3.928  0.7140  0.3502 -0.1186
 6290SOL    HW131343   3.837   3.970   3.868  0.5487  0.8535  0.5795
 6290SOL    HW231344   3.959   3.876   3.920  0.6893  0.4066 -0.5524
 6291SOL     OW31345   1.101   6.107   8.804  0.2050  0.0399 -0.2146
 6291SOL    HW131346   1.117   6.131   8.899 -2.2002 -1.1812  0.5389
 6291SOL    HW231347   1.113   6.008   8.791  1.2802  0.2974 -1.3649
 6292SOL     OW31348   2.067   7.789   2.752  0.3526  0.1428 -0.3454
 6292SOL    HW131349   2.016   7.874   2.769  0.6532  0.7604 -2.3974
 6292SOL    HW231350   2.128   7.802   2.674 -2.1292 -3.0130 -2.9525
 6293SOL     OW31351   4.207   5.981   7.167 -0.2509  0.3152 -0.0282
 6293SOL    HW131352   4.226   5.946   7.259  0.0304 -1.5067 -0.7535
 6293SOL    HW231353   4.153   6.065   7.173  0.8087  0.8880  1.8252
 6294SOL     OW31354   2.883   6.404   4.025 -0.3729 -0.5980  0.2830
 6294SOL    HW131355   2.788   6.394   3.994  0.3318 -3.1844 -1.2001
 6294SOL    HW231356   2.942   6.419   3.945  0.6593 -0.4802  1.0628
 6295SOL     OW31357   6.071   7.974   3.387 -0.0279 -0.5173  0.1077
 6295SOL    HW131358   6.169   7.984   3.368 -0.0057 -1.6542 -0.4184
 6295SOL    HW231359   6.058   7.925   3.473 -0.1472  0.9940  0.9761
 6296SOL     OW31360   3.422   1.048   6.853 -0.2353 -0.3363 -0.4115
 6296SOL    HW131361   3.347   1.059   6.917  0.5694  0.1748  0.4618
 6296SOL    HW231362   3.506   1.025   6.903  0.5200  0.5832 -1.2068
 6297SOL     OW31363   5.634   4.204   3.717 -0.5300  0.6294 -0.1361
 6297SOL    HW131364   5.598   4.130   3.660  0.8792 -0.6065  0.5506
 6297SOL    HW231365   5.571   4.220   3.793 -0.0265 -1.0549  0.6700
 6298SOL     OW31366   4.276   6.132   2.155 -0.4197  0.5670  0.4597
 6298SOL    HW131367   4.201   6.067   2.167 -0.2269 -0.0836 -1.8227
 6298SOL    HW231368   4.238   6.224   2.141 -0.7719  0.3449 -0.0505
 6299SOL     OW31369   1.197   2.788   4.385  0.5925 -0.4350 -0.3385
 6299SOL    HW131370   1.150   2.856   4.441  0.5971 -0.7604  0.0625
 6299SOL    HW231371   1.219   2.827   4.296  0.8764  0.1922  0.0042
 6300SOL     OW31372   7.959   5.756   2.661  0.0770 -0.4053 -0.1515
 6300SOL    HW131373   7.950   5.658   2.673  0.7090 -0.4761 -0.2054
 6300SOL    HW231374   7.875   5.793   2.622 -0.4590 -0.7954  0.6385
 6301SOL     OW31375   8.009   0.154   6.608  0.2243 -0.2869 -1.0323
 6301SOL    HW131376   8.041   0.061   6.624  1.1445  0.1231 -0.4982
 6301SOL    HW231377   8.085   0.219   6.619 -0.3685  0.5099 -1.5725
 6302SOL     OW31378   0.128   4.533   5.376 -0.3822  0.4575  0.1163
 6302SOL    HW131379   0.213   4.547   5.326 -0.4433 -0.3537 -0.2253
 6302SOL    HW231380   0.060   4.600   5.347  0.1570  1.1545  0.4390
 6303SOL     OW31381   1.264   6.411   2.925  0.3712  0.2451  0.1237
 6303SOL    HW131382   1.356   6.376   2.944  1.0926  1.7145 -0.6277
 6303SOL    HW231383   1.254   6.429   2.828 -0.6476  0.3167  0.2346
 6304SOL     OW31384   6.064   7.612   8.782  0.2601  0.0778  0.6956
 6304SOL    HW131385   6.110   7.641   8.866 -1.7705  5.4159  0.1748
 6304SOL    HW231386   6.125   7.627   8.704 -0.1411  1.4188  0.6184
 6305SOL     OW31387   7.042   1.047   0.228 -0.1058 -0.1070  0.2007
 6305SOL    HW131388   6.965   0.990   0.258 -2.0620  1.8383 -1.0021
 6305SOL    HW231389   7.050   1.042   0.129 -0.0287  1.3839  0.1286
 6306SOL     OW31390   1.091   8.188   7.352  0.4348  0.3511  0.1216
 6306SOL    HW131391   1.028   8.199   7.275  1.3028  0.1968 -0.6260
 6306SOL    HW231392   1.067   8.106   7.404  0.0815  0.2380 -0.2238
 6307SOL     OW31393   0.432   8.381   6.203 -0.3365 -0.8335 -0.1938
 6307SOL    HW131394   0.471   8.301   6.250  0.7267 -0.4485 -0.4179
 6307SOL    HW231395   0.499   8.455   6.201  0.0721 -1.2259 -3.3370
 6308SOL     OW31396   5.773   2.926   8.622  0.2178  0.2092 -0.1794
 6308SOL    HW131397   5.857   2.879   8.646 -0.9225 -2.1619 -0.6377
 6308SOL    HW231398   5.715   2.935   8.703 -0.2054 -0.5718 -0.3853
 6309SOL     OW31399   8.668   6.508   1.844 -0.0502 -0.3018  0.5346
 6309SOL    HW131400   8.573   6.519   1.874  0.0614  0.1593  0.7160
 6309SOL    HW231401   8.725   6.580   1.883  0.3578 -0.5092  0.3334
 6310SOL     OW31402   1.996   0.423   2.694  0.5037 -0.5157  0.0319
 6310SOL    HW131403   2.036   0.491   2.633 -0.2477 -1.9513 -2.1274
 6310SOL    HW231404   2.030   0.332   2.671 -1.2746 -1.3280  0.4754
 6311SOL     OW31405   4.666   8.704   8.170 -0.2898  0.2276 -0.1114
 6311SOL    HW131406   4.725   8.735   8.245 -0.5868 -0.6702  0.4993
 6311SOL    HW231407   4.628   8.783   8.123 -1.3447  0.8135  1.6576
 6312SOL     OW31408   3.358   5.605   4.823 -0.4003 -0.2979 -0.3884
 6312SOL    HW131409   3.377   5.529   4.885 -0.3719 -0.8144 -1.0132
 6312SOL    HW231410   3.429   5.609   4.752 -1.6268 -1.1280 -1.6988
 6313SOL     OW31411   8.209   5.392   2.965 -0.1339  0.5238  0.0837
 6313SOL    HW131412   8.201   5.327   2.889  1.1232 -0.2287  0.5876
 6313SOL    HW231413   8.244   5.479   2.930 -0.1350  0.3795 -0.2880
 6314SOL     OW31414   8.870   2.455   8.355 -0.6866 -0.2569 -0.1010
 6314SOL    HW131415   8.962   2.492   8.364 -0.3057 -1.2896  0.2642
 6314SOL    HW231416   8.807   2.510   8.411 -0.2634  0.2999 -0.1612
 6315SOL     OW31417   2.000   7.850   8.448  0.3322 -0.9085  0.2967
 6315SOL    HW131418   2.040   7.938   8.473  0.6803 -0.1556 -2.7051
 6315SOL    HW231419   2.018   7.783   8.520 -0.0888  1.4802  2.7240
 6316SOL     OW31420   0.431   0.202   7.681 -0.1029  0.4203  0.1023
 6316SOL    HW131421   0.513   0.259   7.673  0.0546  0.2066  0.1762
 6316SOL    HW231422   0.447   0.131   7.750 -0.4746  0.5924  0.3650
 6317SOL     OW31423   0.154   0.030   1.120 -0.4094 -0.2052 -0.6329
 6317SOL    HW131424   0.167  -0.069   1.133 -0.2684 -0.1792 -0.5793
 6317SOL    HW231425   0.077   0.045   1.058 -0.5133 -0.3470 -0.5392
 6318SOL     OW31426   5.897   5.326   4.636 -0.4496  0.0108  0.5540
 6318SOL    HW131427   5.825   5.394   4.622  0.5223  0.9309  0.0032
 6318SOL    HW231428   5.857   5.244   4.677 -1.8199  0.4968  0.2194
 6319SOL     OW31429   0.978   6.863   0.865  0.3693 -0.1430  0.2130
 6319SOL    HW131430   0.969   6.764   0.869  2.3818 -0.3212  0.5311
 6319SOL    HW231431   0.897   6.902   0.821 -0.3047 -1.9326 -0.1595
 6320SOL     OW31432   3.704   4.186   5.061  0.0228  0.2793 -0.0876
 6320SOL    HW131433   3.697   4.260   5.128  1.1217 -0.6005  1.0175
 6320SOL    HW231434   3.633   4.118   5.079  0.3957 -0.0183  0.2675
 6321SOL     OW31435   3.283   8.930   5.947 -0.3830  0.3961 -0.0014
 6321SOL    HW131436   3.279   8.835   5.977  0.5194 -0.1092 -1.4118
 6321SOL    HW231437   3.293   8.990   6.027 -0.1116 -0.7596  0.8444
 6322SOL     OW31438   4.825   1.324   0.257 -0.2067  0.1023 -0.3570
 6322SOL    HW131439   4.735   1.303   0.219  0.4093 -0.9917 -1.2667
 6322SOL    HW231440   4.868   1.398   0.205 -1.3902  2.0288  1.3422
 6323SOL     OW31441   6.649   4.450   8.439 -0.2684  0.0703  0.1632
 6323SOL    HW131442   6.565   4.397   8.440 -0.9575  1.1406 -0.0596
 6323SOL    HW231443   6.658   4.501   8.526  0.0580  0.0895  0.1201
 6324SOL     OW31444   6.137   8.321   5.754  0.1233  0.2700 -0.1261
 6324SOL    HW131445   6.099   8.413   5.750 -0.1784  0.2129  1.1352
 6324SOL    HW231446   6.094   8.263   5.685 -0.1467  0.9002 -0.4866
 6325SOL     OW31447   4.682   1.344   7.615 -0.3375  0.2380 -0.7559
 6325SOL    HW131448   4.679   1.409   7.539 -1.4968 -1.0496 -1.8319
 6325SOL    HW231449   4.619   1.269   7.598  0.1283 -0.5975  1.0199
 6326SOL     OW31450   5.841   4.768   8.029 -0.7656  0.2077 -0.5209
 6326SOL    HW131451   5.838   4.671   8.004 -0.0794 -0.2230  1.0407
 6326SOL    HW231452   5.789   4.782   8.113  0.4608  0.9187  0.1235
 6327SOL     OW31453   1.489   7.787   2.683 -0.8166 -0.9584  0.7816
 6327SOL    HW131454   1.525   7.827   2.768  0.8020 -0.1608 -0.2551
 6327SOL    HW231455   1.471   7.860   2.617  0.7823 -1.8005 -0.6212
 6328SOL     OW31456   6.567   6.571   4.904  0.0112  0.5986 -0.1470
 6328SOL    HW131457   6.473   6.589   4.933  0.2838  1.3857  0.2573
 6328SOL    HW231458   6.630   6.591   4.979  0.5828  1.0221 -0.7348
 6329SOL     OW31459   7.937   6.750   5.994  0.2348 -0.5986 -0.5185
 6329SOL    HW131460   8.036   6.743   5.987  0.2812 -1.4484  0.7127
 6329SOL    HW231461   7.902   6.814   5.926  1.6084 -0.4361 -1.0715
 6330SOL     OW31462   3.043   7.951   6.613 -1.0900 -0.0470  0.5699
 6330SOL    HW131463   3.121   7.975   6.555 -1.2763  0.0712  0.3695
 6330SOL    HW231464   3.052   7.996   6.702 -0.9863  0.0596  0.5054
 6331SOL     OW31465   3.727   1.583   0.737  0.0733  0.5645 -0.7415
 6331SOL    HW131466   3.794   1.544   0.674 -0.1569  0.7954 -1.1347
 6331SOL    HW231467   3.687   1.511   0.792  0.2330  0.3513 -0.9022
 6332SOL     OW31468   3.183   5.821   5.854  0.2698  0.1744 -0.2657
 6332SOL    HW131469   3.111   5.884   5.884 -0.2151 -0.3270 -0.3625
 6332SOL    HW231470   3.271   5.850   5.891  0.3150  1.8147 -1.6069
 6333SOL     OW31471   2.939   5.686   6.588 -0.9106 -0.0600  0.6564
 6333SOL    HW131472   2.915   5.668   6.492  2.0029 -1.0402  0.0618
 6333SOL    HW231473   2.879   5.757   6.624 -1.8194  0.5909 -1.9923
 6334SOL     OW31474   5.232   8.667   7.686  0.4858 -0.1034 -0.0392
 6334SOL    HW131475   5.226   8.633   7.592 -2.6740 -2.2394  0.8377
 6334SOL    HW231476   5.172   8.746   7.697  0.8148  0.1145  0.1691
 6335SOL     OW31477   7.119   6.867   3.004 -0.1346 -0.1405 -0.6845
 6335SOL    HW131478   7.139   6.965   3.005 -1.0337  0.0690 -1.9507
 6335SOL    HW231479   7.137   6.830   2.913 -0.5401 -0.9958 -0.4226
 6336SOL     OW31480   4.104   1.628   4.943  0.2158  0.0534 -0.1121
 6336SOL    HW131481   4.151   1.709   4.978  0.2152  0.9587 -2.1480
 6336SOL    HW231482   4.064   1.578   5.019  0.7173  1.6419  1.2371
 6337SOL     OW31483   5.556   2.197   7.159 -0.4325  0.4131  0.3377
 6337SOL    HW131484   5.493   2.248   7.219  1.8461  1.4490  1.9215
 6337SOL    HW231485   5.650   2.223   7.180  0.5045 -0.1424 -2.8800
 6338SOL     OW31486   5.419   2.206   5.924  0.0595  0.1439 -0.3833
 6338SOL    HW131487   5.420   2.143   5.847  0.3610  0.0695 -0.3191
 6338SOL    HW231488   5.493   2.183   5.987  0.0658  0.4537 -0.2746
 6339SOL     OW31489   5.631   6.182   5.374 -0.6767  0.3150 -0.1165
 6339SOL    HW131490   5.620   6.085   5.394 -0.4069  0.3318  0.1231
 6339SOL    HW231491   5.558   6.213   5.313  0.6075 -0.5860 -2.1355
 6340SOL     OW31492   4.171   1.160   3.498  0.0086  0.0394  0.2084
 6340SOL    HW131493   4.166   1.060   3.503 -1.7773  0.2092  2.9178
 6340SOL    HW231494   4.153   1.199   3.589  0.3200  2.8366 -0.8870
 6341SOL     OW31495   0.401   3.396   3.446 -0.0941  0.3352  0.3909
 6341SOL    HW131496   0.308   3.395   3.408  0.0261  0.9925  0.0711
 6341SOL    HW231497   0.437   3.489   3.443  1.0421 -0.1305 -0.6430
 6342SOL     OW31498   8.889   0.111   1.537  0.0497  0.7010  0.0388
 6342SOL    HW131499   8.960   0.165   1.491 -0.5195  0.3348 -1.2980
 6342SOL    HW231500   8.910   0.014   1.529 -0.0196  0.6399  0.6077
 6343SOL     OW31501   5.615   4.544   3.094  0.5505  0.1045 -0.0469
 6343SOL    HW131502   5.605   4.642   3.077  1.0104  0.2715  0.6453
 6343SOL    HW231503   5.533   4.496   3.063 -0.6688  0.9781  1.7805
 6344SOL     OW31504   2.206   1.795   6.754  0.7324 -0.0193  0.4379
 6344SOL    HW131505   2.236   1.870   6.696  2.1029  0.5150  1.7938
 6344SOL    HW231506   2.284   1.741   6.782 -0.0902 -1.1412  0.5882
 6345SOL     OW31507   0.353   0.457   4.212  0.4807 -0.0603 -0.2373
 6345SOL    HW131508   0.368   0.376   4.269  0.7836  0.4080  0.3485
 6345SOL    HW231509   0.283   0.514   4.254  0.9587  0.4645 -0.1494
 6346SOL     OW31510   3.447   8.243   1.673  0.5880  0.2886 -0.3249
 6346SOL    HW131511   3.518   8.184   1.713 -0.4909 -0.1902  0.9357
 6346SOL    HW231512   3.470   8.339   1.690  0.9384  0.1360  0.0735
 6347SOL     OW31513   8.353   6.134   2.068 -0.0631 -0.1373 -0.4559
 6347SOL    HW131514   8.335   6.198   1.994 -0.9771 -1.0743 -1.0512
 6347SOL    HW231515   8.292   6.155   2.145 -0.6398 -0.5198 -0.7992
 6348SOL     OW31516   4.392   0.942   4.877  0.1757  0.7217  0.2343
 6348SOL    HW131517   4.303   0.985   4.889  0.4040  1.0513  0.7512
 6348SOL    HW231518   4.457   1.009   4.840  0.2052  0.4778 -0.1581
 6349SOL     OW31519   4.445   2.505   1.304 -0.8842  0.0196 -0.0677
 6349SOL    HW131520   4.453   2.600   1.335  0.3075 -0.0525 -0.1050
 6349SOL    HW231521   4.440   2.502   1.204  1.2491 -0.0435 -0.2082
 6350SOL     OW31522   1.468   5.943   8.716  0.3574  0.0687  0.2136
 6350SOL    HW131523   1.517   6.029   8.699  1.9639 -0.5375  1.5361
 6350SOL    HW231524   1.464   5.889   8.632 -0.1564  1.1762 -0.4855
 6351SOL     OW31525   4.583   2.354   7.645  0.0183  0.0593  0.1147
 6351SOL    HW131526   4.585   2.309   7.555  0.0942  0.2824  0.0024
 6351SOL    HW231527   4.504   2.415   7.650  0.1710  0.2613  0.0924
 6352SOL     OW31528   6.931   5.184   4.929  0.6339  0.8091  0.0575
 6352SOL    HW131529   7.026   5.154   4.939  0.2503 -0.5623 -0.3178
 6352SOL    HW231530   6.871   5.117   4.972 -0.2941  0.6381 -1.4863
 6353SOL     OW31531   2.632   6.506   1.508  0.2634 -0.3715  0.0370
 6353SOL    HW131532   2.566   6.570   1.469  0.7831 -0.2213 -0.5956
 6353SOL    HW231533   2.609   6.413   1.481  1.5809 -0.1242 -2.0380
 6354SOL     OW31534   1.485   1.952   6.569 -0.4172  0.1250  1.0089
 6354SOL    HW131535   1.513   1.857   6.577  0.8131  0.5686  2.1733
 6354SOL    HW231536   1.525   1.991   6.486 -1.7091 -0.6196  0.0171
 6355SOL     OW31537   3.239   7.127   7.091  0.4745 -0.7026  0.0114
 6355SOL    HW131538   3.299   7.057   7.053 -0.6173  0.1625 -3.4149
 6355SOL    HW231539   3.292   7.207   7.117  1.1966 -1.1848  0.0199
 6356SOL     OW31540   6.881   4.326   2.757 -0.1221 -0.0213 -0.5347
 6356SOL    HW131541   6.937   4.271   2.818  0.8299  2.9022  1.3224
 6356SOL    HW231542   6.939   4.388   2.705 -1.1789 -0.6981 -2.5951
 6357SOL     OW31543   2.377   5.119   4.890  0.3572  0.2535  0.2905
 6357SOL    HW131544   2.311   5.148   4.959 -1.0708  0.2518 -1.0526
 6357SOL    HW231545   2.383   5.189   4.819  1.5142  0.0652  0.1931
 6358SOL     OW31546   3.659   7.519   6.949  0.0908 -0.2237 -0.0105
 6358SOL    HW131547   3.720   7.442   6.967  0.2705  0.0375  0.4923
 6358SOL    HW231548   3.580   7.487   6.897 -0.9510 -1.1834  2.1149
 6359SOL     OW31549   5.045   7.140   4.962 -0.2309  0.1226  0.7295
 6359SOL    HW131550   5.086   7.054   4.934 -2.5277 -0.5091 -0.8754
 6359SOL    HW231551   5.082   7.215   4.907 -0.6724 -0.3218 -0.1722
 6360SOL     OW31552   6.889   5.107   0.879 -0.1204  0.4442 -0.0335
 6360SOL    HW131553   6.799   5.139   0.908 -0.2027  0.4035 -0.2476
 6360SOL    HW231554   6.959   5.161   0.926 -0.2121 -1.4026  2.3551
 6361SOL     OW31555   8.598   4.968   6.301 -0.0090  0.1713  0.1917
 6361SOL    HW131556   8.599   4.880   6.347  1.7159  0.1320  0.1124
 6361SOL    HW231557   8.612   5.041   6.368  0.7788  0.2325 -0.0416
 6362SOL     OW31558   1.856   3.086   8.635  0.1385 -0.3960 -0.0480
 6362SOL    HW131559   1.891   3.092   8.728 -0.8880 -1.7147  0.4270
 6362SOL    HW231560   1.896   3.007   8.588 -1.1703 -1.1454  0.0709
 6363SOL     OW31561   8.276   5.527   6.044  0.0741  0.1417 -0.0656
 6363SOL    HW131562   8.320   5.444   6.080 -0.5790 -0.2968 -0.2763
 6363SOL    HW231563   8.266   5.518   5.945 -0.4528  0.2567 -0.0231
 6364SOL     OW31564   1.108   6.701   4.607 -0.1104 -0.7909 -0.5550
 6364SOL    HW131565   1.147   6.611   4.628 -1.9610 -1.1318  1.6106
 6364SOL    HW231566   1.179   6.759   4.567  1.6311 -2.5827 -0.1922
 6365SOL     OW31567   7.557   1.952   5.230  0.2794  0.0763 -0.1796
 6365SOL    HW131568   7.481   1.937   5.294 -0.2899 -0.7315 -1.0397
 6365SOL    HW231569   7.643   1.927   5.274  0.0673  1.1413  0.8579
 6366SOL     OW31570   3.035   1.779   2.502 -0.3585 -0.0297 -0.4363
 6366SOL    HW131571   2.979   1.707   2.460 -1.8598  0.8082  0.0841
 6366SOL    HW231572   2.989   1.867   2.491  1.7272  0.9481 -1.5586
 6367SOL     OW31573   0.180   3.746   4.004  0.1635 -0.7235  0.4570
 6367SOL    HW131574   0.265   3.695   4.015  0.8390  0.4179  0.5275
 6367SOL    HW231575   0.102   3.683   4.016  0.9769 -1.6253  1.0950
 6368SOL     OW31576   5.150   1.345   5.825 -0.5283 -0.3118 -0.2186
 6368SOL    HW131577   5.080   1.394   5.877 -0.0208 -0.6937  0.8191
 6368SOL    HW231578   5.179   1.264   5.875  0.2381 -0.4748 -0.9191
 6369SOL     OW31579   1.643   4.293   4.600 -0.1407 -0.2637  0.8492
 6369SOL    HW131580   1.712   4.324   4.665  0.5664 -0.7909  0.3671
 6369SOL    HW231581   1.689   4.253   4.520 -0.9983 -0.0375  0.2358
 6370SOL     OW31582   5.056   6.321   4.072  0.4482  0.0485 -0.3346
 6370SOL    HW131583   5.037   6.295   4.166  0.0801  1.1124 -0.1019
 6370SOL    HW231584   5.155   6.327   4.058  0.5870 -2.6664 -0.7490
 6371SOL     OW31585   5.417   3.171   1.637 -0.0490 -0.1843 -0.0656
 6371SOL    HW131586   5.377   3.142   1.724 -2.6960  2.5508 -0.2952
 6371SOL    HW231587   5.346   3.209   1.578  2.7243  4.8717 -0.5170
 6372SOL     OW31588   2.742   6.930   7.600  0.4718  0.5561 -0.1562
 6372SOL    HW131589   2.675   6.856   7.604  0.8741  0.2453  1.2313
 6372SOL    HW231590   2.778   6.938   7.507  0.3680 -0.9336 -0.3348
 6373SOL     OW31591   5.791   0.611   0.701 -0.1919 -0.6431 -0.3317
 6373SOL    HW131592   5.845   0.690   0.670  0.6545 -1.7268 -1.6948
 6373SOL    HW231593   5.746   0.633   0.787 -0.0822  1.3865 -0.7646
 6374SOL     OW31594   4.572   5.882   3.520 -0.1860  0.1826  0.2866
 6374SOL    HW131595   4.552   5.848   3.429  1.6955 -1.9555  0.6360
 6374SOL    HW231596   4.602   5.807   3.578 -0.3278  1.6977  2.3822
 6375SOL     OW31597   3.754   2.718   2.596  0.6140  0.4996 -0.1351
 6375SOL    HW131598   3.706   2.781   2.656  1.5240  1.6523 -0.6010
 6375SOL    HW231599   3.715   2.723   2.504 -0.5050 -0.9586  0.2388
 6376SOL     OW31600   7.947   5.400   0.740 -0.0852  0.2975 -0.1803
 6376SOL    HW131601   7.914   5.392   0.646 -1.2568 -1.0018  0.3187
 6376SOL    HW231602   7.982   5.493   0.756 -2.4532  1.3764 -1.0836
 6377SOL     OW31603   5.493   6.161   6.323 -0.2182 -0.1876  0.6207
 6377SOL    HW131604   5.554   6.137   6.398 -0.1332 -0.4963  0.4545
 6377SOL    HW231605   5.534   6.134   6.236 -0.0008  0.8162  0.4102
 6378SOL     OW31606   5.749   3.926   4.007  0.0214  0.8514 -0.4757
 6378SOL    HW131607   5.744   3.846   3.948 -1.5524  0.2605  0.4310
 6378SOL    HW231608   5.837   3.928   4.054  0.7038  0.5405 -1.7121
 6379SOL     OW31609   3.505   4.358   3.019  0.1785 -0.6075  0.7540
 6379SOL    HW131610   3.571   4.315   3.080  0.1432 -0.2964  1.0082
 6379SOL    HW231611   3.533   4.344   2.924 -0.0405 -1.5423  0.8211
 6380SOL     OW31612   0.829   1.806   8.497  0.1206 -0.2657  0.0328
 6380SOL    HW131613   0.759   1.805   8.567 -1.8678 -2.0841 -1.9007
 6380SOL    HW231614   0.884   1.722   8.503 -0.1575 -0.5057 -0.6371
 6381SOL     OW31615   2.045   6.680   6.926  0.1261  0.1802  0.3378
 6381SOL    HW131616   2.143   6.694   6.917 -0.2489  2.3334 -0.9223
 6381SOL    HW231617   2.020   6.676   7.023  1.4199 -0.0605  0.6633
 6382SOL     OW31618   0.573   3.808   2.133 -0.4947  0.5114  0.2707
 6382SOL    HW131619   0.590   3.821   2.036 -3.3023  2.7120  0.0218
 6382SOL    HW231620   0.494   3.748   2.146  0.7111 -0.9243  1.2537
 6383SOL     OW31621   0.647   5.735   2.334 -0.2087 -0.3678 -0.0972
 6383SOL    HW131622   0.686   5.646   2.358 -1.8084 -0.8770  0.6822
 6383SOL    HW231623   0.719   5.805   2.338  0.8251 -1.4367  0.3534
 6384SOL     OW31624   3.868   3.415   0.084 -0.4441  0.7192  0.1460
 6384SOL    HW131625   3.814   3.460   0.012  1.8446  1.0594 -1.4222
 6384SOL    HW231626   3.879   3.318   0.062 -0.3969  0.6523  0.4595
 6385SOL     OW31627   4.116   7.517   0.850 -0.3585  0.3546 -0.2379
 6385SOL    HW131628   4.212   7.544   0.854  0.1068 -1.2618 -0.2150
 6385SOL    HW231629   4.079   7.540   0.760  0.3201  0.1071 -0.5851
 6386SOL     OW31630   0.135   6.091   2.681  0.3634 -0.0604  0.1248
 6386SOL    HW131631   0.114   6.064   2.775 -0.1426 -0.4977 -0.1140
 6386SOL    HW231632   0.052   6.089   2.626  0.8259 -0.7133 -0.5550
 6387SOL     OW31633   1.608   7.300   7.907 -0.0926  0.1028  1.0616
 6387SOL    HW131634   1.621   7.362   7.985  0.9671  0.9555  0.2315
 6387SOL    HW231635   1.689   7.242   7.897  1.0822  2.0025 -1.1374
 6388SOL     OW31636   5.318   8.692   7.011  0.6958 -0.0448  0.2825
 6388SOL    HW131637   5.399   8.665   7.063 -0.4558 -1.3984  1.4259
 6388SOL    HW231638   5.239   8.639   7.042 -0.0606 -0.8155 -2.7453
 6389SOL     OW31639   6.428   7.139   4.259 -0.0191  0.2917  0.0421
 6389SOL    HW131640   6.448   7.047   4.224 -2.1414 -0.8369  1.6992
 6389SOL    HW231641   6.338   7.168   4.226 -0.0439  1.1334  0.8358
 6390SOL     OW31642   6.457   3.434   4.617  0.7028 -0.6048 -0.0330
 6390SOL    HW131643   6.386   3.370   4.648  1.5285 -0.7502  1.6362
 6390SOL    HW231644   6.545   3.407   4.657  1.5344  0.0768 -1.3937
 6391SOL     OW31645   6.574   3.934   3.737 -0.5821  0.2769 -0.1494
 6391SOL    HW131646   6.585   3.978   3.648 -0.0850  0.8595  0.1956
 6391SOL    HW231647   6.663   3.898   3.768 -1.5776 -4.2104 -2.0809
 6392SOL     OW31648   3.074   4.582   2.830 -0.3482 -0.0831 -0.0351
 6392SOL    HW131649   2.992   4.635   2.852 -0.4421  0.3644 -1.4242
 6392SOL    HW231650   3.062   4.487   2.860 -1.3959 -0.0279 -0.2628
 6393SOL     OW31651   2.573   4.921   1.349 -0.1406  0.1851 -0.3495
 6393SOL    HW131652   2.499   4.911   1.416 -0.9646 -1.0973 -1.4359
 6393SOL    HW231653   2.544   4.883   1.261  1.3289  0.8875 -1.1508
 6394SOL     OW31654   5.100   0.433   6.675  0.2862 -0.1845 -0.5034
 6394SOL    HW131655   5.179   0.377   6.650  0.4438 -0.1843  0.0033
 6394SOL    HW231656   5.089   0.507   6.608  3.3230  2.4608  1.7604
 6395SOL     OW31657   6.583   3.540   7.583  0.4328 -0.6672  0.4516
 6395SOL    HW131658   6.591   3.467   7.515  2.6549 -0.6155  0.6448
 6395SOL    HW231659   6.569   3.628   7.536  2.6207 -0.5398  0.0188
 6396SOL     OW31660   4.169   6.533   1.876  0.3142  0.1458  0.0596
 6396SOL    HW131661   4.240   6.555   1.809 -1.2408  1.3783 -1.2368
 6396SOL    HW231662   4.108   6.463   1.838 -0.1044  0.2614  0.5120
 6397SOL     OW31663   2.473   4.021   8.203 -0.6139  0.0265 -0.1051
 6397SOL    HW131664   2.528   4.053   8.126 -0.5351  0.3253  0.0740
 6397SOL    HW231665   2.388   3.980   8.170 -0.2593 -0.4847 -0.3871
 6398SOL     OW31666   5.719   5.831   2.645  0.0646  0.4756  0.0571
 6398SOL    HW131667   5.623   5.856   2.629 -0.4000  0.4058  2.4762
 6398SOL    HW231668   5.777   5.876   2.577 -1.7506 -0.1100 -1.9301
 6399SOL     OW31669   3.171   2.511   2.988  0.2448 -0.3527 -0.1643
 6399SOL    HW131670   3.090   2.535   3.041  0.1621 -1.0348  0.0329
 6399SOL    HW231671   3.211   2.593   2.947  0.4235  0.2007  1.1029
 6400SOL     OW31672   1.612   5.687   5.588 -0.2378 -0.0828 -0.8500
 6400SOL    HW131673   1.551   5.675   5.510 -0.8847 -1.3987 -0.1432
 6400SOL    HW231674   1.558   5.697   5.672  0.4829 -0.1855 -0.3698
 6401SOL     OW31675   8.789   8.111   8.840 -0.1966 -0.1568 -0.2145
 6401SOL    HW131676   8.744   8.089   8.753 -0.4181  0.3128 -0.2184
 6401SOL    HW231677   8.734   8.176   8.891  0.8541  1.0594 -0.5846
 6402SOL     OW31678   2.724   3.275   7.870  0.3060  0.2357 -0.3073
 6402SOL    HW131679   2.683   3.231   7.951  0.6651 -0.8525 -0.7114
 6402SOL    HW231680   2.657   3.275   7.795  0.9554 -1.3601 -0.9044
 6403SOL     OW31681   4.749   6.091   2.321  0.3311  0.4472  0.6059
 6403SOL    HW131682   4.774   6.006   2.274  0.5475  0.9153 -0.1322
 6403SOL    HW231683   4.680   6.139   2.269  0.7278  1.0778  0.6567
 6404SOL     OW31684   8.211   1.458   7.782 -0.0681  0.5291  0.4378
 6404SOL    HW131685   8.128   1.407   7.760 -0.2360  0.2505  1.6803
 6404SOL    HW231686   8.192   1.523   7.856  1.0879 -0.3587  1.5386
 6405SOL     OW31687   4.337   2.034   8.282 -0.3964 -0.0064 -0.2215
 6405SOL    HW131688   4.296   2.125   8.286 -0.0488  0.1220  0.3858
 6405SOL    HW231689   4.420   2.037   8.226  1.4990  0.7755  2.5778
 6406SOL     OW31690   1.139   4.721   0.298 -0.6654  0.4219  0.0472
 6406SOL    HW131691   1.221   4.679   0.336 -0.8667 -0.2338 -0.2290
 6406SOL    HW231692   1.108   4.794   0.359  0.4853  1.1050 -0.1786
 6407SOL     OW31693   7.111   3.481   1.473  0.1343  1.3439  0.2812
 6407SOL    HW131694   7.200   3.508   1.508  0.2680  0.5235  0.5756
 6407SOL    HW231695   7.118   3.393   1.427 -0.3973  1.5718 -0.2514
 6408SOL     OW31696   5.037   6.007   2.060 -0.3416 -0.0515  0.3094
 6408SOL    HW131697   5.111   6.039   2.118  0.4714  0.0077 -0.7355
 6408SOL    HW231698   4.992   5.928   2.102  0.7162 -0.4703  0.6612
 6409SOL     OW31699   3.528   7.038   0.263  0.0188  0.4645  0.5271
 6409SOL    HW131700   3.581   7.063   0.344  2.5835 -1.2234 -0.5674
 6409SOL    HW231701   3.532   7.112   0.196  2.5962 -0.3488 -0.2833
 6410SOL     OW31702   2.703   3.900   2.995 -0.8119  0.1718  0.0083
 6410SOL    HW131703   2.758   3.818   3.010 -0.4700  0.6919  1.7183
 6410SOL    HW231704   2.760   3.981   3.007 -1.3397  0.6753 -0.8643
 6411SOL     OW31705   0.171   0.622   4.378  0.7809 -0.5337  0.2855
 6411SOL    HW131706   0.184   0.705   4.433  0.1602  0.2758 -0.7708
 6411SOL    HW231707   0.136   0.549   4.436  1.5530 -0.1272  1.2757
 6412SOL     OW31708   1.650   0.818   2.639 -0.1165  0.8249 -0.0774
 6412SOL    HW131709   1.683   0.725   2.655 -0.2687  1.1843  2.5964
 6412SOL    HW231710   1.572   0.815   2.576 -0.2557 -0.8670  0.1361
 6413SOL     OW31711   8.681   4.260   0.593 -0.0989  0.2184  0.1097
 6413SOL    HW131712   8.684   4.360   0.605 -0.7821  0.3376 -0.7585
 6413SOL    HW231713   8.610   4.236   0.527 -0.2736 -0.8851  0.6957
 6414SOL     OW31714   7.587   1.331   0.652 -1.1203  0.0686 -0.3637
 6414SOL    HW131715   7.536   1.254   0.692 -0.9859 -1.2894 -2.7597
 6414SOL    HW231716   7.523   1.403   0.627 -1.5331 -0.3719 -0.5887
 6415SOL     OW31717   5.423   1.136   1.691  0.4806  0.3586  0.6467
 6415SOL    HW131718   5.406   1.232   1.714  0.5535  0.4770  0.2063
 6415SOL    HW231719   5.521   1.121   1.680  0.4052  0.4327 -0.1569
 6416SOL     OW31720   1.412   6.213   0.259  0.1032  0.0331  0.3670
 6416SOL    HW131721   1.500   6.256   0.278  0.4659 -0.6930  0.3315
 6416SOL    HW231722   1.399   6.205   0.160 -0.4999  1.1525  0.3443
 6417SOL     OW31723   3.635   3.528   2.264 -0.1409 -0.1336  0.0655
 6417SOL    HW131724   3.639   3.485   2.174  0.9404  0.0693  0.0079
 6417SOL    HW231725   3.650   3.458   2.335 -0.3206 -0.1817  0.0549
 6418SOL     OW31726   2.704   7.951   6.625  0.5492 -0.1729  0.4817
 6418SOL    HW131727   2.779   7.975   6.564  0.3977  0.5565  0.5778
 6418SOL    HW231728   2.622   7.931   6.571  0.9246 -1.4256  0.3528
 6419SOL     OW31729   3.230   7.569   1.429  0.4528 -0.5419 -0.1613
 6419SOL    HW131730   3.224   7.492   1.492 -1.8216 -1.6674 -1.7043
 6419SOL    HW231731   3.138   7.598   1.402  1.3423  1.1706 -1.4859
 6420SOL     OW31732   7.033   1.347   0.570 -0.1834 -0.2167  0.1859
 6420SOL    HW131733   7.098   1.417   0.598 -0.4055  0.4661 -0.9542
 6420SOL    HW231734   7.058   1.313   0.479 -0.1326 -1.5505  0.6882
 6421SOL     OW31735   3.561   8.465   4.493 -0.2158  0.1505  0.7230
 6421SOL    HW131736   3.641   8.525   4.494  0.2906 -0.5053  0.3949
 6421SOL    HW231737   3.512   8.472   4.580  0.5538  0.0937  1.1631
 6422SOL     OW31738   6.838   1.384   0.292 -0.4324  0.3593 -0.0805
 6422SOL    HW131739   6.811   1.332   0.373 -0.9544  0.8032  0.0310
 6422SOL    HW231740   6.938   1.381   0.283 -0.5009 -1.2556 -0.4844
 6423SOL     OW31741   2.751   0.390   2.447 -0.0527 -0.2448 -0.8903
 6423SOL    HW131742   2.684   0.357   2.514  0.3112 -2.3213 -1.5107
 6423SOL    HW231743   2.839   0.347   2.465  0.1083 -0.6192 -2.5400
 6424SOL     OW31744   8.363   5.079   3.974 -0.3923  0.5643  0.3729
 6424SOL    HW131745   8.378   5.110   3.880 -2.1200  0.9810  0.2051
 6424SOL    HW231746   8.268   5.049   3.984 -0.5467  1.5823  2.2536
 6425SOL     OW31747   6.754   3.968   8.078  0.1285 -0.1963 -0.0106
 6425SOL    HW131748   6.697   4.027   8.135  0.8255 -0.6949  1.2178
 6425SOL    HW231749   6.826   3.926   8.134  0.6767 -0.8868 -1.2042
 6426SOL     OW31750   5.998   1.282   1.882  0.1491  0.9147  0.0446
 6426SOL    HW131751   6.033   1.330   1.802  1.4085  1.7978  1.1061
 6426SOL    HW231752   5.971   1.189   1.857 -1.0093  1.7126 -1.7364
 6427SOL     OW31753   3.162   5.225   3.669 -0.3675 -0.0021  0.2282
 6427SOL    HW131754   3.158   5.306   3.727 -1.9420  0.9338 -1.1610
 6427SOL    HW231755   3.257   5.201   3.650  0.1091  1.0197  1.3231
 6428SOL     OW31756   3.151   6.532   2.236 -0.1359 -0.2293 -0.6255
 6428SOL    HW131757   3.217   6.460   2.215  1.3636  0.9727 -0.1232
 6428SOL    HW231758   3.185   6.588   2.311 -1.7856  0.3597 -0.2925
 6429SOL     OW31759   4.525   3.731   2.894 -0.2154 -0.4837 -0.1835
 6429SOL    HW131760   4.606   3.761   2.944 -0.6004 -0.3086  0.3405
 6429SOL    HW231761   4.550   3.657   2.831  0.4279 -0.1529 -0.3197
 6430SOL     OW31762   8.563   7.919   6.119  0.5264  0.1968  0.0430
 6430SOL    HW131763   8.481   7.891   6.168  0.8894  0.0862  0.5954
 6430SOL    HW231764   8.581   7.855   6.044 -1.4421  1.7701 -1.8535
 6431SOL     OW31765   2.727   2.864   8.582 -0.6763  0.4621 -0.5081
 6431SOL    HW131766   2.734   2.775   8.536  0.6727  0.5750 -0.5388
 6431SOL    HW231767   2.805   2.921   8.556  0.1488  0.5010  1.9363
 6432SOL     OW31768   3.634   6.801   5.107 -0.1464  0.2204 -0.7905
 6432SOL    HW131769   3.560   6.769   5.167 -0.2912 -0.1116 -1.1486
 6432SOL    HW231770   3.601   6.876   5.051 -0.1236  0.2736 -0.7323
 6433SOL     OW31771   7.528   2.310   7.324 -0.4248  0.1578 -0.3183
 6433SOL    HW131772   7.596   2.300   7.397 -0.6710  0.7124 -0.0138
 6433SOL    HW231773   7.454   2.243   7.339 -0.2247 -0.0720 -0.3442
 6434SOL     OW31774   3.631   1.436   8.620  0.0655 -0.8347  0.0995
 6434SOL    HW131775   3.651   1.416   8.716 -0.5232  0.9774  0.6162
 6434SOL    HW231776   3.660   1.529   8.598 -0.6338 -0.9199 -1.2441
 6435SOL     OW31777   2.176   2.558   3.048 -0.3536  0.5227 -0.5189
 6435SOL    HW131778   2.158   2.622   3.123  0.0543 -0.0681  0.0928
 6435SOL    HW231779   2.098   2.497   3.036 -0.8808  1.3545 -1.3281
 6436SOL     OW31780   1.900   3.331   0.077  0.1603 -0.6191 -0.2876
 6436SOL    HW131781   1.935   3.238   0.088  1.8165  0.0443  0.2563
 6436SOL    HW231782   1.867   3.344  -0.017 -0.6197 -1.9097 -0.2107
 6437SOL     OW31783   1.656   5.689   8.624  0.4427  0.3732  0.0637
 6437SOL    HW131784   1.662   5.772   8.679  0.3411 -0.5201  1.4551
 6437SOL    HW231785   1.560   5.665   8.611  0.4732  0.4453 -0.2754
 6438SOL     OW31786   0.164   6.330   8.120  0.4569  0.7759  0.3761
 6438SOL    HW131787   0.127   6.388   8.048  0.6829  1.0678  0.4943
 6438SOL    HW231788   0.090   6.298   8.179  0.3496  1.0628  0.3963
 6439SOL     OW31789   5.810   3.401   4.684 -0.1904  0.4641  0.8053
 6439SOL    HW131790   5.764   3.486   4.658 -0.0318 -0.1273 -1.5279
 6439SOL    HW231791   5.755   3.323   4.655  0.9863 -0.2409  0.4353
 6440SOL     OW31792   6.006   5.618   2.347 -0.2359  0.9574 -0.2172
 6440SOL    HW131793   6.035   5.564   2.268  0.1542 -0.0697  0.6069
 6440SOL    HW231794   6.080   5.620   2.415 -0.4671  2.0444  0.0086
 6441SOL     OW31795   8.958   7.349   8.211 -0.5932 -0.2982  0.0021
 6441SOL    HW131796   8.978   7.325   8.306  1.7183 -2.6516 -1.0040
 6441SOL    HW231797   8.861   7.335   8.193 -1.9110  3.9842  3.0074
 6442SOL     OW31798   2.651   3.201   5.346  0.3378  0.0842 -0.1898
 6442SOL    HW131799   2.635   3.170   5.252  2.1142  0.8654 -0.7938
 6442SOL    HW231800   2.737   3.163   5.379  1.2194  2.1571  0.0205
 6443SOL     OW31801   0.189   1.411   5.050  0.3805 -0.0042  1.0348
 6443SOL    HW131802   0.252   1.405   4.972  0.8515 -1.1403  1.4900
 6443SOL    HW231803   0.157   1.319   5.074  0.4878  0.3013  2.3847
 6444SOL     OW31804   7.267   8.508   0.914  0.2295  0.3280 -0.2037
 6444SOL    HW131805   7.175   8.504   0.876  0.7647  0.0435 -1.4907
 6444SOL    HW231806   7.299   8.603   0.914  0.5336  0.2369 -1.2398
 6445SOL     OW31807   7.010   3.440   8.274  0.2494  0.3485 -0.6254
 6445SOL    HW131808   7.086   3.381   8.245  0.5145  0.6801 -0.6165
 6445SOL    HW231809   7.033   3.535   8.253 -0.0626  0.4733 -0.3998
 6446SOL     OW31810   3.886   7.241   6.023 -0.0246  0.1222  0.4015
 6446SOL    HW131811   3.866   7.224   6.119 -0.1323 -1.0648  0.1793
 6446SOL    HW231812   3.965   7.186   5.995  1.8005  2.5580  0.5163
 6447SOL     OW31813   2.799   7.670   2.979 -0.0346 -0.0437  0.5325
 6447SOL    HW131814   2.803   7.721   2.893 -0.3742 -1.1079 -0.1182
 6447SOL    HW231815   2.741   7.719   3.044 -1.1456 -0.0852 -0.4171
 6448SOL     OW31816   1.575   6.420   7.804 -0.5362  0.2878 -0.6210
 6448SOL    HW131817   1.476   6.405   7.808 -0.7574  1.8080 -0.2042
 6448SOL    HW231818   1.602   6.483   7.877  0.5517  0.8764 -1.5209
 6449SOL     OW31819   8.624   5.343   3.786  0.3641 -0.2118 -0.1806
 6449SOL    HW131820   8.699   5.290   3.747  1.6406  1.0692  0.4544
 6449SOL    HW231821   8.626   5.334   3.886  0.6803  1.1028 -0.0574
 6450SOL     OW31822   6.356   2.245   2.811 -0.0153  0.0367  0.3013
 6450SOL    HW131823   6.452   2.229   2.789 -0.2652 -0.2933 -0.5734
 6450SOL    HW231824   6.323   2.173   2.871  0.7132  1.0120  1.8888
 6451SOL     OW31825   3.488   5.110   8.481 -0.3125  0.3058 -0.0021
 6451SOL    HW131826   3.465   5.162   8.398 -0.9709  1.3801  0.8378
 6451SOL    HW231827   3.475   5.168   8.561  2.8305  0.1226  0.7096
 6452SOL     OW31828   4.101   7.710   6.360  0.0878  0.6456  0.2269
 6452SOL    HW131829   4.139   7.634   6.307  0.1147  0.5186  0.4282
 6452SOL    HW231830   4.174   7.775   6.382  0.2305  0.3039  0.7779
 6453SOL     OW31831   8.337   0.660   6.142 -0.5055  0.1074 -0.3155
 6453SOL    HW131832   8.324   0.561   6.142 -0.6607  0.0937  2.1717
 6453SOL    HW231833   8.272   0.702   6.207  0.6012  1.6750 -0.1975
 6454SOL     OW31834   2.414   2.058   5.836  0.1590 -0.4785  0.1621
 6454SOL    HW131835   2.317   2.043   5.814  0.3580 -0.0790 -1.0202
 6454SOL    HW231836   2.424   2.142   5.888  0.2278  1.3105 -2.6707
 6455SOL     OW31837   1.147   3.904   3.520  0.3669 -0.2184 -0.0461
 6455SOL    HW131838   1.191   3.835   3.577 -0.8942 -0.0840  1.1032
 6455SOL    HW231839   1.154   3.994   3.565  2.9991  0.6618 -2.0486
 6456SOL     OW31840   0.622   7.311   6.249 -0.2864  0.2277 -0.5848
 6456SOL    HW131841   0.698   7.253   6.221  1.3768  2.0378  0.0775
 6456SOL    HW231842   0.604   7.299   6.347 -0.8097 -0.1399 -0.7235
 6457SOL     OW31843   7.607   8.361   6.624 -0.3133  0.3317 -0.2363
 6457SOL    HW131844   7.517   8.335   6.658  0.0540  0.1359  0.6099
 6457SOL    HW231845   7.644   8.287   6.567 -0.4938  0.2257 -0.2146
 6458SOL     OW31846   7.079   4.808   1.101 -0.3355 -0.0541 -0.7398
 6458SOL    HW131847   7.004   4.841   1.157  0.3832  0.3889 -0.0344
 6458SOL    HW231848   7.158   4.869   1.110  0.7754 -1.5717  0.0532
 6459SOL     OW31849   6.571   4.715   4.867 -0.5326  0.0511 -0.1365
 6459SOL    HW131850   6.500   4.644   4.863 -0.7002  0.2479 -0.7551
 6459SOL    HW231851   6.629   4.708   4.785  2.0781 -2.0792  1.7735
 6460SOL     OW31852   3.907   3.240   1.338 -1.1550  0.2497 -1.4188
 6460SOL    HW131853   3.829   3.240   1.401  1.0259  1.7325  1.3807
 6460SOL    HW231854   3.923   3.332   1.304  0.5954  0.3552 -0.3696
 6461SOL     OW31855   0.031   6.718   3.227 -0.2334  0.3871  0.2113
 6461SOL    HW131856   0.011   6.683   3.318 -0.9118  0.7733  0.2118
 6461SOL    HW231857   0.107   6.667   3.188  0.0420  0.2059  0.9839
 6462SOL     OW31858   4.046   8.695   0.220  0.4635 -0.5789 -0.2599
 6462SOL    HW131859   4.032   8.622   0.286  0.8445 -1.0265 -0.6706
 6462SOL    HW231860   4.039   8.658   0.127 -1.8151  0.3700 -0.4987
 6463SOL     OW31861   3.773   8.131   7.423  0.1633 -0.2968 -0.1265
 6463SOL    HW131862   3.789   8.069   7.346 -0.8337 -0.6812 -0.0317
 6463SOL    HW231863   3.705   8.200   7.397  0.1190 -0.1880  0.2818
 6464SOL     OW31864   2.632   8.590   5.855  0.0912  0.0701 -0.3399
 6464SOL    HW131865   2.727   8.610   5.833  1.6581 -3.4695  2.7532
 6464SOL    HW231866   2.607   8.500   5.819 -1.4432  0.0782  0.6586
 6465SOL     OW31867   8.868   1.412   1.693 -0.2990  0.2176  0.4018
 6465SOL    HW131868   8.926   1.330   1.690 -0.1232  0.3087  1.1789
 6465SOL    HW231869   8.861   1.451   1.602  0.5528 -0.0224  0.2276
 6466SOL     OW31870   4.152   6.816   1.281  0.1460 -0.2603 -0.3026
 6466SOL    HW131871   4.210   6.757   1.226 -0.6259 -1.9999  0.6874
 6466SOL    HW231872   4.195   6.832   1.370 -0.0476 -0.0436 -0.2453
 6467SOL     OW31873   7.635   3.995   0.931  0.4192 -0.0326  0.7147
 6467SOL    HW131874   7.721   4.031   0.967  0.7287  2.2673 -2.2055
 6467SOL    HW231875   7.582   4.069   0.889 -2.5198 -1.6034  1.4960
 6468SOL     OW31876   5.806   7.890   0.630 -0.9341 -0.8997  0.4044
 6468SOL    HW131877   5.814   7.983   0.666 -0.6340 -0.8934  0.3277
 6468SOL    HW231878   5.796   7.826   0.706 -1.5958 -0.7610  0.4344
 6469SOL     OW31879   6.124   4.985   6.022 -0.0013 -0.2794 -0.0161
 6469SOL    HW131880   6.137   5.059   5.957 -0.8695 -0.5207 -0.4665
 6469SOL    HW231881   6.213   4.957   6.059  0.7198 -1.4294 -2.5355
 6470SOL     OW31882   2.187   1.979   5.282 -0.3481 -0.3937 -0.2359
 6470SOL    HW131883   2.125   1.900   5.278 -0.2339 -0.5136  0.2865
 6470SOL    HW231884   2.271   1.958   5.231 -2.0689  0.9972 -3.8293
 6471SOL     OW31885   5.044   4.579   1.180 -0.3048 -0.0248 -0.1966
 6471SOL    HW131886   5.083   4.490   1.156  0.0249 -0.2604  1.1651
 6471SOL    HW231887   5.008   4.575   1.273 -2.2975  0.6215 -0.9215
 6472SOL     OW31888   0.244   2.707   0.044 -0.0090 -0.3213  0.3999
 6472SOL    HW131889   0.180   2.711  -0.032  2.4553 -1.8473 -1.8513
 6472SOL    HW231890   0.327   2.758   0.021  1.4381 -2.1576  1.3331
 6473SOL     OW31891   7.893   6.438   7.274 -0.0916 -0.2781 -0.0589
 6473SOL    HW131892   7.945   6.421   7.191 -1.7891  1.9002 -1.6274
 6473SOL    HW231893   7.802   6.396   7.266 -0.9457  1.5647 -0.1021
 6474SOL     OW31894   6.264   8.917   6.455  0.0398  0.0295  0.5836
 6474SOL    HW131895   6.343   8.868   6.492  1.3621  1.7688  0.1829
 6474SOL    HW231896   6.288   8.955   6.366 -1.8220 -0.8208 -0.3009
 6475SOL     OW31897   8.480   1.777   1.669 -0.3637 -0.0194  0.3732
 6475SOL    HW131898   8.561   1.721   1.662 -0.7660 -0.5037 -0.3893
 6475SOL    HW231899   8.434   1.759   1.756 -0.1944 -0.4666  0.3684
 6476SOL     OW31900   3.658   3.032   7.865 -0.3964 -0.3543  0.0409
 6476SOL    HW131901   3.630   3.062   7.774 -0.6332  1.7565  0.7899
 6476SOL    HW231902   3.595   2.962   7.898 -1.7905  0.6954 -0.3733
 6477SOL     OW31903   0.545   0.200   1.658 -0.3187  0.0067  0.3143
 6477SOL    HW131904   0.540   0.225   1.561  1.3403 -0.9809 -0.0406
 6477SOL    HW231905   0.586   0.275   1.710 -2.3013  1.0293  0.4773
 6478SOL     OW31906   3.071   3.545   4.134 -0.0436 -0.2805  0.2915
 6478SOL    HW131907   3.107   3.618   4.076 -1.4482  0.5915  0.4986
 6478SOL    HW231908   3.030   3.474   4.077 -1.1206  0.4132  0.1991
 6479SOL     OW31909   8.566   0.067   5.192  0.3165 -0.0543 -0.1874
 6479SOL    HW131910   8.591   0.159   5.222 -0.2548 -0.5885  2.0013
 6479SOL    HW231911   8.639   0.003   5.217  0.6108 -0.2610 -1.5076
 6480SOL     OW31912   0.873   0.945   0.174  0.4849 -0.5417  0.2389
 6480SOL    HW131913   0.903   1.038   0.155  0.1094 -0.4086  0.3032
 6480SOL    HW231914   0.789   0.926   0.123  0.8753 -1.0385 -0.2324
 6481SOL     OW31915   2.068   6.496   3.558  0.5088 -0.2393  0.2077
 6481SOL    HW131916   1.991   6.504   3.621 -0.6833 -1.9114 -1.0330
 6481SOL    HW231917   2.152   6.483   3.611  0.0656  2.0780  1.5859
 6482SOL     OW31918   0.686   2.909   4.186  0.4916  0.4800 -0.3764
 6482SOL    HW131919   0.687   2.811   4.207  1.7739  0.8693  1.4412
 6482SOL    HW231920   0.753   2.928   4.114  1.4281  0.2669  0.4293
 6483SOL     OW31921   5.241   5.579   2.520 -0.4315 -0.7233  0.0860
 6483SOL    HW131922   5.280   5.523   2.594 -0.4957 -1.6881 -0.6092
 6483SOL    HW231923   5.308   5.588   2.446 -1.2817 -1.8331 -0.8282
 6484SOL     OW31924   8.404   7.056   0.152 -0.3890  0.2546 -0.2394
 6484SOL    HW131925   8.495   7.060   0.111 -0.3083 -1.3070 -0.2471
 6484SOL    HW231926   8.338   7.100   0.091  0.3381  1.3944 -0.2381
 6485SOL     OW31927   2.683   3.634   3.231 -0.3605  0.1163  0.0158
 6485SOL    HW131928   2.651   3.593   3.316 -0.5750 -1.1935 -0.6715
 6485SOL    HW231929   2.605   3.673   3.181 -0.3133  0.4212  0.1843
 6486SOL     OW31930   1.017   0.353   6.597 -0.1401  0.2302 -0.6128
 6486SOL    HW131931   0.937   0.405   6.624 -0.4213 -0.0132 -0.9792
 6486SOL    HW231932   1.080   0.347   6.675 -1.4676 -1.4700  0.3660
 6487SOL     OW31933   5.650   4.823   5.988  0.4913  0.0982  0.1858
 6487SOL    HW131934   5.607   4.829   5.898 -0.0126 -3.2305  0.1562
 6487SOL    HW231935   5.749   4.823   5.977  0.4307 -1.5887 -0.4941
 6488SOL     OW31936   6.961   3.149   2.248  0.1253 -0.2120  1.2468
 6488SOL    HW131937   7.013   3.115   2.327 -1.8630 -0.2914  2.5594
 6488SOL    HW231938   6.880   3.197   2.281 -0.0829  0.8229 -0.7467
 6489SOL     OW31939   8.895   4.276   2.159 -0.4844 -0.2038  0.0175
 6489SOL    HW131940   8.931   4.183   2.159 -0.2612 -0.1276 -1.0385
 6489SOL    HW231941   8.803   4.277   2.198 -0.3461 -0.8083  0.3483
 6490SOL     OW31942   5.687   3.981   2.060 -0.0704  0.0101 -0.3735
 6490SOL    HW131943   5.613   3.954   1.998 -0.4340  1.4338 -0.5616
 6490SOL    HW231944   5.654   3.981   2.154  0.2814 -1.4142 -0.2246
 6491SOL     OW31945   1.737   6.870   0.190 -0.3362  0.1952 -0.0112
 6491SOL    HW131946   1.695   6.945   0.138 -1.8287 -0.0509  0.8153
 6491SOL    HW231947   1.682   6.851   0.271  1.5148  0.0046  1.2176
 6492SOL     OW31948   8.190   4.347   8.040 -0.1755  0.0799 -0.3634
 6492SOL    HW131949   8.158   4.412   7.970 -0.5231 -1.1354 -1.3510
 6492SOL    HW231950   8.112   4.295   8.075  0.3683 -1.1776 -1.0006
 6493SOL     OW31951   6.224   2.667   7.389  0.1154 -0.8196  0.0368
 6493SOL    HW131952   6.251   2.583   7.342  0.6076 -0.6689  0.0483
 6493SOL    HW231953   6.306   2.715   7.422 -0.1203 -0.0231 -0.5146
 6494SOL     OW31954   5.296   4.013   4.273  0.6464  0.1065  0.0510
 6494SOL    HW131955   5.236   4.083   4.310  2.8244  1.8054  0.5235
 6494SOL    HW231956   5.290   3.930   4.328 -2.4468 -0.3588 -0.8902
 6495SOL     OW31957   4.546   1.894   5.955 -0.8650 -0.4494 -0.2831
 6495SOL    HW131958   4.484   1.816   5.962 -0.3187 -0.7520  1.7938
 6495SOL    HW231959   4.639   1.860   5.938 -0.5965 -0.2916  0.8096
 6496SOL     OW31960   4.017   2.215   3.418 -0.8162  0.2800 -0.0027
 6496SOL    HW131961   3.972   2.304   3.422 -0.6118  0.4449 -1.3898
 6496SOL    HW231962   4.058   2.201   3.328 -1.6163 -1.5896 -0.1064
 6497SOL     OW31963   8.564   4.475   0.835 -0.3212 -0.0585  0.2613
 6497SOL    HW131964   8.478   4.455   0.882 -0.8339  1.1050 -0.1539
 6497SOL    HW231965   8.640   4.438   0.887 -1.0391 -0.6620  0.8902
 6498SOL     OW31966   5.676   6.115   1.198 -0.1847  0.3299 -0.4030
 6498SOL    HW131967   5.597   6.077   1.246  0.3324 -1.1028 -0.6862
 6498SOL    HW231968   5.652   6.130   1.102  0.6352 -2.4061 -1.0566
 6499SOL     OW31969   0.875   2.048   6.657 -0.4570 -0.1967  0.4547
 6499SOL    HW131970   0.871   2.047   6.557 -3.9204 -0.6126  0.5232
 6499SOL    HW231971   0.914   1.962   6.690  1.8743  0.4522 -0.5344
 6500SOL     OW31972   0.606   8.069   7.481  0.1298  0.2612  0.1973
 6500SOL    HW131973   0.567   8.159   7.457  1.6098  1.2078  1.2498
 6500SOL    HW231974   0.567   8.037   7.567 -1.5111 -0.8196 -0.9342
 6501SOL     OW31975   7.746   1.238   5.857  0.3113 -0.7471  0.2781
 6501SOL    HW131976   7.816   1.238   5.785 -1.4763  0.7737 -1.5168
 6501SOL    HW231977   7.673   1.175   5.833 -0.9556  0.7759  0.0844
 6502SOL     OW31978   3.061   7.633   6.463 -0.0012  0.5764  0.8122
 6502SOL    HW131979   3.072   7.630   6.562  1.8834  3.4897  0.7607
 6502SOL    HW231980   2.965   7.650   6.440 -0.5236 -0.5575  2.1095
 6503SOL     OW31981   4.804   8.349   7.043 -0.0794  0.5995  0.2431
 6503SOL    HW131982   4.823   8.257   7.077  2.7008  0.7831 -0.7026
 6503SOL    HW231983   4.778   8.345   6.947  0.6186  0.8531  0.0428
 6504SOL     OW31984   8.990   3.694   8.190 -0.0668  0.3161  0.0522
 6504SOL    HW131985   9.001   3.595   8.198  0.8857  0.4550  0.4971
 6504SOL    HW231986   9.019   3.725   8.099 -3.3299 -0.2123 -1.2236
 6505SOL     OW31987   3.845   5.494   6.269 -0.4299  0.3082  0.0271
 6505SOL    HW131988   3.936   5.502   6.228  0.2031  1.3535  1.6021
 6505SOL    HW231989   3.825   5.398   6.287  0.4782  0.1062 -0.0372
 6506SOL     OW31990   2.715   1.431   0.388  0.2914  0.3692  0.1110
 6506SOL    HW131991   2.625   1.411   0.426  0.3628 -0.9288 -0.3668
 6506SOL    HW231992   2.709   1.436   0.288  0.6560  0.7965  0.1058
 6507SOL     OW31993   7.421   6.970   2.676  0.2031 -0.3660  0.3262
 6507SOL    HW131994   7.391   6.949   2.583  1.1876  0.3282 -0.1554
 6507SOL    HW231995   7.418   7.068   2.692 -0.9069 -0.5480  1.3720
 6508SOL     OW31996   5.971   0.781   1.450 -0.2897  0.3716 -0.2317
 6508SOL    HW131997   5.940   0.686   1.448  1.0543 -0.0668 -0.6360
 6508SOL    HW231998   5.891   0.842   1.448 -1.1397 -0.7292 -0.5726
 6509SOL     OW31999   8.231   4.075   0.406 -0.4030  0.2151  0.2027
 6509SOL    HW132000   8.241   3.980   0.434 -4.1442 -0.7288 -1.4781
 6509SOL    HW232001   8.134   4.100   0.404  0.4297  3.6334 -0.8312
 6510SOL     OW32002   5.498   4.604   7.224  0.1241  0.3331  0.3235
 6510SOL    HW132003   5.464   4.679   7.281 -0.5263  0.0001  0.3781
 6510SOL    HW232004   5.421   4.555   7.184  0.5095 -1.0257  1.2119
 6511SOL     OW32005   5.481   3.977   3.056 -0.0717  0.1635  0.0528
 6511SOL    HW132006   5.474   4.058   2.997  0.8609 -0.4409 -0.9087
 6511SOL    HW232007   5.406   3.978   3.122 -1.0257  0.9566 -1.0139
 6512SOL     OW32008   5.894   0.853   6.879 -0.0286 -0.2436  0.2609
 6512SOL    HW132009   5.935   0.941   6.856 -0.6286  0.4869  1.9625
 6512SOL    HW232010   5.796   0.856   6.863 -0.1649 -0.3569  1.0927
 6513SOL     OW32011   4.620   6.918   1.532  0.8200 -0.0892 -0.1680
 6513SOL    HW132012   4.719   6.933   1.530  0.9097 -0.7142 -0.8323
 6513SOL    HW232013   4.601   6.820   1.520  0.0999  0.1071 -0.6587
 6514SOL     OW32014   7.081   5.894   5.442  0.0131  0.5339  0.3577
 6514SOL    HW132015   7.075   5.977   5.498 -2.2999  1.0382 -0.5784
 6514SOL    HW232016   7.037   5.910   5.354  2.2790 -0.7438 -1.0466
 6515SOL     OW32017   1.721   5.721   8.356  0.8116 -0.2493 -0.0877
 6515SOL    HW132018   1.755   5.635   8.319 -1.7596 -1.6625  0.7649
 6515SOL    HW232019   1.720   5.717   8.456  0.8447  0.8381 -0.0302
 6516SOL     OW32020   1.361   3.423   2.702  0.4328 -0.8943  0.2321
 6516SOL    HW132021   1.445   3.381   2.668  0.8645  1.3500 -1.6155
 6516SOL    HW232022   1.304   3.451   2.625 -0.5040  0.5167  1.4148
 6517SOL     OW32023   2.948   4.147   5.253 -0.3323  0.6055  0.5604
 6517SOL    HW132024   2.854   4.161   5.281 -0.4836  0.7455 -0.0084
 6517SOL    HW232025   2.987   4.234   5.221  0.3714  0.8056  1.9345
 6518SOL     OW32026   3.712   3.036   3.235 -0.8133  0.4522  0.4665
 6518SOL    HW132027   3.713   2.969   3.161  0.6368  0.1461  0.7511
 6518SOL    HW232028   3.699   2.989   3.323 -0.4167  0.6051  0.6087
 6519SOL     OW32029   8.305   4.563   4.051 -0.1050  0.0813 -0.4958
 6519SOL    HW132030   8.305   4.655   4.090 -0.7485 -0.6620  1.3103
 6519SOL    HW232031   8.384   4.512   4.084 -0.3567 -0.3764 -0.5894
 6520SOL     OW32032   6.559   5.324   8.678  0.1427 -0.0364 -0.5438
 6520SOL    HW132033   6.620   5.327   8.599 -1.2571  0.6222 -1.6296
 6520SOL    HW232034   6.604   5.364   8.758  1.0491  0.6122 -1.3757
 6521SOL     OW32035   4.044   3.738   6.879 -0.2058 -0.3878  0.1403
 6521SOL    HW132036   4.058   3.682   6.960  0.1584  0.2755  0.5390
 6521SOL    HW232037   4.031   3.834   6.906 -2.2276 -0.4742 -0.4341
 6522SOL     OW32038   4.894   3.490   2.275 -0.1628 -0.1696 -0.2470
 6522SOL    HW132039   4.891   3.560   2.203 -0.2194 -0.4477 -0.5189
 6522SOL    HW232040   4.980   3.499   2.326 -0.4405  0.4713  0.1001
 6523SOL     OW32041   4.647   3.006   1.120 -0.1379  0.1865  0.1167
 6523SOL    HW132042   4.664   2.909   1.136 -0.3574  0.0736 -0.3432
 6523SOL    HW232043   4.586   3.017   1.042  0.9108  0.7400 -0.6342
 6524SOL     OW32044   1.823   1.020   7.663 -0.1285  0.1723 -0.0574
 6524SOL    HW132045   1.809   0.924   7.640  0.4513  0.8014 -3.2013
 6524SOL    HW232046   1.837   1.073   7.579 -1.9076  3.2571  1.5233
 6525SOL     OW32047   4.801   8.972   5.938 -0.3826 -0.3174 -0.2371
 6525SOL    HW132048   4.740   8.991   5.861  0.0106 -0.1008 -0.4971
 6525SOL    HW232049   4.808   8.873   5.952  1.5573 -0.4636 -2.1071
 6526SOL     OW32050   6.337   7.512   7.759 -0.2210  0.4519  0.3701
 6526SOL    HW132051   6.368   7.425   7.797  0.3794  0.2427 -0.5880
 6526SOL    HW232052   6.339   7.582   7.831  0.0431 -0.1425  0.9478
 6527SOL     OW32053   5.944   3.652   5.312 -0.2937  0.3516 -0.4516
 6527SOL    HW132054   5.901   3.595   5.242  0.7607 -2.9471  1.5203
 6527SOL    HW232055   6.041   3.632   5.316  0.2909  3.0042 -0.3282
 6528SOL     OW32056   2.512   1.686   5.352 -0.4528  0.2805 -0.6472
 6528SOL    HW132057   2.516   1.779   5.316  0.3273  1.1958  1.6859
 6528SOL    HW232058   2.478   1.689   5.446 -1.2703 -1.8983 -0.8505
 6529SOL     OW32059   3.166   8.659   1.725 -0.6526  0.1397  0.6585
 6529SOL    HW132060   3.201   8.609   1.646 -2.7196  1.0631 -0.8834
 6529SOL    HW232061   3.188   8.609   1.808 -0.1843 -1.8681 -0.6400
 6530SOL     OW32062   6.348   3.545   5.849 -0.1586 -0.1362 -0.1820
 6530SOL    HW132063   6.252   3.517   5.848 -0.4184  0.6992  1.0145
 6530SOL    HW232064   6.401   3.478   5.901 -0.0573 -0.6948 -0.9971
 6531SOL     OW32065   4.484   5.627   6.115  0.4849 -0.1794  0.6457
 6531SOL    HW132066   4.409   5.692   6.127  1.5467  1.0851  0.5724
 6531SOL    HW232067   4.476   5.582   6.026 -0.6247 -0.6444  0.9729
 6532SOL     OW32068   2.701   7.608   1.463  0.4154  0.1455 -0.0233
 6532SOL    HW132069   2.646   7.608   1.379  0.8625 -0.9916 -0.3193
 6532SOL    HW232070   2.664   7.676   1.527  0.0972  1.0535 -1.1513
 6533SOL     OW32071   1.646   7.061   0.542 -0.6101 -0.3812  0.1032
 6533SOL    HW132072   1.651   7.152   0.499 -1.3828 -0.2930  0.1954
 6533SOL    HW232073   1.626   6.992   0.472  0.4258 -0.5394 -0.0373
 6534SOL     OW32074   1.980   5.980   3.804  0.1589  0.7732 -0.0542
 6534SOL    HW132075   1.897   5.931   3.831  2.4177 -2.6281  1.0900
 6534SOL    HW232076   2.012   5.946   3.716  1.4398  0.5855  0.4706
 6535SOL     OW32077   5.909   5.722   2.836  0.7484 -0.6248  0.1915
 6535SOL    HW132078   5.832   5.737   2.775  0.4144 -2.7225  0.0418
 6535SOL    HW232079   5.874   5.702   2.928  1.0905 -1.6115  0.1141
 6536SOL     OW32080   3.786   0.018   0.793 -0.4604 -0.1129 -0.3708
 6536SOL    HW132081   3.792   0.114   0.820  0.8430 -0.0110 -0.9910
 6536SOL    HW232082   3.861  -0.004   0.730  0.7283 -2.1805  1.7177
 6537SOL     OW32083   4.065   5.566   3.697  0.1706 -0.1279  0.6728
 6537SOL    HW132084   4.055   5.665   3.708  1.4663  0.3113 -1.8186
 6537SOL    HW232085   4.032   5.539   3.607  0.2348 -1.9016  1.1754
 6538SOL     OW32086   6.435   5.112   0.880  0.5212 -0.4623 -0.2604
 6538SOL    HW132087   6.449   5.053   0.958  1.1672  1.9044  1.4742
 6538SOL    HW232088   6.405   5.202   0.911  3.8005  1.5146 -2.4448
 6539SOL     OW32089   8.056   3.618   6.697  0.0989  0.0588  0.1549
 6539SOL    HW132090   8.146   3.607   6.740 -0.4955  0.2699  1.4889
 6539SOL    HW232091   8.023   3.711   6.712 -1.6675 -0.8529  2.3584
 6540SOL     OW32092   5.144   4.805   0.271  0.2386  0.8125 -0.2103
 6540SOL    HW132093   5.081   4.770   0.203 -0.7739 -0.2533  1.2396
 6540SOL    HW232094   5.117   4.898   0.298 -1.2203  0.0698  0.9783
 6541SOL     OW32095   7.639   2.637   6.947  0.1215 -0.0082 -0.1337
 6541SOL    HW132096   7.632   2.574   6.870  0.4787  0.3971 -0.5023
 6541SOL    HW232097   7.650   2.585   7.032 -3.1265 -0.5514  0.0137
 6542SOL     OW32098   4.075   7.350   1.548  0.0781  0.2463 -0.2090
 6542SOL    HW132099   4.037   7.441   1.566  0.7741  0.7278 -1.1769
 6542SOL    HW232100   4.006   7.281   1.572 -1.4781  1.1178 -2.0312
 6543SOL     OW32101   4.492   6.512   7.348 -0.2614 -0.7865 -0.2761
 6543SOL    HW132102   4.554   6.508   7.427 -0.4955 -0.7423 -0.0888
 6543SOL    HW232103   4.400   6.532   7.380 -0.4713 -1.3965 -0.5100
 6544SOL     OW32104   2.447   0.777   2.981 -0.4016  0.6210  0.1800
 6544SOL    HW132105   2.405   0.686   2.990 -0.3524  0.6335  0.5357
 6544SOL    HW232106   2.382   0.847   3.011  0.1484  0.5860  1.4895
 6545SOL     OW32107   5.538   5.220   7.550  0.0140 -0.5521 -0.0716
 6545SOL    HW132108   5.556   5.217   7.452 -3.3578 -0.5540 -0.7377
 6545SOL    HW232109   5.563   5.310   7.586  2.8723 -1.1080 -0.5375
 6546SOL     OW32110   5.747   8.216   7.328 -0.2150 -0.3022  0.4268
 6546SOL    HW132111   5.747   8.116   7.330  0.5888 -0.3084  0.6608
 6546SOL    HW232112   5.752   8.248   7.234  0.4994 -0.5012  0.3905
 6547SOL     OW32113   5.346   6.455   4.154  0.0188 -0.3000  0.3281
 6547SOL    HW132114   5.379   6.387   4.088  1.0665  1.5606 -1.1170
 6547SOL    HW232115   5.405   6.455   4.235  0.8981 -0.1215 -0.3022
 6548SOL     OW32116   8.214   7.137   6.330  0.6284 -0.1327 -0.1606
 6548SOL    HW132117   8.237   7.140   6.233  1.1324  1.2079 -0.0016
 6548SOL    HW232118   8.116   7.119   6.340  0.7788 -1.4480 -0.8906
 6549SOL     OW32119   8.154   5.701   8.034  0.3831 -0.1543  0.3217
 6549SOL    HW132120   8.210   5.764   7.979 -2.0912  1.6684 -0.2078
 6549SOL    HW232121   8.084   5.661   7.976 -1.4244  0.7488  1.8559
 6550SOL     OW32122   3.306   8.437   8.247 -0.0771  0.0590 -0.1021
 6550SOL    HW132123   3.316   8.495   8.166 -0.7550 -0.0142 -0.2421
 6550SOL    HW232124   3.321   8.493   8.329 -0.1314  0.3048 -0.2570
 6551SOL     OW32125   5.363   7.286   6.146 -0.1958 -0.3338 -0.0115
 6551SOL    HW132126   5.432   7.226   6.105  0.8836  0.2833  0.8614
 6551SOL    HW232127   5.348   7.365   6.087  0.9836  0.2957  0.4997
 6552SOL     OW32128   3.732   8.519   0.236 -0.8254  0.4924  0.5923
 6552SOL    HW132129   3.717   8.592   0.169  0.3890  1.5332  1.4433
 6552SOL    HW232130   3.763   8.558   0.322  0.0019 -1.0387  1.0085
 6553SOL     OW32131   2.522   7.997   1.057  0.2566  0.8716  0.2265
 6553SOL    HW132132   2.601   7.969   1.110 -0.1724  0.5659  0.7151
 6553SOL    HW232133   2.446   8.019   1.119 -0.2887  0.3874 -0.2648
 6554SOL     OW32134   3.450   4.018   6.802  0.3309 -0.2715  0.4256
 6554SOL    HW132135   3.546   4.018   6.827  0.3726 -0.6933  0.2666
 6554SOL    HW232136   3.413   4.111   6.811  0.8375 -0.0399  0.1366
 6555SOL     OW32137   7.797   7.253   0.912  0.3980  0.1231  0.3377
 6555SOL    HW132138   7.726   7.288   0.973  1.3385  2.7310  0.0051
 6555SOL    HW232139   7.871   7.213   0.966  0.1415  0.2794  0.8098
 6556SOL     OW32140   4.251   5.476   1.478 -0.5306 -0.2927 -0.0754
 6556SOL    HW132141   4.289   5.432   1.397  0.4285 -1.5592  1.0515
 6556SOL    HW232142   4.272   5.422   1.559 -3.2476 -0.1298  0.7959
 6557SOL     OW32143   3.123   3.044   7.699 -0.0476  0.0735 -0.6322
 6557SOL    HW132144   3.079   2.959   7.669 -1.1306 -0.1109  1.3886
 6557SOL    HW232145   3.057   3.118   7.696 -0.2018  0.0429  1.2700
 6558SOL     OW32146   0.188   8.939   3.953 -0.2550  0.1920 -0.6470
 6558SOL    HW132147   0.092   8.912   3.947 -0.3647  0.4314  0.0783
 6558SOL    HW232148   0.196   9.036   3.931 -0.3738  0.5399  0.8370
 6559SOL     OW32149   7.061   4.101   4.601  0.1123 -0.4458 -0.5272
 6559SOL    HW132150   7.106   4.033   4.544  0.2925  0.0678 -1.0096
 6559SOL    HW232151   6.962   4.088   4.597  0.2378 -3.2075  2.5717
 6560SOL     OW32152   7.427   1.504   0.489 -0.4176 -0.3543  0.8664
 6560SOL    HW132153   7.462   1.597   0.475 -0.7872 -0.0568  1.9490
 6560SOL    HW232154   7.418   1.459   0.400 -1.1732  0.9856  0.2469
 6561SOL     OW32155   8.383   5.624   0.682  0.2703  0.3279  0.3196
 6561SOL    HW132156   8.407   5.641   0.777 -0.6917  2.5046  0.2026
 6561SOL    HW232157   8.291   5.658   0.663 -0.5260 -2.2653 -0.8070
 6562SOL     OW32158   5.976   6.586   0.720  0.1326 -0.1047 -0.0750
 6562SOL    HW132159   5.993   6.501   0.670 -1.4244 -1.1534  1.1389
 6562SOL    HW232160   5.878   6.605   0.721  0.3763  1.1585  0.5884
 6563SOL     OW32161   4.447   5.064   6.401 -0.2045  0.2843  0.2052
 6563SOL    HW132162   4.532   5.060   6.453 -1.1357  3.1480  2.0612
 6563SOL    HW232163   4.464   5.105   6.311  0.4817  0.2481  0.3205
 6564SOL     OW32164   1.954   5.341   2.967  0.5136 -0.1912  0.0563
 6564SOL    HW132165   1.875   5.327   3.026 -0.1967 -2.2937 -1.3591
 6564SOL    HW232166   2.037   5.308   3.014  0.0277 -1.3818  0.0895
 6565SOL     OW32167   1.848   3.362   1.980  0.0340  0.2326 -0.3010
 6565SOL    HW132168   1.883   3.291   2.042 -1.7032 -0.2259  0.1903
 6565SOL    HW232169   1.894   3.353   1.891  0.2900 -1.1182 -0.0564
 6566SOL     OW32170   5.891   7.761   8.117 -0.5716  0.0398 -0.1687
 6566SOL    HW132171   5.833   7.728   8.042  0.1931 -1.3118 -0.1830
 6566SOL    HW232172   5.836   7.770   8.200 -1.3061  1.0244 -0.7588
 6567SOL     OW32173   4.560   6.078   1.772  0.4309 -0.1451 -0.5426
 6567SOL    HW132174   4.499   6.158   1.772 -1.0618 -1.2599 -1.4938
 6567SOL    HW232175   4.540   6.021   1.851 -0.5903 -1.1263 -1.5014
 6568SOL     OW32176   8.062   5.346   7.899 -0.1948  0.3671  0.2113
 6568SOL    HW132177   8.053   5.268   7.837  0.1375  0.4191  0.0952
 6568SOL    HW232178   8.066   5.430   7.845 -0.6823  0.4759  0.3420
 6569SOL     OW32179   3.639   2.139   6.314 -0.1599 -0.2519 -0.0556
 6569SOL    HW132180   3.623   2.057   6.369 -0.8885  0.3323  0.6090
 6569SOL    HW232181   3.599   2.127   6.224 -2.2717  0.2574  0.8001
 6570SOL     OW32182   8.384   6.400   0.719 -0.7582  0.4298  0.3315
 6570SOL    HW132183   8.393   6.443   0.629 -1.0195 -1.1138 -0.4464
 6570SOL    HW232184   8.358   6.469   0.787  0.1438  1.7423 -0.6338
 6571SOL     OW32185   3.055   0.342   8.805 -0.1923  0.2344 -0.1903
 6571SOL    HW132186   3.152   0.320   8.800  0.1245  1.1845  1.4806
 6571SOL    HW232187   3.017   0.347   8.712  1.8893  2.1795 -0.9662
 6572SOL     OW32188   5.108   5.742   5.965 -0.2149  0.2093  0.0960
 6572SOL    HW132189   5.016   5.719   5.935 -0.5610  1.2802  0.3014
 6572SOL    HW232190   5.103   5.803   6.044  0.6512  0.9933 -0.4318
 6573SOL     OW32191   5.226   3.979   3.149  0.4532  0.2186 -0.0172
 6573SOL    HW132192   5.195   4.067   3.113 -1.2766  0.2254  1.3691
 6573SOL    HW232193   5.153   3.911   3.138  0.8313 -0.3999  1.1696
 6574SOL     OW32194   4.046   2.086   6.616  0.1614 -0.1143  0.0993
 6574SOL    HW132195   3.979   2.020   6.650 -0.1609  0.1711  0.0069
 6574SOL    HW232196   4.003   2.175   6.603  0.7166  0.2398  0.6849
 6575SOL     OW32197   6.629   2.908   2.980  0.1711 -0.1827  0.6351
 6575SOL    HW132198   6.548   2.953   2.943  2.2827  1.4590 -2.1724
 6575SOL    HW232199   6.650   2.827   2.925  1.5109  0.4657  0.1896
 6576SOL     OW32200   8.524   3.467   7.489 -0.2817  0.0190 -0.2314
 6576SOL    HW132201   8.443   3.524   7.476  0.3998  1.1206  0.3004
 6576SOL    HW232202   8.546   3.463   7.587  0.3877 -0.1678 -0.3874
 6577SOL     OW32203   1.109   2.282   7.626 -0.6343  0.3087  0.1363
 6577SOL    HW132204   1.068   2.310   7.712 -0.4339  0.5958  0.1400
 6577SOL    HW232205   1.081   2.344   7.553 -0.5190  0.2766  0.0633
 6578SOL     OW32206   6.041   2.159   7.843 -0.1587  0.2613 -0.8178
 6578SOL    HW132207   6.097   2.149   7.925 -0.7885  1.5390 -0.2311
 6578SOL    HW232208   6.073   2.094   7.774  0.7835 -0.3843  0.1988
 6579SOL     OW32209   0.289   7.134   3.403  0.3662  0.3941  0.1315
 6579SOL    HW132210   0.224   7.063   3.433  0.1955  0.2641 -0.5410
 6579SOL    HW232211   0.246   7.224   3.410  0.3674  0.3770  0.3794
 6580SOL     OW32212   6.137   6.118   5.143 -0.3808 -0.1673  0.4207
 6580SOL    HW132213   6.074   6.170   5.086 -1.5604  1.6780  3.2521
 6580SOL    HW232214   6.096   6.029   5.165 -1.1848  0.2659  0.7089
 6581SOL     OW32215   5.478   4.283   0.320  0.0679  0.0473  0.2940
 6581SOL    HW132216   5.495   4.247   0.228  0.1897 -0.2623  0.4380
 6581SOL    HW232217   5.426   4.368   0.313  1.5052  0.8912 -0.1285
 6582SOL     OW32218   7.564   1.484   0.942 -1.1308  0.3492  0.1088
 6582SOL    HW132219   7.525   1.422   0.874 -0.0802  1.8690 -1.9270
 6582SOL    HW232220   7.522   1.574   0.933 -0.3673  0.7919  0.8977
 6583SOL     OW32221   0.222   3.886   8.369  0.0602 -0.2823  0.2069
 6583SOL    HW132222   0.165   3.807   8.346  0.5760 -0.4767 -0.4264
 6583SOL    HW232223   0.308   3.881   8.317  0.0072  0.8084  0.0087
 6584SOL     OW32224   5.940   2.658   7.383  0.1112  0.6504  0.0351
 6584SOL    HW132225   5.890   2.704   7.456  1.0577  0.0715  1.0633
 6584SOL    HW232226   6.038   2.676   7.393  0.4474 -1.1057  0.1218
 6585SOL     OW32227   8.069   4.282   8.861  0.2041 -0.3476 -0.3713
 6585SOL    HW132228   8.123   4.287   8.944  0.2786  0.0052 -0.4376
 6585SOL    HW232229   8.111   4.218   8.797  0.4411 -0.2082 -0.3510
 6586SOL     OW32230   3.638   5.001   3.701 -0.2791 -0.2591  0.1230
 6586SOL    HW132231   3.648   4.912   3.658 -1.1129 -0.9566  1.3445
 6586SOL    HW232232   3.577   5.058   3.646 -2.4554 -1.6210  1.0592
 6587SOL     OW32233   3.915   1.143   4.036 -0.0267 -0.1398 -0.0111
 6587SOL    HW132234   3.886   1.048   4.030  1.2771 -0.5040 -0.9361
 6587SOL    HW232235   4.010   1.147   4.067  0.7667  0.7013 -2.3926
 6588SOL     OW32236   8.543   1.410   4.511 -0.2625  0.6867 -0.1787
 6588SOL    HW132237   8.477   1.340   4.537 -1.2466  1.2881 -1.0451
 6588SOL    HW232238   8.556   1.472   4.589  2.1071 -1.5566  1.2864
 6589SOL     OW32239   3.327   2.130   1.167 -0.2637  0.2463  0.3675
 6589SOL    HW132240   3.365   2.222   1.166  0.4574 -0.0538  0.0206
 6589SOL    HW232241   3.351   2.085   1.253  1.8607 -0.6355 -0.6489
 6590SOL     OW32242   2.779   8.071   4.288  0.1331  0.0629 -0.5329
 6590SOL    HW132243   2.851   8.083   4.357 -0.8781  2.0394  0.1902
 6590SOL    HW232244   2.735   7.982   4.301 -0.2685  0.5453  1.5916
 6591SOL     OW32245   0.816   3.236   0.239 -0.6350 -0.2527 -0.4089
 6591SOL    HW132246   0.910   3.248   0.271  0.2795 -0.2831 -2.9319
 6591SOL    HW232247   0.794   3.311   0.176 -1.6482 -1.2482 -1.2482
 6592SOL     OW32248   5.957   0.779   7.788 -0.2042  0.3611  0.2221
 6592SOL    HW132249   6.025   0.828   7.842  0.4152  2.9197 -2.7150
 6592SOL    HW232250   5.867   0.820   7.802 -0.4369 -0.4125  1.0078
 6593SOL     OW32251   8.688   5.679   4.058 -0.1227 -0.8691  0.1771
 6593SOL    HW132252   8.632   5.597   4.072 -0.4583 -0.2437  2.8898
 6593SOL    HW232253   8.629   5.760   4.062  0.3887 -0.4127 -1.2457
 6594SOL     OW32254   6.996   8.110   0.213  0.4408 -0.3124  0.3716
 6594SOL    HW132255   6.946   8.051   0.277  0.4388 -0.3057  0.3768
 6594SOL    HW232256   7.052   8.054   0.152 -1.2057 -0.4638 -1.0330
 6595SOL     OW32257   8.346   5.489   3.847 -0.4984 -0.5322 -0.0179
 6595SOL    HW132258   8.401   5.527   3.922 -0.2169 -0.8817 -0.0466
 6595SOL    HW232259   8.389   5.511   3.760 -1.0447  0.2365 -0.1053
 6596SOL     OW32260   3.703   1.736   1.679 -0.4096 -0.3332  0.2755
 6596SOL    HW132261   3.616   1.785   1.680  0.4400  1.1954  1.7303
 6596SOL    HW232262   3.712   1.682   1.763 -1.0789 -2.5529 -1.0486
 6597SOL     OW32263   4.319   1.894   7.087  0.3245  0.1945 -0.1576
 6597SOL    HW132264   4.361   1.808   7.061 -1.8344 -0.6351 -0.9967
 6597SOL    HW232265   4.269   1.932   7.009  0.8463  1.9670  0.3438
 6598SOL     OW32266   3.378   0.752   6.632 -0.1324  0.6159  0.1169
 6598SOL    HW132267   3.325   0.668   6.624  2.2528 -0.9568  0.1644
 6598SOL    HW232268   3.343   0.806   6.708  0.3676 -1.9374  2.2418
 6599SOL     OW32269   7.557   2.996   3.562 -0.0299  0.4452  0.0416
 6599SOL    HW132270   7.604   2.995   3.650  1.7209  0.6891 -0.8582
 6599SOL    HW232271   7.486   3.066   3.563 -0.5861 -0.1418  1.5439
 6600SOL     OW32272   4.594   1.903   8.159 -0.1458 -0.2892  0.2995
 6600SOL    HW132273   4.509   1.850   8.161  0.3879 -1.1516  0.8192
 6600SOL    HW232274   4.630   1.905   8.065  0.8727 -2.5956  0.5875
 6601SOL     OW32275   0.590   1.650   3.740  0.3886  0.2596  0.9057
 6601SOL    HW132276   0.631   1.599   3.815 -0.9003  1.2270  2.3131
 6601SOL    HW232277   0.593   1.748   3.762  4.0053  1.0128 -2.2972
 6602SOL     OW32278   3.201   1.523   5.897 -0.1016 -0.1967  0.2987
 6602SOL    HW132279   3.152   1.521   5.984 -0.4327  0.5207  0.1379
 6602SOL    HW232280   3.282   1.582   5.906 -0.3311  0.1613  0.0200
 6603SOL     OW32281   4.950   5.647   6.387  0.5526 -0.4070 -0.1355
 6603SOL    HW132282   4.957   5.561   6.337 -2.9753  0.0878 -1.6314
 6603SOL    HW232283   4.866   5.648   6.440  0.3140  2.3027 -0.5010
 6604SOL     OW32284   6.390   8.722   2.148  0.2621  0.3006  0.1756
 6604SOL    HW132285   6.458   8.734   2.075  0.5963 -0.5184  0.3448
 6604SOL    HW232286   6.318   8.661   2.117 -0.6734  1.5649 -0.1786
 6605SOL     OW32287   4.561   0.124   1.482 -0.2550  0.0280 -0.5470
 6605SOL    HW132288   4.660   0.126   1.495 -0.3733 -1.5817  0.8697
 6605SOL    HW232289   4.536   0.050   1.420 -0.6631 -0.5560  0.2952
 6606SOL     OW32290   1.148   8.254   0.781 -0.0617 -0.1685 -0.2096
 6606SOL    HW132291   1.226   8.297   0.736  0.2995  1.5424  1.9718
 6606SOL    HW232292   1.115   8.178   0.726  1.0940  1.1385 -2.7602
 6607SOL     OW32293   5.351   1.411   1.797 -0.3194  0.4718 -0.4314
 6607SOL    HW132294   5.421   1.474   1.831 -0.2450 -0.3830  1.0200
 6607SOL    HW232295   5.263   1.435   1.837 -0.0516 -1.1597  1.1617
 6608SOL     OW32296   8.458   5.783   7.747 -0.1121  0.3742 -0.0286
 6608SOL    HW132297   8.451   5.785   7.647 -0.9298 -2.2904 -0.0479
 6608SOL    HW232298   8.551   5.759   7.774 -0.6484 -1.9949 -0.2095
 6609SOL     OW32299   8.899   2.101   0.589 -0.3608  0.2979 -0.1032
 6609SOL    HW132300   8.862   2.130   0.501  0.4442  1.6858 -0.0031
 6609SOL    HW232301   8.969   2.166   0.619  0.6758 -1.1391  0.6947
 6610SOL     OW32302   4.771   5.546   8.553  0.4768  0.4083  0.2434
 6610SOL    HW132303   4.729   5.501   8.473  1.8600  1.3202 -1.0298
 6610SOL    HW232304   4.821   5.478   8.607 -1.5129 -0.4411  1.0428
 6611SOL     OW32305   0.458   5.068   0.012  0.0255 -0.3164 -0.0307
 6611SOL    HW132306   0.418   4.984  -0.025 -0.2514  0.2135 -0.9384
 6611SOL    HW232307   0.466   5.060   0.112 -0.7292 -1.1080 -0.0297
 6612SOL     OW32308   7.112   4.154   0.401 -0.2543 -0.0173  0.1950
 6612SOL    HW132309   7.112   4.060   0.435 -0.2819 -0.2112 -0.3417
 6612SOL    HW232310   7.052   4.161   0.321 -0.8966  0.6348  0.7236
 6613SOL     OW32311   4.763   3.841   5.912 -0.1783 -0.5085 -0.6647
 6613SOL    HW132312   4.858   3.868   5.892 -0.0473  1.0249  1.8758
 6613SOL    HW232313   4.761   3.787   5.996 -1.5594 -0.7589 -0.8454
 6614SOL     OW32314   7.215   6.087   4.449  0.0827  0.0893  0.0642
 6614SOL    HW132315   7.196   6.042   4.362  2.2707 -0.5518 -0.1004
 6614SOL    HW232316   7.151   6.163   4.461 -0.2855  0.1518 -2.0652
 6615SOL     OW32317   1.599   2.687   4.475 -0.6147  0.2592 -0.3354
 6615SOL    HW132318   1.618   2.682   4.377  1.2801  0.7636 -0.0150
 6615SOL    HW232319   1.597   2.594   4.512 -2.3015  0.0094 -1.0108
 6616SOL     OW32320   0.993   5.578   5.837 -0.1273  0.3013 -0.3226
 6616SOL    HW132321   1.076   5.539   5.796  1.0123  2.3048  0.0097
 6616SOL    HW232322   0.996   5.565   5.936  0.4987  1.6472 -0.1574
 6617SOL     OW32323   5.970   4.737   7.130  0.4527  0.2642  0.8493
 6617SOL    HW132324   6.001   4.764   7.038  1.4715  0.5758  1.2756
 6617SOL    HW232325   6.042   4.684   7.175 -0.0271  0.1570  1.4873
 6618SOL     OW32326   0.726   2.547   4.662  0.3935  0.2349  0.6348
 6618SOL    HW132327   0.711   2.511   4.570 -1.6410  0.5586  0.8151
 6618SOL    HW232328   0.822   2.575   4.672  0.7003 -0.0694 -1.2846
 6619SOL     OW32329   4.940   7.076   8.192  0.2434 -0.1499  0.0272
 6619SOL    HW132330   5.027   7.053   8.235  0.2223  0.0903  0.1982
 6619SOL    HW232331   4.889   7.138   8.252  0.3972  0.5300 -0.5481
 6620SOL     OW32332   5.461   8.429   8.731 -0.0016  0.0491  0.0281
 6620SOL    HW132333   5.447   8.463   8.638  1.6194 -2.8167 -1.3270
 6620SOL    HW232334   5.558   8.436   8.755 -0.5126  1.4044  1.7848
 6621SOL     OW32335   4.495   3.029   0.877  0.5485  0.2723  0.2354
 6621SOL    HW132336   4.456   3.057   0.789 -0.9003  1.0024  1.0845
 6621SOL    HW232337   4.531   2.936   0.869  2.3065  1.0731 -1.6814
 6622SOL     OW32338   5.895   6.507   7.556  0.0786  0.2419  0.5880
 6622SOL    HW132339   5.860   6.491   7.464  0.0566 -1.2318  0.8457
 6622SOL    HW232340   5.843   6.582   7.599 -1.5671 -0.7097  0.3029
 6623SOL     OW32341   1.616   6.980   0.815  0.1136 -0.0768  0.2755
 6623SOL    HW132342   1.646   7.012   0.725 -0.2951 -1.2107 -0.2738
 6623SOL    HW232343   1.620   7.056   0.880  1.5266  0.4695 -0.4215
 6624SOL     OW32344   4.940   5.861   3.215 -0.2880  0.2477  0.0088
 6624SOL    HW132345   4.935   5.876   3.314 -0.1693 -1.7731  0.3404
 6624SOL    HW232346   5.010   5.920   3.176 -0.2562  0.9813  1.1510
 6625SOL     OW32347   4.985   3.531   1.892 -0.8665  0.3681  0.2983
 6625SOL    HW132348   5.073   3.554   1.850 -1.7827  1.7024 -0.9382
 6625SOL    HW232349   4.943   3.454   1.844 -0.8959  0.4637  0.1706
 6626SOL     OW32350   3.083   4.718   4.866  0.7740  0.0544  0.1113
 6626SOL    HW132351   3.025   4.794   4.837  1.6593  0.6266 -0.1826
 6626SOL    HW232352   3.113   4.666   4.785  1.5384  0.4002  0.1653
 6627SOL     OW32353   4.525   7.738   4.414 -0.1047 -0.4718 -0.1527
 6627SOL    HW132354   4.520   7.806   4.340 -0.0845 -0.2763  0.0220
 6627SOL    HW232355   4.471   7.770   4.492  1.0854  0.0375  0.4779
 6628SOL     OW32356   6.567   6.029   4.710  0.4285 -0.6314 -0.1578
 6628SOL    HW132357   6.593   5.939   4.675 -1.8673 -0.9312 -1.2254
 6628SOL    HW232358   6.491   6.018   4.775  0.2979  0.5048 -0.1169
 6629SOL     OW32359   7.517   3.553   3.828 -0.1884  0.3264 -0.4474
 6629SOL    HW132360   7.438   3.518   3.879  0.4140  0.1205  0.3363
 6629SOL    HW232361   7.502   3.650   3.807 -0.3630  0.4575  0.2603
 6630SOL     OW32362   2.399   1.663   0.448 -0.5200 -0.9737  0.1433
 6630SOL    HW132363   2.438   1.609   0.374  0.7061  1.0939 -0.7825
 6630SOL    HW232364   2.462   1.663   0.526  0.8225  1.3480 -0.8921
 6631SOL     OW32365   8.222   4.927   8.448 -0.1849  0.0951  0.0712
 6631SOL    HW132366   8.265   4.894   8.364 -0.6044  1.6561 -0.7884
 6631SOL    HW232367   8.209   4.851   8.512  1.7363 -0.8108 -0.5691
 6632SOL     OW32368   8.891   4.552   3.364 -0.0404 -0.0877 -0.7621
 6632SOL    HW132369   8.972   4.502   3.395 -0.6383 -0.1262  0.7349
 6632SOL    HW232370   8.818   4.487   3.343  0.4342 -0.0862 -2.5483
 6633SOL     OW32371   7.874   6.787   5.256  0.4132  0.0757 -0.0470
 6633SOL    HW132372   7.886   6.818   5.161 -1.9299  0.0338 -0.3995
 6633SOL    HW232373   7.790   6.733   5.262  1.0335 -0.6926  1.8869
 6634SOL     OW32374   6.941   1.836   6.263 -0.6299  0.3479  0.2439
 6634SOL    HW132375   6.874   1.772   6.302 -1.8571  0.0846 -2.1588
 6634SOL    HW232376   6.965   1.906   6.331 -1.5310 -0.9390  1.9201
 6635SOL     OW32377   0.342   3.941   1.524 -0.2952 -0.0770 -0.7132
 6635SOL    HW132378   0.261   3.993   1.551 -0.7636 -1.2766  0.2563
 6635SOL    HW232379   0.361   3.956   1.427 -2.4894 -0.8532 -1.2910
 6636SOL     OW32380   7.478   4.425   2.725  0.0802 -0.5333 -0.2726
 6636SOL    HW132381   7.566   4.469   2.744 -0.9809  2.6474 -2.3060
 6636SOL    HW232382   7.405   4.473   2.773 -0.9699 -0.9252 -1.4340
 6637SOL     OW32383   3.963   6.854   5.991  0.0401 -0.2955  0.1597
 6637SOL    HW132384   4.005   6.802   6.066  0.0667  0.6844  0.8278
 6637SOL    HW232385   3.882   6.902   6.026  0.9420  1.4102 -0.0802
 6638SOL     OW32386   4.286   0.180   2.956  0.4693 -0.5459  0.2079
 6638SOL    HW132387   4.248   0.146   3.042  1.5911 -1.6729  0.2797
 6638SOL    HW232388   4.297   0.280   2.961 -0.6972 -0.4503  0.8739
 6639SOL     OW32389   8.231   2.111   3.890  0.3087  0.4999  0.6341
 6639SOL    HW132390   8.200   2.016   3.890 -1.5160  1.0685 -0.4522
 6639SOL    HW232391   8.262   2.136   3.982 -0.0217 -0.8764  1.1303
 6640SOL     OW32392   8.381   0.019   4.821 -0.6730  0.9250  0.0963
 6640SOL    HW132393   8.363   0.108   4.780 -2.3789  0.2314 -0.7157
 6640SOL    HW232394   8.443  -0.033   4.763 -0.9761  0.9705 -0.2715
 6641SOL     OW32395   4.162   3.215   8.430 -0.0223  0.2390 -0.0964
 6641SOL    HW132396   4.152   3.285   8.501 -1.4270  1.6111 -1.6061
 6641SOL    HW232397   4.254   3.218   8.392 -0.1969  1.5330 -0.4167
 6642SOL     OW32398   4.161   2.063   6.156  0.1619 -0.1195 -0.2558
 6642SOL    HW132399   4.187   1.982   6.209  0.6959 -0.4011 -0.9510
 6642SOL    HW232400   4.094   2.117   6.209  1.9059  0.4630  1.4360
 6643SOL     OW32401   5.316   4.692   6.207  0.4228  0.6358  0.2860
 6643SOL    HW132402   5.262   4.765   6.166  0.2724 -0.0004 -0.6572
 6643SOL    HW232403   5.391   4.667   6.146  1.6527  1.3277  1.4591
 6644SOL     OW32404   3.100   4.378   5.205  0.3965 -0.3563  0.6726
 6644SOL    HW132405   3.049   4.462   5.222  0.1344 -0.2044 -0.7531
 6644SOL    HW232406   3.198   4.397   5.208  0.3439 -0.1482  1.0452
 6645SOL     OW32407   1.727   4.841   2.282  0.0189  0.4921  0.3338
 6645SOL    HW132408   1.703   4.791   2.365 -0.5571  0.6728  0.2772
 6645SOL    HW232409   1.787   4.785   2.225 -0.6669 -0.1563  0.2474
 6646SOL     OW32410   6.805   8.172   8.449  0.0223 -0.7965  0.0631
 6646SOL    HW132411   6.739   8.107   8.485  1.3177 -1.0193  2.1017
 6646SOL    HW232412   6.889   8.125   8.424  1.2625  0.1652  2.3096
 6647SOL     OW32413   3.796   5.612   3.275 -0.1592  0.1652 -0.5390
 6647SOL    HW132414   3.795   5.677   3.199 -1.1807 -0.9720 -1.5229
 6647SOL    HW232415   3.819   5.521   3.240 -0.4898 -0.3395  0.5451
 6648SOL     OW32416   6.335   6.501   5.752  0.4227  0.3075  0.0867
 6648SOL    HW132417   6.427   6.534   5.771  0.5791 -1.1709  1.9801
 6648SOL    HW232418   6.315   6.421   5.808 -1.4172 -0.4048 -1.5059
 6649SOL     OW32419   4.106   6.269   7.178  0.4768  0.4535  0.2395
 6649SOL    HW132420   4.094   6.347   7.118 -0.3123 -0.0985 -0.3253
 6649SOL    HW232421   4.173   6.291   7.249  0.0052  1.7547  0.2888
 6650SOL     OW32422   7.506   5.553   2.362 -0.5007 -0.1572  0.5069
 6650SOL    HW132423   7.587   5.600   2.398  0.0878  1.5062 -2.7699
 6650SOL    HW232424   7.425   5.610   2.377 -0.2674  0.5015 -0.6712
 6651SOL     OW32425   1.235   6.624   1.879  0.2116  0.2020 -0.3381
 6651SOL    HW132426   1.249   6.723   1.872  2.0136 -0.0168 -0.2399
 6651SOL    HW232427   1.292   6.589   1.954 -0.6269 -0.8718 -0.2019
 6652SOL     OW32428   4.541   0.614   5.847  0.6361 -0.2674  0.5734
 6652SOL    HW132429   4.509   0.637   5.939  1.8380  0.6054  0.7856
 6652SOL    HW232430   4.504   0.679   5.781  1.2598  0.2326  0.7051
 6653SOL     OW32431   7.968   2.957   8.481  0.1666 -0.4052 -0.4672
 6653SOL    HW132432   7.937   2.980   8.573 -0.9577  0.2626 -1.0097
 6653SOL    HW232433   8.067   2.975   8.474 -0.2884  2.5183 -0.2832
 6654SOL     OW32434   6.383   2.803   5.859 -0.9020 -0.0244  0.6180
 6654SOL    HW132435   6.336   2.729   5.908  0.6446 -0.3078  1.7213
 6654SOL    HW232436   6.317   2.872   5.831 -2.0286 -0.6019  1.7993
 6655SOL     OW32437   5.773   0.925   7.910 -0.2473 -0.2278  0.1597
 6655SOL    HW132438   5.745   1.019   7.930 -3.3352 -0.7727 -1.2304
 6655SOL    HW232439   5.755   0.867   7.989 -0.3311 -0.0384  0.2787
 6656SOL     OW32440   3.565   1.354   4.304 -0.1395  0.4853  0.1366
 6656SOL    HW132441   3.640   1.415   4.278  1.4860 -1.2653  0.5751
 6656SOL    HW232442   3.597   1.291   4.375 -2.7628  1.3163  2.1516
 6657SOL     OW32443   2.937   2.799   2.610 -0.0656  0.0123  0.3962
 6657SOL    HW132444   2.986   2.879   2.645 -0.2375  0.9140 -1.3576
 6657SOL    HW232445   2.853   2.785   2.663  0.2270  0.6815  1.0449
 6658SOL     OW32446   2.090   2.637   0.662 -0.0708 -0.1618 -0.6043
 6658SOL    HW132447   2.143   2.586   0.595 -1.0862 -0.1019 -1.4644
 6658SOL    HW232448   2.007   2.672   0.619 -0.2805  0.6527  0.4519
 6659SOL     OW32449   2.003   8.177   3.597 -0.4781  0.2965  0.0224
 6659SOL    HW132450   2.065   8.255   3.612  0.1488 -0.2255  0.1748
 6659SOL    HW232451   1.984   8.168   3.500  0.7782 -0.3686 -0.1660
 6660SOL     OW32452   7.414   6.290   2.531  0.1031  0.7685  0.0055
 6660SOL    HW132453   7.392   6.199   2.495 -1.1898  1.0142  0.1597
 6660SOL    HW232454   7.330   6.345   2.537  0.7758  1.7532  0.5241
 6661SOL     OW32455   1.949   2.259   4.815  1.0063  1.0319 -0.5090
 6661SOL    HW132456   1.987   2.307   4.736  1.2923 -0.6784 -1.4238
 6661SOL    HW232457   2.013   2.189   4.846 -0.0265  0.2547 -0.0919
 6662SOL     OW32458   5.530   2.525   0.239  0.7577 -0.0246  0.3389
 6662SOL    HW132459   5.475   2.461   0.293 -0.5656  0.5448 -0.3192
 6662SOL    HW232460   5.539   2.611   0.290  0.2087  0.2218  0.0265
 6663SOL     OW32461   3.991   4.880   4.501  0.0119  0.2765 -0.4675
 6663SOL    HW132462   3.940   4.900   4.585 -0.4805  0.1741 -0.7397
 6663SOL    HW232463   3.988   4.781   4.484 -0.1589  0.3312 -0.7724
 6664SOL     OW32464   2.412   7.066   7.526 -0.2947 -0.1874  0.3201
 6664SOL    HW132465   2.432   6.984   7.472 -3.1586 -0.9617  0.3407
 6664SOL    HW232466   2.362   7.131   7.469 -1.6726 -0.2179  1.4704
 6665SOL     OW32467   4.283   0.794   7.764 -0.1455  0.0388  0.1297
 6665SOL    HW132468   4.212   0.824   7.700 -0.6600  0.9643  1.1214
 6665SOL    HW232469   4.330   0.713   7.727 -1.5274 -0.4099 -0.6666
 6666SOL     OW32470   5.722   4.924   7.029  0.2233 -0.1652 -0.6410
 6666SOL    HW132471   5.680   4.889   6.945  0.6542 -0.3492 -0.7810
 6666SOL    HW232472   5.776   4.852   7.073 -2.5800 -1.0439  1.5057
 6667SOL     OW32473   0.081   2.296   0.665 -0.2040 -0.0509 -0.2512
 6667SOL    HW132474   0.037   2.372   0.617 -1.2681 -0.8700 -0.5857
 6667SOL    HW232475   0.052   2.296   0.761  0.7713  0.6997  0.0561
 6668SOL     OW32476   2.521   3.872   8.432  0.2851 -0.0762  0.3020
 6668SOL    HW132477   2.606   3.903   8.389  0.0687  0.0048 -0.0653
 6668SOL    HW232478   2.470   3.951   8.466  0.1781 -0.0984  0.1925
 6669SOL     OW32479   2.880   3.047   6.559 -0.1838  0.8614 -0.4410
 6669SOL    HW132480   2.968   3.074   6.598 -0.8999 -0.2289  2.0668
 6669SOL    HW232481   2.811   3.116   6.582 -0.5127  0.4534 -0.1964
 6670SOL     OW32482   4.774   0.053   5.574 -0.2986 -0.3204 -0.2852
 6670SOL    HW132483   4.721   0.040   5.658 -0.5650 -0.7069 -0.5123
 6670SOL    HW232484   4.813   0.145   5.573 -1.5925  0.2352 -0.4659
 6671SOL     OW32485   2.869   5.496   4.436  0.6880 -0.5580  0.4649
 6671SOL    HW132486   2.909   5.474   4.525 -1.0548 -2.5196  0.8005
 6671SOL    HW232487   2.772   5.517   4.447  0.7892  0.6200 -0.7931
 6672SOL     OW32488   6.766   8.156   3.173 -0.5497  0.2764  0.1513
 6672SOL    HW132489   6.685   8.214   3.177 -2.4244 -2.2299 -0.6059
 6672SOL    HW232490   6.792   8.140   3.078  0.4834  0.5698  0.3743
 6673SOL     OW32491   1.504   1.747   1.567  0.1480  0.2468 -0.1833
 6673SOL    HW132492   1.586   1.690   1.574 -0.4671 -0.7953 -1.2613
 6673SOL    HW232493   1.441   1.707   1.500 -0.8873  1.4751  0.0338
 6674SOL     OW32494   6.123   8.971   0.876 -0.1926  0.3705 -0.2578
 6674SOL    HW132495   6.078   9.060   0.866 -1.6018  0.1750  3.3512
 6674SOL    HW232496   6.055   8.899   0.862  0.3497 -0.0573 -0.6543
 6675SOL     OW32497   3.200   4.068   6.538 -0.0064 -0.0917 -0.2820
 6675SOL    HW132498   3.109   4.109   6.531 -0.0584 -0.0352  0.6257
 6675SOL    HW232499   3.191   3.973   6.568  0.2617  0.1024  0.4224
 6676SOL     OW32500   6.564   4.796   7.658  0.2458  0.1432 -0.1804
 6676SOL    HW132501   6.640   4.772   7.597 -0.0710  1.9930 -1.3330
 6676SOL    HW232502   6.599   4.843   7.738  0.3923  0.3384 -0.3578
 6677SOL     OW32503   0.415   2.977   7.402  0.2666  0.2233  0.1182
 6677SOL    HW132504   0.345   2.953   7.335 -1.5228  1.7343  1.4137
 6677SOL    HW232505   0.470   3.053   7.367 -0.0222  0.3552 -0.0543
 6678SOL     OW32506   0.313   1.723   4.636 -0.4438 -0.1505  0.1947
 6678SOL    HW132507   0.393   1.744   4.580  0.5139  2.1057  2.2967
 6678SOL    HW232508   0.230   1.736   4.581  0.4246  2.8542 -0.5305
 6679SOL     OW32509   4.363   4.381   0.326  0.1692  0.0178  0.0880
 6679SOL    HW132510   4.286   4.437   0.355 -0.5777 -1.9434  2.0580
 6679SOL    HW232511   4.449   4.427   0.349 -0.3546  1.9589 -1.6222
 6680SOL     OW32512   3.257   5.718   6.868  0.0115 -0.1537 -0.0798
 6680SOL    HW132513   3.267   5.718   6.769  2.2384 -0.7535  0.1189
 6680SOL    HW232514   3.347   5.719   6.911 -0.9408  1.6063  1.9542
 6681SOL     OW32515   0.784   5.881   1.971  0.1353  0.4187 -0.2396
 6681SOL    HW132516   0.694   5.889   2.014 -0.5666  1.0034 -1.8134
 6681SOL    HW232517   0.805   5.784   1.956 -0.5795  0.3200 -0.6084
 6682SOL     OW32518   8.400   4.190   4.023  0.1400 -0.5148 -0.5978
 6682SOL    HW132519   8.361   4.241   4.100  1.2536 -2.0146  1.0041
 6682SOL    HW232520   8.466   4.123   4.057  1.4794 -0.4576 -2.9693
 6683SOL     OW32521   3.847   5.040   4.803 -0.0709  0.5509 -0.2291
 6683SOL    HW132522   3.816   4.998   4.888 -1.0164 -0.0966 -0.8858
 6683SOL    HW232523   3.827   5.138   4.805  2.9607  1.2252  1.6876
 6684SOL     OW32524   6.010   0.463   7.383 -0.4877 -0.3569  0.3683
 6684SOL    HW132525   6.104   0.465   7.348 -0.9437  1.9507 -0.7598
 6684SOL    HW232526   6.009   0.496   7.478 -0.1371 -0.6756  0.4870
 6685SOL     OW32527   1.456   6.712   8.639 -0.0136  0.2317  0.4089
 6685SOL    HW132528   1.521   6.646   8.677  0.1479 -0.2768 -0.7432
 6685SOL    HW232529   1.363   6.676   8.650  0.1822 -0.9918 -1.7668
 6686SOL     OW32530   4.488   5.214   5.158 -0.1259 -0.0138 -0.6022
 6686SOL    HW132531   4.432   5.132   5.162  0.1738 -0.3631 -2.8473
 6686SOL    HW232532   4.552   5.207   5.082  1.2989  1.4308  0.4305
 6687SOL     OW32533   8.056   4.941   7.552 -0.0757  0.5366  0.1940
 6687SOL    HW132534   8.148   4.901   7.542 -0.9008 -1.7711  1.4248
 6687SOL    HW232535   8.048   4.981   7.643 -0.7396 -0.4606  0.5717
 6688SOL     OW32536   6.574   2.615   8.725  0.4186  0.2085 -0.0410
 6688SOL    HW132537   6.479   2.586   8.724 -0.2504  1.9634  3.8036
 6688SOL    HW232538   6.588   2.685   8.654 -1.6048  1.2402  0.5346
 6689SOL     OW32539   4.612   2.782   7.521 -0.3088 -0.1199 -0.1398
 6689SOL    HW132540   4.616   2.806   7.618 -3.0595  3.6128 -0.8431
 6689SOL    HW232541   4.641   2.860   7.466 -0.2040 -1.6866 -2.3941
 6690SOL     OW32542   2.175   8.293   1.307  0.7266  0.7552  0.3824
 6690SOL    HW132543   2.133   8.363   1.250  2.1556  0.9412 -0.4597
 6690SOL    HW232544   2.144   8.305   1.402 -0.3879  1.4432 -0.0616
 6691SOL     OW32545   8.143   4.061   3.589  0.6095  0.2146  0.0215
 6691SOL    HW132546   8.071   3.991   3.590  1.0324 -0.2225 -0.1236
 6691SOL    HW232547   8.159   4.094   3.682  1.7217 -1.2261  0.3452
 6692SOL     OW32548   7.796   5.171   8.736  0.3819  0.8906  0.5554
 6692SOL    HW132549   7.839   5.173   8.646 -0.4376  1.8447  0.1705
 6692SOL    HW232550   7.704   5.211   8.730 -0.6933 -1.4075  1.2861
 6693SOL     OW32551   4.239   6.121   3.743 -0.2838  0.3780  0.3314
 6693SOL    HW132552   4.236   6.218   3.766 -0.9947  0.0044  1.8988
 6693SOL    HW232553   4.146   6.086   3.735 -0.0355 -0.0039 -1.0267
 6694SOL     OW32554   6.439   4.203   5.634  0.1607 -0.5478 -0.5569
 6694SOL    HW132555   6.388   4.258   5.701 -0.3643 -1.2105 -0.4063
 6694SOL    HW232556   6.487   4.264   5.571  0.0783  0.0858 -0.0185
 6695SOL     OW32557   4.369   1.752   8.233 -0.1921  0.7679 -0.3329
 6695SOL    HW132558   4.403   1.706   8.314 -0.5549 -1.4448 -1.3906
 6695SOL    HW232559   4.304   1.823   8.259  0.5958  0.8860  1.3478
 6696SOL     OW32560   3.830   6.263   7.257 -0.3234 -0.6557 -0.0882
 6696SOL    HW132561   3.923   6.300   7.252 -0.2357 -0.4004  2.5515
 6696SOL    HW232562   3.773   6.307   7.188  1.8948 -2.0189 -2.8611
 6697SOL     OW32563   5.041   6.856   7.856  0.1386  0.4236 -0.6743
 6697SOL    HW132564   4.959   6.801   7.846 -0.2693  1.0857 -0.9993
 6697SOL    HW232565   5.102   6.839   7.778  1.4751 -1.9948  0.8381
 6698SOL     OW32566   4.573   4.736   3.300  0.1345 -0.0863  0.5090
 6698SOL    HW132567   4.504   4.772   3.237 -0.1641  1.1468  1.5153
 6698SOL    HW232568   4.528   4.689   3.375  0.4862 -1.3856 -0.0673
 6699SOL     OW32569   2.901   0.003   6.351  0.1811  0.5066  0.7115
 6699SOL    HW132570   2.979   0.049   6.309  0.0647 -0.3789 -0.4973
 6699SOL    HW232571   2.930  -0.043   6.435  1.5037 -1.8629 -1.0178
 6700SOL     OW32572   1.495   6.899   4.468 -0.3805 -0.4203  0.1930
 6700SOL    HW132573   1.575   6.859   4.513  1.6678  0.0972 -2.8575
 6700SOL    HW232574   1.425   6.828   4.458  0.7775 -1.6247  0.3955
 6701SOL     OW32575   7.293   8.487   2.882 -0.1509 -0.3731  0.1625
 6701SOL    HW132576   7.282   8.585   2.864 -1.2587 -0.3985  0.6392
 6701SOL    HW232577   7.299   8.472   2.980  2.3267 -0.5795  0.0113
 6702SOL     OW32578   7.673   0.943   6.307 -0.1009  0.0530  0.7463
 6702SOL    HW132579   7.645   0.939   6.403  0.2316 -0.3308  0.8300
 6702SOL    HW232580   7.676   0.850   6.270 -1.5397  0.2838 -0.0186
 6703SOL     OW32581   1.771   3.022   1.367  0.0279  0.5398  0.4915
 6703SOL    HW132582   1.691   3.080   1.350 -0.0321  0.5373  0.7533
 6703SOL    HW232583   1.742   2.942   1.420  0.1121  0.2786  0.1394
 6704SOL     OW32584   3.839   8.391   7.210  1.3608 -0.1243 -0.1248
 6704SOL    HW132585   3.896   8.357   7.284  0.2919  0.2683  0.8894
 6704SOL    HW232586   3.764   8.327   7.193 -1.1130  2.0209  2.3138
 6705SOL     OW32587   8.792   5.562   6.392 -0.4538 -0.2696 -0.3163
 6705SOL    HW132588   8.738   5.643   6.371 -1.9528 -0.5315  2.2898
 6705SOL    HW232589   8.881   5.568   6.347 -1.3152  1.8373 -1.8001
 6706SOL     OW32590   1.894   6.343   4.208 -0.8083  0.2068  0.4816
 6706SOL    HW132591   1.850   6.372   4.124  1.0313 -1.7171 -1.1901
 6706SOL    HW232592   1.972   6.403   4.228  0.9076 -1.4649 -1.1181
 6707SOL     OW32593   1.378   1.971   3.760  0.1323 -0.4246  0.5350
 6707SOL    HW132594   1.329   1.891   3.725  1.6732 -1.6812  1.1588
 6707SOL    HW232595   1.467   1.977   3.716  1.2049 -0.7625  2.6173
 6708SOL     OW32596   3.413   4.167   8.712 -0.0322  0.0691  0.0442
 6708SOL    HW132597   3.371   4.229   8.646 -0.0891 -0.4955 -0.4611
 6708SOL    HW232598   3.499   4.133   8.675  0.6284  0.8381  0.8669
 6709SOL     OW32599   2.334   3.786   4.043  1.1793  0.3861 -1.1480
 6709SOL    HW132600   2.419   3.829   4.013  0.4054  1.3876 -1.9428
 6709SOL    HW232601   2.344   3.687   4.039  2.6401  0.4786 -0.2740
 6710SOL     OW32602   1.027   0.194   6.880  0.5222 -0.2522  0.0871
 6710SOL    HW132603   1.090   0.259   6.839  1.3998 -1.9590 -1.3573
 6710SOL    HW232604   1.079   0.130   6.938  0.3097 -2.2547 -1.8582
 6711SOL     OW32605   2.885   5.166   3.385  0.8149 -0.1981  0.1667
 6711SOL    HW132606   2.828   5.243   3.358  0.7395 -0.4352 -0.3634
 6711SOL    HW232607   2.981   5.192   3.380  0.8055 -0.2569 -0.4056
 6712SOL     OW32608   6.990   6.151   1.370  0.1731  0.0188 -0.5903
 6712SOL    HW132609   6.981   6.213   1.292  1.1393  0.0206 -0.7097
 6712SOL    HW232610   6.938   6.187   1.448  0.3003  0.7023 -0.8203
 6713SOL     OW32611   3.791   5.820   0.743  0.4306 -0.0818  0.0732
 6713SOL    HW132612   3.884   5.847   0.769 -0.1474 -0.0395  2.1695
 6713SOL    HW232613   3.727   5.893   0.767 -0.2050 -0.2796 -0.9953
 6714SOL     OW32614   4.500   5.246   0.944  0.2440  0.3315  0.0458
 6714SOL    HW132615   4.402   5.254   0.927  0.3757  1.6260 -0.1976
 6714SOL    HW232616   4.526   5.310   1.016  1.1141  0.8860 -0.7576
 6715SOL     OW32617   6.093   3.381   6.002  0.1091  0.2597 -0.2728
 6715SOL    HW132618   5.993   3.375   6.001  0.2071 -1.2428 -1.1798
 6715SOL    HW232619   6.128   3.339   6.085  0.0345  0.2438 -0.2491
 6716SOL     OW32620   1.536   5.790   3.402 -0.0241  0.2706 -0.3460
 6716SOL    HW132621   1.517   5.888   3.414 -0.3449  0.4652 -2.3244
 6716SOL    HW232622   1.633   5.778   3.380  0.0451  0.1317  0.0376
 6717SOL     OW32623   2.665   0.819   5.459  0.0843  0.2520  0.0665
 6717SOL    HW132624   2.699   0.725   5.447  0.8011  0.3505  1.3150
 6717SOL    HW232625   2.575   0.826   5.417 -0.5041 -1.3346  0.9926
 6718SOL     OW32626   3.882   0.005   1.634  0.0108  0.3165 -0.0350
 6718SOL    HW132627   3.906   0.102   1.644  0.2989  0.0371  2.1530
 6718SOL    HW232628   3.850  -0.031   1.722  1.0110 -1.8865 -0.5494
 6719SOL     OW32629   3.327   2.865   8.271 -0.4158 -0.0230 -0.1314
 6719SOL    HW132630   3.237   2.902   8.246 -0.4784 -0.0872 -0.0066
 6719SOL    HW232631   3.330   2.768   8.250 -1.4896 -0.7289  2.7250
 6720SOL     OW32632   6.767   6.640   1.479 -0.5773 -0.0320  0.0104
 6720SOL    HW132633   6.729   6.605   1.564  0.6403  1.8582  1.3654
 6720SOL    HW232634   6.730   6.730   1.460  0.5290  0.3233 -0.5121
 6721SOL     OW32635   0.171   3.331   7.042 -0.1437 -0.7001 -0.0412
 6721SOL    HW132636   0.215   3.414   7.009 -1.3148 -0.5609 -1.2979
 6721SOL    HW232637   0.196   3.316   7.137 -0.6740  1.6168  0.4974
 6722SOL     OW32638   0.263   3.405   5.090  0.4867  0.6680  0.0295
 6722SOL    HW132639   0.172   3.442   5.111 -0.1138 -0.7169 -0.0701
 6722SOL    HW232640   0.299   3.449   5.007 -0.7740  0.1100 -0.8282
 6723SOL     OW32641   4.838   5.596   2.902 -0.4478 -0.3885  0.0378
 6723SOL    HW132642   4.868   5.674   2.848 -1.0783 -0.2972 -0.1801
 6723SOL    HW232643   4.858   5.511   2.853 -1.3838 -0.2881 -0.5132
 6724SOL     OW32644   4.193   3.991   0.835 -0.6095  0.2429  0.1560
 6724SOL    HW132645   4.237   4.037   0.912  1.3870 -1.4607  0.0567
 6724SOL    HW232646   4.248   4.001   0.753 -0.8799 -1.0547 -0.2050
 6725SOL     OW32647   2.079   2.084   2.904 -0.1908  0.3462  0.0233
 6725SOL    HW132648   2.142   2.160   2.890 -0.7179  0.4319 -2.1603
 6725SOL    HW232649   2.125   1.998   2.886 -0.3675  0.3419 -0.4299
 6726SOL     OW32650   3.154   1.964   6.883  0.4205 -0.1845 -0.1102
 6726SOL    HW132651   3.085   1.982   6.812 -3.5294  0.4541  3.6942
 6726SOL    HW232652   3.192   1.872   6.869 -2.8723 -1.4779 -1.0798
 6727SOL     OW32653   0.781   3.520   4.783  0.4260  0.4136  0.6473
 6727SOL    HW132654   0.745   3.612   4.764  0.7490  0.4580  0.2457
 6727SOL    HW232655   0.779   3.504   4.882  0.2124  0.7882  0.7073
 6728SOL     OW32656   7.145   3.938   4.400 -0.0202 -0.3491  0.4988
 6728SOL    HW132657   7.068   3.886   4.362 -0.2043 -0.4165  0.9654
 6728SOL    HW232658   7.229   3.913   4.353 -0.0592 -1.2764  0.9269
 6729SOL     OW32659   4.599   8.527   7.154 -0.4403  0.2306 -0.9945
 6729SOL    HW132660   4.639   8.462   7.090 -0.3202 -2.0588  1.3048
 6729SOL    HW232661   4.505   8.501   7.175 -0.2859  0.5805  0.2109
 6730SOL     OW32662   6.314   0.020   6.196  0.0752 -0.4493  0.6809
 6730SOL    HW132663   6.224  -0.007   6.161 -0.3473  1.2498  0.4224
 6730SOL    HW232664   6.383   0.006   6.125 -0.0155 -1.5018  0.7910
 6731SOL     OW32665   0.052   3.264   5.901 -0.1728  0.0540  0.4080
 6731SOL    HW132666   0.068   3.299   5.809 -3.0063  1.5681  0.4337
 6731SOL    HW232667  -0.027   3.204   5.901  1.0762 -1.6219  1.4976
 6732SOL     OW32668   0.559   0.388   8.755  0.1144 -0.0696 -0.0586
 6732SOL    HW132669   0.463   0.362   8.747  0.0927 -0.5867  1.6197
 6732SOL    HW232670   0.566   0.475   8.804  0.5683 -0.8525  1.2916
 6733SOL     OW32671   3.790   1.876   4.419 -0.4981 -0.0938 -0.0924
 6733SOL    HW132672   3.864   1.814   4.395  1.5632  2.2771 -0.0632
 6733SOL    HW232673   3.733   1.834   4.490  0.5901 -2.0978 -0.3784
 6734SOL     OW32674   2.089   2.451   4.171  0.6416 -0.6197  0.2491
 6734SOL    HW132675   2.137   2.364   4.173  0.0696 -0.9188  3.6350
 6734SOL    HW232676   2.154   2.525   4.156  1.6711 -1.3271  1.1350
 6735SOL     OW32677   7.326   3.471   4.010  0.4498  0.1709 -0.5754
 6735SOL    HW132678   7.269   3.514   4.080  1.4468 -0.5657  0.7084
 6735SOL    HW232679   7.323   3.372   4.022  0.0410 -0.0008 -2.0428
 6736SOL     OW32680   5.527   4.982   8.047  0.4308 -0.2115 -0.2358
 6736SOL    HW132681   5.596   4.936   8.103 -0.8130 -0.8310  0.8056
 6736SOL    HW232682   5.560   4.989   7.953  2.1606  0.0302  0.3714
 6737SOL     OW32683   1.755   5.673   6.926  0.3635  0.1900 -0.2083
 6737SOL    HW132684   1.854   5.659   6.935 -0.0602 -1.6056  2.2989
 6737SOL    HW232685   1.707   5.613   6.991 -2.5062 -1.3866 -3.5899
 6738SOL     OW32686   1.919   1.860   3.471  0.1506  0.4637  0.5835
 6738SOL    HW132687   1.843   1.884   3.410  0.7298  0.1057 -0.3012
 6738SOL    HW232688   1.941   1.937   3.530 -1.0546  0.4841  0.9967
 6739SOL     OW32689   0.429   6.619   4.039  0.5100 -0.5882 -0.4280
 6739SOL    HW132690   0.420   6.675   4.121 -0.2149 -2.0424  0.5025
 6739SOL    HW232691   0.488   6.541   4.058 -2.8590 -3.1524 -0.0580
 6740SOL     OW32692   4.214   5.683   5.828  0.1832 -0.1321  0.1662
 6740SOL    HW132693   4.271   5.744   5.883  0.1127  0.2334 -0.1703
 6740SOL    HW232694   4.223   5.590   5.863  0.2223  0.0818  0.7347
 6741SOL     OW32695   1.405   5.864   7.345 -0.4666 -0.1578  0.1058
 6741SOL    HW132696   1.393   5.794   7.415  0.1254  1.0398  1.4418
 6741SOL    HW232697   1.318   5.910   7.328  0.3334  3.0492  3.8891
 6742SOL     OW32698   3.941   6.568   3.201  0.0901  0.2020  1.0648
 6742SOL    HW132699   3.887   6.648   3.174  1.7364  0.7813 -0.6728
 6742SOL    HW232700   4.011   6.595   3.267  1.0140  0.3336  0.0470
 6743SOL     OW32701   2.787   1.666   4.275  0.0105  0.7979  0.0581
 6743SOL    HW132702   2.804   1.587   4.335  3.8327  1.0805 -0.5737
 6743SOL    HW232703   2.733   1.636   4.197 -3.0749 -0.0532  2.3837
 6744SOL     OW32704   7.877   1.543   3.852 -0.2769  0.2404  0.3055
 6744SOL    HW132705   7.782   1.549   3.882 -0.0257  1.5985  0.8792
 6744SOL    HW232706   7.898   1.621   3.792  0.3185 -0.3674 -0.2959
 6745SOL     OW32707   5.783   8.093   8.022 -0.2358  0.2994 -0.1917
 6745SOL    HW132708   5.866   8.037   8.031  0.0459  0.8283  0.5268
 6745SOL    HW232709   5.724   8.078   8.101 -1.3708 -0.9535 -1.2624
 6746SOL     OW32710   4.757   1.044   8.088 -0.3399  0.3227 -0.9244
 6746SOL    HW132711   4.692   1.116   8.113  0.4384  0.3559  1.0862
 6746SOL    HW232712   4.835   1.084   8.040 -0.3345  0.7122 -0.5952
 6747SOL     OW32713   3.585   5.339   2.280 -0.1341  0.0839  0.6029
 6747SOL    HW132714   3.646   5.292   2.344  1.5441  1.6688  0.2029
 6747SOL    HW232715   3.593   5.438   2.293  0.2961  0.4535 -2.0694
 6748SOL     OW32716   7.576   5.831   8.508  0.0662  0.2140  0.1406
 6748SOL    HW132717   7.658   5.860   8.459  0.0807  0.5024  0.3319
 6748SOL    HW232718   7.566   5.732   8.502  0.4032  0.1840  0.0823
 6749SOL     OW32719   5.322   7.995   8.812 -0.2337 -0.1309  0.4699
 6749SOL    HW132720   5.300   8.071   8.873  0.7375 -0.1810  0.8985
 6749SOL    HW232721   5.239   7.943   8.792 -0.9427  1.1602  0.0062
 6750SOL     OW32722   3.563   1.661   7.952  0.4332 -0.4614 -0.2510
 6750SOL    HW132723   3.517   1.740   7.911  2.1664  0.8812  0.3115
 6750SOL    HW232724   3.501   1.618   8.018  0.1583  1.6723  0.9521
 6751SOL     OW32725   4.520   8.895   4.235 -0.5703  0.3313  0.0946
 6751SOL    HW132726   4.556   8.985   4.211  1.1510 -0.2628  0.3346
 6751SOL    HW232727   4.469   8.900   4.321  1.2456  0.7075  1.1674
 6752SOL     OW32728   8.395   5.526   7.917 -0.2366 -0.2225  0.1968
 6752SOL    HW132729   8.342   5.610   7.912 -0.3408 -0.3448 -0.8180
 6752SOL    HW232730   8.366   5.463   7.844 -0.0999 -1.1009  0.8875
 6753SOL     OW32731   5.489   5.580   8.107 -0.0551 -0.0479  0.1288
 6753SOL    HW132732   5.511   5.483   8.107  0.6516  0.0384 -3.1904
 6753SOL    HW232733   5.397   5.594   8.144 -0.6055 -2.1219 -0.4055
 6754SOL     OW32734   3.437   8.904   3.335 -0.1670 -0.2899  0.6715
 6754SOL    HW132735   3.478   8.817   3.363 -1.7243 -1.2721 -0.0600
 6754SOL    HW232736   3.421   8.903   3.237  1.3084  1.4740  0.3898
 6755SOL     OW32737   1.670   8.224   6.408 -0.3827  0.3621 -0.1015
 6755SOL    HW132738   1.718   8.302   6.448 -1.5904  0.1347  1.8375
 6755SOL    HW232739   1.574   8.225   6.435 -0.7562 -0.9995 -1.2623
 6756SOL     OW32740   3.734   2.405   8.458 -0.3354  0.3213  0.2745
 6756SOL    HW132741   3.767   2.403   8.363 -0.6016 -1.6502  0.2059
 6756SOL    HW232742   3.645   2.450   8.462 -0.0358  0.9771 -0.3055
 6757SOL     OW32743   0.649   7.003   8.784 -0.2563 -0.6712 -1.0080
 6757SOL    HW132744   0.617   7.094   8.810  1.1260 -0.4511 -0.0743
 6757SOL    HW232745   0.577   6.957   8.731 -1.4409  0.4832 -0.4379
 6758SOL     OW32746   4.853   3.225   2.200  0.6862  0.0510 -0.0860
 6758SOL    HW132747   4.940   3.178   2.183  0.8289 -0.0776  0.9707
 6758SOL    HW232748   4.872   3.320   2.226  0.5605 -0.2406  1.0843
 6759SOL     OW32749   3.688   1.676   5.890 -0.0754  0.2383  0.4416
 6759SOL    HW132750   3.767   1.628   5.851 -1.2026 -0.9510 -0.4544
 6759SOL    HW232751   3.650   1.738   5.821 -1.3122 -0.9313  0.0384
 6760SOL     OW32752   7.643   8.885   0.612 -0.4886  0.4032 -0.7872
 6760SOL    HW132753   7.671   8.969   0.657 -0.0319 -1.0113  1.6900
 6760SOL    HW232754   7.596   8.826   0.678  0.2026 -1.7662 -2.1678
 6761SOL     OW32755   0.679   8.146   8.196 -0.4524  0.1824 -0.5424
 6761SOL    HW132756   0.750   8.155   8.127 -0.7864  1.8437 -0.6921
 6761SOL    HW232757   0.589   8.150   8.152 -0.6553 -0.9588 -0.2474
 6762SOL     OW32758   7.249   1.031   1.150 -0.5051  0.4095  0.1623
 6762SOL    HW132759   7.173   1.093   1.129 -0.3854  0.1802 -0.9793
 6762SOL    HW232760   7.213   0.949   1.194 -1.0882 -0.2910 -1.5818
 6763SOL     OW32761   7.417   2.716   4.347 -0.0092 -0.0326  0.2852
 6763SOL    HW132762   7.411   2.618   4.364 -0.0335  0.2207  1.7848
 6763SOL    HW232763   7.437   2.764   4.433 -0.2876  1.2995 -0.3790
 6764SOL     OW32764   6.577   3.875   5.860  0.2342  0.7885  0.4667
 6764SOL    HW132765   6.609   3.905   5.950 -0.1357 -0.7457  1.1323
 6764SOL    HW232766   6.654   3.873   5.796  0.3674  2.5404  0.5703
 6765SOL     OW32767   3.651   1.213   4.596  0.0595  0.0724  0.3981
 6765SOL    HW132768   3.682   1.127   4.637 -0.5554 -1.2548 -1.8845
 6765SOL    HW232769   3.726   1.279   4.595  0.9239 -0.9031  0.8644
 6766SOL     OW32770   8.734   3.405   6.987  0.0288  0.3370  0.2956
 6766SOL    HW132771   8.779   3.319   7.013 -0.3481 -0.4258 -1.5210
 6766SOL    HW232772   8.671   3.433   7.060  1.5961  0.1215  1.7775
 6767SOL     OW32773   2.922   8.623   2.099 -0.0043 -0.2009 -0.2735
 6767SOL    HW132774   2.909   8.722   2.099  1.3767 -0.0030  0.3439
 6767SOL    HW232775   2.851   8.579   2.044 -0.0568  1.2092 -1.3473
 6768SOL     OW32776   0.463   6.120   2.878 -0.5196 -0.0894 -0.5767
 6768SOL    HW132777   0.411   6.195   2.920  1.0698  1.0112 -0.5260
 6768SOL    HW232778   0.544   6.101   2.933  0.1345 -0.5112 -1.6704
 6769SOL     OW32779   1.433   3.820   1.141 -0.3146  0.3902  0.4759
 6769SOL    HW132780   1.531   3.811   1.159 -0.6334  0.3527  2.2867
 6769SOL    HW232781   1.382   3.811   1.227 -1.9757 -0.5107 -0.5757
 6770SOL     OW32782   1.151   5.956   3.002 -0.4036  0.0352 -0.4459
 6770SOL    HW132783   1.073   5.925   2.947  0.4494 -2.4888 -0.2916
 6770SOL    HW232784   1.119   5.988   3.091 -1.3756  0.0994 -0.8124
 6771SOL     OW32785   7.700   5.563   1.716 -0.0089  0.3259 -0.1846
 6771SOL    HW132786   7.689   5.501   1.793  3.5340 -1.7674 -1.2495
 6771SOL    HW232787   7.791   5.606   1.721  0.2190  0.2762 -3.0531
 6772SOL     OW32788   4.597   3.320   7.149 -0.6044  0.8070 -0.2971
 6772SOL    HW132789   4.691   3.347   7.167 -0.3773 -0.7209  0.9061
 6772SOL    HW232790   4.538   3.400   7.154  0.2588  1.3468  1.6798
 6773SOL     OW32791   6.665   7.965   8.861 -0.0015 -0.0992  0.4479
 6773SOL    HW132792   6.596   7.962   8.934  0.5488 -0.8403  0.9461
 6773SOL    HW232793   6.665   8.056   8.819  0.5026  0.7134  2.1745
 6774SOL     OW32794   2.185   3.955   6.537  0.1475  0.5307  0.1033
 6774SOL    HW132795   2.171   3.856   6.544  1.5934  0.1886 -1.5100
 6774SOL    HW232796   2.255   3.984   6.602 -0.4112  0.5410  0.7094
 6775SOL     OW32797   4.944   5.384   8.709 -0.4479  0.2282 -0.4054
 6775SOL    HW132798   5.035   5.412   8.740 -0.5319  0.9349 -0.7925
 6775SOL    HW232799   4.926   5.291   8.740 -0.2745  0.6879  1.1504
 6776SOL     OW32800   2.999   2.081   7.573  0.0276  0.0187 -0.3633
 6776SOL    HW132801   3.008   2.053   7.669 -2.2366 -0.9382 -0.3738
 6776SOL    HW232802   3.083   2.061   7.524  1.5512  1.3729  1.6213
 6777SOL     OW32803   6.896   5.562   6.363 -0.1370  0.0455 -0.6618
 6777SOL    HW132804   6.818   5.625   6.360 -0.7129 -0.5128  1.5860
 6777SOL    HW232805   6.868   5.476   6.405  1.1937 -0.9125 -1.7135
 6778SOL     OW32806   5.728   5.225   7.034 -0.2469  0.3089 -0.1314
 6778SOL    HW132807   5.665   5.236   6.956  1.1951 -0.1780 -1.3835
 6778SOL    HW232808   5.753   5.129   7.044  0.6226  0.5559  0.1015
 6779SOL     OW32809   5.605   1.347   6.778  0.1326 -0.0511 -0.4802
 6779SOL    HW132810   5.547   1.428   6.768 -0.5967 -0.7282 -1.9603
 6779SOL    HW232811   5.657   1.333   6.694  1.1575 -0.4473  0.2077
 6780SOL     OW32812   2.803   3.203   6.908  0.5627  0.5583 -0.3539
 6780SOL    HW132813   2.724   3.151   6.940  1.4098  0.3112  1.4135
 6780SOL    HW232814   2.787   3.235   6.815 -0.7355 -1.3150 -0.7978
 6781SOL     OW32815   5.926   3.455   4.947  0.0458 -0.0115  0.0203
 6781SOL    HW132816   5.880   3.419   4.866  0.9055 -1.2229  0.0515
 6781SOL    HW232817   6.008   3.505   4.919  2.5259 -3.7654  0.3027
 6782SOL     OW32818   1.614   6.527   2.283  0.7087 -0.2283  0.8384
 6782SOL    HW132819   1.679   6.455   2.257 -0.6361 -0.4435 -2.0381
 6782SOL    HW232820   1.664   6.606   2.317  2.4892 -0.5762 -0.8910
 6783SOL     OW32821   5.816   8.823   3.403  0.3463 -0.2474 -0.1543
 6783SOL    HW132822   5.817   8.894   3.332  2.4708  0.2786  0.3681
 6783SOL    HW232823   5.800   8.734   3.361 -0.6617  0.3264 -1.0168
 6784SOL     OW32824   8.557   5.458   6.626 -0.0831  0.6163 -0.1639
 6784SOL    HW132825   8.595   5.547   6.601 -1.3719  0.9278 -1.1140
 6784SOL    HW232826   8.626   5.403   6.672  0.7074  2.1442  0.5090
 6785SOL     OW32827   3.782   4.292   0.505 -0.1577  0.6245  0.9438
 6785SOL    HW132828   3.726   4.244   0.573  1.8062  2.3594  3.8907
 6785SOL    HW232829   3.742   4.382   0.487 -0.9223  0.0070 -0.6431
 6786SOL     OW32830   0.262   2.388   8.637 -0.1773 -0.7117 -0.2090
 6786SOL    HW132831   0.202   2.437   8.574 -1.5095 -1.2114  0.6368
 6786SOL    HW232832   0.267   2.292   8.611 -0.6624 -0.9029  0.3730
 6787SOL     OW32833   5.142   5.087   6.366  0.2301 -0.6966  0.1882
 6787SOL    HW132834   5.240   5.102   6.361  0.0725  0.1139 -0.5767
 6787SOL    HW232835   5.101   5.151   6.431 -0.0139  0.0688 -0.7163
 6788SOL     OW32836   6.448   7.976   2.203  0.3020 -0.6751 -0.1760
 6788SOL    HW132837   6.366   7.919   2.210  2.1009 -3.3998 -0.2262
 6788SOL    HW232838   6.462   8.003   2.108  0.6631 -2.0944 -0.5384
 6789SOL     OW32839   2.396   6.312   3.089  0.1881  0.3316 -0.4671
 6789SOL    HW132840   2.436   6.226   3.060  3.3342  1.1572  1.2069
 6789SOL    HW232841   2.425   6.385   3.028 -1.4711  0.4252 -1.1633
 6790SOL     OW32842   8.788   3.463   3.851 -0.1291 -0.4283  0.2288
 6790SOL    HW132843   8.724   3.387   3.867 -0.7275 -0.0220 -0.2151
 6790SOL    HW232844   8.784   3.490   3.754  0.0728  0.1730  0.3860
 6791SOL     OW32845   0.840   8.283   8.000  0.2029 -0.2095  0.1055
 6791SOL    HW132846   0.928   8.305   8.043 -0.3571  2.2091  0.0900
 6791SOL    HW232847   0.834   8.330   7.912  0.1404 -2.8379 -1.3443
 6792SOL     OW32848   4.437   3.737   5.416  0.8963 -0.2030 -0.3631
 6792SOL    HW132849   4.460   3.648   5.456  0.8313  0.2991  0.8290
 6792SOL    HW232850   4.460   3.809   5.482  3.0942  0.8277 -2.2028
 6793SOL     OW32851   2.625   4.640   5.403 -0.0540 -0.2048 -0.4407
 6793SOL    HW132852   2.662   4.620   5.493 -0.3033 -1.1061 -0.5335
 6793SOL    HW232853   2.637   4.737   5.382  0.3972 -0.0872  0.3758
 6794SOL     OW32854   6.805   5.731   8.558  0.3641 -0.1001 -0.5466
 6794SOL    HW132855   6.859   5.698   8.481 -0.9969 -1.7358 -0.8156
 6794SOL    HW232856   6.825   5.677   8.639  0.5536  0.5443 -0.1558
 6795SOL     OW32857   8.720   8.012   5.647 -0.1325  0.2332  0.1525
 6795SOL    HW132858   8.728   8.107   5.619  0.7743  0.6674  1.8096
 6795SOL    HW232859   8.630   7.997   5.689 -0.0512  0.4978  0.4169
 6796SOL     OW32860   7.191   4.246   1.679  0.3586 -0.2747  0.2191
 6796SOL    HW132861   7.146   4.320   1.730  1.5930 -0.1705  1.2070
 6796SOL    HW232862   7.189   4.162   1.733 -1.1045 -1.0025 -0.9343
 6797SOL     OW32863   7.979   0.330   6.907  0.3482 -0.0444  0.1540
 6797SOL    HW132864   7.888   0.293   6.923  0.8504 -0.5155  1.9788
 6797SOL    HW232865   7.982   0.371   6.816 -1.6921 -0.0017  0.0740
 6798SOL     OW32866   4.371   5.643   4.711 -0.2089 -0.2534 -0.1816
 6798SOL    HW132867   4.338   5.684   4.796  2.5249  3.0082 -0.5985
 6798SOL    HW232868   4.456   5.593   4.730 -0.2664 -0.5852 -0.7962
 6799SOL     OW32869   1.420   2.222   5.714  0.4416 -0.2861 -0.2642
 6799SOL    HW132870   1.344   2.159   5.726 -0.4458  0.3719 -2.2167
 6799SOL    HW232871   1.386   2.310   5.680  2.1244 -0.1405 -1.6437
 6800SOL     OW32872   0.285   7.098   8.753  0.7121 -0.0673 -0.0883
 6800SOL    HW132873   0.332   7.174   8.797  0.4527  0.2166 -0.3025
 6800SOL    HW232874   0.352   7.043   8.702  0.5664  1.3813 -1.9209
 6801SOL     OW32875   4.628   8.641   1.016 -0.1328  0.6464  0.2811
 6801SOL    HW132876   4.550   8.604   1.067 -0.4406  0.8056 -0.0775
 6801SOL    HW232877   4.642   8.737   1.042 -0.9690  1.0505 -0.7445
 6802SOL     OW32878   2.224   0.373   3.478 -0.3862 -0.0303  0.0733
 6802SOL    HW132879   2.183   0.288   3.512  2.0461 -0.7493  1.3549
 6802SOL    HW232880   2.182   0.451   3.524 -1.6695 -0.6059 -0.0922
 6803SOL     OW32881   4.611   7.116   8.338  0.0946  0.2882  0.1514
 6803SOL    HW132882   4.617   7.094   8.241  2.3722  0.6655  0.1912
 6803SOL    HW232883   4.651   7.207   8.354 -0.2346  0.2147  1.4480
 6804SOL     OW32884   5.777   6.696   2.936 -0.6588  0.2304 -0.1439
 6804SOL    HW132885   5.791   6.659   3.028  0.1747  0.0372 -0.3430
 6804SOL    HW232886   5.688   6.665   2.901  0.2453 -2.0464 -0.5037
 6805SOL     OW32887   3.094   6.521   1.456 -0.1715 -0.0240 -0.2468
 6805SOL    HW132888   3.160   6.446   1.447 -0.3131 -0.2341  0.4555
 6805SOL    HW232889   3.040   6.508   1.539 -1.1444  0.1137 -0.8508
 6806SOL     OW32890   6.791   4.829   2.264  0.1108  0.3444 -0.2934
 6806SOL    HW132891   6.845   4.913   2.263  0.1046  0.3430 -1.9260
 6806SOL    HW232892   6.705   4.844   2.214  0.0337 -0.5862 -0.4417
 6807SOL     OW32893   3.042   3.846   0.152  0.3928 -0.6944  0.2452
 6807SOL    HW132894   3.094   3.820   0.071 -0.8573  0.7875 -1.0712
 6807SOL    HW232895   3.038   3.769   0.215  1.1239 -1.9817 -1.2397
 6808SOL     OW32896   6.670   0.150   0.379  0.6991  0.3222  0.0635
 6808SOL    HW132897   6.598   0.101   0.330  0.9196  0.9313 -0.8916
 6808SOL    HW232898   6.632   0.196   0.459 -0.0412  0.8786 -0.5956
 6809SOL     OW32899   3.370   3.725   3.622  0.1151 -0.1490  0.0383
 6809SOL    HW132900   3.276   3.700   3.600  0.7833 -1.3209 -1.6305
 6809SOL    HW232901   3.426   3.642   3.630  1.4369  0.5953 -1.0881
 6810SOL     OW32902   7.220   5.001   0.684  1.0328 -0.4895 -1.0236
 6810SOL    HW132903   7.200   4.918   0.737 -1.3433  0.1145 -0.9237
 6810SOL    HW232904   7.304   5.043   0.719  0.2741 -0.8675  1.3770
 6811SOL     OW32905   2.863   2.249   2.192  0.6393  0.3299 -0.4038
 6811SOL    HW132906   2.894   2.309   2.266 -0.2192  0.8206 -0.4372
 6811SOL    HW232907   2.769   2.272   2.168 -0.3782 -2.2741  0.8841
 6812SOL     OW32908   6.640   3.512   5.061  0.3105 -0.5452 -0.2944
 6812SOL    HW132909   6.734   3.529   5.090  0.3831 -0.3927 -0.6219
 6812SOL    HW232910   6.611   3.583   4.997 -0.2743 -0.1698  0.3645
 6813SOL     OW32911   6.845   7.725   8.519  0.1135 -0.9533  0.1948
 6813SOL    HW132912   6.755   7.766   8.532  0.1567 -0.8285  0.1025
 6813SOL    HW232913   6.841   7.628   8.542 -0.4512 -1.3176 -1.3741
 6814SOL     OW32914   3.046   5.356   2.306  0.5590  0.0627 -0.0650
 6814SOL    HW132915   2.965   5.301   2.281  0.3071  0.8576 -1.0079
 6814SOL    HW232916   3.041   5.379   2.403 -0.0117 -0.4686  0.0388
 6815SOL     OW32917   3.002   8.677   5.112  0.0334 -0.3188 -0.5156
 6815SOL    HW132918   2.935   8.638   5.175  0.4497  0.4871  0.4436
 6815SOL    HW232919   2.988   8.639   5.021 -1.3127 -0.6458 -0.1891
 6816SOL     OW32920   7.484   2.763   0.207 -0.7842  0.3674 -0.7310
 6816SOL    HW132921   7.493   2.741   0.109  1.8950 -0.8491 -0.2578
 6816SOL    HW232922   7.525   2.853   0.224 -2.5501  1.2332 -0.9391
 6817SOL     OW32923   7.955   7.763   0.521  0.3273 -0.2063  0.9321
 6817SOL    HW132924   8.027   7.827   0.548  0.5141  0.3624 -0.8291
 6817SOL    HW232925   7.873   7.814   0.494 -1.0341 -0.8668  3.6483
 6818SOL     OW32926   5.562   2.888   7.694 -0.0373 -0.7529 -0.3672
 6818SOL    HW132927   5.519   2.960   7.639 -0.1222  1.1420  2.1097
 6818SOL    HW232928   5.493   2.840   7.747  0.5887  0.8741  1.9918
 6819SOL     OW32929   1.118   1.136   4.072  0.0693  0.3632  0.6368
 6819SOL    HW132930   1.094   1.214   4.130 -0.1323  1.1797 -0.5224
 6819SOL    HW232931   1.217   1.123   4.072  0.1370  0.9014  0.4632
 6820SOL     OW32932   0.047   2.886   6.087 -0.3949  0.5570 -0.2650
 6820SOL    HW132933   0.146   2.888   6.098 -0.4085 -1.9106  0.6175
 6820SOL    HW232934   0.005   2.957   6.143  0.7683  0.4204  0.7882
 6821SOL     OW32935   5.777   4.457   4.758  0.3838 -0.3482 -0.2298
 6821SOL    HW132936   5.791   4.494   4.850  2.9836 -1.5726 -0.0831
 6821SOL    HW232937   5.686   4.482   4.725  1.1699  4.2873  0.7179
 6822SOL     OW32938   5.514   3.637   1.446  0.5992  0.0903  0.2272
 6822SOL    HW132939   5.566   3.722   1.446 -0.3187  0.6650  0.2503
 6822SOL    HW232940   5.511   3.600   1.539  0.2864  0.4927  0.3821
 6823SOL     OW32941   6.581   2.694   4.755 -0.1062 -0.6076  0.5526
 6823SOL    HW132942   6.614   2.670   4.664  0.5639 -4.0904  1.6709
 6823SOL    HW232943   6.613   2.786   4.779 -1.4925  0.9433 -3.2644
 6824SOL     OW32944   4.340   2.453   5.471  0.0151 -0.0032 -0.2070
 6824SOL    HW132945   4.333   2.367   5.523  1.5786  0.8414  1.4660
 6824SOL    HW232946   4.426   2.498   5.494 -0.1340  1.3133 -2.1847
 6825SOL     OW32947   5.318   0.256   6.575  0.6802  0.1747  0.1728
 6825SOL    HW132948   5.377   0.175   6.578 -0.6131 -0.8890 -1.8160
 6825SOL    HW232949   5.354   0.321   6.508 -0.1186 -0.2887 -0.7292
 6826SOL     OW32950   0.974   6.434   2.082 -0.1347 -0.4769 -0.3736
 6826SOL    HW132951   0.892   6.456   2.136  0.5426 -1.8007  1.2434
 6826SOL    HW232952   0.947   6.414   1.988 -1.4978  0.5461 -0.2207
 6827SOL     OW32953   7.322   5.832   8.171  0.7090 -0.0445 -0.6540
 6827SOL    HW132954   7.329   5.732   8.163  0.9202 -0.1617  0.9108
 6827SOL    HW232955   7.319   5.872   8.079  1.4447 -1.4257 -1.3015
 6828SOL     OW32956   6.920   5.546   8.796  0.2312  0.1060  0.3218
 6828SOL    HW132957   6.993   5.555   8.729  1.5027  0.0308  1.6859
 6828SOL    HW232958   6.915   5.629   8.852 -3.3992  1.8471 -2.3566
 6829SOL     OW32959   8.124   3.793   0.968 -0.3674  0.2452  0.3710
 6829SOL    HW132960   8.196   3.852   0.929 -0.0162 -0.2623  0.2544
 6829SOL    HW232961   8.159   3.744   1.047 -0.5608 -0.0662  0.2671
 6830SOL     OW32962   8.603   4.984   6.023 -0.2627 -0.7740  0.0064
 6830SOL    HW132963   8.635   5.009   6.114 -0.6360 -0.6323  0.1017
 6830SOL    HW232964   8.514   4.939   6.030 -0.0728 -1.1862 -0.2511
 6831SOL     OW32965   8.704   7.769   1.329  0.2233 -0.0088  0.3819
 6831SOL    HW132966   8.650   7.798   1.408  2.3336  2.7337  0.8861
 6831SOL    HW232967   8.773   7.838   1.309 -0.6027 -0.3883 -4.2209
 6832SOL     OW32968   1.307   5.888   4.147  0.1346 -0.2838 -0.0540
 6832SOL    HW132969   1.276   5.859   4.237 -0.2793 -1.1523 -0.4673
 6832SOL    HW232970   1.274   5.824   4.078  1.0284 -0.0134 -0.7517
 6833SOL     OW32971   2.318   0.472   0.372 -0.3029  0.1337  0.0294
 6833SOL    HW132972   2.383   0.430   0.310 -0.4303 -0.0729  0.0356
 6833SOL    HW232973   2.301   0.410   0.449  0.9148  0.9659  0.9896
 6834SOL     OW32974   4.541   6.239   3.700 -0.4527  0.7743 -0.0095
 6834SOL    HW132975   4.590   6.316   3.660 -0.2939  0.7868  0.2053
 6834SOL    HW232976   4.459   6.272   3.747 -0.0122  0.9022  0.6924
 6835SOL     OW32977   8.547   7.014   5.945  0.0506 -0.2523 -0.1045
 6835SOL    HW132978   8.585   6.984   6.033 -1.8514 -0.2681  0.7529
 6835SOL    HW232979   8.587   6.960   5.871  1.8347 -0.0995  0.7139
 6836SOL     OW32980   8.205   5.141   1.393  0.5420  0.0137 -0.3719
 6836SOL    HW132981   8.148   5.186   1.324 -2.2064  0.4238  2.0478
 6836SOL    HW232982   8.177   5.046   1.402  1.2898 -0.1972 -0.2598
 6837SOL     OW32983   8.592   6.746   2.400  0.1115  0.3661  0.8544
 6837SOL    HW132984   8.554   6.701   2.480 -1.4835  0.8488  0.3920
 6837SOL    HW232985   8.555   6.838   2.392  0.9108  0.6317  0.0334
 6838SOL     OW32986   1.742   4.354   3.935 -0.3970  0.3246  0.8182
 6838SOL    HW132987   1.833   4.344   3.893 -0.0597 -0.9020  1.8214
 6838SOL    HW232988   1.702   4.264   3.950 -2.9541  0.9052 -2.0740
 6839SOL     OW32989   2.179   4.859   7.946  0.6707  0.0207  0.1761
 6839SOL    HW132990   2.188   4.956   7.970 -0.0633  0.7845 -2.4949
 6839SOL    HW232991   2.236   4.839   7.866 -0.8110 -1.2658 -0.5759
 6840SOL     OW32992   4.156   4.863   5.803 -0.1595 -0.3828 -0.1933
 6840SOL    HW132993   4.242   4.914   5.796  0.2012 -0.7061  1.7642
 6840SOL    HW232994   4.175   4.765   5.798 -0.3713 -0.4655  0.6007
 6841SOL     OW32995   1.745   8.728   2.481  0.4372 -0.0600  0.7800
 6841SOL    HW132996   1.715   8.632   2.490  0.2678 -0.0941 -0.1541
 6841SOL    HW232997   1.697   8.783   2.550 -0.8642 -0.3305  0.1105
 6842SOL     OW32998   8.610   7.214   0.611  0.5743 -0.1521 -0.1293
 6842SOL    HW132999   8.557   7.216   0.695  1.4377 -0.1187  0.4231
 6842SOL    HW233000   8.548   7.209   0.533 -0.2467  0.2564  0.4817
 6843SOL     OW33001   0.790   1.048   1.014  0.0729  0.1853  0.1435
 6843SOL    HW133002   0.694   1.040   1.039  0.4678 -0.1454  1.6043
 6843SOL    HW233003   0.841   1.089   1.090  1.1674 -0.1054 -0.4250
 6844SOL     OW33004   1.245   1.969   6.362 -0.3542  0.0376  0.1831
 6844SOL    HW133005   1.236   2.015   6.450  0.3068  0.9655 -0.2198
 6844SOL    HW233006   1.155   1.959   6.320 -0.7837 -1.3306  1.4154
 6845SOL     OW33007   4.998   8.099   0.309  0.0368 -0.3046 -0.0648
 6845SOL    HW133008   4.985   8.159   0.230 -0.3006 -1.2562 -0.7390
 6845SOL    HW233009   5.094   8.072   0.315  0.5367  1.6140  1.2148
 6846SOL     OW33010   8.131   8.339   7.685 -0.6474  0.3520  0.4803
 6846SOL    HW133011   8.085   8.336   7.597 -1.4959  0.4255  0.9152
 6846SOL    HW233012   8.083   8.280   7.750  0.2954 -0.1350  0.7423
 6847SOL     OW33013   7.307   4.740   4.991 -0.3974 -0.1480  0.2807
 6847SOL    HW133014   7.329   4.753   5.087 -2.4760  3.8903  0.3254
 6847SOL    HW233015   7.352   4.811   4.937 -0.6010 -1.3693 -1.5330
 6848SOL     OW33016   0.325   1.905   1.288  0.4867 -0.0759 -0.3907
 6848SOL    HW133017   0.286   1.946   1.206  0.7029 -1.2898 -1.1139
 6848SOL    HW233018   0.372   1.820   1.264 -0.8975 -1.3327  1.2374
 6849SOL     OW33019   3.415   4.830   8.251 -0.4586 -0.6982 -0.0004
 6849SOL    HW133020   3.389   4.877   8.167  1.4084 -2.5008 -1.6231
 6849SOL    HW233021   3.507   4.857   8.278 -0.1658 -1.8589  0.1854
 6850SOL     OW33022   6.414   4.018   4.188 -0.4786 -0.4919 -0.1497
 6850SOL    HW133023   6.458   4.039   4.275 -1.7737  1.3804  0.0708
 6850SOL    HW233024   6.318   4.046   4.191 -0.2180  0.8088 -2.6130
 6851SOL     OW33025   5.427   7.960   2.038  0.2288 -0.4377 -0.4090
 6851SOL    HW133026   5.470   7.880   2.080 -0.3873  0.4040  1.8953
 6851SOL    HW233027   5.497   8.014   1.990  0.8852 -1.6055 -0.7933
 6852SOL     OW33028   6.642   7.547   5.519 -0.7477 -0.3424  0.1329
 6852SOL    HW133029   6.711   7.554   5.590  0.3590  0.3340 -0.9882
 6852SOL    HW233030   6.585   7.629   5.519 -2.2837 -1.3787  1.7786
 6853SOL     OW33031   0.098   4.913   3.781 -0.5876  0.3539  0.1314
 6853SOL    HW133032   0.168   4.908   3.709 -0.5471 -1.9455  0.3131
 6853SOL    HW233033   0.016   4.958   3.745  0.0269  0.7182 -0.8410
 6854SOL     OW33034   7.176   0.112   0.952 -0.4172 -0.4057 -0.0846
 6854SOL    HW133035   7.116   0.092   0.875 -2.2523 -1.8897  1.6572
 6854SOL    HW233036   7.142   0.191   1.003 -0.4290 -0.7287  0.4209
 6855SOL     OW33037   7.441   6.927   3.204 -0.7904 -0.1983  0.1638
 6855SOL    HW133038   7.365   6.923   3.269 -0.8341 -1.3745  0.0561
 6855SOL    HW233039   7.511   6.990   3.237 -2.4726  2.0875 -0.4491
 6856SOL     OW33040   6.112   6.010   8.530 -0.3962  0.0979 -0.3853
 6856SOL    HW133041   6.127   6.004   8.628 -3.0635 -1.2002 -0.0129
 6856SOL    HW233042   6.116   6.106   8.501  2.3004  0.3424  0.6094
 6857SOL     OW33043   7.703   5.941   1.734 -0.1498  0.0272  0.0400
 6857SOL    HW133044   7.691   5.908   1.640 -1.1718 -0.5924  0.3856
 6857SOL    HW233045   7.719   6.040   1.732 -0.8265  0.1265 -0.7402
 6858SOL     OW33046   2.671   1.867   1.009  0.2370 -0.6444  0.2098
 6858SOL    HW133047   2.644   1.939   0.945 -0.6393 -1.4064 -0.2925
 6858SOL    HW233048   2.617   1.876   1.093  1.8007  0.7095  1.0806
 6859SOL     OW33049   2.490   1.333   8.635  0.0491 -0.7779 -0.6441
 6859SOL    HW133050   2.412   1.331   8.573 -1.4607 -0.6745  1.2197
 6859SOL    HW233051   2.495   1.248   8.687  0.6551 -0.4411 -0.1310
 6860SOL     OW33052   0.673   6.066   5.412  0.1080  0.4346  0.3405
 6860SOL    HW133053   0.771   6.063   5.391  0.1147 -0.9591  0.5130
 6860SOL    HW233054   0.638   5.973   5.421 -1.5628  0.8791 -1.2492
 6861SOL     OW33055   6.159   6.507   6.112  0.4155 -0.1667  0.0772
 6861SOL    HW133056   6.194   6.535   6.201 -0.4320 -1.0565  0.6974
 6861SOL    HW233057   6.061   6.527   6.106  0.3163 -0.7525 -0.3857
 6862SOL     OW33058   8.375   0.435   5.267 -0.4131 -0.5732 -0.1917
 6862SOL    HW133059   8.351   0.480   5.181 -1.1362 -0.5240  0.0361
 6862SOL    HW233060   8.470   0.403   5.262  0.5216  2.0219  0.0817
 6863SOL     OW33061   3.344   1.371   0.534  0.1962  0.2748  0.0399
 6863SOL    HW133062   3.413   1.438   0.560  0.1731  0.6542 -0.8640
 6863SOL    HW233063   3.372   1.324   0.451  0.5319 -1.3292  1.0398
 6864SOL     OW33064   1.869   4.285   3.073 -0.5155  0.7434 -0.1892
 6864SOL    HW133065   1.861   4.375   3.115 -1.0973  1.0753 -0.9924
 6864SOL    HW233066   1.782   4.237   3.080 -0.2973  0.3700 -0.0377
 6865SOL     OW33067   6.685   5.533   4.926 -0.2951  0.1252  0.0138
 6865SOL    HW133068   6.625   5.605   4.963  0.4552  0.9966 -0.4613
 6865SOL    HW233069   6.633   5.447   4.920 -1.2398  0.6512  0.4485
 6866SOL     OW33070   7.041   8.511   5.730  0.1633 -0.0878  0.3348
 6866SOL    HW133071   7.063   8.417   5.754 -0.5609 -0.1422  0.8010
 6866SOL    HW233072   6.947   8.531   5.756  0.3448  0.7984  0.3297
 6867SOL     OW33073   2.972   6.313   6.130  0.3938  0.1945 -0.1495
 6867SOL    HW133074   2.980   6.413   6.124 -1.1033  0.3250 -0.2107
 6867SOL    HW233075   3.055   6.270   6.095  1.4230  1.4452  0.7361
 6868SOL     OW33076   5.176   8.614   7.423  0.3686 -0.5278  0.0846
 6868SOL    HW133077   5.078   8.635   7.423 -0.3206 -3.5216  0.9575
 6868SOL    HW233078   5.198   8.557   7.343  1.1943 -0.7333  0.4510
 6869SOL     OW33079   6.404   8.306   2.618 -0.0297 -0.4420 -0.2097
 6869SOL    HW133080   6.435   8.392   2.576 -0.7910  0.6944  1.4913
 6869SOL    HW233081   6.318   8.322   2.666 -0.3996 -2.2802 -0.2351
 6870SOL     OW33082   0.323   2.886   6.099 -0.1885 -0.1386  0.1001
 6870SOL    HW133083   0.354   2.966   6.151  1.0165 -0.0356 -0.7400
 6870SOL    HW233084   0.360   2.891   6.006  0.4691 -2.0097  0.2335
 6871SOL     OW33085   6.059   3.460   0.420 -0.2459 -0.5973 -0.0577
 6871SOL    HW133086   6.036   3.521   0.345 -0.0784  1.3328  1.4228
 6871SOL    HW233087   5.986   3.393   0.433 -1.0968  0.1930 -0.7650
 6872SOL     OW33088   0.504   5.834   3.813 -0.1901 -0.6714  0.5692
 6872SOL    HW133089   0.474   5.739   3.810 -0.9196 -0.4261  0.0235
 6872SOL    HW233090   0.471   5.877   3.897  1.4284 -1.3111  1.5737
 6873SOL     OW33091   0.318   5.445   3.040  0.2173  0.8127  0.0256
 6873SOL    HW133092   0.315   5.358   3.089 -0.2761  0.7376 -0.1379
 6873SOL    HW233093   0.279   5.517   3.097  0.3940  0.8793  0.0625
 6874SOL     OW33094   1.272   3.670   3.354  0.2955 -0.1651 -0.4495
 6874SOL    HW133095   1.191   3.685   3.410  0.1483  0.1116 -0.7306
 6874SOL    HW233096   1.338   3.614   3.404  0.0733 -0.1060 -0.0883
 6875SOL     OW33097   2.702   2.750   1.066 -0.3193 -0.2647 -0.7481
 6875SOL    HW133098   2.642   2.729   0.989  0.5807  0.0408 -1.5497
 6875SOL    HW233099   2.787   2.697   1.057 -0.2608 -0.3130  0.0933
 6876SOL     OW33100   1.383   3.751   5.680 -0.0265 -0.6878  0.2081
 6876SOL    HW133101   1.329   3.832   5.658 -0.9379 -1.7370 -1.4960
 6876SOL    HW233102   1.480   3.776   5.687 -0.2335  0.4543 -0.8639
 6877SOL     OW33103   7.946   4.177   2.533 -0.0602 -0.4515  0.4216
 6877SOL    HW133104   7.971   4.142   2.623 -2.8090 -1.2845  0.9070
 6877SOL    HW233105   7.996   4.126   2.463  0.3191 -1.3859  1.3572
 6878SOL     OW33106   1.898   7.072   6.728  0.0413 -0.0473  0.4296
 6878SOL    HW133107   1.962   6.997   6.708 -0.0432 -0.3261  1.1792
 6878SOL    HW233108   1.875   7.120   6.643  0.7468 -0.3477  0.0635
 6879SOL     OW33109   0.375   6.069   8.478 -0.1060  0.1424  0.4488
 6879SOL    HW133110   0.409   6.161   8.459 -0.1951  0.1904  0.5250
 6879SOL    HW233111   0.444   6.019   8.532  1.3531 -0.9113 -2.2907
 6880SOL     OW33112   6.551   5.564   8.384  0.0589 -0.1946  0.0030
 6880SOL    HW133113   6.601   5.478   8.392  1.6494  0.5904 -1.1765
 6880SOL    HW233114   6.610   5.633   8.340 -0.6871  1.8736  2.1183
 6881SOL     OW33115   7.893   1.430   7.454  0.5314 -0.0049  0.1045
 6881SOL    HW133116   7.969   1.493   7.467 -0.1384  0.9314 -0.5227
 6881SOL    HW233117   7.813   1.479   7.421  0.2242 -1.3002 -1.1307
 6882SOL     OW33118   7.081   7.709   0.229  0.2028  0.1793 -0.1728
 6882SOL    HW133119   7.056   7.744   0.138 -1.4180  1.9930  0.9208
 6882SOL    HW233120   7.000   7.706   0.287  0.9353 -2.3831  0.8041
 6883SOL     OW33121   7.095   4.251   3.873  0.2861 -0.1645  0.3055
 6883SOL    HW133122   7.058   4.333   3.831 -0.1270 -0.1083  0.7759
 6883SOL    HW233123   7.141   4.195   3.804 -2.6555 -1.3627 -0.7589
 6884SOL     OW33124   1.375   2.377   4.709 -0.2249  0.5522 -1.2075
 6884SOL    HW133125   1.336   2.465   4.679 -0.0520  1.0008 -0.1287
 6884SOL    HW233126   1.474   2.377   4.691  0.3654  1.8992  1.8118
 6885SOL     OW33127   1.956   4.063   3.179  0.8709  0.2244 -0.1405
 6885SOL    HW133128   1.950   4.132   3.107  3.0173  0.6508  0.0531
 6885SOL    HW233129   1.880   4.074   3.243 -0.2369  0.7608 -1.5427
 6886SOL     OW33130   3.137   0.018   3.294 -0.1349 -0.4668  0.2952
 6886SOL    HW133131   3.218   0.008   3.352  1.2271  2.1659 -1.0655
 6886SOL    HW233132   3.163   0.005   3.198 -1.5847 -0.8752 -0.0588
 6887SOL     OW33133   7.278   6.306   2.166  0.4658 -0.4623 -0.2972
 6887SOL    HW133134   7.360   6.282   2.218  0.0483 -0.9627  0.1383
 6887SOL    HW233135   7.303   6.364   2.089  1.2631 -0.8515 -0.3303
 6888SOL     OW33136   8.416   5.666   2.145  0.2463 -0.1666  0.1723
 6888SOL    HW133137   8.392   5.621   2.059  0.9635 -0.2207 -0.0077
 6888SOL    HW233138   8.501   5.626   2.180  1.8147  2.1640 -0.8540
 6889SOL     OW33139   7.854   5.604   6.005  0.0202 -0.6692 -0.2750
 6889SOL    HW133140   7.942   5.652   6.007 -0.0345 -0.5700 -0.2555
 6889SOL    HW233141   7.796   5.645   5.935  0.3149 -1.3047 -0.8954
 6890SOL     OW33142   7.925   4.217   3.039  0.3095  0.0267  0.0191
 6890SOL    HW133143   7.980   4.295   3.066  2.0128 -0.7448 -1.1243
 6890SOL    HW233144   7.870   4.241   2.959 -0.9558  0.7656  1.0981
 6891SOL     OW33145   3.160   8.555   5.326  0.1195  0.9198 -0.8233
 6891SOL    HW133146   3.106   8.610   5.262 -1.4664  0.8574  0.4161
 6891SOL    HW233147   3.217   8.615   5.382  0.4034  1.0840 -1.2848
 6892SOL     OW33148   6.819   3.272   2.853  0.1757  0.0128 -0.2379
 6892SOL    HW133149   6.782   3.199   2.909  1.3508  0.2219  0.8341
 6892SOL    HW233150   6.744   3.320   2.807 -0.7260 -0.7718  0.3966
 6893SOL     OW33151   7.666   8.292   5.605  0.1216  0.0904  0.2144
 6893SOL    HW133152   7.756   8.260   5.577  0.7872  1.4246  0.7727
 6893SOL    HW233153   7.661   8.298   5.705 -0.1323  1.2238  0.1499
 6894SOL     OW33154   2.372   1.898   2.900 -0.3753 -0.0804  0.3644
 6894SOL    HW133155   2.279   1.873   2.874 -0.1740  0.4210 -0.8457
 6894SOL    HW233156   2.422   1.816   2.928 -0.8812 -0.4905  0.0695
 6895SOL     OW33157   4.736   7.973   7.205 -0.0326  0.1634 -0.0724
 6895SOL    HW133158   4.719   7.903   7.273 -1.4956 -0.2927 -0.8989
 6895SOL    HW233159   4.802   7.939   7.138 -0.5552 -0.3352 -0.3355
 6896SOL     OW33160   6.274   3.028   3.487 -0.2073 -1.0074 -0.0445
 6896SOL    HW133161   6.276   3.055   3.584  2.1673  1.0495 -0.6292
 6896SOL    HW233162   6.353   2.970   3.467  0.3322  0.1174 -1.1872
 6897SOL     OW33163   1.523   6.114   7.873  0.0970 -0.0067  0.1799
 6897SOL    HW133164   1.533   6.205   7.832  1.3613 -0.6787 -1.0354
 6897SOL    HW233165   1.597   6.099   7.938  0.3176 -0.4556 -0.1753
 6898SOL     OW33166   4.482   4.419   7.098  0.5036 -0.6429  0.0560
 6898SOL    HW133167   4.406   4.354   7.099 -1.0038  1.1003  0.7489
 6898SOL    HW233168   4.565   4.372   7.067 -1.0280 -2.3419 -1.6196
 6899SOL     OW33169   2.571   3.065   4.794  0.3800  0.9030 -0.1015
 6899SOL    HW133170   2.504   3.134   4.768 -0.2890  0.7966  1.3007
 6899SOL    HW233171   2.636   3.103   4.860  1.4588  0.8812 -1.1339
 6900SOL     OW33172   2.880   7.407   7.299 -0.2135 -0.4959  0.1371
 6900SOL    HW133173   2.794   7.401   7.249  0.0495  3.2714 -0.9421
 6900SOL    HW233174   2.878   7.488   7.358  2.6490 -0.2619 -0.0167
 6901SOL     OW33175   0.326   8.655   7.041 -0.3170  0.1500 -0.0243
 6901SOL    HW133176   0.352   8.638   6.946  0.4794  1.6435 -0.0778
 6901SOL    HW233177   0.299   8.568   7.084 -1.1425 -0.4550 -1.7341
 6902SOL     OW33178   4.538   2.339   6.013 -0.2788 -0.3851  0.3744
 6902SOL    HW133179   4.448   2.341   5.970 -0.1559  0.7293  0.1543
 6902SOL    HW233180   4.566   2.244   6.028 -0.7966 -0.7660 -0.9992
 6903SOL     OW33181   8.481   7.312   3.783  0.1866  0.5039 -0.5875
 6903SOL    HW133182   8.426   7.385   3.824 -0.1258 -0.3383  0.5230
 6903SOL    HW233183   8.458   7.303   3.686 -0.6501  1.0642 -0.4498
 6904SOL     OW33184   0.366   2.545   8.371  0.9263 -0.4409 -0.4316
 6904SOL    HW133185   0.356   2.445   8.370  2.5398 -0.6729  1.7722
 6904SOL    HW233186   0.454   2.571   8.334  0.2758  0.2174 -1.5311
 6905SOL     OW33187   1.486   4.548   5.288  0.2847  0.2720  0.2713
 6905SOL    HW133188   1.434   4.634   5.291  0.0759  0.1224  1.1783
 6905SOL    HW233189   1.577   4.563   5.325 -0.4227 -0.3423  2.3093
 6906SOL     OW33190   2.262   0.001   6.177  0.2265  0.6788  0.0245
 6906SOL    HW133191   2.276  -0.097   6.193  1.4453  0.6902 -0.8873
 6906SOL    HW233192   2.173   0.028   6.213 -0.3047 -0.8568 -0.0785
 6907SOL     OW33193   2.135   4.548   5.238  0.1868  0.0437  0.4522
 6907SOL    HW133194   2.131   4.563   5.337  0.6727 -0.4053  0.5404
 6907SOL    HW233195   2.230   4.535   5.210 -0.0230 -0.6093  0.0402
 6908SOL     OW33196   1.093   5.611   8.571 -0.1372  0.2885  0.0404
 6908SOL    HW133197   1.033   5.677   8.525 -0.4262  0.1429  0.2056
 6908SOL    HW233198   1.040   5.531   8.599 -0.0423  0.5339  0.9440
 6909SOL     OW33199   6.426   4.323   8.408 -0.4490 -0.4509 -0.4761
 6909SOL    HW133200   6.375   4.346   8.324 -0.6949  0.8635  0.0195
 6909SOL    HW233201   6.371   4.262   8.464 -1.3083  0.6002 -0.1567
 6910SOL     OW33202   8.983   0.641   0.576 -0.6691 -0.0445  0.3664
 6910SOL    HW133203   9.060   0.703   0.561 -0.5314 -0.5075 -0.9326
 6910SOL    HW233204   8.898   0.693   0.577 -0.3949  0.3994  1.2529
 6911SOL     OW33205   6.400   3.195   7.352 -0.7273 -0.0598 -0.1227
 6911SOL    HW133206   6.379   3.102   7.321 -0.3446 -0.4455  0.7554
 6911SOL    HW233207   6.351   3.213   7.437 -0.4420  0.3794 -0.0500
 6912SOL     OW33208   5.995   6.673   5.342 -0.5806 -0.5874 -0.7127
 6912SOL    HW133209   6.026   6.713   5.428  0.4347 -0.9280 -0.9044
 6912SOL    HW233210   6.070   6.620   5.301 -0.6770  0.5220 -2.3785
 6913SOL     OW33211   0.064   3.637   1.996  0.5359  0.3718  0.2267
 6913SOL    HW133212   0.127   3.674   2.065  0.3075  0.2831  0.4864
 6913SOL    HW233213   0.104   3.646   1.905  0.2152  1.8405  0.2279
 6914SOL     OW33214   7.205   5.250   7.913  0.1769  0.4061 -0.0442
 6914SOL    HW133215   7.175   5.198   7.993  0.4284 -1.0966 -0.9079
 6914SOL    HW233216   7.127   5.299   7.874  0.0842  1.2729  1.2023
 6915SOL     OW33217   0.218   5.475   4.184 -0.3560  0.2507  0.2622
 6915SOL    HW133218   0.221   5.567   4.144  1.6980 -0.9389 -2.4762
 6915SOL    HW233219   0.286   5.468   4.257  2.8324 -0.3899 -2.6407
 6916SOL     OW33220   4.301   2.928   5.678 -0.3560  0.0108 -0.0366
 6916SOL    HW133221   4.312   3.026   5.695 -1.1990 -0.3418  2.7746
 6916SOL    HW233222   4.390   2.888   5.657  0.1551  1.2016 -0.1572
 6917SOL     OW33223   0.389   0.963   2.499 -0.2840  0.2059  0.4608
 6917SOL    HW133224   0.356   1.034   2.437  3.0376  0.5576 -1.0033
 6917SOL    HW233225   0.445   1.004   2.570  3.6086 -1.0208 -1.7286
 6918SOL     OW33226   8.422   7.200   4.655  0.3624 -0.0456 -0.7327
 6918SOL    HW133227   8.478   7.117   4.654  0.7839  0.2435 -1.7100
 6918SOL    HW233228   8.404   7.229   4.561 -0.6602  0.3871 -0.4123
 6919SOL     OW33229   7.700   5.152   5.245 -0.2417 -0.1735 -0.4211
 6919SOL    HW133230   7.663   5.150   5.152  0.5179 -0.5807 -0.7206
 6919SOL    HW233231   7.682   5.064   5.289 -0.9490  0.1560 -0.0373
 6920SOL     OW33232   4.146   3.387   0.879 -0.6444  0.0568  0.5987
 6920SOL    HW133233   4.232   3.349   0.912 -0.0414  0.6225 -0.2975
 6920SOL    HW233234   4.145   3.486   0.893 -1.3371 -0.0071  1.0167
 6921SOL     OW33235   2.599   8.717   0.296  0.2307 -0.2150  0.1473
 6921SOL    HW133236   2.590   8.751   0.389 -0.5119  0.8882 -0.3124
 6921SOL    HW233237   2.563   8.785   0.232  1.4014 -0.6452 -0.9963
 6922SOL     OW33238   5.528   3.140   5.722 -0.8436 -0.0465  0.1138
 6922SOL    HW133239   5.622   3.173   5.712 -0.4322 -1.7470 -1.9695
 6922SOL    HW233240   5.521   3.085   5.805  0.1330 -0.3304  0.0129
 6923SOL     OW33241   1.740   7.550   4.717 -0.1991 -0.0968  0.5585
 6923SOL    HW133242   1.767   7.569   4.812  1.2395 -1.5614  0.4494
 6923SOL    HW233243   1.811   7.497   4.672 -2.1839 -1.9805 -0.4548
 6924SOL     OW33244   2.632   5.583   0.864 -0.1918 -0.5798  0.2115
 6924SOL    HW133245   2.697   5.603   0.791 -1.7257 -0.4082 -1.1387
 6924SOL    HW233246   2.577   5.503   0.838 -1.9566  0.5595  0.3735
 6925SOL     OW33247   8.301   4.697   3.292  0.0106  0.0155  0.3581
 6925SOL    HW133248   8.373   4.667   3.354  2.2924  0.2978 -2.0937
 6925SOL    HW233249   8.316   4.793   3.266  0.2474 -0.6462 -2.1273
 6926SOL     OW33250   4.397   3.812   2.559 -0.0538  0.1453 -0.2395
 6926SOL    HW133251   4.367   3.718   2.544 -2.0144  0.6122  0.6950
 6926SOL    HW233252   4.345   3.853   2.633  0.5169  2.1135 -0.8919
 6927SOL     OW33253   6.288   0.230   8.819 -0.3847  0.4542 -0.2031
 6927SOL    HW133254   6.367   0.169   8.814  0.3545  1.2482  1.4804
 6927SOL    HW233255   6.247   0.239   8.728  1.2379 -0.2522 -1.0180
 6928SOL     OW33256   3.858   8.037   0.648 -0.7748 -0.3868  0.6990
 6928SOL    HW133257   3.802   8.027   0.730 -2.2738 -2.8568 -0.5955
 6928SOL    HW233258   3.847   8.130   0.612 -0.7400  0.4623  2.8186
 6929SOL     OW33259   4.685   2.414   1.066 -0.3565 -0.1587  0.1009
 6929SOL    HW133260   4.665   2.343   1.134  1.8556 -1.2343 -0.3272
 6929SOL    HW233261   4.627   2.401   0.986  1.3542 -2.7235 -0.7802
 6930SOL     OW33262   7.045   4.445   2.561 -0.6372 -0.0948 -0.0691
 6930SOL    HW133263   7.044   4.538   2.598  0.0067  0.5817 -1.6915
 6930SOL    HW233264   7.005   4.446   2.469  0.6354 -1.1821 -0.6442
 6931SOL     OW33265   7.784   4.968   1.691 -0.6609 -0.3271  0.3861
 6931SOL    HW133266   7.747   4.878   1.712  0.6061 -0.9534 -0.0398
 6931SOL    HW233267   7.716   5.038   1.715 -1.4866 -1.3558  1.1071
 6932SOL     OW33268   1.199   3.241   5.447  0.1011  0.2034 -0.0933
 6932SOL    HW133269   1.142   3.305   5.498  1.5712  1.4157  0.0567
 6932SOL    HW233270   1.277   3.290   5.407  0.7671 -1.3321 -0.7096
 6933SOL     OW33271   4.176   1.540   7.620 -0.0643  0.5687  0.0402
 6933SOL    HW133272   4.275   1.541   7.606  0.1682 -1.1098  1.4164
 6933SOL    HW233273   4.133   1.489   7.546  0.3290 -0.6806  0.6589
 6934SOL     OW33274   7.593   6.790   1.457 -0.3127 -0.0213 -0.8318
 6934SOL    HW133275   7.509   6.815   1.409 -0.4682  0.0963 -0.4966
 6934SOL    HW233276   7.605   6.848   1.538  0.5699  0.5852 -1.3804
 6935SOL     OW33277   7.024   1.072   8.350 -0.2502 -0.0970 -0.1591
 6935SOL    HW133278   7.060   1.136   8.418  0.0407  0.7576 -1.1045
 6935SOL    HW233279   7.099   1.020   8.310 -0.2798  0.2480 -0.6747
 6936SOL     OW33280   7.059   2.748   1.004 -0.0827  0.1893  0.8518
 6936SOL    HW133281   7.152   2.715   0.997 -0.1297  0.0666  0.8129
 6936SOL    HW233282   6.995   2.673   0.988 -0.1881  0.6118 -0.8121
 6937SOL     OW33283   3.435   8.849   1.571 -0.0091  0.4606 -0.6157
 6937SOL    HW133284   3.385   8.927   1.610  0.5938 -0.2737  1.7051
 6937SOL    HW233285   3.493   8.808   1.642  1.3259 -0.7724 -2.3885
 6938SOL     OW33286   7.945   7.693   8.275 -0.7475  0.2470  0.5057
 6938SOL    HW133287   7.999   7.772   8.245  0.1534  0.0141  1.5195
 6938SOL    HW233288   7.855   7.724   8.307 -0.9589  0.7024 -0.5170
 6939SOL     OW33289   7.677   7.503   5.971 -0.1487  0.0967  0.4385
 6939SOL    HW133290   7.579   7.493   5.959 -0.6176  1.1714  3.0294
 6939SOL    HW233291   7.710   7.438   6.039  0.3479  1.9286  1.9954
 6940SOL     OW33292   2.273   5.565   4.445 -0.4372  0.9240 -0.2929
 6940SOL    HW133293   2.224   5.524   4.368 -0.8957  1.2952 -0.1990
 6940SOL    HW233294   2.259   5.510   4.527  2.5787 -1.2529 -1.1188
 6941SOL     OW33295   1.409   5.477   6.828 -0.1643 -0.4573  0.0870
 6941SOL    HW133296   1.434   5.396   6.776 -2.7472 -0.8134 -0.7010
 6941SOL    HW233297   1.390   5.452   6.923  0.8873 -0.4484  0.3000
 6942SOL     OW33298   6.146   4.015   2.633  0.2625 -0.2858 -0.3966
 6942SOL    HW133299   6.092   4.011   2.717  1.1990  0.5073  0.2513
 6942SOL    HW233300   6.220   4.081   2.644  0.6972 -0.5495 -1.6693
 6943SOL     OW33301   3.510   8.510   8.633  0.0564  0.1832 -0.4915
 6943SOL    HW133302   3.422   8.487   8.592  0.0174  1.7056 -1.3012
 6943SOL    HW233303   3.544   8.595   8.592  2.1203 -0.6363 -0.5296
 6944SOL     OW33304   8.205   2.774   8.252 -0.0750  0.4219  0.0417
 6944SOL    HW133305   8.221   2.851   8.313  0.3378  1.2340 -1.0648
 6944SOL    HW233306   8.108   2.771   8.228  0.0173  1.0055 -0.4301
 6945SOL     OW33307   0.094   5.298   2.940 -0.0473  0.2784  0.3338
 6945SOL    HW133308   0.115   5.224   3.004  0.7984  1.2692  1.2409
 6945SOL    HW233309   0.176   5.355   2.929 -0.6291  0.9490 -0.5074
 6946SOL     OW33310   7.657   4.194   6.394  0.6704 -0.8361  0.3502
 6946SOL    HW133311   7.707   4.263   6.446  1.1916 -1.1086  0.2276
 6946SOL    HW233312   7.575   4.166   6.444 -0.0093  0.5022 -0.0153
 6947SOL     OW33313   5.897   5.696   1.908  0.3045  0.4367 -0.1535
 6947SOL    HW133314   5.948   5.781   1.896  0.8960  0.0610 -0.2992
 6947SOL    HW233315   5.828   5.688   1.837  1.2343  0.0809 -1.0229
 6948SOL     OW33316   4.471   4.755   8.229  0.1594 -0.1340  0.5141
 6948SOL    HW133317   4.487   4.712   8.140  4.3055  0.5289  0.8326
 6948SOL    HW233318   4.466   4.854   8.218  0.9051 -0.0348  1.0074
 6949SOL     OW33319   7.941   8.082   8.364  0.4036 -0.1551  0.5427
 6949SOL    HW133320   8.039   8.077   8.343 -0.2483  0.4485 -2.9888
 6949SOL    HW233321   7.902   7.990   8.362  0.8276 -0.3633  1.6290
 6950SOL     OW33322   1.503   5.001   7.382 -0.3305  0.0208  0.0495
 6950SOL    HW133323   1.542   5.086   7.347 -0.5796 -0.0454 -0.3967
 6950SOL    HW233324   1.532   4.987   7.476 -0.7642  0.9110  0.3258
 6951SOL     OW33325   4.986   4.516   1.838  0.0148  0.4808  0.1075
 6951SOL    HW133326   4.974   4.531   1.936  1.1161 -0.7459  0.4568
 6951SOL    HW233327   4.944   4.429   1.813 -0.3959  0.8673 -0.5454
 6952SOL     OW33328   3.364   1.117   5.487  0.1856 -0.0289 -0.3085
 6952SOL    HW133329   3.326   1.207   5.466 -0.5919 -0.1617  0.4505
 6952SOL    HW233330   3.291   1.058   5.523  0.9475 -0.5518  0.4150
 6953SOL     OW33331   1.030   3.949   1.777  0.0582 -0.0317 -0.2145
 6953SOL    HW133332   0.997   3.911   1.863  3.2000 -0.5290  0.8381
 6953SOL    HW233333   1.041   3.876   1.710  0.0389 -0.0288 -0.2208
 6954SOL     OW33334   5.497   0.631   1.142 -0.1581 -0.3070  0.5216
 6954SOL    HW133335   5.567   0.622   1.213  0.6028  2.7528  0.2479
 6954SOL    HW233336   5.414   0.584   1.171  0.6173 -0.3218  2.8276
 6955SOL     OW33337   4.254   1.210   1.930  0.1983 -0.3656  0.2487
 6955SOL    HW133338   4.232   1.166   2.017 -2.6303  0.1684 -0.1245
 6955SOL    HW233339   4.323   1.280   1.944  0.1623 -0.6639  1.9786
 6956SOL     OW33340   7.127   8.492   7.236 -0.4357  0.2578  0.2701
 6956SOL    HW133341   7.098   8.397   7.246  1.4335 -0.2558  0.9438
 6956SOL    HW233342   7.090   8.546   7.311  1.6317 -0.7273  2.0512
 6957SOL     OW33343   7.465   4.176   3.010  0.6637  0.0470  0.5936
 6957SOL    HW133344   7.464   4.241   2.933  1.4112  1.0625  1.4258
 6957SOL    HW233345   7.518   4.095   2.984  1.6318  0.7501  0.3119
 6958SOL     OW33346   1.976   2.635   8.254 -0.4857  0.0153  0.0962
 6958SOL    HW133347   2.062   2.659   8.299  0.6267  0.5574 -2.2456
 6958SOL    HW233348   1.991   2.627   8.156 -2.8716 -1.0751 -0.2180
 6959SOL     OW33349   6.443   8.691   8.358 -0.6355  0.1239 -0.6173
 6959SOL    HW133350   6.474   8.670   8.451 -2.4330 -0.8001 -0.1895
 6959SOL    HW233351   6.385   8.615   8.326 -0.9250  0.9528 -2.0517
 6960SOL     OW33352   3.742   7.741   6.801  0.2714 -0.5096  0.1790
 6960SOL    HW133353   3.665   7.743   6.737  1.3148  0.8594 -1.0624
 6960SOL    HW233354   3.737   7.658   6.856 -1.3106 -1.1321 -0.8668
 6961SOL     OW33355   5.670   6.927   2.518  0.3095 -0.1961  0.3273
 6961SOL    HW133356   5.713   6.941   2.608 -0.5521  0.4742  0.6532
 6961SOL    HW233357   5.694   6.837   2.482  0.9376 -0.3318  1.0842
 6962SOL     OW33358   7.319   2.602   6.168 -0.1950  0.0704  0.1927
 6962SOL    HW133359   7.413   2.632   6.176 -0.2109  0.0521  0.4621
 6962SOL    HW233360   7.315   2.519   6.112 -0.0912  0.2574 -0.0918
 6963SOL     OW33361   1.997   6.029   2.168  0.1863  0.4392  0.4775
 6963SOL    HW133362   1.949   6.027   2.256  0.4970 -3.0469  0.6308
 6963SOL    HW233363   2.086   6.071   2.179 -0.5338  1.7533  1.4070
 6964SOL     OW33364   8.173   4.981   5.751 -0.5851 -0.3557  0.0037
 6964SOL    HW133365   8.231   5.004   5.829  0.1299 -2.9559  0.2947
 6964SOL    HW233366   8.224   4.996   5.666  0.2017 -1.6037  0.2255
 6965SOL     OW33367   2.095   4.911   3.347  0.0571  0.0211  0.1144
 6965SOL    HW133368   2.169   4.846   3.360 -0.2714 -0.1896  0.9545
 6965SOL    HW233369   2.126   5.002   3.374  0.5873  0.2647 -1.2707
 6966SOL     OW33370   4.490   7.756   8.755  0.1147 -0.1722  0.3005
 6966SOL    HW133371   4.441   7.700   8.822  2.0121 -0.8895  1.1130
 6966SOL    HW233372   4.503   7.848   8.793  0.0264 -0.1862  0.3669
 6967SOL     OW33373   2.297   4.068   3.362  0.2930  0.3797  0.2620
 6967SOL    HW133374   2.392   4.084   3.336  0.4388 -1.2352 -0.2824
 6967SOL    HW233375   2.275   3.971   3.348 -1.4092  0.7249  0.4502
 6968SOL     OW33376   1.941   3.102   2.832  0.7208  0.6320 -0.6488
 6968SOL    HW133377   1.847   3.069   2.822  1.7016 -2.9154  0.9454
 6968SOL    HW233378   1.940   3.201   2.846 -2.5780  1.0645 -3.1262
 6969SOL     OW33379   5.124   2.912   8.200 -0.0317  0.2272 -0.3386
 6969SOL    HW133380   5.106   2.909   8.298  1.3090 -2.0377 -0.1234
 6969SOL    HW233381   5.041   2.939   8.151 -1.4700 -1.1905  1.2419
 6970SOL     OW33382   7.563   6.235   0.228 -0.4710 -0.2154 -0.1317
 6970SOL    HW133383   7.598   6.271   0.141 -0.8151 -0.1374 -0.2395
 6970SOL    HW233384   7.623   6.264   0.302 -0.4542  0.1488 -0.2828
 6971SOL     OW33385   0.753   7.715   3.143 -0.3738  0.8201  0.0022
 6971SOL    HW133386   0.811   7.737   3.221  0.7244 -0.7214 -0.3579
 6971SOL    HW233387   0.662   7.754   3.157 -0.6292 -0.6552  2.7208
 6972SOL     OW33388   3.075   7.465   1.973  0.0318  0.3073  0.5069
 6972SOL    HW133389   3.153   7.476   1.911  0.2602  2.0763  1.0742
 6972SOL    HW233390   3.065   7.368   1.997  2.2783  0.1124  0.7309
 6973SOL     OW33391   2.521   4.104   8.791 -0.0972  0.0977  0.0668
 6973SOL    HW133392   2.601   4.098   8.732 -1.2050 -0.3102 -1.4287
 6973SOL    HW233393   2.532   4.180   8.855  0.8597  0.9320 -1.0673
 6974SOL     OW33394   8.843   5.589   7.456  0.5046  0.1080 -0.2256
 6974SOL    HW133395   8.906   5.555   7.526 -0.5708  1.4064  1.4010
 6974SOL    HW233396   8.865   5.685   7.435  0.6391 -0.1794 -1.4824
 6975SOL     OW33397   5.722   6.120   4.766 -0.1308 -0.1373  0.1007
 6975SOL    HW133398   5.822   6.109   4.761  0.0655  1.2470  0.6865
 6975SOL    HW233399   5.678   6.030   4.760  1.1319 -0.7302 -0.5581
 6976SOL     OW33400   3.710   8.490   2.137  0.1869 -0.4674 -0.4796
 6976SOL    HW133401   3.619   8.488   2.097 -0.0268 -0.7182  0.0217
 6976SOL    HW233402   3.748   8.397   2.139  1.0532 -0.1732 -2.0517
 6977SOL     OW33403   0.353   7.370   0.701 -0.2460 -0.4539  0.4265
 6977SOL    HW133404   0.434   7.364   0.759 -0.4173 -1.5333  0.5675
 6977SOL    HW233405   0.363   7.308   0.623 -0.7489 -0.2679  0.2095
 6978SOL     OW33406   7.600   8.415   1.043 -0.3459 -0.8631 -0.7166
 6978SOL    HW133407   7.650   8.388   0.960  0.5684  1.1541 -0.8511
 6978SOL    HW233408   7.616   8.512   1.061  0.2601 -1.4974  2.3869
 6979SOL     OW33409   2.720   1.606   7.033 -0.8264  0.5652  0.0602
 6979SOL    HW133410   2.773   1.620   7.118 -0.7187  0.6675 -0.0226
 6979SOL    HW233411   2.754   1.669   6.963  0.4402 -0.9097 -0.6825
 6980SOL     OW33412   8.679   5.743   1.684  0.8976  0.0850 -0.0477
 6980SOL    HW133413   8.676   5.843   1.686  0.9276  0.0686  0.7494
 6980SOL    HW233414   8.733   5.713   1.605  0.5059  0.6860 -0.5507
 6981SOL     OW33415   5.928   8.573   0.960  0.3148  0.4984 -0.1196
 6981SOL    HW133416   5.926   8.663   0.917  1.3537 -0.1045 -1.4567
 6981SOL    HW233417   6.023   8.540   0.961  0.1432  0.0078  1.6091
 6982SOL     OW33418   2.864   2.026   2.596  0.1154 -0.0166  0.2648
 6982SOL    HW133419   2.776   2.031   2.548  0.3324  1.0126 -0.0493
 6982SOL    HW233420   2.853   1.974   2.680 -0.7699 -0.0019  0.1669
 6983SOL     OW33421   5.002   1.948   0.191 -0.3490  0.3119 -0.1433
 6983SOL    HW133422   4.990   1.849   0.192 -0.6342  0.3347  2.2475
 6983SOL    HW233423   4.916   1.992   0.217  0.8225  0.9955  2.8223
 6984SOL     OW33424   2.019   0.956   5.475  0.5083 -0.0392  0.3728
 6984SOL    HW133425   1.969   0.931   5.392  0.3539  0.2220  0.3854
 6984SOL    HW233426   2.025   0.877   5.536 -0.8508  0.2177  0.8611
 6985SOL     OW33427   1.409   0.479   6.323 -0.2840 -0.5180  0.1400
 6985SOL    HW133428   1.428   0.481   6.225 -0.7073 -1.7180  0.0219
 6985SOL    HW233429   1.323   0.431   6.339  0.1168 -0.9140  1.1530
 6986SOL     OW33430   0.025   2.886   6.435 -0.1388  0.7140  0.3234
 6986SOL    HW133431  -0.029   2.812   6.396 -1.2329  2.2523 -1.1659
 6986SOL    HW233432  -0.025   2.928   6.511  0.6811 -0.3365  1.4698
 6987SOL     OW33433   1.509   8.751   2.910 -0.2512 -0.1696 -0.3729
 6987SOL    HW133434   1.585   8.796   2.957 -0.6851  1.3612 -1.1108
 6987SOL    HW233435   1.434   8.736   2.975 -1.0058  2.2999 -0.6201
 6988SOL     OW33436   7.541   2.628   4.116 -0.1706  0.4908 -0.0131
 6988SOL    HW133437   7.503   2.590   4.031 -1.1024 -1.2792  1.1587
 6988SOL    HW233438   7.467   2.669   4.170  0.3617  1.3088  0.0975
 6989SOL     OW33439   8.984   2.002   6.154 -0.0065 -0.6529  0.1719
 6989SOL    HW133440   8.905   2.054   6.185 -0.5547 -1.3773  0.0155
 6989SOL    HW233441   8.961   1.904   6.153 -0.5887 -0.5923 -3.9881
 6990SOL     OW33442   4.339   5.316   1.700 -0.0934 -0.9115 -0.3010
 6990SOL    HW133443   4.356   5.220   1.723  0.0720 -1.2466 -1.7751
 6990SOL    HW233444   4.424   5.368   1.713  0.2953 -1.3084 -1.2076
 6991SOL     OW33445   2.859   6.110   6.497 -0.0729 -0.2161 -0.0038
 6991SOL    HW133446   2.784   6.129   6.560 -1.0334 -1.2889 -0.8127
 6991SOL    HW233447   2.827   6.052   6.423  1.0843  0.8966 -1.4100
 6992SOL     OW33448   2.174   6.790   3.469  0.3208 -0.3659  0.0595
 6992SOL    HW133449   2.076   6.807   3.464  0.4637  0.0702 -1.6699
 6992SOL    HW233450   2.190   6.695   3.497 -0.6374 -1.0385 -1.5749
 6993SOL     OW33451   6.157   8.217   7.916  0.0960 -0.2983  0.4453
 6993SOL    HW133452   6.128   8.138   7.970 -0.4279 -0.0676  0.4965
 6993SOL    HW233453   6.169   8.190   7.820 -1.8766 -0.0228  0.1049
 6994SOL     OW33454   8.455   8.311   3.720 -0.5894 -0.0646  0.3107
 6994SOL    HW133455   8.435   8.361   3.804  0.0015  1.1611 -0.2682
 6994SOL    HW233456   8.539   8.258   3.732 -0.5146  0.0938  0.4914
 6995SOL     OW33457   7.377   7.195   8.540 -0.7827 -0.1530 -0.3907
 6995SOL    HW133458   7.346   7.126   8.605  0.8313 -1.0439 -0.5417
 6995SOL    HW233459   7.411   7.150   8.457  0.7035  0.7904 -0.3089
 6996SOL     OW33460   1.723   8.668   4.628 -0.5944 -0.2820  0.0949
 6996SOL    HW133461   1.798   8.607   4.602 -0.8695 -1.0038  0.9512
 6996SOL    HW233462   1.637   8.631   4.594 -0.6877 -0.0280  0.0540
 6997SOL     OW33463   1.586   6.776   6.834  0.1642 -0.4824 -0.6726
 6997SOL    HW133464   1.646   6.820   6.767  0.6785 -0.5386 -0.2515
 6997SOL    HW233465   1.501   6.749   6.789 -0.2014  1.0139 -0.9127
 6998SOL     OW33466   2.249   2.852   7.350  0.7989  0.0438 -0.0585
 6998SOL    HW133467   2.226   2.799   7.268  1.8649  0.4194 -0.6161
 6998SOL    HW233468   2.288   2.940   7.323  1.8636 -0.1356  0.8499
 6999SOL     OW33469   5.110   8.528   1.217  0.3664  0.3837  0.0005
 6999SOL    HW133470   5.187   8.473   1.186  1.4098  1.0729  1.3605
 6999SOL    HW233471   5.141   8.620   1.238 -0.8034  0.6259  0.6934
 7000SOL     OW33472   3.950   7.295   8.847 -0.2674 -0.1264 -0.0087
 7000SOL    HW133473   3.855   7.274   8.822 -0.7191 -0.0500  1.6254
 7000SOL    HW233474   4.011   7.227   8.806 -1.3840 -2.5323  2.1514
 7001SOL     OW33475   5.225   1.586   7.459  0.4260 -0.4778  0.3630
 7001SOL    HW133476   5.274   1.515   7.510  2.2675  0.8415  0.4929
 7001SOL    HW233477   5.252   1.676   7.493 -1.8195  0.3036  0.1424
 7002SOL     OW33478   0.037   4.709   3.101 -0.1010 -0.1568 -0.5460
 7002SOL    HW133479  -0.036   4.743   3.160  0.7440  2.0123 -0.6696
 7002SOL    HW233480   0.022   4.613   3.080 -2.1024 -0.1257  0.6335
 7003SOL     OW33481   4.437   0.756   6.199 -0.3335  0.1153  0.2976
 7003SOL    HW133482   4.503   0.831   6.204 -1.8363  1.7381 -2.4297
 7003SOL    HW233483   4.461   0.685   6.264  3.6850  0.9594 -0.1636
 7004SOL     OW33484   5.747   8.496   1.149  0.6405 -0.3076  0.0143
 7004SOL    HW133485   5.811   8.511   1.073  0.8470  0.0708  0.2605
 7004SOL    HW233486   5.799   8.483   1.233  0.3744  0.5979  0.3216
 7005SOL     OW33487   1.634   2.209   5.887 -0.0852  0.1855  0.0920
 7005SOL    HW133488   1.630   2.303   5.921 -1.2129 -0.3126  1.3562
 7005SOL    HW233489   1.557   2.193   5.826 -0.4241 -0.2080  0.6229
 7006SOL     OW33490   6.988   6.547   1.604  0.7792 -0.0652 -0.0114
 7006SOL    HW133491   7.049   6.504   1.537  0.7481  0.5223 -0.4272
 7006SOL    HW233492   6.905   6.579   1.558  0.8085  0.4446  0.2845
 7007SOL     OW33493   8.178   4.298   0.220 -0.0194 -0.6362  0.2189
 7007SOL    HW133494   8.084   4.292   0.254  0.0562 -1.5922  0.2884
 7007SOL    HW233495   8.232   4.223   0.258  0.6906 -0.2814 -0.0774
 7008SOL     OW33496   3.101   5.620   8.598  0.4401  0.8152 -0.4857
 7008SOL    HW133497   3.020   5.637   8.654  0.3511  0.0082 -0.3585
 7008SOL    HW233498   3.079   5.636   8.502  0.1376  0.6578 -0.4433
 7009SOL     OW33499   0.328   2.283   0.581  0.2757  0.3244 -0.2173
 7009SOL    HW133500   0.237   2.281   0.624  1.1094 -1.8920  1.5481
 7009SOL    HW233501   0.321   2.247   0.488 -0.5922 -0.2941  0.0701
 7010SOL     OW33502   5.051   3.819   2.462 -0.0957  0.7897  0.2390
 7010SOL    HW133503   5.066   3.722   2.444 -0.5559  1.0282 -1.6368
 7010SOL    HW233504   4.987   3.831   2.538 -0.8282 -0.3910 -0.1901
 7011SOL     OW33505   2.284   6.674   7.200  0.1061 -0.4143  0.0605
 7011SOL    HW133506   2.188   6.645   7.195  0.5008 -1.3413 -2.8382
 7011SOL    HW233507   2.333   6.615   7.264 -0.9477 -0.8131  0.5181
 7012SOL     OW33508   6.849   4.599   6.470  0.6701  0.1693  0.5421
 7012SOL    HW133509   6.854   4.499   6.475 -2.6793 -0.0929 -0.3923
 7012SOL    HW233510   6.889   4.631   6.384  0.4248 -0.4890  0.1842
 7013SOL     OW33511   8.697   8.686   6.965  0.7442  0.5108 -0.2783
 7013SOL    HW133512   8.722   8.653   7.056  1.4449  1.1744 -0.2256
 7013SOL    HW233513   8.716   8.615   6.897  0.3362  0.0611  0.0737
 7014SOL     OW33514   0.537   8.025   0.094  0.1157 -0.3069  0.0572
 7014SOL    HW133515   0.493   8.054   0.178 -0.8538  0.6158 -0.7607
 7014SOL    HW233516   0.593   8.100   0.058 -1.0711  0.0197 -1.1699
 7015SOL     OW33517   5.778   0.694   3.429  0.4887 -0.0090  0.1683
 7015SOL    HW133518   5.877   0.702   3.424  0.4359  1.4923  1.0159
 7015SOL    HW233519   5.743   0.761   3.495 -1.1772  0.2173 -0.9114
 7016SOL     OW33520   3.948   4.700   1.132 -0.2397  0.8044 -0.2472
 7016SOL    HW133521   3.898   4.613   1.137  1.0645  0.0114 -0.4485
 7016SOL    HW233522   3.980   4.725   1.223  1.1586 -0.0291 -0.4861
 7017SOL     OW33523   5.119   1.335   7.841  0.5081  0.5196  0.4049
 7017SOL    HW133524   5.106   1.434   7.833 -0.4792  0.6370  3.0614
 7017SOL    HW233525   5.107   1.292   7.751 -1.6369  2.5210 -0.2957
 7018SOL     OW33526   2.968   2.223   3.204  0.1403 -0.4395  0.2334
 7018SOL    HW133527   2.919   2.299   3.247  0.7799 -0.4495  0.9804
 7018SOL    HW233528   2.920   2.137   3.223  0.6267 -0.4923  1.2568
 7019SOL     OW33529   1.426   2.384   6.474  0.3788  0.6145  0.0488
 7019SOL    HW133530   1.473   2.405   6.389 -0.0765  0.7309 -0.1784
 7019SOL    HW233531   1.462   2.299   6.513 -0.4035 -0.2020 -1.0066
 7020SOL     OW33532   6.075   6.760   1.592  0.1151  0.1240  0.0979
 7020SOL    HW133533   6.081   6.824   1.516 -0.3590 -1.0107 -0.9120
 7020SOL    HW233534   6.079   6.666   1.557 -0.8901 -0.4169  1.4073
 7021SOL     OW33535   7.494   5.695   6.268  0.3514 -0.0024  0.3052
 7021SOL    HW133536   7.594   5.697   6.276  0.2345  1.7012  1.7647
 7021SOL    HW233537   7.468   5.723   6.176  1.2179 -0.2776 -0.0321
 7022SOL     OW33538   0.734   5.557   5.438 -0.5979  0.0016  0.1808
 7022SOL    HW133539   0.682   5.640   5.421  1.0656  1.1138  0.4237
 7022SOL    HW233540   0.765   5.556   5.533 -1.5952 -1.4737  0.5053
 7023SOL     OW33541   4.914   0.179   6.783 -0.1495 -0.4441 -0.0068
 7023SOL    HW133542   4.930   0.082   6.767 -3.0982 -0.6595 -2.2778
 7023SOL    HW233543   4.968   0.233   6.718 -0.5085 -0.7069 -0.5308
 7024SOL     OW33544   2.085   7.634   5.311  0.5845 -0.2878  0.1390
 7024SOL    HW133545   2.115   7.686   5.391  1.2602 -0.5976  0.0878
 7024SOL    HW233546   2.163   7.588   5.270  0.5694  1.3817 -1.8347
 7025SOL     OW33547   6.976   6.316   1.170 -0.4751  0.2472 -0.4226
 7025SOL    HW133548   6.914   6.390   1.144  0.0522  0.9436  0.2918
 7025SOL    HW233549   7.018   6.278   1.087 -0.8030  0.7021 -0.8044
 7026SOL     OW33550   4.916   7.192   2.443  0.2426  0.3441  0.0412
 7026SOL    HW133551   4.963   7.105   2.462 -1.3951 -0.2588  1.5261
 7026SOL    HW233552   4.870   7.186   2.355  1.6863  0.3981 -0.7319
 7027SOL     OW33553   7.426   5.985   5.148  0.0951 -0.2220  0.3925
 7027SOL    HW133554   7.371   5.928   5.087 -0.3205  1.0653 -0.4623
 7027SOL    HW233555   7.468   6.059   5.095  0.6517  0.2452  1.4755
 7028SOL     OW33556   5.480   0.133   0.085  0.2710  0.4705 -0.1090
 7028SOL    HW133557   5.560   0.102   0.033 -0.0238 -1.1663  0.3617
 7028SOL    HW233558   5.474   0.232   0.081  3.3150  0.7853  1.2649
 7029SOL     OW33559   8.379   6.696   5.046 -0.6626  0.2582  0.2632
 7029SOL    HW133560   8.399   6.722   4.951 -0.3605 -1.6340 -0.2091
 7029SOL    HW233561   8.462   6.660   5.088 -0.9174  0.6582  1.1112
 7030SOL     OW33562   7.839   8.769   0.444 -0.6093 -0.1948 -0.3252
 7030SOL    HW133563   7.923   8.781   0.498 -1.3053 -1.6390  1.1222
 7030SOL    HW233564   7.760   8.773   0.504 -1.6204  1.3504 -1.7161
 7031SOL     OW33565   1.412   4.557   3.029  0.1563 -0.5778 -0.0241
 7031SOL    HW133566   1.332   4.609   3.000  1.2715  0.7961 -0.6992
 7031SOL    HW233567   1.466   4.532   2.949  1.4424  0.2390  0.5779
 7032SOL     OW33568   5.701   5.529   0.079 -0.1250 -0.2284  0.0232
 7032SOL    HW133569   5.684   5.574  -0.009 -0.6193 -0.2831  0.0884
 7032SOL    HW233570   5.614   5.520   0.129  0.1994  0.0835  0.6504
 7033SOL     OW33571   3.269   2.201   6.863  0.0552 -0.2717  1.0543
 7033SOL    HW133572   3.232   2.124   6.915  1.7069 -1.7356  0.1244
 7033SOL    HW233573   3.209   2.280   6.873 -1.8294 -1.7570  1.7797
 7034SOL     OW33574   5.822   3.765   6.839  0.3498 -0.5401 -0.2366
 7034SOL    HW133575   5.812   3.681   6.892 -0.9405 -0.8438 -0.9518
 7034SOL    HW233576   5.785   3.752   6.747 -1.8648  1.4516  0.3078
 7035SOL     OW33577   0.760   0.639   8.272  0.7196  0.3839 -0.3241
 7035SOL    HW133578   0.776   0.666   8.177  1.7460 -0.8490 -0.5132
 7035SOL    HW233579   0.666   0.662   8.297  1.1046  2.7508 -0.9264
 7036SOL     OW33580   7.552   8.052   5.911 -0.1783  1.4375  0.0815
 7036SOL    HW133581   7.611   7.983   5.869  0.3266  0.8335  1.7296
 7036SOL    HW233582   7.462   8.049   5.869 -0.4666 -0.9282  0.8039
 7037SOL     OW33583   8.952   4.428   6.115 -0.2063 -0.4238  0.1705
 7037SOL    HW133584   9.046   4.449   6.090 -0.0888 -2.4246 -1.2110
 7037SOL    HW233585   8.891   4.452   6.040 -0.4060 -2.1496 -0.2371
 7038SOL     OW33586   2.208   1.545   3.254 -0.3870  0.2832  0.8411
 7038SOL    HW133587   2.218   1.528   3.156  0.6078 -0.4339  1.0586
 7038SOL    HW233588   2.279   1.495   3.304 -0.4237  1.2234  1.8670
 7039SOL     OW33589   0.759   5.074   6.712  0.3524 -0.9030 -0.6566
 7039SOL    HW133590   0.699   5.152   6.728  1.7727 -0.0696  0.7519
 7039SOL    HW233591   0.737   5.002   6.779  0.5676 -0.8068 -0.4823
 7040SOL     OW33592   7.376   6.838   8.467  0.3170  0.2288  0.4321
 7040SOL    HW133593   7.393   6.867   8.561  1.0947 -1.9815  0.9995
 7040SOL    HW233594   7.404   6.911   8.404  3.2044  0.2992  1.7344
 7041SOL     OW33595   6.665   0.884   8.727 -0.7246 -0.3863  0.0064
 7041SOL    HW133596   6.717   0.944   8.788 -0.2724  0.3208 -1.0646
 7041SOL    HW233597   6.713   0.798   8.714 -0.1074  0.0371 -0.5146
 7042SOL     OW33598   3.256   8.672   6.030  0.0774 -0.6671 -0.0917
 7042SOL    HW133599   3.314   8.605   5.983  0.9752 -0.1562  0.2934
 7042SOL    HW233600   3.253   8.651   6.127 -2.2963 -2.1094 -0.4352
 7043SOL     OW33601   1.937   5.477   8.672  0.2024 -0.5932 -0.6766
 7043SOL    HW133602   1.840   5.468   8.695 -0.2139  2.6309 -0.9173
 7043SOL    HW233603   1.986   5.395   8.703 -1.7683 -0.2823  3.7186
 7044SOL     OW33604   5.936   2.446   8.599 -0.1163 -0.4051  0.5120
 7044SOL    HW133605   6.029   2.424   8.629 -0.4410 -1.7083  0.6004
 7044SOL    HW233606   5.871   2.390   8.651 -0.8390 -0.8153 -0.8223
 7045SOL     OW33607   0.092   2.648   6.734 -0.2990 -0.2172  0.6530
 7045SOL    HW133608   0.079   2.740   6.773  0.7623 -0.1614  0.8882
 7045SOL    HW233609   0.139   2.590   6.800 -2.7645 -1.5358  1.2703
 7046SOL     OW33610   2.767   8.469   8.486 -0.2046 -0.6430 -0.3312
 7046SOL    HW133611   2.861   8.441   8.502 -0.6690 -4.4689 -3.6369
 7046SOL    HW233612   2.706   8.417   8.546 -0.3699  0.9632  0.9434
 7047SOL     OW33613   6.521   7.288   6.034  0.3548 -0.4644 -0.3584
 7047SOL    HW133614   6.510   7.314   5.938 -1.4060 -0.7332 -0.2480
 7047SOL    HW233615   6.551   7.193   6.039 -1.0380 -0.9450 -0.6487
 7048SOL     OW33616   5.275   1.342   2.826  0.6833 -0.3413 -0.4395
 7048SOL    HW133617   5.360   1.320   2.778  1.2530 -0.2772  0.5357
 7048SOL    HW233618   5.280   1.309   2.920 -0.4181 -0.4389 -0.4099
 7049SOL     OW33619   5.506   4.506   1.846 -0.0536  0.3506 -0.2391
 7049SOL    HW133620   5.447   4.524   1.767 -0.8166 -1.6673 -0.1568
 7049SOL    HW233621   5.577   4.441   1.820 -1.2486 -1.5483  1.1252
 7050SOL     OW33622   3.983   0.005   0.595 -0.3308  0.1771  0.1605
 7050SOL    HW133623   4.065   0.041   0.552  0.1140  1.6914  2.1759
 7050SOL    HW233624   3.989  -0.095   0.599  2.2507  0.3288  1.7744
 7051SOL     OW33625   6.074   3.227   5.736 -0.4543 -0.3733 -0.8987
 7051SOL    HW133626   6.129   3.143   5.730 -1.1723 -0.9462  0.3601
 7051SOL    HW233627   6.070   3.257   5.831 -1.2162  0.4182 -1.1814
 7052SOL     OW33628   7.896   0.974   1.634  0.7758  0.2745  0.6173
 7052SOL    HW133629   7.870   0.989   1.730 -1.3132  1.6603 -0.1329
 7052SOL    HW233630   7.814   0.967   1.578  1.9878 -0.4389 -1.1123
 7053SOL     OW33631   0.370   7.632   2.836  0.2244 -0.1653  0.0298
 7053SOL    HW133632   0.334   7.710   2.784  0.8233  0.6115  0.7680
 7053SOL    HW233633   0.466   7.649   2.857 -0.0943 -0.3534  1.6359
 7054SOL     OW33634   6.465   5.414   6.643 -0.5954  0.2308 -0.6278
 7054SOL    HW133635   6.407   5.465   6.707  1.7795  2.2012  0.0357
 7054SOL    HW233636   6.492   5.475   6.568  0.1756 -0.8106 -1.1994
 7055SOL     OW33637   7.993   5.963   6.539 -0.1015  0.4292 -0.1009
 7055SOL    HW133638   7.907   5.928   6.576  0.6173 -1.0066  0.2871
 7055SOL    HW233639   7.987   5.970   6.439 -0.3447 -0.6373 -0.1669
 7056SOL     OW33640   5.704   8.249   1.448  0.3224 -0.0482 -0.5735
 7056SOL    HW133641   5.633   8.319   1.444 -0.3897 -0.7292 -0.1230
 7056SOL    HW233642   5.696   8.198   1.534  1.3075 -0.1793 -0.5588
 7057SOL     OW33643   4.650   3.522   2.743  0.4293  0.2653 -0.0496
 7057SOL    HW133644   4.615   3.430   2.760  1.4321 -0.0326  0.3992
 7057SOL    HW233645   4.673   3.532   2.646 -0.4682  0.3201 -0.2623
 7058SOL     OW33646   4.376   6.429   1.027  0.5736 -0.3321  0.1761
 7058SOL    HW133647   4.295   6.388   0.984  0.3588  1.3822 -1.1274
 7058SOL    HW233648   4.444   6.358   1.043 -0.2510 -1.4076 -0.9291
 7059SOL     OW33649   3.818   0.943   3.652  0.4285 -0.2735 -0.5253
 7059SOL    HW133650   3.727   0.905   3.632  0.0330 -0.3106  1.2604
 7059SOL    HW233651   3.828   1.031   3.604 -2.1007  1.6478  2.2926
 7060SOL     OW33652   7.880   3.904   2.724  0.4277 -0.2706  0.6917
 7060SOL    HW133653   7.838   3.863   2.805 -1.3714 -1.3254 -0.7298
 7060SOL    HW233654   7.821   3.888   2.645  1.9254  1.1606 -0.7394
 7061SOL     OW33655   2.972   2.610   0.542 -0.2646  0.1943  0.1001
 7061SOL    HW133656   2.987   2.573   0.634 -2.2767 -1.1030 -0.0658
 7061SOL    HW233657   2.887   2.662   0.540 -0.4403 -0.1256 -1.1219
 7062SOL     OW33658   0.986   6.106   1.937 -0.2294  0.0246 -0.2270
 7062SOL    HW133659   1.070   6.068   1.976  0.4106  1.1258 -0.5345
 7062SOL    HW233660   0.910   6.045   1.959  0.5835 -0.8085  0.3461
 7063SOL     OW33661   5.011   5.833   4.017  0.3563  0.2177  0.2303
 7063SOL    HW133662   4.919   5.817   3.982  0.2221 -1.0770  1.1575
 7063SOL    HW233663   5.053   5.909   3.966 -1.3541  1.0863  0.0912
 7064SOL     OW33664   8.756   3.585   7.380  0.9260  0.2480  0.2483
 7064SOL    HW133665   8.679   3.524   7.399  0.5000  0.9627  0.8100
 7064SOL    HW233666   8.722   3.676   7.357  1.4664 -0.2850 -2.8315
 7065SOL     OW33667   4.679   0.936   5.975 -0.7557  0.6840  0.0348
 7065SOL    HW133668   4.737   0.936   6.056 -1.6087 -0.6987  0.6394
 7065SOL    HW233669   4.731   0.901   5.897 -1.1316 -1.7777  0.8508
 7066SOL     OW33670   8.919   8.381   6.639 -0.0004 -0.4966  0.1690
 7066SOL    HW133671   8.893   8.376   6.735  1.9484 -2.2152  0.6183
 7066SOL    HW233672   8.876   8.306   6.588 -0.0948 -0.2738 -0.0847
 7067SOL     OW33673   4.789   8.528   6.558  0.1803 -0.5598 -0.4671
 7067SOL    HW133674   4.734   8.600   6.516 -0.3414 -0.6334  0.0846
 7067SOL    HW233675   4.823   8.559   6.646  0.7796 -0.6254 -0.6702
 7068SOL     OW33676   0.967   7.111   3.634  0.1826  0.1989 -0.6718
 7068SOL    HW133677   0.992   7.208   3.625  0.8027  0.0093 -0.9728
 7068SOL    HW233678   0.871   7.105   3.662  0.2666  0.9100 -0.1928
 7069SOL     OW33679   0.025   2.157   5.905  0.5181 -0.0560  0.1238
 7069SOL    HW133680  -0.063   2.203   5.894  1.2963  1.5945  0.6669
 7069SOL    HW233681   0.032   2.119   5.997  1.2204  1.6680  0.7992
 7070SOL     OW33682   0.886   7.938   5.012 -0.1976  0.2272  0.5466
 7070SOL    HW133683   0.813   7.901   5.069  0.7024 -1.4339  0.6633
 7070SOL    HW233684   0.895   7.882   4.929  0.7589  0.5719  0.4106
 7071SOL     OW33685   0.169   8.035   7.692 -0.0742  0.3258  0.0202
 7071SOL    HW133686   0.146   7.938   7.683 -1.8857  0.6215  1.2195
 7071SOL    HW233687   0.094   8.083   7.736  1.1480  2.1408  0.1772
 7072SOL     OW33688   1.873   0.276   1.513  0.2911  0.3141 -0.6127
 7072SOL    HW133689   1.818   0.266   1.595 -0.3590 -0.1353 -1.0974
 7072SOL    HW233690   1.967   0.248   1.532 -0.4325 -2.4111 -0.6907
 7073SOL     OW33691   1.977   5.279   8.861  0.5056 -0.5734 -0.2385
 7073SOL    HW133692   2.045   5.205   8.868  0.1605 -0.9781 -1.0863
 7073SOL    HW233693   1.912   5.271   8.937  0.6069 -1.0037 -0.1925
 7074SOL     OW33694   3.349   2.235   2.310 -0.0837 -0.5865  0.7246
 7074SOL    HW133695   3.449   2.225   2.310 -0.1034 -0.9769 -1.3541
 7074SOL    HW233696   3.324   2.312   2.368  1.4532 -0.2552  0.9778
 7075SOL     OW33697   3.679   8.769   3.098 -0.1598  0.3604  0.5207
 7075SOL    HW133698   3.639   8.773   3.190  0.4949  0.0425  0.8276
 7075SOL    HW233699   3.759   8.829   3.095 -1.2602  1.8064 -0.3954
 7076SOL     OW33700   8.343   0.957   5.495  0.1531  0.5318 -0.7303
 7076SOL    HW133701   8.442   0.941   5.496  0.3029  1.4556  0.4248
 7076SOL    HW233702   8.322   1.034   5.434  0.2156  0.7763 -0.4423
 7077SOL     OW33703   3.223   5.864   3.850  0.0310  0.0323  0.3828
 7077SOL    HW133704   3.142   5.914   3.880 -0.8271 -0.8400 -0.4857
 7077SOL    HW233705   3.215   5.843   3.753  2.2028  1.7017 -0.2082
 7078SOL     OW33706   6.601   7.816   8.636 -0.2041  0.0578  0.0305
 7078SOL    HW133707   6.642   7.842   8.724  1.1261  0.1238 -0.5925
 7078SOL    HW233708   6.579   7.718   8.637  2.2741 -0.5608 -0.4670
 7079SOL     OW33709   6.958   2.947   5.781  0.4443  0.3062  0.6281
 7079SOL    HW133710   6.968   2.894   5.697 -1.5089 -1.5590  1.5326
 7079SOL    HW233711   6.877   3.006   5.773 -0.2142 -0.4782  1.5027
 7080SOL     OW33712   3.367   1.631   2.840  0.3119  0.6063  0.3856
 7080SOL    HW133713   3.436   1.576   2.794 -2.2363 -0.2229 -2.6343
 7080SOL    HW233714   3.355   1.717   2.791 -1.4649  0.3205  0.2865
 7081SOL     OW33715   2.844   8.778   7.267  0.3100  0.0644  0.5722
 7081SOL    HW133716   2.915   8.847   7.251  0.1581  0.3994  1.3084
 7081SOL    HW233717   2.835   8.761   7.365  0.6549 -1.3363  0.3767
 7082SOL     OW33718   7.918   4.917   7.830  0.4253 -0.2270  0.6186
 7082SOL    HW133719   7.849   4.915   7.903  1.1213 -0.4656  1.2745
 7082SOL    HW233720   7.986   4.846   7.847 -1.0065 -2.2845 -1.8524
 7083SOL     OW33721   5.681   5.083   8.435  0.3211  0.0702 -0.7085
 7083SOL    HW133722   5.708   5.178   8.419 -0.0930  0.0674 -1.3968
 7083SOL    HW233723   5.587   5.080   8.468 -0.2581 -0.2186 -2.3516
 7084SOL     OW33724   6.831   0.354   1.690 -0.3107  0.4244 -0.4117
 7084SOL    HW133725   6.899   0.323   1.757  2.2929  1.3674 -2.5793
 7084SOL    HW233726   6.768   0.418   1.734  1.6010  1.3303  1.0425
 7085SOL     OW33727   6.195   8.259   6.953  0.2144 -0.1060  0.1162
 7085SOL    HW133728   6.218   8.274   6.856 -1.2774  1.6070 -0.0145
 7085SOL    HW233729   6.270   8.292   7.010 -0.2349  1.9174 -0.4012
 7086SOL     OW33730   6.227   0.657   2.796  0.4839 -0.2000 -0.0233
 7086SOL    HW133731   6.148   0.700   2.839  0.4659 -1.9883  1.7984
 7086SOL    HW233732   6.259   0.714   2.720 -1.8818  1.0551 -0.1140
 7087SOL     OW33733   0.610   3.673   0.384  0.6522 -0.0965  0.7315
 7087SOL    HW133734   0.594   3.762   0.425 -1.4320 -0.2686  0.3458
 7087SOL    HW233735   0.665   3.617   0.446  0.9715  1.0517  1.4867
 7088SOL     OW33736   8.701   6.564   6.967  0.2021  0.1283 -0.2746
 7088SOL    HW133737   8.790   6.585   7.007  0.3898  1.8771 -1.5717
 7088SOL    HW233738   8.629   6.609   7.020  0.2386  0.2633 -0.3399
 7089SOL     OW33739   7.887   0.258   8.509 -0.0719  0.4607 -0.3082
 7089SOL    HW133740   7.925   0.315   8.582  0.6680  1.0174 -1.1165
 7089SOL    HW233741   7.860   0.316   8.433 -0.2131 -0.1872 -0.7502
 7090SOL     OW33742   2.331   6.669   6.068 -0.7008  0.7513 -0.1467
 7090SOL    HW133743   2.363   6.764   6.078  1.1328  0.1812 -0.4524
 7090SOL    HW233744   2.244   6.658   6.116  0.1017  2.0787  1.6637
 7091SOL     OW33745   4.978   5.928   4.529 -0.1168 -0.5033 -0.0564
 7091SOL    HW133746   5.019   5.985   4.457 -2.4004  0.7385 -0.4422
 7091SOL    HW233747   4.900   5.977   4.568  0.0628 -1.9072  2.1000
 7092SOL     OW33748   2.931   7.015   1.513 -0.1838 -0.6844 -0.3839
 7092SOL    HW133749   2.909   6.946   1.445  0.7213 -2.9896  1.6076
 7092SOL    HW233750   2.894   6.989   1.602  2.4956 -0.0171  1.0035
 7093SOL     OW33751   3.111   6.854   1.655  0.0791  0.0030  0.6443
 7093SOL    HW133752   3.110   6.777   1.591  1.6136 -0.1922  0.8455
 7093SOL    HW233753   3.041   6.920   1.628 -0.8402 -1.1663  0.1149
 7094SOL     OW33754   7.442   4.312   3.686  0.1299 -0.5054  0.6646
 7094SOL    HW133755   7.383   4.371   3.742  0.3011 -1.0461  1.4176
 7094SOL    HW233756   7.496   4.253   3.745  1.7966  0.3215 -0.0130
 7095SOL     OW33757   8.502   4.399   6.627 -1.4664 -0.3961 -0.3099
 7095SOL    HW133758   8.525   4.312   6.582 -3.6007 -1.4270  0.5089
 7095SOL    HW233759   8.584   4.455   6.634 -0.0217 -2.3711 -0.8132
 7096SOL     OW33760   6.222   1.115   2.216 -0.3510  0.6378 -0.2799
 7096SOL    HW133761   6.151   1.055   2.179 -2.3879  2.2334  0.9413
 7096SOL    HW233762   6.212   1.207   2.178  0.5512  1.0927  0.5478
 7097SOL     OW33763   7.069   1.032   8.840  0.3214  0.1502 -0.1832
 7097SOL    HW133764   7.120   1.109   8.804  1.1727 -1.3777 -2.3525
 7097SOL    HW233765   7.046   0.969   8.766 -2.9505 -0.2360  1.0760
 7098SOL     OW33766   7.332   5.269   5.207 -0.8747 -0.8471 -0.2142
 7098SOL    HW133767   7.410   5.248   5.266  0.7578  0.9150 -1.6824
 7098SOL    HW233768   7.272   5.333   5.253  1.5659  2.3079 -1.2501
 7099SOL     OW33769   4.663   4.065   5.431 -0.5660  0.4502  0.9178
 7099SOL    HW133770   4.625   4.143   5.381 -1.4696  0.1998  1.2049
 7099SOL    HW233771   4.710   4.098   5.513 -1.8574  0.6261  1.6034
 7100SOL     OW33772   3.987   3.637   6.035  0.3334 -0.1174  0.5441
 7100SOL    HW133773   3.965   3.551   5.990 -0.1067 -0.2254  0.9585
 7100SOL    HW233774   4.033   3.698   5.971 -0.1784 -0.3177 -0.0160
 7101SOL     OW33775   2.847   6.671   6.412  0.2778  0.5232 -0.3142
 7101SOL    HW133776   2.772   6.689   6.476 -0.8933 -3.1002 -0.5349
 7101SOL    HW233777   2.934   6.698   6.453 -0.6386 -0.1903  2.1718
 7102SOL     OW33778   3.529   2.199   5.512 -0.3085 -0.2909 -0.1158
 7102SOL    HW133779   3.457   2.161   5.454 -1.1317  0.1334  0.6264
 7102SOL    HW233780   3.598   2.128   5.531 -0.8099 -0.8466 -0.3717
 7103SOL     OW33781   8.158   3.392   5.231 -0.3325  0.0570  0.4446
 7103SOL    HW133782   8.104   3.476   5.224  0.2938  0.4900  0.7938
 7103SOL    HW233783   8.229   3.404   5.299 -0.5784 -0.9533  0.8832
 7104SOL     OW33784   1.927   8.469   3.801 -0.8347  0.1464 -0.0791
 7104SOL    HW133785   1.846   8.411   3.798  0.5017 -1.8677  1.7262
 7104SOL    HW233786   1.923   8.529   3.881 -0.6210  0.1923 -0.1019
 7105SOL     OW33787   0.833   6.357   5.286 -0.1544  0.0901 -0.0719
 7105SOL    HW133788   0.885   6.415   5.349  0.5824 -1.0826  0.4128
 7105SOL    HW233789   0.748   6.327   5.330  1.6678 -3.0538  1.5006
 7106SOL     OW33790   1.863   4.983   4.140 -0.1514  0.1206 -0.0584
 7106SOL    HW133791   1.939   4.924   4.112 -1.5268 -0.8368 -1.8314
 7106SOL    HW233792   1.875   5.009   4.236  2.4002 -0.0317 -0.3066
 7107SOL     OW33793   2.543   6.594   2.344  0.2639  0.1476 -0.0212
 7107SOL    HW133794   2.512   6.689   2.344  1.0209  0.3983 -0.4327
 7107SOL    HW233795   2.640   6.591   2.366 -0.1543 -0.6670  1.7576
 7108SOL     OW33796   7.759   0.733   1.387 -0.0900 -0.6551  0.2096
 7108SOL    HW133797   7.772   0.667   1.460 -0.0635 -1.0111 -0.1152
 7108SOL    HW233798   7.839   0.733   1.327  0.4574  0.5813  0.9324
 7109SOL     OW33799   0.425   7.494   0.049  0.2054 -0.7125 -0.4641
 7109SOL    HW133800   0.480   7.560  -0.001  1.4032 -0.4663  1.1417
 7109SOL    HW233801   0.372   7.541   0.120 -0.7183 -1.1879 -0.8163
 7110SOL     OW33802   5.831   5.284   5.289 -0.1504  0.4686 -0.2374
 7110SOL    HW133803   5.816   5.335   5.204 -1.1828 -0.3160 -0.5378
 7110SOL    HW233804   5.917   5.233   5.282  0.3491  1.3039 -0.3499
 7111SOL     OW33805   6.516   6.764   6.602 -0.6604  0.0187  0.7227
 7111SOL    HW133806   6.564   6.695   6.549 -1.7631 -0.3079  0.1194
 7111SOL    HW233807   6.421   6.736   6.615 -0.9789  1.1524  0.9449
 7112SOL     OW33808   2.520   7.530   0.419  0.3529  0.1778  0.3669
 7112SOL    HW133809   2.524   7.517   0.320  0.9477  1.7022  0.1783
 7112SOL    HW233810   2.577   7.607   0.445  2.7012 -2.1250  2.2942
 7113SOL     OW33811   3.281   6.468   1.866  0.2159  0.0246 -0.1497
 7113SOL    HW133812   3.201   6.429   1.910  0.5351 -0.4583  0.0154
 7113SOL    HW233813   3.361   6.457   1.926  0.7381 -1.0207 -1.0185
 7114SOL     OW33814   7.380   4.015   3.970 -0.4295 -0.3939  0.2386
 7114SOL    HW133815   7.467   4.044   3.929  1.1679 -2.0963  2.2757
 7114SOL    HW233816   7.338   4.092   4.018  0.5044  0.2000  0.1065
 7115SOL     OW33817   0.767   4.583   4.990  0.3589  0.9750  0.0104
 7115SOL    HW133818   0.667   4.583   4.994  0.3617 -1.8340  1.1377
 7115SOL    HW233819   0.800   4.489   4.995  3.0458  1.8037 -1.3250
 7116SOL     OW33820   0.758   0.389   7.332  0.0090  0.0026 -0.0526
 7116SOL    HW133821   0.741   0.480   7.293 -0.3312  0.9319  2.1909
 7116SOL    HW233822   0.842   0.352   7.294 -0.1072  1.0415 -1.3627
 7117SOL     OW33823   1.188   6.693   2.951  0.0954 -0.2483 -0.6233
 7117SOL    HW133824   1.238   6.633   3.014 -0.4838  0.3588  0.4266
 7117SOL    HW233825   1.091   6.692   2.973 -0.0006  0.6314 -0.9671
 7118SOL     OW33826   3.252   4.433   3.144 -0.7118 -0.0057 -0.1054
 7118SOL    HW133827   3.234   4.528   3.119 -2.8182 -0.9507 -2.4024
 7118SOL    HW233828   3.309   4.390   3.074 -0.8272 -0.7745  0.2636
 7119SOL     OW33829   0.186   3.401   5.707 -0.3722  0.0378 -0.0206
 7119SOL    HW133830   0.282   3.374   5.700 -0.1974  0.8441 -0.7722
 7119SOL    HW233831   0.168   3.434   5.800  0.2692  0.6223 -0.0955
 7120SOL     OW33832   1.014   4.092   7.129 -0.1361  0.7488 -0.2398
 7120SOL    HW133833   1.000   4.057   7.221  1.4106  2.1665  0.5646
 7120SOL    HW233834   1.069   4.175   7.133  2.4936 -0.7684 -2.6352
 7121SOL     OW33835   4.917   8.922   1.712  0.3367  0.0415  0.7377
 7121SOL    HW133836   4.945   8.909   1.807  1.9030  0.8684  0.4081
 7121SOL    HW233837   4.895   8.833   1.671  0.2020 -0.3724  1.6869
 7122SOL     OW33838   1.594   8.850   2.679  0.5032  0.5477  0.3779
 7122SOL    HW133839   1.568   8.793   2.756 -0.7109  1.7665  0.9049
 7122SOL    HW233840   1.601   8.945   2.709 -0.7578  1.1498 -1.1662
 7123SOL     OW33841   0.758   3.194   5.845 -0.3344 -0.2671  0.6934
 7123SOL    HW133842   0.827   3.200   5.917 -0.3360 -0.2152  0.6903
 7123SOL    HW233843   0.670   3.167   5.886  0.1782 -2.4844  0.4082
 7124SOL     OW33844   2.390   6.699   1.549 -0.6325  0.3739 -0.0348
 7124SOL    HW133845   2.372   6.690   1.451 -0.1136  0.5680 -0.1497
 7124SOL    HW233846   2.372   6.793   1.578 -4.2827 -0.4895  0.7963
 7125SOL     OW33847   7.677   8.494   3.795 -0.4145  0.2413  0.5096
 7125SOL    HW133848   7.775   8.494   3.772 -0.6312 -0.0336 -0.4213
 7125SOL    HW233849   7.666   8.466   3.890  0.2909 -1.8001  0.0254
 7126SOL     OW33850   4.546   3.441   2.257  0.3985 -0.2953 -0.0261
 7126SOL    HW133851   4.616   3.504   2.225  0.0126  0.1387 -0.0218
 7126SOL    HW233852   4.567   3.349   2.225  0.2383  0.0606 -1.2061
 7127SOL     OW33853   4.723   0.799   6.725 -0.2449 -0.4540 -0.2972
 7127SOL    HW133854   4.726   0.703   6.696  0.2385 -0.5328  0.0192
 7127SOL    HW233855   4.729   0.858   6.644 -0.3478 -0.6868 -0.4764
 7128SOL     OW33856   6.845   6.003   0.384  0.3581  0.0641 -0.1944
 7128SOL    HW133857   6.809   5.921   0.340  0.3015  0.0700 -0.1600
 7128SOL    HW233858   6.900   6.055   0.318  0.6022 -0.1289 -0.1423
 7129SOL     OW33859   7.574   5.114   5.010  0.3420  0.5599 -0.4895
 7129SOL    HW133860   7.540   5.140   4.920 -0.8895 -0.3980 -0.3206
 7129SOL    HW233861   7.596   5.017   5.011  0.2226  0.5360  0.2777
 7130SOL     OW33862   1.799   0.351   0.498  0.2902  0.1877  0.2408
 7130SOL    HW133863   1.891   0.315   0.510  0.0002 -0.1803  1.4589
 7130SOL    HW233864   1.797   0.447   0.528  0.5432  0.5569 -0.8986
 7131SOL     OW33865   5.556   6.572   2.832 -0.0315 -0.1539 -0.3716
 7131SOL    HW133866   5.557   6.485   2.881  1.3509 -1.2962 -2.3396
 7131SOL    HW233867   5.471   6.620   2.850 -0.2600 -1.3263  1.7737
 7132SOL     OW33868   0.074   0.173   8.303 -0.1655  0.0500 -0.6963
 7132SOL    HW133869   0.173   0.174   8.312 -0.3218 -1.1742  1.6519
 7132SOL    HW233870   0.049   0.141   8.212  1.5816  3.1071 -2.3181
 7133SOL     OW33871   1.622   8.376   0.770  0.0634  0.0891  0.3363
 7133SOL    HW133872   1.638   8.279   0.788 -1.5716 -0.4405 -0.9807
 7133SOL    HW233873   1.629   8.427   0.856  2.0218 -1.0213  0.8558
 7134SOL     OW33874   7.270   4.876   6.103 -0.1152 -0.4031 -0.4374
 7134SOL    HW133875   7.340   4.910   6.040  0.0288  2.1975  1.0509
 7134SOL    HW233876   7.179   4.898   6.068 -0.1484 -1.7662 -1.2515
 7135SOL     OW33877   6.214   2.322   8.886  0.0253 -0.2093  0.1457
 7135SOL    HW133878   6.137   2.362   8.936  1.1872  0.4135  1.4923
 7135SOL    HW233879   6.181   2.248   8.827 -1.6282  0.2232  0.5002
 7136SOL     OW33880   0.674   4.100   2.605 -0.3489 -0.0589 -0.0118
 7136SOL    HW133881   0.641   4.006   2.610  1.2620 -0.6416 -0.0114
 7136SOL    HW233882   0.598   4.163   2.620 -1.5434 -1.3487 -0.5807
 7137SOL     OW33883   2.500   4.411   3.273  0.5127  0.7266 -0.1138
 7137SOL    HW133884   2.577   4.349   3.288  0.2696  0.8673  1.8904
 7137SOL    HW233885   2.530   4.505   3.285  0.4840  0.9103 -1.4123
 7138SOL     OW33886   3.880   7.273   2.812  0.0226  0.5150 -0.1165
 7138SOL    HW133887   3.842   7.363   2.789  1.1157  0.5734 -1.7867
 7138SOL    HW233888   3.974   7.284   2.844  0.5979 -0.1456 -1.5514
 7139SOL     OW33889   2.845   8.118   5.919 -0.0796 -0.1789 -0.9021
 7139SOL    HW133890   2.750   8.109   5.948  0.3982 -2.0812  0.1870
 7139SOL    HW233891   2.900   8.150   5.997  0.4888 -0.9479 -0.9893
 7140SOL     OW33892   2.986   6.848   2.366 -0.4032  0.0578 -0.0633
 7140SOL    HW133893   2.949   6.927   2.416  0.7822 -0.0857  1.0704
 7140SOL    HW233894   3.069   6.816   2.412 -0.5952 -1.5376 -0.8203
 7141SOL     OW33895   2.872   7.140   4.688  0.0570 -0.3875  0.3158
 7141SOL    HW133896   2.912   7.051   4.712  0.4706  0.0059  1.1013
 7141SOL    HW233897   2.786   7.152   4.739  0.2212 -0.1529  0.5387
 7142SOL     OW33898   7.996   3.098   3.113 -0.3368 -0.5138  0.2736
 7142SOL    HW133899   8.035   3.149   3.036 -3.2842  2.9554  0.9746
 7142SOL    HW233900   7.904   3.066   3.089 -0.7623 -0.5504  1.8890
 7143SOL     OW33901   3.376   7.351   7.203  0.8860 -0.0401 -0.0303
 7143SOL    HW133902   3.437   7.430   7.198  3.2160 -1.8317 -1.5587
 7143SOL    HW233903   3.403   7.293   7.279  0.0199 -0.0261  0.2906
 7144SOL     OW33904   2.660   6.429   8.226 -0.8027 -0.2426  0.7028
 7144SOL    HW133905   2.658   6.375   8.310  0.5593  0.5140  1.2203
 7144SOL    HW233906   2.743   6.484   8.223 -0.1527 -1.2748 -1.7727
 7145SOL     OW33907   0.410   8.917   0.275  0.1469  0.0960  0.5041
 7145SOL    HW133908   0.345   8.989   0.298 -0.0833  0.4618 -1.2022
 7145SOL    HW233909   0.366   8.850   0.215  1.3091  0.3193 -0.6210
 7146SOL     OW33910   6.515   2.044   5.432  0.6400  0.2150  0.2744
 7146SOL    HW133911   6.509   2.119   5.498  0.5121 -0.1838  0.7180
 7146SOL    HW233912   6.443   2.053   5.363  1.3767  1.1822 -0.3870
 7147SOL     OW33913   8.666   7.781   3.617 -0.0799 -0.2721 -0.3761
 7147SOL    HW133914   8.598   7.767   3.545 -0.2440  0.0230 -0.2740
 7147SOL    HW233915   8.624   7.769   3.706 -0.1820  0.7478 -0.2911
 7148SOL     OW33916   1.612   1.675   4.519  0.4016  0.3571 -0.1353
 7148SOL    HW133917   1.568   1.759   4.488 -0.8356  0.2608  1.2737
 7148SOL    HW233918   1.563   1.596   4.482  0.0607  0.2526  0.5335
 7149SOL     OW33919   4.939   8.852   0.022 -0.4225  0.3217  0.4949
 7149SOL    HW133920   5.001   8.919   0.061 -1.0039  0.2436  1.5834
 7149SOL    HW233921   4.970   8.760   0.047 -0.2056  0.2298 -0.1175
 7150SOL     OW33922   3.331   4.241   1.735  0.3134 -0.3027  0.0187
 7150SOL    HW133923   3.369   4.245   1.643 -1.0436  1.7101 -0.5089
 7150SOL    HW233924   3.405   4.244   1.802  1.2781 -1.0915 -0.9934
 7151SOL     OW33925   3.660   0.263   1.836 -0.2463  0.0320 -0.3821
 7151SOL    HW133926   3.715   0.283   1.755 -0.6449 -0.6623 -0.8251
 7151SOL    HW233927   3.564   0.278   1.816 -0.3517 -0.1916 -0.0550
 7152SOL     OW33928   8.985   3.229   3.862 -0.4141 -0.5841  0.4850
 7152SOL    HW133929   9.024   3.270   3.780 -0.3605  0.0261  0.8097
 7152SOL    HW233930   8.900   3.276   3.886 -0.0728 -0.2987  1.1675
 7153SOL     OW33931   7.893   7.670   1.834  0.5589 -0.8975  0.0996
 7153SOL    HW133932   7.831   7.703   1.907 -0.4928 -0.0443 -1.1459
 7153SOL    HW233933   7.839   7.648   1.753  1.8555 -0.6654 -0.8328
 7154SOL     OW33934   2.863   4.572   2.192 -0.3223  0.4602  0.5215
 7154SOL    HW133935   2.905   4.632   2.124 -1.8912  1.4064  0.3605
 7154SOL    HW233936   2.800   4.509   2.147 -1.5019  1.2104  1.0984
 7155SOL     OW33937   1.170   2.870   4.118 -0.3260  0.0629  0.0535
 7155SOL    HW133938   1.221   2.954   4.101  0.9511 -0.9149 -0.9673
 7155SOL    HW233939   1.122   2.842   4.035 -0.6218 -0.3251  0.3502
 7156SOL     OW33940   6.496   4.998   0.014  0.1847  0.2527  0.1441
 7156SOL    HW133941   6.575   5.052   0.041 -0.5541  2.8761 -2.6747
 7156SOL    HW233942   6.503   4.974  -0.083 -1.4971 -1.2399  0.3512
 7157SOL     OW33943   5.165   5.628   4.113  0.8482 -0.6284 -0.1655
 7157SOL    HW133944   5.127   5.719   4.102  0.6832 -0.7308 -0.4476
 7157SOL    HW233945   5.140   5.572   4.034 -0.9354 -1.5851  1.0477
 7158SOL     OW33946   8.400   2.680   6.583 -0.7543 -0.3460  0.3430
 7158SOL    HW133947   8.386   2.647   6.677 -0.7069  0.7598  0.7383
 7158SOL    HW233948   8.383   2.778   6.579 -2.7197 -0.7274 -1.2253
 7159SOL     OW33949   6.766   5.841   5.560  0.4393 -0.1004 -0.0051
 7159SOL    HW133950   6.774   5.941   5.559 -0.2220 -0.0379  1.1429
 7159SOL    HW233951   6.855   5.801   5.541  0.5821  0.7127 -1.1025
 7160SOL     OW33952   2.960   8.566   8.862 -0.3879  0.6892 -0.5397
 7160SOL    HW133953   2.886   8.631   8.879 -2.0281 -1.6704  1.8698
 7160SOL    HW233954   3.012   8.552   8.946  0.5818 -0.3570 -1.2942
 7161SOL     OW33955   1.766   5.950   7.582 -0.4533  0.3578 -0.6998
 7161SOL    HW133956   1.753   5.853   7.602  1.6701 -0.0450 -1.1551
 7161SOL    HW233957   1.677   5.996   7.581 -1.3363 -1.2183  1.2899
 7162SOL     OW33958   2.418   1.612   0.119 -0.1259  0.1395 -0.0061
 7162SOL    HW133959   2.331   1.574   0.087  0.7693  1.1789 -3.9402
 7162SOL    HW233960   2.490   1.590   0.054  1.7362  2.8290  1.0559
 7163SOL     OW33961   6.426   8.597   2.870  0.4195  0.0358  0.0195
 7163SOL    HW133962   6.462   8.654   2.797  0.9759 -0.1799  0.1192
 7163SOL    HW233963   6.326   8.600   2.869  0.4251  0.1654 -0.6443
 7164SOL     OW33964   4.179   1.104   2.681 -0.1722 -0.0239  0.0751
 7164SOL    HW133965   4.233   1.151   2.611  1.7903 -1.2962  0.6729
 7164SOL    HW233966   4.187   1.153   2.768 -1.0917  0.5311 -0.1507
 7165SOL     OW33967   5.333   8.357   8.173 -0.2048 -0.9927  0.1817
 7165SOL    HW133968   5.302   8.431   8.232 -0.1305 -1.2869  0.5869
 7165SOL    HW233969   5.421   8.381   8.132 -0.1840 -0.8576  0.3097
 7166SOL     OW33970   8.516   8.774   1.327 -0.1153 -0.4197  0.2923
 7166SOL    HW133971   8.493   8.857   1.276 -0.1613 -0.4772  0.2188
 7166SOL    HW233972   8.498   8.789   1.424  0.1583 -0.2446  0.3162
 7167SOL     OW33973   6.015   6.200   1.088  0.3428 -0.0378  0.8094
 7167SOL    HW133974   5.962   6.273   1.044 -0.9579 -0.7093  1.2448
 7167SOL    HW233975   6.070   6.153   1.019 -0.0502  0.2969  0.2633
 7168SOL     OW33976   6.519   7.833   3.147 -0.1874 -0.1868 -0.1467
 7168SOL    HW133977   6.616   7.855   3.156 -0.7961  2.6809 -0.0979
 7168SOL    HW233978   6.487   7.857   3.056 -1.4816  1.6109  0.7412
 7169SOL     OW33979   5.288   4.537   4.226  0.2631  0.0484 -0.2434
 7169SOL    HW133980   5.231   4.618   4.213  0.4170  0.2163  0.1324
 7169SOL    HW233981   5.256   4.464   4.165 -0.3471  0.1442 -0.0445
 7170SOL     OW33982   2.028   4.006   1.763  0.2903  0.2860 -0.2981
 7170SOL    HW133983   2.127   4.023   1.768  0.8520 -2.1354 -2.3083
 7170SOL    HW233984   1.981   4.092   1.744  2.0121  1.4486  0.5299
 7171SOL     OW33985   5.682   4.188   0.458 -0.3019  0.5896  0.1989
 7171SOL    HW133986   5.718   4.243   0.533 -2.7136  0.6766  1.3272
 7171SOL    HW233987   5.601   4.232   0.419 -0.9360 -1.0306 -0.3768
 7172SOL     OW33988   7.713   3.564   7.350  0.1349 -0.6558 -0.1929
 7172SOL    HW133989   7.737   3.467   7.351  0.9394 -0.4655 -0.7418
 7172SOL    HW233990   7.663   3.587   7.434 -0.7601 -1.7112 -0.4381
 7173SOL     OW33991   8.163   3.655   0.739  0.0740 -0.3669 -0.2396
 7173SOL    HW133992   8.118   3.566   0.729  1.3547 -1.4719  2.8879
 7173SOL    HW233993   8.141   3.693   0.829  1.6084  1.2561 -0.5283
 7174SOL     OW33994   2.216   4.567   4.069  0.1208 -0.0623  0.3111
 7174SOL    HW133995   2.186   4.603   3.980  0.7952 -2.0776 -0.7639
 7174SOL    HW233996   2.195   4.470   4.074 -0.0224  0.0528  2.4423
 7175SOL     OW33997   3.428   4.028   4.646 -0.4826 -0.2066  0.1241
 7175SOL    HW133998   3.349   3.986   4.601 -0.5468  0.0118  0.0310
 7175SOL    HW233999   3.476   3.960   4.701 -0.9900 -0.2441  0.5288
 7176SOL     OW34000   5.128   5.934   6.190  0.4980  0.3202 -0.4063
 7176SOL    HW134001   5.032   5.929   6.219  0.7288 -1.0039  0.1609
 7176SOL    HW234002   5.174   6.008   6.240  0.1209  0.0370  0.3762
 7177SOL     OW34003   2.441   7.275   4.850  0.1936 -0.2438  0.0687
 7177SOL    HW134004   2.416   7.369   4.829 -2.7198 -0.6686  1.4274
 7177SOL    HW234005   2.486   7.234   4.771  0.4522  1.9214 -0.9326
 7178SOL     OW34006   0.689   2.919   8.139 -0.3119 -0.6040 -0.5524
 7178SOL    HW134007   0.725   2.873   8.220 -0.5154 -0.5025 -0.4032
 7178SOL    HW234008   0.758   2.919   8.067  0.5306  0.8451  0.2165
 7179SOL     OW34009   3.637   6.561   8.665  0.4712  0.9115 -0.0000
 7179SOL    HW134010   3.587   6.484   8.626  1.6851  0.1190 -0.0298
 7179SOL    HW234011   3.659   6.541   8.760  1.2046  0.9957 -0.1443
 7180SOL     OW34012   2.445   3.229   0.088 -0.9423 -0.1076 -0.1278
 7180SOL    HW134013   2.481   3.315   0.123  0.9769 -1.0436  0.2220
 7180SOL    HW234014   2.371   3.198   0.147 -0.2045  0.2024  0.9676
 7181SOL     OW34015   1.602   1.399   5.755 -0.4067  0.3543 -0.4354
 7181SOL    HW134016   1.665   1.379   5.680  0.3355  0.2602  0.2102
 7181SOL    HW234017   1.529   1.331   5.757  0.6257 -0.7530  0.0930
 7182SOL     OW34018   8.932   2.730   7.263  0.1657  0.6293 -0.2550
 7182SOL    HW134019   8.839   2.695   7.269  0.7381 -1.0957 -1.0138
 7182SOL    HW234020   8.966   2.752   7.354  0.1899 -1.9319  0.3984
 7183SOL     OW34021   1.465   2.004   7.680  0.7672  0.0553 -0.0294
 7183SOL    HW134022   1.395   2.055   7.730  0.9866 -0.1064  0.4402
 7183SOL    HW234023   1.429   1.915   7.654  0.4454  0.3713 -0.6909
 7184SOL     OW34024   0.046   0.438   4.534  0.0202 -0.1828 -0.5891
 7184SOL    HW134025  -0.002   0.517   4.572 -2.4404 -1.5576 -0.7187
 7184SOL    HW234026  -0.018   0.361   4.527  1.6599 -1.3921 -2.9491
 7185SOL     OW34027   2.981   5.346   2.604  0.2125  0.3447  0.5397
 7185SOL    HW134028   3.057   5.395   2.646  0.7295 -0.7436  0.8896
 7185SOL    HW234029   2.900   5.353   2.663  0.2001  1.0330  0.4387
 7186SOL     OW34030   8.311   8.050   3.921  0.2768  0.1913  0.6679
 7186SOL    HW134031   8.406   8.033   3.947  0.0160 -0.5133  1.1478
 7186SOL    HW234032   8.290   8.147   3.934  1.2733  0.5900 -0.5396
 7187SOL     OW34033   7.593   6.286   2.742 -0.0396  0.0070 -0.0649
 7187SOL    HW134034   7.516   6.289   2.677  0.4528  1.9365 -0.6067
 7187SOL    HW234035   7.579   6.212   2.807 -2.7292  0.7520  0.2608
 7188SOL     OW34036   3.245   0.975   3.454 -0.0830  0.1946 -0.1915
 7188SOL    HW134037   3.147   0.960   3.441 -0.1550  0.5372 -0.0648
 7188SOL    HW234038   3.284   1.015   3.371  0.3392 -1.7402 -0.9535
 7189SOL     OW34039   5.025   7.802   2.414 -0.2696 -0.4963  0.2189
 7189SOL    HW134040   4.983   7.888   2.444 -1.0673 -0.2156 -1.5944
 7189SOL    HW234041   4.960   7.727   2.428  0.6932 -0.9374  2.4664
 7190SOL     OW34042   7.624   4.144   1.286 -0.1288  0.1879 -0.2703
 7190SOL    HW134043   7.688   4.145   1.209 -0.6636 -0.8342 -0.7307
 7190SOL    HW234044   7.676   4.139   1.372  0.4458  0.7523 -0.5785
 7191SOL     OW34045   2.932   1.089   7.460 -0.1726  0.4117 -0.1898
 7191SOL    HW134046   2.960   1.124   7.550  0.6683  1.8687 -0.9948
 7191SOL    HW234047   2.837   1.058   7.465 -0.1371  0.4767  1.2047
 7192SOL     OW34048   1.160   4.574   4.084  0.4122 -0.0930  0.6828
 7192SOL    HW134049   1.234   4.573   4.017  0.7373 -0.5578  1.0483
 7192SOL    HW234050   1.075   4.547   4.040  0.5741 -0.1510  0.4002
 7193SOL     OW34051   4.805   8.495   0.205 -0.0048  0.3959  0.2159
 7193SOL    HW134052   4.767   8.542   0.125 -1.4487 -0.1040  0.5964
 7193SOL    HW234053   4.737   8.494   0.279  1.1725  0.5160  1.3296
 7194SOL     OW34054   0.041   4.848   0.877  0.3822 -0.2598  0.0125
 7194SOL    HW134055  -0.051   4.885   0.864  0.1201 -1.2409 -0.9941
 7194SOL    HW234056   0.036   4.769   0.939  0.5419 -0.3487 -0.0886
 7195SOL     OW34057   7.840   3.952   7.072 -0.9646  0.2700 -0.3375
 7195SOL    HW134058   7.891   4.030   7.036 -0.7768  0.2527 -0.1149
 7195SOL    HW234059   7.748   3.982   7.099 -0.3102  0.8184  1.3892
 7196SOL     OW34060   8.439   2.039   1.653  0.1912 -0.3407 -0.4242
 7196SOL    HW134061   8.443   1.941   1.635 -0.7335 -0.0419 -2.4081
 7196SOL    HW234062   8.530   2.073   1.678  0.5893 -1.6277 -0.1059
 7197SOL     OW34063   8.611   4.974   4.965  0.1213  0.2127  0.0522
 7197SOL    HW134064   8.516   4.967   4.934  0.4706 -1.9396 -0.6022
 7197SOL    HW234065   8.615   5.034   5.045 -2.0122 -0.7961  0.9690
 7198SOL     OW34066   6.855   1.936   8.345 -0.4482 -0.5230 -0.0834
 7198SOL    HW134067   6.842   1.883   8.429  1.5152 -0.9798 -0.0596
 7198SOL    HW234068   6.892   1.877   8.274  0.2400  0.4587 -0.5375
 7199SOL     OW34069   1.147   8.812   8.682  0.0017 -0.2271 -0.4192
 7199SOL    HW134070   1.196   8.890   8.644  0.7672 -0.4157  0.1754
 7199SOL    HW234071   1.080   8.844   8.750  0.0177 -0.0597 -0.4824
 7200SOL     OW34072   5.617   6.038   6.583 -0.2256  0.0709  0.0044
 7200SOL    HW134073   5.697   5.994   6.542 -0.9833  1.5041 -3.2433
 7200SOL    HW234074   5.536   5.983   6.564 -0.2323 -0.6708  2.0842
 7201SOL     OW34075   2.494   1.431   3.872 -0.0450  0.3015  0.2032
 7201SOL    HW134076   2.570   1.373   3.901  0.8965  1.2257 -0.3929
 7201SOL    HW234077   2.491   1.513   3.929 -1.2256 -0.1987  0.8841
 7202SOL     OW34078   4.723   7.787   8.039  0.0999  0.2631 -0.3142
 7202SOL    HW134079   4.711   7.690   8.018 -0.6008  0.2540  0.1132
 7202SOL    HW234080   4.817   7.814   8.019  0.0902 -0.3163 -1.1750
 7203SOL     OW34081   3.573   4.277   2.752 -0.3361 -0.1716 -0.0660
 7203SOL    HW134082   3.489   4.289   2.699 -0.1569 -0.0830 -0.3285
 7203SOL    HW234083   3.627   4.361   2.749  0.2349 -0.5494 -0.7163
 7204SOL     OW34084   6.546   5.322   2.396  0.4998  0.5562 -0.0245
 7204SOL    HW134085   6.609   5.347   2.323  0.7093  1.3005  0.4088
 7204SOL    HW234086   6.588   5.252   2.454 -0.1222 -0.9075 -1.2916
 7205SOL     OW34087   7.449   4.819   5.200  0.6366 -0.4309  0.6077
 7205SOL    HW134088   7.544   4.851   5.198  1.1676 -1.9889 -0.2504
 7205SOL    HW234089   7.411   4.830   5.291  0.9537  2.1673  0.4486
 7206SOL     OW34090   6.788   1.814   8.582 -0.1137  0.3408  0.0011
 7206SOL    HW134091   6.764   1.722   8.613  0.3949  0.3620  0.4759
 7206SOL    HW234092   6.705   1.868   8.569 -0.2983  0.7091  2.5109
 7207SOL     OW34093   8.591   0.957   1.197  0.0630  0.0215  0.3942
 7207SOL    HW134094   8.524   0.965   1.124  0.4419  0.1747  0.0596
 7207SOL    HW234095   8.680   0.989   1.164  0.2431  0.0636  0.9114
 7208SOL     OW34096   0.546   3.921   3.653 -0.2103 -0.5996 -0.3677
 7208SOL    HW134097   0.460   3.921   3.601  0.0882  0.9713 -0.8700
 7208SOL    HW234098   0.527   3.940   3.749 -0.2320  2.0264 -0.8529
 7209SOL     OW34099   4.067   8.700   3.073 -0.5135  0.3597 -0.0451
 7209SOL    HW134100   4.065   8.639   3.152 -0.7067  0.0108 -0.3159
 7209SOL    HW234101   4.157   8.695   3.029  0.1228  1.7622  1.0826
 7210SOL     OW34102   8.587   3.289   5.450 -0.0458 -0.3604 -0.0247
 7210SOL    HW134103   8.597   3.209   5.391 -0.7314  1.1316 -2.2156
 7210SOL    HW234104   8.648   3.362   5.418 -2.5149  1.4715 -0.6961
 7211SOL     OW34105   2.075   6.490   0.356 -0.2692 -0.0734 -0.6969
 7211SOL    HW134106   2.133   6.572   0.362  0.4663 -0.5059 -1.7013
 7211SOL    HW234107   2.131   6.412   0.328 -1.1686 -0.7008 -0.7603
 7212SOL     OW34108   0.886   7.193   4.303 -0.2882 -0.0802  0.1550
 7212SOL    HW134109   0.851   7.247   4.379 -1.0894 -0.5495  0.1271
 7212SOL    HW234110   0.836   7.216   4.220  0.1346 -0.0458 -0.0920
 7213SOL     OW34111   1.182   1.859   1.602 -0.3464  0.1227 -0.2191
 7213SOL    HW134112   1.205   1.833   1.509  1.4739  0.8017  0.0221
 7213SOL    HW234113   1.262   1.898   1.647 -1.4387  0.6425  1.3403
 7214SOL     OW34114   3.799   5.869   8.344 -0.0976 -0.5339  0.3413
 7214SOL    HW134115   3.891   5.833   8.328 -0.7141 -1.3879 -1.3917
 7214SOL    HW234116   3.740   5.796   8.379  0.1669  0.3100  2.6634
 7215SOL     OW34117   5.545   0.410   5.916  0.0470  0.4248 -0.0881
 7215SOL    HW134118   5.601   0.330   5.892 -2.4288 -1.0966 -1.0155
 7215SOL    HW234119   5.540   0.418   6.016 -2.4686 -2.6843  0.1004
 7216SOL     OW34120   4.473   4.374   2.927 -0.0065  0.2394 -0.0023
 7216SOL    HW134121   4.551   4.319   2.956 -0.8800 -1.5397 -0.9704
 7216SOL    HW234122   4.478   4.390   2.829 -0.3365  1.0035  0.0956
 7217SOL     OW34123   0.323   8.753   4.990 -0.1009  0.0603  0.5187
 7217SOL    HW134124   0.321   8.827   5.057 -5.2617  2.2053 -1.7167
 7217SOL    HW234125   0.292   8.668   5.034 -2.0253  1.1123  1.2782
 7218SOL     OW34126   7.947   7.837   7.736  0.3769 -0.2509 -0.1002
 7218SOL    HW134127   7.902   7.758   7.693 -0.7116 -0.5905  1.6075
 7218SOL    HW234128   8.033   7.807   7.777  0.7528 -0.2079 -0.8492
 7219SOL     OW34129   7.409   7.815   2.168  0.1690 -0.0354  0.3688
 7219SOL    HW134130   7.497   7.859   2.187  1.2506 -2.8249  2.2425
 7219SOL    HW234131   7.414   7.767   2.080  0.4635 -0.0424  0.3894
 7220SOL     OW34132   5.864   8.660   8.890 -0.2244 -0.5569 -0.0252
 7220SOL    HW134133   5.824   8.735   8.836 -0.5472 -1.6458 -1.3463
 7220SOL    HW234134   5.844   8.674   8.987  2.1775  2.5653  0.0860
 7221SOL     OW34135   4.138   8.742   1.389 -0.2476 -0.0781  0.4086
 7221SOL    HW134136   4.041   8.763   1.401 -0.2686  0.8306 -1.3317
 7221SOL    HW234137   4.193   8.823   1.405  0.0625 -0.0388 -0.7951
 7222SOL     OW34138   3.801   1.426   1.802  0.3197 -0.1849  0.2629
 7222SOL    HW134139   3.799   1.417   1.702 -0.2396 -0.7738  0.3266
 7222SOL    HW234140   3.886   1.387   1.837 -0.1392 -1.2922  0.1468
 7223SOL     OW34141   2.959   2.002   2.284 -0.4523  0.2608  0.1794
 7223SOL    HW134142   3.053   2.026   2.305  0.0698 -0.2683 -1.4669
 7223SOL    HW234143   2.906   2.085   2.265  0.0486  0.4682 -0.3271
 7224SOL     OW34144   6.062   8.005   2.469 -0.9892 -0.1846 -0.7356
 7224SOL    HW134145   6.146   8.040   2.427  0.7917 -2.4823  0.7304
 7224SOL    HW234146   6.033   8.067   2.541 -0.4846  0.5687 -1.1667
 7225SOL     OW34147   2.180   8.967   1.734  0.0984  0.5028 -0.6633
 7225SOL    HW134148   2.090   8.929   1.754  1.4793 -2.2393  0.6506
 7225SOL    HW234149   2.171   9.061   1.700 -3.1667  0.5533  0.2538
 7226SOL     OW34150   3.815   1.059   8.523 -0.1415 -0.0357 -0.0710
 7226SOL    HW134151   3.819   1.158   8.536 -0.5447  0.1779 -1.5432
 7226SOL    HW234152   3.774   1.038   8.435 -0.1626 -1.5279  0.2775
 7227SOL     OW34153   6.091   4.879   2.124 -0.8537 -0.3284  0.1752
 7227SOL    HW134154   6.044   4.928   2.197 -1.0031  1.3198 -1.0109
 7227SOL    HW234155   6.024   4.835   2.064 -0.8496  1.0401 -0.8391
 7228SOL     OW34156   8.012   2.557   7.394  0.5988 -1.0589  0.2177
 7228SOL    HW134157   7.939   2.513   7.342  1.3174 -0.6196 -1.2053
 7228SOL    HW234158   8.093   2.498   7.395  1.4725  0.0616 -1.4582
 7229SOL     OW34159   0.590   0.601   1.593 -0.2541 -0.3885 -0.4446
 7229SOL    HW134160   0.509   0.613   1.535  0.0956 -2.2830 -1.3587
 7229SOL    HW234161   0.669   0.581   1.535  0.1073 -2.3040  0.6860
 7230SOL     OW34162   3.989   3.717   1.069 -0.0421  0.2210 -0.0314
 7230SOL    HW134163   3.908   3.776   1.063 -0.0688  0.2492  0.5645
 7230SOL    HW234164   3.963   3.629   1.110  0.1530  0.0896 -0.1885
 7231SOL     OW34165   8.035   5.118   8.331 -0.3347  0.2953 -1.3118
 7231SOL    HW134166   8.094   5.168   8.268  0.6779  0.1844 -0.4696
 7231SOL    HW234167   8.077   5.030   8.353 -0.4119  0.5537 -0.0699
 7232SOL     OW34168   2.417   1.022   7.323  0.0024  0.0420  0.4721
 7232SOL    HW134169   2.435   1.110   7.280  1.2608 -1.1945 -1.5762
 7232SOL    HW234170   2.454   1.023   7.416 -2.0238  2.4347  1.3283
 7233SOL     OW34171   2.878   6.774   7.163 -0.0205  0.1170 -0.0348
 7233SOL    HW134172   2.921   6.842   7.105 -0.5534  0.8163  0.3891
 7233SOL    HW234173   2.854   6.815   7.251 -0.8613 -0.4587  0.0123
 7234SOL     OW34174   6.879   2.518   1.007 -0.0215  0.3268  0.0818
 7234SOL    HW134175   6.854   2.481   0.917  0.5375  0.0189  0.0555
 7234SOL    HW234176   6.882   2.443   1.074 -0.5650  0.5729  0.3881
 7235SOL     OW34177   8.379   4.467   7.441 -0.0538  0.6782 -0.5991
 7235SOL    HW134178   8.390   4.429   7.532  0.5324 -0.5140 -1.1588
 7235SOL    HW234179   8.345   4.561   7.448 -0.4472  0.4379  0.8179
 7236SOL     OW34180   4.326   3.106   7.605  0.0215 -0.1036  0.5243
 7236SOL    HW134181   4.337   3.197   7.645 -1.7827  0.9634 -1.3374
 7236SOL    HW234182   4.400   3.089   7.539  1.7079 -0.9733  2.5671
 7237SOL     OW34183   4.487   4.718   6.384 -0.4208 -0.4833 -0.7630
 7237SOL    HW134184   4.435   4.775   6.447 -1.3037 -2.6338  0.4760
 7237SOL    HW234185   4.558   4.774   6.340 -0.0335  1.1313  1.8207
 7238SOL     OW34186   2.715   2.133   8.842 -0.1173  0.4995  0.3374
 7238SOL    HW134187   2.765   2.219   8.828 -0.9881  0.6846 -1.9706
 7238SOL    HW234188   2.767   2.072   8.901  1.5319  1.7766  0.2160
 7239SOL     OW34189   0.855   4.006   7.349 -0.2436  0.9472  0.1442
 7239SOL    HW134190   0.809   4.044   7.269  0.4592 -0.3058 -0.8690
 7239SOL    HW234191   0.847   3.906   7.348  0.1335  0.8919  1.4272
 7240SOL     OW34192   0.359   3.320   8.770 -0.3780  0.1237  0.0390
 7240SOL    HW134193   0.376   3.375   8.852  1.9679  0.7594 -0.8403
 7240SOL    HW234194   0.378   3.224   8.789  0.8142  0.3609  0.0562
 7241SOL     OW34195   1.648   4.100   2.698  0.5468 -0.2750 -0.1039
 7241SOL    HW134196   1.624   4.059   2.786  1.5878 -0.5254  0.0616
 7241SOL    HW234197   1.719   4.170   2.712  2.3912 -1.9329 -1.0421
 7242SOL     OW34198   2.081   3.560   0.722  0.0357 -0.2208  0.0752
 7242SOL    HW134199   2.032   3.569   0.635 -0.9553 -1.7142  0.4424
 7242SOL    HW234200   2.068   3.467   0.757  0.1245  0.4756  1.9918
 7243SOL     OW34201   3.765   7.818   1.745  0.8577 -0.0123  0.5307
 7243SOL    HW134202   3.861   7.792   1.742  0.8182 -0.1123  0.1151
 7243SOL    HW234203   3.709   7.737   1.764  0.7433 -0.2145 -0.6525
 7244SOL     OW34204   4.753   5.704   5.449 -0.1925 -0.1095 -0.0251
 7244SOL    HW134205   4.725   5.635   5.516 -1.8627  0.6835  0.1356
 7244SOL    HW234206   4.791   5.784   5.496 -1.8557  0.6681  0.0415
 7245SOL     OW34207   1.895   4.193   7.944  0.1391  0.4533  0.6359
 7245SOL    HW134208   1.813   4.152   7.985 -0.0502  0.3921  0.2000
 7245SOL    HW234209   1.955   4.226   8.017  0.7958 -1.5544  1.0436
 7246SOL     OW34210   2.817   0.392   1.462 -0.2323 -0.7680 -0.4015
 7246SOL    HW134211   2.722   0.383   1.432 -0.1709 -1.0199 -0.5251
 7246SOL    HW234212   2.863   0.303   1.453 -0.3296 -0.9527  0.8491
 7247SOL     OW34213   6.853   1.012   1.238 -0.2718  0.2574  0.4915
 7247SOL    HW134214   6.924   1.046   1.176  0.3004 -1.0189  0.4425
 7247SOL    HW234215   6.825   0.920   1.211 -0.2429 -0.1960  1.9394
 7248SOL     OW34216   2.846   5.418   1.396  0.2984  0.2156  0.0318
 7248SOL    HW134217   2.861   5.516   1.385  1.0137  0.2998  1.6242
 7248SOL    HW234218   2.935   5.372   1.405 -0.0930 -0.3854  0.8566
 7249SOL     OW34219   5.864   5.359   8.047  0.3081  0.1967 -0.2916
 7249SOL    HW134220   5.957   5.379   8.018 -0.4576  1.9573 -1.6693
 7249SOL    HW234221   5.803   5.361   7.967 -1.1321  0.5936  0.7852
 7250SOL     OW34222   6.697   0.376   0.010  0.0229 -0.3193  0.1930
 7250SOL    HW134223   6.700   0.442  -0.064  1.2191 -0.9658 -0.3389
 7250SOL    HW234224   6.665   0.421   0.094  1.3168  1.0440 -0.0350
 7251SOL     OW34225   2.838   4.718   2.982 -0.8842 -0.0460  0.5279
 7251SOL    HW134226   2.851   4.746   3.077 -2.2184  2.5191 -0.0079
 7251SOL    HW234227   2.823   4.799   2.925 -0.1083 -1.5487 -1.8760
 7252SOL     OW34228   4.593   5.081   5.398  0.1117 -0.6814 -0.0825
 7252SOL    HW134229   4.586   5.090   5.299  1.1714 -1.1121 -0.2043
 7252SOL    HW234230   4.668   5.138   5.431  0.5465 -1.4727  0.3199
 7253SOL     OW34231   0.916   3.958   8.365 -0.3791  0.1428  0.9817
 7253SOL    HW134232   0.933   3.863   8.339  1.0868  0.8140 -0.5691
 7253SOL    HW234233   0.995   4.014   8.342 -1.0385  1.6759  2.3151
 7254SOL     OW34234   1.341   4.604   1.670  0.0698  0.0369  0.1284
 7254SOL    HW134235   1.311   4.692   1.632 -2.6607 -1.7939 -2.1197
 7254SOL    HW234236   1.421   4.571   1.619 -1.3741 -0.6729 -1.7290
 7255SOL     OW34237   3.948   2.042   5.727  0.0380 -0.1191 -0.1232
 7255SOL    HW134238   4.004   1.985   5.667 -1.4304 -2.0554  0.3050
 7255SOL    HW234239   3.856   2.052   5.689 -0.9392 -1.4434  1.8141
 7256SOL     OW34240   8.237   2.153   4.698  0.3283 -0.2979 -0.0035
 7256SOL    HW134241   8.309   2.152   4.629  0.4938  2.1343  0.0887
 7256SOL    HW234242   8.215   2.247   4.722 -2.4929 -0.9986  0.3950
 7257SOL     OW34243   8.759   0.876   0.270  0.4693 -0.0305  0.2414
 7257SOL    HW134244   8.791   0.970   0.281 -0.1811  0.0846  1.2117
 7257SOL    HW234245   8.778   0.824   0.353 -0.9813 -0.2109  0.4718
 7258SOL     OW34246   3.361   7.109   6.765 -0.0614 -0.6332 -0.5558
 7258SOL    HW134247   3.380   7.206   6.754 -0.6963 -0.2621  1.3825
 7258SOL    HW234248   3.340   7.068   6.676  0.5546  0.9152 -1.4217
 7259SOL     OW34249   6.017   0.181   3.080  0.7982 -0.6152 -0.0345
 7259SOL    HW134250   5.954   0.257   3.094 -1.0051 -2.1380  0.3264
 7259SOL    HW234251   6.000   0.139   2.991  2.7426  0.2519 -0.8526
 7260SOL     OW34252   1.730   8.074   5.973 -0.2253  0.3158  0.2545
 7260SOL    HW134253   1.641   8.062   5.928 -0.5137  2.1374  0.2849
 7260SOL    HW234254   1.724   8.150   6.038  0.9862 -0.4517  1.2748
 7261SOL     OW34255   7.156   2.639   5.262  0.5745 -0.7138 -0.0993
 7261SOL    HW134256   7.057   2.652   5.265  1.0401  3.5071 -0.3018
 7261SOL    HW234257   7.190   2.664   5.172  2.1044  0.4305  0.7809
 7262SOL     OW34258   4.439   2.383   0.593 -1.3455 -0.3680  0.9063
 7262SOL    HW134259   4.379   2.317   0.637 -0.2153 -1.0093  1.4914
 7262SOL    HW234260   4.522   2.395   0.648 -0.0941 -0.8867 -0.8397
 7263SOL     OW34261   5.702   8.592   3.285  0.2053 -0.4416 -0.0692
 7263SOL    HW134262   5.637   8.603   3.210 -0.0118  2.1236  0.4483
 7263SOL    HW234263   5.673   8.517   3.344  0.0062 -2.0367 -2.1417
 7264SOL     OW34264   2.540   3.330   5.737 -0.4444  0.1909  0.2081
 7264SOL    HW134265   2.546   3.364   5.643  2.1873  1.7237  0.8764
 7264SOL    HW234266   2.606   3.255   5.750  0.8664  1.5102  1.4054
 7265SOL     OW34267   6.148   8.605   1.603  0.5468  0.1426 -0.4262
 7265SOL    HW134268   6.161   8.506   1.600  1.7457  0.3285 -2.1015
 7265SOL    HW234269   6.207   8.644   1.674 -0.8126 -0.4562  1.0567
 7266SOL     OW34270   4.583   0.846   1.776 -0.1557  0.1775  0.4593
 7266SOL    HW134271   4.556   0.755   1.807  1.8172 -0.0240  1.7078
 7266SOL    HW234272   4.503   0.905   1.771 -1.3145 -1.3549  0.5527
 7267SOL     OW34273   0.310   6.031   6.493  0.1492 -0.5288 -0.2189
 7267SOL    HW134274   0.321   5.943   6.447 -1.1882 -1.6220  1.5086
 7267SOL    HW234275   0.385   6.045   6.558  1.2273  0.3496 -1.6165
 7268SOL     OW34276   2.328   5.910   2.388 -0.9072  0.3872 -0.5606
 7268SOL    HW134277   2.281   5.876   2.470 -0.9088  0.5149 -0.5076
 7268SOL    HW234278   2.275   5.986   2.349  0.3768  1.9995  0.7524
 7269SOL     OW34279   5.077   8.965   6.939  0.1642 -0.4533 -0.4182
 7269SOL    HW134280   5.175   8.968   6.960 -0.1621 -0.7302  1.1457
 7269SOL    HW234281   5.059   8.892   6.873  0.4289 -3.1261  2.4026
 7270SOL     OW34282   4.359   6.054   3.486  0.1406 -0.0761  0.0298
 7270SOL    HW134283   4.438   5.998   3.511 -1.4922 -2.1120  0.8655
 7270SOL    HW234284   4.318   6.092   3.568 -1.5759 -1.6575 -0.0452
 7271SOL     OW34285   6.451   8.472   5.772 -0.9788  0.0383  0.2119
 7271SOL    HW134286   6.408   8.385   5.798 -1.7251  0.2191 -0.4084
 7271SOL    HW234287   6.413   8.504   5.686  1.1696 -0.3340 -0.9050
 7272SOL     OW34288   3.344   8.762   2.618  0.2464 -0.1414  0.2814
 7272SOL    HW134289   3.330   8.764   2.717 -1.5053  2.0400  0.0362
 7272SOL    HW234290   3.416   8.827   2.593  0.4589 -0.4453  0.1123
 7273SOL     OW34291   2.042   6.919   0.181  0.0801  0.4285 -0.1416
 7273SOL    HW134292   1.946   6.891   0.191  0.0070  0.4097 -0.8432
 7273SOL    HW234293   2.082   6.934   0.271  0.6786 -3.9072  0.4233
 7274SOL     OW34294   8.253   5.754   6.856  0.3901  0.0953 -0.3508
 7274SOL    HW134295   8.261   5.681   6.788  1.0702 -1.7852  1.6709
 7274SOL    HW234296   8.169   5.741   6.909 -0.7765  2.2694 -1.6281
 7275SOL     OW34297   0.557   1.146   8.412  0.1838 -0.2858  0.2212
 7275SOL    HW134298   0.526   1.067   8.466  1.0459 -0.0363  1.0792
 7275SOL    HW234299   0.499   1.155   8.331 -2.2725  0.3879  1.9876
 7276SOL     OW34300   1.934   1.977   4.208 -0.2371 -0.1125  0.6638
 7276SOL    HW134301   1.895   1.917   4.278 -1.3065  0.2410  0.3710
 7276SOL    HW234302   1.891   2.066   4.212  0.0613  0.0698 -0.1165
 7277SOL     OW34303   3.780   1.441   4.699  0.1256  0.0533 -0.0493
 7277SOL    HW134304   3.878   1.421   4.704  0.3409  0.9158 -0.7936
 7277SOL    HW234305   3.752   1.488   4.783  0.1400 -1.0861  0.6005
 7278SOL     OW34306   7.396   7.019   1.847  0.5024 -0.0754 -0.1121
 7278SOL    HW134307   7.420   7.101   1.794 -0.1243  0.5956  0.6285
 7278SOL    HW234308   7.356   7.047   1.934 -2.6667 -1.1191 -1.1389
 7279SOL     OW34309   3.081   2.393   6.854 -0.7029 -0.7980  0.0463
 7279SOL    HW134310   3.100   2.449   6.935  0.0382 -1.9086  0.6652
 7279SOL    HW234311   2.983   2.389   6.838 -0.6977  1.6912 -0.7536
 7280SOL     OW34312   7.093   8.292   4.583 -0.1743 -0.0547  0.2509
 7280SOL    HW134313   7.054   8.218   4.528  0.7103  0.6254 -1.3279
 7280SOL    HW234314   7.171   8.332   4.534 -0.9078  2.1906  0.8890
 7281SOL     OW34315   2.639   7.608   7.103 -0.4519  0.0500  0.3932
 7281SOL    HW134316   2.714   7.668   7.133 -0.2550  0.2720 -0.5546
 7281SOL    HW234317   2.561   7.622   7.163  0.8610 -1.5092  2.5504
 7282SOL     OW34318   7.918   5.196   1.275  0.2787 -0.5446  0.0852
 7282SOL    HW134319   7.871   5.126   1.329 -1.2771  0.1186 -0.3620
 7282SOL    HW234320   7.855   5.232   1.205  1.4416  0.4223 -0.4882
 7283SOL     OW34321   6.389   7.987   0.070 -0.0761  0.5104 -0.1160
 7283SOL    HW134322   6.364   8.046  -0.007 -1.8617 -0.0378  0.0155
 7283SOL    HW234323   6.307   7.942   0.105  1.4544 -3.3156 -1.2406
 7284SOL     OW34324   7.635   7.113   1.993 -0.2163  0.5255 -0.6271
 7284SOL    HW134325   7.579   7.031   2.004 -0.6129  0.8536 -0.1474
 7284SOL    HW234326   7.598   7.168   1.918  0.0651  0.2530 -0.9654
 7285SOL     OW34327   1.370   4.861   3.658 -0.5233 -0.4824 -0.1451
 7285SOL    HW134328   1.339   4.891   3.567 -2.1257 -2.3968 -0.2675
 7285SOL    HW234329   1.294   4.818   3.706  0.5188 -0.1317  1.8453
 7286SOL     OW34330   7.949   5.867   1.866 -0.4379  0.5171  0.0270
 7286SOL    HW134331   7.863   5.893   1.823  0.2286  1.0598 -1.0155
 7286SOL    HW234332   7.931   5.826   1.955 -1.9785 -1.8974 -1.3073
 7287SOL     OW34333   3.050   6.473   3.824 -0.4237  0.3005 -0.3984
 7287SOL    HW134334   3.148   6.489   3.839 -0.6727  0.2633  1.4718
 7287SOL    HW234335   3.027   6.491   3.729  1.9804 -2.5908 -1.5820
 7288SOL     OW34336   1.266   6.205   0.729  0.0709 -0.7557 -0.4073
 7288SOL    HW134337   1.328   6.248   0.794  0.7196 -1.0389 -0.8374
 7288SOL    HW234338   1.248   6.268   0.653 -0.9604 -0.2917  0.2186
 7289SOL     OW34339   7.787   0.987   2.552  0.3147 -0.0574  0.5751
 7289SOL    HW134340   7.845   1.061   2.516  1.2472 -0.9681  0.1647
 7289SOL    HW234341   7.791   0.987   2.652 -0.1764  0.8258  0.6001
 7290SOL     OW34342   6.992   7.165   0.913 -0.4960 -0.5432  0.0345
 7290SOL    HW134343   7.022   7.215   0.995  0.9543 -1.1419 -0.1013
 7290SOL    HW234344   7.021   7.215   0.831 -0.8783 -0.5621 -0.1133
 7291SOL     OW34345   1.528   5.009   7.672  0.0019 -0.5172 -0.0032
 7291SOL    HW134346   1.504   5.106   7.667 -1.7526 -0.9401  0.0235
 7291SOL    HW234347   1.621   5.000   7.708  0.7814  1.2091 -1.4954
 7292SOL     OW34348   7.340   4.066   2.188 -0.0205 -0.7743  0.0012
 7292SOL    HW134349   7.336   4.049   2.286 -0.1113 -0.2803  0.0802
 7292SOL    HW234350   7.433   4.049   2.155 -0.0234 -1.0772  0.1451
 7293SOL     OW34351   7.240   3.322   5.235  0.3938  0.1903 -0.7112
 7293SOL    HW134352   7.330   3.287   5.211  0.6266 -0.6797  1.3177
 7293SOL    HW234353   7.204   3.270   5.312 -0.8725  2.0117 -0.0517
 7294SOL     OW34354   4.889   4.521   4.645  0.1658 -0.1764 -0.2651
 7294SOL    HW134355   4.970   4.571   4.615  0.6974 -0.8984 -0.0400
 7294SOL    HW234356   4.888   4.516   4.745 -0.0863 -0.2796 -0.2720
 7295SOL     OW34357   7.313   7.865   7.627  0.1835  0.2300 -0.3839
 7295SOL    HW134358   7.342   7.865   7.532  0.4643 -1.5073 -0.3196
 7295SOL    HW234359   7.215   7.885   7.632  0.1273  0.1330 -1.0542
 7296SOL     OW34360   7.160   5.456   2.796  0.2397  0.0392  0.3701
 7296SOL    HW134361   7.133   5.552   2.787  0.9800  0.1865 -0.4330
 7296SOL    HW234362   7.090   5.397   2.755  1.1402  0.4235 -1.8033
 7297SOL     OW34363   5.671   4.449   2.699  0.1387 -0.4046  0.3902
 7297SOL    HW134364   5.572   4.444   2.702  0.1061 -0.8410 -0.9787
 7297SOL    HW234365   5.705   4.391   2.624  1.4173 -0.3094  0.8840
 7298SOL     OW34366   7.093   5.601   7.656  0.6912  0.0410 -0.3908
 7298SOL    HW134367   7.082   5.693   7.619  2.5191  0.4028 -0.0756
 7298SOL    HW234368   7.160   5.551   7.602  0.5675 -0.7119  0.1418
 7299SOL     OW34369   5.555   7.432   1.168  0.6230  0.5567 -0.2508
 7299SOL    HW134370   5.478   7.497   1.168  1.0782  1.1036  0.2768
 7299SOL    HW234371   5.553   7.379   1.253  0.3320 -0.0344 -0.6204
 7300SOL     OW34372   3.625   0.427   4.576 -0.4087  0.1491 -0.4504
 7300SOL    HW134373   3.635   0.468   4.486  0.2134  1.3281  0.1476
 7300SOL    HW234374   3.627   0.498   4.646  0.2636 -0.8496  0.5701
 7301SOL     OW34375   4.043   1.634   8.683 -0.2417 -0.0977  0.6691
 7301SOL    HW134376   4.064   1.649   8.586 -0.7346 -0.5596  0.4900
 7301SOL    HW234377   3.998   1.716   8.719  1.1239  0.5953  0.8581
 7302SOL     OW34378   4.708   5.111   4.078 -0.3497 -0.6057  0.1390
 7302SOL    HW134379   4.747   5.037   4.022  0.7900  0.0567  0.0376
 7302SOL    HW234380   4.609   5.099   4.085 -0.1571 -2.2303  0.2564
 7303SOL     OW34381   0.207   7.898   0.436  0.3725  0.0236 -0.2249
 7303SOL    HW134382   0.156   7.865   0.516  1.0875  1.2248  0.7554
 7303SOL    HW234383   0.144   7.943   0.373 -0.2270 -1.0752 -0.4119
 7304SOL     OW34384   8.261   2.376   3.770 -0.3070 -0.2108  0.3699
 7304SOL    HW134385   8.227   2.392   3.677 -1.9353  0.3192  1.0447
 7304SOL    HW234386   8.220   2.293   3.807 -0.0526 -0.1468  0.7938
 7305SOL     OW34387   0.002   4.039   4.321 -0.1067  0.0251  0.0010
 7305SOL    HW134388  -0.009   3.956   4.375  1.1868 -0.8202 -0.9763
 7305SOL    HW234389   0.068   4.099   4.365 -2.2151  1.2641  1.5172
 7306SOL     OW34390   3.195   3.846   7.965  0.3109  0.3272  0.1364
 7306SOL    HW134391   3.212   3.806   7.874 -0.1699 -0.3452  0.3367
 7306SOL    HW234392   3.162   3.940   7.955 -0.1906  0.0929 -0.3991
 7307SOL     OW34393   3.783   7.989   7.189 -0.3173 -0.6715  0.0531
 7307SOL    HW134394   3.879   8.002   7.161 -0.3938  0.7771  0.4052
 7307SOL    HW234395   3.726   7.981   7.108 -0.0657 -0.1605 -0.1818
 7308SOL     OW34396   8.319   7.800   8.146 -0.2969 -0.0868 -0.0037
 7308SOL    HW134397   8.264   7.789   8.228 -0.6702  0.8774 -0.1160
 7308SOL    HW234398   8.415   7.782   8.167 -0.0885  2.1650  1.1632
 7309SOL     OW34399   5.618   7.417   3.056  0.1411  0.8666  0.0168
 7309SOL    HW134400   5.586   7.421   3.151  1.5121  2.2612  0.4316
 7309SOL    HW234401   5.677   7.336   3.045 -2.3890 -0.9835 -0.4318
 7310SOL     OW34402   2.234   4.394   8.875  0.2831  0.2364 -0.1490
 7310SOL    HW134403   2.191   4.322   8.929  1.1218  0.3803  0.7237
 7310SOL    HW234404   2.269   4.465   8.935  0.9514  0.5540 -0.8977
 7311SOL     OW34405   8.751   4.376   2.608 -0.4776 -0.2677 -0.1648
 7311SOL    HW134406   8.724   4.379   2.512  0.6380 -1.5206 -0.5228
 7311SOL    HW234407   8.669   4.384   2.665 -1.1484  0.4760 -1.2100
 7312SOL     OW34408   7.433   2.957   5.113  0.4783 -0.0730  0.1631
 7312SOL    HW134409   7.382   2.931   5.195  1.8593  0.4492  1.2102
 7312SOL    HW234410   7.475   3.046   5.127 -0.3335  0.6221 -1.6174
 7313SOL     OW34411   3.236   3.518   2.004 -0.2773 -0.9167  0.1321
 7313SOL    HW134412   3.226   3.510   2.103  1.8085 -2.8099  0.2383
 7313SOL    HW234413   3.183   3.446   1.959 -0.8713 -0.3264 -0.1268
 7314SOL     OW34414   7.723   4.686   1.674  0.0880  0.4108 -0.0353
 7314SOL    HW134415   7.638   4.639   1.655  0.4266 -0.7248  1.1528
 7314SOL    HW234416   7.767   4.644   1.754  1.3077  1.5532 -0.0881
 7315SOL     OW34417   5.932   6.417   6.886 -0.0760 -0.1869 -0.1689
 7315SOL    HW134418   5.839   6.394   6.856 -0.1680 -2.3239  1.6787
 7315SOL    HW234419   5.998   6.359   6.840  0.4572  1.8063 -2.0138
 7316SOL     OW34420   1.918   1.333   4.417  0.1286 -0.1346 -0.4303
 7316SOL    HW134421   2.013   1.314   4.440 -0.7582 -2.6342  1.3047
 7316SOL    HW234422   1.869   1.366   4.498 -0.8855 -0.4748 -0.8888
 7317SOL     OW34423   7.608   7.391   4.270 -0.1727  0.2094  0.4160
 7317SOL    HW134424   7.636   7.466   4.211  1.9371 -1.3231 -0.6144
 7317SOL    HW234425   7.571   7.316   4.214  0.7772 -0.8104  1.1290
 7318SOL     OW34426   1.429   1.241   8.774  0.1052 -0.5061 -0.9171
 7318SOL    HW134427   1.423   1.215   8.677 -2.9341  1.0412 -1.2193
 7318SOL    HW234428   1.390   1.332   8.786  0.3650 -0.7259  1.7734
 7319SOL     OW34429   6.208   8.509   7.933  0.5572 -0.3926  0.5141
 7319SOL    HW134430   6.306   8.529   7.945  0.4218  0.4130  0.3339
 7319SOL    HW234431   6.196   8.412   7.911  1.4457 -0.1749 -1.0056
 7320SOL     OW34432   1.600   3.084   2.900 -0.2110 -0.0138  0.5161
 7320SOL    HW134433   1.546   3.089   2.816  0.7099 -0.1865 -0.0898
 7320SOL    HW234434   1.583   2.997   2.945 -0.8493  0.1547  0.6118
 7321SOL     OW34435   2.571   2.440   0.828 -0.7372  0.2853  0.0433
 7321SOL    HW134436   2.561   2.397   0.738 -0.0237  1.2005 -0.4803
 7321SOL    HW234437   2.662   2.420   0.864 -1.3320 -0.8150  0.9611
 7322SOL     OW34438   3.385   8.792   7.242  0.2832 -0.9684 -0.0736
 7322SOL    HW134439   3.461   8.742   7.283  0.2346 -0.2102  0.9429
 7322SOL    HW234440   3.350   8.859   7.307  1.0300  1.1267 -1.7910
 7323SOL     OW34441   4.690   6.132   6.132  0.3271  0.0217  0.0324
 7323SOL    HW134442   4.748   6.203   6.171  2.8763 -1.8750 -0.1588
 7323SOL    HW234443   4.706   6.126   6.033 -0.3540 -0.3911 -0.0600
 7324SOL     OW34444   3.819   3.926   0.324 -0.1389  0.4869 -0.2870
 7324SOL    HW134445   3.888   3.920   0.253  0.5026 -0.3148  0.3931
 7324SOL    HW234446   3.742   3.982   0.292 -0.2820 -0.6312 -1.9361
 7325SOL     OW34447   8.531   1.549   8.628  0.0373  0.8675 -0.0439
 7325SOL    HW134448   8.450   1.589   8.586 -0.3040  1.5557  1.2643
 7325SOL    HW234449   8.538   1.578   8.723  0.2836 -1.4572  0.6836
 7326SOL     OW34450   5.672   5.711   0.705  0.3427  0.1848  0.2758
 7326SOL    HW134451   5.649   5.615   0.717 -0.2340  0.3307  0.3808
 7326SOL    HW234452   5.694   5.751   0.794 -0.2429  0.3502  0.3513
 7327SOL     OW34453   5.397   4.793   8.337 -0.1254 -0.1119 -0.4672
 7327SOL    HW134454   5.384   4.695   8.324 -1.3952 -0.3535  2.2975
 7327SOL    HW234455   5.331   4.843   8.280 -1.1725 -0.9400 -0.0012
 7328SOL     OW34456   3.206   3.724   8.856 -0.1144  0.2412 -0.2323
 7328SOL    HW134457   3.223   3.800   8.793 -0.4850  1.9427  1.6750
 7328SOL    HW234458   3.291   3.700   8.903 -0.0928 -0.2559 -0.5198
 7329SOL     OW34459   8.391   5.808   5.616  0.3832 -0.2841 -0.2264
 7329SOL    HW134460   8.378   5.722   5.565  1.6935 -0.7955  0.2739
 7329SOL    HW234461   8.457   5.793   5.690  0.4022  1.0835  0.0479
 7330SOL     OW34462   0.945   4.923   8.058 -0.1578 -0.1885 -0.1102
 7330SOL    HW134463   1.032   4.957   8.022 -0.7758 -1.4331 -2.8462
 7330SOL    HW234464   0.883   5.000   8.074  0.7268  0.5185 -0.0689
 7331SOL     OW34465   7.078   6.904   0.132  0.9063 -0.1042  0.7228
 7331SOL    HW134466   7.129   6.851   0.064 -1.1381 -0.7355 -0.3397
 7331SOL    HW234467   7.139   6.970   0.175  1.9945  1.0158 -2.4467
 7332SOL     OW34468   2.238   1.442   0.350 -0.2922  0.2489  0.0318
 7332SOL    HW134469   2.290   1.499   0.413 -1.7468  1.0761  0.5109
 7332SOL    HW234470   2.152   1.487   0.328  0.3350  0.1447 -2.8539
 7333SOL     OW34471   8.028   3.253   6.054  0.0706  0.0202  0.2108
 7333SOL    HW134472   8.039   3.279   6.150 -0.1267 -1.1218  0.5471
 7333SOL    HW234473   8.117   3.253   6.009  0.4251 -1.3242  0.8846
 7334SOL     OW34474   5.353   1.715   0.384 -0.5582  0.2973 -0.0190
 7334SOL    HW134475   5.374   1.734   0.289  1.1843 -1.4897 -0.0207
 7334SOL    HW234476   5.263   1.672   0.391 -0.9422  0.9747 -0.7867
 7335SOL     OW34477   0.709   5.031   8.181 -0.3512  0.6474  0.5328
 7335SOL    HW134478   0.681   4.935   8.192 -2.1436  1.1070  0.1264
 7335SOL    HW234479   0.758   5.061   8.262  0.9124 -0.8435  0.3457
 7336SOL     OW34480   2.698   7.137   5.453  0.1706 -0.7451 -0.0198
 7336SOL    HW134481   2.724   7.233   5.443 -0.4915 -0.6902 -1.3186
 7336SOL    HW234482   2.714   7.089   5.368 -0.1191 -1.6415  0.4221
 7337SOL     OW34483   1.592   4.361   8.474  0.4230 -0.2064  0.5129
 7337SOL    HW134484   1.623   4.268   8.493 -0.3435 -0.0547  2.5817
 7337SOL    HW234485   1.521   4.387   8.539  1.0008  2.0259  0.3096
 7338SOL     OW34486   1.729   3.903   4.328  0.0803  0.0878  0.0746
 7338SOL    HW134487   1.652   3.914   4.389 -0.6282 -1.3173 -0.5301
 7338SOL    HW234488   1.701   3.922   4.234  0.9670  1.5007  0.0855
 7339SOL     OW34489   3.832   0.389   3.696  0.3756  0.0321  0.2218
 7339SOL    HW134490   3.825   0.335   3.780 -0.4280  1.8436  1.3625
 7339SOL    HW234491   3.742   0.395   3.653  0.8403 -1.1071 -0.9213
 7340SOL     OW34492   4.441   7.024   1.065 -0.7599  0.0588  0.2758
 7340SOL    HW134493   4.472   7.119   1.068 -0.7285  0.0192  1.8010
 7340SOL    HW234494   4.421   6.993   1.158 -0.7246 -1.4478 -0.2069
 7341SOL     OW34495   2.937   8.589   1.228 -0.3164  0.1235  0.5417
 7341SOL    HW134496   2.922   8.593   1.326  0.8293 -0.3468  0.7458
 7341SOL    HW234497   3.026   8.630   1.206 -0.8566  0.8217 -0.3629
 7342SOL     OW34498   7.981   4.781   6.412 -0.4009 -0.1489 -0.3719
 7342SOL    HW134499   8.000   4.686   6.388 -1.0213 -0.4701  0.4029
 7342SOL    HW234500   7.889   4.806   6.382 -0.6627 -0.1345  0.4424
 7343SOL     OW34501   2.415   5.114   1.702 -0.0324  0.4806  0.1790
 7343SOL    HW134502   2.506   5.121   1.661 -0.6791  1.3453 -1.1312
 7343SOL    HW234503   2.412   5.169   1.786  0.5965  0.5899  0.1312
 7344SOL     OW34504   3.067   8.113   6.846 -0.0778 -0.2775 -1.0103
 7344SOL    HW134505   3.020   8.026   6.864 -0.3536  0.1616  0.3834
 7344SOL    HW234506   3.006   8.189   6.867  0.3483  0.2748 -1.7344
 7345SOL     OW34507   4.265   0.110   3.872  0.0034  0.3971  0.2547
 7345SOL    HW134508   4.192   0.175   3.892 -2.2720 -1.7973 -0.6644
 7345SOL    HW234509   4.272   0.096   3.773  1.7665  0.6980  0.3286
 7346SOL     OW34510   7.789   1.899   2.198 -0.1661 -0.3626 -0.3294
 7346SOL    HW134511   7.737   1.965   2.253 -1.3184 -0.6168 -1.0851
 7346SOL    HW234512   7.798   1.814   2.250  0.4337  0.0404  0.2357
 7347SOL     OW34513   3.119   1.092   1.078 -0.3327 -0.0301  0.1317
 7347SOL    HW134514   3.090   1.073   0.984 -1.2483 -0.4363  0.4865
 7347SOL    HW234515   3.170   1.013   1.113 -2.3338 -1.0094  0.8929
 7348SOL     OW34516   7.929   2.142   8.691 -0.5273  0.1119 -0.2001
 7348SOL    HW134517   7.958   2.055   8.731 -1.5766 -0.0168  0.2944
 7348SOL    HW234518   7.992   2.167   8.618 -0.3956 -1.2186 -0.5601
 7349SOL     OW34519   5.823   3.844   7.362  0.0467 -0.0590 -0.0592
 7349SOL    HW134520   5.734   3.844   7.407  0.7799 -1.4817  1.4213
 7349SOL    HW234521   5.869   3.756   7.378  2.1284  1.0078  0.0239
 7350SOL     OW34522   2.031   7.852   7.339  0.6328  0.0694  0.1969
 7350SOL    HW134523   2.087   7.859   7.421  2.1894 -0.0709 -0.8186
 7350SOL    HW234524   1.995   7.942   7.315 -1.0071 -0.1307  1.8102
 7351SOL     OW34525   2.629   8.621   5.075 -0.3466  0.0410  0.0025
 7351SOL    HW134526   2.587   8.701   5.117  2.1220  0.4400  1.8479
 7351SOL    HW234527   2.593   8.538   5.117 -0.8643  0.2922  0.0484
 7352SOL     OW34528   3.733   3.951   6.819  0.8493 -0.0060 -0.0167
 7352SOL    HW134529   3.813   3.987   6.770  0.7845 -1.3263 -1.1263
 7352SOL    HW234530   3.702   3.867   6.774 -0.4770 -0.1148  1.0857
 7353SOL     OW34531   4.805   3.921   8.373  0.1051  0.1962  0.4133
 7353SOL    HW134532   4.731   3.968   8.421 -0.3385 -1.2686  1.1869
 7353SOL    HW234533   4.796   3.936   8.275 -0.6183  0.8865  0.5809
 7354SOL     OW34534   8.903   7.091   3.893 -0.2446  0.5025  0.6259
 7354SOL    HW134535   8.889   7.022   3.965 -1.1854  0.7202  0.6544
 7354SOL    HW234536   9.001   7.097   3.872  0.0962  0.7454  2.1980
 7355SOL     OW34537   0.247   0.694   6.819  0.4392 -0.7085  0.3883
 7355SOL    HW134538   0.276   0.599   6.829 -2.6846 -1.7777 -0.0342
 7355SOL    HW234539   0.257   0.722   6.723  1.4323 -0.5694  0.5278
 7356SOL     OW34540   1.367   0.072   7.659  0.9515 -0.2473  0.3339
 7356SOL    HW134541   1.371   0.088   7.561  1.1613  0.8325  0.5152
 7356SOL    HW234542   1.341   0.156   7.706  1.3129 -0.6319  1.2424
 7357SOL     OW34543   1.531   7.862   1.709 -0.5784 -0.4834 -0.2174
 7357SOL    HW134544   1.439   7.864   1.669 -1.0534 -1.4339  0.8061
 7357SOL    HW234545   1.599   7.865   1.636 -1.4242  0.1211 -0.9910
 7358SOL     OW34546   1.664   5.984   0.606 -0.3913  0.4916 -0.0636
 7358SOL    HW134547   1.722   5.929   0.546  2.4108  1.5603  1.6068
 7358SOL    HW234548   1.571   5.986   0.569  0.0513 -3.1490 -1.5710
 7359SOL     OW34549   2.514   6.271   4.373  0.2417  0.0775 -0.6442
 7359SOL    HW134550   2.573   6.320   4.438 -0.3424 -0.6702  0.4820
 7359SOL    HW234551   2.433   6.238   4.421 -1.4461  1.6798 -2.3317
 7360SOL     OW34552   6.407   4.603   0.539  0.0026 -0.8272 -0.1980
 7360SOL    HW134553   6.419   4.579   0.636  0.1048 -1.9264 -0.4747
 7360SOL    HW234554   6.328   4.554   0.502 -0.6309  0.3501 -0.4243
 7361SOL     OW34555   4.235   5.079   8.693  0.4490 -0.1962  0.1421
 7361SOL    HW134556   4.261   5.154   8.753 -0.0808 -0.2136  0.4013
 7361SOL    HW234557   4.266   4.992   8.733  0.2275 -0.1949  0.3189
 7362SOL     OW34558   3.406   7.060   1.681 -0.3506  0.4539 -0.1409
 7362SOL    HW134559   3.411   6.968   1.642 -0.5841 -0.2960  1.5714
 7362SOL    HW234560   3.350   7.058   1.764 -1.3478  2.3766 -0.7355
 7363SOL     OW34561   8.233   3.753   1.235  0.3529 -0.0084  0.0228
 7363SOL    HW134562   8.272   3.845   1.239 -2.2724  1.1621 -0.4029
 7363SOL    HW234563   8.157   3.746   1.299  1.4403 -2.3940  1.1380
 7364SOL     OW34564   3.562   1.167   7.265 -0.5637 -0.3164  0.3068
 7364SOL    HW134565   3.616   1.091   7.227 -1.1259 -0.3906 -0.3601
 7364SOL    HW234566   3.610   1.253   7.248  0.5418 -0.5940  1.9113
 7365SOL     OW34567   4.027   1.792   8.131  0.5835  0.5302 -0.1514
 7365SOL    HW134568   3.973   1.725   8.079 -0.2530  1.4501 -0.4831
 7365SOL    HW234569   4.114   1.806   8.085  0.7340 -0.2718 -0.1272
 7366SOL     OW34570   1.190   7.291   4.310  0.1637 -0.2758 -0.2086
 7366SOL    HW134571   1.113   7.227   4.321  0.5276 -0.9891 -1.6777
 7366SOL    HW234572   1.192   7.325   4.216  0.3132  1.4992  0.4177
 7367SOL     OW34573   3.723   3.237   3.614 -0.4308 -0.4673  0.0110
 7367SOL    HW134574   3.773   3.312   3.657 -0.4849 -0.3673 -0.0974
 7367SOL    HW234575   3.723   3.250   3.515 -0.1430 -0.7967 -0.0338
 7368SOL     OW34576   7.829   0.661   6.196 -0.4624  0.7000  0.5835
 7368SOL    HW134577   7.861   0.687   6.105  0.5614 -0.3052  0.6342
 7368SOL    HW234578   7.732   0.637   6.192 -0.0836 -0.7145 -0.5484
 7369SOL     OW34579   5.531   3.842   8.265  0.4842  0.0380 -0.1237
 7369SOL    HW134580   5.595   3.915   8.285  0.1957 -0.1666  1.5709
 7369SOL    HW234581   5.510   3.791   8.348 -2.7648  0.8107 -0.3775
 7370SOL     OW34582   4.986   2.000   7.435  0.0104 -0.2705  0.5493
 7370SOL    HW134583   4.911   2.067   7.433  1.6123  1.5364 -1.7165
 7370SOL    HW234584   4.993   1.955   7.346  0.2056 -2.0775  1.4568
 7371SOL     OW34585   3.029   8.977   2.779  0.7979 -0.2485 -0.0706
 7371SOL    HW134586   3.068   8.907   2.719  1.9374  0.3458 -0.0366
 7371SOL    HW234587   2.930   8.964   2.785  0.7492 -0.6735 -1.5874
 7372SOL     OW34588   3.222   7.560   7.348 -0.4791 -0.1996 -0.3974
 7372SOL    HW134589   3.256   7.499   7.276  0.0063 -0.4733  0.0589
 7372SOL    HW234590   3.299   7.611   7.387 -0.5759 -0.8820  0.6953
 7373SOL     OW34591   3.176   4.676   2.395  0.3995 -0.0769  0.5950
 7373SOL    HW134592   3.209   4.587   2.362 -2.3260 -0.6060 -0.9655
 7373SOL    HW234593   3.247   4.745   2.384  1.4347 -1.4058 -1.3065
 7374SOL     OW34594   2.787   3.594   5.944  0.3497 -0.3684  0.1834
 7374SOL    HW134595   2.714   3.543   5.989  0.3263  0.1324  0.7235
 7374SOL    HW234596   2.780   3.583   5.845 -0.3432 -0.4741  0.2464
 7375SOL     OW34597   5.038   7.895   7.753 -0.5983 -0.2584  0.3210
 7375SOL    HW134598   5.000   7.803   7.746  0.5206 -0.7087 -0.0499
 7375SOL    HW234599   5.103   7.909   7.677  0.0739  0.4230  1.0181
 7376SOL     OW34600   8.458   8.826   6.973  0.0124  0.1113  0.3039
 7376SOL    HW134601   8.542   8.771   6.970  0.5229  0.8777  0.4480
 7376SOL    HW234602   8.415   8.816   7.062  0.1630  0.0351  0.3684
 7377SOL     OW34603   1.201   0.714   7.901 -0.0030 -0.3331 -0.1958
 7377SOL    HW134604   1.154   0.724   7.814 -0.8816 -2.6538 -0.0202
 7377SOL    HW234605   1.200   0.802   7.950 -0.9963  0.5438 -1.7521
 7378SOL     OW34606   2.176   4.015   2.739 -0.2457 -0.2227  0.3986
 7378SOL    HW134607   2.128   4.094   2.702  1.4175  0.9495  0.6823
 7378SOL    HW234608   2.167   4.013   2.838 -1.7136 -1.3685  0.2620
 7379SOL     OW34609   3.940   4.842   5.988  0.1616 -0.3023  0.3799
 7379SOL    HW134610   3.846   4.869   5.968  0.1393 -0.9624 -0.4362
 7379SOL    HW234611   3.999   4.867   5.911  0.6310 -0.0054  0.8343
 7380SOL     OW34612   3.357   2.426   2.496  0.7727 -0.1951  0.5131
 7380SOL    HW134613   3.423   2.499   2.479  2.2150 -1.2520  1.4414
 7380SOL    HW234614   3.312   2.442   2.584  0.8264 -0.2319  0.5473
 7381SOL     OW34615   3.239   6.824   8.892  0.6474 -0.6559  0.5145
 7381SOL    HW134616   3.331   6.811   8.929  1.0693  0.8805  0.0375
 7381SOL    HW234617   3.243   6.828   8.792  0.5532  2.7531  0.5814
 7382SOL     OW34618   3.214   1.134   3.675 -0.1510 -0.4783 -0.5979
 7382SOL    HW134619   3.211   1.080   3.759  0.0381 -0.4389 -0.5652
 7382SOL    HW234620   3.230   1.074   3.596  2.3939 -0.2288 -0.3152
 7383SOL     OW34621   4.549   4.520   8.365  0.2036  0.2231 -0.0206
 7383SOL    HW134622   4.528   4.606   8.319 -2.0461 -0.3530 -0.1147
 7383SOL    HW234623   4.486   4.506   8.441  0.8310 -1.1292  0.2637
 7384SOL     OW34624   2.425   7.501   5.762 -0.3851  0.3038  0.2809
 7384SOL    HW134625   2.484   7.505   5.681 -0.6003  0.9746  0.1549
 7384SOL    HW234626   2.480   7.513   5.844 -0.4021  1.3659  0.1400
 7385SOL     OW34627   4.102   5.709   2.861  0.3243 -0.0119  0.0886
 7385SOL    HW134628   4.023   5.672   2.811 -0.1937 -0.0248  0.9132
 7385SOL    HW234629   4.080   5.802   2.893  0.7821  0.1288 -0.0039
 7386SOL     OW34630   6.740   4.932   3.032  0.0547 -0.4155  0.1733
 7386SOL    HW134631   6.752   5.014   3.087 -0.3724 -0.2524  0.0209
 7386SOL    HW234632   6.653   4.937   2.983  0.1339 -0.8552 -0.0099
 7387SOL     OW34633   8.602   3.049   6.629 -0.8697 -0.5610  0.2235
 7387SOL    HW134634   8.504   3.035   6.616 -0.9617 -0.5493  0.8870
 7387SOL    HW234635   8.617   3.126   6.691 -0.4179  0.2067 -0.8153
 7388SOL     OW34636   4.307   2.710   6.878 -0.0108 -0.5094  0.2431
 7388SOL    HW134637   4.267   2.801   6.867  0.8655 -0.0951  0.4050
 7388SOL    HW234638   4.235   2.644   6.898 -0.6431  0.1645  0.2183
 7389SOL     OW34639   7.566   6.028   3.728  0.4752 -0.2118 -0.2393
 7389SOL    HW134640   7.569   6.113   3.674  1.8222 -0.3068 -0.3490
 7389SOL    HW234641   7.485   6.027   3.785  0.4094  1.1281 -0.2985
 7390SOL     OW34642   4.691   2.105   7.070  0.3510  0.0594 -0.3546
 7390SOL    HW134643   4.598   2.143   7.068  0.3319 -0.0418 -1.4305
 7390SOL    HW234644   4.694   2.021   7.016  0.5830 -1.0699  1.3696
 7391SOL     OW34645   4.519   2.314   6.716 -0.1759 -0.3652 -0.2245
 7391SOL    HW134646   4.547   2.284   6.625  0.3756  1.3807 -0.6526
 7391SOL    HW234647   4.477   2.405   6.710  0.4584  0.0512  1.3298
 7392SOL     OW34648   5.536   6.580   5.184 -0.0317 -0.5328  0.4002
 7392SOL    HW134649   5.609   6.552   5.247  1.2053  1.1648 -0.2249
 7392SOL    HW234650   5.485   6.656   5.224 -2.0838 -2.3146  1.2341
 7393SOL     OW34651   1.127   0.631   0.089 -0.2698  0.4775  0.0593
 7393SOL    HW134652   1.208   0.681   0.118  0.0835  0.6230 -1.1633
 7393SOL    HW234653   1.097   0.571   0.163 -0.0931  1.7179  1.1628
 7394SOL     OW34654   2.802   0.992   3.798  0.2890  0.4389 -0.1918
 7394SOL    HW134655   2.871   0.921   3.784  1.2832  1.4631 -0.5944
 7394SOL    HW234656   2.755   1.010   3.711 -0.5823 -0.3522  0.1134
 7395SOL     OW34657   8.340   2.172   5.163 -0.4824 -0.6216 -0.0158
 7395SOL    HW134658   8.421   2.182   5.221  0.4568  0.3198 -1.4535
 7395SOL    HW234659   8.297   2.261   5.150  0.2641 -0.5444 -2.0752
 7396SOL     OW34660   3.752   4.600   2.973  0.0890  0.3171  0.4469
 7396SOL    HW134661   3.719   4.684   3.016  1.7258  0.9356  0.5462
 7396SOL    HW234662   3.718   4.521   3.023 -2.2324  0.8862 -0.1977
 7397SOL     OW34663   0.512   8.307   7.391  0.1861  0.4059 -0.2227
 7397SOL    HW134664   0.433   8.311   7.451  0.0404  0.0150 -0.3890
 7397SOL    HW234665   0.486   8.338   7.300  0.6445  1.9626  0.1588
 7398SOL     OW34666   4.426   2.503   7.155  0.6050  0.1925 -0.8587
 7398SOL    HW134667   4.518   2.541   7.147  0.9442 -0.5204 -0.4059
 7398SOL    HW234668   4.425   2.408   7.122 -0.4379  0.8642 -2.8291
 7399SOL     OW34669   2.362   6.455   7.040 -0.4558  0.2609  0.7445
 7399SOL    HW134670   2.357   6.469   6.941  1.4916  1.1451  0.7503
 7399SOL    HW234671   2.331   6.537   7.087 -3.0815 -0.7785  0.9166
 7400SOL     OW34672   3.687   6.334   0.413 -0.1147 -0.1903  0.5874
 7400SOL    HW134673   3.635   6.253   0.388  0.5131 -0.3457 -0.2132
 7400SOL    HW234674   3.625   6.404   0.450 -0.7861 -0.6449  0.3136
 7401SOL     OW34675   8.540   8.897   0.884  0.1356  0.1093  0.2765
 7401SOL    HW134676   8.517   8.993   0.901  0.7297  0.2248  0.4289
 7401SOL    HW234677   8.638   8.884   0.894 -0.0707 -0.7311  1.3046
 7402SOL     OW34678   6.682   8.241   0.886  0.6349  0.1646 -0.2474
 7402SOL    HW134679   6.737   8.235   0.969  1.6412  1.6942 -0.8078
 7402SOL    HW234680   6.585   8.234   0.911  0.8814  1.4465  1.1507
 7403SOL     OW34681   8.848   5.977   0.592  0.0026  0.0642  0.1332
 7403SOL    HW134682   8.752   5.958   0.574 -0.1520  1.1544 -0.2388
 7403SOL    HW234683   8.905   5.905   0.553 -0.7012 -0.9570  0.9829
 7404SOL     OW34684   1.501   1.325   3.967  0.3953 -1.0149 -0.4011
 7404SOL    HW134685   1.561   1.312   4.046  2.1315 -0.2179 -1.5456
 7404SOL    HW234686   1.555   1.359   3.889 -2.0089  2.4689 -0.6622
 7405SOL     OW34687   8.518   4.297   2.686 -0.1702 -0.0493  0.9045
 7405SOL    HW134688   8.458   4.333   2.615  1.4915 -1.2170 -1.1503
 7405SOL    HW234689   8.477   4.214   2.724  0.5034 -1.3889 -1.1624
 7406SOL     OW34690   0.972   1.581   7.221 -0.7422 -0.0892 -0.7226
 7406SOL    HW134691   0.992   1.643   7.297  0.5140 -0.4053 -0.7883
 7406SOL    HW234692   0.942   1.493   7.258 -0.3163 -0.1816 -0.5968
 7407SOL     OW34693   2.185   7.921   6.518 -0.1368 -0.1727 -0.2254
 7407SOL    HW134694   2.182   7.830   6.558 -2.9205 -0.2074 -0.4095
 7407SOL    HW234695   2.102   7.937   6.464 -0.2262  2.8560  0.7009
 7408SOL     OW34696   5.426   2.028   7.483 -0.2927  0.0822 -0.4098
 7408SOL    HW134697   5.361   1.993   7.551 -0.6787  0.5664 -0.5210
 7408SOL    HW234698   5.436   1.962   7.409  1.1293 -1.0425  0.7484
 7409SOL     OW34699   2.361   8.433   7.597  0.1577  0.0961 -0.1375
 7409SOL    HW134700   2.297   8.465   7.666  1.8750  2.7201  0.3329
 7409SOL    HW234701   2.336   8.471   7.508  1.2703  1.5163  0.1316
 7410SOL     OW34702   5.519   7.660   7.329 -0.4804  0.1061  0.0559
 7410SOL    HW134703   5.545   7.579   7.278  0.3589 -0.8915  1.9879
 7410SOL    HW234704   5.588   7.732   7.316 -0.9620  0.3372 -1.2466
 7411SOL     OW34705   8.802   4.778   2.821  0.5289  0.0658 -1.3099
 7411SOL    HW134706   8.898   4.804   2.810  0.7186 -0.4428 -0.9144
 7411SOL    HW234707   8.762   4.829   2.896  0.1787  1.0844 -2.1867
 7412SOL     OW34708   3.837   6.687   3.820  0.1982 -0.2205  0.2624
 7412SOL    HW134709   3.848   6.674   3.918 -1.4035  1.0170  0.6313
 7412SOL    HW234710   3.764   6.629   3.786 -2.1633  2.4329  0.6263
 7413SOL     OW34711   6.918   0.606   0.282 -0.0800  0.0712  0.0174
 7413SOL    HW134712   6.869   0.519   0.290  0.6941 -0.5071 -1.3958
 7413SOL    HW234713   7.005   0.600   0.330  0.1060 -0.0383 -0.3320
 7414SOL     OW34714   7.753   7.842   8.394 -0.2671  0.1793  0.1096
 7414SOL    HW134715   7.774   7.842   8.492  1.1407 -0.8324 -0.1891
 7414SOL    HW234716   7.654   7.837   8.382 -0.4480  0.1686  1.4803
 7415SOL     OW34717   1.115   3.254   3.590  0.6646 -0.4888 -0.5248
 7415SOL    HW134718   1.194   3.211   3.634  0.7204 -0.5224 -0.6597
 7415SOL    HW234719   1.127   3.253   3.491 -1.2600 -3.9622 -0.7962
 7416SOL     OW34720   4.423   6.947   1.329  0.1860  0.1816 -0.0091
 7416SOL    HW134721   4.363   6.992   1.396 -0.1993 -1.2580  0.6315
 7416SOL    HW234722   4.511   6.926   1.372  0.3738  0.3499 -0.3110
 7417SOL     OW34723   7.302   6.073   1.747  0.6026 -0.3028 -0.0789
 7417SOL    HW134724   7.293   6.066   1.847 -0.9458 -1.3907 -0.2627
 7417SOL    HW234725   7.372   6.008   1.715  2.3954  1.3331  0.4602
 7418SOL     OW34726   7.630   0.132   0.319 -0.0599  0.9543  1.0172
 7418SOL    HW134727   7.631   0.036   0.293 -1.2864  2.0862 -3.7583
 7418SOL    HW234728   7.714   0.155   0.369  1.1900 -2.0889  0.4057
 7419SOL     OW34729   4.754   0.799   2.941  0.8984 -0.1239 -0.0148
 7419SOL    HW134730   4.720   0.885   2.979 -0.1899 -0.6488  0.2015
 7419SOL    HW234731   4.732   0.724   3.003 -0.0670 -0.8578 -1.2199
 7420SOL     OW34732   5.928   3.680   0.877 -0.0558  0.1031  0.3439
 7420SOL    HW134733   5.990   3.602   0.883 -1.6131 -1.3085 -1.4206
 7420SOL    HW234734   5.958   3.751   0.941  1.4376 -1.8766  1.9031
 7421SOL     OW34735   1.140   6.880   2.699 -0.1792  0.0407  0.1279
 7421SOL    HW134736   1.127   6.791   2.744  0.1887  0.7787  1.6959
 7421SOL    HW234737   1.113   6.872   2.603  0.7448 -2.0298  0.0035
 7422SOL     OW34738   3.107   7.216   3.433  0.0683 -0.0410 -0.1381
 7422SOL    HW134739   3.163   7.295   3.406  0.7016  0.0523  1.4021
 7422SOL    HW234740   3.019   7.248   3.469 -0.0978 -0.0881 -0.5008
 7423SOL     OW34741   5.197   4.607   7.364  0.0473  0.6670 -0.1171
 7423SOL    HW134742   5.147   4.523   7.343 -1.8207  1.0186  2.5812
 7423SOL    HW234743   5.181   4.675   7.293 -1.2715 -0.1062 -0.5694
 7424SOL     OW34744   0.380   5.009   7.540 -0.7030 -0.2395  0.1715
 7424SOL    HW134745   0.339   4.925   7.576  0.6338 -0.8797  0.2387
 7424SOL    HW234746   0.422   5.060   7.616  0.1016 -0.4451 -0.1236
 7425SOL     OW34747   0.296   0.152   1.453 -0.8614 -0.3193 -0.2183
 7425SOL    HW134748   0.371   0.184   1.395 -1.7473  0.9146 -0.6999
 7425SOL    HW234749   0.280   0.055   1.436 -0.0879 -0.3326 -0.8975
 7426SOL     OW34750   1.588   5.651   2.481  0.2213  0.2663  0.4183
 7426SOL    HW134751   1.535   5.586   2.536  0.1392  0.0726  0.1110
 7426SOL    HW234752   1.669   5.605   2.444  0.2735  0.3960  0.3727
 7427SOL     OW34753   8.010   5.244   7.312  0.0973 -0.5091 -0.2014
 7427SOL    HW134754   7.992   5.311   7.241  1.3119  0.3701  0.3121
 7427SOL    HW234755   8.041   5.158   7.269  3.7970  0.9597 -0.6476
 7428SOL     OW34756   3.162   4.981   8.569  0.1493 -0.5423  0.1220
 7428SOL    HW134757   3.222   4.998   8.647  2.7225  0.0612 -1.8986
 7428SOL    HW234758   3.181   5.048   8.497 -3.5653  0.1733 -0.2966
 7429SOL     OW34759   1.045   5.260   0.395  0.3015 -0.0042 -0.2143
 7429SOL    HW134760   1.040   5.206   0.311  0.0865 -0.3430  0.0128
 7429SOL    HW234761   1.003   5.208   0.470  0.5243  0.2818  0.1083
 7430SOL     OW34762   4.255   5.621   7.304 -0.4363 -0.0235  0.3627
 7430SOL    HW134763   4.259   5.712   7.344 -0.6148  1.0083 -1.9097
 7430SOL    HW234764   4.162   5.586   7.308 -0.6510  0.4983 -0.0713
 7431SOL     OW34765   7.695   3.161   7.292  0.2645 -0.5766 -0.2405
 7431SOL    HW134766   7.635   3.241   7.287  0.4600 -0.4474 -0.4676
 7431SOL    HW234767   7.789   3.188   7.272  0.9757 -0.1603  3.3229
 7432SOL     OW34768   4.249   5.737   1.348  0.2808 -0.0114 -0.0824
 7432SOL    HW134769   4.230   5.648   1.390 -0.4539  0.3390  0.3490
 7432SOL    HW234770   4.328   5.778   1.393  1.2326 -0.8760 -0.9467
 7433SOL     OW34771   5.706   8.232   0.974  0.7192  0.1122  0.3541
 7433SOL    HW134772   5.656   8.159   1.023 -0.9152 -0.1547 -1.6484
 7433SOL    HW234773   5.695   8.318   1.023 -0.2654 -0.2945  0.8650
 7434SOL     OW34774   4.318   3.555   2.375 -0.6240  0.4093 -0.4704
 7434SOL    HW134775   4.242   3.491   2.367  0.8349 -1.4093 -0.1776
 7434SOL    HW234776   4.395   3.522   2.320  0.6704  1.1379  0.8853
 7435SOL     OW34777   4.233   6.715   7.082 -0.4949 -0.6050 -0.2027
 7435SOL    HW134778   4.319   6.695   7.034 -0.6368  0.4117 -0.8920
 7435SOL    HW234779   4.245   6.796   7.139 -0.1119 -2.2029  2.0836
 7436SOL     OW34780   3.335   2.361   0.018  0.3603 -0.2888  0.3252
 7436SOL    HW134781   3.405   2.329  -0.047  1.6605  1.6524  0.7211
 7436SOL    HW234782   3.366   2.342   0.111 -0.2394 -0.5896  0.4626
 7437SOL     OW34783   2.566   7.114   8.505 -0.0383 -0.0745  0.1598
 7437SOL    HW134784   2.483   7.078   8.547 -0.3585  0.0554 -0.3609
 7437SOL    HW234785   2.618   7.038   8.465  2.4474 -0.8265  4.5132
 7438SOL     OW34786   3.447   1.507   8.161  0.3190 -0.1195  0.3769
 7438SOL    HW134787   3.520   1.485   8.226 -0.7515  1.2123  2.0877
 7438SOL    HW234788   3.368   1.448   8.178 -0.3357  0.9045  0.9896
 7439SOL     OW34789   2.845   4.851   1.989  0.0201  0.6721 -0.0870
 7439SOL    HW134790   2.937   4.824   1.960 -0.7124 -1.5986 -0.4165
 7439SOL    HW234791   2.825   4.942   1.955  0.8326 -0.1948 -3.0654
 7440SOL     OW34792   8.301   7.940   4.666 -0.6885 -0.4643  0.1395
 7440SOL    HW134793   8.343   7.993   4.593  1.2435 -0.8940  0.8965
 7440SOL    HW234794   8.211   7.907   4.637 -1.1184  1.6539 -1.0081
 7441SOL     OW34795   3.633   8.650   7.282  0.4125  0.2872 -0.4675
 7441SOL    HW134796   3.608   8.554   7.270 -1.5525  0.7505 -0.1147
 7441SOL    HW234797   3.686   8.681   7.202  2.0016 -1.3811 -0.0763
 7442SOL     OW34798   0.156   1.494   1.764  0.5523  0.0651  0.2555
 7442SOL    HW134799   0.176   1.587   1.733 -0.3916  0.7403  1.6294
 7442SOL    HW234800   0.064   1.468   1.733  0.1199  0.2565  1.3745
 7443SOL     OW34801   2.678   3.374   4.581  0.2494 -0.3697 -0.1052
 7443SOL    HW134802   2.585   3.344   4.603  0.2722 -0.1169  0.3515
 7443SOL    HW234803   2.674   3.463   4.537  0.3883  0.6076  1.8011
 7444SOL     OW34804   2.365   8.500   7.080 -0.1536 -0.0616  0.0678
 7444SOL    HW134805   2.458   8.538   7.077 -0.1515 -0.1463 -1.4733
 7444SOL    HW234806   2.362   8.417   7.025 -0.5472 -1.4582  2.1433
 7445SOL     OW34807   4.913   4.684   6.194 -0.1638  0.1452  0.1174
 7445SOL    HW134808   4.947   4.635   6.274  0.4918  0.3091 -0.0558
 7445SOL    HW234809   4.984   4.685   6.123 -0.1946  1.2572  0.0878
 7446SOL     OW34810   2.845   0.414   6.720 -0.2603  0.0345 -0.0599
 7446SOL    HW134811   2.793   0.369   6.648  0.7542 -0.9747 -0.1850
 7446SOL    HW234812   2.851   0.512   6.701 -1.6887  0.0866 -0.2841
 7447SOL     OW34813   8.311   8.342   3.992  0.1771 -0.5816 -0.5611
 7447SOL    HW134814   8.327   8.433   3.953  1.7475 -1.2764 -1.6071
 7447SOL    HW234815   8.333   8.344   4.090 -0.8532  0.4287 -0.3425
 7448SOL     OW34816   7.374   7.400   6.027 -0.5212 -0.1134  0.3695
 7448SOL    HW134817   7.404   7.343   5.950 -2.4232  0.5933 -0.9252
 7448SOL    HW234818   7.275   7.407   6.027 -0.5105  0.2228  2.6901
 7449SOL     OW34819   3.793   4.162   1.846 -0.1586 -0.0351 -0.2818
 7449SOL    HW134820   3.772   4.178   1.942 -2.8718 -2.3823 -0.4126
 7449SOL    HW234821   3.892   4.148   1.835  0.1923  0.4084  2.1047
 7450SOL     OW34822   7.037   6.627   8.174  0.3585 -0.0638 -0.0243
 7450SOL    HW134823   6.978   6.707   8.178  0.1536 -0.1605 -0.9650
 7450SOL    HW234824   7.093   6.622   8.257 -2.0722 -0.8283  1.6116
 7451SOL     OW34825   0.133   8.247   0.259 -0.2507 -0.2188 -0.5743
 7451SOL    HW134826   0.075   8.171   0.230 -1.1779  1.0100 -1.9944
 7451SOL    HW234827   0.228   8.219   0.258 -0.7564 -2.2585  1.7465
 7452SOL     OW34828   8.741   7.086   8.384 -0.4183  0.5104  0.1391
 7452SOL    HW134829   8.762   7.010   8.324  1.1723  0.8951  0.1969
 7452SOL    HW234830   8.691   7.053   8.464 -0.7838 -0.2819 -0.4129
 7453SOL     OW34831   4.941   1.235   7.575 -0.5729 -0.3792 -0.3146
 7453SOL    HW134832   4.865   1.296   7.552 -2.1630 -2.3452 -0.4543
 7453SOL    HW234833   4.907   1.161   7.634  1.5939 -0.3757  1.0065
 7454SOL     OW34834   2.400   2.164   7.091  0.4725  0.4198  0.1721
 7454SOL    HW134835   2.381   2.106   7.012 -2.8610  1.7168 -0.0735
 7454SOL    HW234836   2.459   2.115   7.155 -1.6415 -2.9881 -0.3595
 7455SOL     OW34837   0.902   1.611   8.115  0.9868  0.2511  0.0037
 7455SOL    HW134838   0.844   1.679   8.160  1.6894  0.5910  0.4010
 7455SOL    HW234839   0.992   1.651   8.096  0.8776 -0.0526 -1.2241
 7456SOL     OW34840   8.976   6.412   8.318 -0.2041  0.0835  0.1017
 7456SOL    HW134841   9.021   6.494   8.354 -0.1432  0.4716 -0.8486
 7456SOL    HW234842   8.999   6.334   8.375 -0.8469  0.8610  1.4573
 7457SOL     OW34843   5.585   0.232   3.184  0.2411 -0.2801 -0.3095
 7457SOL    HW134844   5.496   0.229   3.137  0.0183 -0.7815  0.1352
 7457SOL    HW234845   5.579   0.295   3.262  0.0244 -0.9420  0.2163
 7458SOL     OW34846   3.027   5.305   3.047 -0.0132  0.1806  0.0718
 7458SOL    HW134847   3.006   5.399   3.073  0.3781 -0.2004  1.8727
 7458SOL    HW234848   3.105   5.272   3.100  0.2775 -0.9431 -1.0252
 7459SOL     OW34849   1.281   1.687   8.381 -0.2750  0.6134 -0.3259
 7459SOL    HW134850   1.250   1.621   8.313  2.1341 -0.1084 -0.8024
 7459SOL    HW234851   1.341   1.641   8.447  0.6394  2.1099 -0.0702
 7460SOL     OW34852   5.724   8.436   8.486  0.2188 -0.2965 -0.3881
 7460SOL    HW134853   5.726   8.447   8.585 -0.6796  0.8263 -0.4835
 7460SOL    HW234854   5.631   8.419   8.456  0.5204 -0.8437 -1.0210
 7461SOL     OW34855   1.330   1.347   4.450 -0.5370  0.0211  0.4758
 7461SOL    HW134856   1.335   1.371   4.547  1.6542 -0.4853  0.5264
 7461SOL    HW234857   1.410   1.384   4.403 -0.1707 -2.0450 -0.5956
 7462SOL     OW34858   2.949   2.647   7.208 -0.2680 -0.4419  0.6410
 7462SOL    HW134859   2.902   2.655   7.296 -0.9815  0.0555  0.2218
 7462SOL    HW234860   2.881   2.642   7.135  0.3451  0.7615 -0.0167
 7463SOL     OW34861   2.541   6.814   1.236 -0.2268 -0.1660 -0.2504
 7463SOL    HW134862   2.578   6.880   1.301 -0.2624 -0.2087 -0.1870
 7463SOL    HW234863   2.601   6.734   1.231  0.8886  0.7584 -1.8340
 7464SOL     OW34864   0.499   7.781   6.166 -0.2130  0.2696 -0.4671
 7464SOL    HW134865   0.498   7.685   6.196  0.7076  1.1458  2.5033
 7464SOL    HW234866   0.420   7.829   6.203  0.2229  1.0583 -0.5402
 7465SOL     OW34867   5.288   3.133   5.299 -0.3220 -0.1557  0.2447
 7465SOL    HW134868   5.377   3.164   5.333 -0.4335  1.2248 -0.6745
 7465SOL    HW234869   5.300   3.053   5.242  0.5900  1.2105 -1.5414
 7466SOL     OW34870   4.110   6.682   4.460 -0.3172 -0.4149  0.2209
 7466SOL    HW134871   4.203   6.715   4.447 -0.4356 -0.1603  0.0096
 7466SOL    HW234872   4.109   6.612   4.532 -0.2137  0.7113  1.3279
 7467SOL     OW34873   4.486   0.845   6.876 -0.0235 -0.5708 -0.1629
 7467SOL    HW134874   4.562   0.856   6.812 -0.1526 -0.6668 -0.3325
 7467SOL    HW234875   4.499   0.907   6.954 -2.1825  2.9056 -2.4295
 7468SOL     OW34876   7.685   8.295   1.294  0.1566 -0.1690 -0.1154
 7468SOL    HW134877   7.720   8.378   1.337 -2.8592  0.5366  1.1591
 7468SOL    HW234878   7.664   8.313   1.198 -0.6708  0.6124  0.2103
 7469SOL     OW34879   8.106   4.347   7.017  0.0745 -0.3430  0.3471
 7469SOL    HW134880   8.186   4.309   7.063  0.2742  0.2052  0.4421
 7469SOL    HW234881   8.099   4.444   7.036  0.3388 -0.0434 -1.0243
 7470SOL     OW34882   4.133   1.449   5.576 -0.3362 -0.2252 -0.0998
 7470SOL    HW134883   4.078   1.395   5.639  1.7894 -2.0724  0.2286
 7470SOL    HW234884   4.123   1.546   5.598 -2.3441 -0.6243  0.8287
 7471SOL     OW34885   4.128   7.073   3.361  0.2849  0.6247  0.0470
 7471SOL    HW134886   4.152   7.167   3.384 -0.4709  0.8674 -0.1614
 7471SOL    HW234887   4.129   7.017   3.444  1.2711  0.6947  0.0893
 7472SOL     OW34888   3.612   8.291   8.772  0.5463 -0.2103 -0.2264
 7472SOL    HW134889   3.593   8.372   8.716  0.2268 -0.2183 -0.1298
 7472SOL    HW234890   3.580   8.209   8.726  0.4067 -0.2305 -0.0943
 7473SOL     OW34891   0.324   2.786   3.026  0.1844  0.3098  0.0459
 7473SOL    HW134892   0.338   2.716   3.096  0.3645  1.4457  1.1560
 7473SOL    HW234893   0.375   2.760   2.943  2.9612  0.7327  1.5532
 7474SOL     OW34894   1.551   4.631   4.653 -0.2707 -0.2653 -0.0205
 7474SOL    HW134895   1.606   4.595   4.578 -0.5518 -0.6123 -0.0607
 7474SOL    HW234896   1.458   4.648   4.621 -0.3407 -0.2345  0.1974
 7475SOL     OW34897   3.376   3.735   1.828 -1.1367  0.2259 -0.2878
 7475SOL    HW134898   3.298   3.721   1.889 -0.8055 -1.9583 -0.3155
 7475SOL    HW234899   3.352   3.706   1.736 -0.1625 -0.9361 -0.1937
 7476SOL     OW34900   3.827   6.018   7.957 -0.7879  0.1661  0.6185
 7476SOL    HW134901   3.741   5.969   7.960 -2.2512  2.6412  0.6625
 7476SOL    HW234902   3.854   6.033   7.862 -0.9814  0.3797  0.5983
 7477SOL     OW34903   0.468   0.100   0.061 -0.5718 -0.6048  0.0949
 7477SOL    HW134904   0.429   0.059  -0.022 -0.6162 -0.7307  0.1757
 7477SOL    HW234905   0.472   0.030   0.133 -0.3943 -0.5353  0.1519
 7478SOL     OW34906   2.310   2.109   8.458  0.3630 -0.5201  0.1077
 7478SOL    HW134907   2.259   2.152   8.532  2.5858  1.3287  0.6339
 7478SOL    HW234908   2.325   2.013   8.479 -2.1593 -0.8918  0.3202
 7479SOL     OW34909   2.101   7.546   3.162 -0.3217  0.2343 -0.0878
 7479SOL    HW134910   2.033   7.514   3.229  0.0564 -0.3144  0.0326
 7479SOL    HW234911   2.182   7.487   3.165  0.9597  1.9794  1.1102
 7480SOL     OW34912   6.464   7.020   6.414  0.0062 -0.3591 -0.3557
 7480SOL    HW134913   6.490   6.930   6.448 -1.9873  0.2476  2.9484
 7480SOL    HW234914   6.505   7.034   6.324  1.8139 -3.8227 -0.1668
 7481SOL     OW34915   5.195   0.890   7.811 -0.2995 -0.3124  0.0331
 7481SOL    HW134916   5.143   0.838   7.879 -0.7856 -1.1026 -0.9197
 7481SOL    HW234917   5.280   0.924   7.852 -1.2232  0.4049  1.4227
 7482SOL     OW34918   4.907   4.939   6.320  0.8426  0.2866  0.4397
 7482SOL    HW134919   4.993   4.981   6.349  1.0921  0.2832 -0.2959
 7482SOL    HW234920   4.923   4.842   6.301  0.3445 -0.0775  1.7885
 7483SOL     OW34921   1.220   0.072   1.054  0.6180 -0.7001 -0.5400
 7483SOL    HW134922   1.220  -0.012   0.999  1.4307 -0.8619 -0.2991
 7483SOL    HW234923   1.157   0.138   1.014 -0.3794 -1.5954 -0.4707
 7484SOL     OW34924   3.536   5.558   5.341 -0.5082  0.3750 -0.1679
 7484SOL    HW134925   3.570   5.651   5.326  4.7766 -1.1974  0.9441
 7484SOL    HW234926   3.512   5.547   5.438 -1.4506  0.6475 -0.3654
 7485SOL     OW34927   4.628   6.077   4.297  0.4478 -0.1903 -0.2908
 7485SOL    HW134928   4.680   6.060   4.213 -1.6895 -1.7258 -1.3560
 7485SOL    HW234929   4.589   5.992   4.330 -1.4116  0.9224  0.4567
 7486SOL     OW34930   1.900   4.570   6.259  0.8893 -0.3176  0.1663
 7486SOL    HW134931   1.945   4.482   6.244 -0.1785 -1.0499  1.1760
 7486SOL    HW234932   1.801   4.558   6.253  0.7788  1.0211 -0.7044
 7487SOL     OW34933   4.072   1.893   1.392  0.2601 -0.5638 -0.0005
 7487SOL    HW134934   4.038   1.889   1.298  1.1666  0.1067 -0.3629
 7487SOL    HW234935   4.172   1.890   1.391  0.3270  0.8827  0.8630
 7488SOL     OW34936   2.571   8.009   1.928 -0.4646 -0.3704  0.7805
 7488SOL    HW134937   2.551   7.951   2.007 -0.4690  0.5247  1.4417
 7488SOL    HW234938   2.486   8.044   1.889 -0.4241 -0.2682  0.7847
 7489SOL     OW34939   2.452   2.193   8.238 -0.0449  0.0322 -0.1943
 7489SOL    HW134940   2.550   2.201   8.226  0.0225 -0.7254 -0.2006
 7489SOL    HW234941   2.431   2.173   8.334 -0.1533 -0.2764 -0.2788
 7490SOL     OW34942   3.924   7.495   0.378 -0.0504 -0.0191  0.4929
 7490SOL    HW134943   3.825   7.484   0.369  0.0728  0.3151 -1.5565
 7490SOL    HW234944   3.959   7.547   0.300  1.5664  1.0775  1.9011
 7491SOL     OW34945   2.342   3.917   2.285 -0.3056 -0.4046  0.2340
 7491SOL    HW134946   2.376   3.845   2.346 -0.3190 -0.6829 -0.0851
 7491SOL    HW234947   2.403   3.925   2.206 -0.7166 -0.5715 -0.0988
 7492SOL     OW34948   6.136   4.707   3.068  0.1291  0.0776 -0.6342
 7492SOL    HW134949   6.119   4.646   3.146 -0.5036  0.7105 -0.2772
 7492SOL    HW234950   6.165   4.652   2.990 -1.1898 -0.7807 -0.5404
 7493SOL     OW34951   1.080   1.045   2.077  0.0343  0.5317 -0.2897
 7493SOL    HW134952   1.029   0.980   2.021 -0.8725  2.0408 -1.2525
 7493SOL    HW234953   1.016   1.107   2.122  0.9913  2.3772 -1.4166
 7494SOL     OW34954   3.136   4.389   3.677 -0.2006 -0.3464 -0.3936
 7494SOL    HW134955   3.218   4.331   3.685  0.1359 -0.1970 -2.4620
 7494SOL    HW234956   3.075   4.372   3.754  1.4548 -0.9901  0.7940
 7495SOL     OW34957   4.916   8.139   8.200  0.2346 -0.7893 -0.3426
 7495SOL    HW134958   4.866   8.135   8.287  0.7697 -0.0913  0.0079
 7495SOL    HW234959   4.854   8.172   8.128  0.2326  0.2790  0.1353
 7496SOL     OW34960   6.239   3.220   0.240 -0.7244  0.2453 -0.0605
 7496SOL    HW134961   6.159   3.275   0.219 -0.2256  1.5005  1.2482
 7496SOL    HW234962   6.255   3.221   0.339  1.3931  0.7114 -0.3808
 7497SOL     OW34963   3.958   6.879   7.111 -0.1880 -0.2798 -0.2301
 7497SOL    HW134964   3.864   6.883   7.075 -0.2134 -1.3923 -0.3261
 7497SOL    HW234965   3.970   6.792   7.160  1.7689 -1.6262 -2.9978
 7498SOL     OW34966   6.926   3.876   8.282  0.2898 -0.2841  0.2769
 7498SOL    HW134967   6.976   3.962   8.268  0.6567 -0.7295 -1.2363
 7498SOL    HW234968   6.977   3.818   8.345  1.0629 -0.2190 -0.2776
 7499SOL     OW34969   0.360   4.293   0.598 -0.4230  0.0242 -0.4386
 7499SOL    HW134970   0.332   4.388   0.586 -0.3587  0.0581 -0.3231
 7499SOL    HW234971   0.315   4.236   0.529 -0.3428  0.1618 -0.6048
 7500SOL     OW34972   7.221   0.292   6.012  0.1608  0.2743  0.1245
 7500SOL    HW134973   7.243   0.270   6.107  0.5542 -2.6316 -0.5691
 7500SOL    HW234974   7.231   0.390   5.997  3.0988  0.3902  2.3038
 7501SOL     OW34975   0.423   8.226   7.089 -0.1601  0.6105 -0.1143
 7501SOL    HW134976   0.407   8.232   6.990  0.3207  2.4672 -0.0906
 7501SOL    HW234977   0.436   8.130   7.114  1.4468  0.2678 -2.1117
 7502SOL     OW34978   2.034   6.620   1.329 -0.5654 -0.5485 -0.9045
 7502SOL    HW134979   2.011   6.522   1.337 -0.6734 -0.4526  0.0323
 7502SOL    HW234980   2.126   6.629   1.292 -0.8024 -0.9935 -1.6223
 7503SOL     OW34981   5.464   7.832   5.998  1.1573 -0.2568 -0.2314
 7503SOL    HW134982   5.435   7.902   6.064  1.0097  0.0790 -0.6453
 7503SOL    HW234983   5.437   7.742   6.031 -1.8041  0.1628 -1.3367
 7504SOL     OW34984   6.763   1.459   1.233 -0.3621  0.3472 -0.0988
 7504SOL    HW134985   6.726   1.548   1.260  0.2548  0.9576 -1.2196
 7504SOL    HW234986   6.858   1.471   1.203 -0.4912 -0.5793 -0.8899
 7505SOL     OW34987   6.253   5.636   6.782 -0.3601  0.5000  0.2174
 7505SOL    HW134988   6.312   5.704   6.739  0.2229  0.5427  1.0558
 7505SOL    HW234989   6.299   5.599   6.863 -1.6205  0.7744  1.0803
 7506SOL     OW34990   6.673   1.607   0.266  0.0822 -0.4164 -0.4095
 7506SOL    HW134991   6.712   1.674   0.329 -1.7116 -0.2876  0.5949
 7506SOL    HW234992   6.726   1.522   0.270  1.2213  0.3011 -0.2747
 7507SOL     OW34993   3.087   3.811   5.512  0.2654 -0.1938 -0.1973
 7507SOL    HW134994   3.184   3.802   5.490  0.6549  2.1501  0.4339
 7507SOL    HW234995   3.061   3.908   5.511 -1.5116 -0.6093  1.9304
 7508SOL     OW34996   0.675   7.990   6.148  0.2492 -0.0912  0.2016
 7508SOL    HW134997   0.732   7.973   6.067 -0.2394 -0.4722 -0.0647
 7508SOL    HW234998   0.605   7.918   6.155  0.1305  0.0857  0.8190
 7509SOL     OW34999   3.148   6.615   0.717 -0.2402 -0.4588  0.2902
 7509SOL    HW135000   3.247   6.628   0.718 -0.1989 -0.6760 -0.6125
 7509SOL    HW235001   3.124   6.535   0.773 -0.0688  0.6023  1.9009
 7510SOL     OW35002   5.400   1.132   0.110  0.1610 -0.0620 -0.2050
 7510SOL    HW135003   5.394   1.165   0.016  0.2311 -0.0427 -0.2027
 7510SOL    HW235004   5.376   1.205   0.174  2.9050  0.7978 -0.0814
 7511SOL     OW35005   5.672   8.781   8.506 -0.0839  0.2929 -0.1040
 7511SOL    HW135006   5.611   8.757   8.430 -1.5470 -0.3328  1.2365
 7511SOL    HW235007   5.767   8.767   8.478 -0.5802  0.3670 -1.9144
 7512SOL     OW35008   0.867   0.960   8.742  0.7017  0.6930  0.3298
 7512SOL    HW135009   0.895   0.952   8.646 -4.7522  1.3882 -1.4644
 7512SOL    HW235010   0.892   1.051   8.776  0.8613  1.1805 -1.0564
 7513SOL     OW35011   1.302   4.935   1.268 -0.6329 -0.2144 -0.2384
 7513SOL    HW135012   1.377   4.914   1.331 -0.1563  0.3863 -0.5998
 7513SOL    HW235013   1.299   4.866   1.195  0.1880  0.3067 -0.7692
 7514SOL     OW35014   1.715   5.453   4.677 -0.4360  0.2269  0.2510
 7514SOL    HW135015   1.802   5.407   4.660 -0.8823  0.0911 -1.7471
 7514SOL    HW235016   1.732   5.543   4.719  0.5883 -0.3566  1.0972
 7515SOL     OW35017   2.203   5.407   3.243 -0.4337  0.0377 -0.0616
 7515SOL    HW135018   2.266   5.435   3.316  0.0051 -0.9498 -0.0539
 7515SOL    HW235019   2.126   5.470   3.240 -0.6354 -0.1176  1.4840
 7516SOL     OW35020   0.047   6.598   6.941  0.1286 -0.3099  0.3325
 7516SOL    HW135021  -0.023   6.662   6.973  0.4716  0.2113  0.0492
 7516SOL    HW235022   0.021   6.564   6.851 -0.5757 -1.3758  0.9303
 7517SOL     OW35023   5.671   7.414   0.743  0.8235  0.6412  0.4928
 7517SOL    HW135024   5.622   7.431   0.657 -0.5568 -0.3179  1.0654
 7517SOL    HW235025   5.744   7.347   0.727 -0.6477 -0.9986  0.4206
 7518SOL     OW35026   2.998   6.977   7.021 -0.2194  0.7549 -0.2369
 7518SOL    HW135027   3.071   7.012   6.964  1.6179 -0.8500  1.0668
 7518SOL    HW235028   2.986   7.037   7.101  0.7555  0.1591  0.3600
 7519SOL     OW35029   3.798   6.884   0.678 -0.3066 -0.3449  0.1701
 7519SOL    HW135030   3.719   6.938   0.707  0.1345 -0.0249  0.7777
 7519SOL    HW235031   3.873   6.896   0.743 -0.4516 -2.2815  0.7238
 7520SOL     OW35032   5.691   7.633   2.357 -0.1076  0.2445 -0.6425
 7520SOL    HW135033   5.727   7.579   2.433 -2.5376  0.4467  0.7184
 7520SOL    HW235034   5.735   7.723   2.357 -0.4159  0.4156  0.8248
 7521SOL     OW35035   3.649   1.457   7.247 -0.2260 -0.4811  0.0480
 7521SOL    HW135036   3.576   1.454   7.315 -1.0569 -1.9348 -0.8863
 7521SOL    HW235037   3.711   1.533   7.268 -2.2497  1.0507  0.5686
 7522SOL     OW35038   0.873   4.547   3.175  0.3322  0.0187  0.1506
 7522SOL    HW135039   0.902   4.451   3.181 -0.2207 -0.1385  0.4231
 7522SOL    HW235040   0.847   4.568   3.081  0.2868 -0.1509  0.1245
 7523SOL     OW35041   4.943   2.028   2.038 -0.4446  0.5059  0.0820
 7523SOL    HW135042   5.001   2.074   1.971 -0.2360  0.4337  0.2129
 7523SOL    HW235043   4.966   1.931   2.041 -0.7427  0.4309 -0.0446
 7524SOL     OW35044   8.319   7.084   0.656 -0.3126 -0.9853 -0.3858
 7524SOL    HW135045   8.322   7.079   0.556  0.6432 -2.4457 -0.3004
 7524SOL    HW235046   8.280   7.171   0.684 -0.4328 -0.4961 -2.0393
 7525SOL     OW35047   6.841   3.346   1.092 -0.8380 -0.5378  0.1396
 7525SOL    HW135048   6.934   3.316   1.074 -0.0752  1.4248  0.7009
 7525SOL    HW235049   6.798   3.375   1.006  0.3513  2.0506  0.3811
 7526SOL     OW35050   4.530   4.812   2.399  0.2842  0.0881  0.0746
 7526SOL    HW135051   4.440   4.824   2.442  1.3769  1.0946  2.1148
 7526SOL    HW235052   4.589   4.759   2.459  1.5676  0.7948 -0.5472
 7527SOL     OW35053   2.879   2.593   5.163 -0.1003 -0.1955  0.3547
 7527SOL    HW135054   2.960   2.566   5.216  1.7962  1.5404 -1.5747
 7527SOL    HW235055   2.862   2.691   5.176  1.3219  0.6215 -3.3131
 7528SOL     OW35056   2.368   1.883   0.248  0.3226 -0.3308 -0.2236
 7528SOL    HW135057   2.364   1.784   0.235 -1.6055 -0.2602 -0.3251
 7528SOL    HW235058   2.457   1.917   0.217  0.0867 -1.6963 -2.5606
 7529SOL     OW35059   1.726   0.553   1.188 -0.4957  0.2632  0.2045
 7529SOL    HW135060   1.798   0.502   1.234 -0.1606  1.4329  0.9821
 7529SOL    HW235061   1.717   0.644   1.229  0.6945  1.8185 -2.8866
 7530SOL     OW35062   6.195   4.786   7.923 -0.3977 -0.0851 -0.2399
 7530SOL    HW135063   6.271   4.792   7.988 -0.6252 -1.7931  0.2061
 7530SOL    HW235064   6.126   4.854   7.946  0.6747  1.0072 -0.2214
 7531SOL     OW35065   2.461   4.236   5.304  0.1415 -0.7632 -0.9471
 7531SOL    HW135066   2.468   4.321   5.252  1.1765  0.2122  0.7678
 7531SOL    HW235067   2.393   4.246   5.376 -1.0487 -2.0036 -1.8825
 7532SOL     OW35068   0.959   0.943   8.446 -0.1989 -0.0764 -0.8974
 7532SOL    HW135069   1.020   0.947   8.366  0.7600  0.7541 -0.1439
 7532SOL    HW235070   0.892   1.017   8.440  0.5300  0.6370 -0.4326
 7533SOL     OW35071   7.348   6.102   4.674  0.0063  0.1090  0.2193
 7533SOL    HW135072   7.308   6.095   4.583  0.6772 -1.2440  0.0213
 7533SOL    HW235073   7.443   6.070   4.672 -0.1693 -0.5409  1.5171
 7534SOL     OW35074   7.416   3.700   6.325 -0.6169 -0.3723 -0.1018
 7534SOL    HW135075   7.463   3.783   6.296  0.4320 -0.8369  0.2394
 7534SOL    HW235076   7.358   3.667   6.251  0.6341 -0.5343 -1.0110
 7535SOL     OW35077   0.056   2.867   2.986  0.5094  0.0316  0.0864
 7535SOL    HW135078   0.149   2.835   3.007  0.3149 -0.6545 -0.0716
 7535SOL    HW235079   0.003   2.791   2.949  0.3262  0.8079 -1.2418
 7536SOL     OW35080   0.875   4.119   3.874  0.1215  0.1201  0.2200
 7536SOL    HW135081   0.925   4.033   3.883 -0.7092 -0.0858  3.8503
 7536SOL    HW235082   0.822   4.119   3.790  0.7380 -2.6032 -0.1915
 7537SOL     OW35083   6.951   6.075   6.313 -0.4048 -0.2374  0.0006
 7537SOL    HW135084   6.900   6.004   6.263  0.7921 -1.8118  0.9514
 7537SOL    HW235085   7.049   6.053   6.311 -0.1395  0.7942  1.2499
 7538SOL     OW35086   8.219   6.742   5.936 -0.1912  0.3734  0.0854
 7538SOL    HW135087   8.235   6.782   5.846 -1.4238  1.2669  0.2567
 7538SOL    HW235088   8.212   6.642   5.927  0.8258  0.3551 -0.6288
 7539SOL     OW35089   4.510   8.821   5.367  0.6825 -0.0210  0.1862
 7539SOL    HW135090   4.491   8.817   5.465 -0.5756 -0.6418 -0.0802
 7539SOL    HW235091   4.572   8.747   5.342  0.7899 -0.0250  0.4576
 7540SOL     OW35092   7.344   6.135   6.389  0.4759  0.6871 -0.5262
 7540SOL    HW135093   7.404   6.162   6.465 -0.7314 -0.0315  0.7075
 7540SOL    HW235094   7.332   6.036   6.390  0.5897  0.6562 -1.7806
 7541SOL     OW35095   4.799   0.459   6.083  0.5357  0.5210 -0.1092
 7541SOL    HW135096   4.796   0.359   6.080  0.9475  0.5150 -0.4057
 7541SOL    HW235097   4.820   0.495   5.992 -0.9363  0.9366 -0.3080
 7542SOL     OW35098   1.289   3.056   8.160  0.3029  0.0945  0.1497
 7542SOL    HW135099   1.370   3.011   8.197  0.4174 -0.1750 -0.4246
 7542SOL    HW235100   1.241   2.993   8.098  1.3499  1.2965 -1.9285
 7543SOL     OW35101   2.059   5.291   0.697 -0.6203 -0.7745  0.4685
 7543SOL    HW135102   1.969   5.335   0.704 -1.0979 -1.0956 -2.8849
 7543SOL    HW235103   2.121   5.349   0.644 -0.0214 -2.2176 -0.4629
 7544SOL     OW35104   5.653   4.295   1.729  0.5935 -0.3980 -0.3346
 7544SOL    HW135105   5.723   4.231   1.761  0.6930 -0.2264 -0.2092
 7544SOL    HW235106   5.626   4.271   1.636  0.3411 -0.8696 -0.1440
 7545SOL     OW35107   3.772   4.952   0.350  0.1449 -0.4178 -0.0563
 7545SOL    HW135108   3.820   4.896   0.418  1.5091  0.9489  0.1457
 7545SOL    HW235109   3.786   5.049   0.371 -1.3234  0.0113 -0.9868
 7546SOL     OW35110   1.934   4.381   7.275  0.4412 -0.2218  0.1243
 7546SOL    HW135111   1.887   4.467   7.296 -0.8495 -1.3978  2.2251
 7546SOL    HW235112   2.009   4.368   7.340 -0.7184 -1.6959  1.1970
 7547SOL     OW35113   0.706   7.518   2.417 -0.2418 -0.4991  0.4328
 7547SOL    HW135114   0.687   7.614   2.434 -2.7533 -0.8544 -0.0617
 7547SOL    HW235115   0.683   7.464   2.498  0.1409 -0.7918  0.3481
 7548SOL     OW35116   5.678   4.306   2.134 -0.0566  0.5291 -0.1352
 7548SOL    HW135117   5.741   4.373   2.094 -0.2358  1.1932  0.6714
 7548SOL    HW235118   5.627   4.260   2.061  1.9300 -0.5879 -0.8338
 7549SOL     OW35119   3.846   0.307   5.115  0.0329  0.1573 -0.3658
 7549SOL    HW135120   3.861   0.283   5.211  0.0054 -0.2258 -0.4558
 7549SOL    HW235121   3.844   0.224   5.060 -0.6649  0.3266 -0.6018
 7550SOL     OW35122   1.289   0.340   7.252 -0.4119 -0.6817  0.2700
 7550SOL    HW135123   1.251   0.428   7.281  0.9245 -0.3259  1.0006
 7550SOL    HW235124   1.279   0.273   7.326 -2.6581 -1.5435 -0.7818
 7551SOL     OW35125   6.112   5.430   4.155  0.5926 -0.0835 -0.2964
 7551SOL    HW135126   6.154   5.349   4.196 -0.9873  0.9827  3.6966
 7551SOL    HW235127   6.017   5.411   4.133  0.2730  0.6004  0.4601
 7552SOL     OW35128   7.057   5.170   3.644 -0.3811 -0.1166  0.2818
 7552SOL    HW135129   7.030   5.073   3.646  2.2499 -0.9815 -2.6291
 7552SOL    HW235130   7.055   5.203   3.550  1.1569  1.9924  0.9509
 7553SOL     OW35131   3.501   6.326   4.298  0.0219 -0.1663  0.1303
 7553SOL    HW135132   3.526   6.340   4.394  2.2497  0.1289 -0.4455
 7553SOL    HW235133   3.499   6.228   4.278 -2.4646 -0.3150  0.9429
 7554SOL     OW35134   2.137   6.569   2.583  0.3389  0.1043  0.3413
 7554SOL    HW135135   2.113   6.666   2.576  2.3437  0.7587  2.1363
 7554SOL    HW235136   2.083   6.528   2.657  1.9218  0.6682  1.8278
 7555SOL     OW35137   5.267   5.934   4.314 -0.1071  0.5534  0.0661
 7555SOL    HW135138   5.285   5.977   4.403  1.1675  1.9114 -0.8107
 7555SOL    HW235139   5.192   5.982   4.269 -0.9384 -0.3123  0.5186
 7556SOL     OW35140   8.890   2.404   5.424  0.1245 -0.0879 -0.3846
 7556SOL    HW135141   8.833   2.386   5.344  0.1500 -0.6600 -0.2745
 7556SOL    HW235142   8.985   2.378   5.404  0.4337  1.2773 -0.7202
 7557SOL     OW35143   0.039   4.579   0.709  0.2049 -0.6759 -0.0924
 7557SOL    HW135144   0.098   4.500   0.724 -0.9823 -1.8578 -1.4403
 7557SOL    HW235145   0.086   4.662   0.738  2.3982 -1.6213 -0.8358
 7558SOL     OW35146   3.520   2.036   5.936 -0.2293 -0.1518  0.2883
 7558SOL    HW135147   3.472   1.950   5.919 -0.1300 -0.5046  1.7377
 7558SOL    HW235148   3.530   2.049   6.034 -1.6844  2.3287  0.1365
 7559SOL     OW35149   8.386   6.974   5.535  0.1457 -0.4478  0.3141
 7559SOL    HW135150   8.383   7.058   5.589  0.5311  0.0960 -0.5055
 7559SOL    HW235151   8.473   6.927   5.551 -0.6330 -1.4348  1.8598
 7560SOL     OW35152   3.708   2.905   3.468  0.1630  1.1899 -0.2760
 7560SOL    HW135153   3.711   2.925   3.566 -2.4598 -2.2528  0.6301
 7560SOL    HW235154   3.790   2.854   3.442  0.3536  1.1429  0.3919
 7561SOL     OW35155   1.449   1.006   7.779 -0.3801  0.3960 -0.3679
 7561SOL    HW135156   1.368   1.014   7.721  0.0440  0.6761 -0.9145
 7561SOL    HW235157   1.492   1.095   7.789  0.2212  0.1272 -0.5857
 7562SOL     OW35158   0.895   0.599   4.316 -0.1515  0.2906 -0.0135
 7562SOL    HW135159   0.844   0.519   4.346  0.8649 -0.3732 -0.0203
 7562SOL    HW235160   0.904   0.597   4.216 -1.3467  1.1689 -0.1532
 7563SOL     OW35161   6.832   3.817   0.004  0.1602  0.1921  0.2988
 7563SOL    HW135162   6.745   3.827   0.053 -0.1175  0.2967 -0.2129
 7563SOL    HW235163   6.814   3.784  -0.089  0.7148 -0.4162  0.4018
 7564SOL     OW35164   3.990   6.335   1.833 -0.8099  0.4143  0.5138
 7564SOL    HW135165   3.944   6.334   1.922  0.7061  2.3145  1.3315
 7564SOL    HW235166   3.985   6.243   1.792 -1.2476 -0.5525  2.6822
 7565SOL     OW35167   3.404   7.583   0.353  0.3449  0.9972 -0.3814
 7565SOL    HW135168   3.486   7.610   0.403  0.6021  0.0355 -0.2707
 7565SOL    HW235169   3.378   7.490   0.379 -0.0297  0.8169 -1.3745
 7566SOL     OW35170   8.580   2.281   7.406  0.3634 -0.1988 -0.4204
 7566SOL    HW135171   8.505   2.330   7.452 -0.2327 -1.7166  0.2450
 7566SOL    HW235172   8.549   2.253   7.315  0.4116 -0.0812 -0.4728
 7567SOL     OW35173   1.164   8.696   4.647  0.0731 -0.3822  0.0244
 7567SOL    HW135174   1.218   8.777   4.672  0.0238 -0.4329  0.2956
 7567SOL    HW235175   1.122   8.657   4.729  1.4573 -1.6766  0.1449
 7568SOL     OW35176   4.698   1.555   6.134  0.2634  0.2386  0.4815
 7568SOL    HW135177   4.777   1.499   6.161 -0.5640 -1.1088  0.1694
 7568SOL    HW235178   4.649   1.509   6.059  0.5513  2.2359 -0.9814
 7569SOL     OW35179   2.305   3.782   3.298 -0.0280 -0.3084  0.3414
 7569SOL    HW135180   2.358   3.740   3.371 -0.7252 -2.5525 -0.4180
 7569SOL    HW235181   2.346   3.760   3.210  0.6656  2.1806 -0.0194
 7570SOL     OW35182   4.565   5.194   7.204  0.3652 -0.0922 -0.1244
 7570SOL    HW135183   4.502   5.118   7.199 -0.6102  0.6276  0.9640
 7570SOL    HW235184   4.514   5.280   7.216  1.5034  0.5572  0.2110
 7571SOL     OW35185   1.446   1.742   6.989  0.5180  0.6379 -0.1394
 7571SOL    HW135186   1.352   1.716   7.011  0.1182  3.3540  1.7544
 7571SOL    HW235187   1.507   1.711   7.063  0.5387  2.0161  0.4357
 7572SOL     OW35188   5.520   7.016   0.579 -0.1745  0.0150  0.6185
 7572SOL    HW135189   5.499   6.968   0.494  3.6020 -0.9863  0.1555
 7572SOL    HW235190   5.505   7.114   0.567 -1.9598 -0.3652 -0.4065
 7573SOL     OW35191   2.132   6.899   7.566 -0.4260 -0.2349  0.1053
 7573SOL    HW135192   2.033   6.894   7.581 -0.4567  2.6736  1.2088
 7573SOL    HW235193   2.152   6.969   7.497  0.8325 -1.2686 -0.5954
 7574SOL     OW35194   6.311   7.955   3.272 -0.5110 -0.4642 -0.4196
 7574SOL    HW135195   6.334   8.049   3.249  0.4358 -0.2740  1.2855
 7574SOL    HW235196   6.376   7.893   3.229  0.2604 -0.2025  0.3593
 7575SOL     OW35197   0.699   2.304   7.802 -0.7173 -0.1833  0.2363
 7575SOL    HW135198   0.779   2.331   7.856  0.9004 -0.2605 -2.0184
 7575SOL    HW235199   0.675   2.209   7.822 -1.1754  0.3030  2.0172
 7576SOL     OW35200   4.814   0.168   2.040 -0.0420 -0.7440 -0.1189
 7576SOL    HW135201   4.718   0.140   2.034 -0.3694  0.4480 -0.5556
 7576SOL    HW235202   4.872   0.094   2.007 -0.8554 -1.1950 -0.5548
 7577SOL     OW35203   2.392   2.260   3.895 -0.0064  0.2507  0.4097
 7577SOL    HW135204   2.340   2.197   3.837 -0.3163 -0.3378  1.3091
 7577SOL    HW235205   2.470   2.296   3.844 -0.3860 -0.1138 -0.4298
 7578SOL     OW35206   1.041   5.253   7.627 -0.5697  0.1682 -0.7144
 7578SOL    HW135207   1.117   5.318   7.619  0.3086 -0.6936  0.5608
 7578SOL    HW235208   0.981   5.282   7.701  0.6817 -1.3059  0.9226
 7579SOL     OW35209   6.217   6.849   8.873 -0.5249 -0.0001 -0.0741
 7579SOL    HW135210   6.242   6.754   8.853  1.0268 -0.0487  1.8250
 7579SOL    HW235211   6.196   6.857   8.970  1.8050  2.0493  0.3184
 7580SOL     OW35212   8.596   0.116   6.949 -0.2299  0.0815 -0.5550
 7580SOL    HW135213   8.508   0.134   6.905 -0.9339  1.3652  1.3111
 7580SOL    HW235214   8.587   0.037   7.010  0.2429 -0.5185 -1.2517
 7581SOL     OW35215   2.503   8.099   2.402  0.0239 -0.1595 -0.8485
 7581SOL    HW135216   2.415   8.135   2.431  0.0302  0.3262 -1.4353
 7581SOL    HW235217   2.556   8.170   2.357  0.4756 -0.6101 -1.0434
 7582SOL     OW35218   4.259   1.643   0.038 -0.2277 -0.2361  0.4127
 7582SOL    HW135219   4.280   1.595   0.124 -1.6970  2.6167  2.4369
 7582SOL    HW235220   4.202   1.584  -0.019 -0.5634 -1.5877  2.0738
 7583SOL     OW35221   4.956   3.018   2.973  0.1546  0.5013  0.2423
 7583SOL    HW135222   4.954   3.110   2.933  0.5340  1.0321  1.4207
 7583SOL    HW235223   4.953   3.026   3.073 -0.0455 -0.7810  0.3370
 7584SOL     OW35224   8.662   7.622   6.036  0.4837  0.0616 -0.6511
 7584SOL    HW135225   8.688   7.570   6.118 -0.1605  1.1894  0.2694
 7584SOL    HW235226   8.745   7.656   5.991  0.7322  1.6565  0.9866
 7585SOL     OW35227   3.563   4.343   5.760  0.6610  0.2578 -0.1083
 7585SOL    HW135228   3.468   4.366   5.783  0.6290 -0.1137  0.1422
 7585SOL    HW235229   3.605   4.420   5.711 -0.0898  0.0202 -1.1558
 7586SOL     OW35230   6.365   5.819   6.588  0.1816 -0.0472 -0.0884
 7586SOL    HW135231   6.410   5.899   6.548 -0.6367  0.1010 -0.7395
 7586SOL    HW235232   6.266   5.828   6.575 -0.0278 -0.3793  1.3004
 7587SOL     OW35233   2.847   7.885   5.264 -0.4979 -0.1058 -0.2474
 7587SOL    HW135234   2.828   7.933   5.350 -1.0668 -1.9540  0.6861
 7587SOL    HW235235   2.761   7.870   5.215 -0.1423  1.1844 -1.2861
 7588SOL     OW35236   3.513   1.368   6.438  0.2314  0.2158  0.1993
 7588SOL    HW135237   3.510   1.295   6.506 -0.6495 -0.6286 -0.7361
 7588SOL    HW235238   3.440   1.355   6.371  1.5130  0.6143 -1.3253
 7589SOL     OW35239   3.372   4.272   6.556  0.2990 -0.3029 -0.2634
 7589SOL    HW135240   3.325   4.184   6.544  1.2095 -0.5744 -1.8620
 7589SOL    HW235241   3.318   4.330   6.619 -0.6532 -1.7238  0.2552
 7590SOL     OW35242   3.385   3.247   3.205 -0.0489  0.1391  0.2492
 7590SOL    HW135243   3.444   3.302   3.264  1.2129 -1.6667  0.7387
 7590SOL    HW235244   3.342   3.175   3.260  1.0881 -1.5320 -0.9775
 7591SOL     OW35245   3.163   5.220   0.504  0.0237 -0.5679  0.2442
 7591SOL    HW135246   3.127   5.289   0.568 -0.6735 -0.8532  0.1610
 7591SOL    HW235247   3.182   5.136   0.554  0.4856 -0.4499  0.2694
 7592SOL     OW35248   4.481   4.271   2.131 -0.4243  0.4231  0.1509
 7592SOL    HW135249   4.557   4.238   2.186  1.1411  1.8197 -1.1181
 7592SOL    HW235250   4.430   4.341   2.181 -0.5434 -0.1046  0.7739
 7593SOL     OW35251   6.260   6.194   3.742  0.4323  0.0060 -0.3738
 7593SOL    HW135252   6.354   6.161   3.752 -0.0295 -1.2744 -0.1736
 7593SOL    HW235253   6.238   6.206   3.645  0.6287 -0.2232 -0.4465
 7594SOL     OW35254   6.324   3.847   8.832  0.0248  0.0973 -0.0736
 7594SOL    HW135255   6.342   3.755   8.799  1.5625  1.0942 -2.0900
 7594SOL    HW235256   6.244   3.885   8.785 -0.1820  0.0683  0.2474
 7595SOL     OW35257   3.531   2.638   2.428  0.0317  0.3650  0.1074
 7595SOL    HW135258   3.495   2.659   2.337 -4.5501 -0.6304  1.5774
 7595SOL    HW235259   3.495   2.704   2.495  1.2018 -0.5275  1.6637
 7596SOL     OW35260   5.317   0.145   5.353  0.2597 -0.2353  0.1720
 7596SOL    HW135261   5.354   0.103   5.269  3.1035 -1.3199  1.8844
 7596SOL    HW235262   5.218   0.131   5.356  0.5288 -3.0021 -1.4766
 7597SOL     OW35263   8.891   2.403   1.776 -0.0018  0.3998  0.2462
 7597SOL    HW135264   8.957   2.451   1.718  0.7709 -0.2607  0.5659
 7597SOL    HW235265   8.893   2.442   1.868 -1.3431  1.5548 -0.1918
 7598SOL     OW35266   3.342   6.693   4.397 -0.0374 -0.3279  0.0494
 7598SOL    HW135267   3.403   6.654   4.466 -0.6045 -1.7274 -0.2147
 7598SOL    HW235268   3.368   6.787   4.378  0.2881 -0.0124  1.9848
 7599SOL     OW35269   3.200   2.255   0.307  0.1348 -0.2650 -0.2661
 7599SOL    HW135270   3.186   2.204   0.392  0.2526  0.8114  0.4061
 7599SOL    HW235271   3.112   2.266   0.260 -0.2637  0.8967  0.7336
 7600SOL     OW35272   3.873   6.337   0.811 -0.0700 -0.3739 -0.5968
 7600SOL    HW135273   3.820   6.286   0.743 -0.1085 -0.4079 -0.5408
 7600SOL    HW235274   3.834   6.322   0.902 -0.3356  0.0817 -0.6300
 7601SOL     OW35275   2.698   4.065   2.457  0.0961  0.6729 -0.1735
 7601SOL    HW135276   2.617   4.103   2.502 -0.8736  0.7360 -1.9139
 7601SOL    HW235277   2.780   4.105   2.496 -0.7923  2.1163  0.2401
 7602SOL     OW35278   7.668   3.683   8.408 -0.4155 -0.1193 -0.3213
 7602SOL    HW135279   7.624   3.739   8.478 -0.2358  0.9599 -1.0576
 7602SOL    HW235280   7.721   3.743   8.347 -1.5791 -0.9219 -2.1230
 7603SOL     OW35281   8.458   7.438   0.288  0.1898 -0.2525  0.1573
 7603SOL    HW135282   8.445   7.511   0.220  0.7499 -1.7418 -1.6064
 7603SOL    HW235283   8.550   7.443   0.326  0.4532 -0.4257 -0.4498
 7604SOL     OW35284   5.201   4.767   8.621  0.6435 -0.1473 -0.1060
 7604SOL    HW135285   5.120   4.715   8.649 -0.1905  0.6913 -0.9323
 7604SOL    HW235286   5.266   4.706   8.576 -0.5162 -0.4105 -1.4635
 7605SOL     OW35287   1.008   4.430   6.436 -0.0321  0.2515  0.1008
 7605SOL    HW135288   0.943   4.373   6.487  0.8777 -1.5051 -0.6608
 7605SOL    HW235289   1.007   4.523   6.473 -0.8859 -0.4803  1.9753
 7606SOL     OW35290   6.157   0.431   8.008 -0.0746  0.3927 -0.5227
 7606SOL    HW135291   6.210   0.493   8.066 -0.6958  1.3328 -0.9360
 7606SOL    HW235292   6.218   0.369   7.959  0.4041 -1.1312  1.9351
 7607SOL     OW35293   3.750   3.557   8.743 -0.5378 -0.4707 -0.1385
 7607SOL    HW135294   3.772   3.563   8.646 -0.3689 -1.6257 -0.1762
 7607SOL    HW235295   3.675   3.492   8.757  0.5514 -1.5990  0.6529
 7608SOL     OW35296   8.586   8.339   8.254 -0.0433  0.0360  0.1669
 7608SOL    HW135297   8.571   8.304   8.162  0.9041 -0.3204  0.1444
 7608SOL    HW235298   8.510   8.399   8.280 -1.7638 -2.1402  0.2767
 7609SOL     OW35299   5.604   1.170   7.915 -0.0867 -0.5064  0.2187
 7609SOL    HW135300   5.656   1.239   7.865 -0.0182  0.0243  1.0135
 7609SOL    HW235301   5.590   1.200   8.009 -0.6023 -1.2928  0.4019
 7610SOL     OW35302   2.106   2.530   0.920  0.3556  0.2236  0.6979
 7610SOL    HW135303   2.104   2.543   0.821  0.6476 -1.0857  0.5153
 7610SOL    HW235304   2.020   2.561   0.960 -0.5924 -1.1939 -0.2186
 7611SOL     OW35305   0.151   6.556   1.240 -0.2553 -0.4770 -0.5806
 7611SOL    HW135306   0.251   6.558   1.240 -0.2827  1.2919 -0.4230
 7611SOL    HW235307   0.117   6.631   1.296 -1.6801 -0.9661 -0.7910
 7612SOL     OW35308   6.497   0.404   8.027  0.0384  0.1159  1.1100
 7612SOL    HW135309   6.468   0.309   8.037 -2.1361  0.9044  2.8337
 7612SOL    HW235310   6.505   0.446   8.118  1.2273  1.5264  0.3851
 7613SOL     OW35311   6.567   0.849   1.196  0.0318  0.7370 -0.6038
 7613SOL    HW135312   6.535   0.931   1.147 -0.6498 -0.1392 -1.6611
 7613SOL    HW235313   6.511   0.836   1.278  1.0221  2.0818  0.3096
 7614SOL     OW35314   3.958   4.784   0.505  0.4397 -0.1645  0.5424
 7614SOL    HW135315   4.039   4.796   0.561  0.1041 -2.1176  1.5175
 7614SOL    HW235316   3.976   4.715   0.434 -0.2180 -0.2721  0.4734
 7615SOL     OW35317   0.191   1.094   8.400 -0.3154  0.5954 -0.2007
 7615SOL    HW135318   0.247   1.034   8.457  0.2910 -0.5534 -1.9615
 7615SOL    HW235319   0.164   1.175   8.453  1.2981  0.1838  1.2982
 7616SOL     OW35320   3.263   1.933   2.948 -0.6314  0.4078  0.0776
 7616SOL    HW135321   3.256   1.887   2.860 -0.8627 -0.6143  0.6191
 7616SOL    HW235322   3.315   2.017   2.938 -0.4717  0.1819 -0.9936
 7617SOL     OW35323   2.300   5.127   0.343  0.1778 -0.5171  0.0052
 7617SOL    HW135324   2.387   5.140   0.297  0.5197  1.1885  1.1247
 7617SOL    HW235325   2.255   5.045   0.306  1.5038 -0.5043 -1.6941
 7618SOL     OW35326   2.774   2.767   6.501 -0.3408  0.0775 -0.5498
 7618SOL    HW135327   2.815   2.855   6.527 -0.2117  0.5118 -2.2011
 7618SOL    HW235328   2.685   2.782   6.460 -0.6356 -0.6279 -0.1837
 7619SOL     OW35329   7.418   4.214   6.513  0.0782  0.8182 -0.0988
 7619SOL    HW135330   7.334   4.205   6.566 -0.1777  0.9489 -0.4838
 7619SOL    HW235331   7.465   4.299   6.540 -0.0075  0.8416 -0.0215
 7620SOL     OW35332   3.968   6.906   8.468 -0.0932  0.4383 -0.2115
 7620SOL    HW135333   4.043   6.864   8.416  0.7749 -1.1343  2.2625
 7620SOL    HW235334   4.005   6.969   8.536 -1.1902  1.7033 -0.7445
 7621SOL     OW35335   1.892   3.265   1.450 -0.2893  0.0557  0.1193
 7621SOL    HW135336   1.922   3.170   1.451  0.8814  0.4108  0.1137
 7621SOL    HW235337   1.801   3.271   1.411  0.1868 -0.9078 -1.1614
 7622SOL     OW35338   6.100   0.651   0.602  0.3569 -0.0892 -0.6723
 7622SOL    HW135339   6.111   0.705   0.686  1.9204  0.4983 -1.2442
 7622SOL    HW235340   6.024   0.587   0.614  0.5249  0.0162  1.1783
 7623SOL     OW35341   5.726   2.859   3.237  0.1183  0.3796  0.1174
 7623SOL    HW135342   5.773   2.921   3.301  1.1925 -0.8380  0.5273
 7623SOL    HW235343   5.724   2.901   3.146  1.6796  0.6282  0.1728
 7624SOL     OW35344   7.219   3.502   7.988  0.2616 -0.1945 -0.1594
 7624SOL    HW135345   7.237   3.439   8.064  0.8853  0.7698  0.5033
 7624SOL    HW235346   7.176   3.585   8.024  0.0461  0.0300 -0.9415
 7625SOL     OW35347   7.123   5.219   5.614 -0.3358  0.0718 -0.6008
 7625SOL    HW135348   7.029   5.248   5.634 -0.6067 -0.2236 -1.3921
 7625SOL    HW235349   7.187   5.273   5.668 -0.9730  0.1469  0.0954
 7626SOL     OW35350   1.012   3.502   3.687  0.4023  0.0343  0.4313
 7626SOL    HW135351   1.057   3.416   3.663  0.1089  0.3593 -1.4050
 7626SOL    HW235352   0.933   3.516   3.626 -1.5130  0.0203  2.8544
 7627SOL     OW35353   3.247   8.993   2.996 -0.2045 -0.3595 -0.5514
 7627SOL    HW135354   3.266   8.896   3.011 -0.1439 -0.3090 -0.3087
 7627SOL    HW235355   3.175   9.002   2.927  0.4674 -0.5502 -1.2852
 7628SOL     OW35356   8.099   6.236   1.723 -0.1822  0.2404  0.0023
 7628SOL    HW135357   8.144   6.291   1.794  0.4477  0.8237 -0.8316
 7628SOL    HW235358   8.003   6.222   1.747 -0.3486  1.7013  0.2367
 7629SOL     OW35359   4.310   2.228   2.853 -0.2345  0.1979 -0.1297
 7629SOL    HW135360   4.234   2.167   2.831 -0.5819  1.1085 -1.5331
 7629SOL    HW235361   4.384   2.176   2.895 -0.8332 -1.0463 -0.6049
 7630SOL     OW35362   5.277   5.315   6.707  0.1013 -0.1418 -0.4366
 7630SOL    HW135363   5.184   5.321   6.741 -0.4670  0.8737 -2.1261
 7630SOL    HW235364   5.300   5.219   6.689 -0.7464 -0.3523 -0.3828
 7631SOL     OW35365   3.052   5.489   4.648 -0.3685 -0.6744  0.1958
 7631SOL    HW135366   3.029   5.585   4.661 -0.1022 -0.4615 -0.8079
 7631SOL    HW235367   3.150   5.475   4.666 -0.9963 -1.3499  3.3011
 7632SOL     OW35368   5.690   5.626   5.296 -0.1374  0.0684  0.1100
 7632SOL    HW135369   5.597   5.659   5.281 -1.0716 -2.1748  0.8930
 7632SOL    HW235370   5.709   5.550   5.234  1.9616  1.9076 -1.5813
 7633SOL     OW35371   2.289   0.728   2.337  0.0521 -0.1028 -0.2450
 7633SOL    HW135372   2.332   0.751   2.424 -1.7118  0.0714  0.5904
 7633SOL    HW235373   2.346   0.761   2.262 -1.2627  5.1234  0.8559
 7634SOL     OW35374   0.118   7.985   4.008 -0.1160  0.1373 -0.0325
 7634SOL    HW135375   0.144   7.915   4.074  1.1600 -0.4372 -1.1281
 7634SOL    HW235376   0.197   8.008   3.950 -0.6035  2.2390  0.0948
 7635SOL     OW35377   5.031   5.932   8.625  0.4296 -0.3695 -0.2112
 7635SOL    HW135378   4.934   5.922   8.601  0.4441  0.8046 -0.7553
 7635SOL    HW235379   5.081   5.971   8.548  1.3159 -0.8164  0.1279
 7636SOL     OW35380   4.391   3.047   2.785 -0.3172 -0.2504 -0.7357
 7636SOL    HW135381   4.306   3.076   2.829 -0.7196 -1.0670 -0.9643
 7636SOL    HW235382   4.392   2.947   2.777  0.7671 -0.2664 -0.5206
 7637SOL     OW35383   6.589   3.364   8.209  0.1982 -0.1273  0.1385
 7637SOL    HW135384   6.639   3.399   8.288  2.1221 -1.3382 -0.5144
 7637SOL    HW235385   6.644   3.374   8.127 -1.7428  1.0089 -1.0587
 7638SOL     OW35386   5.272   1.522   5.638  0.6956  0.5994  0.3331
 7638SOL    HW135387   5.243   1.440   5.689  0.9550 -0.5272 -1.2873
 7638SOL    HW235388   5.191   1.570   5.605  0.5364  1.0850  1.4134
 7639SOL     OW35389   8.385   8.557   4.839 -0.3393  0.4797 -0.1853
 7639SOL    HW135390   8.356   8.632   4.899 -1.5073  0.0874 -0.2621
 7639SOL    HW235391   8.321   8.547   4.764  0.5950  0.3206 -0.9690
 7640SOL     OW35392   4.707   2.092   5.391  1.0100 -0.1735  0.4342
 7640SOL    HW135393   4.646   2.055   5.461  1.1271 -0.5584  0.3342
 7640SOL    HW235394   4.653   2.128   5.316  0.7969  2.4383  1.7979
 7641SOL     OW35395   4.551   3.507   1.657  0.1830  0.5337 -0.3652
 7641SOL    HW135396   4.613   3.508   1.578  0.4284 -1.1502 -0.2248
 7641SOL    HW235397   4.603   3.484   1.739  0.1582  3.5697  0.5274
 7642SOL     OW35398   4.300   6.871   1.676 -0.1053  0.5886  0.6068
 7642SOL    HW135399   4.283   6.958   1.629  0.5605  0.8889  0.9224
 7642SOL    HW235400   4.261   6.797   1.622 -2.8208  1.2939  1.5053
 7643SOL     OW35401   1.092   5.091   3.078 -0.2923  0.1776  0.6122
 7643SOL    HW135402   1.132   5.131   3.160 -1.7505  0.7352  1.0586
 7643SOL    HW235403   1.135   5.002   3.060  0.0533  0.0685  1.9563
 7644SOL     OW35404   8.772   7.026   0.464  0.2734 -0.1192  0.4586
 7644SOL    HW135405   8.702   7.086   0.502 -1.4667 -2.0434  0.3639
 7644SOL    HW235406   8.799   6.958   0.532 -0.0891 -1.2137 -0.4766
 7645SOL     OW35407   5.003   3.791   1.725 -0.3617  0.2039  0.1586
 7645SOL    HW135408   5.076   3.774   1.792 -0.6626 -2.4302 -0.1090
 7645SOL    HW235409   5.017   3.731   1.646  0.1095  3.4020 -2.2892
 7646SOL     OW35410   5.975   0.241   3.393  0.2183  0.4207  0.1377
 7646SOL    HW135411   5.908   0.255   3.467 -1.0122 -0.6052 -0.7621
 7646SOL    HW235412   6.042   0.173   3.421  0.6410  1.1400  0.8856
 7647SOL     OW35413   0.757   1.080   2.499  0.5445 -0.2680 -0.3822
 7647SOL    HW135414   0.820   1.156   2.512  0.2489 -0.2505  0.9755
 7647SOL    HW235415   0.692   1.102   2.427 -0.5939  1.4642  1.1366
 7648SOL     OW35416   2.459   3.320   3.034  0.1000 -0.7813  0.1812
 7648SOL    HW135417   2.419   3.285   3.119 -1.1471 -0.2325 -0.1697
 7648SOL    HW235418   2.406   3.398   3.002 -0.0428 -1.5942 -1.6383
 7649SOL     OW35419   3.547   8.888   2.404 -0.0677 -0.4952  0.3444
 7649SOL    HW135420   3.598   8.972   2.384 -1.4101  0.5780  1.3727
 7649SOL    HW235421   3.483   8.869   2.330  0.1340 -0.5519  0.1817
 7650SOL     OW35422   4.265   2.283   8.422 -0.3094  0.4619  0.3728
 7650SOL    HW135423   4.300   2.374   8.445 -0.7098  1.3346 -2.2888
 7650SOL    HW235424   4.167   2.279   8.442 -1.0816  1.8622 -2.7200
 7651SOL     OW35425   7.585   5.402   6.716 -0.3042 -0.2394  0.0889
 7651SOL    HW135426   7.534   5.316   6.720 -1.6793  0.6665  3.3913
 7651SOL    HW235427   7.546   5.461   6.646 -1.8625 -0.7781  0.4896
 7652SOL     OW35428   1.481   2.428   6.885 -0.2057 -0.2033  0.4586
 7652SOL    HW135429   1.436   2.393   6.803  2.2057 -1.9382 -0.1886
 7652SOL    HW235430   1.431   2.399   6.966 -0.7884 -1.2910 -0.2791
 7653SOL     OW35431   4.008   0.714   4.312 -0.0591  0.2879  0.2561
 7653SOL    HW135432   4.026   0.674   4.402  0.1396  1.1528  0.6011
 7653SOL    HW235433   3.917   0.755   4.311  0.2647  1.0126  0.3254
 7654SOL     OW35434   4.917   7.657   7.704 -0.1622 -0.0940  0.4344
 7654SOL    HW135435   4.858   7.628   7.629 -0.6934 -1.3617  1.3243
 7654SOL    HW235436   4.919   7.585   7.775  0.2378  1.1210  1.6768
 7655SOL     OW35437   0.695   5.402   1.124  0.5504 -0.7291  0.5343
 7655SOL    HW135438   0.775   5.461   1.113  0.2101 -0.5363 -1.1597
 7655SOL    HW235439   0.636   5.438   1.197  1.4588 -0.2549  1.0391
 7656SOL     OW35440   1.978   6.356   6.881 -0.0186  0.7882 -0.0824
 7656SOL    HW135441   1.883   6.383   6.867  0.2006  1.5406 -0.1653
 7656SOL    HW235442   2.035   6.438   6.888  0.5633  0.3479  0.3862
 7657SOL     OW35443   0.076   3.395   4.720  0.3250 -0.6891 -0.2082
 7657SOL    HW135444   0.132   3.428   4.796 -1.3558 -1.5935  1.4580
 7657SOL    HW235445   0.105   3.302   4.697 -0.5320 -1.1916  0.7138
 7658SOL     OW35446   5.356   6.515   0.149 -0.5750  0.1649  0.3576
 7658SOL    HW135447   5.278   6.453   0.144  0.0705 -0.6525  0.3409
 7658SOL    HW235448   5.381   6.544   0.057 -1.0805  0.7142  0.3895
 7659SOL     OW35449   3.051   2.532   5.413 -0.0779  0.5470 -0.4917
 7659SOL    HW135450   3.046   2.515   5.511  1.5084 -0.4425 -0.5643
 7659SOL    HW235451   3.145   2.523   5.382 -0.7496 -0.4843 -2.3331
 7660SOL     OW35452   3.551   8.781   4.078  0.3778  0.2814  0.0112
 7660SOL    HW135453   3.503   8.768   4.164 -0.7416 -0.9159 -0.7861
 7660SOL    HW235454   3.512   8.859   4.029 -0.5377 -0.4705 -0.4720
 7661SOL     OW35455   4.130   1.791   7.695 -0.2018  0.3692  0.1233
 7661SOL    HW135456   4.070   1.835   7.627 -1.3087 -0.4573  0.5525
 7661SOL    HW235457   4.137   1.693   7.674 -0.6017  0.0983  1.2323
 7662SOL     OW35458   2.449   1.244   5.041  0.0538 -0.0522  0.3147
 7662SOL    HW135459   2.520   1.202   5.097  0.7057  1.3297  0.5467
 7662SOL    HW235460   2.429   1.335   5.076 -0.6899  0.1907 -0.7295
 7663SOL     OW35461   1.385   5.998   6.359  0.3302  0.5284  0.4343
 7663SOL    HW135462   1.440   6.021   6.439 -0.2708 -0.6212  1.1946
 7663SOL    HW235463   1.288   5.992   6.385  0.1846 -0.3433 -0.2533
 7664SOL     OW35464   4.371   6.820   4.701  0.1159  0.2526  0.2178
 7664SOL    HW135465   4.373   6.807   4.602  0.2846 -0.5507  0.3197
 7664SOL    HW235466   4.285   6.864   4.728 -0.9099 -1.5450 -0.0581
 7665SOL     OW35467   4.404   8.415   8.040  0.0070  0.4490  0.2671
 7665SOL    HW135468   4.408   8.353   8.118  0.5581 -1.0813 -0.9440
 7665SOL    HW235469   4.496   8.432   8.006 -0.4296 -1.2758 -1.8653
 7666SOL     OW35470   1.601   8.911   4.670 -0.5445  0.3116 -0.4253
 7666SOL    HW135471   1.652   8.997   4.662 -0.5081  0.2274 -1.1377
 7666SOL    HW235472   1.662   8.834   4.650 -0.4591  0.0875  0.6692
 7667SOL     OW35473   5.439   7.897   6.929 -0.0936 -0.2535  0.5837
 7667SOL    HW135474   5.509   7.831   6.902  0.2471 -0.3215  1.5823
 7667SOL    HW235475   5.470   7.946   7.011 -1.7832 -1.2325  1.8471
 7668SOL     OW35476   2.931   5.174   5.387 -0.3301  0.1763  0.4222
 7668SOL    HW135477   2.989   5.255   5.389 -0.3157  0.1693  0.3092
 7668SOL    HW235478   2.917   5.140   5.480  1.8212 -1.2451  0.2494
 7669SOL     OW35479   3.399   7.940   7.791 -0.2228  0.2911 -0.3106
 7669SOL    HW135480   3.449   7.892   7.863  2.1826  1.7291 -0.9695
 7669SOL    HW235481   3.322   7.883   7.760  0.8015 -1.8323  0.9668
 7670SOL     OW35482   3.091   5.069   1.218 -0.7734 -0.2026 -0.3562
 7670SOL    HW135483   2.993   5.087   1.226 -0.9698 -1.2674 -0.2462
 7670SOL    HW235484   3.110   4.977   1.253  0.2472 -0.0366 -0.4759
 7671SOL     OW35485   5.172   4.237   2.548 -0.1156  0.2554  0.1062
 7671SOL    HW135486   5.093   4.198   2.501  1.3342 -1.6266 -0.8467
 7671SOL    HW235487   5.213   4.308   2.490  0.8711 -1.1249 -0.9254
 7672SOL     OW35488   1.095   2.156   4.273  0.6120  0.0638 -0.0685
 7672SOL    HW135489   1.161   2.149   4.198 -0.2029 -2.1096 -0.6321
 7672SOL    HW235490   1.130   2.106   4.353  0.6030  0.7206  0.3473
 7673SOL     OW35491   5.008   2.626   7.061  0.6723 -0.0719 -0.3751
 7673SOL    HW135492   4.948   2.689   7.111  1.6159 -0.3324  1.0913
 7673SOL    HW235493   4.953   2.572   6.997 -0.3297  1.3308 -0.7430
 7674SOL     OW35494   3.345   4.807   4.230  0.2550  0.1215  0.3622
 7674SOL    HW135495   3.388   4.897   4.226 -0.0280  0.2682  0.5810
 7674SOL    HW235496   3.378   4.751   4.154  3.7254 -1.0842  2.6340
 7675SOL     OW35497   4.400   6.914   1.915 -0.1371  0.6137  0.1831
 7675SOL    HW135498   4.387   6.903   1.816 -0.9046 -1.8331  0.5247
 7675SOL    HW235499   4.325   6.869   1.963  0.8554  0.7798  1.9084
 7676SOL     OW35500   2.206   7.404   0.588  0.1510 -0.3462 -0.4231
 7676SOL    HW135501   2.194   7.316   0.544 -0.7029 -0.6070  0.3287
 7676SOL    HW235502   2.278   7.397   0.658  1.2776 -0.0118 -1.5192
 7677SOL     OW35503   2.800   6.619   2.416 -0.2896  0.5400  0.1427
 7677SOL    HW135504   2.853   6.702   2.397 -0.2095  0.2523 -0.9558
 7677SOL    HW235505   2.859   6.539   2.409 -1.0722  0.1155 -2.2931
 7678SOL     OW35506   3.178   7.101   8.732 -0.3004  0.5192  0.0567
 7678SOL    HW135507   3.223   7.036   8.670 -2.0717  1.1057 -1.9130
 7678SOL    HW235508   3.087   7.067   8.755 -0.4505  1.3213  0.6762
 7679SOL     OW35509   6.821   6.251   1.587  0.0309 -0.1246  0.8566
 7679SOL    HW135510   6.817   6.350   1.601  0.6115 -0.0456  0.5010
 7679SOL    HW235511   6.866   6.208   1.665 -2.4338 -0.3892  2.1670
 7680SOL     OW35512   7.418   4.196   4.919 -0.1467 -0.2054 -0.1645
 7680SOL    HW135513   7.425   4.235   5.011  0.1370 -0.0364 -0.2572
 7680SOL    HW235514   7.394   4.099   4.926  0.0965 -0.2467  0.0921
 7681SOL     OW35515   5.756   7.789   1.446  0.3263 -0.3885  0.0867
 7681SOL    HW135516   5.843   7.835   1.429 -0.4606  1.5621  1.1270
 7681SOL    HW235517   5.751   7.761   1.541 -0.2563 -0.3000  0.0864
 7682SOL     OW35518   2.743   4.522   7.568 -0.2594  0.4183  0.2924
 7682SOL    HW135519   2.754   4.431   7.606 -2.9042 -0.3572 -0.6597
 7682SOL    HW235520   2.833   4.566   7.560  1.1161 -2.2579  0.3303
 7683SOL     OW35521   2.006   5.160   5.582  0.5753 -0.4017  0.3257
 7683SOL    HW135522   2.077   5.227   5.606  0.9540 -0.9407  0.7142
 7683SOL    HW235523   1.919   5.208   5.568  1.2415  0.4026 -1.2344
 7684SOL     OW35524   6.820   5.449   1.954  0.1552 -0.2780  0.0614
 7684SOL    HW135525   6.888   5.470   2.025  1.7097  0.6964 -1.6559
 7684SOL    HW235526   6.849   5.368   1.903  0.8552  1.0155 -1.6495
 7685SOL     OW35527   6.110   4.564   4.440  0.0983  0.1298 -0.1273
 7685SOL    HW135528   6.115   4.465   4.425  1.7277 -0.1653  2.1968
 7685SOL    HW235529   6.109   4.610   4.351 -1.8181 -1.9922 -1.2578
 7686SOL     OW35530   4.003   5.180   6.386 -0.5412  0.1933  0.0402
 7686SOL    HW135531   3.907   5.172   6.359 -0.3562  2.5715 -1.3993
 7686SOL    HW235532   4.010   5.240   6.466 -0.2652 -0.0187  0.1761
 7687SOL     OW35533   3.850   4.141   3.141 -0.1893 -0.4509 -0.2179
 7687SOL    HW135534   3.913   4.097   3.206 -0.2703  0.9922  0.8737
 7687SOL    HW235535   3.769   4.172   3.190  0.0126  1.1761 -0.8937
 7688SOL     OW35536   4.137   8.454   3.548 -0.1602 -0.2447 -0.3894
 7688SOL    HW135537   4.113   8.357   3.546  0.9363 -0.4978 -2.3497
 7688SOL    HW235538   4.198   8.472   3.625  2.1421 -1.7369 -1.8260
 7689SOL     OW35539   2.778   0.787   2.300  0.6176  0.0258 -0.2255
 7689SOL    HW135540   2.715   0.713   2.322  1.3799 -0.2494  1.0622
 7689SOL    HW235541   2.819   0.771   2.210 -1.6795  0.5878 -1.4204
 7690SOL     OW35542   6.215   4.962   2.978  0.0811  0.0679 -0.5833
 7690SOL    HW135543   6.185   4.869   3.000 -0.0084  0.0646 -0.7250
 7690SOL    HW235544   6.195   4.982   2.883 -0.7190  0.5546 -0.3156
 7691SOL     OW35545   2.700   4.451   0.826 -0.1254 -0.3138  0.3839
 7691SOL    HW135546   2.765   4.524   0.849  0.5153 -0.5572 -0.6390
 7691SOL    HW235547   2.736   4.364   0.859 -0.5505 -0.2705  0.9659
 7692SOL     OW35548   4.777   7.126   4.843  0.1081 -0.3126 -0.2912
 7692SOL    HW135549   4.708   7.194   4.870  1.2614  1.0555 -0.6784
 7692SOL    HW235550   4.860   7.140   4.898  0.6357 -0.8772 -0.9349
 7693SOL     OW35551   0.356   6.433   2.974  0.0755  0.2445 -0.8675
 7693SOL    HW135552   0.427   6.491   2.935  1.0284 -1.4392 -1.6881
 7693SOL    HW235553   0.290   6.409   2.903 -0.6153  0.7508 -0.4058
 7694SOL     OW35554   6.542   8.675   1.769 -0.0101 -1.0451 -0.0053
 7694SOL    HW135555   6.603   8.698   1.693  0.6713 -0.8772  0.5783
 7694SOL    HW235556   6.578   8.715   1.853 -0.7497 -1.2392  0.4067
 7695SOL     OW35557   4.824   8.803   8.366  0.2839 -0.1200 -0.4687
 7695SOL    HW135558   4.845   8.800   8.464 -0.4405  1.4278 -0.2593
 7695SOL    HW235559   4.900   8.845   8.317  0.5705 -0.7320 -0.5568
 7696SOL     OW35560   1.947   7.362   5.291  0.3352 -0.0517 -0.1337
 7696SOL    HW135561   1.887   7.347   5.213 -2.0904  2.0962  1.2266
 7696SOL    HW235562   1.997   7.448   5.279  0.6775 -0.1935  0.2372
 7697SOL     OW35563   6.987   4.989   7.498  0.3742 -0.3196  0.3577
 7697SOL    HW135564   6.983   5.076   7.548 -0.2436 -0.5258  0.6727
 7697SOL    HW235565   6.911   4.931   7.527 -0.6152 -0.0334 -1.6111
 7698SOL     OW35566   3.930   5.171   0.386  0.1980 -0.1889  0.2928
 7698SOL    HW135567   3.914   5.207   0.478 -1.4159  0.8340 -0.3540
 7698SOL    HW235568   3.982   5.237   0.332  0.2747 -0.3457  0.1734
 7699SOL     OW35569   4.776   8.244   1.391 -0.2258 -0.3422 -0.0559
 7699SOL    HW135570   4.797   8.178   1.319  1.2342  0.0546 -0.0109
 7699SOL    HW235571   4.677   8.252   1.401 -0.4299 -1.1613 -1.3076
 7700SOL     OW35572   8.633   1.217   7.640 -0.5970  0.3738  0.0848
 7700SOL    HW135573   8.564   1.276   7.682 -1.2331 -0.6797  0.5402
 7700SOL    HW235574   8.636   1.129   7.689 -0.7877 -0.5739 -1.5857
 7701SOL     OW35575   0.424   3.213   6.928  0.2598 -0.1766 -0.1268
 7701SOL    HW135576   0.394   3.121   6.900 -0.7501  0.2601 -0.4999
 7701SOL    HW235577   0.358   3.252   6.992 -0.3024  1.0244 -1.4081
 7702SOL     OW35578   4.692   0.415   7.260 -0.1938 -0.1347  0.5279
 7702SOL    HW135579   4.750   0.377   7.188 -0.6808 -1.3329  0.7493
 7702SOL    HW235580   4.750   0.450   7.334  0.2712 -0.1737  0.1853
 7703SOL     OW35581   4.605   0.796   7.666  0.6473 -0.1271  0.1622
 7703SOL    HW135582   4.541   0.734   7.620  0.3820  0.4736 -0.2771
 7703SOL    HW235583   4.631   0.757   7.755 -0.1330 -0.4887  0.2323
 7704SOL     OW35584   2.163   1.644   5.474 -0.2435  0.0769  0.6165
 7704SOL    HW135585   2.107   1.726   5.461  1.3937  1.2790  0.9844
 7704SOL    HW235586   2.160   1.588   5.392 -0.2385  1.2197 -0.1749
 7705SOL     OW35587   7.444   5.569   6.899  0.6152  0.5648 -0.8672
 7705SOL    HW135588   7.501   5.492   6.870 -0.0343 -0.0737 -0.4778
 7705SOL    HW235589   7.464   5.591   6.995 -1.0632 -0.8565 -0.1558
 7706SOL     OW35590   5.985   6.471   6.518  0.2014  0.3315  0.0515
 7706SOL    HW135591   5.981   6.389   6.575 -1.7564  0.2831 -0.1299
 7706SOL    HW235592   6.018   6.548   6.572 -0.9313  0.1190  1.0585
 7707SOL     OW35593   5.001   6.705   2.759 -0.8058 -0.5557 -0.0631
 7707SOL    HW135594   5.078   6.722   2.698 -0.5411 -1.5205  0.0032
 7707SOL    HW235595   4.915   6.727   2.712 -0.5984 -1.1992 -0.7366
 7708SOL     OW35596   1.867   8.796   4.844  0.0474  0.1461 -0.6952
 7708SOL    HW135597   1.798   8.777   4.774 -0.4456  1.2989 -0.5391
 7708SOL    HW235598   1.891   8.711   4.892  0.2814 -0.6276 -2.1470
 7709SOL     OW35599   7.431   8.738   0.384  0.3401  0.3067 -0.5493
 7709SOL    HW135600   7.461   8.661   0.440 -0.3696  0.7846  0.4936
 7709SOL    HW235601   7.376   8.800   0.439  0.8438  1.5300 -1.3909
 7710SOL     OW35602   7.478   0.608   1.856 -0.1020 -0.0289  0.3146
 7710SOL    HW135603   7.393   0.661   1.857  1.1025  2.0693 -2.0142
 7710SOL    HW235604   7.555   0.670   1.840  1.6578 -2.1497  0.3704
 7711SOL     OW35605   6.770   3.025   0.737 -0.0663 -0.8125  0.2468
 7711SOL    HW135606   6.706   2.996   0.808 -0.1041  1.9538  1.3885
 7711SOL    HW235607   6.864   3.015   0.770  0.0105 -1.8113 -0.2416
 7712SOL     OW35608   2.547   4.097   1.309 -0.2262 -0.3237 -0.4425
 7712SOL    HW135609   2.447   4.093   1.302 -0.1306 -1.3743 -1.4959
 7712SOL    HW235610   2.580   4.013   1.352  0.1493  0.4006  0.6898
 7713SOL     OW35611   8.983   6.022   6.079  0.7039 -0.6751 -0.0070
 7713SOL    HW135612   8.906   6.051   6.024  0.5501 -1.1468 -0.0439
 7713SOL    HW235613   9.054   5.982   6.020  0.5646 -1.1254  0.1304
 7714SOL     OW35614   7.525   8.355   5.185 -0.0394  0.0539 -0.0295
 7714SOL    HW135615   7.562   8.443   5.156  0.6388 -0.4790 -0.8064
 7714SOL    HW235616   7.503   8.358   5.282 -0.3643  1.1947 -0.1365
 7715SOL     OW35617   1.078   4.735   8.450  0.3134  0.3994  0.3187
 7715SOL    HW135618   1.015   4.734   8.528  0.9264  0.2832  0.8146
 7715SOL    HW235619   1.170   4.715   8.481  0.5612  0.3346 -0.4448
 7716SOL     OW35620   7.190   5.247   3.857 -0.2398  0.3189 -0.4473
 7716SOL    HW135621   7.275   5.194   3.858  0.6227  1.6569 -1.1737
 7716SOL    HW235622   7.137   5.224   3.775 -1.1140 -1.3133  0.5508
 7717SOL     OW35623   1.226   7.167   5.542  0.1615  0.4824  0.4863
 7717SOL    HW135624   1.234   7.165   5.443  0.2813 -1.2463  0.5295
 7717SOL    HW235625   1.279   7.245   5.578  0.0258  1.1794 -0.7903
 7718SOL     OW35626   5.853   5.731   7.998 -0.2715 -0.7157 -0.0260
 7718SOL    HW135627   5.874   5.662   8.067 -0.4409  0.5628  1.3393
 7718SOL    HW235628   5.927   5.798   7.993 -0.8135 -0.1195 -0.2005
 7719SOL     OW35629   8.461   4.650   6.030 -0.8100 -0.0058  0.3313
 7719SOL    HW135630   8.436   4.555   6.012  0.8354 -0.0613 -1.7212
 7719SOL    HW235631   8.556   4.656   6.060 -0.8198  1.0188  0.2071
 7720SOL     OW35632   3.592   3.879   4.800  0.2655  0.1331 -0.9842
 7720SOL    HW135633   3.681   3.894   4.843 -0.9923 -0.0665  1.7606
 7720SOL    HW235634   3.598   3.801   4.738  2.4154  1.1664 -2.1351
 7721SOL     OW35635   1.855   2.484   4.282 -0.0308 -0.4534  0.1466
 7721SOL    HW135636   1.791   2.507   4.210  1.0088  0.8856 -0.3728
 7721SOL    HW235637   1.947   2.477   4.244  0.5805  0.6336  1.3982
 7722SOL     OW35638   8.334   8.891   8.350 -0.2353  0.1104  0.0013
 7722SOL    HW135639   8.259   8.947   8.316  0.1435  0.5381 -0.1364
 7722SOL    HW235640   8.405   8.882   8.280 -0.7439 -1.3968 -0.3544
 7723SOL     OW35641   8.767   8.410   6.902 -0.2446  0.3249 -0.5816
 7723SOL    HW135642   8.859   8.448   6.912  0.6724 -1.2696 -2.5424
 7723SOL    HW235643   8.753   8.339   6.972  0.5043 -0.3318 -1.0912
 7724SOL     OW35644   2.262   6.478   3.300 -0.6390  0.2059 -0.3051
 7724SOL    HW135645   2.187   6.445   3.358 -1.0354 -0.8929 -1.4110
 7724SOL    HW235646   2.300   6.401   3.249  0.8500  0.8653 -0.2072
 7725SOL     OW35647   3.335   4.958   0.205  0.0201  0.4439  0.4124
 7725SOL    HW135648   3.421   4.974   0.254  0.9875  0.9508 -1.3986
 7725SOL    HW235649   3.284   5.044   0.198  0.9959  0.9070 -1.4770
 7726SOL     OW35650   1.720   5.029   1.394 -0.6120  0.5015 -0.7580
 7726SOL    HW135651   1.632   4.989   1.421 -0.0493 -0.2997 -0.0804
 7726SOL    HW235652   1.725   5.036   1.295 -0.9800 -0.5224 -0.8546
 7727SOL     OW35653   8.343   5.620   6.363 -0.0836 -0.1719 -0.2961
 7727SOL    HW135654   8.351   5.569   6.449 -0.6139  1.5035  0.7696
 7727SOL    HW235655   8.251   5.658   6.355  0.6518  1.6256 -0.4891
 7728SOL     OW35656   5.030   7.751   5.956  0.5963  0.0804 -0.2775
 7728SOL    HW135657   5.082   7.834   5.972  2.1900 -0.8970 -0.2937
 7728SOL    HW235658   5.010   7.707   6.044  2.0133 -0.8617 -0.4103
 7729SOL     OW35659   1.302   2.443   5.611 -0.0919  0.2486  0.4236
 7729SOL    HW135660   1.333   2.538   5.619  0.3428  0.2454 -1.1183
 7729SOL    HW235661   1.218   2.431   5.665 -0.0520  1.4598  0.7729
 7730SOL     OW35662   2.383   2.195   4.467 -0.1893  0.2081 -0.0565
 7730SOL    HW135663   2.350   2.106   4.499  0.1951  0.5936  1.4343
 7730SOL    HW235664   2.346   2.213   4.376 -1.5089 -0.7983  0.2633
 7731SOL     OW35665   6.301   0.637   3.584 -0.4654 -0.5343  0.1904
 7731SOL    HW135666   6.374   0.705   3.578 -0.4245 -0.5318  0.6947
 7731SOL    HW235667   6.331   0.552   3.541  0.5424 -1.1312  2.0170
 7732SOL     OW35668   0.393   6.278   0.816  0.2911 -0.5317 -0.0789
 7732SOL    HW135669   0.445   6.326   0.887 -0.1276 -0.3251  0.0946
 7732SOL    HW235670   0.435   6.190   0.797 -0.4645 -1.2502  1.5352
 7733SOL     OW35671   6.156   6.382   1.919  0.1404  0.2289  0.4768
 7733SOL    HW135672   6.111   6.308   1.870  0.5359 -0.7334  1.5486
 7733SOL    HW235673   6.132   6.377   2.016  0.4466  1.2991  0.6127
 7734SOL     OW35674   6.126   6.161   5.861 -0.3434 -0.6469  0.2540
 7734SOL    HW135675   6.211   6.208   5.885  0.8391 -2.1188 -0.9573
 7734SOL    HW235676   6.131   6.128   5.768 -2.1663 -1.0056  0.2543
 7735SOL     OW35677   0.958   7.643   4.157  0.3411  0.5184  0.0970
 7735SOL    HW135678   1.048   7.633   4.199  0.8057 -1.0138 -1.2393
 7735SOL    HW235679   0.930   7.557   4.115 -0.0577  2.0241 -2.8654
 7736SOL     OW35680   3.359   1.526   4.261 -0.0580 -0.5004 -0.0732
 7736SOL    HW135681   3.398   1.616   4.240 -0.8812  0.4783  2.4822
 7736SOL    HW235682   3.433   1.462   4.283  0.3364  0.4686  1.4609
 7737SOL     OW35683   3.709   4.544   0.542 -0.1949  0.8424 -0.2524
 7737SOL    HW135684   3.730   4.610   0.614  1.3357  1.4638 -1.2490
 7737SOL    HW235685   3.647   4.586   0.475 -1.6826  0.2387  0.7036
 7738SOL     OW35686   0.965   2.809   8.809 -0.7322  0.2705  0.0912
 7738SOL    HW135687   1.043   2.749   8.830 -0.7960 -0.7691 -2.4354
 7738SOL    HW235688   0.992   2.904   8.821  1.0282 -0.0705 -0.9454
 7739SOL     OW35689   0.654   1.139   7.115 -0.5397  0.1156 -0.1168
 7739SOL    HW135690   0.590   1.214   7.096 -0.6229  0.4987  1.5795
 7739SOL    HW235691   0.739   1.177   7.154 -1.2022 -0.7566  2.2889
 7740SOL     OW35692   4.998   5.273   6.532 -0.4270 -0.0135 -0.2829
 7740SOL    HW135693   4.907   5.306   6.508 -0.9401  0.2130  1.9190
 7740SOL    HW235694   5.015   5.288   6.629  2.1275  0.3044 -0.7438
 7741SOL     OW35695   8.556   8.622   0.513  0.0595  0.5002  0.5596
 7741SOL    HW135696   8.515   8.692   0.572 -0.1543  0.6162  0.2712
 7741SOL    HW235697   8.563   8.657   0.420  1.1286  0.6041  0.6756
 7742SOL     OW35698   6.936   2.901   2.711  0.3627 -0.0092  0.2483
 7742SOL    HW135699   6.974   2.929   2.799  1.1285 -1.3707  0.3626
 7742SOL    HW235700   6.899   2.981   2.663  0.0225  0.7494  1.7614
 7743SOL     OW35701   7.485   5.393   7.895  0.3237  0.0280 -0.6647
 7743SOL    HW135702   7.489   5.428   7.802 -1.3954  0.5239 -0.5596
 7743SOL    HW235703   7.400   5.343   7.909  0.5366  0.0069  0.6674
 7744SOL     OW35704   3.704   2.029   6.836 -0.1977  0.0920  0.4044
 7744SOL    HW135705   3.701   2.047   6.935 -0.4102 -3.8286  1.2050
 7744SOL    HW235706   3.634   2.083   6.790 -0.4612  1.5729  2.4647
 7745SOL     OW35707   8.284   6.764   7.541 -0.4033  0.2995  0.6984
 7745SOL    HW135708   8.297   6.708   7.623  0.2683 -0.9359 -0.2392
 7745SOL    HW235709   8.186   6.775   7.524 -0.5419 -0.4688  0.9739
 7746SOL     OW35710   5.473   1.533   3.212  0.4324  0.2929 -0.1760
 7746SOL    HW135711   5.515   1.504   3.298  2.3541  1.0526 -0.8369
 7746SOL    HW235712   5.444   1.629   3.220 -2.1210 -0.5000  0.6012
 7747SOL     OW35713   2.998   4.833   4.507 -0.2778  0.2223 -0.0005
 7747SOL    HW135714   3.059   4.905   4.541  1.2595 -1.3122  0.5826
 7747SOL    HW235715   2.916   4.829   4.564 -1.4796  3.0198 -1.4359
 7748SOL     OW35716   3.820   1.551   5.354  0.3342 -0.3608  0.1421
 7748SOL    HW135717   3.740   1.592   5.311 -0.9355 -0.8054  1.9940
 7748SOL    HW235718   3.898   1.612   5.345 -1.1777  1.8853  1.6717
 7749SOL     OW35719   0.923   5.088   3.920 -0.9176 -0.1562 -0.1793
 7749SOL    HW135720   0.940   5.138   3.834  0.9347 -1.4691 -0.6170
 7749SOL    HW235721   1.009   5.047   3.951 -1.8774 -0.8555  1.5761
 7750SOL     OW35722   7.662   7.254   6.415  0.6150  0.1904 -1.0534
 7750SOL    HW135723   7.562   7.263   6.408  0.8576  2.6705 -1.7683
 7750SOL    HW235724   7.687   7.234   6.510 -0.4124  2.3105 -0.3008
 7751SOL     OW35725   6.038   8.000   8.047  0.4526 -0.7583 -0.2137
 7751SOL    HW135726   6.106   7.967   8.112 -1.2269 -3.5966  0.1552
 7751SOL    HW235727   6.043   7.946   7.963 -0.1342  0.2178 -0.8835
 7752SOL     OW35728   2.649   3.040   6.085  1.1555  0.1872 -0.2246
 7752SOL    HW135729   2.731   3.013   6.136  0.6468  0.4958  0.7739
 7752SOL    HW235730   2.606   3.118   6.131 -0.9384 -1.3786  0.5321
 7753SOL     OW35731   5.365   4.326   8.776 -0.2182 -0.0620  0.6091
 7753SOL    HW135732   5.347   4.303   8.680  1.4854  0.0093  0.2572
 7753SOL    HW235733   5.350   4.423   8.791  0.3027  0.0792  0.2211
 7754SOL     OW35734   7.971   1.416   6.516  0.5196 -0.4142  0.1275
 7754SOL    HW135735   7.971   1.411   6.416  1.5776 -0.6165  0.1357
 7754SOL    HW235736   7.938   1.329   6.554 -1.3159  0.1794 -0.0585
 7755SOL     OW35737   3.696   2.444   5.092 -0.1496  0.0119  0.2124
 7755SOL    HW135738   3.635   2.439   5.013 -0.5760  3.4868  0.2571
 7755SOL    HW235739   3.642   2.449   5.175  0.2117  0.6279  0.4146
 7756SOL     OW35740   2.124   6.585   5.533 -0.0347  0.1655 -0.5266
 7756SOL    HW135741   2.140   6.614   5.439  0.0219  1.4738 -0.1299
 7756SOL    HW235742   2.205   6.537   5.567  0.3441  0.5959 -0.8108
 7757SOL     OW35743   0.832   8.067   7.122 -0.3697  0.1844  0.4724
 7757SOL    HW135744   0.829   8.156   7.168  0.6873 -0.5995  2.0907
 7757SOL    HW235745   0.917   8.060   7.070 -0.5668  0.2186  0.1471
 7758SOL     OW35746   7.008   3.714   8.512  0.3898 -0.6397  0.0739
 7758SOL    HW135747   7.041   3.633   8.562  0.9129  0.5569  1.7223
 7758SOL    HW235748   6.943   3.764   8.569  2.4509  1.7973  0.3838
 7759SOL     OW35749   7.772   8.569   5.908  0.4269  0.7079 -0.5013
 7759SOL    HW135750   7.714   8.488   5.905 -2.2335  2.3809  2.4392
 7759SOL    HW235751   7.855   8.548   5.961 -0.2696 -0.0876  0.2981
 7760SOL     OW35752   7.770   5.228   4.162  0.0937 -0.5293  0.0121
 7760SOL    HW135753   7.735   5.225   4.069 -0.2167  1.0310  0.0609
 7760SOL    HW235754   7.859   5.182   4.166 -0.1874 -1.1502 -0.9188
 7761SOL     OW35755   1.887   5.092   8.558  0.7193  0.7079 -0.4063
 7761SOL    HW135756   1.809   5.101   8.620  1.0355 -0.2410  0.1304
 7761SOL    HW235757   1.920   5.183   8.534 -1.3515  1.1717 -1.6622
 7762SOL     OW35758   7.862   1.308   4.367  0.4155 -0.3116 -0.0249
 7762SOL    HW135759   7.919   1.250   4.425  3.2703  0.7597 -1.6699
 7762SOL    HW235760   7.778   1.331   4.416 -0.3070 -4.8322  1.1109
 7763SOL     OW35761   3.854   5.181   5.489 -0.1076  0.2622 -0.5407
 7763SOL    HW135762   3.889   5.128   5.567 -0.6655 -0.0202 -0.4756
 7763SOL    HW235763   3.908   5.159   5.408  0.9858  1.1604 -0.0656
 7764SOL     OW35764   8.634   2.382   4.529  0.0594 -0.1949 -0.0761
 7764SOL    HW135765   8.661   2.427   4.444  1.7609  0.1340  0.6313
 7764SOL    HW235766   8.660   2.286   4.526  2.0841  0.3006  0.9246
 7765SOL     OW35767   0.735   0.079   4.779  0.4425  0.2902 -0.4530
 7765SOL    HW135768   0.653   0.117   4.735 -0.5135 -0.9889  0.2044
 7765SOL    HW235769   0.788   0.153   4.820  1.3018  1.5075 -3.6477
 7766SOL     OW35770   4.212   5.224   3.905  0.0581  0.4014 -0.6073
 7766SOL    HW135771   4.267   5.305   3.923  1.7152 -0.2120 -2.7597
 7766SOL    HW235772   4.156   5.239   3.824  0.9253 -0.8689 -1.4619
 7767SOL     OW35773   2.754   5.935   6.297  0.3878  0.3213  0.5626
 7767SOL    HW135774   2.675   5.875   6.281  2.0800 -1.7304 -0.3670
 7767SOL    HW235775   2.768   5.993   6.217  1.0324 -0.7939 -0.1623
 7768SOL     OW35776   4.257   8.951   1.550 -0.0261  0.2794  0.4171
 7768SOL    HW135777   4.237   8.978   1.644  0.4392 -3.3310  1.6359
 7768SOL    HW235778   4.353   8.921   1.544 -0.6714 -1.6751 -0.6322
 7769SOL     OW35779   5.461   7.379   2.829 -0.2470  0.4615 -0.2939
 7769SOL    HW135780   5.525   7.396   2.904 -0.0798  1.7751 -0.7341
 7769SOL    HW235781   5.471   7.284   2.798  0.0443  0.0602  0.9963
 7770SOL     OW35782   5.812   0.029   0.527  0.7703  0.3577 -0.3535
 7770SOL    HW135783   5.767  -0.004   0.444  1.7961 -1.3281 -0.2701
 7770SOL    HW235784   5.762   0.107   0.564 -2.8577 -2.1958  0.4582
 7771SOL     OW35785   1.841   7.725   6.609  0.2553 -0.1938  0.1047
 7771SOL    HW135786   1.850   7.651   6.676  1.1945 -0.3455 -0.1769
 7771SOL    HW235787   1.877   7.694   6.521  1.5716  0.9166  0.2301
 7772SOL     OW35788   4.382   3.854   5.891 -0.0727 -0.4924  0.3162
 7772SOL    HW135789   4.443   3.774   5.889 -0.1103 -0.5408  1.0661
 7772SOL    HW235790   4.421   3.924   5.951 -0.8045 -0.5589  0.8639
 7773SOL     OW35791   7.233   3.414   3.700  0.3455 -0.4893 -0.7991
 7773SOL    HW135792   7.245   3.434   3.798 -0.4173 -0.3038 -0.7383
 7773SOL    HW235793   7.222   3.500   3.650  0.1057 -0.6102 -0.9582
 7774SOL     OW35794   1.722   7.319   1.314  0.2969  0.0749  0.1371
 7774SOL    HW135795   1.669   7.235   1.329  0.3825  0.4493  2.8353
 7774SOL    HW235796   1.819   7.299   1.325  0.5860 -0.1427 -2.5821
 7775SOL     OW35797   7.693   8.428   4.058 -0.1002  0.3835 -0.1171
 7775SOL    HW135798   7.637   8.422   4.141  1.5721  0.1774  1.0213
 7775SOL    HW235799   7.736   8.339   4.041 -0.4321  0.4247 -1.2275
 7776SOL     OW35800   2.152   6.368   4.406  0.0292 -0.0162 -0.5218
 7776SOL    HW135801   2.185   6.283   4.448  2.3939 -0.1603 -2.5372
 7776SOL    HW235802   2.230   6.426   4.382 -1.4225  1.5204 -1.6692
 7777SOL     OW35803   3.956   2.864   2.695 -0.1828 -0.2705  0.0811
 7777SOL    HW135804   3.889   2.794   2.669 -0.3798 -0.1481  0.2551
 7777SOL    HW235805   3.909   2.952   2.705 -0.2002 -0.4274  1.3907
 7778SOL     OW35806   2.625   3.254   2.280  0.4118  0.1433 -0.6487
 7778SOL    HW135807   2.642   3.158   2.256  0.7109  0.0225  0.0294
 7778SOL    HW235808   2.657   3.271   2.374  1.2417  1.1371 -1.0953
 7779SOL     OW35809   3.910   4.424   1.969  0.1185  0.0582 -0.3136
 7779SOL    HW135810   3.856   4.399   2.050  0.9132 -0.1672  0.1481
 7779SOL    HW235811   3.990   4.476   1.997  1.0646 -1.0871 -0.8385
 7780SOL     OW35812   7.642   0.090   1.857  0.4005 -0.2183  0.3054
 7780SOL    HW135813   7.611   0.175   1.813 -1.2674 -1.1544 -0.3774
 7780SOL    HW235814   7.633   0.014   1.792 -1.0823 -1.4429  1.8980
 7781SOL     OW35815   4.060   3.464   3.894 -0.4362  0.3031 -0.0299
 7781SOL    HW135816   4.155   3.492   3.878 -0.6393  0.3579 -1.1614
 7781SOL    HW235817   4.004   3.488   3.815 -1.1302 -0.9296  0.0630
 7782SOL     OW35818   8.838   4.548   1.269  0.0181 -0.1000  0.3245
 7782SOL    HW135819   8.824   4.563   1.367 -1.5252 -0.9011  0.2309
 7782SOL    HW235820   8.808   4.628   1.218  0.4034  0.1366  0.4610
 7783SOL     OW35821   2.118   0.892   4.204  0.1575 -0.0657 -0.1644
 7783SOL    HW135822   2.068   0.808   4.226 -0.1219 -0.1320 -1.0183
 7783SOL    HW235823   2.057   0.971   4.214 -0.3455 -0.2091 -1.8863
 7784SOL     OW35824   8.901   7.291   0.397  0.2909  0.4695 -0.4426
 7784SOL    HW135825   8.998   7.312   0.392  0.1318  1.1233 -0.8163
 7784SOL    HW235826   8.889   7.199   0.434  1.0865 -0.0448 -1.4315
 7785SOL     OW35827   2.230   6.654   1.013  0.0738  0.2017 -0.2435
 7785SOL    HW135828   2.295   6.728   0.998 -0.6169  0.7828 -0.4365
 7785SOL    HW235829   2.214   6.606   0.927  0.9807 -0.5604  0.0099
 7786SOL     OW35830   8.442   1.042   0.412  0.3874  0.1864 -0.0810
 7786SOL    HW135831   8.393   0.987   0.479  0.8038  0.0506  0.1152
 7786SOL    HW235832   8.380   1.069   0.338 -0.3671  1.3855  0.9865
 7787SOL     OW35833   6.584   6.140   4.079  0.4132 -0.2892  0.3398
 7787SOL    HW135834   6.549   6.204   4.147 -0.1065  0.5106 -0.6679
 7787SOL    HW235835   6.662   6.180   4.031 -1.0226  0.3458 -1.5341
 7788SOL     OW35836   3.107   3.941   1.048 -0.0021  0.0838 -0.7015
 7788SOL    HW135837   3.179   3.952   0.980  0.2634 -1.6512 -0.7206
 7788SOL    HW235838   3.047   3.865   1.022 -0.7081  0.2858  0.2864
 7789SOL     OW35839   2.616   2.624   1.469  0.6681 -0.3666  0.2491
 7789SOL    HW135840   2.697   2.567   1.484 -0.2341 -1.8272 -0.2656
 7789SOL    HW235841   2.629   2.681   1.388  0.0371 -2.7832 -1.6123
 7790SOL     OW35842   7.804   8.542   1.368 -0.1164 -0.5521 -0.1161
 7790SOL    HW135843   7.870   8.611   1.338  1.0782 -0.5121  2.5367
 7790SOL    HW235844   7.716   8.585   1.383  0.5843  0.3847  1.3776
 7791SOL     OW35845   4.298   4.576   4.387  0.3605 -0.0535  0.3032
 7791SOL    HW135846   4.292   4.573   4.487  0.9267  2.6766  0.4590
 7791SOL    HW235847   4.393   4.595   4.360 -0.3372  2.3464 -0.6147
 7792SOL     OW35848   5.273   8.167   6.711  0.0825  0.2795 -0.2074
 7792SOL    HW135849   5.319   8.181   6.799  0.7680 -2.1870 -0.1219
 7792SOL    HW235850   5.258   8.069   6.698 -2.4540  0.8282 -1.6236
 7793SOL     OW35851   3.593   4.170   4.475  0.4835  0.3300  0.0361
 7793SOL    HW135852   3.549   4.111   4.542 -2.9495  1.2385 -1.2954
 7793SOL    HW235853   3.633   4.250   4.521  0.4689 -0.3560  1.2472
 7794SOL     OW35854   2.412   2.494   0.375  0.1251 -0.4493 -0.0937
 7794SOL    HW135855   2.376   2.461   0.462 -0.8776 -1.2635 -0.8082
 7794SOL    HW235856   2.510   2.472   0.369  0.4719  0.6287  1.2950
 7795SOL     OW35857   0.407   0.935   8.532 -0.2923  0.3392  0.0787
 7795SOL    HW135858   0.399   0.902   8.626  0.3289 -1.2166 -0.4017
 7795SOL    HW235859   0.356   0.875   8.470 -1.0729  1.6063 -0.5411
 7796SOL     OW35860   8.793   8.906   5.177 -0.2446  0.0192  0.0281
 7796SOL    HW135861   8.884   8.878   5.147 -0.2915 -1.6959  1.3818
 7796SOL    HW235862   8.734   8.825   5.184 -2.1328  1.2281 -1.6934
 7797SOL     OW35863   0.360   2.409   0.037  0.4324 -0.5224 -0.2563
 7797SOL    HW135864   0.337   2.503   0.063  0.8977 -0.4903  0.0388
 7797SOL    HW235865   0.361   2.401  -0.063 -3.6084 -1.1853 -0.3384
 7798SOL     OW35866   0.751   8.450   6.897  0.5203  0.4813  0.6895
 7798SOL    HW135867   0.749   8.355   6.929 -2.7396  0.6634  1.2057
 7798SOL    HW235868   0.749   8.512   6.976 -1.0487  0.9475  0.3003
 7799SOL     OW35869   6.900   4.703   6.932 -0.7413 -0.5232  0.2327
 7799SOL    HW135870   6.830   4.637   6.902  0.6651 -1.6567 -0.6373
 7799SOL    HW235871   6.988   4.657   6.939  0.2905  1.2807 -0.4592
 7800SOL     OW35872   8.063   6.328   7.463  0.1501  0.1955  0.6641
 7800SOL    HW135873   7.998   6.391   7.421  0.3527  0.6177  0.9753
 7800SOL    HW235874   8.120   6.286   7.393 -3.0443 -3.1805 -0.0605
 7801SOL     OW35875   3.943   4.152   4.007 -0.4397  0.0405  0.0351
 7801SOL    HW135876   3.939   4.066   4.058  0.7841  0.3649  0.6834
 7801SOL    HW235877   3.851   4.192   4.002 -0.9362 -1.0748  0.1159
 7802SOL     OW35878   0.855   4.246   6.172  0.4360 -0.0506 -0.3540
 7802SOL    HW135879   0.923   4.318   6.168 -0.5087  0.9706  1.4691
 7802SOL    HW235880   0.774   4.273   6.119 -0.1849  0.5446  0.8753
 7803SOL     OW35881   2.341   4.569   0.148 -0.6655  0.5696  0.0713
 7803SOL    HW135882   2.420   4.556   0.208 -0.9663 -0.5949  0.2189
 7803SOL    HW235883   2.356   4.650   0.091  0.7515  0.2131 -0.0867
 7804SOL     OW35884   1.249   5.490   8.168  0.3591 -0.0498  0.3954
 7804SOL    HW135885   1.210   5.463   8.257 -0.4472 -0.5193 -0.0942
 7804SOL    HW235886   1.266   5.408   8.114 -0.2803  0.3011 -0.3515
 7805SOL     OW35887   3.789   1.674   0.020  0.6257 -0.3831 -0.1667
 7805SOL    HW135888   3.739   1.693  -0.065  0.4061  1.3740  0.3497
 7805SOL    HW235889   3.746   1.597   0.067 -0.1502 -0.4133 -0.9003
 7806SOL     OW35890   6.992   4.984   5.709 -0.6795  0.0370  0.1515
 7806SOL    HW135891   6.984   4.945   5.801 -1.2654  0.8905  0.4753
 7806SOL    HW235892   7.062   5.055   5.710 -1.4040  0.7647  0.2030
 7807SOL     OW35893   8.099   2.069   1.779 -0.1854  0.6693 -0.2630
 7807SOL    HW135894   8.068   1.975   1.767 -1.6163  1.2268 -1.0571
 7807SOL    HW235895   8.038   2.118   1.841  1.0852  0.8360  0.8973
 7808SOL     OW35896   3.120   0.808   1.473 -0.1080 -0.4360 -0.4531
 7808SOL    HW135897   3.212   0.782   1.502  0.3188  1.0017 -0.4619
 7808SOL    HW235898   3.058   0.731   1.484  0.9635 -1.2160  0.1723
 7809SOL     OW35899   4.123   4.778   5.154 -0.2323 -0.6990 -0.7559
 7809SOL    HW135900   4.150   4.698   5.208  1.0476  0.2658  0.0501
 7809SOL    HW235901   4.199   4.804   5.093 -0.4576  0.2125 -0.6508
 7810SOL     OW35902   0.579   8.830   8.342  0.0597  0.3455  0.2741
 7810SOL    HW135903   0.534   8.761   8.399  2.1358 -2.2710 -1.1472
 7810SOL    HW235904   0.564   8.808   8.246  0.2956  2.2219 -0.2051
 7811SOL     OW35905   7.826   4.304   2.787 -0.1449  0.2104  0.0051
 7811SOL    HW135906   7.804   4.400   2.775  1.8650  0.4818 -1.9462
 7811SOL    HW235907   7.860   4.267   2.700  0.0339 -2.0058  0.9832
 7812SOL     OW35908   8.009   6.601   6.796  0.2123  0.6498  0.6248
 7812SOL    HW135909   8.024   6.659   6.876  0.4029  1.4645  0.0103
 7812SOL    HW235910   8.076   6.623   6.726  0.0985 -0.1182  0.2715
 7813SOL     OW35911   1.864   8.513   0.116 -0.1049 -0.3341  0.0668
 7813SOL    HW135912   1.879   8.479   0.208  1.1791 -0.6113 -0.2349
 7813SOL    HW235913   1.789   8.461   0.073  3.1347 -4.3595 -1.1241
 7814SOL     OW35914   2.201   0.970   5.202 -0.0751 -0.1336 -0.2181
 7814SOL    HW135915   2.252   0.928   5.127  0.8911 -1.8416  1.3657
 7814SOL    HW235916   2.112   0.925   5.212  0.2526 -0.6581  0.3665
 7815SOL     OW35917   7.034   6.298   4.202 -0.2638  0.1373 -0.0568
 7815SOL    HW135918   6.973   6.219   4.198  1.7893 -1.5851  1.1151
 7815SOL    HW235919   7.124   6.272   4.167  0.2498  2.1538 -0.2864
 7816SOL     OW35920   8.191   2.401   4.311 -0.9768  0.0893  0.1722
 7816SOL    HW135921   8.109   2.393   4.368  0.1142  0.8598  1.8822
 7816SOL    HW235922   8.259   2.458   4.358  0.9985 -1.5131 -0.6912
 7817SOL     OW35923   7.811   1.940   0.904  0.2195 -0.3175  0.2349
 7817SOL    HW135924   7.749   1.998   0.957  0.9326  0.9126 -0.2649
 7817SOL    HW235925   7.782   1.939   0.809  1.5130  1.0457 -0.1891
 7818SOL     OW35926   5.852   3.276   0.414 -0.4956  0.1316 -0.4570
 7818SOL    HW135927   5.780   3.312   0.472 -1.1622  0.2081 -1.3183
 7818SOL    HW235928   5.883   3.188   0.450 -0.5619  0.4048  0.2785
 7819SOL     OW35929   4.176   6.298   0.867  0.0985 -0.1636 -0.0226
 7819SOL    HW135930   4.207   6.356   0.791 -1.1593  0.5059 -0.0499
 7819SOL    HW235931   4.076   6.291   0.864  0.1137 -0.9275  1.0121
 7820SOL     OW35932   0.235   7.434   4.351 -0.0307  0.5115 -0.4208
 7820SOL    HW135933   0.257   7.346   4.393  0.8944  0.9151 -0.0364
 7820SOL    HW235934   0.218   7.502   4.422  0.3094  0.8946 -0.6984
 7821SOL     OW35935   5.504   5.937   4.736 -0.0657 -0.1822  0.1846
 7821SOL    HW135936   5.449   6.012   4.698  0.2510  0.6318  1.3306
 7821SOL    HW235937   5.451   5.890   4.806  0.0610 -0.4721  0.0828
 7822SOL     OW35938   5.998   2.820   2.936  0.2232 -0.3666 -0.0397
 7822SOL    HW135939   6.090   2.784   2.917 -0.4663 -2.0536 -0.2780
 7822SOL    HW235940   5.930   2.750   2.915 -1.2911  1.6310 -1.9980
 7823SOL     OW35941   4.378   5.283   3.303  0.1053  1.0562  0.2815
 7823SOL    HW135942   4.435   5.312   3.226  1.1340  0.3504  0.7715
 7823SOL    HW235943   4.372   5.357   3.370  1.5312  0.6687  0.8431
 7824SOL     OW35944   2.840   2.831   5.328 -0.3590 -0.2091  0.1069
 7824SOL    HW135945   2.939   2.816   5.327 -0.2034  0.7986  0.6240
 7824SOL    HW235946   2.817   2.896   5.399 -1.2104  0.8750 -1.1439
 7825SOL     OW35947   8.698   5.570   2.237 -0.2935  0.4197 -0.3004
 7825SOL    HW135948   8.746   5.515   2.168  1.2149  0.3552  0.7689
 7825SOL    HW235949   8.755   5.648   2.263 -0.4688 -0.0145  1.4688
 7826SOL     OW35950   6.213   3.877   6.270 -0.3074 -0.3104  0.2869
 7826SOL    HW135951   6.175   3.968   6.254 -1.6163 -0.6463  1.4042
 7826SOL    HW235952   6.168   3.811   6.209  0.7371 -0.2106 -0.6203
 7827SOL     OW35953   3.176   8.983   2.307  0.2544  0.2699  0.4113
 7827SOL    HW135954   3.098   9.022   2.259 -0.1316 -1.3889 -0.3612
 7827SOL    HW235955   3.258   8.993   2.251  0.1191 -0.1617  0.1271
 7828SOL     OW35956   1.724   0.417   6.851  0.0109 -0.1684  0.6945
 7828SOL    HW135957   1.805   0.461   6.812  0.0287 -0.0116  0.9117
 7828SOL    HW235958   1.673   0.483   6.906 -0.9625  0.0760 -0.4912
 7829SOL     OW35959   2.582   7.099   5.966  0.2407 -0.0652  0.0093
 7829SOL    HW135960   2.681   7.114   5.967  0.3108 -0.5488  0.3108
 7829SOL    HW235961   2.550   7.095   5.872  0.2051  2.0990 -0.1042
 7830SOL     OW35962   6.265   5.961   8.106  0.5628 -0.2374 -0.0104
 7830SOL    HW135963   6.259   5.876   8.158 -2.2377  0.5470  1.0085
 7830SOL    HW235964   6.300   6.034   8.165  2.0491 -0.4329 -0.6223
 7831SOL     OW35965   7.316   8.470   3.181  0.0540 -0.2831  0.9006
 7831SOL    HW135966   7.230   8.452   3.227 -1.2705 -0.2001 -1.4453
 7831SOL    HW235967   7.388   8.488   3.248 -1.7259 -0.4698  2.8732
 7832SOL     OW35968   1.128   2.766   5.018  0.1195  0.0649  0.2068
 7832SOL    HW135969   1.057   2.822   4.974 -0.1976  0.1162  0.7820
 7832SOL    HW235970   1.099   2.671   5.019  0.9338 -0.2182 -1.3340
 7833SOL     OW35971   0.372   5.472   6.923 -0.2416 -1.0831 -0.2273
 7833SOL    HW135972   0.380   5.424   7.010  0.4121 -1.5839 -0.5650
 7833SOL    HW235973   0.450   5.450   6.865  0.6010  1.1735 -0.0133
 7834SOL     OW35974   8.321   5.547   8.472 -0.2824 -0.1187 -0.0333
 7834SOL    HW135975   8.310   5.471   8.537 -0.3305 -0.5426 -0.5334
 7834SOL    HW235976   8.310   5.513   8.379  0.5266  0.3457 -0.3084
 7835SOL     OW35977   8.868   2.670   5.275  0.1635 -0.0514  0.2924
 7835SOL    HW135978   8.833   2.577   5.285 -2.2148  0.8552  0.7523
 7835SOL    HW235979   8.904   2.702   5.362 -0.1265 -0.1125  0.4359
 7836SOL     OW35980   3.715   5.759   3.523  0.0639  0.0727 -0.8690
 7836SOL    HW135981   3.792   5.781   3.583 -0.1840 -0.2122 -0.4502
 7836SOL    HW235982   3.750   5.712   3.441  0.2145 -1.1387 -0.1238
 7837SOL     OW35983   0.990   6.442   2.987  0.2811  0.7846  0.1517
 7837SOL    HW135984   0.961   6.477   3.076  0.2651  2.5668 -0.5309
 7837SOL    HW235985   1.089   6.436   2.984  0.2768  0.6275  0.3300
 7838SOL     OW35986   5.451   8.631   5.429  0.4894  0.1280  0.4885
 7838SOL    HW135987   5.462   8.558   5.496  0.0640 -1.6935 -1.3695
 7838SOL    HW235988   5.362   8.676   5.442 -0.3261 -1.3450  0.0978
 7839SOL     OW35989   1.426   3.693   8.698 -0.5722 -0.3273 -0.7101
 7839SOL    HW135990   1.448   3.596   8.685 -1.4332 -0.4483 -1.2700
 7839SOL    HW235991   1.476   3.748   8.631  2.2519 -0.0801  1.4780
 7840SOL     OW35992   6.762   5.200   6.944  0.1898  0.3093  0.3996
 7840SOL    HW135993   6.755   5.165   7.037  0.6697  1.1599  0.7580
 7840SOL    HW235994   6.692   5.157   6.887  0.6573 -1.0877  0.8733
 7841SOL     OW35995   4.838   5.241   5.327 -0.2967 -0.3922 -0.2332
 7841SOL    HW135996   4.887   5.324   5.353 -0.5778 -0.2238 -0.2404
 7841SOL    HW235997   4.797   5.254   5.237 -0.7306 -0.3745 -0.0322
 7842SOL     OW35998   0.939   7.422   7.056  0.1607 -0.3066  0.2452
 7842SOL    HW135999   0.971   7.327   7.054 -0.1351 -0.4169  0.8665
 7842SOL    HW236000   0.943   7.458   7.149  2.5174  1.0643 -0.3278
 7843SOL     OW36001   6.257   1.276   0.425  0.2825  0.0646 -0.2104
 7843SOL    HW136002   6.254   1.230   0.336 -1.8011 -0.5000  0.1235
 7843SOL    HW236003   6.239   1.374   0.412 -0.6167 -0.1178 -0.3447
 7844SOL     OW36004   6.512   4.158   1.920  0.3106  0.2609 -0.4186
 7844SOL    HW136005   6.446   4.223   1.956 -0.8578 -1.9138  1.4494
 7844SOL    HW236006   6.597   4.165   1.972 -0.3812 -0.8482  0.8758
 7845SOL     OW36007   3.501   2.877   6.547 -0.3149  0.0326  0.0180
 7845SOL    HW136008   3.441   2.845   6.620  0.5487  1.7072  1.5060
 7845SOL    HW236009   3.484   2.824   6.463 -1.3426 -1.8858  1.4047
 7846SOL     OW36010   0.232   3.772   0.381  0.7782 -0.3164 -0.2647
 7846SOL    HW136011   0.280   3.717   0.312 -1.3454 -2.0895 -0.3848
 7846SOL    HW236012   0.197   3.856   0.339 -1.4728 -1.9061 -1.6773
 7847SOL     OW36013   0.583   7.731   5.905 -0.0466  0.0519  0.3940
 7847SOL    HW136014   0.530   7.750   5.987  1.0812 -1.1119  1.4027
 7847SOL    HW236015   0.634   7.813   5.878 -0.7813  0.5721  0.5556
 7848SOL     OW36016   2.369   5.260   4.592 -0.3982  0.8496  0.1622
 7848SOL    HW136017   2.462   5.283   4.564 -0.9094  1.9713 -0.6602
 7848SOL    HW236018   2.323   5.210   4.519 -0.8251  1.3579  0.0736
 7849SOL     OW36019   2.755   4.149   8.625 -0.7023 -0.9504  0.4836
 7849SOL    HW136020   2.767   4.239   8.665  0.1855 -2.0928  2.8415
 7849SOL    HW236021   2.773   4.154   8.526 -0.9661  1.4781  0.5281
 7850SOL     OW36022   1.991   8.327   2.459  0.4001 -0.2654  0.1044
 7850SOL    HW136023   1.896   8.355   2.443  0.4757 -0.2637 -0.3433
 7850SOL    HW236024   2.033   8.300   2.372  0.6210 -0.8570  0.3907
 7851SOL     OW36025   7.736   4.310   0.640  0.2336 -0.3931 -0.4294
 7851SOL    HW136026   7.658   4.266   0.684 -1.4014  1.8768 -0.9191
 7851SOL    HW236027   7.816   4.301   0.698 -1.0272 -0.5568  1.3409
 7852SOL     OW36028   7.079   5.629   8.596 -0.0973  0.2045 -0.0129
 7852SOL    HW136029   7.097   5.725   8.618  0.2950 -0.1924  1.4440
 7852SOL    HW236030   7.034   5.623   8.507 -0.3191  1.7511 -0.0181
 7853SOL     OW36031   3.524   7.023   4.048  0.0263  0.0364  0.0583
 7853SOL    HW136032   3.487   6.931   4.058  1.1411 -0.4871 -0.5375
 7853SOL    HW236033   3.597   7.038   4.114  1.1939 -0.2198 -1.1521
 7854SOL     OW36034   7.463   1.768   0.445  0.0607 -0.2036 -0.1188
 7854SOL    HW136035   7.528   1.826   0.493 -0.5587 -0.0896  0.5876
 7854SOL    HW236036   7.403   1.825   0.388 -1.2513 -0.0309  1.4060
 7855SOL     OW36037   2.527   4.929   6.677 -0.2771  0.0051  0.4528
 7855SOL    HW136038   2.540   4.836   6.713 -0.4854 -0.0206  0.4636
 7855SOL    HW236039   2.529   4.927   6.577  2.4800  0.3889  0.4628
 7856SOL     OW36040   2.990   6.879   2.104  0.2939 -0.3641  0.3212
 7856SOL    HW136041   2.959   6.813   2.035 -1.9394  1.2492 -0.3097
 7856SOL    HW236042   2.980   6.839   2.195 -1.4398 -0.7643 -0.0236
 7857SOL     OW36043   2.032   1.999   2.520 -0.0243  0.1707  0.3393
 7857SOL    HW136044   1.988   1.947   2.447 -1.6504 -0.2292  1.5775
 7857SOL    HW236045   2.051   1.938   2.597  0.4164  0.8814  0.7948
 7858SOL     OW36046   7.010   4.603   3.980  0.5087 -0.0489  0.7495
 7858SOL    HW136047   7.036   4.577   3.887  0.1220 -1.1070  0.9347
 7858SOL    HW236048   6.977   4.522   4.029 -0.9185  0.8218  1.2578
 7859SOL     OW36049   2.213   0.916   6.553  0.1427  0.2537  0.6493
 7859SOL    HW136050   2.220   0.955   6.645 -0.9030 -1.6908  1.5898
 7859SOL    HW236051   2.145   0.843   6.553  0.4999 -0.1176 -1.5691
 7860SOL     OW36052   1.214   1.453   8.196 -0.9121  0.5124 -0.1894
 7860SOL    HW136053   1.276   1.412   8.263  1.1435 -1.1985 -3.0260
 7860SOL    HW236054   1.124   1.410   8.204 -0.4118 -0.3758  0.8277
 7861SOL     OW36055   2.538   7.586   4.352  0.3495  0.3736  0.7095
 7861SOL    HW136056   2.556   7.488   4.355 -0.9533  0.1084  0.1494
 7861SOL    HW236057   2.495   7.614   4.439 -0.9845  0.0904  0.1545
 7862SOL     OW36058   2.018   1.870   0.967 -0.0721 -0.0696 -0.1206
 7862SOL    HW136059   2.103   1.917   0.991 -1.4140  1.5309  1.6304
 7862SOL    HW236060   2.040   1.784   0.921  2.4606  1.8819 -2.7833
 7863SOL     OW36061   6.866   6.949   1.387  0.0638  0.3307  0.1681
 7863SOL    HW136062   6.830   6.921   1.476  0.1763  1.3021  0.5214
 7863SOL    HW236063   6.949   7.004   1.400  0.9156 -0.7441 -0.5919
 7864SOL     OW36064   5.978   6.143   7.793 -0.4543  0.1047 -0.3060
 7864SOL    HW136065   5.990   6.243   7.787 -0.7679  0.2208  0.8699
 7864SOL    HW236066   5.920   6.121   7.872 -1.2523 -0.9523 -1.1648
 7865SOL     OW36067   8.450   7.812   7.125  0.4066  0.6113 -0.1424
 7865SOL    HW136068   8.404   7.759   7.196 -1.6876  1.3829 -0.8764
 7865SOL    HW236069   8.381   7.848   7.061  2.2196  0.1147 -2.4285
 7866SOL     OW36070   0.195   2.527   7.953  0.4564  0.1810  0.0466
 7866SOL    HW136071   0.270   2.493   7.897  1.3114 -0.7797  1.7680
 7866SOL    HW236072   0.187   2.473   8.036 -0.6428  1.7616  1.0057
 7867SOL     OW36073   3.856   6.192   2.436  0.1410  0.4173  0.0247
 7867SOL    HW136074   3.939   6.190   2.380  0.5364 -0.9523  0.6428
 7867SOL    HW236075   3.878   6.166   2.530 -0.8114  1.0858  0.4476
 7868SOL     OW36076   2.255   3.765   8.312  0.2276 -0.8401 -0.5499
 7868SOL    HW136077   2.351   3.787   8.333 -0.0285  1.7338 -1.9758
 7868SOL    HW236078   2.205   3.750   8.397  1.0391  1.5578  0.3891
 7869SOL     OW36079   6.725   8.183   1.393  0.4923 -0.2781  0.3269
 7869SOL    HW136080   6.642   8.128   1.383 -1.0028  1.8761  0.3138
 7869SOL    HW236081   6.704   8.266   1.445  2.1027  1.3712 -1.5433
 7870SOL     OW36082   6.246   4.920   7.269 -0.2399  0.2542  0.9242
 7870SOL    HW136083   6.176   4.991   7.261  0.5964  0.9467 -0.4007
 7870SOL    HW236084   6.298   4.933   7.354  0.1502  1.4541  0.5076
 7871SOL     OW36085   0.483   1.223   7.502 -0.4585 -0.5792 -0.1102
 7871SOL    HW136086   0.532   1.286   7.441  0.5826 -0.4762  0.8285
 7871SOL    HW236087   0.387   1.220   7.475 -0.7811  2.2797  0.5058
 7872SOL     OW36088   0.976   8.906   6.779  0.3605  0.9605  0.6723
 7872SOL    HW136089   0.945   8.996   6.809 -0.3892  0.7152  0.6463
 7872SOL    HW236090   0.900   8.841   6.785  0.4473  0.7039 -0.9127
 7873SOL     OW36091   3.524   4.276   6.159 -0.0852 -0.7114 -0.1407
 7873SOL    HW136092   3.567   4.211   6.097 -0.2125 -1.1539  0.2313
 7873SOL    HW236093   3.429   4.250   6.174 -0.5985  0.4930 -1.2764
 7874SOL     OW36094   5.448   0.670   0.008 -0.2825  0.0554 -0.0808
 7874SOL    HW136095   5.523   0.705  -0.049 -1.1146  0.4967 -0.9078
 7874SOL    HW236096   5.389   0.746   0.036 -0.2445 -0.2490  0.8374
 7875SOL     OW36097   2.280   6.193   0.542 -0.2754  0.4015 -0.8105
 7875SOL    HW136098   2.206   6.172   0.606 -0.0893  1.0929 -0.3621
 7875SOL    HW236099   2.346   6.118   0.542  0.1719  0.7826  0.4665
 7876SOL     OW36100   2.757   1.619   2.965 -0.1097 -0.2384  0.1968
 7876SOL    HW136101   2.791   1.618   3.059  0.2465  0.4349  0.0749
 7876SOL    HW236102   2.790   1.537   2.917 -4.1217 -3.0878  1.9862
 7877SOL     OW36103   6.747   5.071   5.555  0.1559  0.5226 -0.4341
 7877SOL    HW136104   6.827   5.050   5.611 -0.3480 -0.3677 -0.0428
 7877SOL    HW236105   6.671   5.098   5.614 -0.6777 -1.3849 -0.6168
 7878SOL     OW36106   4.567   4.842   0.456 -0.2504 -0.0120  0.5438
 7878SOL    HW136107   4.568   4.819   0.553  2.0223  1.1640  0.8237
 7878SOL    HW236108   4.534   4.935   0.444  0.8488  0.3463  0.3042
 7879SOL     OW36109   7.530   7.603   1.206 -0.1740 -0.0987 -0.2059
 7879SOL    HW136110   7.623   7.639   1.207 -0.5447  0.8954  2.0926
 7879SOL    HW236111   7.477   7.650   1.135  0.9607 -0.3789 -1.2379
 7880SOL     OW36112   3.124   5.973   3.499  0.1903  0.1090 -0.0646
 7880SOL    HW136113   3.077   6.058   3.523  0.5453  0.0473  0.8860
 7880SOL    HW236114   3.061   5.896   3.508  0.1816  0.1446  0.1768
 7881SOL     OW36115   2.404   3.265   4.634  0.0952  0.2367 -0.1252
 7881SOL    HW136116   2.377   3.218   4.550  0.8563 -0.1548 -0.1558
 7881SOL    HW236117   2.323   3.302   4.680 -0.4488 -0.6668 -0.3653
 7882SOL     OW36118   2.845   4.276   5.879  0.5851  0.5515  0.2496
 7882SOL    HW136119   2.913   4.334   5.834  2.5482 -0.5330  1.7661
 7882SOL    HW236120   2.849   4.184   5.840 -2.2693  1.2778 -1.8934
 7883SOL     OW36121   6.165   4.254   1.631 -0.4292 -0.2498 -0.5279
 7883SOL    HW136122   6.214   4.306   1.702 -0.8733 -0.3978 -0.1139
 7883SOL    HW236123   6.071   4.238   1.660 -0.1870 -1.6088 -0.4967
 7884SOL     OW36124   3.126   0.036   0.186  0.1356 -0.3889 -0.0879
 7884SOL    HW136125   3.219   0.066   0.207  0.4289 -0.6443 -1.0010
 7884SOL    HW236126   3.061   0.104   0.220  0.6322 -0.4193  0.9306
 7885SOL     OW36127   5.031   3.201   0.943  0.5481  0.2521  0.1081
 7885SOL    HW136128   5.090   3.122   0.927  1.3223  1.4285 -3.2742
 7885SOL    HW236129   5.085   3.284   0.940 -0.9138  1.1935 -0.7093
 7886SOL     OW36130   4.111   8.084   8.172 -0.0757  0.2087  0.7449
 7886SOL    HW136131   4.196   8.056   8.216 -0.0694  0.5174  0.9286
 7886SOL    HW236132   4.082   8.013   8.108  0.9434  0.6291 -0.1946
 7887SOL     OW36133   7.524   2.098   8.866 -0.1969  0.0043 -0.8080
 7887SOL    HW136134   7.515   2.000   8.882  0.2442  0.4053  2.4161
 7887SOL    HW236135   7.436   2.137   8.840 -1.3913 -0.6299  2.0818
 7888SOL     OW36136   3.673   2.508   0.308 -0.3179  0.4891  0.4843
 7888SOL    HW136137   3.631   2.524   0.397  0.8793 -0.4650  1.2327
 7888SOL    HW236138   3.696   2.411   0.298  0.0077  0.6692 -0.6681
 7889SOL     OW36139   2.331   6.975   1.497  0.0408  0.1993  0.0855
 7889SOL    HW136140   2.295   7.036   1.427 -1.1576 -1.2212 -0.5498
 7889SOL    HW236141   2.292   7.000   1.586  0.0446  0.7476 -0.0621
 7890SOL     OW36142   2.485   6.664   3.853  0.6734  0.2814  0.0635
 7890SOL    HW136143   2.454   6.676   3.947  3.3241  0.5912  0.9244
 7890SOL    HW236144   2.542   6.741   3.826  1.6201 -0.8057 -1.0984
 7891SOL     OW36145   2.395   4.661   5.249  0.1777  0.0668 -0.4917
 7891SOL    HW136146   2.434   4.629   5.336 -0.4986  1.0204  0.1714
 7891SOL    HW236147   2.436   4.609   5.174  1.1062 -0.4610  0.3548
 7892SOL     OW36148   3.102   1.804   8.009 -0.0468 -0.1487  0.6879
 7892SOL    HW136149   3.127   1.832   7.916 -1.0239  0.5057  0.6127
 7892SOL    HW236150   3.070   1.709   8.007  0.6378 -0.3812  0.4867
 7893SOL     OW36151   1.614   0.198   1.373 -0.0862 -0.3991  0.0002
 7893SOL    HW136152   1.678   0.253   1.426 -0.6391  0.1508  0.1108
 7893SOL    HW236153   1.528   0.249   1.362  0.2903 -0.1826 -2.0882
 7894SOL     OW36154   5.712   5.846   0.928 -0.6683 -0.1240 -0.3357
 7894SOL    HW136155   5.666   5.925   0.970 -0.4074 -1.2095  2.0623
 7894SOL    HW236156   5.810   5.866   0.918 -1.1509  1.1569 -2.9716
 7895SOL     OW36157   0.265   0.850   6.583 -0.0385  0.0830  0.4068
 7895SOL    HW136158   0.212   0.838   6.499 -2.5074  1.2436  1.7379
 7895SOL    HW236159   0.319   0.934   6.577 -1.6552  1.1769  0.6548
 7896SOL     OW36160   7.115   7.704   8.594 -0.1326 -0.0973 -0.2410
 7896SOL    HW136161   7.022   7.722   8.560 -0.5420  0.1763  1.0196
 7896SOL    HW236162   7.136   7.607   8.584 -0.1655  0.0016 -1.4637
 7897SOL     OW36163   3.487   1.097   3.574 -0.2302 -0.2096  0.0281
 7897SOL    HW136164   3.450   1.019   3.523  1.0736 -0.0666 -1.1643
 7897SOL    HW236165   3.440   1.104   3.662 -0.9550 -1.8176 -0.2070
 7898SOL     OW36166   1.801   2.603   2.604 -0.1100  0.2545 -0.1516
 7898SOL    HW136167   1.766   2.670   2.670  0.0591  0.6734 -0.4841
 7898SOL    HW236168   1.727   2.576   2.541 -0.6580 -1.2423  1.1008
 7899SOL     OW36169   7.983   5.988   3.315  0.3857  0.2446  0.5769
 7899SOL    HW136170   8.048   5.919   3.348  1.3959  1.3914  1.0239
 7899SOL    HW236171   7.921   6.013   3.390  0.4853  0.3547  0.6225
 7900SOL     OW36172   3.973   5.491   1.549  0.3165  0.5351  0.2906
 7900SOL    HW136173   3.952   5.584   1.519 -0.6350 -0.1308 -1.1689
 7900SOL    HW236174   4.063   5.464   1.515  0.2768  0.6574  0.0847
 7901SOL     OW36175   5.124   7.705   1.181  0.3022  0.3059  0.3435
 7901SOL    HW136176   5.107   7.658   1.094  0.6421 -1.2025  1.0650
 7901SOL    HW236177   5.039   7.744   1.214 -0.4085 -1.3958  0.6083
 7902SOL     OW36178   3.275   8.644   7.656  1.1201 -0.0091 -0.6060
 7902SOL    HW136179   3.199   8.707   7.669  0.1159 -1.3903  0.5275
 7902SOL    HW236180   3.262   8.592   7.572  1.3960  0.5323 -0.9868
 7903SOL     OW36181   0.351   4.922   6.544 -0.1113 -0.0055  0.3820
 7903SOL    HW136182   0.338   4.970   6.631  0.5485  0.5207  0.1919
 7903SOL    HW236183   0.442   4.941   6.509 -0.6631  0.4685 -0.8448
 7904SOL     OW36184   7.333   3.257   6.192  0.4186 -0.9467 -0.3426
 7904SOL    HW136185   7.241   3.288   6.168  0.4639 -1.6035 -1.3885
 7904SOL    HW236186   7.372   3.318   6.262 -0.2937  0.1179 -0.8589
 7905SOL     OW36187   5.794   5.432   7.196 -0.1485 -0.8034  1.0060
 7905SOL    HW136188   5.782   5.369   7.119  0.4664  0.2365  0.0325
 7905SOL    HW236189   5.844   5.386   7.270  0.2727 -1.4619  0.3214
 7906SOL     OW36190   4.556   3.891   7.963  0.4308 -0.1172  0.0494
 7906SOL    HW136191   4.650   3.888   7.929  0.0460 -0.9319 -1.0126
 7906SOL    HW236192   4.493   3.901   7.885 -0.4728 -1.8315  0.5212
 7907SOL     OW36193   0.598   3.041   8.601 -0.0028  0.0716 -0.6849
 7907SOL    HW136194   0.612   2.948   8.634 -0.3389  0.4148  0.4729
 7907SOL    HW236195   0.527   3.085   8.657  0.6024  1.2212 -0.8109
 7908SOL     OW36196   1.767   7.089   8.570  0.0406 -0.2020 -0.6724
 7908SOL    HW136197   1.779   7.181   8.534 -0.4273  0.2753  0.3973
 7908SOL    HW236198   1.699   7.040   8.515  1.3767 -0.4142 -2.1542
 7909SOL     OW36199   4.222   5.722   5.545 -0.2907  0.3853  0.2573
 7909SOL    HW136200   4.220   5.728   5.645  2.0122 -0.1507  0.3408
 7909SOL    HW236201   4.177   5.638   5.516  3.3544 -1.9528  1.1272
 7910SOL     OW36202   7.157   0.021   6.567 -0.6159 -1.1032  0.0949
 7910SOL    HW136203   7.208   0.105   6.587  0.3047 -2.0115  1.6529
 7910SOL    HW236204   7.214  -0.040   6.511 -0.5958 -1.4326  0.4696
 7911SOL     OW36205   1.982   3.067   4.429 -1.0460 -0.4649 -1.0805
 7911SOL    HW136206   1.897   3.036   4.471 -0.5885 -0.6815 -0.3083
 7911SOL    HW236207   1.962   3.103   4.338 -2.0237 -0.1292 -0.7462
 7912SOL     OW36208   8.442   1.692   0.742  0.4904 -0.5528  0.0822
 7912SOL    HW136209   8.457   1.723   0.648  1.0257 -1.6363 -0.2071
 7912SOL    HW236210   8.358   1.638   0.746  0.9522 -1.2869  0.0253
 7913SOL     OW36211   1.910   4.232   1.895  0.1826 -0.2993  0.0631
 7913SOL    HW136212   1.863   4.162   1.948  0.4792 -0.1880  0.4789
 7913SOL    HW236213   1.842   4.293   1.853 -0.0286  0.5132  1.5551
 7914SOL     OW36214   3.542   3.565   2.800  0.0974 -0.1675  0.0835
 7914SOL    HW136215   3.450   3.536   2.774 -0.0134  0.6457 -0.4735
 7914SOL    HW236216   3.536   3.638   2.869  0.3672 -1.3861  1.4031
 7915SOL     OW36217   6.803   4.940   6.809 -0.6839 -1.1037  0.2876
 7915SOL    HW136218   6.706   4.920   6.799 -0.7113 -0.1929 -1.4221
 7915SOL    HW236219   6.851   4.858   6.843 -1.8693 -1.8788  0.1021
 7916SOL     OW36220   6.792   2.201   7.247  0.3536 -0.1316  0.5864
 7916SOL    HW136221   6.836   2.289   7.229  0.2092 -0.1823 -0.0569
 7916SOL    HW236222   6.862   2.131   7.262  0.4892 -0.0863  0.1883
 7917SOL     OW36223   1.365   3.452   5.478 -0.6504  0.1832 -0.1132
 7917SOL    HW136224   1.452   3.497   5.459 -1.5072  0.9528 -2.5027
 7917SOL    HW236225   1.294   3.521   5.495 -0.8355 -0.4292  1.6738
 7918SOL     OW36226   7.713   2.216   1.795 -0.3808  0.1495 -0.0685
 7918SOL    HW136227   7.669   2.215   1.706 -0.2066 -1.3848 -0.1611
 7918SOL    HW236228   7.644   2.226   1.867 -0.5809  0.7627 -0.3482
 7919SOL     OW36229   5.026   6.077   6.946 -0.0848 -0.0592 -0.0098
 7919SOL    HW136230   4.992   5.984   6.955  1.0829 -0.4523  0.3513
 7919SOL    HW236231   5.115   6.077   6.901 -0.6180  0.9839 -1.0797
 7920SOL     OW36232   8.663   2.871   7.407 -0.8171 -0.4115 -0.2776
 7920SOL    HW136233   8.662   2.929   7.326 -0.5076 -2.8604 -2.1107
 7920SOL    HW236234   8.572   2.834   7.423 -0.5274 -1.2473 -0.5161
 7921SOL     OW36235   4.753   1.791   7.062  0.2743  0.1623  0.0077
 7921SOL    HW136236   4.670   1.752   7.021  0.6027  0.7690 -1.2692
 7921SOL    HW236237   4.799   1.721   7.116  0.1294 -0.8272 -1.1413
 7922SOL     OW36238   2.849   2.703   6.197  0.7006  0.0581  0.2591
 7922SOL    HW136239   2.925   2.656   6.152  0.3561 -0.3557  0.1090
 7922SOL    HW236240   2.765   2.688   6.146  0.5975  0.8894  0.1813
 7923SOL     OW36241   1.797   4.089   0.683 -0.2153 -0.1741  0.2764
 7923SOL    HW136242   1.736   4.067   0.760 -0.6120  0.5071  0.1558
 7923SOL    HW236243   1.872   4.147   0.716 -0.4899  0.2760  0.1128
 7924SOL     OW36244   1.802   6.411   0.754  0.1636 -0.1409 -0.1260
 7924SOL    HW136245   1.779   6.325   0.799  0.3525  0.5288  1.2496
 7924SOL    HW236246   1.733   6.431   0.684 -0.4766 -0.8636  0.2865
 7925SOL     OW36247   6.887   6.431   8.282 -0.1647 -0.3613  0.2258
 7925SOL    HW136248   6.893   6.457   8.379  0.6476 -1.6374  0.5299
 7925SOL    HW236249   6.950   6.487   8.229 -2.1872  1.8762  0.0757
 7926SOL     OW36250   4.875   8.399   0.600 -0.3194 -0.2757 -0.0230
 7926SOL    HW136251   4.963   8.445   0.602 -0.4026 -0.1525  1.7413
 7926SOL    HW236252   4.809   8.450   0.655 -0.7560 -1.8007  0.9044
 7927SOL     OW36253   1.364   4.568   3.893  0.0199 -0.4601  0.1623
 7927SOL    HW136254   1.446   4.615   3.927 -0.9395  1.0018  0.5059
 7927SOL    HW236255   1.391   4.486   3.843  1.6871 -0.0691  0.3851
 7928SOL     OW36256   7.082   2.230   1.566  0.5125 -0.0907  0.9141
 7928SOL    HW136257   7.147   2.306   1.571 -0.4332  0.7881  0.1722
 7928SOL    HW236258   7.108   2.168   1.492  1.6623 -0.8594  1.9491
 7929SOL     OW36259   3.198   0.597   6.107 -0.0097  0.3436 -0.1264
 7929SOL    HW136260   3.107   0.634   6.086 -0.3588 -0.9131 -0.8962
 7929SOL    HW236261   3.188   0.512   6.159  0.7185  0.0808 -0.4061
 7930SOL     OW36262   3.412   6.217   5.057 -0.0344  0.5158 -1.1296
 7930SOL    HW136263   3.382   6.127   5.089  0.5945  1.6938  2.9503
 7930SOL    HW236264   3.506   6.211   5.023 -0.2624 -0.4888 -1.6044
 7931SOL     OW36265   1.194   8.517   4.409  0.3848  0.1919  0.0424
 7931SOL    HW136266   1.281   8.468   4.409  1.0165  1.2900  0.2066
 7931SOL    HW236267   1.182   8.563   4.497  2.2171  4.4694 -1.7968
 7932SOL     OW36268   7.786   7.170   5.944  0.2440  0.2679 -0.4342
 7932SOL    HW136269   7.765   7.223   6.026  2.3851  0.8148 -0.2178
 7932SOL    HW236270   7.754   7.220   5.863 -0.5816  0.4048 -0.0246
 7933SOL     OW36271   7.333   5.856   6.398  0.3478 -0.5474  0.2949
 7933SOL    HW136272   7.268   5.808   6.457  0.6654 -0.0467  1.0680
 7933SOL    HW236273   7.391   5.791   6.351  1.0644 -0.9105  1.6607
 7934SOL     OW36274   6.928   8.236   7.589  0.3616 -0.6864  0.5400
 7934SOL    HW136275   6.848   8.256   7.645 -0.2280 -0.3824 -0.4025
 7934SOL    HW236276   6.977   8.157   7.627 -0.7030 -1.2224  0.7895
 7935SOL     OW36277   3.213   4.785   6.498 -0.1087  0.5228  0.3311
 7935SOL    HW136278   3.276   4.763   6.423  1.0733  0.4838  1.3188
 7935SOL    HW236279   3.203   4.885   6.505  0.3292  0.5518  0.5611
 7936SOL     OW36280   3.708   5.378   2.030 -0.0575 -0.0781  0.2310
 7936SOL    HW136281   3.794   5.424   2.050 -0.1978 -0.2547  1.3020
 7936SOL    HW236282   3.650   5.380   2.112 -0.6545 -0.8523 -0.1688
 7937SOL     OW36283   6.851   2.536   2.799  0.1050  0.4556  0.0177
 7937SOL    HW136284   6.901   2.543   2.885  1.3408 -0.6733 -0.5800
 7937SOL    HW236285   6.902   2.478   2.735 -1.0425  0.8444 -1.2961
 7938SOL     OW36286   3.078   6.316   1.173  0.2679  0.0109 -0.2326
 7938SOL    HW136287   3.148   6.339   1.241 -2.5031  1.5904  2.2093
 7938SOL    HW236288   3.095   6.369   1.089  1.6845  0.7743  0.5134
 7939SOL     OW36289   3.090   4.765   2.106 -0.1370 -0.2002 -0.5413
 7939SOL    HW136290   3.188   4.787   2.104 -0.0775 -0.5079 -2.1555
 7939SOL    HW236291   3.045   4.819   2.177  0.9612  1.0731 -0.7817
 7940SOL     OW36292   6.440   3.587   7.178 -0.1838 -0.1215  0.0163
 7940SOL    HW136293   6.484   3.540   7.255  0.4696  0.6923  0.1516
 7940SOL    HW236294   6.509   3.604   7.107 -0.5822 -0.0472 -0.3510
 7941SOL     OW36295   5.742   3.632   0.395 -0.1136 -0.3533  0.4679
 7941SOL    HW136296   5.750   3.731   0.386  0.8512 -0.3122  1.5182
 7941SOL    HW236297   5.770   3.605   0.487 -0.3495 -1.6069  0.1866
 7942SOL     OW36298   2.730   5.680   3.737  0.2892 -0.1652  0.7213
 7942SOL    HW136299   2.682   5.592   3.730  0.6492 -0.3942  1.0956
 7942SOL    HW236300   2.742   5.704   3.833  0.4673  0.1447  0.6219
 7943SOL     OW36301   6.382   0.433   6.504  0.3284 -0.6685 -0.4435
 7943SOL    HW136302   6.359   0.493   6.427  1.0014  0.1342 -0.0286
 7943SOL    HW236303   6.325   0.458   6.583 -0.8785 -1.9745 -0.8970
 7944SOL     OW36304   4.860   3.865   2.705 -0.2477  0.1457  0.2605
 7944SOL    HW136305   4.789   3.856   2.636 -2.4990  0.3612  2.4650
 7944SOL    HW236306   4.892   3.774   2.732 -0.0629  0.0252 -0.3737
 7945SOL     OW36307   1.147   3.646   6.703 -0.0052  0.0793 -0.2695
 7945SOL    HW136308   1.175   3.694   6.620  0.9206  0.8061  0.4498
 7945SOL    HW236309   1.205   3.675   6.780 -2.4475  1.2867  1.1723
 7946SOL     OW36310   1.434   7.616   4.494  0.0588  0.2186  0.4569
 7946SOL    HW136311   1.486   7.546   4.447  3.2162  2.1059  1.0091
 7946SOL    HW236312   1.442   7.602   4.593 -2.4323 -0.7879  0.5723
 7947SOL     OW36313   4.877   6.754   4.357 -0.4699  0.4774 -0.4161
 7947SOL    HW136314   4.901   6.848   4.336  1.8602 -0.0949 -0.4847
 7947SOL    HW236315   4.950   6.693   4.325  0.0044 -1.0053  3.1761
 7948SOL     OW36316   6.700   0.418   1.026  0.1245 -0.2477 -0.0903
 7948SOL    HW136317   6.619   0.407   0.969  0.0289 -0.4435  0.0831
 7948SOL    HW236318   6.723   0.515   1.033  1.3957 -0.3711 -2.2011
 7949SOL     OW36319   0.995   6.599   2.686  0.5186  0.3698 -0.3614
 7949SOL    HW136320   0.967   6.629   2.777 -0.2316  0.8259 -0.7358
 7949SOL    HW236321   1.069   6.532   2.693  0.7450  0.7175  0.5656
 7950SOL     OW36322   4.770   1.279   1.246  0.4363  0.3194 -0.3216
 7950SOL    HW136323   4.720   1.359   1.213  2.3403  0.3432 -3.3270
 7950SOL    HW236324   4.862   1.306   1.275  1.1439 -0.7675 -1.4875
 7951SOL     OW36325   8.773   0.161   4.911  0.0143  0.1711  0.1826
 7951SOL    HW136326   8.712   0.119   4.978  0.3872 -1.2749 -0.3603
 7951SOL    HW236327   8.829   0.090   4.868  1.2625  1.3347 -0.1566
 7952SOL     OW36328   2.583   7.926   1.332 -0.0782 -0.0453  0.1231
 7952SOL    HW136329   2.668   7.946   1.381  0.6327  1.7196 -1.7633
 7952SOL    HW236330   2.514   7.995   1.353  0.2293  0.7231 -1.3001
 7953SOL     OW36331   6.546   4.052   7.352  0.1313  0.6560 -0.7182
 7953SOL    HW136332   6.534   3.990   7.430  4.3860 -0.1449 -0.5907
 7953SOL    HW236333   6.479   4.126   7.358 -1.8476 -1.2325  1.7954
 7954SOL     OW36334   1.098   3.952   4.164  0.8808  0.2993  0.3190
 7954SOL    HW136335   1.109   4.006   4.248 -0.0063 -1.5137  1.6219
 7954SOL    HW236336   1.078   3.857   4.188  0.0474 -0.1214 -1.9536
 7955SOL     OW36337   2.134   4.326   7.448 -0.0078 -0.9477  0.8738
 7955SOL    HW136338   2.083   4.303   7.530  2.3867  1.3019  3.0993
 7955SOL    HW236339   2.222   4.367   7.473  0.3983  0.7199 -2.7852
 7956SOL     OW36340   3.327   7.111   6.477 -0.3672 -0.2573  0.3368
 7956SOL    HW136341   3.275   7.039   6.431 -1.0330 -0.6035  1.6043
 7956SOL    HW236342   3.284   7.200   6.459 -1.0932 -0.4797  0.9259
 7957SOL     OW36343   3.697   2.856   2.332  0.3689  0.4742 -0.2599
 7957SOL    HW136344   3.775   2.917   2.345  0.3399  0.3306  0.6186
 7957SOL    HW236345   3.612   2.907   2.348  0.3452  0.2176  0.4835
 7958SOL     OW36346   8.050   7.008   5.645  0.5229 -0.6683 -0.1448
 7958SOL    HW136347   8.045   6.988   5.547  1.3681 -1.3455 -0.0601
 7958SOL    HW236348   8.092   7.098   5.658  0.5952 -0.6630 -0.4036
 7959SOL     OW36349   6.581   6.021   1.830  0.2306  0.3843  0.0819
 7959SOL    HW136350   6.482   6.026   1.839  0.1120 -2.0050  0.3667
 7959SOL    HW236351   6.609   6.058   1.741 -1.2212 -1.9156 -1.3625
 7960SOL     OW36352   1.495   4.829   6.582  0.0113 -0.3387 -0.0681
 7960SOL    HW136353   1.472   4.815   6.678  1.7493 -1.2704  0.2221
 7960SOL    HW236354   1.537   4.747   6.545  1.0598  0.6490 -1.1163
 7961SOL     OW36355   2.375   1.588   5.973 -0.0994  0.0108 -0.3644
 7961SOL    HW136356   2.459   1.537   5.954 -0.5545 -0.6881 -0.5530
 7961SOL    HW236357   2.313   1.580   5.895 -0.5033  0.1799 -0.0608
 7962SOL     OW36358   2.478   7.373   0.638 -0.2532 -0.1307 -0.2013
 7962SOL    HW136359   2.553   7.408   0.693 -0.6321 -2.7039  2.0707
 7962SOL    HW236360   2.463   7.433   0.559  2.1964  2.0377  0.9185
 7963SOL     OW36361   7.197   3.806   7.086  0.0732 -0.0999  0.0102
 7963SOL    HW136362   7.237   3.801   6.995 -0.7661  0.0981 -0.3707
 7963SOL    HW236363   7.270   3.814   7.154  0.6920 -0.0868 -0.6543
 7964SOL     OW36364   2.894   8.169   8.393 -0.4600 -0.6914  0.3142
 7964SOL    HW136365   2.976   8.203   8.346 -2.1391  0.4778 -1.8556
 7964SOL    HW236366   2.921   8.101   8.461  2.4448  0.6907  0.6378
 7965SOL     OW36367   8.951   5.982   2.474 -0.3943  0.3871 -0.6452
 7965SOL    HW136368   8.883   5.982   2.547  0.3405  0.5962  0.0383
 7965SOL    HW236369   8.909   6.017   2.389 -1.6051 -1.1143 -0.6747
 7966SOL     OW36370   5.499   8.091   0.808  0.2292  0.0146 -0.3704
 7966SOL    HW136371   5.563   8.168   0.812 -0.0582  0.3240 -1.5909
 7966SOL    HW236372   5.427   8.105   0.876  0.5457  0.4810 -0.1252
 7967SOL     OW36373   2.049   8.738   6.355  0.2456 -0.6530  0.3743
 7967SOL    HW136374   1.985   8.750   6.279  0.8922  4.0074  0.4179
 7967SOL    HW236375   2.142   8.727   6.319 -0.0236 -3.5456  0.4312
 7968SOL     OW36376   5.893   5.177   2.177 -0.3699 -0.1577  0.4834
 7968SOL    HW136377   5.900   5.098   2.238 -1.6470  0.5538  1.5718
 7968SOL    HW236378   5.852   5.148   2.090  0.6289 -0.9907  0.2765
 7969SOL     OW36379   3.006   4.691   6.336  0.7201 -0.1008 -0.0265
 7969SOL    HW136380   3.079   4.718   6.399 -0.4476 -0.8640  1.6982
 7969SOL    HW236381   2.927   4.751   6.348 -0.7728 -2.2925  1.7098
 7970SOL     OW36382   0.498   3.189   4.092 -0.0919 -0.0069 -0.9077
 7970SOL    HW136383   0.522   3.092   4.097 -0.7818 -0.1075  0.8368
 7970SOL    HW236384   0.576   3.244   4.123 -0.3251 -0.0909 -0.1679
 7971SOL     OW36385   5.880   0.512   8.105 -0.4101  0.2338 -0.0512
 7971SOL    HW136386   5.959   0.472   8.058 -0.4987 -0.8878  0.7302
 7971SOL    HW236387   5.797   0.463   8.077 -0.7613  1.0693 -0.4758
 7972SOL     OW36388   6.630   3.954   4.962 -0.3257  0.5458  0.6826
 7972SOL    HW136389   6.718   3.917   4.933 -1.4692 -2.2027  0.5027
 7972SOL    HW236390   6.624   4.050   4.937  1.8005  0.2325 -1.1856
 7973SOL     OW36391   1.258   4.507   3.291 -0.0265  0.6359  0.1612
 7973SOL    HW136392   1.325   4.543   3.226 -0.9505  0.3418 -0.9601
 7973SOL    HW236393   1.241   4.411   3.271 -0.3542  0.5568  0.8186
 7974SOL     OW36394   0.198   1.205   5.860  0.0602 -0.4241 -0.3758
 7974SOL    HW136395   0.237   1.131   5.915  1.3395  0.6460  0.1854
 7974SOL    HW236396   0.175   1.170   5.769  1.2527 -1.3647 -0.3245
 7975SOL     OW36397   8.267   7.381   8.470 -0.1520  0.6826 -0.1162
 7975SOL    HW136398   8.196   7.354   8.405  0.4886  0.2094 -0.6217
 7975SOL    HW236399   8.244   7.348   8.561 -1.1585  1.5326 -0.0550
 7976SOL     OW36400   0.764   4.327   7.241 -0.2541 -0.0747  0.1372
 7976SOL    HW136401   0.808   4.272   7.312 -0.0441  2.7168  2.2824
 7976SOL    HW236402   0.834   4.378   7.191 -0.5500 -0.6619 -0.8813
 7977SOL     OW36403   1.902   2.079   1.397 -0.2719 -0.0738  0.0137
 7977SOL    HW136404   1.993   2.107   1.426 -0.8330  1.0568  0.7363
 7977SOL    HW236405   1.880   2.122   1.309  0.1809 -0.9506 -0.5331
 7978SOL     OW36406   4.286   4.243   8.107  0.0944  0.2184 -0.0609
 7978SOL    HW136407   4.241   4.154   8.119  0.5163 -0.3439 -2.3021
 7978SOL    HW236408   4.303   4.284   8.196  0.3916 -2.1980  1.0491
 7979SOL     OW36409   6.095   5.549   2.078  0.7428 -0.2006 -0.6079
 7979SOL    HW136410   6.005   5.552   2.036 -0.3581  1.1916  1.7732
 7979SOL    HW236411   6.146   5.632   2.053 -0.0426  0.7975  1.0053
 7980SOL     OW36412   2.420   0.885   5.377 -0.1070 -0.6328  0.0517
 7980SOL    HW136413   2.352   0.958   5.374  0.8851  0.3262  0.5208
 7980SOL    HW236414   2.375   0.797   5.366 -1.5619 -0.0828  1.4093
 7981SOL     OW36415   6.549   7.021   2.407 -0.3182 -0.8118  0.5060
 7981SOL    HW136416   6.529   7.081   2.484  0.1804 -0.5413  0.4261
 7981SOL    HW236417   6.467   7.010   2.350  0.3505  2.1330 -1.1064
 7982SOL     OW36418   8.775   4.790   3.269 -0.3575 -0.3762  0.2347
 7982SOL    HW136419   8.840   4.858   3.303 -3.2199  0.5230  4.2462
 7982SOL    HW236420   8.798   4.700   3.306 -0.1595 -0.4864 -0.1449
 7983SOL     OW36421   3.203   6.734   5.268  0.3771 -0.0371  0.0652
 7983SOL    HW136422   3.295   6.696   5.271  0.8325  1.0353 -0.3977
 7983SOL    HW236423   3.144   6.673   5.214  0.9264 -0.4569 -0.0684
 7984SOL     OW36424   1.676   8.518   6.116 -0.2051  0.4223 -0.3439
 7984SOL    HW136425   1.719   8.604   6.144  0.1152  0.1725 -0.0700
 7984SOL    HW236426   1.577   8.526   6.123 -0.1879  0.8686 -0.5969
 7985SOL     OW36427   2.818   4.866   4.725 -0.6304 -0.5130 -0.4599
 7985SOL    HW136428   2.726   4.835   4.747 -1.2746  2.0245  0.6689
 7985SOL    HW236429   2.843   4.942   4.786  3.0164 -2.4681  0.6735
 7986SOL     OW36430   7.519   3.812   1.191 -0.9428  0.7567 -0.4511
 7986SOL    HW136431   7.510   3.836   1.287  0.8189  0.1274 -0.1195
 7986SOL    HW236432   7.542   3.894   1.138 -0.6682  0.8635 -0.1656
 7987SOL     OW36433   5.686   6.091   0.163 -0.2980  0.4985 -0.1367
 7987SOL    HW136434   5.722   6.016   0.220  1.6777  1.3434 -0.2297
 7987SOL    HW236435   5.596   6.066   0.129  0.5541 -2.1065 -0.6153
 7988SOL     OW36436   2.884   8.606   1.505 -0.4023 -0.4448  0.2483
 7988SOL    HW136437   2.935   8.690   1.522 -0.5513 -0.3803  0.3692
 7988SOL    HW236438   2.807   8.600   1.568  1.9181 -2.6500  2.9815
 7989SOL     OW36439   0.714   1.006   4.980  0.5528 -0.0427  0.1130
 7989SOL    HW136440   0.772   0.946   5.035  0.6109  0.2672  0.3911
 7989SOL    HW236441   0.727   1.101   5.009  0.3188  0.0855 -0.1967
 7990SOL     OW36442   4.046   5.068   1.365  0.2608  0.2118  0.6252
 7990SOL    HW136443   4.093   5.141   1.316  0.4699 -0.0757  0.3989
 7990SOL    HW236444   4.073   5.070   1.461 -0.5414  1.0972  0.8408
 7991SOL     OW36445   6.825   6.353   6.019 -0.2026 -0.1440 -0.4543
 7991SOL    HW136446   6.895   6.283   6.025  0.0996  0.2027  0.1485
 7991SOL    HW236447   6.847   6.417   5.945 -0.2120 -0.3839 -0.6664
 7992SOL     OW36448   7.007   8.577   0.853  0.4606 -0.2611  0.3347
 7992SOL    HW136449   6.994   8.673   0.831  2.1624  0.5912  2.7870
 7992SOL    HW236450   6.959   8.555   0.938  2.2384 -0.8812  1.2151
 7993SOL     OW36451   7.762   4.674   6.121  0.0734  0.0008 -0.3963
 7993SOL    HW136452   7.707   4.635   6.195  1.3520  1.5642  1.4232
 7993SOL    HW236453   7.858   4.679   6.150  0.4377  1.5377 -1.8040
 7994SOL     OW36454   6.218   8.853   6.726 -0.2242  0.0664  0.4554
 7994SOL    HW136455   6.173   8.913   6.793 -2.3331  0.3644 -1.1783
 7994SOL    HW236456   6.239   8.905   6.644  1.4021 -0.5567  0.4589
 7995SOL     OW36457   1.530   6.047   3.437 -0.2397  0.0130 -1.0502
 7995SOL    HW136458   1.629   6.057   3.452 -0.3407 -0.4952 -0.0322
 7995SOL    HW236459   1.481   6.112   3.494 -0.5393 -0.5242 -0.6945
 7996SOL     OW36460   4.482   3.263   0.018 -0.1992  0.0408  0.5370
 7996SOL    HW136461   4.527   3.180  -0.016 -0.2865 -0.9493  2.8014
 7996SOL    HW236462   4.383   3.253   0.007 -0.0879  1.1489 -2.0118
 7997SOL     OW36463   1.401   7.581   1.387 -0.5133  0.1372  0.0395
 7997SOL    HW136464   1.468   7.604   1.317  2.0149 -1.1531  1.9385
 7997SOL    HW236465   1.395   7.481   1.396 -1.7860  0.2635  0.7208
 7998SOL     OW36466   4.912   0.157   8.196  0.2781 -0.0990 -0.9096
 7998SOL    HW136467   4.909   0.138   8.098 -0.2387 -1.3817 -0.6560
 7998SOL    HW236468   4.957   0.081   8.243 -0.4804 -0.0113 -0.0326
 7999SOL     OW36469   8.293   2.770   4.855  0.3606  0.1311  0.8683
 7999SOL    HW136470   8.285   2.841   4.785  0.3670 -0.5047  0.2027
 7999SOL    HW236471   8.385   2.773   4.896  0.9808 -0.6245 -0.4213
 8000SOL     OW36472   0.125   5.242   6.739 -0.2138 -0.2553 -0.1877
 8000SOL    HW136473   0.214   5.200   6.753 -0.2331 -0.6814 -1.2790
 8000SOL    HW236474   0.091   5.279   6.826  0.7109 -0.6987  0.3670
 8001SOL     OW36475   0.477   7.840   6.682  0.0878 -0.1355 -0.4448
 8001SOL    HW136476   0.488   7.906   6.607 -0.6256 -0.9062 -1.2437
 8001SOL    HW236477   0.567   7.812   6.715  0.4106  0.3011 -0.9413
 8002SOL     OW36478   0.596   8.434   8.410 -0.2279 -0.3048  0.2222
 8002SOL    HW136479   0.570   8.498   8.483  0.7521  1.6554 -1.0926
 8002SOL    HW236480   0.689   8.401   8.426 -0.4408 -0.7778  0.4772
 8003SOL     OW36481   6.711   3.402   4.740  0.0787 -0.2806  0.2841
 8003SOL    HW136482   6.763   3.412   4.825  2.1895 -0.3599 -0.9473
 8003SOL    HW236483   6.770   3.360   4.670 -1.6106 -0.1980 -1.2287
 8004SOL     OW36484   5.603   3.249   7.200 -0.3586  0.1720  0.5879
 8004SOL    HW136485   5.523   3.283   7.151  0.6187 -1.6749 -2.3999
 8004SOL    HW236486   5.622   3.155   7.173  2.1148  0.1724  2.1295
 8005SOL     OW36487   8.628   4.024   4.900  0.5848 -0.4142 -0.6039
 8005SOL    HW136488   8.541   4.039   4.948 -0.3721 -2.2873 -1.6829
 8005SOL    HW236489   8.645   3.925   4.892  1.2373 -0.1124 -3.1825
 8006SOL     OW36490   4.055   4.976   5.315 -0.3024 -0.0604  0.0361
 8006SOL    HW136491   4.120   4.959   5.389 -0.9142 -0.0797  0.5606
 8006SOL    HW236492   4.069   4.907   5.243  0.1950 -0.1209  0.1874
 8007SOL     OW36493   1.846   4.804   6.430  0.1539  0.2741 -0.4130
 8007SOL    HW136494   1.875   4.760   6.345  0.9130 -0.2790  0.1268
 8007SOL    HW236495   1.759   4.764   6.459  1.0148 -1.1732  0.2692
 8008SOL     OW36496   3.686   3.798   3.484 -0.3482 -0.2159  0.0261
 8008SOL    HW136497   3.685   3.763   3.578 -0.0288 -0.6524 -0.1297
 8008SOL    HW236498   3.755   3.749   3.431 -0.2097  0.3479 -0.3202
 8009SOL     OW36499   3.182   3.267   3.658 -0.0409 -0.7423 -0.9553
 8009SOL    HW136500   3.108   3.223   3.710  0.2992  1.1969  1.2703
 8009SOL    HW236501   3.262   3.208   3.659 -0.4143 -1.2527 -0.2631
 8010SOL     OW36502   1.150   5.353   2.930 -0.1693  0.0052 -0.1247
 8010SOL    HW136503   1.122   5.259   2.952 -0.5928  0.8618  3.2761
 8010SOL    HW236504   1.091   5.417   2.978  2.0665  1.9927  0.0694
 8011SOL     OW36505   0.617   4.402   0.420 -1.0915  0.8001 -0.0385
 8011SOL    HW136506   0.626   4.418   0.518 -2.8530  1.9861 -0.0451
 8011SOL    HW236507   0.523   4.372   0.400  0.1593 -2.7958 -0.9488
 8012SOL     OW36508   4.967   7.027   4.334  0.0305  0.2808  0.5464
 8012SOL    HW136509   5.002   7.014   4.241 -1.8958  1.5358 -0.3912
 8012SOL    HW236510   4.975   7.124   4.359  2.0789 -0.3007  2.3683
 8013SOL     OW36511   1.839   0.148   5.271  0.5463  0.2535  0.3782
 8013SOL    HW136512   1.827   0.113   5.178 -1.8697  1.3077  0.2591
 8013SOL    HW236513   1.839   0.071   5.335 -1.0867 -0.2700 -0.2121
 8014SOL     OW36514   5.085   3.316   2.501  0.0996  0.3354  0.3042
 8014SOL    HW136515   5.151   3.241   2.494 -0.7070 -0.2176 -1.8659
 8014SOL    HW236516   5.003   3.285   2.549  1.4787  1.1146  3.2971
 8015SOL     OW36517   0.688   3.848   4.893 -0.0009  0.1449  0.0710
 8015SOL    HW136518   0.740   3.915   4.840  0.6859  0.8589  1.6294
 8015SOL    HW236519   0.638   3.894   4.966 -0.8264 -0.8474  0.1416
 8016SOL     OW36520   2.584   1.053   1.018 -0.1904  0.2841 -0.4014
 8016SOL    HW136521   2.642   1.107   1.078  0.5776 -1.2336  0.2483
 8016SOL    HW236522   2.490   1.090   1.019 -0.2382  0.1440  1.8693
 8017SOL     OW36523   2.409   7.576   7.275 -0.2682  0.3968 -0.0477
 8017SOL    HW136524   2.337   7.622   7.327 -0.6078  0.4219 -0.5460
 8017SOL    HW236525   2.381   7.482   7.255 -0.0261  0.3056  0.0380
 8018SOL     OW36526   1.363   1.096   8.546 -0.0612  0.2557  0.2931
 8018SOL    HW136527   1.422   1.023   8.512 -2.8861 -1.6921 -0.6408
 8018SOL    HW236528   1.295   1.056   8.608 -0.4012  2.4367  1.3543
 8019SOL     OW36529   1.985   8.746   6.093  0.7209  0.1169  0.2192
 8019SOL    HW136530   1.886   8.750   6.097  0.6990 -0.3817  0.2595
 8019SOL    HW236531   2.013   8.663   6.044  1.1209 -0.4111  1.3108
 8020SOL     OW36532   5.439   4.825   1.819 -0.3500  0.0279  0.5582
 8020SOL    HW136533   5.424   4.759   1.745 -0.6171 -2.1137  2.4538
 8020SOL    HW236534   5.468   4.776   1.901 -1.3708  2.1992  2.2675
 8021SOL     OW36535   2.552   1.803   4.757  0.3239  0.4352 -0.4098
 8021SOL    HW136536   2.633   1.814   4.699  0.7115 -1.1847 -0.2071
 8021SOL    HW236537   2.494   1.730   4.720 -0.3945  0.7202  0.1532
 8022SOL     OW36538   4.650   0.276   7.516 -0.3821 -0.4323  0.1209
 8022SOL    HW136539   4.746   0.263   7.493 -0.9084 -1.5820 -1.5597
 8022SOL    HW236540   4.606   0.331   7.444 -0.6448  1.4846  1.6897
 8023SOL     OW36541   2.567   3.979   4.207 -0.0953  0.4388 -0.0622
 8023SOL    HW136542   2.651   3.944   4.248 -2.2385 -2.2873  2.1840
 8023SOL    HW236543   2.570   3.966   4.108  2.2196  0.6506 -0.0277
 8024SOL     OW36544   7.507   1.747   7.585 -0.3253 -0.6048  0.3380
 8024SOL    HW136545   7.603   1.775   7.584 -0.4311 -0.1439  1.5437
 8024SOL    HW236546   7.497   1.658   7.542  0.4678 -0.1262 -0.8533
 8025SOL     OW36547   2.913   5.700   7.269 -0.2728 -0.6632  0.1333
 8025SOL    HW136548   2.883   5.624   7.211 -0.2002 -0.1835 -0.5467
 8025SOL    HW236549   2.854   5.779   7.253 -0.6216 -0.7113  1.1621
 8026SOL     OW36550   1.803   7.347   0.916  0.0371 -0.4750 -0.4191
 8026SOL    HW136551   1.798   7.251   0.945  1.5623 -0.0836  1.2133
 8026SOL    HW236552   1.898   7.374   0.904 -0.1448  1.7787  2.4908
 8027SOL     OW36553   1.589   7.350   1.999 -0.5005  0.2245  0.6413
 8027SOL    HW136554   1.549   7.338   1.908 -0.6844 -0.7046  0.8325
 8027SOL    HW236555   1.529   7.407   2.054 -0.2507  1.0254  0.0970
 8028SOL     OW36556   3.389   1.901   3.186 -0.0006  0.2071 -0.0359
 8028SOL    HW136557   3.335   1.956   3.249 -1.0054  0.4840 -1.1341
 8028SOL    HW236558   3.342   1.894   3.098 -0.0171 -2.5969  0.1488
 8029SOL     OW36559   3.883   3.962   4.205 -0.0239  0.0151 -0.1510
 8029SOL    HW136560   3.847   3.893   4.142  0.2504 -1.0351  0.8159
 8029SOL    HW236561   3.811   4.028   4.226 -0.3261 -0.0347 -1.0071
 8030SOL     OW36562   5.780   6.982   6.717 -0.0469  0.7468  0.6478
 8030SOL    HW136563   5.746   6.896   6.757 -2.3990  0.3543 -1.9898
 8030SOL    HW236564   5.749   7.059   6.773 -1.3101  0.0752  0.9021
 8031SOL     OW36565   4.028   5.465   0.296 -0.5836  0.2900  0.3474
 8031SOL    HW136566   4.035   5.480   0.395  1.6682  0.4255  0.2012
 8031SOL    HW236567   4.044   5.552   0.248  1.0615 -0.2681 -0.1781
 8032SOL     OW36568   7.866   1.512   2.124  0.2303 -0.0697 -0.1508
 8032SOL    HW136569   7.811   1.449   2.179  0.2233  1.2283  1.3753
 8032SOL    HW236570   7.866   1.602   2.167  2.7435  0.2150 -0.6603
 8033SOL     OW36571   6.769   4.604   1.833 -0.5802  0.2746  0.6942
 8033SOL    HW136572   6.760   4.691   1.784 -1.1930  0.0865  0.4724
 8033SOL    HW236573   6.685   4.551   1.823 -0.0808 -0.4935  0.5531
 8034SOL     OW36574   6.776   6.399   0.309 -0.1106 -0.0885  0.0281
 8034SOL    HW136575   6.685   6.400   0.350  0.6214 -0.3725  1.7222
 8034SOL    HW236576   6.845   6.410   0.381  1.1254  2.3280 -1.4421
 8035SOL     OW36577   2.529   6.265   8.427 -0.6265  0.2407 -0.2593
 8035SOL    HW136578   2.500   6.243   8.520  0.4480 -0.5437 -0.1093
 8035SOL    HW236579   2.565   6.183   8.382  3.2181  1.5350  0.2549
 8036SOL     OW36580   4.989   7.530   8.673 -0.0220  0.0597 -0.1424
 8036SOL    HW136581   5.048   7.603   8.637  1.1448  0.0394  1.6586
 8036SOL    HW236582   4.941   7.486   8.598  1.0404  1.1576 -1.4959
 8037SOL     OW36583   0.479   7.500   6.124 -0.6098 -0.1400 -0.2384
 8037SOL    HW136584   0.513   7.513   6.031 -0.4971  0.0156 -0.1750
 8037SOL    HW236585   0.536   7.432   6.171 -0.2379  0.2989 -0.0529
 8038SOL     OW36586   1.975   5.608   2.607 -0.8131  0.4125 -0.2678
 8038SOL    HW136587   1.909   5.569   2.671 -0.8271 -1.0104 -1.1226
 8038SOL    HW236588   2.060   5.555   2.609 -0.0425  1.6311  0.1023
 8039SOL     OW36589   0.309   2.764   7.613 -0.5396 -0.0532  0.5811
 8039SOL    HW136590   0.259   2.836   7.564 -1.0725 -1.4431 -0.9886
 8039SOL    HW236591   0.406   2.788   7.619 -0.5104  0.2393 -0.9703
 8040SOL     OW36592   6.946   0.580   6.629 -0.5668 -0.2514 -0.3963
 8040SOL    HW136593   6.918   0.667   6.590 -0.8949  0.3761  1.2471
 8040SOL    HW236594   7.037   0.589   6.669 -1.4457 -0.1197  1.5940
 8041SOL     OW36595   5.384   8.712   3.224  0.0988 -0.2534  0.2001
 8041SOL    HW136596   5.340   8.775   3.161  1.4619 -0.7544 -1.2979
 8041SOL    HW236597   5.405   8.760   3.309 -0.1602  0.9253 -0.3869
 8042SOL     OW36598   3.441   1.800   4.176  0.0283  0.3458  0.2239
 8042SOL    HW136599   3.536   1.798   4.144 -0.0023  1.0971  0.0753
 8042SOL    HW236600   3.438   1.835   4.269  0.0046 -0.7676  0.6470
 8043SOL     OW36601   7.657   7.585   4.100 -0.1731  0.5173 -0.2725
 8043SOL    HW136602   7.651   7.678   4.065 -1.4395  0.9524  1.0408
 8043SOL    HW236603   7.738   7.540   4.062  1.2733  2.6194  0.2246
 8044SOL     OW36604   7.782   3.433   8.516  0.1447 -0.4919  0.3353
 8044SOL    HW136605   7.745   3.522   8.490 -0.7905 -0.5531  1.3873
 8044SOL    HW236606   7.801   3.432   8.615  1.3042 -1.0490  0.1139
 8045SOL     OW36607   6.169   0.879   8.636  0.1320 -0.4441  0.7766
 8045SOL    HW136608   6.256   0.848   8.675 -0.6977 -2.1590  1.2957
 8045SOL    HW236609   6.183   0.967   8.590  2.1594 -0.7394  0.7741
 8046SOL     OW36610   1.281   0.704   7.548  0.1680  0.5939 -0.0646
 8046SOL    HW136611   1.244   0.791   7.580 -1.5290 -0.6243  1.4283
 8046SOL    HW236612   1.331   0.659   7.623  1.7477  0.6644 -1.0678
 8047SOL     OW36613   0.589   2.179   4.973  0.3315 -0.3851  0.2225
 8047SOL    HW136614   0.651   2.184   4.895  1.5928  0.1576  1.2455
 8047SOL    HW236615   0.563   2.271   5.001 -1.4049 -0.6227 -0.5515
 8048SOL     OW36616   3.143   7.163   5.161 -0.3173  0.3095  0.2245
 8048SOL    HW136617   3.117   7.217   5.081 -1.1999  0.5726  0.6798
 8048SOL    HW236618   3.148   7.222   5.241 -2.9613 -0.5222  1.0750
 8049SOL     OW36619   8.011   7.327   3.861  0.5969 -0.1298 -0.1439
 8049SOL    HW136620   7.960   7.290   3.784 -0.6779  1.3683 -0.0420
 8049SOL    HW236621   8.026   7.256   3.930 -1.8369 -0.4463  0.0762
 8050SOL     OW36622   8.530   6.401   0.319  0.5844  0.5479  0.0574
 8050SOL    HW136623   8.593   6.477   0.331  1.6688 -0.5014  1.0443
 8050SOL    HW236624   8.560   6.323   0.374 -1.1716 -0.2016 -0.0206
 8051SOL     OW36625   2.168   6.210   7.838 -0.0164 -0.1140  0.0665
 8051SOL    HW136626   2.256   6.257   7.830  0.4199 -0.8779  0.3657
 8051SOL    HW236627   2.173   6.121   7.792 -0.3110 -0.6077  0.9862
 8052SOL     OW36628   3.401   6.608   7.887  0.1840  0.4975  0.3234
 8052SOL    HW136629   3.362   6.700   7.887 -0.9838  0.0280 -0.7839
 8052SOL    HW236630   3.463   6.597   7.965 -0.0061  2.0685  0.7077
 8053SOL     OW36631   2.565   5.633   6.046  0.3208 -0.0050  0.2312
 8053SOL    HW136632   2.483   5.656   5.994  0.7215  0.1145 -0.3498
 8053SOL    HW236633   2.569   5.690   6.128  0.7333  1.2417 -0.6402
 8054SOL     OW36634   3.546   4.383   0.001  0.5429 -0.3220 -0.0852
 8054SOL    HW136635   3.488   4.312  -0.038  0.7509 -1.9539  2.4290
 8054SOL    HW236636   3.623   4.401  -0.060 -0.8535 -0.4492 -1.9221
 8055SOL     OW36637   0.868   1.568   6.481  0.2003 -0.5329 -0.5015
 8055SOL    HW136638   0.786   1.598   6.433 -0.4985 -1.5042  0.0790
 8055SOL    HW236639   0.844   1.533   6.571  1.2870 -0.5336 -0.2022
 8056SOL     OW36640   2.266   2.297   2.762  0.3680  0.3811  0.5095
 8056SOL    HW136641   2.197   2.356   2.721 -1.1678 -1.7329 -0.0759
 8056SOL    HW236642   2.316   2.347   2.832 -0.5861  2.4759 -0.2707
 8057SOL     OW36643   0.973   0.128   7.591 -0.2850  0.6173  0.2840
 8057SOL    HW136644   0.991   0.049   7.650  0.0812  0.8205  0.4475
 8057SOL    HW236645   1.036   0.127   7.514  1.6197  2.2879  1.7901
 8058SOL     OW36646   3.294   0.099   1.204  0.6801 -0.4517  0.0220
 8058SOL    HW136647   3.337   0.059   1.123  0.4979  1.3509 -0.9923
 8058SOL    HW236648   3.216   0.154   1.176  0.4493 -0.0354  1.4580
 8059SOL     OW36649   5.744   7.004   4.736 -0.3642 -0.0624 -0.3112
 8059SOL    HW136650   5.744   7.055   4.823 -0.4267  0.1182 -0.4165
 8059SOL    HW236651   5.837   6.994   4.703 -0.3277 -0.2499 -0.1530
 8060SOL     OW36652   1.697   5.196   4.142 -0.1723  0.1462  0.0676
 8060SOL    HW136653   1.750   5.112   4.151  0.4286  0.3856 -1.0903
 8060SOL    HW236654   1.758   5.272   4.120 -0.9943  0.3855 -1.4772
 8061SOL     OW36655   1.581   7.085   5.940 -0.4671  0.0836  0.2450
 8061SOL    HW136656   1.654   7.079   5.871 -2.1693 -0.1721 -1.5615
 8061SOL    HW236657   1.542   7.177   5.940 -0.3120  0.1575  1.0756
 8062SOL     OW36658   5.793   3.395   5.966  0.1577 -0.2951 -0.0300
 8062SOL    HW136659   5.793   3.482   5.917 -0.3088  0.1882  0.8399
 8062SOL    HW236660   5.747   3.326   5.909 -0.9399  0.4129 -0.0271
 8063SOL     OW36661   8.943   3.783   6.268  0.2934  0.3033  0.4951
 8063SOL    HW136662   8.998   3.712   6.311  1.0126  0.0333 -0.8363
 8063SOL    HW236663   8.981   3.805   6.178 -1.3200  0.6687 -0.1185
 8064SOL     OW36664   5.296   4.254   8.523  0.5117  0.5250  0.3805
 8064SOL    HW136665   5.327   4.241   8.429 -0.2658  1.5185 -0.0225
 8064SOL    HW236666   5.228   4.184   8.546  1.0365  0.0050  0.3610
 8065SOL     OW36667   8.212   6.593   8.531  0.4384 -0.0349  0.1385
 8065SOL    HW136668   8.211   6.692   8.512 -1.6268  0.0165  0.3510
 8065SOL    HW236669   8.151   6.574   8.608  1.1987 -1.4323  0.4022
 8066SOL     OW36670   2.197   0.321   5.763  0.2288  0.5501  0.1253
 8066SOL    HW136671   2.285   0.280   5.786 -0.4540 -3.8266 -4.2935
 8066SOL    HW236672   2.207   0.380   5.684 -0.9456 -0.9526 -1.1845
 8067SOL     OW36673   1.819   2.746   5.771 -0.0528 -0.1561  0.6138
 8067SOL    HW136674   1.830   2.834   5.725 -2.8780 -0.3254 -0.4755
 8067SOL    HW236675   1.736   2.748   5.827 -0.1091 -2.0963  0.6178
 8068SOL     OW36676   1.971   6.150   0.193  0.0149  0.2149  0.4175
 8068SOL    HW136677   2.057   6.142   0.143 -1.1708  3.1270 -2.2983
 8068SOL    HW236678   1.980   6.219   0.265  0.0296  0.3637  0.2738
 8069SOL     OW36679   5.919   0.526   8.774 -0.3958 -0.1724  0.5645
 8069SOL    HW136680   5.974   0.503   8.855 -0.6772 -0.6389  0.6216
 8069SOL    HW236681   5.967   0.596   8.721  0.4711 -0.9008  0.3710
 8070SOL     OW36682   5.799   4.341   0.651 -0.2650 -0.2948 -0.5425
 8070SOL    HW136683   5.814   4.426   0.702  0.8929  0.1203 -1.5313
 8070SOL    HW236684   5.866   4.272   0.680 -0.1202 -0.3155 -0.9206
 8071SOL     OW36685   2.948   3.320   1.500 -0.0682 -0.1943  0.1124
 8071SOL    HW136686   2.862   3.291   1.458 -1.0646  0.5946  1.5899
 8071SOL    HW236687   2.983   3.247   1.559  0.5333 -0.6997 -0.8576
 8072SOL     OW36688   8.152   3.258   4.972 -0.1309  0.8749  0.0359
 8072SOL    HW136689   8.184   3.333   4.914  1.1348 -0.1230 -0.5694
 8072SOL    HW236690   8.152   3.288   5.068 -1.6184  2.3181 -0.3904
 8073SOL     OW36691   8.312   1.202   4.538  0.3805 -0.0038 -0.7346
 8073SOL    HW136692   8.245   1.231   4.470  0.0183 -0.1877 -0.4584
 8073SOL    HW236693   8.267   1.197   4.628  1.2501  1.9701 -0.1548
 8074SOL     OW36694   0.790   8.317   7.265 -0.3392  0.5097 -0.2045
 8074SOL    HW136695   0.708   8.335   7.320  0.5144  3.4630  0.1479
 8074SOL    HW236696   0.827   8.403   7.230  2.0389 -0.8802 -1.2333
 8075SOL     OW36697   3.820   5.246   8.765  0.0592 -0.1240 -0.2614
 8075SOL    HW136698   3.861   5.316   8.824  0.9541 -0.6749 -0.2211
 8075SOL    HW236699   3.771   5.179   8.821 -0.7563  0.4322 -0.2967
 8076SOL     OW36700   6.876   5.191   4.315  0.1640 -0.1870  0.4514
 8076SOL    HW136701   6.951   5.203   4.251  0.3703  1.9348  1.0287
 8076SOL    HW236702   6.890   5.252   4.394 -1.1691 -1.1818  1.4797
 8077SOL     OW36703   3.402   5.465   5.723 -0.0822 -0.1179 -0.9222
 8077SOL    HW136704   3.321   5.432   5.675  0.7376 -0.4664 -2.1231
 8077SOL    HW236705   3.482   5.455   5.663  0.8039  0.4520  0.1382
 8078SOL     OW36706   0.391   7.135   0.493 -0.4327 -0.0568  0.4064
 8078SOL    HW136707   0.356   7.044   0.471 -0.5381  0.3716 -1.3144
 8078SOL    HW236708   0.490   7.136   0.482 -0.3133 -0.2412  1.4592
 8079SOL     OW36709   3.673   2.380   3.341 -0.3670  0.2736  0.5168
 8079SOL    HW136710   3.643   2.427   3.258  0.6655  0.9499  0.5138
 8079SOL    HW236711   3.764   2.414   3.367  0.9142 -2.5173 -0.1410
 8080SOL     OW36712   0.466   5.369   5.752 -0.3047  0.3058 -0.0475
 8080SOL    HW136713   0.440   5.413   5.666  1.3567  0.8206 -0.2947
 8080SOL    HW236714   0.427   5.420   5.829  0.8413  1.6856 -0.3680
 8081SOL     OW36715   6.795   4.914   2.717  0.4852  0.2686 -0.2140
 8081SOL    HW136716   6.785   4.840   2.650  0.9632 -0.3303  0.3622
 8081SOL    HW236717   6.790   4.876   2.810  0.5231  0.9916  0.0897
 8082SOL     OW36718   8.716   1.995   0.808  0.4845 -0.2744 -0.1372
 8082SOL    HW136719   8.773   2.047   0.744 -0.4665  0.2362 -0.5834
 8082SOL    HW236720   8.619   2.005   0.782  0.1583 -0.7596  0.8730
 8083SOL     OW36721   0.741   5.736   6.139 -0.6602 -0.0586 -0.0567
 8083SOL    HW136722   0.737   5.819   6.196  0.9621  0.2620 -0.3912
 8083SOL    HW236723   0.832   5.727   6.100 -0.8356 -2.0264 -0.0308
 8084SOL     OW36724   2.414   3.053   7.250 -0.1870  0.3980 -0.1786
 8084SOL    HW136725   2.447   3.143   7.276  0.0140  0.1932  0.2671
 8084SOL    HW236726   2.489   2.998   7.215 -0.6402  1.0378 -2.2293
 8085SOL     OW36727   7.185   5.322   6.363 -0.5798  0.3088 -0.2579
 8085SOL    HW136728   7.151   5.367   6.446 -0.2958 -0.6087  0.3722
 8085SOL    HW236729   7.284   5.330   6.359 -0.6356  0.7645 -0.7619
 8086SOL     OW36730   3.746   3.921   7.301  0.4257  0.6626  0.6873
 8086SOL    HW136731   3.698   3.834   7.296 -0.9706  1.4359  0.2131
 8086SOL    HW236732   3.756   3.959   7.209  0.2808  1.3897  0.9667
 8087SOL     OW36733   4.464   7.325   1.041  0.1191  0.1206  0.2837
 8087SOL    HW136734   4.451   7.343   0.944  0.1606  0.3668  0.3219
 8087SOL    HW236735   4.549   7.368   1.072 -1.3214  2.5555  1.0690
 8088SOL     OW36736   0.967   7.807   8.759 -0.1443 -0.1615  0.0299
 8088SOL    HW136737   0.893   7.872   8.740 -0.3598 -0.8544 -1.6595
 8088SOL    HW236738   1.054   7.850   8.737 -0.1795  0.0642  0.3336
 8089SOL     OW36739   7.922   5.900   6.218 -0.2972 -0.3007  0.3790
 8089SOL    HW136740   7.858   5.971   6.247  0.5496  0.8021 -0.4422
 8089SOL    HW236741   7.975   5.932   6.139  1.4476 -1.0941  1.2030
 8090SOL     OW36742   0.882   6.044   5.830  0.2681 -0.1480  0.2384
 8090SOL    HW136743   0.915   5.960   5.787 -0.6543  0.2009 -1.1631
 8090SOL    HW236744   0.904   6.041   5.928  1.0759 -1.5979  0.0336
 8091SOL     OW36745   5.682   3.585   2.522 -0.1816 -0.5272  0.4356
 8091SOL    HW136746   5.740   3.643   2.578 -0.3214 -1.3385  1.4298
 8091SOL    HW236747   5.733   3.504   2.492 -0.1023 -0.0936 -0.6253
 8092SOL     OW36748   5.981   4.102   0.693  0.3258  0.2995  0.4444
 8092SOL    HW136749   6.046   4.119   0.619  0.5459 -2.6449 -0.0893
 8092SOL    HW236750   5.962   4.004   0.700 -3.9110  1.0146  0.7280
 8093SOL     OW36751   1.013   6.905   1.900  0.1718 -0.8113 -0.3901
 8093SOL    HW136752   1.056   6.849   1.971  0.9063 -0.0304 -0.2088
 8093SOL    HW236753   0.920   6.874   1.885 -0.3144 -0.3884  1.6059
 8094SOL     OW36754   3.032   5.341   5.701  0.1599 -0.1489  0.0233
 8094SOL    HW136755   3.050   5.432   5.739  0.2389  0.9534 -2.5614
 8094SOL    HW236756   3.068   5.337   5.608 -0.8718 -2.4652 -0.2886
 8095SOL     OW36757   6.093   4.264   2.077 -0.1822  0.0132 -0.2951
 8095SOL    HW136758   6.078   4.178   2.028  0.4665 -0.7632  0.8773
 8095SOL    HW236759   6.191   4.284   2.080 -0.2040 -0.0765  0.9317
 8096SOL     OW36760   3.311   4.846   5.343  0.3357  0.0190  0.0507
 8096SOL    HW136761   3.259   4.923   5.379  2.0568  1.1230  0.2561
 8096SOL    HW236762   3.296   4.838   5.245 -0.0410  0.4716  0.0721
 8097SOL     OW36763   8.004   3.723   4.542 -0.0613 -0.4010  0.3803
 8097SOL    HW136764   8.026   3.734   4.445 -0.4745 -0.1941  0.3110
 8097SOL    HW236765   7.995   3.626   4.563 -0.8794 -0.4015  0.0137
 8098SOL     OW36766   7.035   5.007   1.529 -0.3144 -0.2408  0.0772
 8098SOL    HW136767   6.981   5.091   1.540 -0.5191 -0.1823 -1.2625
 8098SOL    HW236768   7.090   4.991   1.611 -1.3397  0.4419  0.9093
 8099SOL     OW36769   3.634   2.253   7.491 -0.7893 -0.1050 -0.0008
 8099SOL    HW136770   3.573   2.326   7.459 -0.3251  0.2614 -0.0592
 8099SOL    HW236771   3.600   2.164   7.460 -1.3499  0.0896  0.0597
 8100SOL     OW36772   5.248   1.200   8.740 -0.0704  0.5950 -0.4087
 8100SOL    HW136773   5.176   1.180   8.806 -0.8183 -0.0509 -1.3933
 8100SOL    HW236774   5.230   1.288   8.696  0.4796  1.0702  0.3203
 8101SOL     OW36775   2.945   2.642   4.003  0.2863  0.2519 -0.2483
 8101SOL    HW136776   2.934   2.667   4.099  1.2809  0.5935 -0.2153
 8101SOL    HW236777   2.907   2.551   3.987 -0.8950  0.6496  0.2235
 8102SOL     OW36778   2.792   2.396   6.776 -0.3517  0.2591  0.0956
 8102SOL    HW136779   2.752   2.452   6.703 -0.6220  1.4356  1.1257
 8102SOL    HW236780   2.720   2.350   6.827 -0.1503 -0.7371 -0.5025
 8103SOL     OW36781   2.138   8.835   7.082  0.1361  0.4317  0.3512
 8103SOL    HW136782   2.139   8.795   6.990  1.9292  0.2934  0.4176
 8103SOL    HW236783   2.128   8.763   7.150  0.6195  0.3499  0.3393
 8104SOL     OW36784   4.124   8.721   6.031  0.3175  0.3011 -0.4746
 8104SOL    HW136785   4.172   8.793   5.980 -0.8305  1.3135 -0.1482
 8104SOL    HW236786   4.176   8.636   6.026  0.9545  0.7763 -2.1038
 8105SOL     OW36787   6.455   1.499   0.092 -0.2118  0.3117 -0.3536
 8105SOL    HW136788   6.421   1.545   0.010 -0.7685  0.2180 -0.1713
 8105SOL    HW236789   6.523   1.557   0.137  0.1489  0.3307 -0.9217
 8106SOL     OW36790   2.692   0.782   5.741 -0.2055  0.0242 -0.4908
 8106SOL    HW136791   2.668   0.808   5.648  0.0620  0.7615 -0.3615
 8106SOL    HW236792   2.635   0.706   5.771 -0.5751  0.0588 -1.1088
 8107SOL     OW36793   4.810   3.285   5.837 -0.5571 -0.5295  0.1403
 8107SOL    HW136794   4.770   3.311   5.749  0.7669 -3.3127 -1.3550
 8107SOL    HW236795   4.909   3.302   5.834 -0.3550 -1.6162  0.7104
 8108SOL     OW36796   8.858   3.706   3.069 -0.2585 -0.1020 -0.1108
 8108SOL    HW136797   8.869   3.635   3.139 -0.0716 -0.6534 -0.6940
 8108SOL    HW236798   8.841   3.662   2.980 -0.2078  0.5883 -0.4606
 8109SOL     OW36799   3.771   2.671   7.679  0.2680 -0.4249 -0.5233
 8109SOL    HW136800   3.679   2.673   7.642 -0.0316  0.7335  0.2392
 8109SOL    HW236801   3.802   2.765   7.697  0.0895 -0.9409  2.8280
 8110SOL     OW36802   6.905   6.085   8.643 -0.2456  0.0906 -0.2454
 8110SOL    HW136803   6.839   6.062   8.571 -0.8855 -2.4851  1.0919
 8110SOL    HW236804   6.996   6.057   8.613 -0.4616 -0.6861 -0.1912
 8111SOL     OW36805   2.585   5.683   1.119 -0.0942 -0.2562  0.2479
 8111SOL    HW136806   2.499   5.661   1.166 -0.6606  0.0929 -0.6155
 8111SOL    HW236807   2.597   5.622   1.041 -0.8642  1.3830 -1.1878
 8112SOL     OW36808   4.778   1.462   5.377  0.6262 -0.5503  0.6127
 8112SOL    HW136809   4.851   1.395   5.371 -0.3860 -1.5130 -1.5749
 8112SOL    HW236810   4.781   1.522   5.296 -0.1966  0.2395  1.1568
 8113SOL     OW36811   8.360   5.087   1.893 -0.2114 -0.0374 -0.2109
 8113SOL    HW136812   8.460   5.086   1.891 -0.1901 -1.8279  0.7757
 8113SOL    HW236813   8.325   5.119   1.805  1.2267  1.2771 -0.3233
 8114SOL     OW36814   8.709   6.270   6.903 -0.6876  0.3175 -0.4866
 8114SOL    HW136815   8.709   6.252   6.804 -1.4738  1.2568 -0.6712
 8114SOL    HW236816   8.686   6.366   6.919  0.2601  0.3720  0.5901
 8115SOL     OW36817   6.105   3.061   3.283 -1.0633 -0.0708  0.3563
 8115SOL    HW136818   6.095   3.161   3.274  1.6353  0.0628 -1.9267
 8115SOL    HW236819   6.169   3.041   3.357  0.5799  0.0363 -1.0069
 8116SOL     OW36820   2.795   2.059   6.037  0.9696  0.1016 -0.7863
 8116SOL    HW136821   2.754   2.143   6.001 -0.7725 -0.7139 -0.8088
 8116SOL    HW236822   2.879   2.080   6.086 -0.0420  1.9986  0.1871
 8117SOL     OW36823   4.106   1.949   2.479  0.5868 -0.5282 -0.0391
 8117SOL    HW136824   4.078   1.864   2.522  0.5360  0.4040  1.8151
 8117SOL    HW236825   4.028   2.011   2.471  0.8318 -0.2623 -0.4404
 8118SOL     OW36826   7.416   6.255   8.188  0.2188 -0.1650  0.4255
 8118SOL    HW136827   7.425   6.156   8.178 -2.3958 -0.9221  4.5445
 8118SOL    HW236828   7.321   6.281   8.173  0.5484  1.4762  1.1221
 8119SOL     OW36829   6.475   1.440   2.003  0.0998 -0.0745  0.0889
 8119SOL    HW136830   6.487   1.524   2.057 -1.1242  1.1887 -1.5633
 8119SOL    HW236831   6.384   1.402   2.021  0.4771 -0.7967  0.4778
 8120SOL     OW36832   8.274   5.863   1.041 -0.6901 -0.1191  0.1833
 8120SOL    HW136833   8.264   5.857   1.140  0.4138 -1.7027  0.2145
 8120SOL    HW236834   8.253   5.956   1.011 -0.7392  0.4501  1.9230
 8121SOL     OW36835   1.628   7.926   0.307  0.2826  0.2556 -0.4988
 8121SOL    HW136836   1.538   7.903   0.272  0.6713 -0.7294 -0.8788
 8121SOL    HW236837   1.697   7.907   0.237  0.7767  1.1003 -0.2520
 8122SOL     OW36838   6.384   0.151   7.153 -0.1641  0.2256 -0.4024
 8122SOL    HW136839   6.313   0.172   7.220  0.6908 -0.1589  0.6383
 8122SOL    HW236840   6.449   0.085   7.192 -0.4565 -1.1208 -2.1215
 8123SOL     OW36841   5.246   5.978   2.268 -0.1916 -0.4122 -0.3960
 8123SOL    HW136842   5.206   5.953   2.357  0.7550  0.4531  0.2792
 8123SOL    HW236843   5.290   5.898   2.228 -0.2163 -0.6911  0.1263
 8124SOL     OW36844   5.287   3.698   8.629 -0.2986  0.1570  0.1202
 8124SOL    HW136845   5.247   3.613   8.663  1.0372 -1.3985 -2.0857
 8124SOL    HW236846   5.215   3.759   8.599 -1.1613 -1.2902 -0.7922
 8125SOL     OW36847   2.263   5.688   5.991  0.0627  0.2681 -0.1934
 8125SOL    HW136848   2.238   5.781   5.962  1.5640  0.7277 -0.0998
 8125SOL    HW236849   2.249   5.679   6.090  0.6625  0.6704 -0.0637
 8126SOL     OW36850   7.405   3.875   0.842  0.0714 -0.0573  0.2503
 8126SOL    HW136851   7.485   3.900   0.896  1.4951  1.6176 -2.4722
 8126SOL    HW236852   7.326   3.926   0.874  0.6024 -0.0130  1.5202
 8127SOL     OW36853   6.582   2.010   8.241  0.2232 -0.2143 -0.0677
 8127SOL    HW136854   6.579   1.993   8.142 -1.3529 -3.2485  0.4331
 8127SOL    HW236855   6.675   1.997   8.274  0.5495 -0.2817 -0.9830
 8128SOL     OW36856   3.096   4.605   6.664 -0.3176  0.1499  0.5079
 8128SOL    HW136857   3.157   4.607   6.743  0.9194 -3.2825 -0.2737
 8128SOL    HW236858   3.127   4.671   6.596 -0.3943  1.9136  2.1484
 8129SOL     OW36859   6.019   3.816   0.433  0.0225 -0.2932 -0.3641
 8129SOL    HW136860   6.096   3.754   0.449 -0.1695 -0.1107  1.3496
 8129SOL    HW236861   5.969   3.830   0.519 -0.2270  1.8350 -0.8257
 8130SOL     OW36862   1.758   1.761   6.065 -0.0447 -0.1378  0.0889
 8130SOL    HW136863   1.710   1.694   6.008  1.7778 -1.6080  0.2310
 8130SOL    HW236864   1.769   1.846   6.014  0.7681 -1.1304 -1.4242
 8131SOL     OW36865   5.792   2.758   8.089 -0.7077 -0.1142  0.8624
 8131SOL    HW136866   5.849   2.774   8.170  1.1640 -4.0431  0.4418
 8131SOL    HW236867   5.703   2.722   8.117  0.2841 -2.3964  1.2391
 8132SOL     OW36868   1.985   8.081   6.861 -0.0602  0.3003  0.4000
 8132SOL    HW136869   1.913   8.114   6.800 -0.0280  1.8449  1.1731
 8132SOL    HW236870   2.039   8.159   6.893 -1.5489 -0.1840  4.3078
 8133SOL     OW36871   1.524   7.438   8.458 -0.2575  0.7091  0.1165
 8133SOL    HW136872   1.479   7.401   8.540 -0.9813  0.5452 -0.3422
 8133SOL    HW236873   1.509   7.375   8.382  0.6864  0.7060 -0.0639
 8134SOL     OW36874   8.789   7.361   0.743  0.0357 -0.6716  0.6255
 8134SOL    HW136875   8.888   7.352   0.732  0.0451  0.1917  0.0011
 8134SOL    HW236876   8.744   7.291   0.688  0.2000  1.3780 -2.2810
 8135SOL     OW36877   7.066   8.067   8.762 -0.1764  0.4603  0.4758
 8135SOL    HW136878   7.117   8.085   8.678 -1.3019  2.2119  0.1254
 8135SOL    HW236879   7.099   8.128   8.834  0.7781 -1.0305  1.3097
 8136SOL     OW36880   2.897   3.830   7.173 -1.1504  0.1064  0.2743
 8136SOL    HW136881   2.878   3.835   7.075 -1.4707 -1.1993  0.2631
 8136SOL    HW236882   2.817   3.794   7.221 -0.7648  0.1052  0.9273
 8137SOL     OW36883   6.723   3.338   2.022 -0.6605  0.1026  0.1845
 8137SOL    HW136884   6.764   3.262   1.970 -1.5179  0.8212 -1.5753
 8137SOL    HW236885   6.762   3.424   1.991 -0.5272  0.4848  1.3931
 8138SOL     OW36886   7.784   0.662   8.468 -0.1237  0.2097  0.4662
 8138SOL    HW136887   7.852   0.731   8.493  1.2116 -0.8036 -0.3113
 8138SOL    HW236888   7.737   0.630   8.551  1.5384 -0.3155  1.2165
 8139SOL     OW36889   8.380   0.171   5.778  0.0278 -0.0978  0.0042
 8139SOL    HW136890   8.391   0.176   5.877 -1.2722  1.3169  0.0897
 8139SOL    HW236891   8.455   0.220   5.734 -0.4301  0.8984  0.3319
 8140SOL     OW36892   0.834   0.760   5.091  0.1976  0.4636 -0.2189
 8140SOL    HW136893   0.836   0.758   5.191  0.2987 -0.2451 -0.2304
 8140SOL    HW236894   0.863   0.671   5.056  3.1401  1.6190 -0.9323
 8141SOL     OW36895   4.835   2.500   2.793  0.1146 -0.2835  0.2588
 8141SOL    HW136896   4.775   2.552   2.731  1.4261 -0.9026 -1.5866
 8141SOL    HW236897   4.879   2.563   2.857 -2.5204  0.1670  1.6769
 8142SOL     OW36898   0.716   7.654   3.649  0.0327  0.1966  0.2010
 8142SOL    HW136899   0.731   7.737   3.703 -1.5645  1.0353 -0.6196
 8142SOL    HW236900   0.722   7.675   3.552 -0.7711 -0.5533 -0.0210
 8143SOL     OW36901   3.084   6.526   5.140 -0.3322  0.0075  0.1049
 8143SOL    HW136902   2.997   6.490   5.172  0.6864 -0.7628  2.1277
 8143SOL    HW236903   3.156   6.459   5.158  0.9211  1.2810 -0.0968
 8144SOL     OW36904   2.366   6.862   6.641 -0.5998 -0.4137 -0.0202
 8144SOL    HW136905   2.435   6.822   6.581 -0.3377 -1.7531  1.1238
 8144SOL    HW236906   2.275   6.835   6.610 -0.5630  0.4205 -0.8716
 8145SOL     OW36907   5.901   4.912   8.494 -0.0006  0.0515  0.4667
 8145SOL    HW136908   5.963   4.990   8.484 -0.6017  0.6099  0.9399
 8145SOL    HW236909   5.808   4.941   8.471 -0.6550  0.1822  3.0229
 8146SOL     OW36910   4.146   3.779   8.076 -0.1771 -0.3261  0.3677
 8146SOL    HW136911   4.140   3.681   8.096  1.0425 -0.9354 -1.9867
 8146SOL    HW236912   4.122   3.794   7.980  0.1715  1.6318  0.5761
 8147SOL     OW36913   1.636   2.146   7.457 -1.0826  0.0649 -0.0512
 8147SOL    HW136914   1.643   2.087   7.538 -0.9667 -0.0259 -0.1272
 8147SOL    HW236915   1.652   2.241   7.485  0.2536 -0.1071 -0.1676
 8148SOL     OW36916   0.968   7.716   0.878 -0.3975 -0.1134 -0.3462
 8148SOL    HW136917   0.996   7.682   0.968  0.3252 -0.0084 -0.5316
 8148SOL    HW236918   1.015   7.801   0.858 -1.9078  0.8028 -0.0613
 8149SOL     OW36919   3.691   2.009   5.550 -0.4897  0.3689  0.5156
 8149SOL    HW136920   3.754   1.977   5.479 -1.3306 -0.3182  0.0755
 8149SOL    HW236921   3.629   1.935   5.575 -1.9178  1.3993  0.0738
 8150SOL     OW36922   1.872   8.129   8.691  0.2470  0.9942  0.2635
 8150SOL    HW136923   1.966   8.128   8.725  0.5334  1.8137 -0.4795
 8150SOL    HW236924   1.830   8.039   8.705  0.8693  0.8737  1.3420
 8151SOL     OW36925   3.716   7.182   7.497 -0.0810  0.4485 -0.2691
 8151SOL    HW136926   3.725   7.282   7.492 -1.1227  0.5321 -0.5683
 8151SOL    HW236927   3.807   7.141   7.508  0.2393  1.5007  1.1406
 8152SOL     OW36928   2.110   4.309   4.101  0.2260 -0.4961  0.2349
 8152SOL    HW136929   2.156   4.223   4.079  0.5905 -0.7617  1.9157
 8152SOL    HW236930   2.030   4.290   4.158 -0.2957  0.1931 -0.2620
 8153SOL     OW36931   8.458   2.016   0.719 -0.0556  0.6619 -0.0431
 8153SOL    HW136932   8.475   1.961   0.637 -1.9751  1.1726 -0.8148
 8153SOL    HW236933   8.380   1.978   0.769  0.1666  1.2348  0.7430
 8154SOL     OW36934   5.879   7.670   7.408  0.7887 -0.2722 -0.4584
 8154SOL    HW136935   5.934   7.614   7.346  0.9315 -0.8624  0.1895
 8154SOL    HW236936   5.885   7.633   7.501  2.9846  2.3097  0.5025
 8155SOL     OW36937   1.230   6.622   0.886 -0.0739 -0.3468  0.1520
 8155SOL    HW136938   1.217   6.717   0.914 -1.3445  0.2594 -2.2611
 8155SOL    HW236939   1.326   6.606   0.863  0.1165  0.3920  0.4266
 8156SOL     OW36940   6.836   5.101   8.693 -0.4299 -0.2737 -0.2190
 8156SOL    HW136941   6.936   5.095   8.698 -0.5289 -2.6865 -0.5669
 8156SOL    HW236942   6.800   5.124   8.784  0.4050  0.0178  0.0427
 8157SOL     OW36943   7.138   7.738   8.102  0.0441  0.1170  0.4579
 8157SOL    HW136944   7.207   7.723   8.173  0.1581 -0.7499  0.1763
 8157SOL    HW236945   7.047   7.738   8.143  0.1015 -0.5033  0.5936
 8158SOL     OW36946   7.940   1.787   4.794  0.3683 -0.4069  0.5057
 8158SOL    HW136947   7.913   1.830   4.708 -0.4115 -1.9926 -0.0519
 8158SOL    HW236948   7.859   1.768   4.848  0.9496  2.3212  2.4898
 8159SOL     OW36949   7.035   5.715   4.247 -0.3177  0.0545  0.1642
 8159SOL    HW136950   7.074   5.625   4.267 -2.0530 -0.6343  0.5421
 8159SOL    HW236951   6.975   5.708   4.167  0.2300  1.0785 -0.3503
 8160SOL     OW36952   0.715   8.105   4.839  0.5471  0.2095 -0.8129
 8160SOL    HW136953   0.762   8.148   4.762  1.2790  0.1916 -0.3854
 8160SOL    HW236954   0.780   8.047   4.889 -0.0246 -0.0915 -0.4232
 8161SOL     OW36955   8.403   5.626   3.327  0.2862 -0.6768 -0.3393
 8161SOL    HW136956   8.412   5.660   3.233 -1.8139  0.2004 -0.2315
 8161SOL    HW236957   8.489   5.582   3.354  1.4640  0.4474 -2.1147
 8162SOL     OW36958   4.388   2.099   7.937  0.0344 -0.3889  0.6406
 8162SOL    HW136959   4.422   2.086   7.843 -0.4357 -0.9873  0.5488
 8162SOL    HW236960   4.455   2.152   7.989 -0.6259  1.7605 -0.6257
 8163SOL     OW36961   4.701   3.490   2.479  0.1361  0.9096  0.1043
 8163SOL    HW136962   4.769   3.527   2.416 -0.1286  0.0191 -0.7145
 8163SOL    HW236963   4.617   3.471   2.430 -0.4694  1.3203  0.9702
 8164SOL     OW36964   4.531   2.254   8.136 -0.1677 -0.0855  0.0883
 8164SOL    HW136965   4.559   2.214   8.224 -0.3958  0.3560  0.3625
 8164SOL    HW236966   4.610   2.258   8.075  0.1901  0.3771  0.5699
 8165SOL     OW36967   6.355   8.241   5.892  0.1091  0.2444  0.0373
 8165SOL    HW136968   6.353   8.261   5.990  0.9788  0.3404  0.0394
 8165SOL    HW236969   6.272   8.275   5.849 -1.6858 -2.4565  1.2345
 8166SOL     OW36970   0.388   3.131   6.205 -0.1265  0.6113  0.2545
 8166SOL    HW136971   0.470   3.132   6.262 -0.5613 -0.7751  0.9080
 8166SOL    HW236972   0.336   3.216   6.220  0.1130  0.5609  1.4115
 8167SOL     OW36973   0.169   5.008   8.585 -0.1756  0.6485 -0.8090
 8167SOL    HW136974   0.090   5.037   8.638  1.7063  1.6475  1.5366
 8167SOL    HW236975   0.236   5.082   8.583  1.3105 -0.6865 -1.5606
 8168SOL     OW36976   2.829   3.765   8.635  0.1953  0.2899 -0.2235
 8168SOL    HW136977   2.900   3.823   8.595 -0.6481  1.3692 -0.1837
 8168SOL    HW236978   2.779   3.816   8.705  0.7929 -1.1609  1.3050
 8169SOL     OW36979   2.703   4.889   2.256  0.2366  0.0397  0.0960
 8169SOL    HW136980   2.716   4.845   2.345  0.7115  2.1382  1.0905
 8169SOL    HW236981   2.792   4.902   2.213  0.0818 -0.1227 -0.2732
 8170SOL     OW36982   3.644   1.150   5.831 -0.0218  0.2606  0.7581
 8170SOL    HW136983   3.596   1.063   5.841  0.9257 -0.1582  1.7205
 8170SOL    HW236984   3.580   1.220   5.798 -0.9428 -0.6254  0.6482
 8171SOL     OW36985   0.743   4.790   5.695  0.1291 -0.0944  0.0543
 8171SOL    HW136986   0.666   4.847   5.666  0.6028  0.9194  0.7902
 8171SOL    HW236987   0.733   4.767   5.792  1.3740  1.0340  0.4601
 8172SOL     OW36988   6.210   7.621   0.127  0.1845 -0.3568  0.0888
 8172SOL    HW136989   6.298   7.638   0.083 -0.5720 -0.8022 -1.6172
 8172SOL    HW236990   6.198   7.522   0.140 -0.0334 -0.2910  0.4000
 8173SOL     OW36991   0.666   1.373   2.037  0.6151 -0.1388  0.9402
 8173SOL    HW136992   0.692   1.280   2.014 -0.4926 -0.4408  0.9005
 8173SOL    HW236993   0.577   1.394   1.996  1.5432  1.4441 -0.3304
 8174SOL     OW36994   2.004   3.369   2.883  0.5289  0.1606  0.5081
 8174SOL    HW136995   1.993   3.461   2.845 -0.0062 -0.2760 -0.4053
 8174SOL    HW236996   2.101   3.346   2.886  0.5506  0.0732 -0.8927
 8175SOL     OW36997   3.962   0.427   6.772 -0.2818 -0.5811  0.0380
 8175SOL    HW136998   3.903   0.398   6.847 -1.5431 -1.0657 -1.1105
 8175SOL    HW236999   3.911   0.422   6.686  0.6819  1.3253 -0.6781
 8176SOL     OW37000   0.688   8.567   7.946  0.0079 -0.5377 -0.7455
 8176SOL    HW137001   0.757   8.545   8.015 -0.9616 -1.4003 -0.0431
 8176SOL    HW237002   0.729   8.558   7.855  0.3847 -2.7419 -0.3998
 8177SOL     OW37003   3.474   6.309   6.102  0.2191 -0.2320 -1.2000
 8177SOL    HW137004   3.503   6.276   6.012  1.7664  0.5743 -1.0115
 8177SOL    HW237005   3.501   6.243   6.172  0.2330 -0.2103 -1.1850
 8178SOL     OW37006   6.677   6.201   3.251  0.0305 -0.5008  0.7605
 8178SOL    HW137007   6.687   6.116   3.198 -0.4360  0.9183 -1.6736
 8178SOL    HW237008   6.690   6.280   3.191 -0.9158  1.1871  2.7020
 8179SOL     OW37009   2.135   7.196   6.249  0.0203 -0.1300  0.0639
 8179SOL    HW137010   2.129   7.169   6.344 -0.5729  1.4681  0.5083
 8179SOL    HW237011   2.166   7.291   6.243  2.4323 -0.9799 -1.4395
 8180SOL     OW37012   7.353   4.355   3.222 -0.6876 -0.6573 -0.2987
 8180SOL    HW137013   7.408   4.379   3.302 -1.8837  2.3320 -0.3109
 8180SOL    HW237014   7.414   4.332   3.146  0.5546  1.2182  0.0839
 8181SOL     OW37015   4.009   8.208   6.153 -0.1132 -0.4986  0.4655
 8181SOL    HW137016   4.105   8.185   6.169 -0.1079 -0.2403  0.8149
 8181SOL    HW237017   3.986   8.291   6.204 -0.8057 -1.1560  1.2344
 8182SOL     OW37018   4.169   3.930   2.685 -0.1898 -0.0237 -0.4674
 8182SOL    HW137019   4.084   3.956   2.731  1.2035  1.4434  1.3684
 8182SOL    HW237020   4.182   3.987   2.604 -1.1836 -0.5742 -1.0162
 8183SOL     OW37021   0.145   8.293   4.969 -0.4504 -0.3246  0.9086
 8183SOL    HW137022   0.210   8.240   4.914 -0.3977  0.8091 -0.1380
 8183SOL    HW237023   0.069   8.323   4.911 -0.2478  1.1441  1.3953
 8184SOL     OW37024   6.589   4.359   8.134  0.1219  0.1842  0.3125
 8184SOL    HW137025   6.565   4.446   8.177  0.0264  0.4835 -0.3373
 8184SOL    HW237026   6.633   4.376   8.046 -1.1285 -0.4368 -0.4528
 8185SOL     OW37027   7.154   0.313   8.395  0.0289 -0.2693 -0.5041
 8185SOL    HW137028   7.237   0.297   8.342  2.0776  0.5253  2.3158
 8185SOL    HW237029   7.123   0.226   8.435  0.8013 -0.2155  0.2306
 8186SOL     OW37030   7.561   5.729   3.807 -0.1621 -0.6786  0.0647
 8186SOL    HW137031   7.586   5.822   3.781  1.5938 -1.3119 -0.5793
 8186SOL    HW237032   7.510   5.731   3.893  0.7773  0.7908  0.6018
 8187SOL     OW37033   2.612   2.313   0.574 -0.3351  0.6249  0.4846
 8187SOL    HW137034   2.697   2.336   0.526 -0.3280  0.9016  0.6300
 8187SOL    HW237035   2.557   2.251   0.517 -0.0680  0.4977  0.3620
 8188SOL     OW37036   1.554   6.027   1.813  0.1374 -0.4622  0.0944
 8188SOL    HW137037   1.642   6.009   1.858  0.8979  1.2423 -0.7064
 8188SOL    HW237038   1.551   5.978   1.726  1.1430  1.1540 -0.8555
 8189SOL     OW37039   0.140   2.339   8.128 -0.0225  0.3235 -0.5930
 8189SOL    HW137040   0.067   2.312   8.065 -0.5311  2.2314 -0.8638
 8189SOL    HW237041   0.113   2.316   8.221  0.1166 -1.2317 -0.9337
 8190SOL     OW37042   8.958   8.732   6.799  0.0317 -0.2934 -0.5045
 8190SOL    HW137043   9.020   8.798   6.755 -0.0691 -0.8582 -1.5041
 8190SOL    HW237044   8.864   8.766   6.793  0.3087  0.9379  1.6989
 8191SOL     OW37045   8.351   2.659   0.639 -0.5754 -0.2194  0.2058
 8191SOL    HW137046   8.256   2.631   0.658 -0.5322 -0.6040 -0.1338
 8191SOL    HW237047   8.351   2.726   0.565 -0.7080  0.9714  1.2657
 8192SOL     OW37048   5.666   6.510   1.105  0.1461  0.2335  0.4597
 8192SOL    HW137049   5.671   6.607   1.079 -0.4613 -0.4099 -2.2665
 8192SOL    HW237050   5.753   6.465   1.082  0.2442  0.0254  1.2387
 8193SOL     OW37051   3.519   8.953   7.045 -0.0357 -0.8487  1.0189
 8193SOL    HW137052   3.518   9.032   7.107 -1.1397 -0.0210 -0.0219
 8193SOL    HW237053   3.450   8.887   7.075 -1.6843  0.2637 -0.1674
 8194SOL     OW37054   2.915   6.596   4.208 -0.0495  0.4907  0.6316
 8194SOL    HW137055   2.879   6.530   4.143 -0.8780  1.1467  0.4029
 8194SOL    HW237056   3.003   6.631   4.176 -0.0749  0.2247  0.2681
 8195SOL     OW37057   6.988   5.355   3.343  0.1058  0.3093  0.0356
 8195SOL    HW137058   7.070   5.326   3.292 -0.1982 -0.3448 -0.0796
 8195SOL    HW237059   6.914   5.290   3.327  0.2151 -0.3099  1.9031
 8196SOL     OW37060   7.948   3.896   6.795 -0.6962 -0.1152 -0.2944
 8196SOL    HW137061   7.959   3.995   6.791 -1.5601 -0.0599 -1.9143
 8196SOL    HW237062   7.872   3.872   6.855 -0.4101  0.1892  0.1894
 8197SOL     OW37063   8.305   7.423   3.467  0.2318 -0.0597 -0.7043
 8197SOL    HW137064   8.373   7.408   3.395 -0.5087 -0.9227 -1.2322
 8197SOL    HW237065   8.219   7.380   3.441 -0.5715  1.1753 -0.1089
 8198SOL     OW37066   6.695   0.223   6.890  0.4816 -0.2752 -0.3083
 8198SOL    HW137067   6.706   0.126   6.869  1.1942 -0.4780  0.9628
 8198SOL    HW237068   6.765   0.275   6.841  1.0885 -0.5776  0.2164
 8199SOL     OW37069   3.440   4.464   6.347  0.0252 -0.2296  0.1177
 8199SOL    HW137070   3.422   4.416   6.432  0.3630  0.1279  0.3945
 8199SOL    HW237071   3.514   4.419   6.297 -1.1023 -1.2557 -0.6591
 8200SOL     OW37072   5.103   3.007   0.432 -1.1969 -0.9628 -0.1740
 8200SOL    HW137073   5.058   2.964   0.510 -0.9979 -0.8526 -0.0004
 8200SOL    HW237074   5.114   3.105   0.450  0.6261 -1.2834  0.4724
 8201SOL     OW37075   1.478   4.900   4.381  0.1981  0.2390  0.1739
 8201SOL    HW137076   1.543   4.971   4.405  0.1570 -0.1128  1.3263
 8201SOL    HW237077   1.524   4.811   4.382  0.7521  0.4075 -3.1860
 8202SOL     OW37078   7.742   3.406   2.256  0.5811 -0.4610  0.0125
 8202SOL    HW137079   7.772   3.364   2.341 -0.8465 -0.7379  0.3917
 8202SOL    HW237080   7.822   3.425   2.198  1.5044 -0.7912  1.1598
 8203SOL     OW37081   0.757   7.894   7.322 -0.7391  0.0346 -0.3213
 8203SOL    HW137082   0.678   7.942   7.361 -1.0642 -0.1523 -0.7436
 8203SOL    HW237083   0.799   7.951   7.251  1.6368  1.6573  2.2794
 8204SOL     OW37084   1.123   5.328   8.760  0.0026  0.4371 -0.2468
 8204SOL    HW137085   1.164   5.237   8.757  0.2958  0.5776 -0.6152
 8204SOL    HW237086   1.116   5.358   8.855 -0.5480 -0.1707 -0.0975
 8205SOL     OW37087   7.800   1.923   4.608  0.4610  0.3448 -0.0915
 8205SOL    HW137088   7.727   1.941   4.674 -0.0845 -0.5114 -0.4454
 8205SOL    HW237089   7.760   1.887   4.524  1.4179 -1.5783  0.2550
 8206SOL     OW37090   7.112   3.513   8.691  0.0361 -0.3313 -0.7596
 8206SOL    HW137091   7.155   3.586   8.744  1.9430 -2.4510  0.7256
 8206SOL    HW237092   7.113   3.428   8.744 -0.0196 -1.9841 -3.3098
 8207SOL     OW37093   2.911   0.533   6.946  0.4807 -0.3672 -0.3038
 8207SOL    HW137094   3.005   0.518   6.979  1.3798  0.8165 -2.2639
 8207SOL    HW237095   2.898   0.485   6.859 -0.7844 -0.6009  0.0018
 8208SOL     OW37096   5.156   4.217   3.021 -0.7516 -0.3060 -0.2926
 8208SOL    HW137097   5.228   4.282   3.047 -2.9426  1.7535  0.7404
 8208SOL    HW237098   5.169   4.190   2.925  0.5731  1.1341 -0.5417
 8209SOL     OW37099   0.820   8.944   7.064 -0.0261  0.4716  0.3871
 8209SOL    HW137100   0.860   8.853   7.063  1.7699  1.2481 -1.5261
 8209SOL    HW237101   0.744   8.948   6.999 -0.1736  0.3231  0.5499
 8210SOL     OW37102   6.103   6.446   0.325 -0.0785 -0.1511 -0.3097
 8210SOL    HW137103   6.192   6.427   0.282  0.2661  1.6427 -0.4230
 8210SOL    HW237104   6.034   6.462   0.254  0.1398  1.2124 -0.2373
 8211SOL     OW37105   0.567   7.755   0.159  0.5902  0.4726  0.5210
 8211SOL    HW137106   0.592   7.851   0.168  1.6571  0.2750 -0.1546
 8211SOL    HW237107   0.543   7.736   0.063  0.6961 -0.0046  0.5872
 8212SOL     OW37108   0.168   7.545   4.586  0.2930  0.2045 -0.6232
 8212SOL    HW137109   0.154   7.636   4.625 -0.6580  0.5941 -1.8620
 8212SOL    HW237110   0.171   7.477   4.660  0.5870  1.1773  0.2715
 8213SOL     OW37111   1.630   0.713   3.954 -0.3333 -0.1716 -0.1137
 8213SOL    HW137112   1.613   0.789   4.016 -0.3983 -1.0380  0.9360
 8213SOL    HW237113   1.728   0.691   3.955 -0.4573 -0.7006  0.2782
 8214SOL     OW37114   2.403   2.665   8.145 -0.0222 -0.0955 -0.1598
 8214SOL    HW137115   2.426   2.601   8.072  1.3461  1.4703 -1.1324
 8214SOL    HW237116   2.486   2.703   8.184 -0.7814 -0.0461  1.4470
 8215SOL     OW37117   1.978   6.597   7.859 -0.7547  0.3007  0.6679
 8215SOL    HW137118   1.919   6.670   7.825 -0.2772  0.6913  0.6658
 8215SOL    HW237119   1.994   6.531   7.786 -0.5230  0.6264  0.4221
 8216SOL     OW37120   1.988   2.904   8.499  0.2472 -0.5765 -0.4070
 8216SOL    HW137121   1.976   2.893   8.401 -1.7339 -2.2914 -0.0112
 8216SOL    HW237122   1.963   2.819   8.546 -0.9291  0.8887  1.7347
 8217SOL     OW37123   2.391   3.439   1.838  0.1890 -0.0193 -0.4251
 8217SOL    HW137124   2.303   3.477   1.867  1.1090  1.8339  0.0376
 8217SOL    HW237125   2.412   3.472   1.746 -0.7019 -2.4112 -1.5267
 8218SOL     OW37126   5.144   2.438   1.714 -0.3606  0.3951  0.0215
 8218SOL    HW137127   5.241   2.419   1.698  0.3572  2.7159  1.3793
 8218SOL    HW237128   5.125   2.434   1.812 -1.7149 -0.3313 -0.2588
 8219SOL     OW37129   0.803   0.625   1.407  0.0684 -0.3570  0.3824
 8219SOL    HW137130   0.730   0.642   1.341  0.0233 -1.0490  0.2503
 8219SOL    HW237131   0.880   0.687   1.389  0.5853 -1.4170 -1.1426
 8220SOL     OW37132   3.336   0.978   1.344 -0.4615 -0.8146  0.0413
 8220SOL    HW137133   3.317   0.933   1.431 -0.7971  0.0204  0.4032
 8220SOL    HW237134   3.294   0.926   1.270 -0.4557 -1.3464  0.4098
 8221SOL     OW37135   0.239   5.979   2.341 -0.0169  0.4479  0.1726
 8221SOL    HW137136   0.205   6.009   2.252  0.1445 -0.0464 -0.0581
 8221SOL    HW237137   0.163   5.966   2.404 -0.0264  2.2283  0.5547
 8222SOL     OW37138   4.697   6.119   0.800 -0.6912 -0.5694 -0.3658
 8222SOL    HW137139   4.754   6.155   0.874 -1.3060 -2.8714  1.3035
 8222SOL    HW237140   4.751   6.110   0.717 -0.0374  2.2501 -0.2837
 8223SOL     OW37141   3.743   2.042   3.764 -0.0719  0.1265 -0.0859
 8223SOL    HW137142   3.657   2.005   3.798 -0.1556 -0.1587 -0.6052
 8223SOL    HW237143   3.811   2.042   3.837 -0.8952  1.5767  0.7019
 8224SOL     OW37144   7.219   5.440   5.413 -0.6355  0.3474  0.7144
 8224SOL    HW137145   7.293   5.491   5.458  0.9837 -0.5852 -0.8451
 8224SOL    HW237146   7.181   5.374   5.478 -0.0639  0.7734  1.5044
 8225SOL     OW37147   0.978   8.368   0.952 -0.3980  0.1368  0.5246
 8225SOL    HW137148   1.024   8.298   0.898 -0.2988 -0.0657  0.8727
 8225SOL    HW237149   1.001   8.357   1.048 -2.6655 -1.1519  0.9692
 8226SOL     OW37150   1.566   3.223   4.108 -0.0520  0.3266 -0.0615
 8226SOL    HW137151   1.558   3.251   4.204 -2.4633 -2.9896  0.8188
 8226SOL    HW237152   1.636   3.152   4.100 -0.9738 -0.5667 -0.4182
 8227SOL     OW37153   5.670   5.873   8.210  0.4735 -0.0522 -0.9369
 8227SOL    HW137154   5.600   5.837   8.271 -0.1573  0.3201 -1.4415
 8227SOL    HW237155   5.761   5.852   8.248  0.1004 -0.7984 -0.4403
 8228SOL     OW37156   1.562   0.635   8.838 -0.1556 -0.2417  0.1661
 8228SOL    HW137157   1.540   0.732   8.828 -0.1595 -0.2049  0.5203
 8228SOL    HW237158   1.610   0.603   8.757 -0.2054  0.0433  0.0239
 8229SOL     OW37159   3.217   3.283   2.773  0.7022  0.1234 -0.2897
 8229SOL    HW137160   3.248   3.302   2.680 -0.6430  2.2942 -0.3125
 8229SOL    HW237161   3.278   3.328   2.838  1.2781 -0.8798 -0.1210
 8230SOL     OW37162   8.014   3.075   1.065 -0.1326 -0.3153 -0.2353
 8230SOL    HW137163   7.949   3.017   1.016 -1.0310  0.1889  0.3462
 8230SOL    HW237164   8.050   3.145   1.004  1.0026 -1.5244 -0.9580
 8231SOL     OW37165   5.490   6.021   0.971 -0.2840  0.4472 -0.3868
 8231SOL    HW137166   5.510   6.117   0.954 -1.4928  0.5639 -1.2131
 8231SOL    HW237167   5.453   5.979   0.887 -0.6128 -0.4995  0.2232
 8232SOL     OW37168   0.623   2.106   8.450  0.4049 -0.5089 -0.1859
 8232SOL    HW137169   0.716   2.098   8.415  1.2263  0.4984  1.7008
 8232SOL    HW237170   0.620   2.076   8.546 -0.9655  0.5145  0.1167
 8233SOL     OW37171   7.841   1.583   7.740 -0.4393  0.6386 -0.0123
 8233SOL    HW137172   7.780   1.629   7.805 -0.0754  0.7960  0.2232
 8233SOL    HW237173   7.890   1.510   7.788 -0.3284  0.6170 -0.1609
 8234SOL     OW37174   6.561   3.886   1.892  0.3609  0.8719 -0.1236
 8234SOL    HW137175   6.545   3.984   1.905 -1.0667  0.7547 -0.8736
 8234SOL    HW237176   6.474   3.838   1.895  1.0088 -0.3145 -0.2833
 8235SOL     OW37177   2.554   0.845   6.705  0.5109 -0.8311 -0.0148
 8235SOL    HW137178   2.486   0.774   6.687  0.5597 -0.3104 -2.2881
 8235SOL    HW237179   2.612   0.815   6.781 -1.4990 -1.7776  1.2189
 8236SOL     OW37180   5.403   0.769   6.478 -0.0278 -0.6421 -0.2849
 8236SOL    HW137181   5.320   0.755   6.532 -0.3187  1.2951 -0.1844
 8236SOL    HW237182   5.434   0.863   6.488  1.2754 -0.9015 -1.6089
 8237SOL     OW37183   5.437   2.148   8.778 -0.4494  0.0866  0.4805
 8237SOL    HW137184   5.435   2.242   8.812 -0.5872  0.0206  0.6621
 8237SOL    HW237185   5.431   2.147   8.679  0.7481  0.3188  0.4061
 8238SOL     OW37186   6.159   7.653   8.032  0.3018  0.6779 -0.0733
 8238SOL    HW137187   6.143   7.562   8.070 -0.0299  0.8269  0.1471
 8238SOL    HW237188   6.079   7.710   8.047  0.1545  0.7359 -1.0176
 8239SOL     OW37189   7.845   8.757   5.432 -0.3621  0.2229 -0.3534
 8239SOL    HW137190   7.913   8.830   5.432  0.1183 -0.1813 -2.6335
 8239SOL    HW237191   7.794   8.758   5.518  1.4080  1.5703  0.7013
 8240SOL     OW37192   7.150   0.088   1.714  0.2327  0.1198 -0.3355
 8240SOL    HW137193   7.128   0.152   1.788  0.7380 -0.3374  0.2198
 8240SOL    HW237194   7.190   0.005   1.753  0.5197 -0.1182 -1.1325
 8241SOL     OW37195   3.449   5.715   1.315 -0.0275  0.0473  0.2579
 8241SOL    HW137196   3.514   5.716   1.392  0.1200 -3.6425  0.3023
 8241SOL    HW237197   3.357   5.697   1.349 -0.5919  2.2440 -0.0889
 8242SOL     OW37198   6.711   4.934   1.073  0.2942  1.2001 -0.3136
 8242SOL    HW137199   6.680   5.029   1.071 -1.6784  0.6116  0.7028
 8242SOL    HW237200   6.785   4.924   1.139 -0.2083  1.8456  0.3633
 8243SOL     OW37201   5.710   4.018   7.178  0.4845  0.1366 -0.0357
 8243SOL    HW137202   5.777   4.001   7.106 -0.7287  0.3410 -1.2225
 8243SOL    HW237203   5.741   3.975   7.263  1.2786 -1.2277 -1.0007
 8244SOL     OW37204   0.302   1.549   7.804  0.2731 -0.1041 -0.1044
 8244SOL    HW137205   0.274   1.554   7.900  2.2144  1.3482  0.4170
 8244SOL    HW237206   0.259   1.624   7.753  1.5641  0.9290  0.2841
 8245SOL     OW37207   6.967   5.362   7.836  0.3238 -1.0479 -0.0015
 8245SOL    HW137208   7.013   5.439   7.793  2.4420 -1.8606  0.7469
 8245SOL    HW237209   6.871   5.385   7.852  0.8313  1.2742 -0.1215
 8246SOL     OW37210   7.837   4.526   4.535 -0.2443  0.3933  0.2456
 8246SOL    HW137211   7.817   4.438   4.578  0.7454  0.7822  1.5119
 8246SOL    HW237212   7.830   4.516   4.435  0.1666 -1.2115  0.3560
 8247SOL     OW37213   1.480   7.448   3.870  0.1005 -0.4748 -0.5807
 8247SOL    HW137214   1.578   7.432   3.858 -0.1115 -0.7606 -1.9748
 8247SOL    HW237215   1.428   7.384   3.813 -0.8551  1.2899 -1.7439
 8248SOL     OW37216   4.391   8.068   8.531 -0.0321  0.1313  0.0936
 8248SOL    HW137217   4.305   8.033   8.568 -1.1143  1.7962 -0.7786
 8248SOL    HW237218   4.416   8.013   8.451 -0.4873 -0.1300  0.1228
 8249SOL     OW37219   0.435   3.375   0.141  0.0725 -0.9080 -0.1291
 8249SOL    HW137220   0.480   3.360   0.229  1.8751 -1.2457 -1.0932
 8249SOL    HW237221   0.369   3.450   0.149  1.1219 -0.1155  1.1819
 8250SOL     OW37222   0.283   3.680   7.301 -0.1968  0.2188  0.6083
 8250SOL    HW137223   0.256   3.639   7.388  0.0077  1.3690  1.2130
 8250SOL    HW237224   0.202   3.711   7.252 -0.6144 -3.4438 -1.1473
 8251SOL     OW37225   8.166   3.279   6.791  0.2521  0.3297  0.3107
 8251SOL    HW137226   8.193   3.317   6.703  0.6728 -1.0337 -0.1617
 8251SOL    HW237227   8.070   3.251   6.787 -0.3911  2.3073  1.0091
 8252SOL     OW37228   5.607   7.074   8.729  0.0135 -0.4666 -0.1074
 8252SOL    HW137229   5.697   7.033   8.717  1.3176  2.2098  0.2566
 8252SOL    HW237230   5.560   7.078   8.640  1.6793  1.3325 -0.9237
 8253SOL     OW37231   8.900   8.121   0.542  0.1138 -0.3824  0.1632
 8253SOL    HW137232   8.947   8.052   0.597 -0.7229 -0.3224  0.9664
 8253SOL    HW237233   8.957   8.202   0.535  1.1574 -1.1876 -0.8854
 8254SOL     OW37234   7.929   3.435   7.007  0.2723  0.0176  0.0411
 8254SOL    HW137235   7.998   3.450   6.937  1.4362  1.1810  1.4183
 8254SOL    HW237236   7.891   3.523   7.036 -1.8005 -0.6037 -0.7050
 8255SOL     OW37237   0.924   5.019   8.836  0.0878  0.1398 -0.7699
 8255SOL    HW137238   0.958   5.027   8.742  1.2865  0.2078 -0.3323
 8255SOL    HW237239   0.854   5.089   8.852  1.7788  1.8735 -0.7877
 8256SOL     OW37240   0.571   3.252   4.451 -0.0558 -0.2324  0.2758
 8256SOL    HW137241   0.637   3.276   4.522 -1.2163 -1.2957  1.7612
 8256SOL    HW237242   0.479   3.279   4.480 -0.2394  1.8600 -2.0590
 8257SOL     OW37243   6.616   2.435   1.681 -0.1729  0.5734  0.7872
 8257SOL    HW137244   6.676   2.375   1.629  0.0169  1.5116 -0.0980
 8257SOL    HW237245   6.564   2.381   1.748  0.6028 -0.4392  0.5872
 8258SOL     OW37246   3.711   3.995   2.111  0.1371 -0.0944 -0.0885
 8258SOL    HW137247   3.796   3.985   2.162  0.2335 -0.3154 -0.2921
 8258SOL    HW237248   3.687   3.907   2.068 -0.2742 -0.0797  0.0991
 8259SOL     OW37249   8.566   4.888   4.668 -0.1576 -0.0441 -0.3327
 8259SOL    HW137250   8.598   4.878   4.762  0.0354 -1.3329 -0.5228
 8259SOL    HW237251   8.476   4.847   4.658 -0.4478  0.6347 -0.5779
 8260SOL     OW37252   1.429   0.890   8.788 -0.1851 -0.4324 -0.1922
 8260SOL    HW137253   1.459   0.943   8.867  1.1975 -0.7164 -0.5273
 8260SOL    HW237254   1.329   0.887   8.787 -0.2222 -0.7941  1.7859
 8261SOL     OW37255   2.465   2.900   0.358 -0.1727  0.0261 -0.3184
 8261SOL    HW137256   2.439   2.815   0.402  0.3168  0.1539  0.2237
 8261SOL    HW237257   2.383   2.956   0.343 -0.1999  0.5113  1.5515
 8262SOL     OW37258   8.766   4.579   8.024  0.0592  0.4340  0.1463
 8262SOL    HW137259   8.861   4.602   8.002  0.4769 -2.5978 -1.3542
 8262SOL    HW237260   8.762   4.538   8.115  0.6424 -2.2199 -0.9955
 8263SOL     OW37261   1.291   1.050   0.242 -0.0029  0.8255 -0.2104
 8263SOL    HW137262   1.243   1.079   0.324  0.1832  1.8736 -0.4596
 8263SOL    HW237263   1.291   0.950   0.236 -0.5340  0.7665  0.7442
 8264SOL     OW37264   5.645   7.894   6.363 -0.1120 -0.4035  0.1649
 8264SOL    HW137265   5.615   7.807   6.325  0.1106  0.0137 -1.0147
 8264SOL    HW237266   5.724   7.927   6.311 -0.9177  1.0672 -0.1698
 8265SOL     OW37267   6.206   7.798   1.194 -0.0669  0.5841  0.1343
 8265SOL    HW137268   6.170   7.716   1.148 -0.1657  0.1842  0.9224
 8265SOL    HW237269   6.191   7.878   1.135 -2.2196  0.4309  0.4217
 8266SOL     OW37270   8.356   1.588   3.507 -0.0504 -0.7645 -0.1323
 8266SOL    HW137271   8.374   1.576   3.605 -0.0515  1.6136  0.1904
 8266SOL    HW237272   8.296   1.515   3.475 -1.6387 -0.4687  2.0765
 8267SOL     OW37273   7.129   3.272   1.277 -0.5578 -0.5084  0.4307
 8267SOL    HW137274   7.081   3.249   1.192 -0.7267  1.9224 -0.1508
 8267SOL    HW237275   7.204   3.208   1.291  0.4686  0.0207 -2.3780
 8268SOL     OW37276   8.717   4.034   8.893 -0.0790  0.3893 -0.0873
 8268SOL    HW137277   8.734   3.938   8.915  1.7596  0.9833  1.2237
 8268SOL    HW237278   8.690   4.043   8.797 -0.2309 -1.4222 -0.2220
 8269SOL     OW37279   1.856   7.246   6.511  0.5126  0.7670 -0.0228
 8269SOL    HW137280   1.789   7.310   6.550  0.0093  0.2039  0.0576
 8269SOL    HW237281   1.829   7.223   6.418  0.4197  0.2950  0.1188
 8270SOL     OW37282   8.654   5.638   0.129  0.3033 -0.7061 -0.1687
 8270SOL    HW137283   8.743   5.638   0.083  0.4236  2.3098 -0.0672
 8270SOL    HW237284   8.583   5.664   0.064  0.1769  1.4481  0.7658
 8271SOL     OW37285   1.167   4.524   7.574  0.2620  0.2205 -0.7956
 8271SOL    HW137286   1.178   4.427   7.555 -2.1940 -0.2475 -0.0054
 8271SOL    HW237287   1.189   4.577   7.492  1.5103 -0.9870 -1.2645
 8272SOL     OW37288   5.057   0.490   3.097 -0.1047  0.0656  0.4544
 8272SOL    HW137289   5.009   0.578   3.091 -0.7659 -0.1410  2.3679
 8272SOL    HW237290   5.122   0.493   3.173  1.0332 -0.5675 -0.4806
 8273SOL     OW37291   3.057   3.494   2.643  0.0411 -0.5752  0.2544
 8273SOL    HW137292   3.120   3.545   2.701 -0.6697 -1.2311  1.6204
 8273SOL    HW237293   3.109   3.434   2.582  1.0071  3.1586 -2.7987
 8274SOL     OW37294   2.560   7.654   5.328 -0.5153 -0.3950  0.4665
 8274SOL    HW137295   2.552   7.753   5.324 -1.5982 -0.5147 -0.6014
 8274SOL    HW237296   2.562   7.617   5.235 -0.0649 -1.3698  0.8530
 8275SOL     OW37297   0.465   8.676   1.046  0.0390 -1.2653 -0.1845
 8275SOL    HW137298   0.496   8.762   1.085  0.8650 -1.2837 -0.7849
 8275SOL    HW237299   0.405   8.695   0.968  0.6819 -1.2144 -0.6813
 8276SOL     OW37300   1.730   3.481   3.764  0.5119  0.0042  0.6481
 8276SOL    HW137301   1.793   3.543   3.811  1.4468 -0.3130 -0.1515
 8276SOL    HW237302   1.783   3.417   3.708 -0.4994 -0.7542  0.5513
 8277SOL     OW37303   0.084   2.907   6.847 -0.5031 -0.7044  0.3120
 8277SOL    HW137304   0.017   2.970   6.807  0.4560 -0.1337 -0.4451
 8277SOL    HW237305   0.176   2.946   6.837 -0.1607 -0.9508  2.3599
 8278SOL     OW37306   5.874   4.671   2.751 -0.1294  0.3516 -0.1514
 8278SOL    HW137307   5.927   4.685   2.667 -0.0965  0.0645 -0.1809
 8278SOL    HW237308   5.809   4.596   2.737 -0.7071  0.8562 -0.1889
 8279SOL     OW37309   0.487   4.475   6.196  0.6848  0.2220  0.2133
 8279SOL    HW137310   0.488   4.575   6.186 -0.5845  0.3319  1.0348
 8279SOL    HW237311   0.549   4.434   6.129  1.2051  1.5603 -0.1411
 8280SOL     OW37312   4.950   2.423   8.722  0.0961  0.1266  0.0875
 8280SOL    HW137313   4.876   2.461   8.778  1.0014 -0.3248  1.6193
 8280SOL    HW237314   5.036   2.470   8.743  0.7286 -1.0204  0.1246
 8281SOL     OW37315   3.308   7.607   0.042 -0.1888 -0.3095  0.5740
 8281SOL    HW137316   3.232   7.544   0.024  0.6327 -1.6401  1.7500
 8281SOL    HW237317   3.320   7.617   0.140  0.5483  0.6542  0.3848
 8282SOL     OW37318   3.774   0.347   7.962  0.1081 -0.1917  0.4756
 8282SOL    HW137319   3.872   0.349   7.941  0.0026  0.7466  0.0471
 8282SOL    HW237320   3.746   0.253   7.983  0.6501 -0.8528 -1.5833
 8283SOL     OW37321   5.401   6.271   5.246 -0.0580 -0.3140 -0.5604
 8283SOL    HW137322   5.408   6.314   5.156  0.9074  0.7646  0.0262
 8283SOL    HW237323   5.333   6.198   5.242 -0.6170  0.2617 -1.9587
 8284SOL     OW37324   3.998   6.092   5.574  0.3013  0.2921 -0.0078
 8284SOL    HW137325   4.068   6.075   5.505  1.0606 -0.1677  0.8733
 8284SOL    HW237326   4.039   6.140   5.652 -0.5059  0.6340  0.2064
 8285SOL     OW37327   3.364   2.902   0.341  0.9632  0.0961 -0.0022
 8285SOL    HW137328   3.279   2.857   0.316  0.8637  0.0144  0.4818
 8285SOL    HW237329   3.441   2.851   0.302  0.9215 -1.2961  1.7037
 8286SOL     OW37330   5.816   8.453   3.007 -0.7778  0.6342  0.5997
 8286SOL    HW137331   5.856   8.514   2.939 -1.9797  2.2967  1.3346
 8286SOL    HW237332   5.718   8.472   3.015 -0.8480 -0.2484  2.0397
 8287SOL     OW37333   6.243   5.718   5.519  0.2924 -0.2500 -0.7648
 8287SOL    HW137334   6.280   5.659   5.447 -0.1717 -0.5977 -0.7202
 8287SOL    HW237335   6.151   5.749   5.492  0.3165  0.0126 -0.5435
 8288SOL     OW37336   0.020   5.822   1.328  0.1851 -0.0766  0.3991
 8288SOL    HW137337   0.030   5.921   1.321 -0.8146  0.0332  0.3808
 8288SOL    HW237338   0.103   5.777   1.296 -0.1845  0.7008 -1.6649
 8289SOL     OW37339   2.714   8.875   0.004 -0.0504 -0.0114  0.3627
 8289SOL    HW137340   2.711   8.820  -0.079 -0.5492  0.0010  0.3694
 8289SOL    HW237341   2.809   8.892   0.030  0.1370  2.1154 -1.6133
 8290SOL     OW37342   3.980   5.414   4.040 -0.0685  0.3771  0.1932
 8290SOL    HW137343   4.045   5.349   4.079  0.0196 -0.3356 -1.0784
 8290SOL    HW237344   3.887   5.376   4.047 -0.0255  0.1347 -0.4846
 8291SOL     OW37345   0.460   8.040   6.505  0.4951 -0.3947  0.7068
 8291SOL    HW137346   0.402   8.111   6.546 -1.0420 -1.1301 -0.1566
 8291SOL    HW237347   0.537   8.083   6.458 -0.1112  0.6676  0.6678
 8292SOL     OW37348   3.364   2.236   4.451 -0.1404 -0.2663 -0.3810
 8292SOL    HW137349   3.409   2.166   4.508 -0.2371 -0.3575 -0.4150
 8292SOL    HW237350   3.290   2.278   4.503  0.7897  0.7676  0.1145
 8293SOL     OW37351   3.370   0.680   1.565  0.0185 -0.4542  0.3304
 8293SOL    HW137352   3.464   0.653   1.541 -0.4038 -2.4138  0.8062
 8293SOL    HW237353   3.357   0.667   1.664 -0.1296  1.7830  0.6216
 8294SOL     OW37354   4.182   2.682   0.937 -0.7319 -0.0754 -0.4472
 8294SOL    HW137355   4.202   2.778   0.958  0.2415 -0.5786  0.9596
 8294SOL    HW237356   4.099   2.654   0.986 -0.0928 -0.4200  0.4423
 8295SOL     OW37357   3.248   1.827   6.434  0.0426  0.0430  0.3173
 8295SOL    HW137358   3.323   1.879   6.474  1.6086 -1.5656 -0.4905
 8295SOL    HW237359   3.251   1.733   6.467 -1.8453  0.0465  0.5623
 8296SOL     OW37360   3.528   0.068   3.075  0.3911 -0.4927 -0.4179
 8296SOL    HW137361   3.583  -0.006   3.036 -0.6134 -2.8429  2.4566
 8296SOL    HW237362   3.432   0.054   3.051  0.4464  1.0634 -1.5954
 8297SOL     OW37363   0.450   5.501   2.815 -0.1185 -1.0047 -0.5410
 8297SOL    HW137364   0.416   5.475   2.905  0.2375 -1.7517 -0.6182
 8297SOL    HW237365   0.375   5.538   2.760 -0.3869 -0.7781 -0.0272
 8298SOL     OW37366   4.324   6.615   1.226 -0.3488 -0.1051 -0.5815
 8298SOL    HW137367   4.401   6.679   1.229  0.2099 -0.8183  1.9691
 8298SOL    HW237368   4.348   6.538   1.167 -0.3803  1.1966 -2.3324
 8299SOL     OW37369   4.690   1.678   3.883  0.5328  0.3434  0.2445
 8299SOL    HW137370   4.721   1.590   3.918  0.2843  0.5074  0.8741
 8299SOL    HW237371   4.765   1.724   3.835  0.6922 -0.1558  0.0150
 8300SOL     OW37372   6.514   5.784   2.610 -0.4318  0.6402  0.3588
 8300SOL    HW137373   6.610   5.802   2.635 -0.1297  1.0355 -1.0171
 8300SOL    HW237374   6.458   5.782   2.693  0.9720 -0.9271  1.3029
 8301SOL     OW37375   4.547   0.257   8.054 -0.0404  0.0255 -0.1767
 8301SOL    HW137376   4.544   0.357   8.058  0.9845  0.0928 -1.1114
 8301SOL    HW237377   4.562   0.221   8.146 -0.2623  0.7360  0.1435
 8302SOL     OW37378   5.026   6.731   4.783  0.4220 -0.1222 -0.1275
 8302SOL    HW137379   5.012   6.812   4.727 -0.6081  2.2888  3.4600
 8302SOL    HW237380   4.938   6.695   4.814  1.0202  0.6941  2.7245
 8303SOL     OW37381   1.711   8.699   8.883 -0.1105  0.4048 -1.0634
 8303SOL    HW137382   1.647   8.716   8.958  0.1814  0.7331 -0.8844
 8303SOL    HW237383   1.782   8.635   8.914 -0.0835  0.4117 -1.1116
 8304SOL     OW37384   7.999   3.546   2.051  0.5479  0.5587  0.3699
 8304SOL    HW137385   8.078   3.568   2.108  0.1519 -0.6146  1.3773
 8304SOL    HW237386   8.023   3.473   1.988  0.3914  0.5059  0.3715
 8305SOL     OW37387   8.040   5.023   1.733 -0.2185  0.0271 -0.2589
 8305SOL    HW137388   8.069   4.941   1.783 -0.0380  0.3268  0.1374
 8305SOL    HW237389   7.947   5.011   1.700 -0.0008 -0.5454 -0.6554
 8306SOL     OW37390   5.940   1.102   2.519 -0.3344  0.5078 -0.0818
 8306SOL    HW137391   5.936   1.072   2.615 -0.5868  1.3716  0.1806
 8306SOL    HW237392   6.022   1.157   2.505 -1.3404  2.1067  0.1495
 8307SOL     OW37393   2.891   4.252   7.129  0.2662  0.2675  0.0664
 8307SOL    HW137394   2.808   4.256   7.184  0.7302 -1.9872  0.9929
 8307SOL    HW237395   2.897   4.334   7.071 -2.4760  0.5572  0.1163
 8308SOL     OW37396   1.260   4.648   2.754  0.0712 -0.7135 -0.4346
 8308SOL    HW137397   1.249   4.653   2.654 -0.9154  1.1962 -0.2641
 8308SOL    HW237398   1.194   4.584   2.792  0.5778 -1.5967 -1.0066
 8309SOL     OW37399   5.387   2.417   1.634  0.0659  0.2227  0.0947
 8309SOL    HW137400   5.436   2.411   1.721  0.6551 -0.5240 -0.2846
 8309SOL    HW237401   5.453   2.424   1.559 -0.4424  3.8111 -0.1111
 8310SOL     OW37402   5.051   2.033   6.258 -0.9600 -0.2772  0.0911
 8310SOL    HW137403   5.018   2.127   6.253  0.8375  0.2949 -1.6457
 8310SOL    HW237404   5.041   1.989   6.168  0.2543 -1.0336  0.3162
 8311SOL     OW37405   3.121   8.874   7.708  0.2697 -0.0136 -0.0651
 8311SOL    HW137406   3.201   8.931   7.689  0.3106 -0.2493 -0.6120
 8311SOL    HW237407   3.041   8.932   7.722  0.3032  0.1766 -0.6571
 8312SOL     OW37408   2.618   0.840   2.778 -0.0655 -0.4120  0.9207
 8312SOL    HW137409   2.571   0.799   2.857  0.3532  0.9612  1.9031
 8312SOL    HW237410   2.716   0.827   2.788 -0.0139 -0.2735  0.5989
 8313SOL     OW37411   6.600   3.593   1.809 -0.0883  0.4682  0.0464
 8313SOL    HW137412   6.606   3.533   1.730  1.3175  0.8314 -0.1381
 8313SOL    HW237413   6.514   3.644   1.806 -0.7310 -0.6222 -0.4349
 8314SOL     OW37414   8.390   6.315   8.054 -0.0102 -0.1317 -0.2332
 8314SOL    HW137415   8.346   6.401   8.080  1.4265  0.7044 -0.4928
 8314SOL    HW237416   8.421   6.268   8.136  0.9906  0.5917 -0.1756
 8315SOL     OW37417   0.034   5.802   6.748  0.0486  0.1355 -0.2514
 8315SOL    HW137418  -0.055   5.843   6.766 -0.1912 -1.3734  2.2086
 8315SOL    HW237419   0.095   5.819   6.825  1.1627 -0.8300 -0.9010
 8316SOL     OW37420   6.141   8.440   6.414 -0.5695  0.4419 -0.2006
 8316SOL    HW137421   6.053   8.426   6.368  0.1948  0.0403 -1.5862
 8316SOL    HW237422   6.140   8.527   6.463 -1.4686  0.7958 -0.8359
 8317SOL     OW37423   7.979   6.046   7.793  0.1826 -0.5089 -1.0723
 8317SOL    HW137424   7.955   6.083   7.704 -0.1932  0.0349 -0.7466
 8317SOL    HW237425   8.004   5.950   7.784  0.8164 -0.2729 -1.8671
 8318SOL     OW37426   3.414   7.445   6.505 -0.2431  0.3849  0.2373
 8318SOL    HW137427   3.335   7.395   6.471 -1.1886  0.7773  1.8237
 8318SOL    HW237428   3.409   7.540   6.474 -0.3968  0.4144  0.3553
 8319SOL     OW37429   7.124   4.088   8.184 -0.1879 -0.2683  0.7119
 8319SOL    HW137430   7.089   4.112   8.094 -0.1033 -3.2619 -0.1910
 8319SOL    HW237431   7.206   4.141   8.204 -0.6548  0.9739 -0.6210
 8320SOL     OW37432   4.488   1.124   7.621 -0.6072  0.6466 -0.0004
 8320SOL    HW137433   4.477   1.068   7.703  0.3762 -0.6130 -0.7138
 8320SOL    HW237434   4.430   1.088   7.548 -1.4764  1.7581  0.1272
 8321SOL     OW37435   1.887   4.969   0.428 -0.5053 -0.8582  0.2000
 8321SOL    HW137436   1.922   4.992   0.519 -0.6793 -1.2535  0.3721
 8321SOL    HW237437   1.964   4.952   0.366 -0.3489  1.4832 -0.2937
 8322SOL     OW37438   4.158   6.767   5.282 -0.1777 -0.2828  0.2600
 8322SOL    HW137439   4.174   6.694   5.349 -0.3894 -1.1491 -0.6345
 8322SOL    HW237440   4.244   6.789   5.236 -0.3275 -0.7037 -0.2206
 8323SOL     OW37441   1.346   8.849   5.242 -0.0045  0.2730 -0.3981
 8323SOL    HW137442   1.317   8.785   5.312 -1.4762  0.4167 -0.8572
 8323SOL    HW237443   1.444   8.837   5.223  0.1286 -0.5625  0.8167
 8324SOL     OW37444   1.469   7.430   2.476  0.5813 -0.5973  0.1321
 8324SOL    HW137445   1.532   7.483   2.533  1.1980 -0.9582 -0.1953
 8324SOL    HW237446   1.521   7.360   2.426  0.6226  1.9511 -3.5851
 8325SOL     OW37447   8.671   5.392   7.529  0.3708 -0.3709 -0.0996
 8325SOL    HW137448   8.632   5.357   7.444  0.4912  0.8516 -0.6769
 8325SOL    HW237449   8.730   5.471   7.509  0.6563 -0.2709  1.0793
 8326SOL     OW37450   7.084   8.736   0.026  0.0355  0.1327 -0.3692
 8326SOL    HW137451   7.013   8.806   0.023  0.2795  0.4443  0.8781
 8326SOL    HW237452   7.171   8.776  -0.003  0.4712  0.7326  1.7019
 8327SOL     OW37453   0.937   2.423   4.165 -0.0704 -0.6000  0.2300
 8327SOL    HW137454   1.006   2.350   4.159  0.7471  0.3429 -2.6810
 8327SOL    HW237455   0.860   2.400   4.106 -0.2392  0.4519  0.0408
 8328SOL     OW37456   2.614   1.892   2.522  0.4804  0.1701 -0.1088
 8328SOL    HW137457   2.621   1.795   2.546  1.2949 -0.0994 -1.3961
 8328SOL    HW237458   2.554   1.938   2.587 -0.6954 -1.3997 -0.0452
 8329SOL     OW37459   6.290   4.783   8.867 -0.3081  0.4336 -0.2501
 8329SOL    HW137460   6.350   4.861   8.845  1.9568 -1.0250  0.5470
 8329SOL    HW237461   6.324   4.701   8.820 -0.9020 -0.6985  1.2678
 8330SOL     OW37462   6.685   2.169   3.537  0.4623 -0.1729 -0.4206
 8330SOL    HW137463   6.714   2.075   3.555 -0.7863 -0.8579 -1.8613
 8330SOL    HW237464   6.625   2.171   3.458 -2.1829  1.4145  1.5314
 8331SOL     OW37465   7.132   5.056   0.416 -0.1794  0.0135  0.1708
 8331SOL    HW137466   7.169   5.148   0.403 -1.1962  0.5644  1.0884
 8331SOL    HW237467   7.137   5.031   0.513 -0.9556 -0.4262  0.1070
 8332SOL     OW37468   5.444   5.299   6.340 -0.3944 -0.8667  0.4889
 8332SOL    HW137469   5.432   5.387   6.295 -0.4755 -0.5064  1.2048
 8332SOL    HW237470   5.486   5.312   6.430  0.5464 -1.6582  0.1769
 8333SOL     OW37471   8.027   7.537   5.723 -0.3747 -0.2293 -0.0971
 8333SOL    HW137472   7.976   7.491   5.651 -3.0518  0.2807  1.3960
 8333SOL    HW237473   8.119   7.559   5.691 -0.6341 -2.3518 -2.4182
 8334SOL     OW37474   0.287   2.273   4.317  0.4684  0.2250  0.2490
 8334SOL    HW137475   0.350   2.201   4.347  0.4095  0.2649  0.4702
 8334SOL    HW237476   0.193   2.246   4.338  0.4222  0.2171  0.0250
 8335SOL     OW37477   8.838   5.692   1.453  0.1074 -0.7190 -0.0227
 8335SOL    HW137478   8.793   5.631   1.388 -1.1593  1.7225 -1.4903
 8335SOL    HW237479   8.917   5.735   1.410 -0.5071  0.6089  0.1577
 8336SOL     OW37480   5.723   2.068   0.244  0.2464  0.1371 -0.4321
 8336SOL    HW137481   5.693   2.001   0.312  0.9771  0.6791  0.4213
 8336SOL    HW237482   5.797   2.124   0.281 -0.1245  1.2048 -1.2565
 8337SOL     OW37483   5.066   2.919   1.303 -0.1042 -0.1139  0.4785
 8337SOL    HW137484   5.165   2.928   1.295 -0.0837 -0.9221 -0.3299
 8337SOL    HW237485   5.043   2.824   1.323 -0.6325  0.3945  2.3136
 8338SOL     OW37486   8.729   1.370   4.299 -0.1201  0.9939  0.6793
 8338SOL    HW137487   8.794   1.303   4.335  0.4302  1.7011  1.0019
 8338SOL    HW237488   8.660   1.392   4.368 -0.3211  0.7388  0.5617
 8339SOL     OW37489   4.521   1.853   7.290 -0.3558 -0.3063  0.6680
 8339SOL    HW137490   4.601   1.875   7.234 -0.0802 -0.2509  1.0788
 8339SOL    HW237491   4.438   1.875   7.240 -0.1005  3.6013  1.7731
 8340SOL     OW37492   3.745   8.663   4.464 -0.7301 -0.1139  0.5133
 8340SOL    HW137493   3.761   8.696   4.557 -1.5307  0.0164  0.6096
 8340SOL    HW237494   3.769   8.735   4.399 -0.1907 -0.1966  0.6188
 8341SOL     OW37495   5.627   4.051   7.831  0.3838 -0.2571 -0.2510
 8341SOL    HW137496   5.713   4.030   7.786  0.0369  0.1516 -1.1185
 8341SOL    HW237497   5.564   4.093   7.765 -0.5710 -0.8025  0.3066
 8342SOL     OW37498   3.590   6.009   0.770 -0.5257  0.0880 -0.7251
 8342SOL    HW137499   3.536   5.926   0.753 -0.5385  0.3672 -2.1603
 8342SOL    HW237500   3.538   6.089   0.741 -1.1767  0.7626  2.2075
 8343SOL     OW37501   3.733   6.498   0.045 -0.0243  0.0722 -0.1290
 8343SOL    HW137502   3.734   6.581   0.101 -0.5965 -0.0815  0.1071
 8343SOL    HW237503   3.818   6.492  -0.007  0.1446  0.6539  0.0810
 8344SOL     OW37504   7.710   5.641   3.403 -0.2870 -0.0466  0.0443
 8344SOL    HW137505   7.745   5.591   3.324  1.1363  1.1407 -0.0909
 8344SOL    HW237506   7.672   5.728   3.373 -0.6530 -0.0253  0.5583
 8345SOL     OW37507   7.775   5.470   5.714 -0.3418  0.1984 -0.5480
 8345SOL    HW137508   7.849   5.413   5.750 -1.2081 -0.0300  0.8707
 8345SOL    HW237509   7.691   5.416   5.707 -1.3158  1.4378  1.3653
 8346SOL     OW37510   2.098   4.917   0.252  0.1981  0.5770  0.2676
 8346SOL    HW137511   2.079   4.972   0.171  2.3755  1.2470  0.1865
 8346SOL    HW237512   2.122   4.824   0.224  4.2962  1.6817 -0.1306
 8347SOL     OW37513   0.924   0.907   1.843  0.0386  0.2001 -0.8985
 8347SOL    HW137514   1.019   0.919   1.816  0.0794  1.3123 -0.2738
 8347SOL    HW237515   0.864   0.952   1.776  0.1108  2.3865  0.4755
 8348SOL     OW37516   2.393   2.676   8.653  0.1157 -0.7927 -0.1555
 8348SOL    HW137517   2.401   2.602   8.586 -0.8691  0.7635 -2.0263
 8348SOL    HW237518   2.470   2.670   8.718  2.0353 -1.3115 -2.4072
 8349SOL     OW37519   7.292   3.525   8.467  0.2531 -0.1436  0.0809
 8349SOL    HW137520   7.348   3.496   8.390  3.9704 -2.4353  3.4066
 8349SOL    HW237521   7.232   3.450   8.495 -1.9999  1.1046 -1.2750
 8350SOL     OW37522   6.304   3.410   2.984  0.7297  0.1517 -0.0142
 8350SOL    HW137523   6.220   3.360   2.964  0.0868  1.5222 -0.7973
 8350SOL    HW237524   6.283   3.507   2.997  2.5553  1.0780 -3.3432
 8351SOL     OW37525   3.430   4.023   0.098 -0.3907 -0.3359  0.7035
 8351SOL    HW137526   3.480   4.081   0.163  3.0742 -0.8821 -1.3308
 8351SOL    HW237527   3.366   4.079   0.046  1.0495  1.2239  0.5406
 8352SOL     OW37528   7.933   0.566   1.811 -0.2008 -0.2149  0.0535
 8352SOL    HW137529   7.981   0.574   1.899 -2.3000  1.1571  1.1199
 8352SOL    HW237530   7.950   0.649   1.758  0.7000 -0.8524 -0.6675
 8353SOL     OW37531   4.396   4.513   2.261  0.0351  0.5794 -0.1364
 8353SOL    HW137532   4.299   4.490   2.265 -0.1888  1.7752  1.9738
 8353SOL    HW237533   4.408   4.598   2.211 -0.1335  0.9648  0.4630
 8354SOL     OW37534   8.026   1.400   1.749  0.1971  0.1566  0.1731
 8354SOL    HW137535   8.045   1.485   1.799  1.2469  0.1576 -0.2022
 8354SOL    HW237536   8.110   1.370   1.703  0.1416 -1.6917  1.2278
 8355SOL     OW37537   1.769   5.283   5.549  0.2787 -0.0769  0.0024
 8355SOL    HW137538   1.772   5.366   5.606  0.7257 -0.3382  0.3611
 8355SOL    HW237539   1.766   5.310   5.453 -3.3513  0.4124  0.1793
 8356SOL     OW37540   2.862   2.699   2.383  0.4179  0.3139 -0.5017
 8356SOL    HW137541   2.839   2.602   2.386 -0.6077  0.5868  0.9954
 8356SOL    HW237542   2.914   2.724   2.465  1.7588  0.7748 -1.4712
 8357SOL     OW37543   0.771   2.585   3.024  0.1318 -0.7039 -0.1815
 8357SOL    HW137544   0.818   2.624   2.944  1.6402  1.8854  1.8705
 8357SOL    HW237545   0.838   2.542   3.084 -0.3549  1.1976  1.7795
 8358SOL     OW37546   7.181   4.294   4.780  0.4991 -0.4084  0.2820
 8358SOL    HW137547   7.257   4.277   4.843  0.6413  0.5453  0.3823
 8358SOL    HW237548   7.179   4.224   4.709 -0.2776 -2.0818  1.9233
 8359SOL     OW37549   5.263   4.453   6.337 -0.0921 -0.1203  0.7582
 8359SOL    HW137550   5.352   4.409   6.351  0.9477  2.2247  1.7942
 8359SOL    HW237551   5.277   4.547   6.306 -2.2605 -0.5206 -1.5830
 8360SOL     OW37552   5.996   4.451   6.206  0.2650  0.7132 -0.0171
 8360SOL    HW137553   6.064   4.505   6.157  0.8356  0.2130  0.2208
 8360SOL    HW237554   6.025   4.356   6.210 -0.8910  0.3174 -0.7164
 8361SOL     OW37555   5.162   4.214   6.963  0.0046  0.4180 -0.5042
 8361SOL    HW137556   5.071   4.254   6.956 -0.7547 -1.0212  0.8132
 8361SOL    HW237557   5.185   4.168   6.877 -1.0026 -0.1674 -0.4706
 8362SOL     OW37558   6.613   3.360   2.678 -0.1101 -0.0919 -0.0262
 8362SOL    HW137559   6.530   3.406   2.709  0.4859  0.6429  0.5236
 8362SOL    HW237560   6.591   3.269   2.643 -1.1168  0.0418  0.2566
 8363SOL     OW37561   7.286   6.797   6.633  0.1276 -0.2689  0.3224
 8363SOL    HW137562   7.253   6.847   6.553  0.6121 -0.0184  0.2808
 8363SOL    HW237563   7.270   6.699   6.619 -0.6092 -0.1531  0.3066
 8364SOL     OW37564   7.596   3.065   8.455 -0.3600 -0.1535  0.1874
 8364SOL    HW137565   7.587   3.099   8.548  1.1135 -2.0872  1.0770
 8364SOL    HW237566   7.511   3.080   8.405 -0.7691  1.9581  1.4791
 8365SOL     OW37567   6.361   4.621   7.737 -0.1140  0.2349  0.2586
 8365SOL    HW137568   6.312   4.673   7.806 -1.2142  1.8427 -1.6839
 8365SOL    HW237569   6.438   4.675   7.702 -0.6240  0.1385 -1.0225
 8366SOL     OW37570   8.106   1.288   1.996  0.0078  0.4913 -0.2550
 8366SOL    HW137571   8.121   1.294   1.897 -1.2616  0.5609 -0.4506
 8366SOL    HW237572   8.011   1.312   2.017 -0.4409 -1.9734  0.7224
 8367SOL     OW37573   7.258   5.571   0.473 -0.2388 -0.3505  0.0535
 8367SOL    HW137574   7.272   5.580   0.572  0.3312  1.8391 -0.2144
 8367SOL    HW237575   7.240   5.660   0.433 -0.0398 -1.1577 -1.9040
 8368SOL     OW37576   2.884   2.917   4.881 -0.5747  0.2984  0.1189
 8368SOL    HW137577   2.807   2.941   4.941  1.0154  0.5476  2.1276
 8368SOL    HW237578   2.876   2.967   4.795 -2.2219  0.9503  0.6274
 8369SOL     OW37579   2.047   8.450   8.804  0.1170 -0.1970 -0.5425
 8369SOL    HW137580   1.994   8.487   8.727 -0.0270  3.6288  1.2400
 8369SOL    HW237581   1.992   8.456   8.887  1.5653 -0.8514  0.4626
 8370SOL     OW37582   8.305   8.789   4.971  0.2165  0.1937  0.1318
 8370SOL    HW137583   8.325   8.880   4.934 -3.2433  1.3540  0.9982
 8370SOL    HW237584   8.314   8.791   5.070  1.1715 -0.7116  0.0713
 8371SOL     OW37585   5.316   8.199   3.534 -0.7402  0.3958  0.0964
 8371SOL    HW137586   5.216   8.193   3.535 -0.9305  2.9419 -0.8549
 8371SOL    HW237587   5.347   8.252   3.613 -0.1742  0.1743  0.0303
 8372SOL     OW37588   4.220   4.225   0.533  0.1063  0.4490  0.1840
 8372SOL    HW137589   4.164   4.293   0.579  3.2806  1.4401  2.7774
 8372SOL    HW237590   4.275   4.268   0.463  0.2101  0.0867  0.0388
 8373SOL     OW37591   6.275   8.922   2.538 -0.2003  0.0902  0.5016
 8373SOL    HW137592   6.235   8.923   2.446  2.0227  1.0081 -0.5079
 8373SOL    HW237593   6.203   8.923   2.607 -1.8679  1.7578 -1.2366
 8374SOL     OW37594   2.987   6.748   8.888 -0.4410 -0.0886  0.1304
 8374SOL    HW137595   3.075   6.789   8.911 -1.1298  0.2902  2.2520
 8374SOL    HW237596   2.914   6.814   8.907 -1.1670 -0.2664 -1.9490
 8375SOL     OW37597   4.036   6.516   8.821 -0.1667 -0.3166 -0.2125
 8375SOL    HW137598   3.994   6.567   8.746  0.5430 -0.3271 -0.6273
 8375SOL    HW237599   4.123   6.477   8.790 -0.5288 -1.4764  0.2107
 8376SOL     OW37600   1.868   7.788   1.403 -0.3451  0.3714  0.0723
 8376SOL    HW137601   1.917   7.838   1.333  0.4439  0.1418  0.4456
 8376SOL    HW237602   1.910   7.805   1.492  0.3181 -1.3973  0.1287
 8377SOL     OW37603   5.867   0.896   1.171  0.4987  0.4365 -0.3688
 8377SOL    HW137604   5.927   0.965   1.210  2.0512 -0.0589 -1.8302
 8377SOL    HW237605   5.865   0.905   1.071  0.9115 -1.7490 -0.6004
 8378SOL     OW37606   1.708   8.914   3.028  0.3919 -0.1181 -0.2002
 8378SOL    HW137607   1.792   8.881   3.070  0.6654 -0.0633 -0.7060
 8378SOL    HW237608   1.729   8.959   2.941 -0.1739 -0.2611 -0.4139
 8379SOL     OW37609   4.486   5.521   5.857  1.0289 -0.4131  0.1347
 8379SOL    HW137610   4.543   5.506   5.777  0.2550 -2.2593 -0.0981
 8379SOL    HW237611   4.424   5.444   5.869  0.9932 -0.0861  2.3961
 8380SOL     OW37612   2.039   7.930   0.754 -0.6927 -0.3339  0.2435
 8380SOL    HW137613   1.944   7.905   0.740 -0.7355 -0.6716  1.0729
 8380SOL    HW237614   2.089   7.924   0.667 -1.0522 -1.8221  0.1323
 8381SOL     OW37615   7.364   3.848   7.315 -0.9299  0.3508  0.0745
 8381SOL    HW137616   7.437   3.912   7.339 -1.5381  0.8543  0.5752
 8381SOL    HW237617   7.312   3.825   7.397 -1.5050  0.1999 -0.3332
 8382SOL     OW37618   6.040   3.724   4.344 -0.1550 -0.1990  0.0023
 8382SOL    HW137619   6.122   3.668   4.337 -0.8032 -1.2710  0.8941
 8382SOL    HW237620   6.027   3.752   4.439  0.3252  1.7204 -0.4770
 8383SOL     OW37621   4.685   7.923   5.910  0.0945 -0.6383  0.0616
 8383SOL    HW137622   4.746   7.880   5.844  1.9600 -1.5473  2.3063
 8383SOL    HW237623   4.633   7.852   5.958  0.1599 -0.1116  0.9086
 8384SOL     OW37624   6.700   0.606   8.689 -0.0111  0.2927 -0.7396
 8384SOL    HW137625   6.791   0.587   8.652 -0.0375 -0.0999 -0.6037
 8384SOL    HW237626   6.631   0.575   8.624 -0.0519  0.2649 -0.6826
 8385SOL     OW37627   0.528   6.088   1.662 -0.3556  0.3924 -0.1263
 8385SOL    HW137628   0.579   6.125   1.740 -2.2294 -1.5820  2.1003
 8385SOL    HW237629   0.431   6.113   1.671 -0.4677  0.8332 -2.2895
 8386SOL     OW37630   3.464   5.957   7.089  0.0017 -0.0173  0.1302
 8386SOL    HW137631   3.458   5.991   7.183  1.4777  1.8672 -0.4252
 8386SOL    HW237632   3.560   5.948   7.063 -0.3945 -0.9190 -1.0710
 8387SOL     OW37633   7.419   5.593   8.759  0.4149  0.3312  0.0687
 8387SOL    HW137634   7.482   5.671   8.759 -0.5677  1.1346 -0.5289
 8387SOL    HW237635   7.348   5.607   8.828 -0.9378  0.9591 -1.4006
 8388SOL     OW37636   4.710   8.051   8.630  0.0189  0.3675 -0.1691
 8388SOL    HW137637   4.611   8.046   8.626 -0.0866  1.2211  1.1608
 8388SOL    HW237638   4.743   8.114   8.560 -0.6022  2.4627  1.3950
 8389SOL     OW37639   5.392   0.849   3.746 -0.5990 -0.6837 -0.3763
 8389SOL    HW137640   5.309   0.795   3.731 -0.8042 -0.2069 -0.9263
 8389SOL    HW237641   5.439   0.815   3.828 -1.9582 -0.1827  0.6220
 8390SOL     OW37642   2.905   7.479   4.058  0.1093  0.3890 -0.3223
 8390SOL    HW137643   2.986   7.438   4.015 -0.1545 -0.9065  0.4094
 8390SOL    HW237644   2.876   7.559   4.005  0.0822 -0.8978 -2.2886
 8391SOL     OW37645   5.421   7.278   0.187  0.1904  0.1973 -0.1117
 8391SOL    HW137646   5.356   7.209   0.153  0.5189  0.6392 -1.6364
 8391SOL    HW237647   5.416   7.359   0.130  1.4020  0.6074  0.3696
 8392SOL     OW37648   3.942   6.176   0.319  0.7850  0.5595 -0.0610
 8392SOL    HW137649   3.927   6.270   0.350  1.2623  1.3069 -2.0410
 8392SOL    HW237650   3.855   6.132   0.302  0.5802  1.0284 -0.2413
 8393SOL     OW37651   5.742   5.803   5.706 -0.3215 -0.3815  0.1979
 8393SOL    HW137652   5.799   5.816   5.787 -0.5823  0.6823  0.2155
 8393SOL    HW237653   5.756   5.711   5.670 -0.2408 -0.8771  1.4824
 8394SOL     OW37654   1.611   9.000   0.143  0.2985  0.1640  0.0886
 8394SOL    HW137655   1.533   9.057   0.120 -0.5895 -1.1396 -0.2172
 8394SOL    HW237656   1.668   8.987   0.062  0.6796  0.8975  0.2436
 8395SOL     OW37657   4.915   1.770   2.225 -0.3070 -0.7206  0.2474
 8395SOL    HW137658   5.008   1.751   2.191 -0.5125  0.0044 -0.7552
 8395SOL    HW237659   4.896   1.712   2.304  1.0349 -0.8239  0.5135
 8396SOL     OW37660   1.770   5.148   3.647  0.8281  0.3511 -0.3928
 8396SOL    HW137661   1.710   5.095   3.708  1.3514 -1.0751 -1.0841
 8396SOL    HW237662   1.851   5.094   3.625  0.6665  0.8500 -2.3095
 8397SOL     OW37663   7.468   6.546   5.504 -0.7007 -0.5840  0.1178
 8397SOL    HW137664   7.442   6.631   5.550 -0.6351 -1.3878  1.6982
 8397SOL    HW237665   7.532   6.566   5.430  0.1187  0.6502  1.1400
 8398SOL     OW37666   1.348   0.361   0.506  0.1986  0.2438 -1.1514
 8398SOL    HW137667   1.299   0.402   0.583  0.6096  0.3296 -0.9302
 8398SOL    HW237668   1.380   0.269   0.532 -1.0945 -0.3911 -1.7950
 8399SOL     OW37669   4.186   5.544   5.023 -0.5362  0.4883  0.2335
 8399SOL    HW137670   4.188   5.629   4.969  0.0027 -1.2533 -2.6161
 8399SOL    HW237671   4.092   5.513   5.031 -0.5276  0.2645 -0.5152
 8400SOL     OW37672   4.674   1.177   2.441  0.1053 -0.6146 -0.0407
 8400SOL    HW137673   4.667   1.255   2.504 -0.1467 -1.0896  0.5306
 8400SOL    HW237674   4.768   1.166   2.411  0.2351 -0.4008  0.2836
 8401SOL     OW37675   6.850   5.932   1.287 -0.0607 -0.6459 -0.4007
 8401SOL    HW137676   6.761   5.974   1.270 -1.6070 -1.3328  4.8593
 8401SOL    HW237677   6.914   6.002   1.319  0.0616 -0.7846 -0.3428
 8402SOL     OW37678   7.608   3.642   7.588  0.0576  0.1073 -0.3773
 8402SOL    HW137679   7.548   3.606   7.660  0.2220 -0.5839 -0.5781
 8402SOL    HW237680   7.678   3.700   7.629 -0.2939  0.3160 -0.0629
 8403SOL     OW37681   6.563   4.995   8.352  0.4149 -0.7241  0.1430
 8403SOL    HW137682   6.659   5.018   8.337  0.6145 -1.0764  0.8539
 8403SOL    HW237683   6.506   5.044   8.286  0.7951  2.1316  1.8564
 8404SOL     OW37684   3.415   0.883   4.921  0.2824  0.2443  0.5052
 8404SOL    HW137685   3.433   0.932   5.006  0.7581 -0.6414  0.9167
 8404SOL    HW237686   3.374   0.795   4.941  1.6573 -0.5493 -0.1139
 8405SOL     OW37687   5.472   8.548   1.146  0.0866  0.0385  0.0389
 8405SOL    HW137688   5.451   8.641   1.116 -0.8468  0.2329  1.2570
 8405SOL    HW237689   5.571   8.536   1.149  0.2555  1.5412  1.4540
 8406SOL     OW37690   7.849   2.113   6.956  0.4757  0.1443  0.3827
 8406SOL    HW137691   7.872   2.208   6.977  0.5408  0.3473 -0.5831
 8406SOL    HW237692   7.750   2.103   6.949  0.4663  0.1252  0.5383
 8407SOL     OW37693   2.442   0.275   7.721  0.0278  0.1928 -0.1177
 8407SOL    HW137694   2.385   0.331   7.781 -0.4252  1.5494 -1.7626
 8407SOL    HW237695   2.528   0.322   7.702  0.8277 -0.9148  0.6679
 8408SOL     OW37696   2.629   3.805   1.484  0.2344 -0.0315 -0.2048
 8408SOL    HW137697   2.582   3.724   1.448  0.1214  0.6305 -1.5670
 8408SOL    HW237698   2.727   3.787   1.489  0.3079  0.0369 -1.3145
 8409SOL     OW37699   5.225   1.922   7.083 -0.3950 -0.1833 -0.1118
 8409SOL    HW137700   5.306   1.948   7.136 -0.0222  1.6444 -1.5464
 8409SOL    HW237701   5.143   1.937   7.139  0.0160  1.3331  0.1016
 8410SOL     OW37702   1.356   1.418   4.714 -0.6926  0.1798 -0.2215
 8410SOL    HW137703   1.266   1.441   4.750 -1.0782  0.9478 -1.6241
 8410SOL    HW237704   1.426   1.472   4.762 -0.9257 -0.7357  1.1629
 8411SOL     OW37705   2.289   2.189   3.137 -0.2212 -0.1453 -0.1967
 8411SOL    HW137706   2.356   2.217   3.068  1.7339 -1.2948  1.1487
 8411SOL    HW237707   2.271   2.091   3.128 -1.0385 -0.0174  0.0308
 8412SOL     OW37708   6.366   2.866   0.858 -0.3362 -0.5243 -0.1414
 8412SOL    HW137709   6.382   2.832   0.765  2.7507 -1.5897  0.7261
 8412SOL    HW237710   6.314   2.798   0.909 -1.5664 -0.1744 -0.8997
 8413SOL     OW37711   3.364   4.421   5.263  0.4112 -0.0537 -0.4030
 8413SOL    HW137712   3.362   4.484   5.340  0.9875 -0.7354  0.1855
 8413SOL    HW237713   3.431   4.349   5.281 -2.3745 -2.5841  0.3244
 8414SOL     OW37714   4.740   0.751   7.167 -0.0144 -0.1367 -0.2956
 8414SOL    HW137715   4.806   0.746   7.243 -2.1667  1.9602  1.8205
 8414SOL    HW237716   4.768   0.824   7.105 -0.1415  0.5542  0.4398
 8415SOL     OW37717   4.490   6.628   8.645 -0.1017  0.0470 -0.7357
 8415SOL    HW137718   4.545   6.668   8.718 -1.9457  0.1840  0.6356
 8415SOL    HW237719   4.436   6.552   8.683 -0.3434 -0.5241 -2.1944
 8416SOL     OW37720   1.435   4.523   1.911  0.2549  0.2856  0.1765
 8416SOL    HW137721   1.399   4.559   1.825 -0.5811  1.9785  1.2035
 8416SOL    HW237722   1.405   4.429   1.924  0.1589  0.1137 -1.2469
 8417SOL     OW37723   7.345   4.771   4.584  0.7379  0.9440 -0.5210
 8417SOL    HW137724   7.421   4.743   4.525 -0.1771  0.8907 -1.7084
 8417SOL    HW237725   7.288   4.837   4.535 -2.4029 -2.2498 -1.3817
 8418SOL     OW37726   3.136   5.853   7.815  0.0795 -0.6000 -0.2627
 8418SOL    HW137727   3.052   5.904   7.793 -1.1012 -1.6176  1.7474
 8418SOL    HW237728   3.191   5.907   7.878  0.5258 -0.3017 -0.9077
 8419SOL     OW37729   3.404   6.062   3.510  0.6000  0.1265 -0.8873
 8419SOL    HW137730   3.401   6.150   3.558  1.5379  0.7318 -1.9145
 8419SOL    HW237731   3.311   6.028   3.497  0.3259 -0.0325  1.3050
 8420SOL     OW37732   2.904   7.515   8.494  0.1539 -0.2831 -0.2467
 8420SOL    HW137733   2.893   7.573   8.576  0.4292 -0.6421  0.0472
 8420SOL    HW237734   2.937   7.571   8.419 -0.6794  0.1745 -0.2792
 8421SOL     OW37735   6.265   8.939   7.747 -0.6188  0.2511 -0.0784
 8421SOL    HW137736   6.309   8.968   7.833 -1.0156 -1.0003  0.5710
 8421SOL    HW237737   6.173   8.906   7.767 -1.2716  1.3652 -1.2177
 8422SOL     OW37738   0.984   7.162   7.050  0.2833  0.2927 -0.0788
 8422SOL    HW137739   1.070   7.143   7.003  1.0189 -1.2982  1.8456
 8422SOL    HW237740   0.909   7.118   6.999  0.1333  4.0287 -3.3405
 8423SOL     OW37741   0.652   2.818   4.686  0.5276 -0.1734 -0.2433
 8423SOL    HW137742   0.668   2.724   4.657 -0.3710 -1.1619  2.3827
 8423SOL    HW237743   0.604   2.867   4.613  0.3780 -1.9290 -1.3534
 8424SOL     OW37744   1.359   1.549   6.444 -0.0332  0.8351 -0.1708
 8424SOL    HW137745   1.434   1.581   6.500  1.2212 -2.3489  0.0983
 8424SOL    HW237746   1.387   1.548   6.348  0.3790 -0.5685 -0.0461
 8425SOL     OW37747   3.659   2.425   6.841  0.3540 -0.1890  0.2466
 8425SOL    HW137748   3.568   2.466   6.845 -0.4854 -2.1391  3.1502
 8425SOL    HW237749   3.660   2.349   6.776  0.0151  0.1133 -0.1043
 8426SOL     OW37750   3.956   8.598   4.746 -0.4338 -0.2502  0.2561
 8426SOL    HW137751   3.967   8.560   4.838 -0.8974  0.2644  0.5212
 8426SOL    HW237752   3.909   8.685   4.750 -0.1296 -0.0427 -0.4398
 8427SOL     OW37753   2.633   0.859   8.820 -0.0379  0.6526  0.2300
 8427SOL    HW137754   2.689   0.821   8.747  0.3679  2.3948 -0.3954
 8427SOL    HW237755   2.593   0.785   8.874  2.5657 -0.6168  0.4738
 8428SOL     OW37756   5.849   3.304   1.610 -0.5437 -0.1539 -0.3839
 8428SOL    HW137757   5.877   3.345   1.524 -0.6191  0.9900  0.1329
 8428SOL    HW237758   5.776   3.237   1.593  1.6102 -2.2757 -1.5852
 8429SOL     OW37759   7.043   0.341   0.429 -0.1370  0.4032  0.3156
 8429SOL    HW137760   7.031   0.266   0.493  0.4545  0.2769  0.2810
 8429SOL    HW237761   7.087   0.308   0.345  0.4278  0.8494  0.4332
 8430SOL     OW37762   7.660   2.947   0.458  0.1453  0.0283  0.6515
 8430SOL    HW137763   7.631   2.947   0.362  0.0919  0.9144  0.6644
 8430SOL    HW237764   7.702   2.859   0.480 -0.5206 -0.4594  0.0242
 8431SOL     OW37765   3.704   0.906   2.965  0.4768 -0.2402 -0.2138
 8431SOL    HW137766   3.649   0.982   2.999 -0.7537 -1.2439  0.1110
 8431SOL    HW237767   3.722   0.842   3.040 -1.4230 -1.9885 -1.2091
 8432SOL     OW37768   7.143   2.260   2.998 -0.1097  0.3581  0.0031
 8432SOL    HW137769   7.104   2.352   3.005 -0.3135  0.3697 -1.1241
 8432SOL    HW237770   7.227   2.255   3.052 -0.8416  0.7928  1.1859
 8433SOL     OW37771   1.078   8.305   8.149 -0.2966  0.4590  0.4174
 8433SOL    HW137772   1.042   8.233   8.208 -0.9379  0.2251 -0.2535
 8433SOL    HW237773   1.165   8.339   8.187 -0.0897 -0.5243  0.8400
 8434SOL     OW37774   6.152   0.874   0.788 -0.2159  0.0505 -0.5460
 8434SOL    HW137775   6.131   0.879   0.886  2.7744  0.2199  0.1411
 8434SOL    HW237776   6.169   0.966   0.754  2.5505 -0.3180 -0.2798
 8435SOL     OW37777   1.144   6.199   0.192 -0.3844 -0.3675 -0.0468
 8435SOL    HW137778   1.083   6.152   0.256 -0.8860  0.5110  0.1248
 8435SOL    HW237779   1.231   6.217   0.237  0.0751 -1.7466 -0.3357
 8436SOL     OW37780   1.157   2.691   2.725  0.1756 -0.4708  0.1955
 8436SOL    HW137781   1.073   2.745   2.724 -1.3407 -2.7180 -2.1463
 8436SOL    HW237782   1.133   2.593   2.728  2.6904 -1.1410 -0.6167
 8437SOL     OW37783   3.219   7.450   7.976  0.6670  0.2868 -0.2269
 8437SOL    HW137784   3.184   7.377   8.034  1.7896  0.2064  0.3544
 8437SOL    HW237785   3.203   7.538   8.020  0.2365  0.3282 -0.4593
 8438SOL     OW37786   8.865   1.886   1.744  0.1700 -0.5804 -0.0997
 8438SOL    HW137787   8.823   1.796   1.746  0.6157 -0.7787  1.0131
 8438SOL    HW237788   8.804   1.951   1.699 -0.7687 -1.1397  0.3594
 8439SOL     OW37789   3.525   5.687   6.389  0.0475  0.6054  0.0699
 8439SOL    HW137790   3.470   5.685   6.473  0.2670 -1.3991  0.1976
 8439SOL    HW237791   3.490   5.618   6.326  2.4436 -0.7498  0.1816
 8440SOL     OW37792   6.239   5.222   7.453  0.1923  0.0609 -0.0252
 8440SOL    HW137793   6.251   5.185   7.361 -3.1325 -0.9593 -0.1191
 8440SOL    HW237794   6.255   5.150   7.521 -1.2213 -0.2289  0.0115
 8441SOL     OW37795   4.243   7.138   5.025  0.3370 -0.5861  0.5085
 8441SOL    HW137796   4.245   7.060   4.962  0.0576  0.5443 -0.9320
 8441SOL    HW237797   4.175   7.121   5.097 -0.7718 -1.0465 -0.6352
 8442SOL     OW37798   5.486   6.292   1.611  0.5778 -0.5536  0.1443
 8442SOL    HW137799   5.473   6.387   1.637  0.8107 -0.3431 -0.5022
 8442SOL    HW237800   5.441   6.274   1.523  1.5524 -0.7310 -0.3308
 8443SOL     OW37801   8.990   7.498   4.211  0.6631 -1.0127  0.1728
 8443SOL    HW137802   8.942   7.420   4.172  1.8279 -1.6528  0.0108
 8443SOL    HW237803   9.068   7.466   4.265  0.2131 -0.0422  1.4191
 8444SOL     OW37804   1.593   2.647   7.036  0.2783  0.7238 -0.3729
 8444SOL    HW137805   1.561   2.586   6.964  0.2591 -0.6566  0.7924
 8444SOL    HW237806   1.564   2.741   7.015 -2.9977 -0.1995 -0.2797
 8445SOL     OW37807   0.985   5.204   2.558  0.5812  0.2545 -0.1346
 8445SOL    HW137808   1.042   5.122   2.554 -0.2115 -0.2997 -0.2532
 8445SOL    HW237809   0.889   5.178   2.546  0.0323  0.8766  2.5863
 8446SOL     OW37810   7.861   3.233   5.517  0.1746  0.2070 -0.1686
 8446SOL    HW137811   7.780   3.205   5.568 -0.3075  0.7893 -0.6196
 8446SOL    HW237812   7.931   3.264   5.582 -0.1876  0.3046  0.1780
 8447SOL     OW37813   5.623   1.542   0.003  0.3592 -0.3251  0.7457
 8447SOL    HW137814   5.705   1.598   0.006  0.5106 -0.6019  1.8524
 8447SOL    HW237815   5.644   1.448   0.032  0.3487 -1.2913 -2.1724
 8448SOL     OW37816   8.267   3.551   3.606  0.0034 -0.0046 -1.0415
 8448SOL    HW137817   8.334   3.518   3.539 -1.5589 -0.0713 -2.6121
 8448SOL    HW237818   8.298   3.639   3.643  1.4454 -0.5213 -0.9760
 8449SOL     OW37819   6.836   5.402   5.335 -0.1911  0.6888  0.8160
 8449SOL    HW137820   6.891   5.319   5.328 -0.6824  0.4364 -0.2335
 8449SOL    HW237821   6.741   5.380   5.311 -0.2014  1.6747 -0.0686
 8450SOL     OW37822   3.166   3.349   3.398  0.3941  0.6287  0.1107
 8450SOL    HW137823   3.180   3.333   3.496  2.4336 -2.2222 -0.5882
 8450SOL    HW237824   3.238   3.408   3.362  1.2911 -0.6523 -0.2196
 8451SOL     OW37825   7.975   8.135   7.197  0.4742 -0.0815  0.3616
 8451SOL    HW137826   8.031   8.073   7.252  0.8449 -1.2452 -1.2705
 8451SOL    HW237827   7.883   8.098   7.188  0.2188  0.4501  0.7617
 8452SOL     OW37828   7.982   5.570   5.073  0.5310  0.7537 -1.3280
 8452SOL    HW137829   8.035   5.521   5.004  1.8449  0.7106 -0.3125
 8452SOL    HW237830   7.973   5.666   5.046  0.7633  0.6650 -1.7291
 8453SOL     OW37831   2.290   4.422   4.818  0.2174 -0.1987 -0.3264
 8453SOL    HW137832   2.364   4.396   4.756 -0.7691 -1.2689 -1.0609
 8453SOL    HW237833   2.237   4.497   4.779  2.7011  2.6546  1.5303
 8454SOL     OW37834   5.842   5.157   7.357 -0.5514  0.0376 -1.3624
 8454SOL    HW137835   5.847   5.128   7.452  1.3364 -1.7247 -1.9827
 8454SOL    HW237836   5.746   5.172   7.332 -0.9143  3.9440  1.7762
 8455SOL     OW37837   8.322   8.622   3.916  0.1198  0.1742  0.0120
 8455SOL    HW137838   8.328   8.615   4.015  1.8369  0.2353 -0.0823
 8455SOL    HW237839   8.351   8.713   3.886  0.5970 -0.1809 -0.6270
 8456SOL     OW37840   6.636   5.171   7.415  0.1546  0.1644 -0.3368
 8456SOL    HW137841   6.575   5.228   7.471 -0.7383 -2.2981  1.2855
 8456SOL    HW237842   6.731   5.192   7.439 -0.1125  2.0199 -0.8400
 8457SOL     OW37843   6.625   3.138   7.710  0.3179  0.0914  0.6505
 8457SOL    HW137844   6.721   3.160   7.692 -0.3587  2.2376 -0.4169
 8457SOL    HW237845   6.590   3.079   7.637 -0.5575  3.4089 -1.7144
 8458SOL     OW37846   3.337   4.297   3.386 -0.9392 -0.5323 -0.0765
 8458SOL    HW137847   3.303   4.354   3.311  0.6993  0.2352 -0.2551
 8458SOL    HW237848   3.348   4.203   3.354 -1.8303 -0.5592 -0.3185
 8459SOL     OW37849   3.463   4.420   2.294  0.1850  0.2787 -0.1608
 8459SOL    HW137850   3.514   4.383   2.372  1.6680  0.2986 -1.0817
 8459SOL    HW237851   3.374   4.454   2.324  0.1623 -1.0129  1.2626
 8460SOL     OW37852   2.808   3.485   8.599 -0.2657  0.5334  0.0018
 8460SOL    HW137853   2.822   3.579   8.627  0.2172 -0.5221  3.5465
 8460SOL    HW237854   2.724   3.449   8.641 -0.7217 -0.4926 -1.7137
 8461SOL     OW37855   0.529   8.338   7.959  0.0802 -0.1933  0.2223
 8461SOL    HW137856   0.562   8.432   7.971  0.1241 -0.2555  0.5925
 8461SOL    HW237857   0.606   8.276   7.946  0.0356 -0.1310 -0.3742
 8462SOL     OW37858   7.042   7.411   8.291 -0.1009  0.5306 -0.2871
 8462SOL    HW137859   7.085   7.343   8.232 -0.5779  0.1996 -0.2637
 8462SOL    HW237860   7.089   7.414   8.379  2.0956  2.7093 -1.4857
 8463SOL     OW37861   7.849   6.881   8.647 -0.0792  0.7028  0.1182
 8463SOL    HW137862   7.811   6.969   8.677 -0.9443  0.3923 -0.0754
 8463SOL    HW237863   7.935   6.865   8.696 -1.3164  0.3289  2.2666
 8464SOL     OW37864   8.170   4.189   3.363  0.5332  0.2600 -0.8657
 8464SOL    HW137865   8.157   4.138   3.448  5.3018  2.2026  1.2274
 8464SOL    HW237866   8.181   4.125   3.288  1.7875 -1.7038  0.9254
 8465SOL     OW37867   1.262   3.511   8.878  0.1907 -0.6627 -0.7919
 8465SOL    HW137868   1.303   3.600   8.856  1.4738 -1.4128 -1.4377
 8465SOL    HW237869   1.169   3.508   8.840  0.0847  0.4507 -0.6501
 8466SOL     OW37870   4.508   8.741   4.994  0.1436  0.1537  0.5309
 8466SOL    HW137871   4.475   8.823   5.041  1.0383  0.8034  0.0406
 8466SOL    HW237872   4.582   8.765   4.932  0.2261 -0.9875  0.1649
 8467SOL     OW37873   0.568   4.968   4.081  0.5720 -0.0570 -0.5378
 8467SOL    HW137874   0.478   4.940   4.113  1.1635 -1.5208 -0.0688
 8467SOL    HW237875   0.636   4.949   4.153  1.3497  0.3490 -1.1570
 8468SOL     OW37876   1.001   6.835   7.695  0.2607  0.2303 -0.4137
 8468SOL    HW137877   1.041   6.896   7.626 -0.8292  0.5429 -0.7794
 8468SOL    HW237878   1.072   6.775   7.732  1.0561  0.7545 -1.0760
 8469SOL     OW37879   3.723   8.740   0.053 -0.0585 -0.6142  0.6328
 8469SOL    HW137880   3.684   8.730  -0.038  2.3220 -2.5274 -0.2136
 8469SOL    HW237881   3.755   8.833   0.066  1.9786 -0.9944 -1.4833
 8470SOL     OW37882   7.653   3.071   7.026 -0.1394 -0.1932 -0.1780
 8470SOL    HW137883   7.611   3.063   7.117 -1.8175 -0.2777 -0.9411
 8470SOL    HW237884   7.694   2.984   7.001 -0.0537 -0.2999  0.3175
 8471SOL     OW37885   0.955   6.371   0.449  0.4495  0.0114  0.0770
 8471SOL    HW137886   0.896   6.340   0.523  0.1516 -1.4005 -0.7372
 8471SOL    HW237887   1.030   6.306   0.437  1.3169  0.9943  0.0884
 8472SOL     OW37888   7.142   4.314   7.805  0.4450 -0.5857 -0.2349
 8472SOL    HW137889   7.108   4.404   7.779 -0.4651 -0.6056  0.8732
 8472SOL    HW237890   7.099   4.245   7.747  0.3329 -0.4153 -0.3565
 8473SOL     OW37891   4.602   6.646   4.321  0.2118  0.1207  0.1552
 8473SOL    HW137892   4.593   6.555   4.360  1.3853  0.3724  1.0527
 8473SOL    HW237893   4.699   6.670   4.313 -0.0787  1.2549 -0.1396
 8474SOL     OW37894   0.704   5.592   2.006  0.1142 -0.5220 -0.6774
 8474SOL    HW137895   0.645   5.529   2.055 -0.2094 -0.2788 -0.7519
 8474SOL    HW237896   0.695   5.578   1.908  1.5505 -1.7267 -0.6594
 8475SOL     OW37897   2.045   8.390   2.730 -0.1356  0.1994  0.1910
 8475SOL    HW137898   2.004   8.306   2.766  0.3735 -0.2192 -0.1958
 8475SOL    HW237899   2.018   8.402   2.635 -0.7560  0.8377  0.4404
 8476SOL     OW37900   4.721   6.918   4.567 -0.4264 -0.3239 -0.1840
 8476SOL    HW137901   4.730   6.828   4.524 -1.1135 -0.8514  0.7335
 8476SOL    HW237902   4.798   6.933   4.630 -0.5498 -0.4744  0.0056
 8477SOL     OW37903   3.319   0.359   7.528 -0.4101  0.0372  0.6341
 8477SOL    HW137904   3.397   0.408   7.568  0.0290 -1.6336  1.8854
 8477SOL    HW237905   3.283   0.294   7.594 -2.1619 -0.0229 -0.3542
 8478SOL     OW37906   5.202   4.810   7.120  0.2480 -0.2147  0.1644
 8478SOL    HW137907   5.183   4.858   7.206  0.1148 -0.6026  0.3478
 8478SOL    HW237908   5.277   4.856   7.074 -1.1894  1.3952 -0.6259
 8479SOL     OW37909   1.482   4.354   2.804  0.0316  0.4313  0.7395
 8479SOL    HW137910   1.549   4.286   2.777  1.0699  1.2383  1.2541
 8479SOL    HW237911   1.396   4.338   2.754  0.5076 -0.7596  0.2824
 8480SOL     OW37912   3.757   1.198   3.576 -0.1661 -0.5304 -0.0423
 8480SOL    HW137913   3.793   1.249   3.498 -0.9892  0.7028  0.3764
 8480SOL    HW237914   3.662   1.174   3.559 -0.0097 -1.2588  0.0960
 8481SOL     OW37915   8.212   8.148   7.065  0.2727 -0.0439  0.0604
 8481SOL    HW137916   8.122   8.141   7.109 -0.2688 -0.5384 -1.1110
 8481SOL    HW237917   8.236   8.059   7.026  0.1904  0.7168 -1.7337
 8482SOL     OW37918   8.456   4.063   5.679 -0.0866  0.0435 -0.5973
 8482SOL    HW137919   8.472   4.007   5.761 -1.2734  3.0382  1.7549
 8482SOL    HW237920   8.404   4.009   5.613  0.6434 -2.3407  0.6836
 8483SOL     OW37921   7.843   1.836   5.813 -0.4389 -0.4114  0.1732
 8483SOL    HW137922   7.811   1.886   5.893  0.9117  1.3583 -0.3610
 8483SOL    HW237923   7.779   1.850   5.737  0.8640  2.0869 -0.5240
 8484SOL     OW37924   2.744   6.177   1.767 -0.0482  0.1389  0.3918
 8484SOL    HW137925   2.759   6.263   1.817  3.8428  0.1861 -0.7115
 8484SOL    HW237926   2.754   6.100   1.830  1.8805  0.3055  0.2998
 8485SOL     OW37927   8.328   2.102   0.049 -0.3572  0.3220  0.3624
 8485SOL    HW137928   8.403   2.157   0.013 -0.0997 -0.3589 -0.1774
 8485SOL    HW237929   8.259   2.161   0.089 -0.1953  1.0465 -0.4123
 8486SOL     OW37930   0.050   3.908   0.618 -0.4772 -0.4662  0.5671
 8486SOL    HW137931   0.064   4.006   0.603 -1.3347 -0.5048 -0.4897
 8486SOL    HW237932   0.134   3.859   0.595 -0.3225 -0.0717  0.2926
 8487SOL     OW37933   5.929   3.969   1.902 -0.4650 -0.6943  0.7579
 8487SOL    HW137934   5.853   3.999   1.960 -1.8473  0.0091 -1.3742
 8487SOL    HW237935   5.903   3.885   1.854  0.3173 -0.7262  0.3827
 8488SOL     OW37936   8.191   7.790   6.003  0.4563  0.2636 -0.0878
 8488SOL    HW137937   8.103   7.743   6.002  1.9958 -2.7422 -1.6216
 8488SOL    HW237938   8.185   7.874   5.949 -0.9880 -0.9108 -1.8199
 8489SOL     OW37939   1.223   7.812   4.555  0.1160  0.0568  0.2190
 8489SOL    HW137940   1.249   7.870   4.631  0.2779 -0.1637  0.3328
 8489SOL    HW237941   1.305   7.779   4.508  0.0781 -1.1356  0.9494
 8490SOL     OW37942   5.418   3.193   0.425 -0.0362  0.8465  0.5610
 8490SOL    HW137943   5.429   3.160   0.331 -1.9071 -1.1622  1.0102
 8490SOL    HW237944   5.504   3.234   0.456  1.2426 -0.3722 -1.2741
 8491SOL     OW37945   7.898   7.215   5.181  0.1842 -0.2315 -0.0341
 8491SOL    HW137946   7.874   7.259   5.095 -0.6124 -0.0422  0.2851
 8491SOL    HW237947   7.998   7.219   5.194  0.5241 -1.9264 -1.8404
 8492SOL     OW37948   2.152   4.238   8.345 -0.2302 -0.3785  0.8936
 8492SOL    HW137949   2.106   4.304   8.404  0.3185  1.9990 -1.2203
 8492SOL    HW237950   2.250   4.237   8.365  0.0008  0.6352 -0.0794
 8493SOL     OW37951   1.413   7.286   8.253 -0.8874 -0.8180 -0.5169
 8493SOL    HW137952   1.396   7.373   8.206  0.4557  0.4213  1.2358
 8493SOL    HW237953   1.328   7.236   8.263 -2.3527  1.9735  1.6833
 8494SOL     OW37954   2.757   6.135   6.079 -0.5128 -0.0955  0.3152
 8494SOL    HW137955   2.684   6.189   6.036 -0.5094  0.0542  0.4961
 8494SOL    HW237956   2.832   6.196   6.106 -0.5002 -0.1943  0.5017
 8495SOL     OW37957   3.757   3.077   7.174  0.5249  0.3492  0.0278
 8495SOL    HW137958   3.685   3.121   7.121  1.5096  2.9492  0.8001
 8495SOL    HW237959   3.719   3.045   7.261 -0.0488  0.2568 -0.2542
 8496SOL     OW37960   4.489   2.755   1.349  0.8529 -0.2422 -0.6550
 8496SOL    HW137961   4.574   2.719   1.388  2.3161  0.9691 -2.5914
 8496SOL    HW237962   4.487   2.854   1.361  0.0818 -0.1731 -1.3090
 8497SOL     OW37963   4.990   6.497   5.936 -0.2436 -0.0711  0.2182
 8497SOL    HW137964   5.088   6.512   5.923 -0.4552  0.9136 -0.2690
 8497SOL    HW237965   4.976   6.416   5.993  0.8595 -0.0138  0.5786
 8498SOL     OW37966   4.664   1.747   5.476 -0.8410  0.0321  0.0430
 8498SOL    HW137967   4.646   1.757   5.378  0.6444  0.1912 -0.2114
 8498SOL    HW237968   4.644   1.833   5.523 -2.4189 -0.3064  0.0231
 8499SOL     OW37969   6.007   0.752   8.153  0.0446  0.5744 -0.0416
 8499SOL    HW137970   5.957   0.831   8.191  1.5839  0.8648  1.4052
 8499SOL    HW237971   5.943   0.676   8.140 -0.8263  1.0003  1.6230
 8500SOL     OW37972   2.762   7.729   5.993  0.3006  0.2270  0.0263
 8500SOL    HW137973   2.845   7.697   5.947 -0.5687  0.2705 -1.6290
 8500SOL    HW237974   2.699   7.652   6.006 -0.7856  0.7722 -1.7824
 8501SOL     OW37975   0.779   0.869   0.607  0.5717 -0.3214  0.8267
 8501SOL    HW137976   0.817   0.940   0.667  1.6581 -0.4677  0.3321
 8501SOL    HW237977   0.695   0.833   0.646 -0.4039  1.7693  0.7272
 8502SOL     OW37978   1.239   3.569   5.251  0.4351 -0.0722 -0.2333
 8502SOL    HW137979   1.301   3.507   5.300  0.4264  0.1125  0.0165
 8502SOL    HW237980   1.280   3.661   5.249  0.7415 -0.2217 -1.1460
 8503SOL     OW37981   3.055   2.097   3.558  0.5883  0.3953  1.1107
 8503SOL    HW137982   2.988   2.068   3.626 -1.0523  0.8017 -0.2998
 8503SOL    HW237983   3.121   2.024   3.543  0.0537 -0.2836  2.0085
 8504SOL     OW37984   3.411   1.808   0.703 -0.2332  0.4153 -0.1119
 8504SOL    HW137985   3.375   1.890   0.748  0.9568  0.1293  1.3839
 8504SOL    HW237986   3.438   1.741   0.772 -1.5724 -1.4365 -1.3140
 8505SOL     OW37987   3.942   1.395   4.251  0.0256  0.6711 -0.0157
 8505SOL    HW137988   3.969   1.369   4.159  1.8784  1.0297  0.4029
 8505SOL    HW237989   3.867   1.461   4.247 -1.5995 -1.1980 -1.1810
 8506SOL     OW37990   7.517   4.643   8.806  0.4538  0.1234  0.1960
 8506SOL    HW137991   7.455   4.623   8.730  1.1959 -0.1981 -0.3283
 8506SOL    HW237992   7.464   4.680   8.883 -0.4092 -0.2831 -0.1928
 8507SOL     OW37993   0.836   6.654   2.483 -0.7653 -0.2742  0.1823
 8507SOL    HW137994   0.742   6.674   2.512 -0.8049 -0.4934  0.2051
 8507SOL    HW237995   0.883   6.605   2.556 -0.0513  1.4807  0.9282
 8508SOL     OW37996   7.969   0.032   0.651 -0.2382 -0.5145  0.6039
 8508SOL    HW137997   7.969  -0.068   0.650  1.5463 -0.5348  1.0353
 8508SOL    HW237998   8.053   0.066   0.695 -0.3382  1.1699 -0.4319
 8509SOL     OW37999   0.660   8.989   0.354  0.2188 -0.2166  0.4206
 8509SOL    HW138000   0.704   8.939   0.279 -1.3468  3.2740 -2.9678
 8509SOL    HW238001   0.562   8.970   0.355 -0.1209  1.4729  0.1617
 8510SOL     OW38002   5.217   3.589   1.758 -0.2563  0.1116  0.1349
 8510SOL    HW138003   5.311   3.623   1.762 -0.3167  0.9327 -3.8094
 8510SOL    HW238004   5.202   3.540   1.673 -3.2489 -0.5720  0.9921
 8511SOL     OW38005   5.344   4.876   0.083  0.0404 -0.4893 -0.6359
 8511SOL    HW138006   5.280   4.870   0.160  1.8152  1.6152  1.0608
 8511SOL    HW238007   5.312   4.945   0.019  0.6902  0.7033  0.3119
 8512SOL     OW38008   5.528   8.384   2.944  0.2802 -0.2096  0.0236
 8512SOL    HW138009   5.574   8.295   2.946  0.9232  0.0489 -2.0909
 8512SOL    HW238010   5.455   8.385   3.013  1.2064 -1.8401  1.0658
 8513SOL     OW38011   4.181   2.899   0.197 -0.5494  0.4860  0.8349
 8513SOL    HW138012   4.258   2.963   0.200  0.5775 -0.7940  0.1388
 8513SOL    HW238013   4.140   2.901   0.106 -1.6061  1.4714  1.3324
 8514SOL     OW38014   0.939   0.194   1.488 -0.3004 -0.2805  0.8638
 8514SOL    HW138015   0.936   0.103   1.529  1.0179 -0.7320 -0.0061
 8514SOL    HW238016   1.026   0.206   1.440 -0.4861  1.4164  0.9153
 8515SOL     OW38017   7.736   5.165   3.892 -0.4289 -0.0482  0.0952
 8515SOL    HW138018   7.721   5.224   3.813 -3.1102 -1.6578 -0.6804
 8515SOL    HW238019   7.792   5.086   3.865  1.9943  1.3860  0.8009
 8516SOL     OW38020   8.235   3.253   8.462 -0.0733 -0.4876 -0.5212
 8516SOL    HW138021   8.202   3.342   8.429 -2.6334 -0.3444  2.2081
 8516SOL    HW238022   8.312   3.266   8.523 -0.5776 -0.1118  0.0412
 8517SOL     OW38023   8.498   5.513   5.850  0.4386  0.1971 -0.0457
 8517SOL    HW138024   8.473   5.546   5.941 -1.5526 -0.0121 -0.4922
 8517SOL    HW238025   8.594   5.483   5.851  0.2675 -0.4196  2.1631
 8518SOL     OW38026   0.908   8.461   0.150  0.4453 -0.1264  0.1575
 8518SOL    HW138027   0.917   8.491   0.245  0.2584  0.6568 -0.0617
 8518SOL    HW238028   0.973   8.512   0.093 -1.2870  1.3681 -0.5404
 8519SOL     OW38029   0.711   4.689   2.032  0.1275 -0.6866 -0.3080
 8519SOL    HW138030   0.781   4.659   1.967  0.9383 -0.0463  0.2666
 8519SOL    HW238031   0.724   4.785   2.054  0.2402 -1.0402  1.2673
 8520SOL     OW38032   2.420   8.960   1.563  0.2522 -0.6409 -0.1405
 8520SOL    HW138033   2.427   9.051   1.522  0.4880 -0.6585 -0.1398
 8520SOL    HW238034   2.328   8.948   1.601  0.5178 -0.0346  0.7094
 8521SOL     OW38035   0.514   4.302   1.545 -0.2635  0.0417  0.1042
 8521SOL    HW138036   0.581   4.318   1.618  0.1202 -2.8943  0.4359
 8521SOL    HW238037   0.446   4.236   1.576 -0.3484 -0.9202 -2.0345
 8522SOL     OW38038   8.353   5.072   5.548 -0.2563 -0.2986  0.3578
 8522SOL    HW138039   8.406   5.030   5.474  0.6221  0.6058  0.4683
 8522SOL    HW238040   8.404   5.066   5.634 -1.0800 -0.9420  0.8177
 8523SOL     OW38041   5.970   8.246   3.421 -0.1911 -0.1301  0.2817
 8523SOL    HW138042   6.034   8.169   3.407 -0.4375 -0.3852  0.5666
 8523SOL    HW238043   5.891   8.214   3.473 -0.2707  0.3329  0.4411
 8524SOL     OW38044   2.430   7.181   4.409  0.1992  0.0810 -0.5884
 8524SOL    HW138045   2.391   7.166   4.319 -1.1330  0.5139 -0.0963
 8524SOL    HW238046   2.508   7.243   4.402 -1.1264  1.7092 -1.2032
 8525SOL     OW38047   1.439   7.325   8.692 -0.3785 -0.1976  0.1488
 8525SOL    HW138048   1.349   7.292   8.665  0.0857 -0.1753 -1.5337
 8525SOL    HW238049   1.488   7.252   8.741 -0.4286 -1.0411 -1.0262
 8526SOL     OW38050   3.201   3.881   6.741  0.3049  0.5330 -0.1901
 8526SOL    HW138051   3.217   3.791   6.699 -0.3120  0.5587 -0.4749
 8526SOL    HW238052   3.287   3.931   6.745  0.1071  1.1422 -2.8245
 8527SOL     OW38053   4.234   0.288   0.339  0.3827 -0.2659  0.2910
 8527SOL    HW138054   4.247   0.219   0.410 -1.2620 -0.5290  0.3518
 8527SOL    HW238055   4.145   0.332   0.351  0.9267  1.0772 -0.4297
 8528SOL     OW38056   2.809   2.302   4.157 -0.3908  0.0921 -1.2315
 8528SOL    HW138057   2.752   2.371   4.203 -1.2744 -2.6711  1.9775
 8528SOL    HW238058   2.883   2.274   4.218  0.2810 -1.3904 -2.7062
 8529SOL     OW38059   0.661   1.611   0.223 -0.6029 -0.1321  0.0959
 8529SOL    HW138060   0.638   1.534   0.164  1.2686 -0.4476 -0.2475
 8529SOL    HW238061   0.684   1.577   0.315 -0.7182  0.1000  0.2113
 8530SOL     OW38062   5.184   5.815   1.294 -0.5144  0.0095  0.3083
 8530SOL    HW138063   5.137   5.821   1.382 -2.1005 -0.3002 -0.4880
 8530SOL    HW238064   5.226   5.725   1.284  0.0377  0.1937  0.9133
 8531SOL     OW38065   3.619   0.636   2.388  0.1264  0.1675  0.4269
 8531SOL    HW138066   3.704   0.629   2.337 -1.0407 -0.1222 -1.5213
 8531SOL    HW238067   3.548   0.584   2.341 -0.8007 -0.7311  2.7457
 8532SOL     OW38068   1.963   4.018   5.485 -0.8283  0.3163 -0.0032
 8532SOL    HW138069   1.869   4.053   5.479  0.0384  2.7111 -0.0792
 8532SOL    HW238070   2.004   4.018   5.394 -0.5910 -0.2810  0.1015
 8533SOL     OW38071   5.875   6.337   5.805  0.0002  0.2166 -0.8033
 8533SOL    HW138072   5.877   6.342   5.705 -0.9501  0.4664 -0.8215
 8533SOL    HW238073   5.947   6.276   5.838  0.2682  0.0796 -1.6436
 8534SOL     OW38074   1.832   7.754   0.707  0.0866 -0.6520 -0.2728
 8534SOL    HW138075   1.901   7.683   0.691 -0.4414 -1.1871 -0.2043
 8534SOL    HW238076   1.745   7.711   0.730 -0.3061  0.0163 -0.4862
 8535SOL     OW38077   8.941   7.083   4.394  0.6211  0.1164  0.6449
 8535SOL    HW138078   8.974   7.172   4.424  1.7318  0.5269 -1.6643
 8535SOL    HW238079   9.012   7.014   4.412  1.2432  0.3442 -0.8523
 8536SOL     OW38080   2.070   8.256   6.209 -0.4073 -0.0737  0.0984
 8536SOL    HW138081   2.148   8.237   6.150 -2.0174  0.3138 -2.2267
 8536SOL    HW238082   2.024   8.339   6.177 -1.3000  0.1676  1.9488
 8537SOL     OW38083   4.389   5.402   7.199 -0.3810  0.1605  0.3793
 8537SOL    HW138084   4.340   5.476   7.245 -0.0240  0.8987 -0.4116
 8537SOL    HW238085   4.414   5.431   7.106 -0.9410 -1.2407 -0.2281
 8538SOL     OW38086   1.149   4.722   3.780 -0.6242  0.0602  0.1274
 8538SOL    HW138087   1.141   4.705   3.681 -0.7077 -1.1555  0.3331
 8538SOL    HW238088   1.216   4.660   3.819 -0.7736  0.3698  0.8864
 8539SOL     OW38089   6.459   5.709   7.682  0.1444  0.1857 -0.0594
 8539SOL    HW138090   6.513   5.777   7.631 -1.1805  2.4379  1.4228
 8539SOL    HW238091   6.470   5.619   7.640  2.1945  1.2520 -1.9179
 8540SOL     OW38092   5.120   4.465   8.012  0.0715  0.1407 -0.7171
 8540SOL    HW138093   5.165   4.529   7.949 -1.2382  0.6739 -1.1365
 8540SOL    HW238094   5.052   4.514   8.065  0.8973 -0.3971  0.8622
 8541SOL     OW38095   3.334   2.744   6.736  0.1598 -0.3236  0.6193
 8541SOL    HW138096   3.250   2.796   6.749 -0.0094 -0.6904  0.9898
 8541SOL    HW238097   3.315   2.664   6.679 -0.0449 -1.1848  1.8827
 8542SOL     OW38098   3.724   5.053   0.022  0.6655 -0.4480 -0.0233
 8542SOL    HW138099   3.700   4.979  -0.041 -1.4273  1.0515 -1.0550
 8542SOL    HW238100   3.758   5.014   0.108  1.5349 -2.5537 -1.2941
 8543SOL     OW38101   7.276   3.713   8.887 -0.1118  0.4596 -0.3817
 8543SOL    HW138102   7.376   3.707   8.892 -0.1857 -0.0557  0.8706
 8543SOL    HW238103   7.241   3.750   8.973 -1.1520 -1.8356  0.2226
 8544SOL     OW38104   8.770   4.764   4.876 -0.0427  0.2160 -0.3856
 8544SOL    HW138105   8.699   4.824   4.913 -1.6786 -0.0600 -2.9448
 8544SOL    HW238106   8.749   4.669   4.898  0.0566  0.2011 -0.3501
 8545SOL     OW38107   1.743   7.903   4.200  0.6113 -0.6073 -0.2726
 8545SOL    HW138108   1.675   7.897   4.273 -0.6958 -1.8231 -1.5606
 8545SOL    HW238109   1.698   7.889   4.112  2.0532  1.4907 -1.3888
 8546SOL     OW38110   8.413   6.777   6.151 -0.3013  0.0838  0.1450
 8546SOL    HW138111   8.366   6.797   6.065 -1.1059  1.7300  0.9382
 8546SOL    HW238112   8.478   6.850   6.171 -2.2640  1.2898  2.4075
 8547SOL     OW38113   4.450   8.254   8.273  0.5364  0.7799 -0.6892
 8547SOL    HW138114   4.468   8.161   8.308 -0.4517  1.3979  1.5694
 8547SOL    HW238115   4.374   8.294   8.324  1.1557  2.9610 -1.4464
 8548SOL     OW38116   2.681   5.577   2.315  0.1076 -0.1406  0.6828
 8548SOL    HW138117   2.653   5.624   2.231 -0.5166  0.2049  1.0818
 8548SOL    HW238118   2.781   5.569   2.317  0.0426 -1.8964 -1.0287
 8549SOL     OW38119   0.382   0.473   6.915 -0.3057  0.1165 -0.4683
 8549SOL    HW138120   0.466   0.526   6.899 -0.8915  0.8560 -1.0903
 8549SOL    HW238121   0.400   0.403   6.985  0.8286  0.2756 -0.5928
 8550SOL     OW38122   8.306   7.485   0.908 -0.2498 -0.2026 -0.5467
 8550SOL    HW138123   8.254   7.557   0.954  0.8248 -0.2045  0.7177
 8550SOL    HW238124   8.359   7.433   0.976  0.8810 -0.6309 -1.7147
 8551SOL     OW38125   7.716   5.341   3.690  0.0325 -0.0864  0.6364
 8551SOL    HW138126   7.816   5.352   3.688  0.0475 -0.1575  0.8886
 8551SOL    HW238127   7.673   5.426   3.661  0.1789 -0.6526 -1.2885
 8552SOL     OW38128   8.172   1.240   0.408  0.3087  0.0595 -0.6668
 8552SOL    HW138129   8.133   1.243   0.500  1.3148 -0.3547 -0.2247
 8552SOL    HW238130   8.157   1.150   0.368 -1.3735  0.6563 -1.4780
 8553SOL     OW38131   5.639   8.809   3.624 -0.5785 -0.2334  0.1692
 8553SOL    HW138132   5.708   8.821   3.553 -0.2048  1.1656  0.7445
 8553SOL    HW238133   5.550   8.793   3.582 -0.0224 -1.3623 -0.5824
 8554SOL     OW38134   3.302   7.018   3.400 -0.0295  0.0201 -0.2736
 8554SOL    HW138135   3.230   7.086   3.412 -1.5773 -1.7484  0.8906
 8554SOL    HW238136   3.262   6.934   3.362  1.5489 -0.7201 -0.3408
 8555SOL     OW38137   6.261   5.913   5.773  0.5711 -0.3652  0.4173
 8555SOL    HW138138   6.292   5.898   5.680  0.7921  1.5045  0.1877
 8555SOL    HW238139   6.186   5.849   5.794  1.5980 -1.8834 -0.4736
 8556SOL     OW38140   0.245   5.847   1.640  0.0827 -0.1750 -0.3128
 8556SOL    HW138141   0.158   5.819   1.682  0.7003 -1.5308  0.0826
 8556SOL    HW238142   0.237   5.942   1.609 -0.6647  0.6232  2.1498
 8557SOL     OW38143   2.266   1.596   1.612 -0.0348 -0.4585  0.1324
 8557SOL    HW138144   2.338   1.527   1.610 -0.2539 -0.8289  2.8481
 8557SOL    HW238145   2.303   1.681   1.648  0.0760  0.7149 -2.6133
 8558SOL     OW38146   1.147   1.063   8.705 -0.6748  0.3262  0.7743
 8558SOL    HW138147   1.070   1.122   8.731 -1.0564  0.1628  0.0166
 8558SOL    HW238148   1.130   0.970   8.738 -1.9325 -0.2659 -1.4257
 8559SOL     OW38149   8.565   2.037   0.218 -0.3048  0.1736  0.3653
 8559SOL    HW138150   8.618   2.007   0.139 -0.8253  1.6210 -0.5557
 8559SOL    HW238151   8.484   2.087   0.187  0.3152  2.1541  1.7984
 8560SOL     OW38152   5.312   6.982   4.632 -0.2676  0.6897 -0.0791
 8560SOL    HW138153   5.342   6.893   4.668  0.6488  1.6361  1.5294
 8560SOL    HW238154   5.254   7.027   4.699 -2.8533  0.2383 -1.9166
 8561SOL     OW38155   7.618   4.785   1.989  0.2232 -0.4391  0.0875
 8561SOL    HW138156   7.620   4.738   2.077  0.9707 -1.5956 -0.5295
 8561SOL    HW238157   7.679   4.738   1.925  0.3635  0.9067 -0.7908
 8562SOL     OW38158   7.556   5.819   8.770  0.3463 -0.5824  0.0450
 8562SOL    HW138159   7.572   5.842   8.674  1.3786 -1.5478 -0.0181
 8562SOL    HW238160   7.575   5.900   8.827 -0.4648  0.0500 -0.5659
 8563SOL     OW38161   6.279   2.710   2.451 -0.0164  0.4817  0.4906
 8563SOL    HW138162   6.301   2.763   2.369  0.8042  1.1220  1.1204
 8563SOL    HW238163   6.207   2.644   2.429 -0.5792  1.3926 -0.4699
 8564SOL     OW38164   2.159   0.327   2.437 -0.8673  0.2309 -0.3961
 8564SOL    HW138165   2.105   0.406   2.468  0.3387  1.6735 -1.9171
 8564SOL    HW238166   2.098   0.258   2.400 -1.9668  0.3015  1.2150
 8565SOL     OW38167   3.253   8.060   1.366 -0.0503  0.2686  0.3438
 8565SOL    HW138168   3.182   7.995   1.391  0.7239 -0.8631 -0.3463
 8565SOL    HW238169   3.338   8.011   1.347  0.8978  1.6034  1.0825
 8566SOL     OW38170   2.044   0.289   8.263 -0.0822  0.2715 -0.6155
 8566SOL    HW138171   1.953   0.312   8.296  0.9407  1.4751  1.4486
 8566SOL    HW238172   2.041   0.200   8.216 -1.8381 -0.8711  1.5858
 8567SOL     OW38173   4.306   3.577   3.862  0.3375  0.2541 -0.3615
 8567SOL    HW138174   4.376   3.552   3.929  0.2654 -1.0050 -0.7397
 8567SOL    HW238175   4.348   3.589   3.772 -0.2474 -3.3462 -1.2257
 8568SOL     OW38176   5.369   7.788   0.293 -0.9294  0.6744  0.0372
 8568SOL    HW138177   5.408   7.806   0.202 -2.6718  1.7450 -0.5231
 8568SOL    HW238178   5.407   7.854   0.358  1.2469 -0.8596  0.3728
 8569SOL     OW38179   8.904   3.217   7.061 -0.2983 -0.4491  0.8212
 8569SOL    HW138180   8.995   3.250   7.036 -0.8346  1.1404  0.8867
 8569SOL    HW238181   8.912   3.137   7.120  1.0374 -1.2780 -0.4459
 8570SOL     OW38182   4.422   8.279   7.391  0.1928 -0.3553  0.1116
 8570SOL    HW138183   4.515   8.244   7.388  0.7721  1.2003 -0.7166
 8570SOL    HW238184   4.395   8.312   7.300 -1.2675 -1.0587  0.2743
 8571SOL     OW38185   6.030   4.020   7.345 -0.2605 -0.2465  0.3188
 8571SOL    HW138186   5.976   4.105   7.348 -0.8902 -0.6696  1.2690
 8571SOL    HW238187   5.968   3.942   7.343  0.3220 -0.6798 -1.2094
 8572SOL     OW38188   4.564   5.375   3.073  0.1641  0.2924 -0.4446
 8572SOL    HW138189   4.579   5.437   3.150  1.4235 -0.7186  0.1417
 8572SOL    HW238190   4.583   5.422   2.987 -0.0185  1.0524 -0.0774
 8573SOL     OW38191   0.096   8.255   8.147  0.0435 -0.1597  0.5181
 8573SOL    HW138192   0.012   8.276   8.197  0.1142 -0.1553  0.6359
 8573SOL    HW238193   0.173   8.305   8.188  0.5644 -2.1183  2.0383
 8574SOL     OW38194   4.668   8.304   2.094 -0.0816 -0.5092 -0.1011
 8574SOL    HW138195   4.757   8.307   2.048 -0.9177  1.8764 -1.6773
 8574SOL    HW238196   4.600   8.264   2.032 -0.7774  0.7608 -0.1767
 8575SOL     OW38197   5.977   1.357   0.228 -0.6764 -0.2836 -0.3589
 8575SOL    HW138198   6.076   1.368   0.216 -0.4305 -2.3502 -0.4083
 8575SOL    HW238199   5.949   1.403   0.313  0.1457  1.1410 -0.8364
 8576SOL     OW38200   2.194   6.374   4.022  0.0412  0.0969 -0.3276
 8576SOL    HW138201   2.119   6.353   4.084  1.6058 -2.5804  0.7502
 8576SOL    HW238202   2.171   6.343   3.930  0.5331 -2.5089  0.3819
 8577SOL     OW38203   2.541   6.993   6.253 -0.1064 -0.1554  0.3638
 8577SOL    HW138204   2.455   6.989   6.201 -0.7860  0.4216  1.4283
 8577SOL    HW238205   2.534   6.933   6.332  0.7548 -0.6741  0.0439
 8578SOL     OW38206   8.056   5.726   7.237  0.2102 -0.1501 -0.3232
 8578SOL    HW138207   8.143   5.683   7.212  1.2676  0.1666  2.5734
 8578SOL    HW238208   7.999   5.660   7.286 -0.5441  0.1043 -0.8458
 8579SOL     OW38209   0.120   4.639   6.750 -0.1919  0.5651 -0.3736
 8579SOL    HW138210   0.170   4.654   6.665 -2.2977  0.0215 -1.7277
 8579SOL    HW238211   0.099   4.542   6.760  1.4339  0.3684  1.5929
 8580SOL     OW38212   2.918   0.183   8.248  0.1469 -0.3883  1.1127
 8580SOL    HW138213   2.897   0.121   8.173 -0.3857 -1.7524  2.3627
 8580SOL    HW238214   2.842   0.186   8.312  0.9637  0.0261  2.0880
 8581SOL     OW38215   8.874   5.860   1.088 -0.4964 -0.2140  0.0518
 8581SOL    HW138216   8.918   5.830   1.173 -1.3235  0.3010  0.6804
 8581SOL    HW238217   8.783   5.820   1.083 -1.9082  2.6810  1.2637
 8582SOL     OW38218   0.808   7.800   5.613  0.0816 -0.0648  0.6465
 8582SOL    HW138219   0.865   7.793   5.532 -0.5293 -1.4092  0.3170
 8582SOL    HW238220   0.734   7.866   5.597  0.4339  0.2788  0.4173
 8583SOL     OW38221   7.022   2.527   3.016 -0.0304 -0.1587 -0.2443
 8583SOL    HW138222   7.105   2.575   2.988  0.2197 -0.9350 -0.8650
 8583SOL    HW238223   7.016   2.525   3.116  0.6660 -0.0370 -0.2014
 8584SOL     OW38224   0.218   5.906   6.918  0.0744 -0.3047 -0.3337
 8584SOL    HW138225   0.302   5.961   6.921  0.0692 -0.1564 -2.3963
 8584SOL    HW238226   0.223   5.835   6.988  1.4344  0.4032  0.3202
 8585SOL     OW38227   8.178   0.410   6.676  0.2381  0.1696  0.3222
 8585SOL    HW138228   8.152   0.426   6.581 -0.9628 -0.4124  0.5445
 8585SOL    HW238229   8.274   0.435   6.689  0.6559 -0.5619 -1.2513
 8586SOL     OW38230   0.218   4.898   5.535  0.2426  0.3387 -0.7255
 8586SOL    HW138231   0.124   4.909   5.503  0.6602  0.4579 -1.9369
 8586SOL    HW238232   0.282   4.918   5.460  1.1863 -3.2644 -0.9771
 8587SOL     OW38233   8.058   4.021   2.353 -0.0661 -0.2399 -0.3828
 8587SOL    HW138234   8.119   4.025   2.274  2.4721  0.1388  1.5326
 8587SOL    HW238235   8.043   3.926   2.378  1.1573 -0.2997  0.1731
 8588SOL     OW38236   5.698   0.446   5.436  0.6416  0.0696 -0.6211
 8588SOL    HW138237   5.665   0.354   5.454  0.9524  0.0353 -0.2175
 8588SOL    HW238238   5.665   0.508   5.508 -0.2091  0.4261 -1.3067
 8589SOL     OW38239   8.637   4.598   7.148  0.0420  0.2995  0.2297
 8589SOL    HW138240   8.664   4.693   7.135 -1.4715  0.8355  0.8644
 8589SOL    HW238241   8.538   4.591   7.144  0.1883 -1.4393 -0.9039
 8590SOL     OW38242   5.952   6.000   8.253 -0.2809  0.3249 -0.0389
 8590SOL    HW138243   5.976   6.061   8.328 -0.8903 -1.9243  2.0214
 8590SOL    HW238244   5.968   5.905   8.280  0.5289 -0.4778 -3.1379
 8591SOL     OW38245   3.954   2.781   3.387  0.0968 -0.1851  0.2661
 8591SOL    HW138246   4.014   2.859   3.403  0.1880 -0.1114 -0.4199
 8591SOL    HW238247   4.009   2.702   3.362  0.3480 -1.5368  4.6870
 8592SOL     OW38248   0.751   6.777   7.797 -0.3258  0.0637 -0.5742
 8592SOL    HW138249   0.849   6.794   7.789  0.1389 -0.4442  3.1848
 8592SOL    HW238250   0.729   6.689   7.754  1.3930 -1.1844  1.0157
 8593SOL     OW38251   0.722   3.840   4.131  0.0211 -1.0743  0.0496
 8593SOL    HW138252   0.692   3.861   4.038  1.2817 -0.3868 -0.2130
 8593SOL    HW238253   0.786   3.763   4.129  0.8839 -0.3758  0.2099
 8594SOL     OW38254   8.967   2.272   0.923  0.3614 -0.0317  0.2321
 8594SOL    HW138255   8.970   2.348   0.989  3.5684 -2.2220  2.7553
 8594SOL    HW238256   8.913   2.197   0.962  0.6831 -0.6322 -0.4720
 8595SOL     OW38257   2.488   0.355   3.551 -0.1590  0.3418  0.5384
 8595SOL    HW138258   2.391   0.374   3.536  0.2125  0.1736 -2.3926
 8595SOL    HW238259   2.509   0.263   3.519  1.1926  0.8215  0.0260
 8596SOL     OW38260   4.337   7.355   6.908 -0.8432  0.3955 -0.4021
 8596SOL    HW138261   4.381   7.351   6.818  0.2111  0.0923  0.1153
 8596SOL    HW238262   4.302   7.447   6.925  0.7518  0.9868 -0.2809
 8597SOL     OW38263   6.269   4.433   8.207 -0.0889 -0.1743 -0.4968
 8597SOL    HW138264   6.247   4.343   8.171 -1.3834 -0.0098 -0.1206
 8597SOL    HW238265   6.200   4.499   8.178 -1.1020 -0.0165  2.1651
 8598SOL     OW38266   6.614   5.145   4.307  0.9760  0.1254  0.6421
 8598SOL    HW138267   6.706   5.180   4.290  1.0651  0.3455  1.5526
 8598SOL    HW238268   6.620   5.053   4.344  0.7396 -0.9224 -1.7846
 8599SOL     OW38269   4.566   5.389   5.361  0.2893  0.0936  0.2552
 8599SOL    HW138270   4.533   5.326   5.291  2.4938  0.2896 -1.0130
 8599SOL    HW238271   4.534   5.481   5.341  1.8808  0.3534 -1.1926
 8600SOL     OW38272   4.507   8.065   2.298 -0.6992  0.4165  0.1916
 8600SOL    HW138273   4.580   8.130   2.321 -0.4844  0.2599 -0.0447
 8600SOL    HW238274   4.424   8.116   2.272 -0.3170  0.6028 -0.6852
 8601SOL     OW38275   2.303   0.438   2.235 -0.3258 -0.3017 -0.0485
 8601SOL    HW138276   2.253   0.391   2.308  1.8843 -1.2211  0.9231
 8601SOL    HW238277   2.311   0.535   2.257  3.1718 -1.1233  2.6483
 8602SOL     OW38278   4.431   8.333   0.971 -0.5207 -0.2168 -0.3725
 8602SOL    HW138279   4.459   8.373   1.058 -0.5507  2.7128 -1.6655
 8602SOL    HW238280   4.494   8.362   0.899 -1.1319 -1.7197 -1.5492
 8603SOL     OW38281   0.445   4.814   8.795  0.0359  0.5128 -0.6661
 8603SOL    HW138282   0.493   4.736   8.835  2.0343  1.5932 -0.9167
 8603SOL    HW238283   0.348   4.792   8.787  0.2822 -1.2803  0.8958
 8604SOL     OW38284   7.780   7.160   2.706 -0.6993  0.2046  0.4601
 8604SOL    HW138285   7.706   7.226   2.715  0.7567  1.8648  0.4438
 8604SOL    HW238286   7.833   7.157   2.791 -1.4981 -1.8897  0.9274
 8605SOL     OW38287   6.262   7.749   0.621  0.3875 -0.8085 -0.3023
 8605SOL    HW138288   6.289   7.845   0.613 -1.2473 -0.4716 -2.0964
 8605SOL    HW238289   6.197   7.739   0.696  0.4605 -0.4815 -0.1933
 8606SOL     OW38290   3.720   1.521   5.612 -0.0819 -0.1119 -0.1463
 8606SOL    HW138291   3.753   1.556   5.525  0.1567 -1.1802 -0.4961
 8606SOL    HW238292   3.790   1.461   5.652 -1.6465 -2.5394 -0.9712
 8607SOL     OW38293   1.079   0.318   5.729 -0.3062 -0.0849 -0.6084
 8607SOL    HW138294   1.158   0.301   5.788  0.2509 -0.1668 -1.3715
 8607SOL    HW238295   1.110   0.337   5.636 -1.1972 -0.3880 -0.9748
 8608SOL     OW38296   1.374   3.877   3.234  0.4416 -0.0250  0.5091
 8608SOL    HW138297   1.339   3.799   3.286  0.7448  0.3293  1.2454
 8608SOL    HW238298   1.299   3.920   3.184 -0.4032  1.3602  2.8921
 8609SOL     OW38299   7.560   1.154   1.006 -0.3392 -0.5850 -0.8610
 8609SOL    HW138300   7.646   1.201   1.025 -1.7194  1.7180 -0.2035
 8609SOL    HW238301   7.566   1.110   0.916  0.9371  0.9731 -1.5625
 8610SOL     OW38302   4.576   5.719   5.042  0.2576  0.1566  0.1849
 8610SOL    HW138303   4.544   5.635   4.997  1.9816 -0.4762  0.0925
 8610SOL    HW238304   4.547   5.718   5.138 -2.0782  0.7634 -0.5048
 8611SOL     OW38305   8.426   8.811   7.268  0.4041 -0.1380  0.0625
 8611SOL    HW138306   8.515   8.774   7.294  0.5651  0.1770 -0.0294
 8611SOL    HW238307   8.414   8.901   7.310  0.7641  0.4795 -1.1260
 8612SOL     OW38308   5.929   7.195   7.021 -0.3022 -0.3951  0.0478
 8612SOL    HW138309   5.970   7.242   6.942 -0.9376 -1.4345 -0.9234
 8612SOL    HW238310   5.943   7.096   7.011  0.6519 -0.4652  1.8521
 8613SOL     OW38311   3.690   8.896   0.514  0.2178 -0.5307  0.5123
 8613SOL    HW138312   3.604   8.946   0.523 -0.9380 -2.1024 -1.2537
 8613SOL    HW238313   3.765   8.960   0.503 -1.2188  0.8655 -1.7067
 8614SOL     OW38314   6.162   4.382   3.907  0.0303  0.4740  0.4899
 8614SOL    HW138315   6.159   4.482   3.907 -2.1494  0.4650 -1.4734
 8614SOL    HW238316   6.138   4.348   3.816  0.0672 -1.8431  1.3115
 8615SOL     OW38317   5.170   2.988   8.532 -0.1578  0.2029  0.7309
 8615SOL    HW138318   5.172   3.085   8.506  0.6947 -0.5395 -2.1231
 8615SOL    HW238319   5.242   2.971   8.600  1.7514  0.9634 -1.0680
 8616SOL     OW38320   0.367   3.212   3.766  0.3096  0.2118  0.4646
 8616SOL    HW138321   0.404   3.258   3.847  0.3438  1.4315 -0.2351
 8616SOL    HW238322   0.438   3.208   3.695 -0.0768  0.1819  0.0821
 8617SOL     OW38323   0.437   8.577   4.767  0.3337 -0.0478  0.1959
 8617SOL    HW138324   0.408   8.645   4.834 -0.3200  1.1899 -1.3447
 8617SOL    HW238325   0.470   8.495   4.816 -3.3472 -0.5432  2.0036
 8618SOL     OW38326   1.925   0.399   5.361  0.6750 -0.2253  0.5680
 8618SOL    HW138327   1.942   0.404   5.459  0.0204 -1.4659  0.7549
 8618SOL    HW238328   1.898   0.306   5.336 -3.0729  0.9631 -0.1477
 8619SOL     OW38329   7.073   7.573   2.393  0.0820  0.0324  0.2474
 8619SOL    HW138330   7.101   7.588   2.298 -0.7184 -1.0051 -0.1651
 8619SOL    HW238331   6.991   7.627   2.412  1.0113  1.2889  0.7675
 8620SOL     OW38332   2.733   7.387   6.949 -0.0430 -0.7498  0.3225
 8620SOL    HW138333   2.832   7.395   6.956 -0.0615 -1.4273  1.5060
 8620SOL    HW238334   2.690   7.456   7.007 -0.2937  0.9869 -1.8710
 8621SOL     OW38335   5.128   2.396   2.007 -0.0692 -0.2917  0.5339
 8621SOL    HW138336   5.174   2.484   2.023 -2.9333  1.6378 -1.2926
 8621SOL    HW238337   5.078   2.369   2.089 -2.1626  1.7185 -0.0201
 8622SOL     OW38338   5.809   4.636   2.314  0.1003 -0.3773  0.4598
 8622SOL    HW138339   5.886   4.580   2.346 -2.8467 -3.1424  3.1504
 8622SOL    HW238340   5.804   4.632   2.214  2.0608 -1.9958  0.3835
 8623SOL     OW38341   4.746   5.023   2.388  0.4438  0.0606 -0.1720
 8623SOL    HW138342   4.666   4.963   2.396 -0.4802  1.2180 -0.6490
 8623SOL    HW238343   4.827   4.967   2.373 -0.0397 -1.2303  1.7789
 8624SOL     OW38344   1.811   0.197   2.077  0.1545  0.1270 -0.1739
 8624SOL    HW138345   1.901   0.232   2.052 -0.4984  1.3829 -0.7876
 8624SOL    HW238346   1.750   0.273   2.098 -0.6175 -0.7403  0.7581
 8625SOL     OW38347   0.855   0.762   8.019  0.0641  0.8550 -0.1605
 8625SOL    HW138348   0.909   0.721   7.946  0.0719  2.0724 -0.8422
 8625SOL    HW238349   0.847   0.860   8.004 -1.7615  0.7913  0.3074
 8626SOL     OW38350   1.324   2.132   8.571  0.8437 -0.5795  0.5205
 8626SOL    HW138351   1.332   2.135   8.671  2.0749 -1.0614  0.4454
 8626SOL    HW238352   1.277   2.048   8.544  1.6556 -1.0792  0.6406
 8627SOL     OW38353   4.829   0.567   7.948 -0.7658 -0.3616  0.0155
 8627SOL    HW138354   4.801   0.574   8.044 -1.0611  1.2923 -0.1861
 8627SOL    HW238355   4.767   0.505   7.900 -1.1022 -0.5640  0.7014
 8628SOL     OW38356   4.767   3.639   3.051 -0.0244  0.6533  0.2645
 8628SOL    HW138357   4.768   3.586   2.967  0.4334  0.5575  0.3314
 8628SOL    HW238358   4.788   3.580   3.128 -1.2948  0.5588  0.5574
 8629SOL     OW38359   3.422   7.137   4.595 -0.0333 -0.0021 -0.4154
 8629SOL    HW138360   3.363   7.145   4.676 -0.5663 -2.0787 -0.5646
 8629SOL    HW238361   3.367   7.151   4.513 -0.5248 -2.5703 -0.5835
 8630SOL     OW38362   5.399   8.434   3.174 -0.0953 -0.1914 -0.2498
 8630SOL    HW138363   5.374   8.531   3.178  1.4818  0.2101  0.3557
 8630SOL    HW238364   5.440   8.406   3.261  2.0485 -0.6553 -1.3839
 8631SOL     OW38365   2.138   2.099   4.911  0.2815  0.4127 -0.0773
 8631SOL    HW138366   2.205   2.141   4.973 -0.7532 -0.5066  1.7144
 8631SOL    HW238367   2.172   2.010   4.881  0.6193  0.6970 -0.5445
 8632SOL     OW38368   7.507   0.745   8.437 -0.7047 -0.5264  0.7899
 8632SOL    HW138369   7.494   0.736   8.535  1.4730 -1.2576  1.0445
 8632SOL    HW238370   7.603   0.726   8.414 -0.8567  1.0304 -1.2998
 8633SOL     OW38371   3.291   6.042   0.242  0.3824 -0.6161 -0.7443
 8633SOL    HW138372   3.229   6.119   0.252  1.6312  0.4242 -0.8252
 8633SOL    HW238373   3.239   5.958   0.229 -0.9832  0.2856 -1.1723
 8634SOL     OW38374   2.628   2.260   6.321  0.5505 -0.0537  0.7661
 8634SOL    HW138375   2.534   2.293   6.311  0.7917  0.3749 -0.1366
 8634SOL    HW238376   2.691   2.324   6.277  1.3942  0.3326  2.5033
 8635SOL     OW38377   8.329   4.733   7.468 -0.2505 -0.2706  0.4306
 8635SOL    HW138378   8.333   4.717   7.567  1.3667  1.9202  0.7417
 8635SOL    HW238379   8.404   4.792   7.440 -0.6913 -0.8556 -2.1346
 8636SOL     OW38380   1.022   1.826   7.368 -0.0148  0.0198  0.0991
 8636SOL    HW138381   0.965   1.833   7.450  1.0328 -1.1266  0.9408
 8636SOL    HW238382   1.109   1.874   7.384  0.3681 -0.5841 -0.1803
 8637SOL     OW38383   2.267   4.098   7.835  0.6088 -0.1827 -0.2274
 8637SOL    HW138384   2.226   4.142   7.914  1.0629  2.3818 -1.3433
 8637SOL    HW238385   2.256   3.999   7.841  1.5550 -0.1081  3.5116
 8638SOL     OW38386   4.320   6.893   8.102 -0.1595 -0.2702  1.0878
 8638SOL    HW138387   4.300   6.968   8.166 -0.7868  0.3587  0.1553
 8638SOL    HW238388   4.414   6.861   8.117  0.6750  1.7806  0.4077
 8639SOL     OW38389   8.308   7.803   7.622  0.4900  0.4554  0.1351
 8639SOL    HW138390   8.276   7.813   7.716 -1.0237  1.2107 -0.4389
 8639SOL    HW238391   8.301   7.891   7.575 -2.9785 -0.8458 -1.9659
 8640SOL     OW38392   4.160   1.648   0.336  0.7388 -0.4064  0.1814
 8640SOL    HW138393   4.087   1.584   0.313 -0.6214  1.2297 -0.1743
 8640SOL    HW238394   4.120   1.738   0.356  2.6347  0.4390  0.2481
 8641SOL     OW38395   4.590   3.357   6.507 -0.0701  0.8268  0.1590
 8641SOL    HW138396   4.560   3.267   6.537  2.2714  0.3543  1.2444
 8641SOL    HW238397   4.516   3.423   6.520 -1.0095 -0.4717  1.6563
 8642SOL     OW38398   0.533   4.626   4.454  0.4534 -0.3453 -0.5210
 8642SOL    HW138399   0.598   4.609   4.528  0.1003 -0.2062 -0.1831
 8642SOL    HW238400   0.574   4.597   4.367  1.3433  0.6594 -0.4335
 8643SOL     OW38401   1.543   6.380   8.105  0.1103 -0.0330 -0.4416
 8643SOL    HW138402   1.571   6.470   8.074 -0.8458  0.0465 -1.1088
 8643SOL    HW238403   1.470   6.345   8.046  1.4436 -1.8555 -1.0502
 8644SOL     OW38404   3.045   4.100   8.031  0.2298 -0.1082 -0.1542
 8644SOL    HW138405   3.117   4.165   8.007  0.7616 -0.2445  1.0576
 8644SOL    HW238406   3.038   4.093   8.130 -0.7480 -0.8837 -0.2716
 8645SOL     OW38407   3.103   0.646   3.328  0.2800  0.6252 -0.5694
 8645SOL    HW138408   3.114   0.687   3.237  3.1300  0.9336 -0.1319
 8645SOL    HW238409   3.099   0.547   3.320 -1.3954  0.7261 -1.1771
 8646SOL     OW38410   8.995   2.556   0.569  0.2966 -0.7910  0.2880
 8646SOL    HW138411   9.050   2.571   0.651  1.1191  1.6917 -0.6743
 8646SOL    HW238412   8.997   2.638   0.511 -0.7853 -2.2561 -1.9209
 8647SOL     OW38413   7.809   7.567   7.900  0.2024 -0.2379  0.0169
 8647SOL    HW138414   7.873   7.496   7.872  0.3922 -0.9790  2.2298
 8647SOL    HW238415   7.814   7.580   7.999 -1.2726  1.4598 -0.0896
 8648SOL     OW38416   8.951   7.526   1.261 -0.6599  0.4608  0.2578
 8648SOL    HW138417   8.908   7.469   1.191 -0.1486  0.3900 -0.0019
 8648SOL    HW238418   8.938   7.622   1.238  0.8850  0.4291 -0.7881
 8649SOL     OW38419   1.976   2.852   6.900  0.1385  0.2822 -0.0583
 8649SOL    HW138420   1.936   2.817   6.816 -1.4323  0.2886  0.6669
 8649SOL    HW238421   2.038   2.928   6.878 -1.9997  1.7982 -1.0494
 8650SOL     OW38422   1.594   1.059   2.759  0.2901  0.2240  0.0467
 8650SOL    HW138423   1.628   0.970   2.727  0.7564  0.0623  0.9589
 8650SOL    HW238424   1.531   1.045   2.835  0.2617  0.6640  0.1040
 8651SOL     OW38425   2.476   6.292   4.093  0.1703  0.0352 -0.0603
 8651SOL    HW138426   2.504   6.274   4.187  1.2262  0.5684 -0.2591
 8651SOL    HW238427   2.377   6.293   4.086  0.0953 -0.2978  0.9895
 8652SOL     OW38428   7.039   6.265   4.542 -0.1017 -0.1208  0.1637
 8652SOL    HW138429   7.030   6.355   4.499 -2.0275 -0.2598  0.2145
 8652SOL    HW238430   6.948   6.230   4.564  0.5987 -2.3136 -0.3380
 8653SOL     OW38431   0.571   0.024   0.619 -0.5256 -0.0778 -1.1047
 8653SOL    HW138432   0.482   0.069   0.618 -0.9554 -0.8891 -0.0099
 8653SOL    HW238433   0.617   0.039   0.531 -2.6292 -1.4561 -2.4842
 8654SOL     OW38434   6.412   6.376   0.871  0.3208 -0.4009 -0.2728
 8654SOL    HW138435   6.433   6.279   0.884  0.2890 -0.5958 -1.6317
 8654SOL    HW238436   6.494   6.425   0.842  0.2047 -0.1142 -0.1272
 8655SOL     OW38437   2.020   0.884   7.499 -0.1181 -0.8293  0.6462
 8655SOL    HW138438   1.971   0.811   7.547  0.5626 -1.1999  0.7917
 8655SOL    HW238439   2.070   0.939   7.566 -1.1676  0.1912  0.6027
 8656SOL     OW38440   5.975   7.319   0.956 -0.1870 -0.0999 -0.3230
 8656SOL    HW138441   5.927   7.243   0.912  0.2669 -0.8126  0.4179
 8656SOL    HW238442   5.908   7.386   0.988 -0.5457  0.2434 -1.7412
 8657SOL     OW38443   1.618   3.906   4.056 -0.4655 -0.1004  0.2564
 8657SOL    HW138444   1.620   3.806   4.053 -0.2032 -0.0689 -0.8410
 8657SOL    HW238445   1.525   3.937   4.073 -0.8800 -0.5109 -1.1629
 8658SOL     OW38446   2.549   1.447   4.364  0.3651 -0.0748 -0.3839
 8658SOL    HW138447   2.646   1.424   4.361  0.0244 -1.5666 -0.7624
 8658SOL    HW238448   2.524   1.478   4.455  0.9510 -0.8658  0.0517
 8659SOL     OW38449   6.006   5.893   0.872  0.1053  0.2884  0.1158
 8659SOL    HW138450   5.981   5.847   0.787  1.4481  0.6032 -0.4551
 8659SOL    HW238451   6.041   5.984   0.852 -2.3088  1.5108  1.2203
 8660SOL     OW38452   1.951   4.615   2.572  0.5898 -0.5029  0.0406
 8660SOL    HW138453   2.000   4.576   2.494  0.2568  1.4321 -1.1643
 8660SOL    HW238454   1.854   4.625   2.550  0.0771 -2.0485  1.5371
 8661SOL     OW38455   1.881   1.815   6.428 -0.2029 -0.1482  0.0094
 8661SOL    HW138456   1.807   1.830   6.363  0.7512  0.7737 -0.8691
 8661SOL    HW238457   1.935   1.735   6.400  0.0602  0.0996 -0.1818
 8662SOL     OW38458   3.861   6.733   3.523 -0.6274  0.6868  0.0408
 8662SOL    HW138459   3.841   6.636   3.510  1.4636  0.1624  0.4562
 8662SOL    HW238460   3.867   6.754   3.620 -0.4754  1.0924 -0.0503
 8663SOL     OW38461   1.144   5.394   6.759  0.3134  0.3575 -0.1063
 8663SOL    HW138462   1.200   5.475   6.776 -1.1884  1.0066  1.9432
 8663SOL    HW238463   1.192   5.333   6.696  2.7671  1.4479  0.6420
 8664SOL     OW38464   7.563   7.337   2.698  0.3932  0.1054  0.4496
 8664SOL    HW138465   7.570   7.404   2.624  0.4503 -0.2201  0.1571
 8664SOL    HW238466   7.468   7.329   2.727  0.0863 -1.0819 -0.8239
 8665SOL     OW38467   4.701   8.539   1.806 -1.3468  0.6244  0.0386
 8665SOL    HW138468   4.754   8.487   1.739  1.1899  0.0839  2.3626
 8665SOL    HW238469   4.606   8.507   1.805 -0.2090 -3.0428  0.2857
 8666SOL     OW38470   6.725   6.621   6.242  0.2691  0.5516  0.6176
 8666SOL    HW138471   6.729   6.530   6.200 -0.1330  1.1013 -0.6382
 8666SOL    HW238472   6.807   6.635   6.298 -0.6686 -1.3874  2.5402
 8667SOL     OW38473   8.283   1.206   4.107  0.1460  0.7192 -0.0810
 8667SOL    HW138474   8.372   1.162   4.099 -0.4846 -0.5325 -0.5421
 8667SOL    HW238475   8.223   1.149   4.163 -0.7482  0.9084 -0.8365
 8668SOL     OW38476   8.343   7.056   3.884 -0.0616  0.1557  0.2815
 8668SOL    HW138477   8.422   7.015   3.930 -0.0563 -0.9001 -0.6461
 8668SOL    HW238478   8.373   7.134   3.829  0.0848  0.7736  1.2259
 8669SOL     OW38479   6.544   3.058   8.892 -0.6961  0.4744 -0.1396
 8669SOL    HW138480   6.558   3.100   8.982 -2.5704 -2.6011  1.6959
 8669SOL    HW238481   6.603   2.978   8.883 -0.5308  0.7552 -1.6597
 8670SOL     OW38482   0.939   8.549   6.566 -0.2700  0.2604  0.2799
 8670SOL    HW138483   1.028   8.520   6.532 -0.2858 -0.2323  0.6691
 8670SOL    HW238484   0.871   8.479   6.548 -0.2258 -0.1259  1.5732
 8671SOL     OW38485   5.022   3.490   8.747  0.4765 -0.1499  0.1667
 8671SOL    HW138486   5.053   3.417   8.809  0.2612  0.4118  0.9502
 8671SOL    HW238487   5.014   3.576   8.798 -1.5198 -0.0872 -0.2098
 8672SOL     OW38488   4.353   4.884   3.136  0.2101 -0.2319 -0.3112
 8672SOL    HW138489   4.314   4.798   3.101  0.4667 -0.1020 -0.9301
 8672SOL    HW238490   4.409   4.926   3.064  0.8199  0.0002  0.2973
 8673SOL     OW38491   8.278   6.990   2.873 -0.1645 -0.1232 -0.4000
 8673SOL    HW138492   8.194   6.960   2.827  0.3344 -1.7231 -0.3048
 8673SOL    HW238493   8.312   7.074   2.831  1.3748 -2.5940 -4.2771
 8674SOL     OW38494   5.228   2.638   2.059 -0.0991  0.4191 -0.2518
 8674SOL    HW138495   5.250   2.665   2.153  1.1127  1.4062 -0.7937
 8674SOL    HW238496   5.204   2.719   2.006 -1.6994 -0.2502 -0.5733
 8675SOL     OW38497   3.794   4.200   8.520  0.3948 -0.3457  0.0932
 8675SOL    HW138498   3.760   4.142   8.594 -0.6690 -1.7401 -1.4469
 8675SOL    HW238499   3.726   4.204   8.447  1.7080  0.4415 -1.1153
 8676SOL     OW38500   2.662   4.146   1.075 -0.3893  0.1637  0.2058
 8676SOL    HW138501   2.644   4.068   1.015  0.8771  0.0004  0.0305
 8676SOL    HW238502   2.622   4.128   1.165 -1.3577 -0.0535 -0.2539
 8677SOL     OW38503   8.506   6.208   5.713 -0.7534 -0.2171 -0.4288
 8677SOL    HW138504   8.418   6.168   5.740 -0.6460  0.4289  0.9158
 8677SOL    HW238505   8.566   6.211   5.793 -0.4735  1.8947 -0.7100
 8678SOL     OW38506   4.371   6.064   5.201  0.1311 -0.4389  0.3433
 8678SOL    HW138507   4.452   6.115   5.230 -0.1859 -0.1275  0.6768
 8678SOL    HW238508   4.383   6.033   5.107  0.1310  0.6386 -0.0127
 8679SOL     OW38509   6.879   7.359   3.097  0.3158 -0.1195  0.2258
 8679SOL    HW138510   6.789   7.320   3.078  0.3224  0.1880 -0.4416
 8679SOL    HW238511   6.871   7.429   3.168 -0.2893  1.3022 -1.2272
 8680SOL     OW38512   6.777   7.411   2.619 -0.3596  0.3845 -0.1744
 8680SOL    HW138513   6.773   7.347   2.543  1.1281  2.6176 -2.2383
 8680SOL    HW238514   6.838   7.377   2.689 -1.0880 -1.3221 -0.3592
 8681SOL     OW38515   4.167   0.126   3.202 -0.1231 -0.2194 -0.0556
 8681SOL    HW138516   4.136   0.055   3.265  0.5795 -1.1249 -0.7285
 8681SOL    HW238517   4.252   0.166   3.237  0.0885 -0.4898 -0.2673
 8682SOL     OW38518   6.383   8.959   8.409  0.4716 -0.2177  0.1343
 8682SOL    HW138519   6.296   8.995   8.375 -0.0986 -1.9709 -0.2888
 8682SOL    HW238520   6.385   8.860   8.398  2.1478 -0.2981  1.0166
 8683SOL     OW38521   2.369   4.840   0.078  0.2669 -0.0658 -0.2300
 8683SOL    HW138522   2.427   4.835  -0.004  0.3231  1.2843 -0.2705
 8683SOL    HW238523   2.427   4.848   0.159  0.1647  0.2506 -0.1887
 8684SOL     OW38524   1.496   0.864   8.527  0.4533  0.1614  0.3027
 8684SOL    HW138525   1.521   0.771   8.502  0.1191  0.2208 -0.2689
 8684SOL    HW238526   1.461   0.866   8.620  0.6988 -0.2426  0.4050
 8685SOL     OW38527   4.554   7.368   0.450  0.0658 -0.9864 -0.8483
 8685SOL    HW138528   4.467   7.359   0.401  0.0798 -0.7890 -0.9081
 8685SOL    HW238529   4.566   7.289   0.510 -0.6214 -0.5248 -0.0951
 8686SOL     OW38530   0.601   6.036   0.959  0.0960  0.2529 -0.9347
 8686SOL    HW138531   0.679   6.044   0.898  0.2548 -0.5771 -0.8537
 8686SOL    HW238532   0.610   6.100   1.035  1.9984 -1.5931  0.4646
 8687SOL     OW38533   8.473   4.397   6.992 -0.3660  0.4484 -0.1951
 8687SOL    HW138534   8.461   4.318   6.932 -1.2922  1.4870 -1.4000
 8687SOL    HW238535   8.571   4.411   7.010 -0.1025 -0.0549 -1.2162
 8688SOL     OW38536   6.577   3.259   0.783 -0.1816 -0.8684 -0.0285
 8688SOL    HW138537   6.489   3.214   0.770  0.4448 -1.7090 -1.4202
 8688SOL    HW238538   6.651   3.198   0.754  0.8806 -0.1932  1.1567
 8689SOL     OW38539   6.049   3.334   7.007  0.2249  0.1673  0.3301
 8689SOL    HW138540   5.994   3.258   7.044 -1.2885  1.4938  0.8738
 8689SOL    HW238541   6.132   3.345   7.061 -0.6607  0.3513  1.6749
 8690SOL     OW38542   3.924   3.520   1.779  0.4227 -0.5027 -0.4031
 8690SOL    HW138543   3.987   3.597   1.783  0.6920 -0.7934  1.4814
 8690SOL    HW238544   3.830   3.554   1.786  0.5476 -0.3409  0.5912
 8691SOL     OW38545   5.582   8.742   0.116  0.6089 -0.1117 -0.3196
 8691SOL    HW138546   5.575   8.763   0.019  0.0106  0.7795 -0.0884
 8691SOL    HW238547   5.506   8.682   0.142 -0.2888  1.1336 -0.0217
 8692SOL     OW38548   2.951   1.467   7.222 -0.3867 -0.1194  0.3431
 8692SOL    HW138549   2.954   1.566   7.217  0.2679 -0.0864  1.2747
 8692SOL    HW238550   2.856   1.437   7.230 -0.7654  0.2967 -2.0699
 8693SOL     OW38551   0.731   4.121   3.628 -0.1765  0.5223  0.2481
 8693SOL    HW138552   0.659   4.052   3.636 -0.1060  0.4985  0.7255
 8693SOL    HW238553   0.797   4.094   3.559  0.3471 -0.3427  1.0713
 8694SOL     OW38554   4.024   7.280   7.480 -0.1655 -0.1122  0.5072
 8694SOL    HW138555   3.992   7.302   7.572  1.7081  0.0695  1.1447
 8694SOL    HW238556   4.041   7.182   7.473  1.6442  0.1337  1.0349
 8695SOL     OW38557   8.065   1.652   0.014 -0.0808  0.1945  0.4371
 8695SOL    HW138558   8.075   1.565  -0.034  0.0151 -1.0271  2.6010
 8695SOL    HW238559   7.981   1.651   0.068 -0.2365  1.5601  0.2385
 8696SOL     OW38560   2.111   2.178   2.340  0.1000  0.5730  0.1574
 8696SOL    HW138561   2.044   2.147   2.272  0.0541  0.8845  0.0561
 8696SOL    HW238562   2.110   2.116   2.418 -1.7920  1.7018  1.0766
 8697SOL     OW38563   1.781   5.669   4.818  0.4791 -0.7119 -0.2615
 8697SOL    HW138564   1.788   5.748   4.756 -1.3790 -0.2205  0.1406
 8697SOL    HW238565   1.821   5.693   4.906 -2.2206  0.6471  0.6558
 8698SOL     OW38566   7.581   1.218   7.538 -0.0927  0.1047 -0.1261
 8698SOL    HW138567   7.586   1.316   7.522 -0.9588 -0.1032 -1.8116
 8698SOL    HW238568   7.583   1.169   7.451  0.0188 -1.3543  0.6704
 8699SOL     OW38569   3.415   6.934   6.979 -0.1944  0.2594  0.0263
 8699SOL    HW138570   3.408   6.996   6.901 -1.9195  0.6618  0.4662
 8699SOL    HW238571   3.394   6.840   6.950 -5.0060  0.9827  0.6933
 8700SOL     OW38572   5.952   0.264   8.328  0.3334 -0.4030 -0.1574
 8700SOL    HW138573   5.913   0.356   8.337  3.2507  0.8109  0.6583
 8700SOL    HW238574   5.901   0.212   8.259 -1.1735  1.9271 -0.8330
 8701SOL     OW38575   3.308   4.952   4.450 -0.1198  0.0163 -0.2648
 8701SOL    HW138576   3.366   4.905   4.517  1.1454  1.0154 -0.6444
 8701SOL    HW238577   3.302   4.898   4.367  1.0790  0.3643 -0.5862
 8702SOL     OW38578   5.250   1.106   8.153 -0.5734  0.2816  0.2997
 8702SOL    HW138579   5.248   1.122   8.252 -0.5827  1.0867  0.1717
 8702SOL    HW238580   5.163   1.134   8.113 -1.1116 -1.3667  0.2518
 8703SOL     OW38581   4.646   3.284   6.823 -0.0052  0.1718 -0.5005
 8703SOL    HW138582   4.713   3.340   6.872 -0.9372 -0.4082  1.4683
 8703SOL    HW238583   4.568   3.340   6.798 -0.2408  0.1220  0.1041
 8704SOL     OW38584   3.750   3.506   3.179 -0.5632  0.4309 -0.1750
 8704SOL    HW138585   3.661   3.529   3.141 -0.5906  0.6609  0.0304
 8704SOL    HW238586   3.807   3.463   3.108 -0.1857  1.9465 -0.7993
 8705SOL     OW38587   1.925   2.634   8.545  0.0812  0.2696  0.5884
 8705SOL    HW138588   1.941   2.605   8.451 -0.4401  0.1062  0.5516
 8705SOL    HW238589   1.915   2.554   8.604  0.5621  0.3711  0.8117
 8706SOL     OW38590   1.842   4.826   8.509  0.9390 -0.1890  1.0132
 8706SOL    HW138591   1.866   4.920   8.534 -0.5158  0.3746  0.3722
 8706SOL    HW238592   1.852   4.814   8.410  1.0844 -0.6977  1.0893
 8707SOL     OW38593   3.475   3.459   3.589 -0.8717  0.1694  0.8240
 8707SOL    HW138594   3.450   3.368   3.623 -0.2295 -0.5459 -0.6052
 8707SOL    HW238595   3.573   3.474   3.602 -1.1035  0.9445  1.7089
 8708SOL     OW38596   2.517   2.238   1.107 -0.4109  0.4195  0.1842
 8708SOL    HW138597   2.590   2.294   1.066 -0.0686  2.2784  3.1999
 8708SOL    HW238598   2.428   2.277   1.084 -0.4025 -0.6647 -1.7836
 8709SOL     OW38599   7.706   3.432   0.726  0.2188  0.9653  0.3325
 8709SOL    HW138600   7.675   3.510   0.780 -1.4820 -0.1191  0.9926
 8709SOL    HW238601   7.695   3.348   0.779 -1.2301 -0.0967 -1.5596
 8710SOL     OW38602   0.440   4.262   1.272 -0.1241 -0.1370 -0.2843
 8710SOL    HW138603   0.386   4.178   1.264 -0.1915 -0.2058  0.7922
 8710SOL    HW238604   0.478   4.268   1.365 -1.4465  1.8279  0.1521
 8711SOL     OW38605   3.179   2.201   7.899 -0.2542 -0.5078 -0.1366
 8711SOL    HW138606   3.248   2.137   7.864  0.7627 -0.0274  0.9177
 8711SOL    HW238607   3.089   2.159   7.894  0.2531 -1.5789 -0.5481
 8712SOL     OW38608   5.666   2.565   1.600  0.1723  0.2496  0.3687
 8712SOL    HW138609   5.694   2.470   1.584  1.8145  0.9035 -0.8052
 8712SOL    HW238610   5.726   2.607   1.668  0.9239  1.1074 -0.7910
 8713SOL     OW38611   5.185   1.732   2.206  0.0602  0.7218  0.8980
 8713SOL    HW138612   5.193   1.635   2.231 -0.3043  0.4703  0.0610
 8713SOL    HW238613   5.276   1.768   2.187  0.1367  0.3672  0.5791
 8714SOL     OW38614   2.155   0.724   3.945 -0.0288  0.2464 -0.2817
 8714SOL    HW138615   2.148   0.785   4.024 -0.4567 -1.2885  0.8972
 8714SOL    HW238616   2.242   0.740   3.899  1.1495 -0.2274  1.7020
 8715SOL     OW38617   1.555   5.642   6.376 -0.3970 -0.1046 -0.1576
 8715SOL    HW138618   1.534   5.706   6.303 -1.8378 -0.6766 -0.2488
 8715SOL    HW238619   1.508   5.669   6.459  0.2532 -0.1624  0.2360
 8716SOL     OW38620   6.037   8.635   2.677 -0.3548 -0.3705  0.7212
 8716SOL    HW138621   6.123   8.605   2.719 -0.3735 -2.5445 -0.7170
 8716SOL    HW238622   6.015   8.727   2.708  1.5156 -0.5243  2.5822
 8717SOL     OW38623   7.306   4.685   0.118 -0.0844 -0.3332 -0.3175
 8717SOL    HW138624   7.257   4.677   0.031 -1.3684  0.8812  0.2791
 8717SOL    HW238625   7.267   4.621   0.184 -1.2926  1.0662  0.3411
 8718SOL     OW38626   0.793   7.934   5.900  0.0324 -0.2957  0.1060
 8718SOL    HW138627   0.881   7.886   5.909 -0.4994 -1.3619 -0.3516
 8718SOL    HW238628   0.776   7.954   5.804 -0.1673  0.0370  0.2115
 8719SOL     OW38629   2.258   2.831   0.734  0.5765  0.5239  0.6315
 8719SOL    HW138630   2.203   2.914   0.740  2.2050  1.6273  0.6736
 8719SOL    HW238631   2.198   2.751   0.727 -1.0420  1.5189  2.7278
 8720SOL     OW38632   5.956   6.014   2.515 -0.4488 -0.1616 -0.0060
 8720SOL    HW138633   5.947   6.113   2.512  1.7658  0.1242  1.8323
 8720SOL    HW238634   5.941   5.976   2.423  2.6786  2.2298 -1.5713
 8721SOL     OW38635   7.903   5.822   5.002 -0.1755 -0.2833  0.0430
 8721SOL    HW138636   7.949   5.901   4.961 -0.0848 -1.1163 -1.4620
 8721SOL    HW238637   7.829   5.854   5.061 -1.0161  0.8754 -1.6313
 8722SOL     OW38638   8.178   7.310   0.771  0.1518 -0.4526  0.3457
 8722SOL    HW138639   8.244   7.364   0.823  1.0049  0.1990 -1.3979
 8722SOL    HW238640   8.140   7.365   0.697  0.7762 -2.1171 -1.2492
 8723SOL     OW38641   1.397   4.355   4.475 -0.1720 -0.1145  0.3686
 8723SOL    HW138642   1.331   4.333   4.546 -0.3810  0.7902  0.4645
 8723SOL    HW238643   1.488   4.362   4.515 -0.1610 -0.4320  0.4000
 8724SOL     OW38644   8.848   7.797   7.667  0.5450  0.2176 -0.0461
 8724SOL    HW138645   8.884   7.792   7.574  1.8033  1.6255  0.3381
 8724SOL    HW238646   8.758   7.753   7.671  0.7838 -0.4544 -1.7623
 8725SOL     OW38647   5.502   7.845   0.060 -0.5405 -0.2550  0.0614
 8725SOL    HW138648   5.545   7.917   0.114 -3.0849 -1.7355  4.3762
 8725SOL    HW238649   5.431   7.884   0.002  2.1565  1.3596 -2.2835
 8726SOL     OW38650   3.792   4.099   5.433 -0.6064 -0.1433 -0.3507
 8726SOL    HW138651   3.749   4.026   5.380 -1.3973 -0.3820  0.5977
 8726SOL    HW238652   3.891   4.093   5.423 -0.7553  0.1239 -2.1978
 8727SOL     OW38653   2.025   7.220   0.190  0.0278  0.6124  0.0779
 8727SOL    HW138654   1.948   7.255   0.137  0.1588  0.2156 -0.3752
 8727SOL    HW238655   2.036   7.122   0.173  0.2762  0.5467  0.5824
 8728SOL     OW38656   2.496   5.567   1.832 -0.4049  0.5224  0.0964
 8728SOL    HW138657   2.500   5.541   1.736 -0.7412  0.7776  0.0134
 8728SOL    HW238658   2.412   5.617   1.850  0.0366  1.1747  0.3522
 8729SOL     OW38659   1.572   7.858   3.953 -0.5815 -0.5664 -0.1671
 8729SOL    HW138660   1.493   7.856   4.014 -1.7606 -0.9417 -1.6870
 8729SOL    HW238661   1.578   7.948   3.909  0.6974 -0.0435  1.0259
 8730SOL     OW38662   3.869   1.329   5.775  0.2148 -0.7514  0.4608
 8730SOL    HW138663   3.884   1.387   5.856 -2.0356 -0.3192  0.5887
 8730SOL    HW238664   3.806   1.255   5.799  1.2116 -1.8854 -0.3557
 8731SOL     OW38665   3.645   6.472   4.604 -0.1082 -0.0460 -0.1937
 8731SOL    HW138666   3.663   6.535   4.680  0.6952 -0.1664 -0.2749
 8731SOL    HW238667   3.647   6.378   4.638  0.4080 -0.1084 -0.3876
 8732SOL     OW38668   0.939   3.104   4.282 -0.1559  0.6778 -0.9979
 8732SOL    HW138669   0.984   3.052   4.208 -1.0984  0.0088 -1.1143
 8732SOL    HW238670   0.874   3.168   4.243  1.2760  2.2280 -0.8669
 8733SOL     OW38671   6.613   5.224   5.789 -0.7810  0.1163 -0.1625
 8733SOL    HW138672   6.570   5.161   5.853 -1.8015 -2.3120 -3.1404
 8733SOL    HW238673   6.547   5.292   5.758  0.0214  2.0380  2.1690
 8734SOL     OW38674   5.578   3.416   8.372 -0.3590 -0.1600  0.1229
 8734SOL    HW138675   5.641   3.359   8.426  0.1729 -2.2141 -2.5685
 8734SOL    HW238676   5.489   3.372   8.367  0.4002 -1.4884 -3.0133
 8735SOL     OW38677   5.738   4.014   0.926 -0.6474 -0.2847  0.3890
 8735SOL    HW138678   5.763   4.057   0.839 -1.1594 -0.3058  0.2295
 8735SOL    HW238679   5.812   3.953   0.956 -0.0372  0.4974  0.4790
 8736SOL     OW38680   5.224   4.119   6.718  0.0185 -0.8319 -0.4616
 8736SOL    HW138681   5.167   4.079   6.646  0.6057 -0.2965 -1.2279
 8736SOL    HW238682   5.306   4.064   6.730  0.6483 -0.0938 -1.2597
 8737SOL     OW38683   0.267   8.616   8.015  0.6599  0.0195 -0.0327
 8737SOL    HW138684   0.256   8.524   7.978  2.1860  0.5884 -1.9828
 8737SOL    HW238685   0.220   8.681   7.957  1.0769  0.6591  0.3411
 8738SOL     OW38686   5.320   6.579   0.422  0.1126  0.0045 -0.2341
 8738SOL    HW138687   5.346   6.550   0.330 -0.6849  0.9490 -0.7723
 8738SOL    HW238688   5.234   6.631   0.417  0.1297  0.1626  1.0280
 8739SOL     OW38689   4.836   7.802   1.363  0.1458 -0.3411 -0.2517
 8739SOL    HW138690   4.887   7.750   1.431 -0.2168  1.0070  1.0743
 8739SOL    HW238691   4.752   7.753   1.339  0.4337 -0.9745  0.0414
 8740SOL     OW38692   4.796   7.493   7.928  0.0946 -0.5387  0.1025
 8740SOL    HW138693   4.785   7.416   7.865  0.5539  1.3171 -2.3126
 8740SOL    HW238694   4.890   7.494   7.963  0.1499 -0.9577 -0.0338
 8741SOL     OW38695   8.424   6.844   8.683 -0.0380  0.1479  0.0410
 8741SOL    HW138696   8.453   6.759   8.639 -0.3082  0.7892 -1.4090
 8741SOL    HW238697   8.500   6.908   8.686 -0.4490  0.6920 -0.9563
 8742SOL     OW38698   2.486   3.673   6.793  0.3071  0.5690  0.7577
 8742SOL    HW138699   2.564   3.613   6.810  1.9136  2.4621  0.2587
 8742SOL    HW238700   2.475   3.688   6.695 -2.0808 -1.4273  0.6650
 8743SOL     OW38701   1.115   5.701   2.653  0.2566  0.0222  0.1141
 8743SOL    HW138702   1.088   5.737   2.564  0.5500 -0.6697 -0.2598
 8743SOL    HW238703   1.096   5.603   2.657  0.9111 -0.0938  0.5468
 8744SOL     OW38704   2.080   0.934   0.970 -0.1963 -0.2935 -0.1871
 8744SOL    HW138705   2.124   0.851   1.004 -0.1901  0.1060  0.7901
 8744SOL    HW238706   2.150   1.003   0.952 -0.3955  0.2531  1.1192
 8745SOL     OW38707   2.152   2.508   1.711  0.4408  0.3622  0.8665
 8745SOL    HW138708   2.145   2.587   1.650  2.8630  0.3840  0.5485
 8745SOL    HW238709   2.119   2.533   1.802 -0.0259  1.3383  0.4358
 8746SOL     OW38710   7.400   0.421   0.632  0.1492  0.1853  0.8785
 8746SOL    HW138711   7.425   0.325   0.616 -1.3741 -0.1157  0.2323
 8746SOL    HW238712   7.356   0.429   0.722 -2.5483 -0.2842 -0.3603
 8747SOL     OW38713   0.040   4.640   1.064 -0.3038  0.1125 -0.2394
 8747SOL    HW138714  -0.047   4.687   1.076 -0.4727  0.0521 -1.1596
 8747SOL    HW238715   0.099   4.656   1.143 -0.8650  0.7796  0.0419
 8748SOL     OW38716   7.007   8.225   6.800 -0.2067  0.0701 -0.4025
 8748SOL    HW138717   6.954   8.146   6.832 -1.5688  1.2838  0.3687
 8748SOL    HW238718   6.991   8.239   6.703 -1.4730  0.5538 -0.1286
 8749SOL     OW38719   0.001   4.352   6.431  0.0994  0.4005 -0.2592
 8749SOL    HW138720  -0.043   4.289   6.367 -0.2265 -1.5039  1.7335
 8749SOL    HW238721   0.100   4.351   6.415 -0.2061  1.9484 -2.4060
 8750SOL     OW38722   5.464   3.775   0.632 -0.2368 -0.0116  0.2677
 8750SOL    HW138723   5.511   3.862   0.615  0.0985  0.0324  1.3785
 8750SOL    HW238724   5.498   3.707   0.568  0.5536  0.3098  0.3360
 8751SOL     OW38725   0.268   6.747   3.803  0.0402  0.4344  0.1510
 8751SOL    HW138726   0.323   6.689   3.863 -0.8295  0.5135  1.0416
 8751SOL    HW238727   0.228   6.691   3.730 -1.3511 -0.2388  1.3986
 8752SOL     OW38728   5.954   5.323   0.097  0.1361 -0.1968 -0.5490
 8752SOL    HW138729   5.944   5.282   0.006  0.0950  0.0468 -0.6535
 8752SOL    HW238730   5.878   5.385   0.115 -0.9018 -1.7079  0.4282
 8753SOL     OW38731   7.624   1.721   7.831 -0.1809  0.2406 -0.4034
 8753SOL    HW138732   7.549   1.727   7.764  0.9026  2.8479 -1.4551
 8753SOL    HW238733   7.616   1.796   7.897  1.1071  0.1637 -0.1439
 8754SOL     OW38734   0.405   4.728   6.028 -0.6897 -0.8962  0.1125
 8754SOL    HW138735   0.358   4.759   5.946  1.7825  1.3193 -0.5540
 8754SOL    HW238736   0.502   4.711   6.007  0.2623  0.8665  2.7471
 8755SOL     OW38737   2.407   1.454   3.402 -0.0670 -0.0605 -0.7355
 8755SOL    HW138738   2.445   1.413   3.485 -0.0085  3.9809  1.3632
 8755SOL    HW238739   2.480   1.469   3.336  0.9139  1.7366  0.7163
 8756SOL     OW38740   8.001   2.040   2.070  0.5578  0.3162 -0.0756
 8756SOL    HW138741   7.958   2.125   2.039  2.0923  0.3738 -2.2210
 8756SOL    HW238742   7.931   1.974   2.095 -0.6628  2.0728  1.2424
 8757SOL     OW38743   6.362   5.620   8.554  0.1713  0.0060  0.1442
 8757SOL    HW138744   6.394   5.658   8.640 -0.3571 -0.1865  0.4263
 8757SOL    HW238745   6.440   5.597   8.496  0.5691 -1.3299  1.1937
 8758SOL     OW38746   5.694   1.734   0.926 -0.3703 -0.2934  1.0193
 8758SOL    HW138747   5.647   1.657   0.969 -2.8330  1.2883  1.2453
 8758SOL    HW238748   5.752   1.779   0.994 -0.1466 -0.9944  1.2984
 8759SOL     OW38749   5.782   5.800   6.502 -0.5317  0.4404  0.4667
 8759SOL    HW138750   5.751   5.715   6.545  1.2768 -0.2945  0.3471
 8759SOL    HW238751   5.740   5.808   6.411 -0.7820 -0.2930  0.5109
 8760SOL     OW38752   4.709   8.621   5.378 -0.2023 -0.0847  0.2934
 8760SOL    HW138753   4.797   8.668   5.371  1.3403 -2.7695  0.8743
 8760SOL    HW238754   4.713   8.553   5.451 -1.7496 -2.3446 -1.6141
 8761SOL     OW38755   8.726   2.802   8.408 -1.0096 -0.4861  0.0974
 8761SOL    HW138756   8.754   2.781   8.314  0.8358 -2.8225  1.1050
 8761SOL    HW238757   8.709   2.717   8.457 -1.2531  0.6823  2.0939
 8762SOL     OW38758   0.470   2.542   3.589  0.4608  0.4808 -0.4332
 8762SOL    HW138759   0.454   2.615   3.656  0.8892  0.0455  0.1411
 8762SOL    HW238760   0.523   2.578   3.512 -3.0762  1.9511 -2.3389
 8763SOL     OW38761   1.363   8.617   7.328 -0.1723 -0.1778  0.2257
 8763SOL    HW138762   1.264   8.604   7.332 -0.5903  2.2130 -1.5810
 8763SOL    HW238763   1.388   8.696   7.384  0.5012  0.2031 -0.6065
 8764SOL     OW38764   5.826   6.531   1.708 -0.1863 -0.3760  0.4223
 8764SOL    HW138765   5.899   6.488   1.761  0.5611 -0.2190 -0.4515
 8764SOL    HW238766   5.834   6.502   1.612 -1.8681 -1.1282  0.4867
 8765SOL     OW38767   4.156   5.963   5.403  0.3830  0.6807  0.0293
 8765SOL    HW138768   4.210   5.966   5.319  0.9682  1.6864  0.4379
 8765SOL    HW238769   4.164   5.872   5.444  1.0431  0.5415 -0.3914
 8766SOL     OW38770   0.957   8.983   8.012  0.9747  0.4477 -0.1333
 8766SOL    HW138771   0.894   9.058   8.030  0.3346  0.0351 -0.6498
 8766SOL    HW238772   0.990   8.989   7.918 -0.8514 -1.2171 -0.9122
 8767SOL     OW38773   2.245   2.970   5.954 -0.3733 -0.0249 -0.4280
 8767SOL    HW138774   2.158   2.924   5.972  0.3944 -1.2509  0.2278
 8767SOL    HW238775   2.318   2.902   5.947  0.6199  1.0262 -0.4638
 8768SOL     OW38776   4.160   4.590   2.646 -0.1959  0.1917 -0.1156
 8768SOL    HW138777   4.094   4.604   2.573  0.4800  0.8280 -0.6090
 8768SOL    HW238778   4.112   4.566   2.731 -1.0033 -0.1039 -0.6564
 8769SOL     OW38779   2.555   0.366   0.265 -0.4942  0.5641  0.3716
 8769SOL    HW138780   2.614   0.395   0.190  0.9665  0.7164  1.5416
 8769SOL    HW238781   2.573   0.270   0.286  1.9673  1.5344  3.0484
 8770SOL     OW38782   7.271   6.510   6.552 -0.0167  0.6424 -0.5935
 8770SOL    HW138783   7.228   6.460   6.476 -0.8330 -0.2815  0.4464
 8770SOL    HW238784   7.348   6.457   6.587  0.2281  0.9672 -0.6437
 8771SOL     OW38785   3.477   6.717   8.477 -0.4890 -0.2979 -0.5822
 8771SOL    HW138786   3.525   6.673   8.553 -0.1027 -0.4920 -0.9336
 8771SOL    HW238787   3.544   6.754   8.413 -0.8145  0.7895 -0.2985
 8772SOL     OW38788   5.660   6.773   1.042  0.1900 -0.6835  0.6223
 8772SOL    HW138789   5.643   6.827   0.959  0.2928  0.3984  1.3007
 8772SOL    HW238790   5.722   6.823   1.102 -0.6044 -1.0625  1.7704
 8773SOL     OW38791   6.524   2.307   8.264 -0.3012 -0.2391  0.2822
 8773SOL    HW138792   6.584   2.359   8.203 -0.3531 -1.4287 -0.8113
 8773SOL    HW238793   6.527   2.210   8.238 -4.2249 -0.0614 -1.1330
 8774SOL     OW38794   2.413   3.531   4.014  0.3806 -0.4653 -0.1132
 8774SOL    HW138795   2.439   3.504   4.107  0.2645  0.3039  0.1441
 8774SOL    HW238796   2.347   3.464   3.978  0.0707 -0.5166  0.5309
 8775SOL     OW38797   7.736   3.135   2.133 -0.3869 -0.2052  0.1421
 8775SOL    HW138798   7.690   3.222   2.147 -0.2598  0.0902 -1.1764
 8775SOL    HW238799   7.707   3.095   2.046 -1.5258 -2.1821  1.3893
 8776SOL     OW38800   2.734   1.458   6.798 -0.1162  0.2382  0.1199
 8776SOL    HW138801   2.679   1.496   6.723  0.4887  2.2717  0.6652
 8776SOL    HW238802   2.706   1.500   6.884  0.4721 -0.7122  0.7872
 8777SOL     OW38803   3.577   2.763   6.106  0.0475 -0.2402 -0.5022
 8777SOL    HW138804   3.666   2.775   6.150  0.6086 -3.1925 -0.7823
 8777SOL    HW238805   3.552   2.849   6.060  1.8564  1.2261  1.1379
 8778SOL     OW38806   2.558   7.159   0.070  0.0915 -0.0097 -0.6530
 8778SOL    HW138807   2.483   7.199   0.017 -0.6370 -0.1865  0.2255
 8778SOL    HW238808   2.594   7.080   0.021 -0.1361  0.2197 -1.1987
 8779SOL     OW38809   7.814   2.692   8.427  0.3548 -0.3393 -0.1046
 8779SOL    HW138810   7.826   2.791   8.428  0.7326 -0.3637 -1.1417
 8779SOL    HW238811   7.853   2.654   8.343 -0.9281 -1.2214 -0.3291
 8780SOL     OW38812   4.995   4.174   8.339  0.0236 -0.5339 -0.2620
 8780SOL    HW138813   4.921   4.112   8.312  0.8209 -1.2830 -0.7608
 8780SOL    HW238814   5.012   4.164   8.437 -0.4752 -0.4276 -0.1632
 8781SOL     OW38815   3.638   8.002   8.559  0.0301 -0.1057 -0.1317
 8781SOL    HW138816   3.596   7.970   8.643  1.5390  1.2539  1.1732
 8781SOL    HW238817   3.732   8.032   8.577  0.0937  1.0171 -2.1075
 8782SOL     OW38818   7.253   1.875   0.732  0.3056  0.1387  0.4176
 8782SOL    HW138819   7.155   1.855   0.734  0.5198 -0.8539  1.7642
 8782SOL    HW238820   7.268   1.966   0.693 -1.2190  0.7048  1.1199
 8783SOL     OW38821   4.190   1.479   2.190  0.2554  1.0678  0.2239
 8783SOL    HW138822   4.178   1.577   2.206  3.1742  1.6880 -1.0843
 8783SOL    HW238823   4.195   1.431   2.278  1.0860  2.4074  0.9290
 8784SOL     OW38824   2.436   1.344   5.426 -0.0612 -0.2881 -0.1270
 8784SOL    HW138825   2.407   1.400   5.348 -0.5392 -0.4959 -0.0976
 8784SOL    HW238826   2.377   1.264   5.433 -0.5106  0.1251  0.9185
 8785SOL     OW38827   5.837   7.906   3.263 -0.3663  0.0434  0.4033
 8785SOL    HW138828   5.935   7.929   3.264 -0.4090  0.3208  3.7413
 8785SOL    HW238829   5.784   7.989   3.281 -1.2876  0.0246 -2.0948
 8786SOL     OW38830   3.017   8.488   8.592 -0.3879  0.3054 -0.2708
 8786SOL    HW138831   2.987   8.524   8.680 -1.2296  0.7111 -0.7203
 8786SOL    HW238832   3.098   8.431   8.605  0.7911  2.1184  0.4772
 8787SOL     OW38833   2.679   7.524   0.750  0.5300  0.7150 -0.2751
 8787SOL    HW138834   2.666   7.620   0.774  0.4400  0.4982  0.5740
 8787SOL    HW238835   2.777   7.505   0.741  0.6294  0.5651  0.9743
 8788SOL     OW38836   6.388   5.005   5.502  0.0895 -0.2246  0.2037
 8788SOL    HW138837   6.439   4.924   5.474  1.8992  0.7843  0.5120
 8788SOL    HW238838   6.361   4.996   5.598 -0.0333 -0.6062  0.1355
 8789SOL     OW38839   5.552   5.840   7.678 -0.1128 -0.2063  0.2361
 8789SOL    HW138840   5.560   5.786   7.762  2.2965  0.8355  0.7052
 8789SOL    HW238841   5.626   5.907   7.674 -2.5434  2.5025 -0.7714
 8790SOL     OW38842   2.774   5.854   1.187 -0.2980 -0.1276 -0.5950
 8790SOL    HW138843   2.692   5.802   1.163  0.0735  0.6594 -3.9008
 8790SOL    HW238844   2.757   5.951   1.170  0.4581  0.3625  1.3358
 8791SOL     OW38845   3.249   7.937   8.296  0.3631 -0.0702  0.3733
 8791SOL    HW138846   3.340   7.927   8.337 -0.6265 -1.9822  2.1821
 8791SOL    HW238847   3.227   8.035   8.287  2.2518  0.4002  0.6710
 8792SOL     OW38848   0.066   1.277   6.121  0.4041 -0.4086  0.6022
 8792SOL    HW138849   0.153   1.253   6.079 -0.2927 -0.0986 -1.0312
 8792SOL    HW238850   0.030   1.198   6.171  0.8028 -1.0532 -0.1199
 8793SOL     OW38851   1.309   0.277   8.712 -0.5535  0.2303 -0.2893
 8793SOL    HW138852   1.375   0.207   8.684 -0.9301 -0.2076 -0.0959
 8793SOL    HW238853   1.356   0.362   8.732 -0.0936  0.0422 -0.5709
 8794SOL     OW38854   7.667   5.770   0.955  0.2636  0.2972  0.2787
 8794SOL    HW138855   7.694   5.678   0.981  0.2383 -0.1786 -1.3067
 8794SOL    HW238856   7.577   5.768   0.910 -0.6613  1.3613  2.0269
 8795SOL     OW38857   2.940   4.621   0.351 -0.2513 -0.1075  0.5382
 8795SOL    HW138858   3.007   4.658   0.286  0.4600 -0.3942  1.0964
 8795SOL    HW238859   2.933   4.682   0.430 -1.0227  0.1771  0.2535
 8796SOL     OW38860   3.741   0.310   6.878 -0.3705  0.2138  0.5438
 8796SOL    HW138861   3.696   0.397   6.857  0.3078  0.3015 -0.5928
 8796SOL    HW238862   3.688   0.235   6.839 -0.3258  0.2002  0.5099
 8797SOL     OW38863   3.752   7.652   0.137  0.5875 -0.7016 -0.6009
 8797SOL    HW138864   3.688   7.695   0.073 -0.5729 -2.1268 -0.4402
 8797SOL    HW238865   3.700   7.603   0.207  1.8671 -1.7183 -0.3415
 8798SOL     OW38866   2.981   1.189   7.714 -0.3625 -0.0320 -0.1838
 8798SOL    HW138867   3.043   1.265   7.697 -0.3076 -0.0170  0.0861
 8798SOL    HW238868   2.915   1.215   7.785 -1.6465  0.5137 -1.5270
 8799SOL     OW38869   2.362   4.903   1.852  0.2425  0.5955  0.3870
 8799SOL    HW138870   2.407   4.966   1.790  1.8868 -1.3520 -0.4776
 8799SOL    HW238871   2.431   4.856   1.908 -0.8500 -0.9863  0.4580
 8800SOL     OW38872   3.950   6.992   2.821  0.2498 -0.2534  0.3262
 8800SOL    HW138873   3.915   7.085   2.806 -0.7730 -0.3857  1.8355
 8800SOL    HW238874   3.950   6.972   2.919  0.0712 -2.0104 -0.0268
 8801SOL     OW38875   0.093   3.579   6.409  0.8130 -0.4902  0.0302
 8801SOL    HW138876   0.187   3.572   6.442  1.9188 -0.2595 -2.9354
 8801SOL    HW238877   0.066   3.493   6.367  0.2787 -0.0336 -0.5675
 8802SOL     OW38878   8.359   1.291   5.691  0.3310  0.1758 -0.1458
 8802SOL    HW138879   8.331   1.306   5.597 -1.8196 -1.5149  0.1765
 8802SOL    HW238880   8.324   1.203   5.723  0.9588  0.7373  2.2501
 8803SOL     OW38881   4.861   8.075   1.219  0.9538  0.3212 -0.5787
 8803SOL    HW138882   4.850   7.980   1.250  2.2611  0.8480  1.5799
 8803SOL    HW238883   4.949   8.086   1.174 -0.5652 -0.2242 -3.8197
 8804SOL     OW38884   6.400   0.810   8.852  0.0225  0.1126 -0.7392
 8804SOL    HW138885   6.415   0.894   8.903 -0.5748 -1.2593  1.7660
 8804SOL    HW238886   6.480   0.792   8.794  0.5719  1.8666 -0.5503
 8805SOL     OW38887   8.537   1.375   2.331 -0.0309 -0.0659  0.9603
 8805SOL    HW138888   8.591   1.423   2.262 -1.1334  0.9167  0.7650
 8805SOL    HW238889   8.582   1.290   2.355  0.6840 -0.1235 -0.5241
 8806SOL     OW38890   5.946   7.569   1.942  0.0184 -0.0897 -0.0689
 8806SOL    HW138891   6.033   7.616   1.956  0.6649 -1.2733 -0.0769
 8806SOL    HW238892   5.943   7.531   1.849 -0.7909  0.5342 -0.3039
 8807SOL     OW38893   1.873   3.671   1.354 -0.5426  0.4045 -0.1267
 8807SOL    HW138894   1.918   3.586   1.326 -0.5116 -0.0488  1.2283
 8807SOL    HW238895   1.936   3.726   1.409 -1.0978  0.5455  0.3739
 8808SOL     OW38896   0.523   2.950   5.376  0.0958 -0.3456 -0.9263
 8808SOL    HW138897   0.429   2.917   5.367  0.5783 -0.9421 -4.5419
 8808SOL    HW238898   0.526   3.048   5.356 -0.0183  0.1428  1.2743
 8809SOL     OW38899   3.321   8.872   0.027 -0.2696 -0.1278 -0.6797
 8809SOL    HW138900   3.240   8.878   0.086  1.1664 -0.5632  1.4181
 8809SOL    HW238901   3.346   8.776   0.015  0.4494  0.0343 -0.5387
 8810SOL     OW38902   8.666   5.410   3.176  0.2100 -0.4356  0.0619
 8810SOL    HW138903   8.670   5.470   3.256  0.1158 -1.1384  0.6022
 8810SOL    HW238904   8.573   5.374   3.167  0.5381 -1.3969  0.4188
 8811SOL     OW38905   1.927   3.323   6.152 -0.6600  0.1326 -0.3308
 8811SOL    HW138906   1.983   3.281   6.223  0.5892  2.3999  0.0789
 8811SOL    HW238907   1.909   3.419   6.175  1.6649  1.6072 -4.1189
 8812SOL     OW38908   2.664   1.902   1.850  0.5464  0.3631  0.7288
 8812SOL    HW138909   2.724   1.823   1.862  0.3530  0.2478  0.9430
 8812SOL    HW238910   2.633   1.907   1.755 -0.3098 -0.4455  0.9581
 8813SOL     OW38911   3.116   3.195   4.857 -0.5351  1.0205 -0.2240
 8813SOL    HW138912   3.038   3.235   4.808 -2.8631 -2.0260  0.8314
 8813SOL    HW238913   3.091   3.182   4.953 -0.2603 -3.6760 -0.6876
 8814SOL     OW38914   6.246   6.609   8.516 -0.1695 -0.1515  0.1601
 8814SOL    HW138915   6.204   6.590   8.605  0.3549 -1.5111  0.1310
 8814SOL    HW238916   6.291   6.526   8.482  3.6992  1.5656  0.8376
 8815SOL     OW38917   4.639   2.870   6.414  0.1217  0.8046  0.0246
 8815SOL    HW138918   4.559   2.835   6.364  0.2962 -0.7228  0.7820
 8815SOL    HW238919   4.612   2.895   6.506  0.6247 -0.3316  0.4961
 8816SOL     OW38920   6.272   2.554   7.848 -0.5980 -0.9100  0.2989
 8816SOL    HW138921   6.363   2.517   7.865 -0.9995 -1.6309  0.8998
 8816SOL    HW238922   6.231   2.584   7.934  0.1236  1.9173 -0.2972
 8817SOL     OW38923   2.497   6.747   6.398  0.1671  0.1976 -0.4975
 8817SOL    HW138924   2.488   6.667   6.338  0.5582 -0.9616  0.9430
 8817SOL    HW238925   2.547   6.720   6.481 -0.3046  1.7840  0.3131
 8818SOL     OW38926   8.537   4.968   0.049  0.3366  0.0035  0.4202
 8818SOL    HW138927   8.471   5.031   0.010  1.9161  1.4929  0.1106
 8818SOL    HW238928   8.531   4.880   0.002 -1.6101  0.0213  0.5942
 8819SOL     OW38929   1.780   2.404   1.226 -0.3421 -0.1886  0.3370
 8819SOL    HW138930   1.688   2.369   1.241 -0.8759  0.4722 -1.2252
 8819SOL    HW238931   1.840   2.330   1.195  0.3350 -1.1762  3.8599
 8820SOL     OW38932   6.670   7.364   8.362 -0.5568 -0.3767 -0.4072
 8820SOL    HW138933   6.766   7.365   8.390 -0.8132 -0.4780  0.4977
 8820SOL    HW238934   6.648   7.449   8.314 -0.8532  1.1035  2.2737
 8821SOL     OW38935   3.616   2.006   2.778 -0.1548  0.3063  0.2564
 8821SOL    HW138936   3.540   2.058   2.817 -0.1883  1.4457 -1.2993
 8821SOL    HW238937   3.608   2.005   2.678 -0.0976 -2.6105  0.2390
 8822SOL     OW38938   8.574   3.935   6.269  0.2511 -0.5784 -0.1425
 8822SOL    HW138939   8.657   3.963   6.317 -0.4920  2.2548 -0.4133
 8822SOL    HW238940   8.551   3.841   6.294  1.5674 -0.2010  2.6316
 8823SOL     OW38941   2.553   2.783   2.476  0.3697  0.0009 -0.2772
 8823SOL    HW138942   2.480   2.715   2.484  2.9979 -3.0449 -1.2162
 8823SOL    HW238943   2.608   2.784   2.559 -0.4471  2.0395  0.2876
 8824SOL     OW38944   5.533   8.154   2.469 -0.0903 -0.1608  0.1116
 8824SOL    HW138945   5.531   8.057   2.443 -0.9905  0.6612 -3.1949
 8824SOL    HW238946   5.458   8.173   2.532 -0.6608 -1.3659 -0.1759
 8825SOL     OW38947   5.935   2.599   2.048 -0.1033 -0.4794 -0.2734
 8825SOL    HW138948   5.840   2.570   2.054 -0.5779  0.7224 -1.7954
 8825SOL    HW238949   5.994   2.518   2.054 -1.2850 -1.4497 -1.3545
 8826SOL     OW38950   0.963   7.780   5.410  0.0109  0.1577  0.1291
 8826SOL    HW138951   0.901   7.732   5.347  1.0392 -0.8143 -0.1645
 8826SOL    HW238952   1.037   7.822   5.358  0.4355  0.0108  0.6089
 8827SOL     OW38953   0.248   2.064   7.108  0.6366 -0.1751 -0.1889
 8827SOL    HW138954   0.250   2.149   7.055 -1.4104 -0.8192 -1.3173
 8827SOL    HW238955   0.182   2.073   7.182  4.5039  1.2618  3.3083
 8828SOL     OW38956   6.924   5.145   3.129  0.0781 -0.0068  0.1681
 8828SOL    HW138957   6.874   5.145   3.215  0.5073 -2.0577  0.4534
 8828SOL    HW238958   7.023   5.144   3.148  0.1720 -0.7684 -0.3172
 8829SOL     OW38959   2.001   1.621   6.119 -0.0717  0.0924  0.0306
 8829SOL    HW138960   2.078   1.678   6.146  1.7682 -0.9267 -2.9253
 8829SOL    HW238961   1.916   1.674   6.129  1.3771  2.6479 -0.7149
 8830SOL     OW38962   6.511   0.008   7.592  0.2006 -0.0008 -0.3716
 8830SOL    HW138963   6.470   0.096   7.568  0.3422 -0.0485 -0.7932
 8830SOL    HW238964   6.438  -0.058   7.614  0.0863  0.1533 -0.2823
 8831SOL     OW38965   3.778   2.004   0.498 -0.0059  0.5596  0.2089
 8831SOL    HW138966   3.688   1.983   0.461  1.1171 -0.6366 -1.9343
 8831SOL    HW238967   3.826   2.067   0.437  0.6267  1.1742  1.3192
 8832SOL     OW38968   5.151   7.106   6.215  0.2756  0.5937 -0.3245
 8832SOL    HW138969   5.204   7.187   6.189 -0.3261  0.8183 -0.8773
 8832SOL    HW238970   5.059   7.134   6.241  0.0629  0.0831 -0.5253
 8833SOL     OW38971   5.824   2.029   2.324 -0.4553  0.7062 -0.5956
 8833SOL    HW138972   5.801   1.941   2.283 -0.3788  0.8802 -1.0145
 8833SOL    HW238973   5.761   2.048   2.400  1.3333 -1.0520  1.3882
 8834SOL     OW38974   6.163   2.270   1.857 -0.0329  0.5372 -0.2541
 8834SOL    HW138975   6.150   2.332   1.935  1.4134  1.3251 -0.6157
 8834SOL    HW238976   6.074   2.237   1.826 -0.8112  2.0964  0.2267
 8835SOL     OW38977   3.125   1.560   5.247  0.2729  0.0150  0.1813
 8835SOL    HW138978   3.091   1.618   5.321  0.8869  2.4790 -1.3757
 8835SOL    HW238979   3.199   1.608   5.199  0.4441 -1.8797 -1.5089
 8836SOL     OW38980   8.997   7.614   0.313 -0.2366  0.1494  0.1458
 8836SOL    HW138981   8.968   7.565   0.395 -0.6357  0.2041  0.0395
 8836SOL    HW238982   8.936   7.591   0.237  2.5785 -3.1633 -1.2487
 8837SOL     OW38983   4.791   0.134   0.416 -0.5656  0.6173  0.1917
 8837SOL    HW138984   4.815   0.136   0.514  0.8727  2.6103 -0.1777
 8837SOL    HW238985   4.870   0.103   0.364 -0.6849  1.5490 -0.5377
 8838SOL     OW38986   3.573   4.950   6.972 -0.1521  0.3050  0.5825
 8838SOL    HW138987   3.569   5.001   6.886 -0.3180 -1.0335 -0.2028
 8838SOL    HW238988   3.504   4.987   7.035  0.1076  1.4203  0.2277
 8839SOL     OW38989   3.812   0.253   3.933 -0.8299 -0.0214 -0.0303
 8839SOL    HW138990   3.892   0.309   3.956 -1.2380  0.7972 -0.5830
 8839SOL    HW238991   3.818   0.165   3.981 -0.3285  0.5997  1.0618
 8840SOL     OW38992   8.287   4.819   2.227  0.2220 -0.1610  0.1951
 8840SOL    HW138993   8.282   4.763   2.310  0.6719 -0.6663 -0.1178
 8840SOL    HW238994   8.283   4.916   2.252 -0.9223 -0.3321  0.7147
 8841SOL     OW38995   8.689   2.163   1.797  0.2563 -0.2807 -0.1763
 8841SOL    HW138996   8.657   2.187   1.889 -0.6505 -3.4400  0.3946
 8841SOL    HW238997   8.752   2.233   1.765  2.0228  0.0031  3.6092
 8842SOL     OW38998   2.230   8.715   1.745  0.2585 -0.1704  0.5955
 8842SOL    HW138999   2.312   8.686   1.794  0.2631 -0.0381  0.6652
 8842SOL    HW239000   2.213   8.812   1.764 -0.1597 -0.3088  0.9240
 8843SOL     OW39001   7.238   2.790   5.029 -0.5845  0.7509 -0.2894
 8843SOL    HW139002   7.312   2.856   5.039 -0.5065  0.7540 -0.8929
 8843SOL    HW239003   7.272   2.707   4.985 -0.9116  0.7025 -0.4512
 8844SOL     OW39004   5.982   8.458   0.108 -0.3099 -0.6147 -0.1891
 8844SOL    HW139005   5.932   8.533   0.065 -2.3697 -0.7316  1.9050
 8844SOL    HW239006   6.055   8.427   0.047 -0.0727  2.3941 -1.5078
 8845SOL     OW39007   1.915   4.553   0.128 -0.0095 -0.1797 -0.3321
 8845SOL    HW139008   1.901   4.492   0.206  0.5623  2.1853  1.6915
 8845SOL    HW239009   2.009   4.587   0.128 -0.5205  1.2862 -0.9869
 8846SOL     OW39010   6.080   2.118   2.298  0.7319  0.0412 -0.4903
 8846SOL    HW139011   6.130   2.090   2.380  0.1361 -0.3702 -0.2654
 8846SOL    HW239012   5.998   2.061   2.287  0.6024  0.3462 -1.1582
 8847SOL     OW39013   6.909   4.074   0.081 -0.0466  0.5541 -0.0021
 8847SOL    HW139014   6.829   4.101   0.135 -1.2254 -1.2335 -0.7992
 8847SOL    HW239015   6.895   3.982   0.044  2.1766  0.4053 -0.5815
 8848SOL     OW39016   3.674   3.138   8.640  0.3493  0.4706  0.1362
 8848SOL    HW139017   3.623   3.156   8.724 -0.1332 -0.0399 -0.0439
 8848SOL    HW239018   3.771   3.124   8.662  0.3501  1.0909  0.5211
 8849SOL     OW39019   8.979   7.806   0.620 -0.4948 -0.2155 -0.2449
 8849SOL    HW139020   9.011   7.714   0.597 -1.5473 -0.7240  0.3117
 8849SOL    HW239021   8.896   7.827   0.569 -1.0806 -0.1487  0.7089
 8850SOL     OW39022   5.330   5.920   3.137  0.2733 -0.3155 -0.1880
 8850SOL    HW139023   5.302   5.905   3.042 -0.6872  0.9318 -0.1182
 8850SOL    HW239024   5.396   5.995   3.140  1.4031 -1.2988 -0.0172
 8851SOL     OW39025   8.127   4.798   0.706  0.3415 -0.4702  0.3437
 8851SOL    HW139026   8.071   4.735   0.760  1.4589 -1.7672  0.0171
 8851SOL    HW239027   8.156   4.752   0.622  0.0523  0.9460 -0.5584
 8852SOL     OW39028   7.624   5.292   0.791  0.2054  0.1807  0.5213
 8852SOL    HW139029   7.611   5.381   0.747 -0.8620  0.1290  0.7077
 8852SOL    HW239030   7.704   5.295   0.851 -0.2884  1.2613  1.1425
 8853SOL     OW39031   6.047   5.969   3.270 -0.4895 -0.0698  0.0652
 8853SOL    HW139032   5.959   5.967   3.222 -1.2525  0.4237  1.3954
 8853SOL    HW239033   6.082   6.063   3.272  0.1809 -0.3045 -0.6594
 8854SOL     OW39034   0.559   0.883   7.062  0.0739  0.0017  0.6580
 8854SOL    HW139035   0.559   0.898   6.963 -0.1765  1.8972  0.9379
 8854SOL    HW239036   0.618   0.950   7.106  0.9116 -1.4108  1.7283
 8855SOL     OW39037   2.651   5.304   4.627  0.1389 -0.4163  0.3946
 8855SOL    HW139038   2.638   5.402   4.641 -0.6775 -0.2293 -1.6395
 8855SOL    HW239039   2.742   5.278   4.660  1.1129  1.3830 -0.8296
 8856SOL     OW39040   5.265   0.530   2.444 -0.1614  0.0850 -0.2865
 8856SOL    HW139041   5.269   0.490   2.536  0.2632  2.4884  0.7828
 8856SOL    HW239042   5.357   0.538   2.407 -0.1874  0.5636 -0.2552
 8857SOL     OW39043   5.020   0.003   0.301  0.6966 -0.0158 -0.8925
 8857SOL    HW139044   5.097  -0.022   0.360  0.8374 -0.7465 -1.3844
 8857SOL    HW239045   5.053   0.062   0.227  0.3229  1.8958  0.4068
 8858SOL     OW39046   6.589   4.702   1.337 -0.4369  0.2564 -0.4226
 8858SOL    HW139047   6.680   4.661   1.329 -0.0766  1.1760 -1.0829
 8858SOL    HW239048   6.553   4.721   1.246 -1.7282 -1.0324 -0.1990
 8859SOL     OW39049   8.597   6.801   5.459  0.1685  0.5209  0.0102
 8859SOL    HW139050   8.687   6.759   5.472  0.4883  1.4528  0.8530
 8859SOL    HW239051   8.541   6.742   5.401  1.3896  0.0260 -0.6839
 8860SOL     OW39052   0.310   5.109   7.305 -0.5093  0.4421 -0.5617
 8860SOL    HW139053   0.215   5.079   7.317 -0.5640  0.7168 -0.3405
 8860SOL    HW239054   0.362   5.091   7.388 -1.1136  3.1987  0.4651
 8861SOL     OW39055   8.280   8.549   0.807 -0.5998 -0.2537  0.6398
 8861SOL    HW139056   8.333   8.540   0.891 -0.8752  0.4472  0.8853
 8861SOL    HW239057   8.304   8.634   0.761 -0.4361 -0.6426 -0.0024
 8862SOL     OW39058   4.394   1.436   2.012 -0.2317  0.1273 -0.0259
 8862SOL    HW139059   4.337   1.429   2.094  0.8108 -1.9205  0.5425
 8862SOL    HW239060   4.488   1.410   2.033  0.5651  1.7585 -1.3819
 8863SOL     OW39061   6.192   2.302   0.964 -0.0654 -0.4007 -0.1941
 8863SOL    HW139062   6.282   2.264   0.942  0.0242 -0.3861  0.1491
 8863SOL    HW239063   6.168   2.371   0.895  1.0326  0.9818  0.7730
 8864SOL     OW39064   4.503   8.945   0.564 -0.2273  0.3799 -0.4382
 8864SOL    HW139065   4.592   8.987   0.543 -0.2688 -0.3880 -2.2325
 8864SOL    HW239066   4.467   8.985   0.648  1.0232  1.9336 -0.6074
 8865SOL     OW39067   2.775   7.483   6.438  0.1144  0.5710 -0.2971
 8865SOL    HW139068   2.709   7.557   6.453  1.5662  2.0184 -0.8516
 8865SOL    HW239069   2.770   7.453   6.343 -1.9223 -1.5123  0.4305
 8866SOL     OW39070   0.994   1.994   7.154  0.3289  0.7311  0.3908
 8866SOL    HW139071   1.020   1.924   7.221  3.1066  1.4412  0.1010
 8866SOL    HW239072   0.918   2.048   7.190  0.1061 -0.5401  1.8719
 8867SOL     OW39073   0.485   2.234   5.546 -0.2808 -0.1306 -0.5053
 8867SOL    HW139074   0.530   2.170   5.484  1.4619 -0.5364  1.1525
 8867SOL    HW239075   0.540   2.317   5.555 -1.4364  0.7068 -0.9029
 8868SOL     OW39076   7.066   2.219   6.545  0.0761 -0.5232  0.2443
 8868SOL    HW139077   7.086   2.282   6.470  0.2655 -1.2091 -0.2877
 8868SOL    HW239078   7.043   2.271   6.627  1.5187  0.2666  0.1655
 8869SOL     OW39079   2.471   8.797   3.501 -0.3975  0.3439  0.7806
 8869SOL    HW139080   2.471   8.701   3.474  1.5929  0.1278  1.4500
 8869SOL    HW239081   2.377   8.829   3.511 -1.0882 -1.2035 -0.5753
 8870SOL     OW39082   7.341   1.787   7.249  0.0281  0.1661  0.6002
 8870SOL    HW139083   7.310   1.807   7.342 -0.2421 -0.5283  0.6548
 8870SOL    HW239084   7.346   1.689   7.236 -1.6690  0.2317 -0.6986
 8871SOL     OW39085   7.653   7.915   2.244  0.0805 -0.1763  0.2617
 8871SOL    HW139086   7.671   7.909   2.342  0.6266 -1.1300  0.1119
 8871SOL    HW239087   7.708   7.987   2.204 -0.1202  0.1955  0.6471
 8872SOL     OW39088   8.536   4.698   6.387  0.0672  0.3541  0.2955
 8872SOL    HW139089   8.588   4.641   6.450  0.1215 -0.7721 -0.7533
 8872SOL    HW239090   8.461   4.645   6.347  0.6794  0.7243 -1.4046
 8873SOL     OW39091   8.936   6.674   0.069 -0.1420 -0.0345 -0.0700
 8873SOL    HW139092   8.855   6.722   0.035  1.1262  1.9578 -0.3886
 8873SOL    HW239093   8.928   6.661   0.168 -0.6027  0.6607 -0.0136
 8874SOL     OW39094   2.848   2.574   1.973 -0.3055  0.6099 -0.0047
 8874SOL    HW139095   2.760   2.613   1.945 -0.7672  0.0614  0.6488
 8874SOL    HW239096   2.862   2.487   1.925 -0.1372  0.6809 -0.0817
 8875SOL     OW39097   4.019   1.209   2.328  0.1497 -0.0007 -0.6724
 8875SOL    HW139098   4.008   1.152   2.410 -0.6199  0.4397 -0.4658
 8875SOL    HW239099   3.940   1.269   2.318  1.2328  1.4854 -0.5349
 8876SOL     OW39100   4.127   0.679   5.416 -0.4440 -0.2599  0.6564
 8876SOL    HW139101   4.121   0.779   5.415  0.4777 -0.2020  0.7182
 8876SOL    HW239102   4.152   0.646   5.325  0.1041 -0.3768  0.8485
 8877SOL     OW39103   8.146   7.043   8.439 -0.1866 -0.3309  0.4442
 8877SOL    HW139104   8.193   6.978   8.378 -0.6723  0.1741 -0.4710
 8877SOL    HW239105   8.121   7.125   8.388 -1.3743 -0.2622  1.1195
 8878SOL     OW39106   5.440   8.477   6.529  0.3875 -0.6829  0.0852
 8878SOL    HW139107   5.403   8.531   6.604 -0.0628 -1.3813  0.3716
 8878SOL    HW239108   5.536   8.456   6.546 -0.1257 -2.1963  1.2557
 8879SOL     OW39109   1.643   3.673   0.770 -0.9113  0.4551  0.0741
 8879SOL    HW139110   1.618   3.659   0.866 -2.2652 -0.6937 -0.4422
 8879SOL    HW239111   1.582   3.621   0.711 -1.6409  3.0735 -1.5720
 8880SOL     OW39112   0.823   4.752   5.208 -0.5904  0.1418 -0.0203
 8880SOL    HW139113   0.919   4.779   5.202  0.3961 -2.9189  1.2631
 8880SOL    HW239114   0.798   4.698   5.128 -0.9905  0.0974  0.1314
 8881SOL     OW39115   0.864   7.319   2.963 -0.4045 -0.0526 -0.1931
 8881SOL    HW139116   0.830   7.261   2.889  0.4818 -1.4082  0.4407
 8881SOL    HW239117   0.949   7.364   2.934 -1.1162  0.9848 -0.7013
 8882SOL     OW39118   0.968   4.842   5.541 -0.2195 -0.1297 -0.4417
 8882SOL    HW139119   1.007   4.754   5.514 -1.8255 -0.6057 -1.2374
 8882SOL    HW239120   0.884   4.827   5.593 -0.6372  0.9486 -0.7898
 8883SOL     OW39121   8.779   2.562   4.690 -0.3530 -0.0414  0.7127
 8883SOL    HW139122   8.743   2.652   4.665  0.6743  0.3643  0.6544
 8883SOL    HW239123   8.726   2.491   4.644 -0.8322  0.5602  0.3269
 8884SOL     OW39124   4.244   1.068   6.011 -0.1227  0.3692  0.0374
 8884SOL    HW139125   4.218   1.027   6.098 -0.9473  0.6906 -0.0592
 8884SOL    HW239126   4.177   1.044   5.941  1.3734 -1.2335 -0.8988
 8885SOL     OW39127   0.859   7.889   4.025 -0.1636  0.1866 -0.0221
 8885SOL    HW139128   0.803   7.954   4.075 -2.2782 -1.2865 -0.3770
 8885SOL    HW239129   0.864   7.803   4.076  0.4394 -0.2254 -0.7643
 8886SOL     OW39130   6.372   4.767   2.677  0.6441 -0.0295 -0.2253
 8886SOL    HW139131   6.432   4.793   2.752  0.0853  0.6421  0.0043
 8886SOL    HW239132   6.380   4.835   2.604  2.1761 -1.3877 -1.3428
 8887SOL     OW39133   2.294   3.538   1.499 -0.3607 -0.0247  0.3474
 8887SOL    HW139134   2.289   3.629   1.458  0.1488  0.2468  0.8871
 8887SOL    HW239135   2.233   3.533   1.578 -2.6637 -1.0764 -1.4125
 8888SOL     OW39136   8.985   3.643   7.212  0.1251 -0.1798  0.3402
 8888SOL    HW139137   8.931   3.567   7.248  0.6688 -0.5485  0.3943
 8888SOL    HW239138   8.980   3.643   7.112  1.3874 -1.2471  0.2633
 8889SOL     OW39139   4.539   3.260   5.194  0.0050  0.4067  0.0640
 8889SOL    HW139140   4.481   3.228   5.269  0.9647 -0.8126  0.3276
 8889SOL    HW239141   4.516   3.210   5.110  1.4479 -0.9790  0.4541
 8890SOL     OW39142   3.202   8.674   1.239 -0.3695 -0.1271  0.4799
 8890SOL    HW139143   3.185   8.764   1.278 -0.1918 -0.2837  0.9255
 8890SOL    HW239144   3.284   8.676   1.182 -0.4485  0.0282  0.3727
 8891SOL     OW39145   2.231   0.969   3.095  0.2523 -0.1671  0.7971
 8891SOL    HW139146   2.306   1.003   3.151 -0.6231  0.1140  1.8201
 8891SOL    HW239147   2.172   0.910   3.151  0.2395 -1.1508 -0.2414
 8892SOL     OW39148   0.432   4.504   3.324  0.3009  0.2368 -0.5457
 8892SOL    HW139149   0.457   4.525   3.229 -0.0111  0.8543 -0.4944
 8892SOL    HW239150   0.513   4.516   3.382 -0.0557  2.1752 -0.3917
 8893SOL     OW39151   2.786   1.708   3.810 -0.6460  0.0149  0.2728
 8893SOL    HW139152   2.782   1.799   3.850  1.6496  0.1570  0.1923
 8893SOL    HW239153   2.839   1.710   3.725 -1.3352 -1.2264 -0.2048
 8894SOL     OW39154   3.230   4.992   0.622  0.2668 -0.0474  0.0197
 8894SOL    HW139155   3.268   4.956   0.708 -2.1608 -2.4421  0.1875
 8894SOL    HW239156   3.258   4.934   0.546  0.2010  0.4787 -0.4079
 8895SOL     OW39157   5.986   6.820   3.704 -0.2722  0.2523 -0.0949
 8895SOL    HW139158   5.905   6.771   3.670 -0.5679  0.1886  0.7006
 8895SOL    HW239159   6.062   6.756   3.714 -0.8022 -0.1526  1.4323
 8896SOL     OW39160   0.691   8.197   0.449  0.1177 -0.4932 -0.3373
 8896SOL    HW139161   0.738   8.181   0.535 -0.3463  0.1971  0.0498
 8896SOL    HW239162   0.716   8.126   0.383  1.2003 -0.4911  0.0626
 8897SOL     OW39163   6.751   8.191   8.136  0.6452  0.0146  1.1748
 8897SOL    HW139164   6.808   8.273   8.130  0.3509  0.1464 -0.0333
 8897SOL    HW239165   6.751   8.145   8.047  0.7613 -1.2636  1.8288
 8898SOL     OW39166   1.660   4.597   2.738 -0.3618  0.1491  0.1080
 8898SOL    HW139167   1.609   4.512   2.725 -0.6822  0.4094 -0.3486
 8898SOL    HW239168   1.703   4.596   2.828  0.1548 -0.7685 -0.1377
 8899SOL     OW39169   0.240   1.097   0.605 -0.2206 -0.2850  0.2068
 8899SOL    HW139170   0.173   1.171   0.600  0.5107  0.4576  1.3181
 8899SOL    HW239171   0.267   1.083   0.700  0.7179 -1.0196 -0.1633
 8900SOL     OW39172   3.052   2.325   6.308  0.0839 -0.5931 -0.5231
 8900SOL    HW139173   2.954   2.311   6.327  0.0020  0.0876 -0.4235
 8900SOL    HW239174   3.106   2.292   6.386 -0.2431  1.9758  0.8500
 8901SOL     OW39175   2.816   0.473   1.008  0.2484  0.7295  0.0869
 8901SOL    HW139176   2.722   0.479   1.043  0.1853  1.6837 -0.2283
 8901SOL    HW239177   2.819   0.512   0.916  0.9809  0.8017  0.1432
 8902SOL     OW39178   6.237   3.943   5.029  0.0536 -0.0562  0.5036
 8902SOL    HW139179   6.314   3.979   5.082  1.1623  0.1070 -1.1852
 8902SOL    HW239180   6.164   3.915   5.091 -0.1417  3.4871  1.9826
 8903SOL     OW39181   2.397   4.428   2.062  0.0982 -0.0623  0.1893
 8903SOL    HW139182   2.316   4.477   2.029 -1.9059 -3.5222 -0.2868
 8903SOL    HW239183   2.387   4.409   2.159 -0.2374 -1.5607 -0.1344
 8904SOL     OW39184   1.016   4.087   5.267 -0.1252  0.3954 -0.0709
 8904SOL    HW139185   0.977   4.021   5.331  0.6581 -1.8501 -1.8586
 8904SOL    HW239186   0.943   4.129   5.213 -0.4699 -0.4885 -0.2998
 8905SOL     OW39187   5.756   1.008   2.334 -0.3414 -0.3681  0.4249
 8905SOL    HW139188   5.811   1.023   2.416 -0.5942  2.4525  0.1251
 8905SOL    HW239189   5.660   1.025   2.355 -0.3374  0.9987 -0.6012
 8906SOL     OW39190   6.615   4.359   5.987  0.1506  0.0821 -0.1216
 8906SOL    HW139191   6.650   4.267   5.972  0.3113 -0.0375  0.8949
 8906SOL    HW239192   6.629   4.384   6.083  0.8293  1.4677 -0.5725
 8907SOL     OW39193   1.231   3.692   3.668  0.2714 -0.4354 -0.4198
 8907SOL    HW139194   1.146   3.644   3.692  1.1063 -1.0976  1.3139
 8907SOL    HW239195   1.271   3.731   3.751  1.4213  0.2761 -1.3011
 8908SOL     OW39196   0.430   8.791   0.718  0.1555 -0.2695 -0.0861
 8908SOL    HW139197   0.502   8.799   0.786  1.6410  2.1543 -1.8570
 8908SOL    HW239198   0.462   8.827   0.630 -3.2542  1.0244 -0.9087
 8909SOL     OW39199   4.119   3.845   5.908  0.3367  0.5799 -0.0789
 8909SOL    HW139200   4.216   3.846   5.882  0.4799 -2.5387  0.1557
 8909SOL    HW239201   4.110   3.870   6.004  1.0610 -0.3477  0.2388
 8910SOL     OW39202   7.194   0.489   5.709 -0.3286  0.1055 -0.5364
 8910SOL    HW139203   7.237   0.416   5.655 -0.7477  0.2750 -1.1053
 8910SOL    HW239204   7.136   0.544   5.650 -0.7254  0.3499  0.0742
 8911SOL     OW39205   8.801   6.323   4.316  0.1868  0.4973  0.9235
 8911SOL    HW139206   8.900   6.308   4.325  0.0399 -0.2231  1.3887
 8911SOL    HW239207   8.756   6.295   4.400 -0.7109 -1.7540 -0.2736
 8912SOL     OW39208   6.844   6.316   6.293  0.8114  0.0346  0.9060
 8912SOL    HW139209   6.837   6.329   6.194 -0.3625  0.0342  0.9800
 8912SOL    HW239210   6.864   6.220   6.313  1.2285  0.0728  0.6583
 8913SOL     OW39211   5.537   7.546   8.891  0.3005 -0.2274 -0.7479
 8913SOL    HW139212   5.437   7.542   8.885  0.3228 -0.5026 -0.9364
 8913SOL    HW239213   5.568   7.637   8.863  0.1684 -0.4503 -1.6438
 8914SOL     OW39214   1.908   6.755   2.004 -0.3842 -0.8512  0.2507
 8914SOL    HW139215   1.889   6.659   1.986 -0.9685 -0.4959 -1.1231
 8914SOL    HW239216   1.829   6.810   1.978  0.1516  0.0480  0.5048
 8915SOL     OW39217   8.369   3.101   4.946  0.3650 -0.1310  0.0251
 8915SOL    HW139218   8.384   3.022   5.005  0.5895  0.9885  1.4765
 8915SOL    HW239219   8.284   3.147   4.972  0.6024  0.5286 -0.3455
 8916SOL     OW39220   3.885   2.105   7.519 -0.3370 -0.1092 -0.4192
 8916SOL    HW139221   3.809   2.170   7.514  0.5110  0.9812  0.6353
 8916SOL    HW239222   3.966   2.145   7.476 -0.2123 -1.0879 -1.1312
 8917SOL     OW39223   1.995   8.416   0.909  0.0228 -0.2953  0.4001
 8917SOL    HW139224   2.035   8.328   0.937 -0.3706 -0.4401  0.5204
 8917SOL    HW239225   1.946   8.456   0.986 -0.7854 -0.5348  0.0211
 8918SOL     OW39226   2.726   5.387   3.343 -0.6701  0.2774  0.0428
 8918SOL    HW139227   2.695   5.323   3.273 -0.1118  3.2594 -3.0801
 8918SOL    HW239228   2.647   5.431   3.385 -0.9891  1.4370 -1.6850
 8919SOL     OW39229   3.387   6.553   6.050  0.3560  0.1422 -0.1807
 8919SOL    HW139230   3.458   6.613   6.086 -0.8237  0.7476  1.2140
 8919SOL    HW239231   3.408   6.458   6.075  0.0693  0.4510  1.2924
 8920SOL     OW39232   5.005   4.111   4.853 -0.2206  0.5190  0.5359
 8920SOL    HW139233   4.945   4.033   4.871  0.1439  0.3363  0.9851
 8920SOL    HW239234   4.952   4.188   4.817 -0.4885 -0.1492 -0.5160
 8921SOL     OW39235   0.618   6.466   8.789  0.8189 -0.2672  0.2120
 8921SOL    HW139236   0.564   6.519   8.723  1.3372  0.2490  0.2013
 8921SOL    HW239237   0.557   6.428   8.858  0.4202  0.1959  0.1207
 8922SOL     OW39238   8.455   7.360   5.453 -0.1696 -0.3990 -0.0874
 8922SOL    HW139239   8.405   7.405   5.379 -0.9140 -2.8755 -1.1292
 8922SOL    HW239240   8.537   7.414   5.475 -2.2300  2.6775  0.3321
 8923SOL     OW39241   0.536   6.456   7.955  0.2791 -0.1487 -0.2532
 8923SOL    HW139242   0.460   6.466   7.891  0.1871 -1.4469 -0.3676
 8923SOL    HW239243   0.502   6.462   8.049 -0.3567 -2.9324 -0.2527
 8924SOL     OW39244   3.305   4.918   3.770 -0.4158  0.3943  0.3129
 8924SOL    HW139245   3.228   4.917   3.834  0.0616  1.7513  0.9301
 8924SOL    HW239246   3.390   4.936   3.819 -0.1442  2.2925 -0.7689
 8925SOL     OW39247   0.653   3.968   8.475  0.4817  0.0874  0.6671
 8925SOL    HW139248   0.751   3.956   8.464  0.5273  0.7851  0.2561
 8925SOL    HW239249   0.605   3.897   8.423  0.7784 -1.6181  2.6946
 8926SOL     OW39250   3.469   6.401   3.056 -0.6216  0.2507 -0.2760
 8926SOL    HW139251   3.495   6.304   3.056 -0.0992  0.3876  0.3840
 8926SOL    HW239252   3.550   6.458   3.066 -1.1293  0.6764  1.7630
 8927SOL     OW39253   0.053   7.436   6.420  0.3520  0.5563 -0.7668
 8927SOL    HW139254  -0.023   7.471   6.475 -0.0424 -0.8505 -0.3811
 8927SOL    HW239255   0.034   7.341   6.394  1.8329  0.3009 -0.9527
 8928SOL     OW39256   7.376   8.779   0.752  0.1098 -0.0178  0.4390
 8928SOL    HW139257   7.353   8.793   0.849 -1.9458  1.5354 -0.2477
 8928SOL    HW239258   7.363   8.865   0.702  1.1540 -0.8149 -1.2398
 8929SOL     OW39259   0.455   5.900   3.537 -0.0980 -0.4495  0.1778
 8929SOL    HW139260   0.491   5.838   3.607 -2.2453 -0.4222  1.3556
 8929SOL    HW239261   0.493   5.991   3.549  0.6325 -0.7827  0.4136
 8930SOL     OW39262   8.636   1.123   6.201  0.4707 -0.0468  0.6807
 8930SOL    HW139263   8.732   1.103   6.220  0.0768 -0.3858  2.3841
 8930SOL    HW239264   8.614   1.216   6.232  0.5647  0.5338 -0.9268
 8931SOL     OW39265   3.931   0.358   2.272  0.6258  0.3854  0.1654
 8931SOL    HW139266   3.996   0.434   2.277 -0.3640  1.2073  0.8027
 8931SOL    HW239267   3.893   0.353   2.180  1.2846  0.1542 -0.0975
 8932SOL     OW39268   2.223   8.922   3.491 -0.0482 -0.0350  0.2661
 8932SOL    HW139269   2.212   8.908   3.393  0.8722 -0.0604  0.1652
 8932SOL    HW239270   2.167   9.000   3.520  0.9781  1.0212 -0.5775
 8933SOL     OW39271   1.196   8.901   0.862  0.2293 -0.3627  0.5888
 8933SOL    HW139272   1.182   8.967   0.788  0.5000  2.1133  2.7024
 8933SOL    HW239273   1.109   8.857   0.884 -0.6233  1.6279  1.3032
 8934SOL     OW39274   2.127   7.945   2.511 -0.0983  0.6791 -0.3349
 8934SOL    HW139275   2.040   7.954   2.463  0.3711  2.4691 -0.8952
 8934SOL    HW239276   2.158   8.036   2.540  1.2402 -0.0248  0.4609
 8935SOL     OW39277   2.531   5.421   1.548  0.1758 -0.2146 -0.8667
 8935SOL    HW139278   2.601   5.349   1.543 -0.4643 -0.8166 -1.1689
 8935SOL    HW239279   2.454   5.396   1.490 -0.9594 -0.2646  0.6552
 8936SOL     OW39280   2.548   2.700   0.715  0.1194 -0.1990  0.4824
 8936SOL    HW139281   2.467   2.759   0.717  0.5875  0.4120  1.4699
 8936SOL    HW239282   2.535   2.623   0.778  0.2021 -0.2481  0.4393
 8937SOL     OW39283   1.949   3.260   1.736  0.0664  0.1574  0.4792
 8937SOL    HW139284   1.924   3.269   1.640 -0.6055 -0.2377  0.6095
 8937SOL    HW239285   2.031   3.203   1.744 -0.2701 -0.3816  0.1736
 8938SOL     OW39286   5.074   6.553   1.266 -0.3909  0.1245  0.4455
 8938SOL    HW139287   5.007   6.493   1.309 -2.2472  1.1157 -0.9750
 8938SOL    HW239288   5.043   6.574   1.173  1.3964  1.4243  0.1419
 8939SOL     OW39289   4.417   3.939   8.389  0.1725 -0.0303  0.0624
 8939SOL    HW139290   4.346   3.918   8.456 -0.1825  0.1747 -0.2458
 8939SOL    HW239291   4.467   4.021   8.418 -0.8020  0.8051 -0.5350
 8940SOL     OW39292   2.986   7.828   8.417 -0.3361 -0.6775 -0.4935
 8940SOL    HW139293   2.961   7.758   8.349 -0.3044  0.2249 -1.4540
 8940SOL    HW239294   3.074   7.869   8.392  0.1233 -0.9756  0.6099
 8941SOL     OW39295   4.653   8.957   6.710  0.2470 -0.3555 -0.4721
 8941SOL    HW139296   4.664   9.041   6.763  0.2783 -0.3981 -0.4089
 8941SOL    HW239297   4.587   8.897   6.756  0.1061 -0.2984 -0.5982
 8942SOL     OW39298   6.386   6.620   3.890  0.4362  0.0436 -0.1208
 8942SOL    HW139299   6.486   6.614   3.894  0.2045 -2.9734  4.5664
 8942SOL    HW239300   6.356   6.712   3.917  1.8546 -0.5180  3.6472
 8943SOL     OW39301   3.780   0.571   2.706  0.2211 -0.2585 -0.1357
 8943SOL    HW139302   3.681   0.572   2.722  0.5140  2.2114  1.7849
 8943SOL    HW239303   3.805   0.486   2.661 -2.6340 -1.4093  0.3261
 8944SOL     OW39304   1.388   4.328   5.860 -0.3328 -0.3672  0.3288
 8944SOL    HW139305   1.385   4.404   5.795 -0.1855  0.5812  1.4021
 8944SOL    HW239306   1.446   4.256   5.824  0.5074  0.5428 -0.1796
 8945SOL     OW39307   4.756   4.071   0.145  0.3968  0.1853  0.0880
 8945SOL    HW139308   4.662   4.103   0.148 -0.1456 -1.1263 -1.8114
 8945SOL    HW239309   4.816   4.140   0.187 -1.4068  0.9140  1.5380
 8946SOL     OW39310   3.845   5.070   4.358  0.1247 -0.4001 -0.3831
 8946SOL    HW139311   3.893   5.013   4.426 -0.8878  0.6014  1.2133
 8946SOL    HW239312   3.903   5.149   4.335 -0.6380  0.7651  1.4842
 8947SOL     OW39313   6.505   3.332   8.537  0.4740  0.3262 -0.0306
 8947SOL    HW139314   6.601   3.343   8.513  0.4777  1.3876  0.4392
 8947SOL    HW239315   6.448   3.383   8.472  0.3545  1.3364  0.8429
 8948SOL     OW39316   7.048   2.058   2.664 -0.1206  0.1427  0.5554
 8948SOL    HW139317   7.002   1.979   2.624 -0.4060  1.2829 -1.4645
 8948SOL    HW239318   7.146   2.038   2.672 -0.2683 -0.6104  0.5432
 8949SOL     OW39319   1.638   3.544   5.505  0.1217 -0.0714  0.3005
 8949SOL    HW139320   1.730   3.506   5.509 -0.5339 -1.5805  1.4340
 8949SOL    HW239321   1.637   3.630   5.557  0.7251 -0.3940  0.8610
 8950SOL     OW39322   0.226   5.079   8.099  0.4723 -0.0220  0.1961
 8950SOL    HW139323   0.290   5.154   8.086  1.0002 -0.5248 -0.0955
 8950SOL    HW239324   0.195   5.077   8.194  0.8537  0.2459  0.3222
 8951SOL     OW39325   0.385   1.285   7.007  0.1540  0.2525 -0.5538
 8951SOL    HW139326   0.310   1.219   7.012  0.3269  0.0866 -0.1043
 8951SOL    HW239327   0.416   1.307   7.099 -0.2218  1.3339 -0.6837
 8952SOL     OW39328   1.049   7.864   1.511 -0.4324 -0.2183 -0.1050
 8952SOL    HW139329   1.089   7.911   1.431 -0.1918 -0.8081 -0.3332
 8952SOL    HW239330   0.963   7.820   1.484 -0.1458 -0.7593 -0.1389
 8953SOL     OW39331   2.250   6.476   6.327  0.3227  0.1583  0.4994
 8953SOL    HW139332   2.182   6.429   6.270 -0.7488  0.8860  1.1583
 8953SOL    HW239333   2.327   6.504   6.271 -0.2586 -0.0404 -0.4051
 8954SOL     OW39334   4.796   7.961   0.716 -0.3761  0.4200 -0.3262
 8954SOL    HW139335   4.886   7.923   0.739  0.0463  1.6673  0.0822
 8954SOL    HW239336   4.805   8.023   0.638 -0.7095  1.3619  0.3872
 8955SOL     OW39337   3.767   7.948   1.371 -0.3599 -0.1672  0.4391
 8955SOL    HW139338   3.765   7.903   1.461  1.9111  0.3113  0.7558
 8955SOL    HW239339   3.754   8.046   1.383 -0.6994 -0.1812  0.1770
 8956SOL     OW39340   1.987   1.066   8.720 -0.1490 -0.1950 -0.2406
 8956SOL    HW139341   1.935   1.105   8.644 -0.1817 -0.3296 -0.2867
 8956SOL    HW239342   1.924   1.030   8.788 -0.1152 -0.8157 -0.5326
 8957SOL     OW39343   1.759   1.903   7.228  0.3188 -0.2013 -0.0280
 8957SOL    HW139344   1.767   2.000   7.252  0.1280 -0.1991  0.0233
 8957SOL    HW239345   1.836   1.853   7.267  0.1837 -0.1435  0.3089
 8958SOL     OW39346   4.562   6.076   8.102  0.2518 -0.0604  0.2547
 8958SOL    HW139347   4.470   6.110   8.123  0.7816  1.9475 -0.4881
 8958SOL    HW239348   4.586   6.102   8.008  1.8346  0.0499  0.6769
 8959SOL     OW39349   4.304   8.055   5.397  0.1532  0.3477 -0.8060
 8959SOL    HW139350   4.395   8.075   5.360  1.0030 -1.3168  0.2829
 8959SOL    HW239351   4.314   8.007   5.484 -1.7888  1.8780  0.3055
 8960SOL     OW39352   8.888   2.977   1.262 -0.0554  0.4973  0.4324
 8960SOL    HW139353   8.789   2.978   1.248  0.2484  1.2893 -1.7605
 8960SOL    HW239354   8.933   3.029   1.190  2.0702 -1.1165  0.5302
 8961SOL     OW39355   1.629   6.253   2.566  0.4080 -0.0518 -0.4916
 8961SOL    HW139356   1.613   6.188   2.492  1.4780  1.1925 -1.8513
 8961SOL    HW239357   1.599   6.213   2.652 -1.6479 -1.1927 -1.6998
 8962SOL     OW39358   4.290   7.142   6.118  0.5408  0.4186 -0.1473
 8962SOL    HW139359   4.331   7.159   6.207 -2.6627 -0.7472  1.6220
 8962SOL    HW239360   4.345   7.075   6.068  1.8641  0.3847  1.3135
 8963SOL     OW39361   1.794   0.997   0.029  0.1588 -0.2189  0.2036
 8963SOL    HW139362   1.839   0.988   0.118  0.9812  1.6719  0.0065
 8963SOL    HW239363   1.707   1.045   0.041  1.6265  2.7260 -0.3367
 8964SOL     OW39364   6.875   4.882   1.301  0.0721  0.9331 -0.7002
 8964SOL    HW139365   6.934   4.918   1.373 -0.2631  1.0026 -0.4571
 8964SOL    HW239366   6.873   4.783   1.305 -0.1190  0.9437 -0.4685
 8965SOL     OW39367   5.252   8.725   0.857 -0.1932 -0.1800  0.3227
 8965SOL    HW139368   5.197   8.654   0.900 -0.7406  0.5274  0.7925
 8965SOL    HW239369   5.192   8.797   0.821  0.1343 -1.4370 -2.8918
 8966SOL     OW39370   1.987   7.560   0.623  0.0360 -0.1686  0.0632
 8966SOL    HW139371   2.075   7.519   0.600  0.1607  1.6682 -3.0784
 8966SOL    HW239372   1.924   7.549   0.546 -2.0254 -0.1672  1.7042
 8967SOL     OW39373   0.640   0.213   2.006 -0.6892  0.5401 -1.0495
 8967SOL    HW139374   0.655   0.312   2.010 -0.0441  0.4111 -0.1137
 8967SOL    HW239375   0.720   0.169   1.965 -0.9129  0.3968 -1.3286
 8968SOL     OW39376   6.844   5.614   5.137  0.1565  0.6282  0.2908
 8968SOL    HW139377   6.852   5.541   5.204  1.5680  0.1282 -0.4125
 8968SOL    HW239378   6.816   5.576   5.049  3.4407  0.5610 -0.7604
 8969SOL     OW39379   7.920   5.332   6.378  0.5908 -0.3717  0.2463
 8969SOL    HW139380   7.872   5.268   6.438  0.4091  0.3077  0.8343
 8969SOL    HW239381   7.896   5.426   6.403 -0.5926 -0.0942 -1.8131
 8970SOL     OW39382   5.291   1.323   0.256  0.2562 -0.3050 -0.8599
 8970SOL    HW139383   5.267   1.409   0.212 -0.0109 -0.9773 -2.0586
 8970SOL    HW239384   5.216   1.295   0.317 -0.0159 -0.1134 -1.1059
 8971SOL     OW39385   6.164   6.107   0.241 -0.4386  0.2262 -0.0900
 8971SOL    HW139386   6.170   6.121   0.340  0.1178 -0.7923  0.0263
 8971SOL    HW239387   6.237   6.157   0.195 -0.0529 -0.1604  0.1035
 8972SOL     OW39388   3.590   3.354   2.523  0.2010  0.1841 -0.0455
 8972SOL    HW139389   3.616   3.304   2.440 -1.2891 -0.7722  0.0540
 8972SOL    HW239390   3.585   3.291   2.600 -1.4734  0.5188  0.1307
 8973SOL     OW39391   6.522   8.004   1.943  0.2788 -0.0775 -0.2384
 8973SOL    HW139392   6.482   7.926   1.894 -0.6346  0.2866 -0.0980
 8973SOL    HW239393   6.564   8.067   1.877  2.2073 -1.3400 -0.2378
 8974SOL     OW39394   0.555   0.327   0.155 -0.4339  0.2331 -0.0734
 8974SOL    HW139395   0.634   0.362   0.104  0.9623 -1.9856  0.4455
 8974SOL    HW239396   0.536   0.233   0.126 -2.4475  0.4835  0.3432
 8975SOL     OW39397   2.344   1.916   1.430 -0.6094 -0.4536 -0.5937
 8975SOL    HW139398   2.252   1.897   1.397 -0.9852 -0.8401  0.6288
 8975SOL    HW239399   2.368   2.011   1.410 -1.5617 -0.1384 -0.2656
 8976SOL     OW39400   6.576   1.983   1.189 -0.4226 -0.1435 -0.7978
 8976SOL    HW139401   6.487   2.018   1.160  0.7948  2.8408 -1.0662
 8976SOL    HW239402   6.612   2.041   1.263  0.8877 -1.8854 -0.0287
 8977SOL     OW39403   7.824   8.076   6.680 -0.1379  0.0819  0.4832
 8977SOL    HW139404   7.879   8.006   6.726 -1.6648 -0.9012  0.8268
 8977SOL    HW239405   7.878   8.117   6.606  0.9226 -1.1377  0.5623
 8978SOL     OW39406   7.512   7.778   2.494  0.0820  0.2210 -0.0121
 8978SOL    HW139407   7.520   7.683   2.522  0.0379  0.6533  1.5271
 8978SOL    HW239408   7.440   7.787   2.425  0.7963 -1.0127 -0.9152
 8979SOL     OW39409   0.323   3.813   0.695 -0.1818 -0.3064  0.5460
 8979SOL    HW139410   0.344   3.721   0.727 -0.7668 -1.3154 -1.8773
 8979SOL    HW239411   0.401   3.848   0.642 -0.9992 -0.4611 -0.7694
 8980SOL     OW39412   4.557   1.782   3.659  0.0835  0.4366 -0.2621
 8980SOL    HW139413   4.603   1.732   3.733  0.1766  1.4022  0.3329
 8980SOL    HW239414   4.538   1.876   3.688 -2.7301 -0.0757 -0.3131
 8981SOL     OW39415   1.987   5.804   5.306 -0.1691 -0.0317 -0.4787
 8981SOL    HW139416   2.047   5.755   5.243  0.0553  0.3568 -0.5668
 8981SOL    HW239417   1.942   5.739   5.367 -0.8028 -0.4687 -1.3947
 8982SOL     OW39418   5.719   8.922   5.448  0.1938  0.2426 -0.3074
 8982SOL    HW139419   5.739   8.837   5.399  0.5253  0.4274 -0.4879
 8982SOL    HW239420   5.648   8.904   5.517  0.0009 -0.0985 -0.5930
 8983SOL     OW39421   4.065   7.970   1.444 -0.2195  0.0276  0.5336
 8983SOL    HW139422   4.061   8.029   1.524 -0.7228  1.3428 -0.4447
 8983SOL    HW239423   3.982   7.981   1.390  0.3820 -0.3820 -0.4891
 8984SOL     OW39424   6.186   0.200   2.277  0.1626  0.4398  0.2274
 8984SOL    HW139425   6.112   0.263   2.253  0.1483  0.4103  0.1978
 8984SOL    HW239426   6.150   0.108   2.291  0.2349  0.3712 -0.0467
 8985SOL     OW39427   3.731   6.025   2.943 -0.0415  0.7604  0.4706
 8985SOL    HW139428   3.710   6.119   2.969 -1.0635  0.4475  0.8111
 8985SOL    HW239429   3.704   6.010   2.848  1.0321  1.0916  0.1151
 8986SOL     OW39430   3.584   1.518   6.966  0.1687 -0.5733 -0.2633
 8986SOL    HW139431   3.523   1.595   6.985  1.6531  0.2545  1.2973
 8986SOL    HW239432   3.595   1.464   7.050  2.4170 -0.0939 -0.2330
 8987SOL     OW39433   0.395   2.813   8.481  0.1054 -0.0771 -0.2518
 8987SOL    HW139434   0.443   2.777   8.561  1.7595  0.7751 -0.8485
 8987SOL    HW239435   0.364   2.737   8.424  2.9577 -0.6268 -1.1503
 8988SOL     OW39436   7.415   6.671   2.994 -0.2941  0.3196  0.1734
 8988SOL    HW139437   7.360   6.655   2.911 -0.1307  1.9251 -0.2563
 8988SOL    HW239438   7.389   6.759   3.035  1.2778  0.6347  0.5158
 8989SOL     OW39439   4.111   3.336   6.726 -0.1732 -0.3298 -0.1142
 8989SOL    HW139440   4.066   3.411   6.677  0.4078  1.0466  1.4463
 8989SOL    HW239441   4.042   3.266   6.748 -0.7568 -0.1780 -1.3666
 8990SOL     OW39442   3.376   8.765   4.598 -0.4057  0.0183  0.0143
 8990SOL    HW139443   3.403   8.689   4.658 -1.6839  1.1115  2.0425
 8990SOL    HW239444   3.325   8.730   4.520  0.3462 -1.3421  0.1273
 8991SOL     OW39445   4.178   0.918   7.549  0.2928 -0.1833 -0.0154
 8991SOL    HW139446   4.158   1.014   7.530 -0.6380 -1.1607 -4.6499
 8991SOL    HW239447   4.238   0.882   7.477  0.7034 -3.0459  1.6972
 8992SOL     OW39448   1.529   4.190   7.033 -0.2996 -0.5724 -0.1665
 8992SOL    HW139449   1.553   4.209   6.937 -0.2656  0.2431  0.0047
 8992SOL    HW239450   1.607   4.149   7.079  0.4224  1.0777  0.0977
 8993SOL     OW39451   6.358   8.115   0.985 -0.3281  0.0660 -0.1816
 8993SOL    HW139452   6.430   8.164   1.036  0.4903 -2.5818  1.2860
 8993SOL    HW239453   6.356   8.149   0.891  2.1442  0.9246  0.0201
 8994SOL     OW39454   3.005   2.592   8.605 -0.0401 -0.3234 -0.0855
 8994SOL    HW139455   3.013   2.668   8.670 -0.1168 -0.9244  0.6334
 8994SOL    HW239456   2.917   2.598   8.557  0.2037  0.3689 -0.4495
 8995SOL     OW39457   3.564   6.227   6.909  0.1769 -0.3848  0.2046
 8995SOL    HW139458   3.556   6.128   6.921 -2.1311 -0.7242 -3.4325
 8995SOL    HW239459   3.522   6.274   6.987 -0.8607 -2.2709  0.7948
 8996SOL     OW39460   8.572   3.210   4.619  0.4982  0.1132  0.5493
 8996SOL    HW139461   8.623   3.221   4.534  0.2240  0.4714  0.4333
 8996SOL    HW239462   8.635   3.223   4.696  0.4875  1.0038  0.4069
 8997SOL     OW39463   7.259   3.791   6.523 -0.0445  0.3183 -0.4880
 8997SOL    HW139464   7.293   3.774   6.615 -0.3339  0.0894 -0.4200
 8997SOL    HW239465   7.314   3.739   6.457 -1.8146 -2.1028 -0.1518
 8998SOL     OW39466   4.400   1.392   1.115 -0.3642  0.6436 -0.6195
 8998SOL    HW139467   4.475   1.455   1.133 -0.3934  1.2229 -2.5321
 8998SOL    HW239468   4.436   1.304   1.084 -0.4609  0.7145 -0.9301
 8999SOL     OW39469   3.413   0.056   6.150 -0.8067  0.2553 -1.0048
 8999SOL    HW139470   3.476   0.133   6.144  0.5134 -0.7450 -0.1944
 8999SOL    HW239471   3.458  -0.027   6.117 -0.8755 -0.9393  1.8355
 9000SOL     OW39472   5.608   5.695   7.896  0.7234  0.1304 -0.2931
 9000SOL    HW139473   5.691   5.743   7.924  0.9656 -0.8176  0.6204
 9000SOL    HW239474   5.573   5.640   7.972 -1.8342  2.0019 -0.0388
 9001SOL     OW39475   4.119   3.083   2.886 -0.0033  0.2538 -0.2835
 9001SOL    HW139476   4.089   3.007   2.829 -0.9344 -0.7135  1.4459
 9001SOL    HW239477   4.127   3.052   2.981  0.9433  1.9736  0.2217
 9002SOL     OW39478   8.614   8.665   5.166 -0.7676  0.4279 -0.6812
 9002SOL    HW139479   8.606   8.576   5.212  1.3744  0.6604  0.1743
 9002SOL    HW239480   8.632   8.650   5.069 -2.0026 -0.0586 -0.8487
 9003SOL     OW39481   2.731   4.961   6.903 -0.6222 -0.0477  0.3840
 9003SOL    HW139482   2.649   5.000   6.863 -2.4457 -1.8665  2.2688
 9003SOL    HW239483   2.732   4.975   7.002  0.0905 -2.1868  0.7221
 9004SOL     OW39484   4.069   1.052   8.195 -0.0448 -0.1802  0.0944
 9004SOL    HW139485   4.057   0.968   8.143  0.7543  0.3294 -0.9317
 9004SOL    HW239486   4.156   1.095   8.171  0.4020  0.0223  1.9273
 9005SOL     OW39487   7.310   6.772   1.845 -0.0599 -0.3298 -0.3019
 9005SOL    HW139488   7.212   6.790   1.848 -0.1339 -1.0078  1.9417
 9005SOL    HW239489   7.360   6.859   1.846 -0.4974  0.0644  6.4726
 9006SOL     OW39490   7.263   4.460   8.106 -0.0160 -0.4729  0.0286
 9006SOL    HW139491   7.224   4.488   8.193 -0.1078  0.7959 -0.4084
 9006SOL    HW239492   7.244   4.529   8.037  1.2874 -0.7832 -0.6675
 9007SOL     OW39493   3.513   3.671   8.021 -0.5837 -0.0593 -0.2615
 9007SOL    HW139494   3.575   3.606   8.064 -0.1670  0.9835  0.7334
 9007SOL    HW239495   3.451   3.622   7.959 -0.4839 -1.4225  0.7030
 9008SOL     OW39496   1.906   6.032   6.913  0.5807  0.1973 -0.2910
 9008SOL    HW139497   1.905   6.132   6.908  1.6866  0.2182 -0.2760
 9008SOL    HW239498   1.980   5.997   6.856  0.2855 -0.6055 -0.1816
 9009SOL     OW39499   4.702   4.929   5.134 -0.2805  0.7056 -0.2526
 9009SOL    HW139500   4.604   4.935   5.153 -0.6878  0.5638 -2.1984
 9009SOL    HW239501   4.741   4.849   5.181 -1.4341 -0.1680 -0.7631
 9010SOL     OW39502   4.113   1.182   8.614 -0.1580  0.1225 -0.4462
 9010SOL    HW139503   4.165   1.133   8.545  1.5932  2.4734 -0.8680
 9010SOL    HW239504   4.027   1.214   8.575  0.3999  0.6288 -1.2736
 9011SOL     OW39505   6.564   4.067   3.488 -0.4112  0.3919 -0.2397
 9011SOL    HW139506   6.593   4.038   3.397 -0.7649 -0.3278 -0.1195
 9011SOL    HW239507   6.472   4.033   3.507 -1.7081  3.3453 -0.9466
 9012SOL     OW39508   4.104   6.484   7.462 -0.4341  0.4501  0.5172
 9012SOL    HW139509   4.149   6.395   7.471 -1.2596  0.2451  3.1589
 9012SOL    HW239510   4.051   6.503   7.545 -1.2235  2.8841 -0.4965
 9013SOL     OW39511   3.799   3.958   4.936 -0.2039  0.1401 -0.5396
 9013SOL    HW139512   3.898   3.960   4.922 -0.3331  0.5863 -1.3653
 9013SOL    HW239513   3.772   4.036   4.991 -0.0124 -0.3560  0.2763
 9014SOL     OW39514   8.183   6.259   5.665 -0.1163 -0.1780 -0.4912
 9014SOL    HW139515   8.259   6.323   5.658  0.7575 -0.6355  3.4192
 9014SOL    HW239516   8.215   6.166   5.647 -0.2526 -0.1309 -0.9950
 9015SOL     OW39517   4.513   3.756   8.188 -0.2449  0.2452 -0.3254
 9015SOL    HW139518   4.463   3.801   8.262 -2.5706 -1.4306 -0.8017
 9015SOL    HW239519   4.522   3.820   8.111  0.7046  1.4327  0.7434
 9016SOL     OW39520   0.619   5.096   2.947 -0.0322 -0.3682  0.2389
 9016SOL    HW139521   0.560   5.105   3.028  0.3702 -1.1695  0.6280
 9016SOL    HW239522   0.702   5.046   2.972  0.3621 -0.1050 -0.5388
 9017SOL     OW39523   4.510   4.122   3.673 -0.2927 -0.6969 -0.0165
 9017SOL    HW139524   4.418   4.084   3.668  0.1162 -1.6805 -0.1162
 9017SOL    HW239525   4.566   4.084   3.599 -0.2615  1.1421 -0.9731
 9018SOL     OW39526   3.069   5.268   1.393 -1.4417  0.0867  0.4108
 9018SOL    HW139527   3.140   5.284   1.461 -0.7895 -0.0728 -0.2262
 9018SOL    HW239528   3.089   5.184   1.342 -2.1088  0.0112  0.2565
 9019SOL     OW39529   3.170   2.194   6.042 -0.0689  0.1498 -0.4955
 9019SOL    HW139530   3.143   2.270   6.101  0.5459 -0.2495  0.2972
 9019SOL    HW239531   3.228   2.130   6.093  1.2719  0.3045 -1.7931
 9020SOL     OW39532   6.252   1.322   0.127  0.2237 -0.8420 -0.5624
 9020SOL    HW139533   6.324   1.390   0.121 -2.4196  2.0620 -0.3613
 9020SOL    HW239534   6.245   1.273   0.040  1.5711 -0.3047 -0.9789
 9021SOL     OW39535   4.573   4.837   1.929 -0.3734  0.5590  0.5687
 9021SOL    HW139536   4.624   4.752   1.917 -2.3739 -0.8238  1.3543
 9021SOL    HW239537   4.500   4.821   1.996 -0.0096  3.2532  1.6481
 9022SOL     OW39538   1.582   7.119   1.062 -0.1572 -0.2561  0.0009
 9022SOL    HW139539   1.567   7.197   1.123 -0.2736  0.0873 -0.4677
 9022SOL    HW239540   1.496   7.070   1.049 -0.3718  0.3349 -0.7981
 9023SOL     OW39541   2.754   2.761   0.546 -0.0330 -0.1375  0.2750
 9023SOL    HW139542   2.706   2.805   0.471 -0.3129  1.5205  1.3864
 9023SOL    HW239543   2.690   2.741   0.620  0.4095 -0.8592  0.4651
 9024SOL     OW39544   0.935   2.387   7.909 -0.1601  0.3280  0.0406
 9024SOL    HW139545   0.956   2.466   7.967  0.4066 -0.3456  0.7562
 9024SOL    HW239546   0.988   2.308   7.940 -0.9416 -0.4114 -0.5019
 9025SOL     OW39547   2.437   5.715   7.171  0.2597  0.3462  0.1641
 9025SOL    HW139548   2.426   5.767   7.256 -1.0135  0.3753 -0.0112
 9025SOL    HW239549   2.348   5.682   7.140  0.8302 -0.4362 -0.6817
 9026SOL     OW39550   6.945   3.538   2.846  0.3888 -0.1390  0.1407
 9026SOL    HW139551   6.923   3.451   2.889  1.7667 -1.2648 -1.4173
 9026SOL    HW239552   6.906   3.542   2.754  2.1538 -0.0078 -0.6177
 9027SOL     OW39553   8.082   4.432   3.955  0.1648  0.1523  0.4557
 9027SOL    HW139554   8.048   4.393   4.041 -0.6591 -2.6212 -1.0708
 9027SOL    HW239555   8.166   4.482   3.973 -0.0746 -0.2332  2.9012
 9028SOL     OW39556   1.488   5.455   6.166  0.2553  0.3483  1.0586
 9028SOL    HW139557   1.461   5.519   6.238  1.2385  0.2864  1.4862
 9028SOL    HW239558   1.574   5.411   6.191  0.5885  0.3027 -0.1348
 9029SOL     OW39559   0.330   7.294   7.669 -0.4132 -0.2425  0.1361
 9029SOL    HW139560   0.309   7.390   7.651 -4.1293 -0.6929  1.5989
 9029SOL    HW239561   0.304   7.239   7.590 -0.9125 -0.3442  0.3690
 9030SOL     OW39562   0.738   7.242   3.312  0.0073  0.4638 -0.1138
 9030SOL    HW139563   0.771   7.157   3.271 -0.6515  0.0425  0.2209
 9030SOL    HW239564   0.734   7.314   3.242  0.6964  0.2601 -0.3663
 9031SOL     OW39565   6.027   3.199   0.827  0.2222 -0.0467  0.3006
 9031SOL    HW139566   5.944   3.201   0.881 -0.3953  0.4607 -0.6480
 9031SOL    HW239567   6.101   3.156   0.879 -0.6397 -0.5186  1.1292
 9032SOL     OW39568   7.451   5.843   5.456  0.0191  0.1410 -0.1374
 9032SOL    HW139569   7.406   5.883   5.376  0.7344  0.0522 -0.5895
 9032SOL    HW239570   7.457   5.911   5.529  0.7471  0.7044 -0.7099
 9033SOL     OW39571   1.519   5.803   5.058  0.3460 -0.0641 -0.1367
 9033SOL    HW139572   1.430   5.756   5.055 -0.2213  0.9538  0.3927
 9033SOL    HW239573   1.507   5.895   5.097  1.7196 -0.0999  0.3972
 9034SOL     OW39574   1.301   4.386   0.562  0.1086  0.1120  0.9720
 9034SOL    HW139575   1.374   4.340   0.613  1.0707  0.9791  0.3893
 9034SOL    HW239576   1.249   4.318   0.511  1.0093 -0.4260  0.7600
 9035SOL     OW39577   7.101   3.279   7.743 -0.0094 -0.8531 -0.2944
 9035SOL    HW139578   7.060   3.349   7.802 -1.2022 -0.1240 -1.9305
 9035SOL    HW239579   7.179   3.238   7.789 -0.7864 -0.1632  1.6981
 9036SOL     OW39580   6.058   7.824   0.881 -0.2184 -0.2665 -0.0706
 9036SOL    HW139581   5.966   7.861   0.895  0.7243  1.9214  0.3954
 9036SOL    HW239582   6.072   7.748   0.945 -1.7485 -0.7250 -0.2521
 9037SOL     OW39583   3.468   1.288   1.188  0.1188  0.0471 -0.2459
 9037SOL    HW139584   3.407   1.361   1.158 -0.5898 -1.3837 -2.4106
 9037SOL    HW239585   3.467   1.282   1.288 -2.1610  0.9627 -0.1974
 9038SOL     OW39586   0.658   3.094   6.283 -0.3544  0.2203 -0.2585
 9038SOL    HW139587   0.708   3.145   6.212  0.8376  0.4516  0.7289
 9038SOL    HW239588   0.663   3.144   6.369 -1.5666 -0.1989  0.0589
 9039SOL     OW39589   7.474   1.137   1.293  0.0398 -0.1354 -0.2419
 9039SOL    HW139590   7.388   1.097   1.260 -0.2127  0.7990 -0.7040
 9039SOL    HW239591   7.536   1.151   1.216 -0.1164  0.9677 -0.1735
 9040SOL     OW39592   8.689   2.212   4.145  0.0087  0.1030 -0.1378
 9040SOL    HW139593   8.782   2.181   4.128  0.3807  0.7455  0.7442
 9040SOL    HW239594   8.679   2.306   4.114 -0.4393 -0.0681 -0.5239
 9041SOL     OW39595   6.486   6.873   4.207  0.3000 -0.0931 -0.4703
 9041SOL    HW139596   6.584   6.890   4.218  0.2240 -0.1575  0.3234
 9041SOL    HW239597   6.445   6.852   4.296 -0.5639  0.6357 -0.6798
 9042SOL     OW39598   4.281   3.653   7.736  0.5681  0.6069 -0.3281
 9042SOL    HW139599   4.346   3.720   7.701  1.6295 -0.9549 -1.4326
 9042SOL    HW239600   4.291   3.567   7.686 -1.4522 -0.0861  0.3729
 9043SOL     OW39601   3.943   1.890   6.767 -0.4232  0.3525 -0.3384
 9043SOL    HW139602   3.857   1.918   6.810 -0.3010  1.0870 -0.5489
 9043SOL    HW239603   3.939   1.793   6.744 -1.3782  0.4806 -0.7636
 9044SOL     OW39604   4.945   6.499   2.159 -0.3203  0.1584 -0.3820
 9044SOL    HW139605   4.905   6.508   2.250 -0.8265 -1.1550 -0.4549
 9044SOL    HW239606   4.873   6.499   2.091 -0.1078 -0.9616 -0.6141
 9045SOL     OW39607   8.473   5.804   6.520 -0.2975 -0.0477  0.1111
 9045SOL    HW139608   8.440   5.723   6.472  0.3711  0.3442 -1.0146
 9045SOL    HW239609   8.406   5.830   6.591 -0.8376 -1.1659  0.0196
 9046SOL     OW39610   7.673   2.515   7.200 -0.8081  0.3735  0.4948
 9046SOL    HW139611   7.693   2.567   7.283  0.8729 -2.0910  1.6743
 9046SOL    HW239612   7.603   2.447   7.219 -0.6420  0.0049 -0.1828
 9047SOL     OW39613   6.772   3.133   1.834  0.5244 -0.2538 -0.1640
 9047SOL    HW139614   6.722   3.068   1.777 -1.5321  2.0113 -0.9965
 9047SOL    HW239615   6.852   3.167   1.784  0.5810 -0.7547 -0.4186
 9048SOL     OW39616   7.929   2.221   6.659  0.1320 -0.2936 -0.1028
 9048SOL    HW139617   7.876   2.226   6.575 -1.3851 -1.0429  0.7927
 9048SOL    HW239618   7.921   2.129   6.699  0.7633  0.0751  0.9093
 9049SOL     OW39619   0.301   7.687   6.549 -0.4127  0.3976 -0.3079
 9049SOL    HW139620   0.284   7.728   6.459 -0.7147  0.0789 -0.3978
 9049SOL    HW239621   0.383   7.728   6.589 -0.5465  0.8886 -0.5198
 9050SOL     OW39622   8.916   6.373   0.944 -0.2886 -0.1755 -0.0631
 9050SOL    HW139623   8.994   6.435   0.942 -0.5254  0.1438  0.4978
 9050SOL    HW239624   8.917   6.322   1.030  0.5063 -1.7212 -0.9738
 9051SOL     OW39625   2.664   6.352   7.257  0.2306  0.4604  0.6510
 9051SOL    HW139626   2.743   6.385   7.308  1.0141  0.3961 -0.5082
 9051SOL    HW239627   2.676   6.373   7.160 -0.3313 -1.1725  0.2233
 9052SOL     OW39628   5.973   7.368   8.708  0.2078  0.1198 -0.7610
 9052SOL    HW139629   6.014   7.448   8.754  0.0853  0.3174 -0.9918
 9052SOL    HW239630   5.874   7.376   8.711  0.1807 -0.3542 -0.2135
 9053SOL     OW39631   2.110   7.708   1.997 -0.5345  0.5170  0.0327
 9053SOL    HW139632   2.053   7.716   2.079 -2.2763  1.4113 -1.2384
 9053SOL    HW239633   2.067   7.647   1.931  1.9387 -1.9689  0.6231
 9054SOL     OW39634   0.309   8.162   0.709  0.0718  0.1119  0.0425
 9054SOL    HW139635   0.214   8.136   0.724  0.4690 -2.8551 -2.1191
 9054SOL    HW239636   0.369   8.084   0.731  1.8202  1.2187 -0.6931
 9055SOL     OW39637   3.711   4.082   8.745 -0.4042  0.1419 -0.0557
 9055SOL    HW139638   3.672   3.991   8.732 -0.0813  0.3006 -2.3664
 9055SOL    HW239639   3.725   4.099   8.842 -0.8719 -2.1019  0.4249
 9056SOL     OW39640   4.252   1.338   2.515 -0.0851 -0.0519 -0.0775
 9056SOL    HW139641   4.157   1.365   2.497  0.4118  0.2600 -2.5016
 9056SOL    HW239642   4.291   1.399   2.584 -0.9462  1.3423 -0.7823
 9057SOL     OW39643   6.760   4.414   5.736 -0.0563  0.3148 -0.1904
 9057SOL    HW139644   6.666   4.449   5.731  0.1328  0.6907 -1.1972
 9057SOL    HW239645   6.761   4.331   5.792 -1.0465  0.1202 -0.4456
 9058SOL     OW39646   3.092   2.728   6.435 -0.8513 -0.5212  0.5677
 9058SOL    HW139647   2.994   2.742   6.451 -0.7402  1.7571 -0.4487
 9058SOL    HW239648   3.107   2.702   6.340 -0.2977  2.0504 -0.1083
 9059SOL     OW39649   7.481   7.052   8.314  0.4065  0.4125 -0.0250
 9059SOL    HW139650   7.433   7.123   8.262  1.2665 -1.2107 -3.1212
 9059SOL    HW239651   7.578   7.074   8.317  0.4364  0.2093  0.4553
 9060SOL     OW39652   8.812   8.582   7.886 -0.1354  0.8533  0.3007
 9060SOL    HW139653   8.794   8.606   7.981 -0.0438  2.5159 -0.0889
 9060SOL    HW239654   8.857   8.492   7.882 -2.0495 -0.1991  1.6712
 9061SOL     OW39655   8.103   6.826   6.212 -0.3141  0.1904  0.6576
 9061SOL    HW139656   8.188   6.844   6.163 -0.7591 -2.3744 -1.1455
 9061SOL    HW239657   8.025   6.855   6.156 -0.8218 -2.7451 -0.2456
 9062SOL     OW39658   6.741   5.539   4.298 -0.7655  1.0507 -0.3890
 9062SOL    HW139659   6.818   5.537   4.362 -0.4700  1.8311 -0.7125
 9062SOL    HW239660   6.677   5.611   4.324 -1.1743  0.6774 -0.3635
 9063SOL     OW39661   8.361   0.033   1.313 -0.3856  0.0909 -0.5168
 9063SOL    HW139662   8.279   0.006   1.363 -0.5654  0.5748 -0.5452
 9063SOL    HW239663   8.409   0.104   1.365  0.8311 -1.2703  0.2469
 9064SOL     OW39664   6.792   0.486   7.972  0.0234 -0.4293 -0.2607
 9064SOL    HW139665   6.717   0.466   8.034  1.2732 -0.7623  1.1485
 9064SOL    HW239666   6.780   0.578   7.933 -1.9178 -1.0786 -1.2573
 9065SOL     OW39667   7.660   7.443   3.413  0.0754  0.3995 -0.2005
 9065SOL    HW139668   7.662   7.456   3.512 -0.2345 -0.0519 -0.1337
 9065SOL    HW239669   7.634   7.349   3.392 -0.9705  0.7893 -0.7275
 9066SOL     OW39670   8.349   2.898   0.335 -0.3021 -0.0476 -0.4733
 9066SOL    HW139671   8.402   2.898   0.250  0.6326  1.1128  0.0945
 9066SOL    HW239672   8.409   2.920   0.412 -2.1991  5.0750 -0.2430
 9067SOL     OW39673   0.138   7.818   2.409 -0.1002 -0.3955 -0.4141
 9067SOL    HW139674   0.222   7.839   2.458 -0.6989  0.5492  0.2474
 9067SOL    HW239675   0.153   7.743   2.345  1.6386  0.7830 -1.4369
 9068SOL     OW39676   6.636   2.396   2.545  0.0775 -0.2082 -0.1925
 9068SOL    HW139677   6.562   2.457   2.574 -0.9221 -1.2492 -0.5344
 9068SOL    HW239678   6.723   2.429   2.583 -0.8865 -0.3112  2.1951
 9069SOL     OW39679   8.597   0.360   1.145 -0.4692 -0.4507 -0.5804
 9069SOL    HW139680   8.538   0.434   1.178 -0.6197 -0.8066 -0.0489
 9069SOL    HW239681   8.632   0.383   1.054  2.8709  2.2566  1.2487
 9070SOL     OW39682   5.987   3.396   7.385  0.2775  0.3089 -0.1069
 9070SOL    HW139683   6.006   3.340   7.466  0.3689 -2.7864 -2.1736
 9070SOL    HW239684   6.069   3.404   7.330 -0.8638 -1.5586 -2.1756
 9071SOL     OW39685   2.339   4.604   5.938  0.0535  0.3982  0.7532
 9071SOL    HW139686   2.261   4.664   5.956  0.6635  1.4758 -0.1778
 9071SOL    HW239687   2.423   4.657   5.944  0.5352 -0.1563 -1.0518
 9072SOL     OW39688   8.682   7.303   8.211  0.5306  0.5494  0.2969
 9072SOL    HW139689   8.599   7.280   8.160  0.6264  0.8907 -0.0136
 9072SOL    HW239690   8.705   7.228   8.273 -0.3965  0.7404  0.8836
 9073SOL     OW39691   8.674   5.474   2.899  0.0711  0.5234 -0.7126
 9073SOL    HW139692   8.762   5.442   2.864  1.0334  1.7062  0.5608
 9073SOL    HW239693   8.669   5.457   2.998 -1.2076  0.2981 -0.8077
 9074SOL     OW39694   7.675   3.151   0.772 -0.2282  0.5403 -0.1327
 9074SOL    HW139695   7.580   3.140   0.803  0.3145 -0.6215  1.1546
 9074SOL    HW239696   7.680   3.138   0.673 -1.1204 -1.2397  0.0393
 9075SOL     OW39697   7.410   2.376   5.444  0.3127 -0.6305  0.5260
 9075SOL    HW139698   7.461   2.454   5.408  0.8919 -1.1868  0.1318
 9075SOL    HW239699   7.317   2.405   5.467 -0.0433 -0.2067 -1.3265
 9076SOL     OW39700   4.347   5.033   6.106  0.0982  0.0654  0.5311
 9076SOL    HW139701   4.362   4.947   6.155 -0.1210 -1.2990 -1.7565
 9076SOL    HW239702   4.262   5.075   6.139 -1.1140 -1.8600 -0.0806
 9077SOL     OW39703   5.128   4.063   1.254  0.2786  0.4325  0.2139
 9077SOL    HW139704   5.132   4.144   1.195  3.1784  0.4639  0.3670
 9077SOL    HW239705   5.152   4.089   1.348  0.2075 -0.4001  0.4641
 9078SOL     OW39706   6.315   8.308   7.314 -0.5580  0.7108 -0.3261
 9078SOL    HW139707   6.224   8.273   7.292 -0.7645  2.4021 -2.3465
 9078SOL    HW239708   6.308   8.376   7.387 -0.8921  0.6983 -0.3450
 9079SOL     OW39709   2.497   0.334   5.601  0.3181  0.2320 -0.2681
 9079SOL    HW139710   2.494   0.271   5.523 -1.5219 -0.5546  0.4179
 9079SOL    HW239711   2.514   0.282   5.685  0.0270  0.8089  0.1480
 9080SOL     OW39712   2.917   3.485   3.356 -0.2001 -0.2147  0.0166
 9080SOL    HW139713   2.874   3.453   3.272  0.1663 -4.0042  1.2048
 9080SOL    HW239714   2.979   3.415   3.391 -0.7039  1.0771  3.6973
 9081SOL     OW39715   0.659   0.893   0.005 -0.2136 -0.1165  0.2283
 9081SOL    HW139716   0.606   0.815  -0.030 -0.5154  0.2443 -0.1251
 9081SOL    HW239717   0.713   0.932  -0.070 -2.1146  1.6775 -0.2412
 9082SOL     OW39718   3.378   4.093   7.889  0.4295  0.3530  0.0892
 9082SOL    HW139719   3.453   4.029   7.870  0.1150 -0.5480  1.7642
 9082SOL    HW239720   3.405   4.185   7.859  1.6501 -0.2043 -0.5903
 9083SOL     OW39721   5.346   6.249   3.966  0.1982  0.0408 -0.4034
 9083SOL    HW139722   5.407   6.199   4.028 -2.3412 -1.1900  1.1933
 9083SOL    HW239723   5.357   6.213   3.873  1.1128 -0.9075  0.0548
 9084SOL     OW39724   1.431   0.429   5.084  0.0322  0.9001  0.0491
 9084SOL    HW139725   1.498   0.448   5.155 -0.6105  0.1371  0.8785
 9084SOL    HW239726   1.402   0.514   5.041  0.7177  1.3291  0.4347
 9085SOL     OW39727   6.292   0.782   8.270  0.5662  0.0296 -1.0838
 9085SOL    HW139728   6.330   0.828   8.190 -0.0692  0.8026 -0.9526
 9085SOL    HW239729   6.204   0.741   8.246  0.1330  0.6956 -0.6654
 9086SOL     OW39730   5.023   1.244   7.159 -0.4533 -0.5482 -0.2217
 9086SOL    HW139731   5.034   1.288   7.248  0.2126  2.3075 -1.6697
 9086SOL    HW239732   5.098   1.180   7.144  0.6832  0.6249  0.3478
 9087SOL     OW39733   0.795   3.514   3.516  0.0941  0.0512  0.5074
 9087SOL    HW139734   0.807   3.423   3.477  0.1341  0.2771 -0.0256
 9087SOL    HW239735   0.795   3.582   3.442 -1.2331  0.3662  0.7745
 9088SOL     OW39736   3.121   2.567   6.211  0.0018 -0.2270  0.0649
 9088SOL    HW139737   3.102   2.478   6.255 -1.3148 -0.3044 -0.6213
 9088SOL    HW239738   3.213   2.566   6.172 -0.6192 -1.9373 -1.4435
 9089SOL     OW39739   2.562   3.509   7.523  0.1545 -0.1962  0.1049
 9089SOL    HW139740   2.477   3.505   7.472  1.0455  0.1047 -1.4098
 9089SOL    HW239741   2.568   3.595   7.573  0.2447  0.4180 -0.9645
 9090SOL     OW39742   5.007   4.262   5.145  0.2409 -0.3587  0.3264
 9090SOL    HW139743   5.031   4.171   5.113 -2.1146 -1.1470  0.7075
 9090SOL    HW239744   5.040   4.275   5.238  2.6229  0.0745 -0.5303
 9091SOL     OW39745   7.134   8.761   5.564  0.4290 -0.4608  0.5813
 9091SOL    HW139746   7.104   8.674   5.604 -0.5126 -0.7409 -0.6967
 9091SOL    HW239747   7.092   8.772   5.474  0.1677  1.5278  0.9167
 9092SOL     OW39748   4.657   2.701   2.667  0.0995  0.0763  0.0421
 9092SOL    HW139749   4.630   2.748   2.583  1.7085  0.2841 -0.3841
 9092SOL    HW239750   4.645   2.763   2.745  0.5137  0.5776 -0.2918
 9093SOL     OW39751   2.005   0.848   1.446 -0.2181 -0.2046  0.7392
 9093SOL    HW139752   2.062   0.873   1.525  0.0454 -0.0437  0.4961
 9093SOL    HW239753   2.038   0.764   1.405  0.4312  0.4013  0.0108
 9094SOL     OW39754   1.020   6.055   6.745  0.2699 -0.2849 -0.2891
 9094SOL    HW139755   1.028   6.001   6.829  1.2159  0.0750 -0.1530
 9094SOL    HW239756   0.923   6.073   6.727  0.1485  1.0954  1.6510
 9095SOL     OW39757   7.294   2.383   5.731  0.2765  0.2952 -0.3678
 9095SOL    HW139758   7.381   2.423   5.703  0.7074  1.9786  3.1005
 9095SOL    HW239759   7.221   2.414   5.670  1.2473  3.4042 -0.0185
 9096SOL     OW39760   2.598   7.140   6.965 -0.0147 -0.1756 -0.0675
 9096SOL    HW139761   2.635   7.228   6.996  0.1648 -0.6201  0.9875
 9096SOL    HW239762   2.596   7.139   6.865  0.6110  0.7707 -0.1015
 9097SOL     OW39763   0.006   5.870   4.760 -0.4001  0.1193  0.3990
 9097SOL    HW139764   0.000   5.950   4.699 -1.3842 -1.7002 -1.9949
 9097SOL    HW239765   0.101   5.855   4.786  0.0865  0.7364 -0.9639
 9098SOL     OW39766   4.664   7.117   1.729  0.2843  0.3235  0.6336
 9098SOL    HW139767   4.758   7.088   1.746  0.7173  1.2497 -0.1258
 9098SOL    HW239768   4.615   7.045   1.679  0.2742 -0.5979  1.9718
 9099SOL     OW39769   6.239   3.830   7.328 -0.2695 -0.3262 -0.0749
 9099SOL    HW139770   6.173   3.905   7.334 -1.2468 -1.2667  1.2206
 9099SOL    HW239771   6.212   3.768   7.254  0.3107  0.3794 -0.8807
 9100SOL     OW39772   4.878   8.350   0.958 -0.2301 -0.2547  0.3239
 9100SOL    HW139773   4.819   8.423   0.925 -1.9715 -1.7499  0.0747
 9100SOL    HW239774   4.890   8.360   1.057  1.9336  2.0263 -0.1046
 9101SOL     OW39775   8.526   6.297   3.004  0.2410  0.2893 -0.1701
 9101SOL    HW139776   8.452   6.317   2.940 -0.2631 -0.2631  0.2421
 9101SOL    HW239777   8.526   6.365   3.077 -0.8194 -0.6138  0.6658
 9102SOL     OW39778   8.347   1.652   4.728 -0.1149  0.0568  0.2460
 9102SOL    HW139779   8.274   1.659   4.660  0.2676  1.5054 -0.0247
 9102SOL    HW239780   8.310   1.614   4.813 -1.2828  1.1957  0.2613
 9103SOL     OW39781   6.086   3.710   7.112  1.1150  0.0087 -0.5481
 9103SOL    HW139782   6.013   3.752   7.058 -0.1577  0.5744  1.5853
 9103SOL    HW239783   6.069   3.612   7.120  0.7760  0.0890 -0.3142
 9104SOL     OW39784   2.031   0.835   0.672 -0.1249  0.6703  0.1107
 9104SOL    HW139785   2.036   0.867   0.767  0.1765 -1.8342  0.9764
 9104SOL    HW239786   1.995   0.742   0.670  1.5757  0.0137 -2.0750
 9105SOL     OW39787   4.304   3.830   3.533  0.1210 -0.1504  0.2929
 9105SOL    HW139788   4.353   3.872   3.457 -0.1045 -1.4093 -0.5775
 9105SOL    HW239789   4.310   3.889   3.614  1.6098  0.5079 -0.2745
 9106SOL     OW39790   2.709   6.095   8.296  0.3531  0.0249 -0.2315
 9106SOL    HW139791   2.791   6.151   8.310  0.5916 -0.3519 -0.1127
 9106SOL    HW239792   2.734   6.011   8.249 -0.1110  0.3190 -1.0268
 9107SOL     OW39793   8.864   7.242   1.420  0.6861  0.2393  0.0059
 9107SOL    HW139794   8.950   7.226   1.467  0.5954  1.4544  0.6046
 9107SOL    HW239795   8.862   7.336   1.386 -0.4426  0.2498  0.0908
 9108SOL     OW39796   3.428   6.716   7.634 -0.3139 -0.1540 -0.6836
 9108SOL    HW139797   3.527   6.719   7.624 -0.1359  2.3948  1.1537
 9108SOL    HW239798   3.403   6.648   7.703  0.1892 -0.3669 -0.7102
 9109SOL     OW39799   3.523   4.099   1.886 -0.2646 -0.3518  0.0231
 9109SOL    HW139800   3.485   4.018   1.841  0.5728  0.5813 -2.4770
 9109SOL    HW239801   3.616   4.115   1.853 -0.0209  1.0232  1.2970
 9110SOL     OW39802   0.673   3.715   6.532 -0.0608 -0.1532 -0.7737
 9110SOL    HW139803   0.752   3.701   6.472  0.6732  0.5451  0.0277
 9110SOL    HW239804   0.684   3.659   6.614 -0.2350  0.2127 -0.5016
 9111SOL     OW39805   1.203   8.758   6.352  0.0853 -0.6691 -1.1820
 9111SOL    HW139806   1.267   8.732   6.424  0.8897 -0.9560 -1.9921
 9111SOL    HW239807   1.113   8.775   6.392  0.3696 -1.4416 -0.1995
 9112SOL     OW39808   3.874   7.979   1.118 -0.0101 -0.4053  0.0955
 9112SOL    HW139809   3.834   7.956   1.207  0.5914 -0.6860  0.2955
 9112SOL    HW239810   3.935   7.906   1.089 -0.1386 -0.2713 -0.5109
 9113SOL     OW39811   5.631   4.656   0.154 -0.1484  0.2034 -0.3123
 9113SOL    HW139812   5.689   4.736   0.142  0.5977 -0.0688  1.2851
 9113SOL    HW239813   5.562   4.653   0.082  0.2111  1.9294 -0.7439
 9114SOL     OW39814   8.179   3.736   7.738  0.1007 -0.0862 -0.1243
 9114SOL    HW139815   8.141   3.643   7.742  0.5224 -0.2237  0.6814
 9114SOL    HW239816   8.277   3.733   7.753  0.2570  0.4091 -0.9785
 9115SOL     OW39817   8.605   5.394   4.966  0.1154  0.1295 -0.0772
 9115SOL    HW139818   8.691   5.347   4.982  1.1665  2.0452  0.0230
 9115SOL    HW239819   8.598   5.420   4.870  0.0620  0.7549  0.0905
 9116SOL     OW39820   1.898   6.935   0.655 -0.5066 -0.2075  0.2539
 9116SOL    HW139821   1.837   7.003   0.614  0.5738  0.1061 -0.8818
 9116SOL    HW239822   1.963   6.981   0.716  0.9950 -0.0359 -1.4315
 9117SOL     OW39823   2.450   6.458   5.200  0.2507 -0.1490  0.1850
 9117SOL    HW139824   2.469   6.398   5.278  0.1507 -0.0308  0.2986
 9117SOL    HW239825   2.390   6.411   5.136  1.6832 -0.8998 -0.6495
 9118SOL     OW39826   1.918   6.534   2.802  0.3509 -0.0706 -0.1342
 9118SOL    HW139827   1.983   6.604   2.833  1.4392 -1.5930  1.1338
 9118SOL    HW239828   1.836   6.537   2.859  1.1996 -1.0582  1.1696
 9119SOL     OW39829   8.377   6.123   6.993  0.0544  0.2317 -0.0087
 9119SOL    HW139830   8.441   6.050   6.968  0.3025  0.5362 -0.2714
 9119SOL    HW239831   8.408   6.167   7.077 -0.0037  0.1412  0.0598
 9120SOL     OW39832   3.132   5.000   3.181  0.2957 -0.2299 -0.2912
 9120SOL    HW139833   3.069   5.016   3.105  0.9103 -1.2204 -1.0201
 9120SOL    HW239834   3.128   5.078   3.243 -4.0049 -1.6521  1.4049
 9121SOL     OW39835   8.097   2.827   2.401  0.1863 -0.1103  0.8828
 9121SOL    HW139836   8.121   2.745   2.453  0.6863 -1.1568 -0.9813
 9121SOL    HW239837   8.083   2.804   2.305  0.9188  2.0664  0.2029
 9122SOL     OW39838   3.654   0.529   4.321  0.0443 -0.0884  0.4419
 9122SOL    HW139839   3.585   0.558   4.255 -1.4529 -0.2667  1.9074
 9122SOL    HW239840   3.734   0.588   4.313  0.1583 -0.5032 -1.9631
 9123SOL     OW39841   1.558   6.205   1.091  0.1935 -0.0132 -0.1091
 9123SOL    HW139842   1.487   6.260   1.047  0.0262  0.6046  0.9006
 9123SOL    HW239843   1.609   6.155   1.022 -0.0896  0.9067 -1.0001
 9124SOL     OW39844   0.666   2.663   3.408  0.2017 -0.0300 -0.3960
 9124SOL    HW139845   0.651   2.709   3.321  0.7092  0.3866 -0.2658
 9124SOL    HW239846   0.764   2.658   3.427  0.2584 -2.4761 -1.1091
 9125SOL     OW39847   2.808   5.920   1.909  0.4418  0.2757  0.1369
 9125SOL    HW139848   2.853   5.881   1.828  1.5753  0.5230  0.6447
 9125SOL    HW239849   2.842   5.874   1.991 -1.6551 -0.8846  0.4110
 9126SOL     OW39850   5.517   0.786   7.206  0.0767  0.0493 -0.4886
 9126SOL    HW139851   5.543   0.882   7.197 -3.1627  1.1191  0.5668
 9126SOL    HW239852   5.569   0.744   7.280  1.0289  1.1824 -0.5067
 9127SOL     OW39853   5.855   8.872   6.757  0.4730  0.6511  0.1970
 9127SOL    HW139854   5.908   8.940   6.807 -0.0838  1.0955  0.1856
 9127SOL    HW239855   5.793   8.825   6.821  2.3355 -1.3018  0.6054
 9128SOL     OW39856   4.684   2.064   3.613 -0.1779  0.1462  0.0063
 9128SOL    HW139857   4.706   2.148   3.564 -3.6372  1.0037 -0.2260
 9128SOL    HW239858   4.599   2.076   3.665 -2.0630 -3.8128 -1.8605
 9129SOL     OW39859   3.468   7.502   5.941  0.1013  0.1069  0.2324
 9129SOL    HW139860   3.434   7.458   5.857 -0.0830 -0.6557  0.6986
 9129SOL    HW239861   3.562   7.472   5.958 -0.3246 -0.7965  1.0228
 9130SOL     OW39862   6.460   4.802   1.576  0.0747  0.4231 -0.0850
 9130SOL    HW139863   6.489   4.758   1.491  1.0962 -1.5257  1.2478
 9130SOL    HW239864   6.362   4.785   1.591 -0.1689  1.0045 -1.0039
 9131SOL     OW39865   8.091   4.899   1.453  0.3624  0.2426 -0.2946
 9131SOL    HW139866   8.073   4.915   1.551  1.6619 -1.2125  0.1949
 9131SOL    HW239867   8.004   4.885   1.406 -0.2524  0.4342  0.7571
 9132SOL     OW39868   2.744   7.997   8.027 -0.5530  0.1317 -0.0099
 9132SOL    HW139869   2.726   8.078   8.082  0.5753  1.3222 -1.3452
 9132SOL    HW239870   2.795   7.930   8.081  0.6902  1.3568  0.3496
 9133SOL     OW39871   2.233   5.810   4.840 -0.1151  0.0057  0.0178
 9133SOL    HW139872   2.240   5.822   4.940 -0.3824  1.3297 -0.1016
 9133SOL    HW239873   2.173   5.881   4.803  1.8862  1.0341 -1.3792
 9134SOL     OW39874   3.295   3.857   7.182 -0.2528  0.2746 -0.4343
 9134SOL    HW139875   3.232   3.929   7.152 -0.3402  0.3143 -0.1550
 9134SOL    HW239876   3.352   3.893   7.256 -1.8233 -0.6430  1.2648
 9135SOL     OW39877   6.484   1.149   2.652  0.1574 -0.0713  0.6036
 9135SOL    HW139878   6.514   1.243   2.671  0.9318 -0.1102 -0.4208
 9135SOL    HW239879   6.534   1.113   2.573 -3.7775  0.5157 -2.3556
 9136SOL     OW39880   2.570   5.734   6.315  0.0912 -0.4130  0.1139
 9136SOL    HW139881   2.637   5.671   6.354 -1.1287 -0.2047  2.6899
 9136SOL    HW239882   2.480   5.691   6.316 -0.5592  0.9276  0.8455
 9137SOL     OW39883   4.402   5.830   3.783  0.2285  0.4562 -0.5720
 9137SOL    HW139884   4.427   5.925   3.800 -1.0497  0.7686 -0.3407
 9137SOL    HW239885   4.473   5.785   3.729  1.1414  1.3636 -0.1209
 9138SOL     OW39886   4.700   4.406   1.740 -0.6109 -0.7200  0.0220
 9138SOL    HW139887   4.602   4.388   1.733 -0.6378  0.2356 -2.1878
 9138SOL    HW239888   4.749   4.351   1.672  0.3286 -0.5744  0.5679
 9139SOL     OW39889   2.890   1.875   4.027 -0.3348 -0.4116 -0.7151
 9139SOL    HW139890   2.817   1.827   4.076  0.2188  0.0629  0.6231
 9139SOL    HW239891   2.932   1.942   4.089  2.2944 -1.7820 -0.9434
 9140SOL     OW39892   3.612   3.233   2.802  0.4370 -0.1567  0.4436
 9140SOL    HW139893   3.697   3.257   2.848  0.0931  1.1202  0.4400
 9140SOL    HW239894   3.534   3.271   2.852  0.0843  1.6259 -1.3848
 9141SOL     OW39895   3.475   8.209   5.809 -0.4110 -0.0787  0.5270
 9141SOL    HW139896   3.400   8.242   5.753 -0.5630 -0.2584  0.6249
 9141SOL    HW239897   3.537   8.154   5.753 -1.7875 -2.2075  1.0064
 9142SOL     OW39898   7.052   2.642   8.881  0.0825 -0.2134  0.4103
 9142SOL    HW139899   6.999   2.698   8.816  1.3316 -1.7834 -2.0353
 9142SOL    HW239900   7.048   2.684   8.971 -2.0679  1.8236 -0.5638
 9143SOL     OW39901   3.559   6.704   5.811  0.1052 -0.4480 -0.0013
 9143SOL    HW139902   3.532   6.798   5.791 -0.9058 -0.5869  0.6591
 9143SOL    HW239903   3.659   6.697   5.812  0.1809  0.3320 -1.3344
 9144SOL     OW39904   4.120   5.678   8.538  0.9903 -0.6295 -0.0527
 9144SOL    HW139905   4.147   5.667   8.633  0.7362  0.4851  0.1600
 9144SOL    HW239906   4.072   5.596   8.507  1.5607 -1.2173  0.6118
 9145SOL     OW39907   6.368   6.090   1.184  0.7765 -0.0725 -0.3920
 9145SOL    HW139908   6.317   6.015   1.142 -0.6840  0.9257 -0.4240
 9145SOL    HW239909   6.331   6.110   1.275 -0.5093  2.2718 -1.3986
 9146SOL     OW39910   0.217   5.014   3.496  0.0012 -0.2219 -0.5992
 9146SOL    HW139911   0.227   5.048   3.403  1.0361  1.9754  0.2767
 9146SOL    HW239912   0.219   5.091   3.560  1.1614 -1.8469  1.3728
 9147SOL     OW39913   6.510   6.126   0.928  0.9077  0.3497 -0.2072
 9147SOL    HW139914   6.517   6.042   0.874  1.3275 -0.4426  1.0578
 9147SOL    HW239915   6.476   6.104   1.019  0.1838  1.6813 -0.1549
 9148SOL     OW39916   7.404   7.246   6.356 -0.0998 -0.2338 -0.0317
 9148SOL    HW139917   7.324   7.227   6.413 -1.2677 -2.2016 -2.2410
 9148SOL    HW239918   7.386   7.326   6.299 -0.3997 -0.5412 -0.3679
 9149SOL     OW39919   1.898   1.835   4.490  0.3991  0.5589  0.3538
 9149SOL    HW139920   1.809   1.791   4.478  0.6378 -0.0703  0.8988
 9149SOL    HW239921   1.884   1.932   4.508 -0.1830  0.4415  0.5660
 9150SOL     OW39922   2.786   0.062   3.057 -0.8285 -0.1416  0.1848
 9150SOL    HW139923   2.810   0.045   3.153  1.0074 -2.4156 -0.6558
 9150SOL    HW239924   2.808   0.157   3.034  1.6575 -0.4359  1.1813
 9151SOL     OW39925   2.138   8.191   8.735 -0.1941 -0.3220 -0.2208
 9151SOL    HW139926   2.108   8.286   8.738 -1.8302 -0.6503 -3.1007
 9151SOL    HW239927   2.193   8.176   8.652 -1.2279 -2.1797 -0.6108
 9152SOL     OW39928   3.535   5.274   1.843  0.9762 -0.5847 -0.8226
 9152SOL    HW139929   3.615   5.327   1.872  0.3352 -0.3092  0.4594
 9152SOL    HW239930   3.565   5.182   1.817  1.7303 -0.4240 -0.5436
 9153SOL     OW39931   3.012   6.418   2.445 -0.2652  0.2802 -0.1835
 9153SOL    HW139932   3.083   6.465   2.393 -0.4520 -0.9932 -1.6307
 9153SOL    HW239933   2.973   6.344   2.389 -0.5819 -1.0164  1.7148
 9154SOL     OW39934   8.787   8.546   0.215 -0.5237  0.1534 -0.2220
 9154SOL    HW139935   8.804   8.474   0.282  1.6842 -0.1412 -1.0315
 9154SOL    HW239936   8.812   8.634   0.254  2.5051 -0.2006 -1.1561
 9155SOL     OW39937   1.339   3.588   5.917  0.7989  0.0771  0.0500
 9155SOL    HW139938   1.340   3.643   5.834 -1.8150  1.0976  0.6632
 9155SOL    HW239939   1.257   3.609   5.970  1.2192 -2.3307  1.7073
 9156SOL     OW39940   7.810   7.105   0.057 -0.4486  0.3770  0.1879
 9156SOL    HW139941   7.748   7.094   0.135 -1.8323 -0.7348 -1.0337
 9156SOL    HW239942   7.893   7.052   0.073 -0.6523  0.2792  0.9664
 9157SOL     OW39943   0.901   7.898   0.117  0.0311 -0.0233 -0.0360
 9157SOL    HW139944   1.000   7.915   0.113  0.0924 -0.1631  0.7641
 9157SOL    HW239945   0.879   7.819   0.060  0.4219 -0.1645  0.0028
 9158SOL     OW39946   3.072   6.738   8.147 -0.2185 -0.5437  0.7741
 9158SOL    HW139947   2.994   6.677   8.163 -2.4762  2.3883  1.3080
 9158SOL    HW239948   3.095   6.737   8.049 -1.2943 -0.9716  0.5171
 9159SOL     OW39949   0.671   5.539   1.688  0.3704 -0.3988  0.4067
 9159SOL    HW139950   0.615   5.457   1.696 -0.5525  0.0714 -1.1448
 9159SOL    HW239951   0.617   5.613   1.648  1.5641  0.6033  0.6199
 9160SOL     OW39952   8.266   4.727   5.452 -0.7638  0.2763 -0.1535
 9160SOL    HW139953   8.309   4.796   5.394  1.9443 -1.8379 -0.7545
 9160SOL    HW239954   8.319   4.714   5.535 -2.6757  0.7287  1.1709
 9161SOL     OW39955   6.970   2.473   0.330  0.0855  0.6810 -0.0626
 9161SOL    HW139956   6.951   2.408   0.257  0.7591  0.8956 -0.4335
 9161SOL    HW239957   7.052   2.526   0.307  0.5592  0.4383  1.0586
 9162SOL     OW39958   0.154   7.942   7.075 -0.3472 -0.2133 -0.0776
 9162SOL    HW139959   0.191   7.945   6.982 -0.4977  2.2543 -0.0892
 9162SOL    HW239960   0.228   7.923   7.140  0.1376  0.1772 -0.5136
 9163SOL     OW39961   1.211   3.051   4.736 -0.8323  0.0298 -0.0126
 9163SOL    HW139962   1.139   3.031   4.670 -1.3486 -1.3173  0.9355
 9163SOL    HW239963   1.292   2.996   4.714 -0.4723  0.7181 -0.4208
 9164SOL     OW39964   3.584   4.384   0.837  0.0856 -0.3080  0.4213
 9164SOL    HW139965   3.618   4.291   0.834 -0.1162 -0.3487 -1.0690
 9164SOL    HW239966   3.630   4.435   0.910  0.2676 -1.5353  1.1653
 9165SOL     OW39967   0.506   4.102   5.472  0.3423 -0.3417  0.2535
 9165SOL    HW139968   0.518   4.027   5.406  1.2414  0.3223 -0.3442
 9165SOL    HW239969   0.437   4.165   5.438  0.1674 -0.4662  0.3743
 9166SOL     OW39970   7.229   1.996   4.663  0.0389 -0.1912  0.0013
 9166SOL    HW139971   7.210   1.963   4.756 -0.9363  2.0700  0.6346
 9166SOL    HW239972   7.143   2.004   4.613  0.2445  1.4936 -0.0932
 9167SOL     OW39973   1.097   6.194   2.656  0.6044  0.6842  0.2069
 9167SOL    HW139974   1.035   6.177   2.733  0.3097 -0.7868 -0.3253
 9167SOL    HW239975   1.182   6.143   2.670  0.0375 -0.6370 -1.0469
 9168SOL     OW39976   5.145   3.417   5.377 -0.3513 -0.8312  0.0936
 9168SOL    HW139977   5.123   3.325   5.343 -0.3421 -0.0513 -2.0564
 9168SOL    HW239978   5.240   3.439   5.357 -0.5282 -0.1053  0.0363
 9169SOL     OW39979   2.070   8.110   7.819 -0.4190 -0.3015  0.6623
 9169SOL    HW139980   2.030   8.029   7.862  0.7134 -1.5802 -0.6434
 9169SOL    HW239981   1.998   8.163   7.774 -1.4310  0.4003  3.0465
 9170SOL     OW39982   4.892   3.687   5.068  0.4624 -0.1564  0.1214
 9170SOL    HW139983   4.812   3.634   5.096 -0.0230  0.3119 -0.3713
 9170SOL    HW239984   4.923   3.742   5.145  0.4794 -0.5485  0.3966
 9171SOL     OW39985   6.871   0.071   8.122 -0.7026 -0.8817  0.6315
 9171SOL    HW139986   6.798   0.130   8.159  0.0790  0.6847 -0.2761
 9171SOL    HW239987   6.833  -0.019   8.100 -2.2356 -0.2685  0.7159
 9172SOL     OW39988   1.679   4.283   5.039  0.6124  0.4830  0.0115
 9172SOL    HW139989   1.620   4.355   5.002 -0.6164 -1.0030 -1.0340
 9172SOL    HW239990   1.765   4.281   4.988  0.8869  1.5793  0.4287
 9173SOL     OW39991   8.308   5.569   7.188  0.1980 -0.7171  0.6194
 9173SOL    HW139992   8.370   5.631   7.237  0.0540  0.4863 -0.6624
 9173SOL    HW239993   8.357   5.486   7.162  1.3764  0.3584 -0.6503
 9174SOL     OW39994   2.288   0.291   0.662 -0.1752  0.0141 -0.4107
 9174SOL    HW139995   2.248   0.227   0.728 -2.5961  0.1090 -1.7190
 9174SOL    HW239996   2.324   0.240   0.584 -1.2809  0.1730 -1.0312
 9175SOL     OW39997   4.731   4.412   5.563  0.1922 -0.0590  0.2456
 9175SOL    HW139998   4.821   4.396   5.524  0.1299  0.4704 -0.1163
 9175SOL    HW239999   4.711   4.511   5.563 -1.1407 -0.3018 -1.3794
 9176SOL     OW40000   5.652   7.085   1.507  0.2000 -0.1039 -0.3136
 9176SOL    HW140001   5.653   6.990   1.475 -0.4178 -0.2674  0.1421
 9176SOL    HW240002   5.671   7.087   1.605 -2.5266 -0.0078  0.2644
 9177SOL     OW40003   8.415   3.950   4.654 -0.0310 -0.1006 -0.0767
 9177SOL    HW140004   8.328   3.912   4.685 -0.3244  1.1700  0.6638
 9177SOL    HW240005   8.489   3.910   4.707 -0.4054  0.9678  1.2527
 9178SOL     OW40006   4.539   2.050   0.000 -0.2780 -0.0808 -0.0305
 9178SOL    HW140007   4.590   2.051  -0.085  0.4209  0.9326  0.3870
 9178SOL    HW240008   4.515   2.144   0.025 -0.5739 -0.3808  0.8304
 9179SOL     OW40009   3.736   6.018   7.378 -0.1697  0.0179  0.7008
 9179SOL    HW140010   3.794   6.009   7.459  0.4032  0.8597  0.3863
 9179SOL    HW240011   3.765   6.098   7.325  1.3887 -2.2074 -1.9050
 9180SOL     OW40012   4.147   3.223   2.452  0.1057 -0.7454 -0.1318
 9180SOL    HW140013   4.092   3.269   2.522  0.6885  0.5543 -0.5128
 9180SOL    HW240014   4.162   3.128   2.479 -0.5475 -0.5390  1.0022
 9181SOL     OW40015   0.168   5.324   0.887  0.5912 -0.1098 -0.3040
 9181SOL    HW140016   0.194   5.420   0.881 -1.5911  0.5390  0.0649
 9181SOL    HW240017   0.207   5.284   0.969  3.5421 -0.2272 -1.7050
 9182SOL     OW40018   1.648   4.800   4.019 -0.1870  0.1885  0.3777
 9182SOL    HW140019   1.582   4.746   4.070 -1.2134  2.3361  1.3688
 9182SOL    HW240020   1.732   4.809   4.072 -0.2145  0.0196  0.4490
 9183SOL     OW40021   7.273   3.071   1.104  0.5670  0.1119 -0.2148
 9183SOL    HW140022   7.301   3.040   1.014  1.8926  0.8962 -0.0914
 9183SOL    HW240023   7.338   3.037   1.173 -0.6208 -0.7684  0.4955
 9184SOL     OW40024   1.067   6.032   2.249  0.0482  0.3508  0.6626
 9184SOL    HW140025   1.058   5.938   2.215 -0.4158  0.9791 -1.0055
 9184SOL    HW240026   1.143   6.036   2.314  0.9343 -0.9087 -0.2629
 9185SOL     OW40027   7.248   4.191   8.728  0.0037 -0.4143 -0.2424
 9185SOL    HW140028   7.151   4.181   8.702  0.2260 -1.3525 -0.7554
 9185SOL    HW240029   7.255   4.246   8.811 -0.8416  1.2464 -1.2492
 9186SOL     OW40030   6.490   0.499   7.771 -0.2459 -0.2520 -0.5806
 9186SOL    HW140031   6.480   0.465   7.864  0.7163 -1.6704 -0.9703
 9186SOL    HW240032   6.424   0.572   7.754  2.0046  2.6023  2.3683
 9187SOL     OW40033   1.699   5.519   3.306 -0.3872 -0.2608 -0.8043
 9187SOL    HW140034   1.695   5.586   3.380  1.0623  1.6581 -2.3916
 9187SOL    HW240035   1.606   5.495   3.278 -0.9884  2.6269 -1.4960
 9188SOL     OW40036   7.844   2.574   3.495 -0.2465 -0.2041 -0.0718
 9188SOL    HW140037   7.930   2.533   3.528 -1.0550 -0.0394  2.3208
 9188SOL    HW240038   7.858   2.671   3.479  0.1619 -0.2910 -0.2733
 9189SOL     OW40039   7.048   7.309   5.647  0.2591 -0.1536 -0.5816
 9189SOL    HW140040   7.097   7.223   5.629 -1.2329 -1.0452 -0.4820
 9189SOL    HW240041   6.955   7.288   5.679  0.4302  1.4700  1.0862
 9190SOL     OW40042   1.158   5.379   8.404  0.3797 -0.4170  0.4810
 9190SOL    HW140043   1.087   5.438   8.442  1.9498  0.6784  1.7829
 9190SOL    HW240044   1.223   5.354   8.476  0.2656 -2.9767 -0.2768
 9191SOL     OW40045   8.521   5.478   4.109 -0.3438 -0.2794 -0.0164
 9191SOL    HW140046   8.542   5.384   4.084 -1.3835 -0.5000 -0.1062
 9191SOL    HW240047   8.497   5.482   4.206  1.2438  0.1597  0.3678
 9192SOL     OW40048   3.668   6.601   1.519  0.3607 -0.3970  0.8424
 9192SOL    HW140049   3.652   6.584   1.422  1.0163 -0.8708  0.8167
 9192SOL    HW240050   3.620   6.533   1.574  1.3855 -1.1674  0.7963
 9193SOL     OW40051   4.640   2.024   1.825 -0.6703  0.4774  0.1195
 9193SOL    HW140052   4.672   2.118   1.831  1.9408 -0.2407 -1.8647
 9193SOL    HW240053   4.699   1.965   1.879 -1.2869 -0.2706 -0.0099
 9194SOL     OW40054   1.396   4.510   5.679  0.0728 -0.3848 -0.8360
 9194SOL    HW140055   1.489   4.548   5.682  0.3773 -0.9725 -2.3758
 9194SOL    HW240056   1.347   4.547   5.600 -0.3783 -1.4626 -1.0807
 9195SOL     OW40057   6.609   6.474   0.713  0.1067  0.1088 -0.2732
 9195SOL    HW140058   6.708   6.492   0.708  0.0976  0.4256  0.7082
 9195SOL    HW240059   6.564   6.513   0.632  0.5935  1.1934 -0.0323
 9196SOL     OW40060   2.137   4.651   3.819  0.2393  0.3389 -0.3313
 9196SOL    HW140061   2.052   4.699   3.797 -0.7269 -1.7423 -1.2640
 9196SOL    HW240062   2.189   4.634   3.735  1.6098  1.6276  0.2356
 9197SOL     OW40063   1.779   2.217   4.219 -0.4590 -0.3089  0.1203
 9197SOL    HW140064   1.800   2.314   4.230 -1.4370 -0.0246 -0.4633
 9197SOL    HW240065   1.740   2.202   4.128  1.5743 -1.5857 -0.5825
 9198SOL     OW40066   5.507   8.807   2.922 -0.5234 -0.4791 -0.2278
 9198SOL    HW140067   5.420   8.795   2.969  0.5286 -1.8981  1.4285
 9198SOL    HW240068   5.577   8.835   2.988  0.6587 -1.0293 -1.2165
 9199SOL     OW40069   1.565   6.286   2.881 -0.0278 -0.0264  0.0870
 9199SOL    HW140070   1.621   6.367   2.898 -1.4073  0.4164  2.7797
 9199SOL    HW240071   1.613   6.205   2.915 -0.3491  0.1608  0.9956
 9200SOL     OW40072   6.757   4.386   7.914 -0.0250 -0.0980  0.2573
 9200SOL    HW140073   6.813   4.305   7.932  1.6138  1.3541  1.9221
 9200SOL    HW240074   6.695   4.368   7.838  0.3793 -2.8736  0.5527
 9201SOL     OW40075   5.475   6.735   0.618 -0.1975  0.3957 -0.9550
 9201SOL    HW140076   5.472   6.832   0.593  0.2782  0.1273 -2.0484
 9201SOL    HW240077   5.440   6.680   0.543 -0.1176 -0.3128 -0.4756
 9202SOL     OW40078   2.288   2.083   7.600 -0.1923  0.1455 -0.3620
 9202SOL    HW140079   2.240   2.140   7.666  0.9871  1.5510 -0.6812
 9202SOL    HW240080   2.287   1.988   7.630 -0.0278  0.7112  1.4658
 9203SOL     OW40081   6.067   3.237   2.024  1.1174  0.0408  0.6287
 9203SOL    HW140082   6.078   3.170   1.950  0.8762 -1.1749  1.6834
 9203SOL    HW240083   6.145   3.300   2.024  1.9157 -0.9454  0.3597
 9204SOL     OW40084   0.489   0.716   5.699 -0.6309  0.1720 -0.0297
 9204SOL    HW140085   0.466   0.760   5.785  0.7232  0.1264  0.3603
 9204SOL    HW240086   0.517   0.621   5.716  0.3672  0.3894 -0.4419
 9205SOL     OW40087   8.565   8.853   4.647 -0.1970 -0.1034 -0.3596
 9205SOL    HW140088   8.556   8.913   4.567 -0.9214  0.2264 -0.0284
 9205SOL    HW240089   8.659   8.818   4.651  0.5646  1.8713  0.0463
 9206SOL     OW40090   4.704   7.034   7.785  0.7791 -0.2069  0.1781
 9206SOL    HW140091   4.752   6.949   7.806  0.6227 -0.6293 -1.0980
 9206SOL    HW240092   4.761   7.091   7.727  0.5722  0.2190  0.3891
 9207SOL     OW40093   8.249   1.597   8.027 -0.3630 -0.1969 -0.1289
 9207SOL    HW140094   8.332   1.565   8.073 -0.5648 -0.1377  0.2817
 9207SOL    HW240095   8.247   1.697   8.029  0.5123 -0.1278 -1.8366
 9208SOL     OW40096   7.874   6.153   7.548  0.9558  0.2547  0.3381
 9208SOL    HW140097   7.945   6.209   7.505  0.0076  1.5166  0.3836
 9208SOL    HW240098   7.807   6.213   7.592 -1.5222 -0.7803 -1.8672
 9209SOL     OW40099   8.891   1.511   5.005 -0.1136 -0.3488  0.3539
 9209SOL    HW140100   8.986   1.483   4.990  0.6349  1.1957  2.0666
 9209SOL    HW240101   8.856   1.553   4.921  1.4701  1.1298  0.4034
 9210SOL     OW40102   1.407   5.776   5.808 -0.5401  0.2593 -0.4851
 9210SOL    HW140103   1.331   5.807   5.751 -1.2703 -0.1411  0.2622
 9210SOL    HW240104   1.467   5.854   5.827 -0.8231  0.6039 -0.9900
 9211SOL     OW40105   5.459   4.944   7.092 -0.5701 -0.2677  0.3012
 9211SOL    HW140106   5.449   5.039   7.063 -1.7810 -0.1605  1.0223
 9211SOL    HW240107   5.555   4.918   7.089  0.0778  1.6848  2.2582
 9212SOL     OW40108   2.936   2.426   2.426 -0.8124 -0.5636  0.1574
 9212SOL    HW140109   2.858   2.376   2.464 -0.9559 -0.3612  0.1312
 9212SOL    HW240110   3.011   2.425   2.491 -0.7542 -0.9638  0.0850
 9213SOL     OW40111   6.319   4.229   0.783 -0.1674  0.4484  0.0477
 9213SOL    HW140112   6.229   4.220   0.825 -0.5349  3.1565 -0.0678
 9213SOL    HW240113   6.309   4.258   0.687  0.8054  1.6275  0.2809
 9214SOL     OW40114   4.974   4.481   1.453  0.3715  0.2130 -0.1684
 9214SOL    HW140115   4.924   4.414   1.508  0.7179  0.1716  0.1005
 9214SOL    HW240116   5.035   4.534   1.512  1.3250 -0.3594 -0.6078
 9215SOL     OW40117   6.271   6.561   7.790 -0.4154  0.6268  0.3405
 9215SOL    HW140118   6.321   6.474   7.800  2.4334  2.1547 -0.0790
 9215SOL    HW240119   6.267   6.607   7.879  0.8418  1.5175 -0.0622
 9216SOL     OW40120   1.591   6.795   0.412 -0.6989 -0.3388 -0.4124
 9216SOL    HW140121   1.616   6.714   0.465 -1.0998 -1.9515 -2.6075
 9216SOL    HW240122   1.505   6.832   0.447 -1.7923 -2.3276 -0.8973
 9217SOL     OW40123   1.493   5.406   2.291 -0.4897  0.1000  0.2519
 9217SOL    HW140124   1.592   5.409   2.300 -0.4833 -0.3102  0.3336
 9217SOL    HW240125   1.454   5.492   2.325 -0.2464 -0.2323  1.3959
 9218SOL     OW40126   3.830   8.405   1.224 -0.8054 -0.1879 -0.3132
 9218SOL    HW140127   3.867   8.335   1.163  1.2029 -2.2176  3.0395
 9218SOL    HW240128   3.888   8.486   1.222 -0.2840 -0.5670 -0.4916
 9219SOL     OW40129   2.466   2.141   3.413  0.4323 -0.0795  0.4174
 9219SOL    HW140130   2.394   2.109   3.475 -0.0979  1.3247  0.5418
 9219SOL    HW240131   2.425   2.168   3.326  0.6868  1.6120  0.8147
 9220SOL     OW40132   2.320   6.355   2.618 -0.6852  0.1619  0.0435
 9220SOL    HW140133   2.264   6.431   2.585 -2.1285 -0.6545  0.5930
 9220SOL    HW240134   2.265   6.296   2.677  1.2239  0.3545  2.1003
 9221SOL     OW40135   0.701   2.494   6.976  0.6370  0.5150  0.5029
 9221SOL    HW140136   0.699   2.412   6.919  1.7490  1.0458 -0.3360
 9221SOL    HW240137   0.655   2.569   6.929  0.9747  0.7771  0.5842
 9222SOL     OW40138   5.644   3.330   0.576 -0.4412 -0.1371 -0.0435
 9222SOL    HW140139   5.623   3.280   0.660  0.0555 -2.5912 -1.3518
 9222SOL    HW240140   5.675   3.422   0.600 -0.1382 -0.8374  2.4673
 9223SOL     OW40141   6.194   7.318   6.423  0.3412 -0.3419 -0.3916
 9223SOL    HW140142   6.268   7.332   6.358  0.7647 -1.6743 -0.2101
 9223SOL    HW240143   6.227   7.265   6.501 -0.2844  0.8061  0.6924
 9224SOL     OW40144   5.631   2.576   7.070  0.0574 -0.2636 -0.1755
 9224SOL    HW140145   5.674   2.487   7.083 -0.4305 -0.6097 -0.8926
 9224SOL    HW240146   5.691   2.648   7.105  0.5280 -0.8617  0.2460
 9225SOL     OW40147   2.612   1.591   0.966  0.2437  0.6295  0.3451
 9225SOL    HW140148   2.660   1.673   0.934  0.1228  0.7652  0.5091
 9225SOL    HW240149   2.675   1.535   1.019  1.0173 -0.5913 -1.7922
 9226SOL     OW40150   4.989   3.625   8.172  0.1724  0.1005 -0.1318
 9226SOL    HW140151   4.893   3.635   8.145 -0.2924  2.2133  2.1615
 9226SOL    HW240152   5.047   3.629   8.090 -1.6983 -1.5478 -1.5689
 9227SOL     OW40153   1.730   8.785   6.143  0.6483  0.0990  0.1183
 9227SOL    HW140154   1.702   8.795   6.239  2.1177  1.1909  0.4496
 9227SOL    HW240155   1.652   8.802   6.083 -0.1615 -0.1112  1.1007
 9228SOL     OW40156   3.882   1.682   2.787  0.5073 -0.4250  0.6749
 9228SOL    HW140157   3.800   1.695   2.843  1.1428  0.3417  1.4292
 9228SOL    HW240158   3.857   1.687   2.690 -0.1443  0.9974  0.9160
 9229SOL     OW40159   2.221   8.771   2.406  0.3693  0.3505 -0.2806
 9229SOL    HW140160   2.136   8.791   2.357  0.9086  1.3012 -0.8395
 9229SOL    HW240161   2.240   8.673   2.401 -0.2135  0.2623 -0.9386
 9230SOL     OW40162   8.767   4.600   1.989  0.4075 -0.4120  0.2150
 9230SOL    HW140163   8.694   4.593   1.922  0.6636 -0.1636 -0.0903
 9230SOL    HW240164   8.819   4.684   1.974 -1.4852  1.2595  2.6853
 9231SOL     OW40165   2.818   4.852   6.425 -0.0508 -0.3816 -0.0873
 9231SOL    HW140166   2.866   4.898   6.500  2.8488 -2.4111 -0.6066
 9231SOL    HW240167   2.758   4.917   6.379  1.6044  2.0596  1.0917
 9232SOL     OW40168   3.497   7.396   6.758  0.4795 -1.2391 -0.2820
 9232SOL    HW140169   3.422   7.443   6.804  1.8145 -0.6254  1.3236
 9232SOL    HW240170   3.491   7.411   6.660 -0.8636 -0.2904 -0.0605
 9233SOL     OW40171   2.155   5.189   3.084 -0.1587  0.0923  0.3887
 9233SOL    HW140172   2.144   5.099   3.125  2.9813 -0.2447  0.5912
 9233SOL    HW240173   2.172   5.257   3.156 -1.2928  0.6729  0.1320
 9234SOL     OW40174   3.344   3.784   8.196  0.1350 -0.1594 -0.2265
 9234SOL    HW140175   3.407   3.767   8.120  0.7364  1.8185 -0.1750
 9234SOL    HW240176   3.250   3.775   8.163  0.3978  0.4385 -1.1580
 9235SOL     OW40177   3.428   1.587   0.875  0.2647  0.0937  0.1778
 9235SOL    HW140178   3.508   1.597   0.934  0.6072  2.3924 -0.6209
 9235SOL    HW240179   3.401   1.491   0.871  1.7426 -0.4371  2.0720
 9236SOL     OW40180   4.422   6.313   6.680 -0.2713 -0.2477 -0.0457
 9236SOL    HW140181   4.393   6.218   6.693 -0.0547 -0.1391  1.2511
 9236SOL    HW240182   4.519   6.316   6.659 -0.6194 -0.4209 -1.8074
 9237SOL     OW40183   6.957   3.520   5.459  0.9847 -0.4337  0.0248
 9237SOL    HW140184   7.053   3.535   5.481  1.5215 -4.9257  1.3737
 9237SOL    HW240185   6.949   3.476   5.370 -0.0126  1.6797 -0.9678
 9238SOL     OW40186   6.066   5.583   8.227 -0.2958 -0.3008 -0.3416
 9238SOL    HW140187   6.063   5.527   8.144  1.4128 -0.2947 -0.4377
 9238SOL    HW240188   6.157   5.626   8.235 -0.7577  0.4579  1.0291
 9239SOL     OW40189   4.295   6.227   1.810 -0.4642 -0.0969  0.4179
 9239SOL    HW140190   4.246   6.145   1.841  2.3262 -1.9502  0.1227
 9239SOL    HW240191   4.281   6.239   1.712  0.0228 -0.8788  0.2489
 9240SOL     OW40192   4.736   0.918   2.069  0.3018  0.0096  0.4537
 9240SOL    HW140193   4.734   0.829   2.024 -0.3417  0.2364  0.0295
 9240SOL    HW240194   4.699   0.910   2.161 -0.9457  0.0864 -0.0327
 9241SOL     OW40195   2.651   1.507   6.319  0.1618  0.1450  0.2122
 9241SOL    HW140196   2.584   1.571   6.284  1.2148  1.8983  1.3506
 9241SOL    HW240197   2.605   1.432   6.367 -0.9574  1.9102  1.9561
 9242SOL     OW40198   7.145   3.345   0.050  0.2689 -0.0759  0.3585
 9242SOL    HW140199   7.171   3.249   0.059  0.8689  0.0899  0.3873
 9242SOL    HW240200   7.152   3.390   0.140 -0.1575 -0.0395  0.3767
 9243SOL     OW40201   7.974   2.164   4.653 -0.3407  0.0991  0.4347
 9243SOL    HW140202   7.925   2.077   4.654  0.3706 -0.3993 -2.2304
 9243SOL    HW240203   8.071   2.147   4.669 -0.2750  0.4613  0.4205
 9244SOL     OW40204   8.075   1.924   6.340  0.6710  0.5632  0.1497
 9244SOL    HW140205   7.985   1.956   6.312 -0.0060 -0.7418  0.7918
 9244SOL    HW240206   8.071   1.892   6.435  1.7493  0.2640  0.1005
 9245SOL     OW40207   5.782   8.771   7.865 -0.4076  0.5273  0.2042
 9245SOL    HW140208   5.760   8.734   7.955  0.2298  0.2536  0.2473
 9245SOL    HW240209   5.699   8.773   7.809 -0.6019 -0.2260  0.4643
 9246SOL     OW40210   6.743   8.700   1.015 -0.0018 -0.1938  0.1354
 9246SOL    HW140211   6.665   8.742   1.062  0.2568  0.0828  0.3141
 9246SOL    HW240212   6.764   8.612   1.059 -0.8325 -0.7310 -0.5271
 9247SOL     OW40213   7.680   7.828   5.799 -0.0558  0.3668 -0.3827
 9247SOL    HW140214   7.692   7.846   5.702  1.8609 -0.9429 -0.4206
 9247SOL    HW240215   7.765   7.792   5.837 -0.7920  0.8123  1.7731
 9248SOL     OW40216   0.765   3.660   3.264 -0.1860 -0.0261 -0.5800
 9248SOL    HW140217   0.842   3.681   3.204  0.5714  1.4132  0.8505
 9248SOL    HW240218   0.702   3.738   3.267  1.2209  1.1156  2.5996
 9249SOL     OW40219   8.838   8.181   0.909  0.1459 -0.0873 -0.6350
 9249SOL    HW140220   8.746   8.146   0.928 -0.5240  1.7107 -0.4710
 9249SOL    HW240221   8.855   8.261   0.966  2.4615 -1.3436  0.5477
 9250SOL     OW40222   8.988   7.265   8.808  0.2926  0.6775 -0.2274
 9250SOL    HW140223   9.023   7.247   8.900  1.9626  2.1251 -0.5407
 9250SOL    HW240224   9.065   7.272   8.744 -0.8229  0.1925 -1.6420
 9251SOL     OW40225   2.563   3.103   5.095 -0.2716  0.3025  0.0390
 9251SOL    HW140226   2.597   3.009   5.091 -0.1214  0.3581  0.0479
 9251SOL    HW240227   2.465   3.101   5.115 -0.4422  0.1174 -0.8067
 9252SOL     OW40228   5.449   8.258   4.219  0.4405  0.1821  0.0065
 9252SOL    HW140229   5.482   8.245   4.313 -0.2708 -0.6878  0.1536
 9252SOL    HW240230   5.349   8.249   4.218  0.5670 -1.3933 -1.0793
 9253SOL     OW40231   5.933   2.137   0.793  0.0227 -0.2081 -0.1861
 9253SOL    HW140232   5.857   2.140   0.857 -0.6323 -0.4850 -0.9511
 9253SOL    HW240233   6.019   2.144   0.844 -0.5162  0.5632  0.6365
 9254SOL     OW40234   1.470   4.915   8.696  0.3875 -0.1731 -0.5223
 9254SOL    HW140235   1.507   4.837   8.645  2.6579  0.9451 -0.6540
 9254SOL    HW240236   1.544   4.960   8.747 -1.3329  0.4519  1.4652
 9255SOL     OW40237   8.943   5.170   0.986 -0.0646 -0.0287  0.7777
 9255SOL    HW140238   8.926   5.088   0.931 -0.1748 -0.9837  2.2138
 9255SOL    HW240239   8.971   5.245   0.925 -2.9809 -0.2314 -0.8855
 9256SOL     OW40240   5.871   4.310   4.523 -0.2395  0.1219  0.2203
 9256SOL    HW140241   5.807   4.317   4.447 -0.1722  0.4530  0.1891
 9256SOL    HW240242   5.842   4.371   4.597  1.3857  2.2172 -0.8004
 9257SOL     OW40243   5.152   0.973   3.107 -0.2469  0.1773 -0.3888
 9257SOL    HW140244   5.076   1.020   3.062 -0.4823 -1.1642 -1.4005
 9257SOL    HW240245   5.206   0.924   3.039  1.9056  1.6066  0.2302
 9258SOL     OW40246   8.500   7.385   1.070  0.4013  0.4875  0.0209
 9258SOL    HW140247   8.534   7.314   1.132 -1.1404 -0.1402  0.1568
 9258SOL    HW240248   8.561   7.465   1.075  3.1706 -1.4431 -1.4665
 9259SOL     OW40249   5.871   8.457   1.388 -0.5750 -0.3132  0.3264
 9259SOL    HW140250   5.822   8.382   1.431  4.7256 -4.0311  0.3605
 9259SOL    HW240251   5.903   8.520   1.459  0.3800 -1.5185  0.9931
 9260SOL     OW40252   6.057   3.008   1.238  0.0339 -0.3941  0.0622
 9260SOL    HW140253   6.031   3.104   1.247  1.5521  0.0061  0.2892
 9260SOL    HW240254   6.138   3.000   1.180 -1.1263 -1.7057 -1.4439
 9261SOL     OW40255   5.307   5.998   6.904  1.1669  0.3121 -0.4533
 9261SOL    HW140256   5.299   5.953   6.993 -0.1805 -1.6234 -1.5402
 9261SOL    HW240257   5.357   5.939   6.840  0.9216  1.1027 -1.3915
 9262SOL     OW40258   2.160   3.230   5.711  0.1472 -0.3968  1.0414
 9262SOL    HW140259   2.099   3.292   5.759 -0.3969  0.3919 -0.6206
 9262SOL    HW240260   2.254   3.248   5.739  0.1535  2.1502 -0.3625
 9263SOL     OW40261   5.207   2.693   7.283 -0.0642  0.4073  0.5232
 9263SOL    HW140262   5.285   2.698   7.220 -0.0713  1.5149  0.5775
 9263SOL    HW240263   5.182   2.598   7.297 -0.2880  0.1437 -1.4305
 9264SOL     OW40264   5.399   3.470   5.353  0.0521 -0.3865 -0.3869
 9264SOL    HW140265   5.439   3.385   5.387  0.9672  0.2811  0.2125
 9264SOL    HW240266   5.470   3.540   5.344 -0.3402 -0.2401 -2.7291
 9265SOL     OW40267   7.861   6.569   7.764 -0.3426 -0.1983  0.1116
 9265SOL    HW140268   7.803   6.641   7.728  0.8641 -0.7212 -3.1015
 9265SOL    HW240269   7.946   6.609   7.800 -0.3812  0.1372 -0.1682
 9266SOL     OW40270   1.515   0.065   5.281  0.0887  0.3472  0.1210
 9266SOL    HW140271   1.579  -0.010   5.260  0.6088  0.8599 -0.1344
 9266SOL    HW240272   1.428   0.026   5.312  0.4542 -0.3629  0.2852
 9267SOL     OW40273   5.627   6.210   5.010  0.1126  0.0226 -0.2354
 9267SOL    HW140274   5.680   6.200   4.925  0.8717  0.8319  0.1302
 9267SOL    HW240275   5.546   6.266   4.992  0.0646 -0.1355 -0.5132
 9268SOL     OW40276   6.219   8.037   6.233  0.1551 -0.7751 -0.3412
 9268SOL    HW140277   6.267   7.981   6.166  1.3280 -0.0799 -0.0979
 9268SOL    HW240278   6.127   8.000   6.248  1.1320 -3.0271  0.3282
 9269SOL     OW40279   4.163   4.739   6.833 -0.0011 -0.3793  0.2687
 9269SOL    HW140280   4.175   4.718   6.736  0.7044 -1.2750  0.5379
 9269SOL    HW240281   4.245   4.712   6.883 -1.2969 -2.1859  1.4814
 9270SOL     OW40282   6.630   6.351   2.689  0.7121  0.0403  0.3140
 9270SOL    HW140283   6.670   6.288   2.756  0.8320 -0.2048  0.0109
 9270SOL    HW240284   6.622   6.442   2.730  1.4793  0.0692  0.4045
 9271SOL     OW40285   3.536   6.423   8.101 -0.1598 -0.2534  0.5417
 9271SOL    HW140286   3.472   6.455   8.170  1.2339  1.0413  1.2752
 9271SOL    HW240287   3.630   6.431   8.136  0.4679 -1.1552 -0.8694
 9272SOL     OW40288   4.642   3.939   0.571  0.3198  0.0382 -0.2208
 9272SOL    HW140289   4.740   3.923   0.564  0.2567  0.2018 -1.4960
 9272SOL    HW240290   4.601   3.867   0.628  0.6368 -2.1733 -2.7094
 9273SOL     OW40291   0.686   1.170   8.107  0.3482  0.0527 -0.2581
 9273SOL    HW140292   0.647   1.087   8.146 -1.7158  0.0217 -2.2378
 9273SOL    HW240293   0.664   1.248   8.166 -0.8745 -0.3002 -0.2295
 9274SOL     OW40294   4.169   4.219   3.867 -0.3171  0.5165 -0.1168
 9274SOL    HW140295   4.084   4.193   3.914  0.5611  1.5138  2.1194
 9274SOL    HW240296   4.153   4.302   3.814 -0.9594  0.2418 -0.3587
 9275SOL     OW40297   7.538   8.112   8.278 -0.0081 -0.2001 -0.3869
 9275SOL    HW140298   7.619   8.161   8.309  1.7198 -2.7983 -0.6453
 9275SOL    HW240299   7.535   8.114   8.178 -0.0080 -0.4878 -0.3932
 9276SOL     OW40300   7.186   2.815   1.285  0.5275 -0.0728  0.1363
 9276SOL    HW140301   7.152   2.836   1.193 -1.1270  1.3704  1.0414
 9276SOL    HW240302   7.266   2.871   1.304  0.1761  0.4879  0.0003
 9277SOL     OW40303   1.789   5.867   4.602  0.0656 -0.2521  0.2267
 9277SOL    HW140304   1.880   5.837   4.572 -0.7685  0.3358 -3.0279
 9277SOL    HW240305   1.799   5.932   4.677  2.4472  1.4188 -1.4907
 9278SOL     OW40306   6.217   0.090   0.154 -0.0660  0.2720  0.0773
 9278SOL    HW140307   6.122   0.058   0.157  0.2710 -0.6977  0.9361
 9278SOL    HW240308   6.225   0.167   0.090 -1.5114  0.6487  0.3372
 9279SOL     OW40309   5.043   0.362   7.973 -0.3638 -0.1311 -0.0654
 9279SOL    HW140310   4.998   0.450   7.990  2.0824  1.1099  0.3684
 9279SOL    HW240311   5.026   0.333   7.879  0.3393  1.8082 -0.8224
 9280SOL     OW40312   2.926   2.606   3.069  0.2092 -0.0423  0.0795
 9280SOL    HW140313   2.858   2.569   3.006 -0.2985  1.5978 -0.3365
 9280SOL    HW240314   2.881   2.661   3.139  1.2326  2.5420 -1.2354
 9281SOL     OW40315   8.138   5.088   0.176  0.0292  0.7801  0.5896
 9281SOL    HW140316   8.126   4.995   0.210 -0.0110 -0.2291 -2.0693
 9281SOL    HW240317   8.051   5.123   0.143  0.6302  0.5788 -1.2627
 9282SOL     OW40318   1.385   5.609   8.552  0.2700  0.0007 -0.0972
 9282SOL    HW140319   1.287   5.595   8.561  0.3829 -0.5492  0.2958
 9282SOL    HW240320   1.402   5.694   8.502 -0.4085 -0.5749 -1.3209
 9283SOL     OW40321   6.082   3.241   7.593  0.7064 -0.4467  0.1708
 9283SOL    HW140322   6.102   3.167   7.657 -0.9568  0.6050  1.9507
 9283SOL    HW240323   6.163   3.298   7.580  1.2197 -1.0234  0.8843
 9284SOL     OW40324   0.542   1.270   5.768  0.0463  0.2408 -0.9295
 9284SOL    HW140325   0.543   1.246   5.671 -1.1629  1.3617 -1.2336
 9284SOL    HW240326   0.496   1.359   5.780 -0.1466 -0.0640  0.6963
 9285SOL     OW40327   7.908   5.044   0.920 -0.3977  0.0463  0.7052
 9285SOL    HW140328   7.869   5.118   0.975  0.3087 -0.5715  2.0460
 9285SOL    HW240329   7.940   5.081   0.832  2.2353  1.8614  2.3389
 9286SOL     OW40330   7.314   3.461   4.726  0.1099  0.1684  0.2043
 9286SOL    HW140331   7.362   3.400   4.662 -1.0858 -0.6967  0.1079
 9286SOL    HW240332   7.285   3.408   4.806 -1.9526  0.3366 -0.4126
 9287SOL     OW40333   5.072   3.819   5.834  0.1754 -0.5628 -0.7418
 9287SOL    HW140334   5.144   3.840   5.899 -1.7571 -0.0708  1.3179
 9287SOL    HW240335   5.041   3.725   5.846 -0.6573 -0.2622 -0.4556
 9288SOL     OW40336   2.526   6.549   6.224 -0.8583 -0.0642  0.2981
 9288SOL    HW140337   2.475   6.595   6.151  0.1146  2.2121  1.0120
 9288SOL    HW240338   2.620   6.532   6.194 -0.8840 -0.5341  0.4739
 9289SOL     OW40339   3.167   0.638   1.745 -0.2289 -0.4288 -0.3340
 9289SOL    HW140340   3.104   0.632   1.668  0.1798  1.5084 -0.8600
 9289SOL    HW240341   3.144   0.717   1.802  1.1914 -0.1850 -0.0646
 9290SOL     OW40342   5.338   8.732   6.418 -0.4456 -0.2666  0.0825
 9290SOL    HW140343   5.289   8.696   6.339 -1.1613 -0.6719  0.7091
 9290SOL    HW240344   5.390   8.658   6.462  0.2339  0.0295 -0.2089
 9291SOL     OW40345   7.091   0.662   0.030 -0.5882  0.3108  0.5930
 9291SOL    HW140346   7.161   0.594   0.048 -0.6137  0.3055  0.6724
 9291SOL    HW240347   7.024   0.662   0.104 -0.2972  0.7932  0.8600
 9292SOL     OW40348   7.210   6.726   6.904  0.0234 -0.2410 -0.0718
 9292SOL    HW140349   7.250   6.747   6.815 -1.4557 -1.1182 -0.9548
 9292SOL    HW240350   7.227   6.802   6.967  2.2770 -0.2072 -0.6756
 9293SOL     OW40351   0.568   2.797   7.625 -0.1165  0.4238  0.4334
 9293SOL    HW140352   0.612   2.856   7.693  0.1773 -0.0720  0.6812
 9293SOL    HW240353   0.634   2.728   7.594 -0.7187 -0.3261  0.8059
 9294SOL     OW40354   8.267   3.008   8.374  0.1163  0.0002 -0.2386
 9294SOL    HW140355   8.365   2.991   8.359  0.4733  2.4201 -0.8314
 9294SOL    HW240356   8.255   3.097   8.418 -1.7346 -1.1152  1.6016
 9295SOL     OW40357   7.793   4.558   5.229  0.4130 -0.0308 -0.0429
 9295SOL    HW140358   7.799   4.536   5.132 -0.2131  1.0681 -0.3291
 9295SOL    HW240359   7.873   4.520   5.277  0.3871 -1.1402 -0.8691
 9296SOL     OW40360   7.248   3.251   8.149 -0.0875  0.5167  0.9766
 9296SOL    HW140361   7.344   3.271   8.126 -0.0652 -1.5476 -0.9393
 9296SOL    HW240362   7.246   3.195   8.232  0.3348  0.8751  1.2369
 9297SOL     OW40363   2.240   6.644   5.297 -0.1715 -0.3523 -0.2584
 9297SOL    HW140364   2.195   6.653   5.208 -1.1294 -0.0203  0.2549
 9297SOL    HW240365   2.313   6.576   5.291  0.0057 -0.0724 -1.3896
 9298SOL     OW40366   5.808   4.915   0.756 -0.3205  0.1097 -0.4381
 9298SOL    HW140367   5.749   4.933   0.834 -0.6886  2.7184 -1.2669
 9298SOL    HW240368   5.783   4.828   0.714 -1.3980 -0.3772  1.1965
 9299SOL     OW40369   6.594   4.510   4.539  0.2097  0.3919  0.2218
 9299SOL    HW140370   6.504   4.554   4.539 -0.3612 -0.6906 -2.1052
 9299SOL    HW240371   6.664   4.579   4.558 -0.9273  1.6951 -0.2229
 9300SOL     OW40372   1.998   6.831   4.038 -0.1066 -0.1327  0.5344
 9300SOL    HW140373   1.943   6.912   4.017  0.0283 -0.3142 -0.5614
 9300SOL    HW240374   1.957   6.782   4.115 -1.1831  0.0337  0.0809
 9301SOL     OW40375   6.902   3.983   2.222  0.5433  0.0801 -0.4112
 9301SOL    HW140376   6.985   3.941   2.184 -0.0926 -1.5358 -0.0618
 9301SOL    HW240377   6.828   3.916   2.223 -0.0693  0.7322  1.6509
 9302SOL     OW40378   8.925   7.710   7.376  0.2606 -0.4361  0.0690
 9302SOL    HW140379   8.907   7.794   7.325 -3.4436  0.6440  2.9736
 9302SOL    HW240380   8.873   7.635   7.336 -1.1379 -0.0027  1.0363
 9303SOL     OW40381   8.533   5.377   8.850 -0.9092 -0.1902  0.1223
 9303SOL    HW140382   8.499   5.470   8.861  0.4029  0.2583  0.5008
 9303SOL    HW240383   8.461   5.312   8.874 -1.7575  0.7329  0.0842
 9304SOL     OW40384   1.760   5.045   5.417 -0.7032  0.0401 -0.7332
 9304SOL    HW140385   1.770   5.130   5.467 -0.2534  0.4111 -1.4422
 9304SOL    HW240386   1.816   5.048   5.334 -0.2507 -1.1478 -0.4994
 9305SOL     OW40387   8.599   3.027   3.753 -0.0180  0.3943 -1.3363
 9305SOL    HW140388   8.661   2.958   3.790 -0.0080  0.0158 -2.0613
 9305SOL    HW240389   8.513   2.984   3.725 -0.7507  0.9604 -0.0449
 9306SOL     OW40390   6.596   5.785   6.989 -0.4590 -1.0753 -0.2631
 9306SOL    HW140391   6.562   5.858   7.049 -1.3606 -1.0471 -0.8037
 9306SOL    HW240392   6.692   5.766   7.011 -1.0812 -1.8116  1.9065
 9307SOL     OW40393   0.285   2.911   6.526  0.0501  0.2437 -0.0879
 9307SOL    HW140394   0.346   2.849   6.476  0.6258  0.1115  0.7768
 9307SOL    HW240395   0.191   2.895   6.497  0.1787 -1.1143  0.2057
 9308SOL     OW40396   7.427   4.598   6.960 -0.1400 -0.6694 -0.4103
 9308SOL    HW140397   7.506   4.598   7.020 -0.2699  0.3441 -0.2275
 9308SOL    HW240398   7.450   4.553   6.874  0.1039 -1.9440  0.3202
 9309SOL     OW40399   2.703   8.562   6.987 -0.2929  1.0328  0.8039
 9309SOL    HW140400   2.708   8.542   7.085 -0.4872  1.1740  0.8426
 9309SOL    HW240401   2.667   8.655   6.974  0.2999  1.2395  0.6169
 9310SOL     OW40402   3.774   0.125   7.239 -1.0495  0.3663  0.0312
 9310SOL    HW140403   3.809   0.053   7.298 -1.0322  0.8847  0.6658
 9310SOL    HW240404   3.835   0.138   7.161 -0.5472  0.3518  0.4221
 9311SOL     OW40405   1.774   1.399   4.175 -0.0205 -0.2580 -0.7851
 9311SOL    HW140406   1.843   1.417   4.245 -1.7069  0.0522  0.8280
 9311SOL    HW240407   1.737   1.307   4.187 -0.4952 -0.1183 -1.1181
 9312SOL     OW40408   2.407   5.939   1.729  0.2438  0.6179  1.0296
 9312SOL    HW140409   2.378   5.900   1.817  0.5891  0.1924  0.9572
 9312SOL    HW240410   2.343   6.010   1.701 -0.1833  0.3583  1.3495
 9313SOL     OW40411   2.187   7.283   6.780  0.6127 -0.2502 -0.5522
 9313SOL    HW140412   2.192   7.357   6.847 -0.2516 -0.5014 -0.2010
 9313SOL    HW240413   2.145   7.202   6.823 -0.6407 -0.1751 -1.5879
 9314SOL     OW40414   3.832   0.696   7.768  0.1993 -0.6522  0.0037
 9314SOL    HW140415   3.884   0.636   7.706 -0.7386 -0.5311 -0.9198
 9314SOL    HW240416   3.892   0.770   7.800  0.5330 -0.3524 -1.2686
 9315SOL     OW40417   4.340   4.085   1.054 -0.4322  0.0468  0.4105
 9315SOL    HW140418   4.394   4.123   1.128  1.5828 -0.9394 -0.5155
 9315SOL    HW240419   4.281   4.012   1.089  0.5292 -0.4299  1.0352
 9316SOL     OW40420   0.016   6.098   2.188 -0.1475  0.2117 -0.0308
 9316SOL    HW140421  -0.079   6.124   2.202 -0.0304  1.4691 -1.5139
 9316SOL    HW240422   0.024   6.040   2.108  0.2894 -0.2299  0.3257
 9317SOL     OW40423   4.121   4.611   0.845 -0.4673 -0.2081  0.4431
 9317SOL    HW140424   4.072   4.656   0.919 -0.6908  1.1007 -0.4660
 9317SOL    HW240425   4.211   4.654   0.834  0.3694 -1.7320  1.2627
 9318SOL     OW40426   4.096   5.847   1.115 -0.1581 -0.6770 -0.8729
 9318SOL    HW140427   4.156   5.792   1.173 -0.5407 -1.1261 -0.9007
 9318SOL    HW240428   4.002   5.843   1.151  0.3994  2.6684  1.0938
 9319SOL     OW40429   0.203   1.919   6.328 -0.7911 -0.6721  0.2897
 9319SOL    HW140430   0.135   1.947   6.260  0.9445 -0.6766 -1.5071
 9319SOL    HW240431   0.264   1.850   6.287  1.0237  0.2054  1.4664
 9320SOL     OW40432   4.658   5.845   2.543  0.1749 -0.4195  0.5618
 9320SOL    HW140433   4.749   5.855   2.583  1.0153 -1.7407 -0.9698
 9320SOL    HW240434   4.656   5.765   2.483 -1.1016  1.3615 -1.8779
 9321SOL     OW40435   5.247   5.881   8.188  0.0065  0.2992 -0.3033
 9321SOL    HW140436   5.177   5.812   8.208  1.5038 -0.3682  3.0026
 9321SOL    HW240437   5.205   5.971   8.188 -1.2516 -0.2729 -0.5429
 9322SOL     OW40438   8.698   4.912   3.036  0.1280  0.4834 -0.0694
 9322SOL    HW140439   8.609   4.957   3.049  0.1025  0.3150  0.3699
 9322SOL    HW240440   8.721   4.860   3.119  0.7910  0.7969 -0.0538
 9323SOL     OW40441   4.251   0.062   0.487 -0.7762  1.0616 -0.1789
 9323SOL    HW140442   4.233   0.032   0.394 -0.4058  1.1814 -0.2906
 9323SOL    HW240443   4.338   0.023   0.519 -0.9776  0.8976  0.1703
 9324SOL     OW40444   4.193   0.512   8.121 -0.6144 -0.6031  0.0150
 9324SOL    HW140445   4.171   0.447   8.194 -0.1243 -1.0204 -0.2077
 9324SOL    HW240446   4.135   0.593   8.130 -1.9279 -1.4964 -0.2872
 9325SOL     OW40447   7.197   0.290   0.214  0.3799  0.0387 -0.0221
 9325SOL    HW140448   7.243   0.370   0.173  0.8046 -0.0977  0.1841
 9325SOL    HW240449   7.249   0.208   0.192 -0.5521 -0.2964 -1.0014
 9326SOL     OW40450   8.767   0.258   7.124 -0.4102  0.4352 -0.3143
 9326SOL    HW140451   8.798   0.187   7.187 -0.6619  2.1254  1.7638
 9326SOL    HW240452   8.694   0.221   7.066 -0.8181 -0.9085  1.0068
 9327SOL     OW40453   4.613   2.233   7.401  0.6205  0.8083  0.0041
 9327SOL    HW140454   4.636   2.183   7.317 -0.9734 -0.8665  0.5463
 9327SOL    HW240455   4.683   2.302   7.418  2.1357 -0.3078 -1.5035
 9328SOL     OW40456   3.274   5.804   5.603 -0.3026 -0.4121  0.3724
 9328SOL    HW140457   3.227   5.809   5.691 -0.1750  1.9157  0.3327
 9328SOL    HW240458   3.223   5.745   5.541 -0.7239 -1.5638  1.7928
 9329SOL     OW40459   1.109   4.361   2.393  0.0279 -0.1913  0.3242
 9329SOL    HW140460   1.015   4.385   2.371  0.5537  1.4536 -0.2167
 9329SOL    HW240461   1.168   4.380   2.314  0.9487 -0.3336  0.9581
 9330SOL     OW40462   5.610   2.110   6.132  0.1506  0.3602  0.0274
 9330SOL    HW140463   5.610   2.010   6.143 -0.9863  0.4156  0.5909
 9330SOL    HW240464   5.582   2.153   6.218  1.8277  1.2194  0.1624
 9331SOL     OW40465   5.745   6.742   6.841 -0.1415 -0.4011 -0.0710
 9331SOL    HW140466   5.761   6.699   6.753  0.2564 -2.7315  1.1166
 9331SOL    HW240467   5.792   6.691   6.913 -0.7675  1.2438  1.5449
 9332SOL     OW40468   3.008   6.767   5.828 -0.3651  0.2390 -0.1470
 9332SOL    HW140469   2.977   6.705   5.756  0.7582  0.2914 -0.6833
 9332SOL    HW240470   3.108   6.770   5.828 -0.2934 -0.8810  2.3669
 9333SOL     OW40471   5.135   8.112   2.047  0.3195  0.0792  0.6130
 9333SOL    HW140472   5.182   8.160   2.122  0.0105  0.2422  0.7019
 9333SOL    HW240473   5.201   8.055   1.998  1.3318  2.7917 -1.2844
 9334SOL     OW40474   0.036   5.279   4.100  0.1692 -0.1969 -1.0092
 9334SOL    HW140475   0.092   5.217   4.045  1.4974 -0.5453  0.7008
 9334SOL    HW240476   0.095   5.331   4.162 -1.4545 -1.0977  1.3403
 9335SOL     OW40477   1.451   5.516   7.817 -0.0875  0.6178  0.3062
 9335SOL    HW140478   1.499   5.434   7.848 -0.0823  0.4165 -0.2270
 9335SOL    HW240479   1.502   5.597   7.845 -0.4676  0.4646  1.4671
 9336SOL     OW40480   6.784   4.531   3.174  0.5215 -0.5733  0.4889
 9336SOL    HW140481   6.728   4.481   3.107  0.8707 -0.7857  0.3562
 9336SOL    HW240482   6.826   4.466   3.237  1.9401 -0.5496 -0.4120
 9337SOL     OW40483   2.693   7.302   4.278 -0.1669 -0.3399  0.0095
 9337SOL    HW140484   2.780   7.346   4.297 -0.2844  0.3729 -1.0717
 9337SOL    HW240485   2.703   7.203   4.287  0.3453 -0.1764  1.4505
 9338SOL     OW40486   7.430   0.625   1.447 -0.2986 -0.5349 -0.2076
 9338SOL    HW140487   7.528   0.635   1.463 -0.2556 -2.9680  1.1953
 9338SOL    HW240488   7.380   0.644   1.532 -1.1389  1.4007 -1.0870
 9339SOL     OW40489   6.787   6.328   2.466 -0.6952  0.1305  0.4257
 9339SOL    HW140490   6.721   6.327   2.541  0.4910 -0.3870  1.4980
 9339SOL    HW240491   6.874   6.364   2.500  0.3857 -1.8158 -0.2464
 9340SOL     OW40492   4.779   1.157   6.701 -0.6748 -0.2859 -0.5162
 9340SOL    HW140493   4.861   1.196   6.744 -0.2426 -2.4551  0.7233
 9340SOL    HW240494   4.707   1.149   6.769 -1.4265  0.2321 -1.2530
 9341SOL     OW40495   7.825   7.274   0.628  0.0630 -0.0149 -0.6580
 9341SOL    HW140496   7.808   7.282   0.726  1.1859  1.4076 -0.5646
 9341SOL    HW240497   7.754   7.216   0.587 -0.8415 -0.0265  0.8612
 9342SOL     OW40498   7.768   5.581   8.692 -0.0518  0.2290 -0.1965
 9342SOL    HW140499   7.705   5.507   8.670 -0.0870  0.4171 -0.7454
 9342SOL    HW240500   7.719   5.656   8.736 -0.2582  0.4648 -0.8170
 9343SOL     OW40501   5.068   0.403   8.572  0.4769 -0.3757  0.0113
 9343SOL    HW140502   5.092   0.320   8.624  0.4164  0.8863  2.0851
 9343SOL    HW240503   5.084   0.484   8.629 -1.7467  0.9209 -1.1415
 9344SOL     OW40504   6.272   6.247   7.780 -0.2187  0.5318  0.1266
 9344SOL    HW140505   6.333   6.245   7.859 -0.6903  0.3546  0.4848
 9344SOL    HW240506   6.182   6.212   7.806 -0.6276  1.2766 -0.2638
 9345SOL     OW40507   5.635   5.673   8.773  0.1435  0.6732 -0.0066
 9345SOL    HW140508   5.544   5.707   8.798  0.2542 -0.7411  2.5368
 9345SOL    HW240509   5.671   5.725   8.696 -3.8873 -0.3572 -2.7563
 9346SOL     OW40510   2.213   0.769   8.813  0.1703  0.4031 -0.3027
 9346SOL    HW140511   2.113   0.767   8.821  0.2189  0.2421  0.2576
 9346SOL    HW240512   2.238   0.758   8.717 -0.3553  0.5328 -0.4578
 9347SOL     OW40513   7.796   5.645   7.053 -0.1057  0.0706 -0.2068
 9347SOL    HW140514   7.719   5.628   7.115 -0.1275 -0.7687 -0.4582
 9347SOL    HW240515   7.805   5.743   7.037  0.9494  0.4524  2.4957
 9348SOL     OW40516   8.066   7.096   3.996 -0.7825  0.0820  0.1558
 9348SOL    HW140517   8.161   7.102   3.966 -1.5069 -2.4386 -2.8295
 9348SOL    HW240518   8.051   7.009   4.044 -1.8152 -0.0517 -0.3809
 9349SOL     OW40519   6.227   6.810   7.441  0.1787 -0.2548 -0.3806
 9349SOL    HW140520   6.200   6.752   7.364 -1.4047  1.8530 -1.4710
 9349SOL    HW240521   6.251   6.901   7.406  2.5409 -0.1770  1.2959
 9350SOL     OW40522   2.793   1.768   5.972 -0.8735  0.6646  0.0644
 9350SOL    HW140523   2.787   1.860   6.011  2.1337  0.3754  1.4030
 9350SOL    HW240524   2.876   1.761   5.916 -0.7189 -1.3668  0.4904
 9351SOL     OW40525   7.663   1.421   4.510  0.1183 -0.3419  0.3933
 9351SOL    HW140526   7.643   1.519   4.511 -1.8686 -0.6744 -1.9514
 9351SOL    HW240527   7.640   1.381   4.599 -3.0034  0.6233  0.0870
 9352SOL     OW40528   8.367   2.532   4.506  0.5608  0.1284  0.7540
 9352SOL    HW140529   8.321   2.560   4.590 -0.1460 -1.3434  0.8780
 9352SOL    HW240530   8.454   2.487   4.528  0.9530  0.8214  0.6326
 9353SOL     OW40531   3.374   0.572   5.119 -0.1550 -0.1658  0.2778
 9353SOL    HW140532   3.291   0.525   5.090 -1.0242 -0.1028  2.6239
 9353SOL    HW240533   3.454   0.523   5.083 -1.0181 -3.5450  2.7160
 9354SOL     OW40534   6.465   2.070   6.633  0.6303 -0.6133 -0.2370
 9354SOL    HW140535   6.558   2.075   6.597  1.3010 -4.9434  0.6317
 9354SOL    HW240536   6.468   2.043   6.729 -1.5396 -0.0307  0.0314
 9355SOL     OW40537   7.738   7.915   2.536 -0.0119 -0.1663 -0.3945
 9355SOL    HW140538   7.646   7.878   2.523  0.3651 -1.3428  0.2844
 9355SOL    HW240539   7.806   7.843   2.525  0.7722  0.4556  0.2565
 9356SOL     OW40540   5.005   5.210   3.892 -0.0583 -0.5339 -0.2087
 9356SOL    HW140541   4.986   5.186   3.987 -0.3705 -0.6577 -0.3020
 9356SOL    HW240542   4.932   5.174   3.833 -1.3271  1.8791 -0.2014
 9357SOL     OW40543   1.139   6.646   8.492 -0.3180 -0.2772  0.0286
 9357SOL    HW140544   1.168   6.571   8.550  2.5857  1.1107  0.4535
 9357SOL    HW240545   1.091   6.714   8.548  0.1895 -0.1522  0.3113
 9358SOL     OW40546   3.615   2.804   0.243  0.2173  0.9111  0.3847
 9358SOL    HW140547   3.632   2.710   0.212 -0.6573  1.1885 -0.9721
 9358SOL    HW240548   3.679   2.866   0.196 -0.5255  1.2317 -0.2041
 9359SOL     OW40549   7.915   6.276   2.641  0.7068 -0.9839  0.4495
 9359SOL    HW140550   7.832   6.240   2.599  1.0683  0.4176 -1.5146
 9359SOL    HW240551   7.919   6.375   2.627  3.1556 -1.1617 -0.2607
 9360SOL     OW40552   8.918   0.129   5.764 -0.1079  0.3795  0.5239
 9360SOL    HW140553   8.931   0.134   5.863 -0.1799  0.3917  0.5335
 9360SOL    HW240554   8.950   0.041   5.730  1.1834  0.9058  0.3594
 9361SOL     OW40555   0.030   4.999   7.279 -0.1104  0.3776 -0.0451
 9361SOL    HW140556  -0.056   5.048   7.262 -0.0830 -0.1616 -1.8268
 9361SOL    HW240557   0.059   4.953   7.195  1.1487 -0.6707  0.9481
 9362SOL     OW40558   3.185   3.915   1.301  0.5772  0.4467  0.1780
 9362SOL    HW140559   3.162   3.922   1.204  0.8877 -0.2428  0.0554
 9362SOL    HW240560   3.217   4.004   1.334  0.6000  0.6494 -0.3815
 9363SOL     OW40561   2.595   5.694   2.063  0.1713 -0.4559 -0.4285
 9363SOL    HW140562   2.579   5.643   1.978 -0.3872 -3.1929  1.2315
 9363SOL    HW240563   2.530   5.770   2.069  0.4204 -0.0511 -2.5688
 9364SOL     OW40564   5.401   2.454   6.947  0.7504 -0.9619 -0.0205
 9364SOL    HW140565   5.471   2.499   7.003 -0.2999  0.1163  0.4378
 9364SOL    HW240566   5.441   2.430   6.858  1.2283  1.3193 -0.4687
 9365SOL     OW40567   0.363   7.249   6.811  0.3506  0.2814 -0.2230
 9365SOL    HW140568   0.455   7.289   6.818 -0.3608  1.7927  0.7115
 9365SOL    HW240569   0.311   7.297   6.742 -0.0747  0.0904 -0.0346
 9366SOL     OW40570   3.761   4.425   8.733 -0.4274  0.1838  0.5501
 9366SOL    HW140571   3.827   4.399   8.805 -0.0504 -1.0400 -0.2104
 9366SOL    HW240572   3.774   4.365   8.654 -2.1660  0.2371  0.2141
 9367SOL     OW40573   4.943   1.702   5.454 -0.0944 -0.3362 -0.1748
 9367SOL    HW140574   4.844   1.690   5.462 -0.0818 -0.5520 -0.3438
 9367SOL    HW240575   4.964   1.766   5.379 -0.1367  0.2908  0.3413
 9368SOL     OW40576   6.067   0.032   6.894  0.9966 -0.3040 -0.0696
 9368SOL    HW140577   6.125   0.093   6.840  3.1966 -0.5302  1.9423
 9368SOL    HW240578   6.075   0.056   6.991 -0.4982 -1.8151  0.4481
 9369SOL     OW40579   6.749   5.629   7.844  0.3764 -0.2711  0.1657
 9369SOL    HW140580   6.696   5.692   7.901  2.2525  0.6903  0.8862
 9369SOL    HW240581   6.786   5.679   7.765  0.2561 -0.9327 -0.3152
 9370SOL     OW40582   4.989   3.344   6.805 -0.0698  0.1020  0.0833
 9370SOL    HW140583   4.933   3.283   6.748 -0.5390 -0.0031  0.6551
 9370SOL    HW240584   5.084   3.340   6.773  0.2323 -2.2454  1.1702
 9371SOL     OW40585   0.227   7.450   6.679 -0.2043  0.4279  0.6903
 9371SOL    HW140586   0.187   7.410   6.596 -0.3184  2.3309 -0.2045
 9371SOL    HW240587   0.277   7.534   6.654  0.9974  0.2224  2.3494
 9372SOL     OW40588   2.776   2.108   8.153 -0.3176 -0.5896  0.3289
 9372SOL    HW140589   2.792   2.025   8.207  0.1126 -1.0247 -0.4424
 9372SOL    HW240590   2.749   2.081   8.060 -2.1654  0.1365  0.6378
 9373SOL     OW40591   4.405   0.330   6.918 -0.6647  0.2124 -0.6255
 9373SOL    HW140592   4.475   0.382   6.969 -0.6964  0.3479 -0.7180
 9373SOL    HW240593   4.450   0.269   6.853 -0.5913 -0.7085  0.2726
 9374SOL     OW40594   2.334   3.448   7.946 -0.5152  0.5500 -0.1512
 9374SOL    HW140595   2.405   3.382   7.922  1.3401  2.4772 -0.1092
 9374SOL    HW240596   2.308   3.435   8.042 -1.7598 -1.5137 -0.7253
 9375SOL     OW40597   7.210   7.310   6.730 -0.1229  0.0613 -0.2029
 9375SOL    HW140598   7.281   7.379   6.745  1.1944 -1.2084 -0.3686
 9375SOL    HW240599   7.224   7.268   6.640  0.4805 -1.9607  0.7956
 9376SOL     OW40600   0.357   0.183   1.012  0.4142  0.3613 -0.6170
 9376SOL    HW140601   0.355   0.152   0.917 -1.4365 -0.1165 -0.4516
 9376SOL    HW240602   0.282   0.140   1.062  0.7226  1.4443  0.7955
 9377SOL     OW40603   3.293   3.914   8.677 -0.0176 -0.2779 -0.1545
 9377SOL    HW140604   3.304   4.013   8.687  0.0291 -0.4350  1.4510
 9377SOL    HW240605   3.382   3.871   8.665  0.0764 -0.2507  0.4247
 9378SOL     OW40606   1.980   6.083   1.447  0.2448  0.0884 -0.9400
 9378SOL    HW140607   2.041   6.081   1.368  0.4060 -0.6392 -0.8005
 9378SOL    HW240608   1.982   5.995   1.493  0.6102  0.6899  0.2318
 9379SOL     OW40609   6.965   3.408   5.224 -0.4620 -0.1734  0.1504
 9379SOL    HW140610   7.060   3.380   5.206 -0.9370 -1.0942 -1.0467
 9379SOL    HW240611   6.943   3.489   5.170 -0.5451 -0.3260 -0.0448
 9380SOL     OW40612   7.757   4.867   1.090  0.6466 -0.2330 -0.0648
 9380SOL    HW140613   7.828   4.899   1.027 -1.0439  1.0283 -1.3556
 9380SOL    HW240614   7.680   4.930   1.088 -0.2735 -1.2758  1.7746
 9381SOL     OW40615   2.205   1.051   8.522  0.0876  0.1388 -0.4690
 9381SOL    HW140616   2.269   0.999   8.577  0.4892  0.8053 -0.2967
 9381SOL    HW240617   2.114   1.048   8.565 -0.0737 -1.0555 -0.8756
 9382SOL     OW40618   3.572   8.492   1.305  0.4806 -0.2879  0.0988
 9382SOL    HW140619   3.659   8.461   1.268 -0.4500 -0.9560 -1.5772
 9382SOL    HW240620   3.528   8.416   1.353 -0.5839 -0.8636 -1.7341
 9383SOL     OW40621   6.886   8.361   0.190 -0.4267 -0.3024  0.1136
 9383SOL    HW140622   6.927   8.414   0.116  2.9769  2.8258  4.0595
 9383SOL    HW240623   6.942   8.281   0.209  0.3211  0.4667  1.1938
 9384SOL     OW40624   0.927   7.603   5.764  0.0379  0.5808 -0.8164
 9384SOL    HW140625   0.857   7.535   5.786  1.4173 -0.9255 -1.0600
 9384SOL    HW240626   0.888   7.671   5.702 -1.3734  0.0629 -0.5150
 9385SOL     OW40627   8.449   6.159   0.170 -0.6950 -0.5715 -0.1131
 9385SOL    HW140628   8.435   6.120   0.261 -1.1403  0.4541  0.2690
 9385SOL    HW240629   8.478   6.254   0.179 -0.7893 -0.4516 -1.0515
 9386SOL     OW40630   5.844   0.438   6.032 -0.3005  0.7021  0.6498
 9386SOL    HW140631   5.862   0.498   6.110 -0.4063  2.3101 -0.5502
 9386SOL    HW240632   5.842   0.491   5.948  0.8650 -1.1760 -0.6041
 9387SOL     OW40633   4.347   1.811   2.564 -0.2601  0.3047  0.1246
 9387SOL    HW140634   4.394   1.797   2.477 -0.9694 -0.1042 -0.1980
 9387SOL    HW240635   4.277   1.882   2.552  0.7865  1.4689  0.7956
 9388SOL     OW40636   8.666   7.456   4.458 -0.1920  0.1079  0.3861
 9388SOL    HW140637   8.690   7.392   4.531 -0.4328  1.7836  1.9609
 9388SOL    HW240638   8.738   7.525   4.448 -2.4710  2.9727  2.6441
 9389SOL     OW40639   6.938   7.005   1.713 -0.2656 -0.0784 -0.6586
 9389SOL    HW140640   6.840   7.023   1.704 -0.6148 -0.6699  1.6152
 9389SOL    HW240641   6.951   6.915   1.756  1.2924 -0.5030 -1.9816
 9390SOL     OW40642   6.639   7.044   6.016 -0.3147 -0.0156 -0.0384
 9390SOL    HW140643   6.639   6.965   6.078  0.9821  1.0467  1.3559
 9390SOL    HW240644   6.688   7.020   5.932 -0.4733 -0.8937  0.1159
 9391SOL     OW40645   4.052   4.603   5.920 -0.2637 -0.0549 -0.5657
 9391SOL    HW140646   3.980   4.571   5.859 -2.8666 -0.0369  2.4119
 9391SOL    HW240647   4.026   4.691   5.960  0.9765 -0.4885  1.2784
 9392SOL     OW40648   5.540   7.541   3.283  0.0949  0.5493 -0.7452
 9392SOL    HW140649   5.440   7.533   3.283  0.0570  0.8932  0.2188
 9392SOL    HW240650   5.565   7.630   3.322  0.8115 -0.0425  0.1429
 9393SOL     OW40651   6.603   0.035   1.117  0.3743 -0.0643  0.2830
 9393SOL    HW140652   6.542   0.093   1.063  0.2969  0.0050  0.4482
 9393SOL    HW240653   6.556  -0.051   1.139  0.8866 -0.6892 -0.9571
 9394SOL     OW40654   2.553   1.616   8.750  0.1791 -0.5579  0.1230
 9394SOL    HW140655   2.525   1.523   8.725  0.3692 -0.1341 -1.7173
 9394SOL    HW240656   2.643   1.613   8.792  0.1420 -1.2264  0.1668
 9395SOL     OW40657   4.118   1.766   8.417  0.7772  0.1114  0.1862
 9395SOL    HW140658   4.138   1.733   8.325  2.2505  2.3127 -0.3163
 9395SOL    HW240659   4.021   1.790   8.423  0.2193 -1.9072 -0.1522
 9396SOL     OW40660   8.573   3.461   7.764  0.1716  0.0177 -0.1289
 9396SOL    HW140661   8.579   3.378   7.821  1.4379  0.8270  0.9540
 9396SOL    HW240662   8.652   3.519   7.783  0.2383  0.6343 -2.2163
 9397SOL     OW40663   4.753   7.908   8.282 -0.1539 -0.6944 -0.4482
 9397SOL    HW140664   4.684   7.877   8.347  0.0930 -0.4595 -0.0675
 9397SOL    HW240665   4.732   7.873   8.191 -0.3185 -1.3059 -0.1743
 9398SOL     OW40666   3.134   4.007   2.159  0.1658  0.3710  0.3643
 9398SOL    HW140667   3.230   3.993   2.136  0.2751  0.6298  0.6698
 9398SOL    HW240668   3.082   4.026   2.075  0.5066  0.9761  0.2873
 9399SOL     OW40669   0.140   3.957   4.685 -0.2397  0.0353 -0.0227
 9399SOL    HW140670   0.209   3.885   4.674  0.8191  1.2695 -1.5695
 9399SOL    HW240671   0.171   4.041   4.640 -1.6525  1.3570  1.3892
 9400SOL     OW40672   5.071   4.389   8.674  0.7595  0.1905 -0.1592
 9400SOL    HW140673   5.033   4.311   8.625  1.1670  0.8319 -1.5210
 9400SOL    HW240674   5.126   4.357   8.751 -0.4349 -0.8042  0.2890
 9401SOL     OW40675   8.115   4.990   6.120 -0.3905  0.7240 -0.0932
 9401SOL    HW140676   8.016   4.994   6.109 -0.3610 -0.2775 -0.7981
 9401SOL    HW240677   8.137   4.978   6.217 -0.8728  3.0244  0.3483
 9402SOL     OW40678   8.670   2.858   4.688  0.0319 -0.3611 -0.0171
 9402SOL    HW140679   8.759   2.900   4.708  0.0308  0.5526 -1.8011
 9402SOL    HW240680   8.633   2.898   4.604 -2.2945 -0.4194  0.9624
 9403SOL     OW40681   1.672   7.028   8.837  0.0663  0.1694 -0.1654
 9403SOL    HW140682   1.714   7.058   8.752  0.2750  0.2569 -0.0326
 9403SOL    HW240683   1.613   6.950   8.820  1.6200 -1.0351 -0.0819
 9404SOL     OW40684   4.954   3.651   4.792 -0.7440  0.1009  0.1527
 9404SOL    HW140685   4.941   3.632   4.889  0.0257  0.1323  0.2701
 9404SOL    HW240686   4.928   3.571   4.738  0.7055 -0.6489  0.5230
 9405SOL     OW40687   3.747   2.874   6.670 -0.2938 -0.6159 -0.2493
 9405SOL    HW140688   3.661   2.897   6.623 -0.9565 -1.0964  0.7055
 9405SOL    HW240689   3.727   2.844   6.763  1.0232  0.4467  0.3926
 9406SOL     OW40690   5.858   3.561   0.124  0.7980 -0.6417  0.0909
 9406SOL    HW140691   5.956   3.572   0.139  1.1036 -3.2283  0.1503
 9406SOL    HW240692   5.808   3.590   0.206  1.4518  1.0910 -0.0973
 9407SOL     OW40693   1.950   3.589   6.591 -0.1419  0.4735  0.0708
 9407SOL    HW140694   1.891   3.663   6.623  0.0964  0.0309  1.5956
 9407SOL    HW240695   2.042   3.623   6.576  0.4100  0.1518  2.4871
 9408SOL     OW40696   7.880   3.480   1.043  0.1565 -0.3310 -0.1766
 9408SOL    HW140697   7.862   3.576   1.023 -0.2348 -0.1046  1.1634
 9408SOL    HW240698   7.915   3.434   0.962  3.7120  1.7679  0.0610
 9409SOL     OW40699   0.992   1.793   1.794 -1.3075  0.0644  0.1335
 9409SOL    HW140700   1.061   1.831   1.732 -0.7688  0.6688  1.1050
 9409SOL    HW240701   0.903   1.833   1.773 -0.6621  2.3048  1.4953
 9410SOL     OW40702   4.792   1.123   7.296 -0.0687  0.2012  0.1755
 9410SOL    HW140703   4.816   1.112   7.392 -0.6154 -0.8510  0.1909
 9410SOL    HW240704   4.875   1.139   7.243  0.4913 -1.5588  0.4963
 9411SOL     OW40705   6.151   0.090   1.863  0.2144 -0.0111 -0.3863
 9411SOL    HW140706   6.234   0.119   1.911 -0.5102  0.9110  0.3170
 9411SOL    HW240707   6.138   0.146   1.781  0.8767 -0.8896 -1.1091
 9412SOL     OW40708   5.299   6.584   1.770 -0.4562 -0.5083 -0.0788
 9412SOL    HW140709   5.244   6.597   1.688  0.7073 -2.8809 -1.2907
 9412SOL    HW240710   5.394   6.566   1.744  0.3942  0.9869  1.8846
 9413SOL     OW40711   6.059   5.346   7.094 -0.0823 -1.0800 -0.4329
 9413SOL    HW140712   6.047   5.421   7.029  1.6360 -0.6707 -0.2949
 9413SOL    HW240713   6.060   5.383   7.187  0.4406 -1.3080 -0.3467
 9414SOL     OW40714   8.890   2.830   5.555 -0.6142 -0.1619 -0.2112
 9414SOL    HW140715   8.859   2.898   5.621 -1.5881  0.8401 -1.6636
 9414SOL    HW240716   8.938   2.876   5.479  0.5693 -1.2962 -0.1808
 9415SOL     OW40717   8.578   1.983   4.719 -0.6518  0.0166  0.6170
 9415SOL    HW140718   8.514   1.928   4.772 -0.1246 -0.4756  0.7498
 9415SOL    HW240719   8.671   1.966   4.751 -0.5559  1.6686  1.2595
 9416SOL     OW40720   7.468   6.664   2.688 -0.0657 -0.4613  0.0752
 9416SOL    HW140721   7.398   6.629   2.626 -1.3106  1.0918  0.5949
 9416SOL    HW240722   7.461   6.763   2.694  1.9728 -0.3101  0.4040
 9417SOL     OW40723   7.507   1.473   7.469  0.7799  0.3800  0.9567
 9417SOL    HW140724   7.408   1.468   7.456  0.8071  0.5566  0.6686
 9417SOL    HW240725   7.548   1.524   7.394  0.8393  2.2829  2.2506
 9418SOL     OW40726   5.518   2.245   3.191 -0.0429 -0.4087 -0.5930
 9418SOL    HW140727   5.571   2.265   3.273 -1.7293  0.5554  0.2956
 9418SOL    HW240728   5.510   2.328   3.136 -2.4154  0.0453  0.3623
 9419SOL     OW40729   6.079   6.046   7.132 -0.9419 -0.8992  0.5795
 9419SOL    HW140730   6.086   5.951   7.100  2.6212 -0.3235 -0.5877
 9419SOL    HW240731   6.154   6.064   7.196  0.1271  1.8832 -1.3791
 9420SOL     OW40732   2.863   7.392   5.475 -0.1055  0.1536 -0.1495
 9420SOL    HW140733   2.895   7.445   5.396  1.1391 -1.9161 -1.0590
 9420SOL    HW240734   2.934   7.393   5.546 -0.6345  0.7835  0.3912
 9421SOL     OW40735   1.914   8.779   7.549  0.0752 -0.0612 -0.2878
 9421SOL    HW140736   1.832   8.833   7.526  0.6865 -0.0884 -2.6329
 9421SOL    HW240737   1.908   8.749   7.644 -1.9405  1.1948  0.0152
 9422SOL     OW40738   2.664   8.183   8.230 -0.3774 -0.5004  0.3155
 9422SOL    HW140739   2.746   8.182   8.288 -0.3810  1.4426  0.3747
 9422SOL    HW240740   2.590   8.229   8.278 -0.9480 -0.5873 -0.4724
 9423SOL     OW40741   3.788   5.769   3.036 -0.0370  0.1990 -0.1222
 9423SOL    HW140742   3.801   5.716   2.952 -0.2137  1.4493 -0.9544
 9423SOL    HW240743   3.730   5.848   3.017 -0.2002  0.4131  1.2174
 9424SOL     OW40744   1.212   3.590   8.296 -0.1209 -0.1056 -0.7146
 9424SOL    HW140745   1.308   3.590   8.270  0.6204 -1.0771  1.8649
 9424SOL    HW240746   1.187   3.501   8.334 -1.5683  0.7084  0.3016
 9425SOL     OW40747   4.913   2.016   8.176 -0.1683 -0.2924  0.2086
 9425SOL    HW140748   4.982   2.059   8.233  1.0483 -1.5099 -0.3190
 9425SOL    HW240749   4.882   1.931   8.219  0.5285 -1.0587 -0.7666
 9426SOL     OW40750   6.857   7.558   3.276  0.5773  0.0251  0.1727
 9426SOL    HW140751   6.764   7.570   3.239  0.3069 -3.2282 -0.3493
 9426SOL    HW240752   6.892   7.647   3.305 -2.4863  1.4242 -0.1148
 9427SOL     OW40753   3.818   4.451   7.552  0.3849  0.0459 -0.0829
 9427SOL    HW140754   3.766   4.444   7.467 -0.3489 -0.0746  0.3815
 9427SOL    HW240755   3.756   4.451   7.630  1.1069 -0.6406  0.4985
 9428SOL     OW40756   5.022   5.036   0.327  0.5224 -0.2223 -0.5658
 9428SOL    HW140757   4.980   5.081   0.248  0.1212 -1.6101 -1.1565
 9428SOL    HW240758   5.049   5.105   0.395 -2.0575  0.7343 -0.4809
 9429SOL     OW40759   3.667   6.478   3.765  0.4448  0.5934 -0.5205
 9429SOL    HW140760   3.639   6.418   3.840  2.0961  0.2907 -0.1358
 9429SOL    HW240761   3.659   6.428   3.678  2.2010 -0.3402 -0.1628
 9430SOL     OW40762   8.206   5.809   3.699 -0.1194  0.0462  0.4044
 9430SOL    HW140763   8.286   5.820   3.758 -1.5084  0.3795  2.2358
 9430SOL    HW240764   8.129   5.776   3.752 -0.9072 -1.4223 -1.5936
 9431SOL     OW40765   5.776   5.565   3.077  0.1203  0.1361  0.8449
 9431SOL    HW140766   5.858   5.518   3.112  0.6784  0.3486 -0.1644
 9431SOL    HW240767   5.754   5.530   2.986 -1.4613 -0.5734  1.4786
 9432SOL     OW40768   8.461   3.696   7.902  0.1991  0.5758 -0.6130
 9432SOL    HW140769   8.493   3.612   7.859 -0.8267 -0.2976  0.2748
 9432SOL    HW240770   8.537   3.743   7.946  0.7169 -0.0922 -0.7998
 9433SOL     OW40771   2.821   3.834   3.953 -0.3548  0.4676  0.9471
 9433SOL    HW140772   2.822   3.872   4.046  2.2836  1.3749  0.5910
 9433SOL    HW240773   2.912   3.796   3.932 -1.7973 -2.5273 -0.1606
 9434SOL     OW40774   4.900   7.340   1.818  0.0288 -0.3014 -0.5366
 9434SOL    HW140775   4.880   7.247   1.849 -0.1117  0.0748  0.5386
 9434SOL    HW240776   4.923   7.397   1.897 -0.5052  0.7348 -1.1187
 9435SOL     OW40777   3.777   4.093   7.058  0.0338  0.1502 -0.0449
 9435SOL    HW140778   3.770   4.189   7.032 -1.0499  0.1474  0.1958
 9435SOL    HW240779   3.776   4.036   6.976  0.2818  0.3228 -0.1680
 9436SOL     OW40780   3.755   1.002   5.637 -0.4031 -0.2122  0.1314
 9436SOL    HW140781   3.718   1.065   5.704 -1.9678 -0.7278 -0.2065
 9436SOL    HW240782   3.681   0.942   5.604  0.9145 -1.8179  0.0224
 9437SOL     OW40783   4.691   7.261   1.478 -0.6124 -0.2118  0.2835
 9437SOL    HW140784   4.789   7.263   1.500 -0.3097  2.0076 -1.1563
 9437SOL    HW240785   4.642   7.214   1.552  1.5234 -1.4366  0.9863
 9438SOL     OW40786   2.056   6.195   0.709  0.5471  0.1408  0.8811
 9438SOL    HW140787   2.021   6.213   0.801 -0.6272 -2.6143  1.0232
 9438SOL    HW240788   2.060   6.096   0.694  2.2956  0.5280 -1.4464
 9439SOL     OW40789   3.967   0.012   5.682  0.0009 -0.8251 -0.3017
 9439SOL    HW140790   4.013   0.001   5.770 -0.2855 -1.5323 -0.2394
 9439SOL    HW240791   3.921   0.100   5.679  0.3077 -0.6492  0.1193
 9440SOL     OW40792   1.587   7.025   6.200 -0.3638 -0.1444  0.4296
 9440SOL    HW140793   1.606   7.018   6.102  0.7707 -0.2714  0.6498
 9440SOL    HW240794   1.515   6.961   6.224 -0.4003 -0.3719 -0.2649
 9441SOL     OW40795   8.350   5.394   2.601 -0.3783 -0.5956 -0.3148
 9441SOL    HW140796   8.277   5.455   2.569  0.0157 -0.0313 -0.1648
 9441SOL    HW240797   8.426   5.450   2.634 -0.2182 -1.1777  0.3043
 9442SOL     OW40798   8.214   4.146   8.689 -0.1250  0.6342 -0.4445
 9442SOL    HW140799   8.288   4.193   8.640  0.6104 -1.3711 -1.3170
 9442SOL    HW240800   8.185   4.067   8.637 -0.8911 -0.2557  1.2991
 9443SOL     OW40801   6.124   4.164   4.852  0.2906  0.9789 -0.2842
 9443SOL    HW140802   6.141   4.075   4.895  0.9567  0.6315 -1.2651
 9443SOL    HW240803   6.078   4.223   4.918  1.1618  0.4050  0.8700
 9444SOL     OW40804   8.694   3.046   3.386  0.5975  0.7607 -0.0838
 9444SOL    HW140805   8.612   2.997   3.359  0.9833  0.4963 -0.7737
 9444SOL    HW240806   8.681   3.084   3.478 -0.0676  0.2166  0.0509
 9445SOL     OW40807   3.992   1.061   1.726 -0.9048 -0.2163  0.6946
 9445SOL    HW140808   3.958   1.048   1.633  0.4924 -0.3636  0.1966
 9445SOL    HW240809   4.013   1.158   1.740 -1.2543 -0.1698  0.9152
 9446SOL     OW40810   8.819   2.688   6.513 -0.0408  0.0629  0.1124
 9446SOL    HW140811   8.771   2.701   6.600  2.5050  0.7207  1.4764
 9446SOL    HW240812   8.904   2.637   6.530 -0.5652 -1.6835 -2.3324
 9447SOL     OW40813   4.112   4.659   4.785  0.0922  0.5632 -0.2033
 9447SOL    HW140814   4.016   4.629   4.786 -0.0801  1.0255 -1.5206
 9447SOL    HW240815   4.117   4.753   4.819 -0.0394  0.8454 -0.9565
 9448SOL     OW40816   8.587   1.536   5.343  0.2114  0.0773 -0.2433
 9448SOL    HW140817   8.614   1.593   5.420 -0.4286  0.3816 -0.2400
 9448SOL    HW240818   8.668   1.509   5.291  0.5780  0.4382  0.1384
 9449SOL     OW40819   1.405   7.537   4.112  0.3691 -0.4198 -0.4714
 9449SOL    HW140820   1.422   7.480   4.031 -1.5406 -0.8405 -0.5868
 9449SOL    HW240821   1.404   7.633   4.085  4.5039 -0.1768 -0.1356
 9450SOL     OW40822   5.336   4.670   5.825 -0.3903 -0.2184 -0.3331
 9450SOL    HW140823   5.269   4.661   5.899 -1.0820 -1.6937 -1.1272
 9450SOL    HW240824   5.414   4.610   5.843 -0.4115 -0.3375 -0.6413
 9451SOL     OW40825   0.518   4.128   6.967 -0.3508 -0.0563  0.0006
 9451SOL    HW140826   0.568   4.059   6.914 -0.9907 -0.8599  0.4291
 9451SOL    HW240827   0.422   4.128   6.940  0.0875  2.3548 -1.7101
 9452SOL     OW40828   4.890   8.507   7.776  0.3969  0.4845 -0.1126
 9452SOL    HW140829   4.987   8.512   7.801  0.3914 -0.2261  0.0499
 9452SOL    HW240830   4.876   8.430   7.714  0.0188  0.8867 -0.5277
 9453SOL     OW40831   1.333   6.953   1.215 -0.3169 -0.3596 -0.0443
 9453SOL    HW140832   1.288   6.971   1.127 -0.4360  0.7369  0.2292
 9453SOL    HW240833   1.339   6.855   1.230 -0.6911 -0.5490 -1.0807
 9454SOL     OW40834   1.064   6.160   8.512 -0.6906 -0.0076  0.2138
 9454SOL    HW140835   1.108   6.163   8.602  0.7775 -1.9743 -0.4156
 9454SOL    HW240836   0.972   6.197   8.519 -0.9274 -1.0065  2.7435
 9455SOL     OW40837   2.741   7.497   3.724 -0.5048  0.0248  0.3331
 9455SOL    HW140838   2.784   7.550   3.797  3.0404 -0.3661 -1.3911
 9455SOL    HW240839   2.689   7.559   3.665  1.8398  1.2964 -0.4333
 9456SOL     OW40840   7.168   1.803   8.086  0.0303  0.6694  0.3732
 9456SOL    HW140841   7.199   1.826   8.178  1.3387 -0.3411  0.1954
 9456SOL    HW240842   7.187   1.879   8.025  0.3889  0.8185  0.6673
 9457SOL     OW40843   4.881   2.499   0.478  0.1176 -0.2095 -0.5530
 9457SOL    HW140844   4.816   2.516   0.552 -0.4491 -1.4142 -0.7727
 9457SOL    HW240845   4.936   2.582   0.463  0.9208 -0.2637  1.8567
 9458SOL     OW40846   3.911   3.967   0.831 -0.0685 -0.0463 -0.0626
 9458SOL    HW140847   3.999   3.984   0.874  1.0685 -0.7350 -2.0618
 9458SOL    HW240848   3.918   3.981   0.732 -2.3640  0.5029 -0.1846
 9459SOL     OW40849   5.831   6.331   5.530 -0.0931 -0.5625 -0.2836
 9459SOL    HW140850   5.812   6.425   5.502  0.3301 -0.6357 -0.8087
 9459SOL    HW240851   5.758   6.271   5.496 -0.4183 -0.4180  0.1388
 9460SOL     OW40852   4.138   1.211   5.164 -0.1301 -0.2997  0.3615
 9460SOL    HW140853   4.071   1.278   5.134  1.9115 -0.2465 -4.5627
 9460SOL    HW240854   4.205   1.255   5.224  0.4290  1.7850 -1.7375
 9461SOL     OW40855   7.686   0.041   8.044  0.3807 -0.1347  0.3911
 9461SOL    HW140856   7.642   0.001   7.964 -2.1288  0.9110  1.2071
 9461SOL    HW240857   7.631   0.022   8.125  2.6690 -0.8027  1.8197
 9462SOL     OW40858   4.569   1.996   5.583  0.3277 -0.0258 -0.3435
 9462SOL    HW140859   4.506   1.919   5.593 -0.5975  0.7209 -0.3142
 9462SOL    HW240860   4.545   2.067   5.649  1.2510  0.2408 -0.2842
 9463SOL     OW40861   2.637   2.505   3.709  0.4345  0.0728 -0.2432
 9463SOL    HW140862   2.614   2.427   3.651  2.5008 -1.4778  0.9422
 9463SOL    HW240863   2.560   2.524   3.770  0.1769 -1.5377 -0.0284
 9464SOL     OW40864   3.410   5.191   8.725 -0.2675 -0.2256 -0.2928
 9464SOL    HW140865   3.333   5.252   8.744  0.6766  0.7599  0.4070
 9464SOL    HW240866   3.398   5.106   8.777 -0.7974 -0.0022 -0.0456
 9465SOL     OW40867   6.872   4.878   4.988 -0.1753  0.5739  0.0311
 9465SOL    HW140868   6.891   4.780   4.989 -1.3461  0.3407  0.4231
 9465SOL    HW240869   6.780   4.894   4.951 -0.7611  1.3612  1.7695
 9466SOL     OW40870   0.386   8.652   5.587 -0.1815  0.2473 -0.5330
 9466SOL    HW140871   0.377   8.607   5.676  0.4525  0.3586 -0.4174
 9466SOL    HW240872   0.380   8.583   5.515  0.3005  0.0335 -0.3715
 9467SOL     OW40873   8.348   8.964   6.292  0.8419  0.1179 -0.1058
 9467SOL    HW140874   8.274   8.917   6.338  0.2370  0.0464 -1.1290
 9467SOL    HW240875   8.385   9.035   6.352  1.2397 -1.1190  1.1416
 9468SOL     OW40876   4.123   0.334   3.949  0.0498 -0.0371 -0.6545
 9468SOL    HW140877   4.102   0.389   4.030  3.0766 -0.7461  0.6738
 9468SOL    HW240878   4.193   0.380   3.894 -0.1326 -0.7694 -1.5219
 9469SOL     OW40879   6.968   2.707   4.506 -0.1052 -0.7145 -0.0058
 9469SOL    HW140880   7.015   2.749   4.428 -0.8623 -0.5842 -0.3879
 9469SOL    HW240881   7.023   2.721   4.589 -0.4478  1.2377 -0.0832
 9470SOL     OW40882   0.732   3.306   4.181 -0.1399 -0.6700 -0.2012
 9470SOL    HW140883   0.689   3.299   4.271 -1.5632  0.8032 -0.7351
 9470SOL    HW240884   0.792   3.386   4.178  0.2516 -0.9680 -0.4220
 9471SOL     OW40885   8.153   5.335   2.217  0.5733 -0.2362 -0.3832
 9471SOL    HW140886   8.215   5.298   2.287  0.4096  0.1520 -0.0322
 9471SOL    HW240887   8.108   5.260   2.169 -0.2250 -0.4784  0.7420
 9472SOL     OW40888   4.006   6.934   3.083  0.0053  0.2228  0.7555
 9472SOL    HW140889   3.924   6.917   3.139  0.7134 -2.9707  0.9106
 9472SOL    HW240890   4.084   6.885   3.123  1.5742  1.6397 -0.4983
 9473SOL     OW40891   2.851   1.696   1.956  0.3722 -0.0647 -0.1714
 9473SOL    HW140892   2.927   1.678   2.019  0.1165 -0.8655 -0.0794
 9473SOL    HW240893   2.765   1.668   1.999 -0.0545  1.5201  0.0015
 9474SOL     OW40894   2.609   5.227   3.164 -0.7221  0.2249 -0.0302
 9474SOL    HW140895   2.637   5.192   3.075 -0.6807 -1.1214  0.5048
 9474SOL    HW240896   2.517   5.195   3.186 -0.3584 -0.2664  0.8312
 9475SOL     OW40897   8.842   8.165   5.210 -0.2272 -0.0883 -0.6871
 9475SOL    HW140898   8.847   8.242   5.272  0.4630  1.4246 -2.5726
 9475SOL    HW240899   8.835   8.198   5.116 -0.0263 -2.3212 -1.5181
 9476SOL     OW40900   3.598   7.213   1.539 -0.2672 -0.5191 -0.1536
 9476SOL    HW140901   3.573   7.183   1.447  0.5854 -1.3660 -0.1206
 9476SOL    HW240902   3.554   7.153   1.606  0.5484 -1.0252 -0.0605
 9477SOL     OW40903   8.337   6.951   5.239 -0.0034  0.0164  0.1562
 9477SOL    HW140904   8.393   6.894   5.179  1.6444  2.7838 -1.0749
 9477SOL    HW240905   8.383   6.961   5.327  1.4191  2.0957 -0.7741
 9478SOL     OW40906   3.772   1.808   0.930 -0.3065 -0.3114  0.9990
 9478SOL    HW140907   3.728   1.890   0.965  2.9313  1.5848  0.8325
 9478SOL    HW240908   3.732   1.782   0.842 -1.1354  1.2719  0.9055
 9479SOL     OW40909   5.757   4.729   4.927 -0.1796 -0.0693  0.3244
 9479SOL    HW140910   5.762   4.716   4.828 -1.9065 -1.2652  0.3864
 9479SOL    HW240911   5.849   4.747   4.962  0.6189 -0.7987 -1.3244
 9480SOL     OW40912   5.125   0.888   0.416  0.3689  0.6264  0.2041
 9480SOL    HW140913   5.102   0.878   0.513 -0.7528  1.9227  0.0982
 9480SOL    HW240914   5.077   0.968   0.379  0.3134 -0.2139 -1.5718
 9481SOL     OW40915   8.131   6.632   4.397  0.1404 -0.1153 -0.1970
 9481SOL    HW140916   8.043   6.678   4.391  0.2584  0.1551  0.1654
 9481SOL    HW240917   8.150   6.585   4.311 -0.2122  0.0932 -0.3877
 9482SOL     OW40918   0.608   1.778   1.319  0.2782 -0.5836  0.5049
 9482SOL    HW140919   0.673   1.701   1.320  2.6522  1.3626  1.3266
 9482SOL    HW240920   0.634   1.842   1.246 -0.7671  0.2102  0.8185
 9483SOL     OW40921   1.765   6.268   4.868  0.2880  0.7085 -0.4726
 9483SOL    HW140922   1.769   6.367   4.858  1.9677  0.9031  1.9206
 9483SOL    HW240923   1.732   6.244   4.959 -2.4857 -0.9890 -1.8212
 9484SOL     OW40924   7.920   6.318   0.902  0.1516 -0.6834 -0.5453
 9484SOL    HW140925   7.926   6.224   0.869 -0.1596 -0.5958 -0.8472
 9484SOL    HW240926   7.964   6.379   0.837  0.0228 -0.5747 -0.5304
 9485SOL     OW40927   6.217   4.548   7.516  0.0550 -0.0742  0.0264
 9485SOL    HW140928   6.152   4.485   7.558 -0.6715  0.9893  0.5102
 9485SOL    HW240929   6.293   4.565   7.579 -0.2054  0.2551  0.2434
 9486SOL     OW40930   1.889   7.419   6.217 -0.2947 -0.3772  0.8639
 9486SOL    HW140931   1.937   7.439   6.131  0.1021  1.5514  1.5112
 9486SOL    HW240932   1.883   7.320   6.229 -1.5494 -0.7019 -2.0428
 9487SOL     OW40933   5.166   3.795   4.677  0.0774  0.0220  0.2890
 9487SOL    HW140934   5.086   3.741   4.703  1.3013 -2.7899 -1.4756
 9487SOL    HW240935   5.192   3.772   4.583  1.9698  2.1114  0.2603
 9488SOL     OW40936   2.914   0.314   8.572  0.1538  0.0174 -0.1042
 9488SOL    HW140937   2.941   0.393   8.517  0.4705 -0.0895 -0.1009
 9488SOL    HW240938   2.835   0.270   8.529 -0.4254  0.7076  0.2328
 9489SOL     OW40939   2.888   8.063   0.406 -0.1935  0.3752 -0.4237
 9489SOL    HW140940   2.880   8.079   0.504 -0.6171  3.0236 -0.8635
 9489SOL    HW240941   2.800   8.030   0.370  0.2893 -1.7247  0.2496
 9490SOL     OW40942   4.042   4.011   4.789 -0.3805 -0.1713  0.3192
 9490SOL    HW140943   3.981   4.080   4.750  0.7989  0.1832 -0.9165
 9490SOL    HW240944   4.129   4.054   4.815 -0.1186 -0.9415  0.7429
 9491SOL     OW40945   3.181   7.146   4.740  0.0896  0.5127 -0.2015
 9491SOL    HW140946   3.163   7.189   4.828 -4.1562 -0.7181 -0.3793
 9491SOL    HW240947   3.112   7.175   4.673  0.6539 -1.8999 -1.9372
 9492SOL     OW40948   1.005   6.099   7.138  0.7277 -0.0074  0.0510
 9492SOL    HW140949   0.918   6.127   7.098  0.1536 -0.3149  1.0683
 9492SOL    HW240950   1.045   6.026   7.083  0.4643  0.3060 -0.5589
 9493SOL     OW40951   3.848   1.769   8.369  1.1150  0.2431  0.7808
 9493SOL    HW140952   3.804   1.706   8.305  1.8690 -0.4779  0.9575
 9493SOL    HW240953   3.857   1.859   8.327  0.4296  0.1177  0.3606
 9494SOL     OW40954   8.277   5.205   6.025 -0.0630 -0.6819 -0.4381
 9494SOL    HW140955   8.236   5.128   6.075 -0.0238  0.1715  0.9430
 9494SOL    HW240956   8.211   5.239   5.958 -1.5165  0.4199  1.4851
 9495SOL     OW40957   6.414   7.299   8.240 -0.0627 -0.3345  0.2841
 9495SOL    HW140958   6.465   7.356   8.305  2.3274 -1.6762 -0.3815
 9495SOL    HW240959   6.325   7.342   8.221  1.3082  2.7042  0.4860
 9496SOL     OW40960   6.508   4.091   8.170  0.4362  0.3540 -0.0496
 9496SOL    HW140961   6.435   4.065   8.233  2.1309 -2.3248  0.9060
 9496SOL    HW240962   6.531   4.187   8.184 -1.7164  0.7676  0.8282
 9497SOL     OW40963   4.694   4.746   0.262  0.3010  0.1147 -0.1533
 9497SOL    HW140964   4.661   4.762   0.355  0.4484  0.1254 -0.1011
 9497SOL    HW240965   4.663   4.657   0.230 -1.1887  0.8293 -0.7434
 9498SOL     OW40966   1.724   1.162   4.257  0.0406  0.2686 -0.2521
 9498SOL    HW140967   1.632   1.148   4.294 -0.2639  1.1061 -0.6920
 9498SOL    HW240968   1.784   1.200   4.328 -0.0294  0.0264 -0.0618
 9499SOL     OW40969   5.678   6.284   8.885  0.9485  0.3561  0.0541
 9499SOL    HW140970   5.657   6.209   8.947 -0.4795  0.2957 -0.4696
 9499SOL    HW240971   5.716   6.249   8.800  2.4095  0.3994  0.6879
 9500SOL     OW40972   6.437   3.736   7.847  0.2322  0.3519  0.0604
 9500SOL    HW140973   6.338   3.742   7.845  0.0379 -1.4988  1.9843
 9500SOL    HW240974   6.468   3.666   7.782  0.2269  0.6223 -0.2286
 9501SOL     OW40975   0.259   5.986   3.788 -0.2163  0.2492 -0.3610
 9501SOL    HW140976   0.354   5.975   3.759  0.2087 -0.3230  1.1909
 9501SOL    HW240977   0.252   5.967   3.886 -1.5835  2.2423 -0.0489
 9502SOL     OW40978   8.487   8.890   4.116  0.2852  0.4055  0.3977
 9502SOL    HW140979   8.487   8.922   4.211  1.6249 -0.2398  0.6294
 9502SOL    HW240980   8.451   8.797   4.112  0.9558  0.1429  0.3862
 9503SOL     OW40981   7.007   8.075   8.332  0.3611  0.4453  0.0380
 9503SOL    HW140982   7.103   8.050   8.344  0.4888  0.6189 -0.5958
 9503SOL    HW240983   6.989   8.091   8.235 -0.9923 -2.4471 -0.2511
 9504SOL     OW40984   2.623   8.786   1.526 -0.4951  0.4485 -0.0867
 9504SOL    HW140985   2.537   8.838   1.524 -0.4537  0.5811  1.0649
 9504SOL    HW240986   2.682   8.817   1.451 -1.4682  0.3146 -0.9214
 9505SOL     OW40987   4.596   7.715   5.653  0.2194 -0.0572  0.2535
 9505SOL    HW140988   4.685   7.715   5.699  0.1910  1.6410  0.3384
 9505SOL    HW240989   4.594   7.789   5.585 -1.1795  0.0162  0.3620
 9506SOL     OW40990   7.105   0.607   0.489  0.3309  0.3799  0.1245
 9506SOL    HW140991   7.089   0.514   0.455 -0.3138  0.3514  0.4931
 9506SOL    HW240992   7.202   0.629   0.481  0.2627  0.2429 -1.4031
 9507SOL     OW40993   6.331   3.926   2.205 -0.1184  0.0090  0.4237
 9507SOL    HW140994   6.345   3.828   2.189  0.0341  0.2851 -1.2255
 9507SOL    HW240995   6.361   3.949   2.298  2.1406 -1.0628 -0.0049
 9508SOL     OW40996   6.219   1.751   5.277 -1.0712 -0.2225 -0.2603
 9508SOL    HW140997   6.308   1.761   5.322 -0.5704  0.6971 -1.4198
 9508SOL    HW240998   6.191   1.839   5.240 -1.6895 -0.8655 -1.3350
 9509SOL     OW40999   8.068   3.035   3.379  0.1345  0.6981 -0.9000
 9509SOL    HW141000   8.053   3.061   3.284 -2.3212  1.4642 -0.3388
 9509SOL    HW241001   8.101   3.114   3.431  3.1787 -0.1596 -1.4419
 9510SOL     OW41002   1.299   4.855   0.063 -0.3950 -0.8497 -0.0708
 9510SOL    HW141003   1.227   4.851   0.131  0.5910 -3.1316  0.8770
 9510SOL    HW241004   1.380   4.899   0.102 -0.9846  1.0318 -0.9006
 9511SOL     OW41005   1.569   8.199   7.244 -0.0212  0.0138 -0.1315
 9511SOL    HW141006   1.590   8.297   7.246 -2.4803  0.5552  0.0945
 9511SOL    HW241007   1.558   8.166   7.338 -0.2362 -0.2385 -0.2452
 9512SOL     OW41008   7.741   7.325   5.695  0.2158 -0.3731 -0.2736
 9512SOL    HW141009   7.739   7.424   5.682  1.8891 -0.2803  0.1006
 9512SOL    HW241010   7.756   7.281   5.606 -1.8589 -0.3647 -0.6438
 9513SOL     OW41011   2.273   3.981   6.226  0.4865 -0.5826  0.0460
 9513SOL    HW141012   2.239   3.995   6.319  0.9131 -0.2374  0.1511
 9513SOL    HW241013   2.347   4.045   6.207  1.2655 -1.5005 -0.0895
 9514SOL     OW41014   7.504   0.175   0.553  0.4570  0.2717  0.1763
 9514SOL    HW141015   7.542   0.178   0.460  1.5533 -1.6543  0.5407
 9514SOL    HW241016   7.579   0.176   0.620 -0.2476 -0.3714  0.9900
 9515SOL     OW41017   0.252   7.620   0.224  0.1829 -0.0691  0.2388
 9515SOL    HW141018   0.153   7.612   0.232  0.3828 -0.9553  1.9867
 9515SOL    HW241019   0.286   7.681   0.295  1.0324 -0.8393  0.5018
 9516SOL     OW41020   2.815   8.563   5.278 -0.2305  0.3473 -0.6197
 9516SOL    HW141021   2.746   8.606   5.219  1.3096  2.0322 -1.2183
 9516SOL    HW241022   2.829   8.619   5.359 -1.3158 -1.2541  0.7023
 9517SOL     OW41023   5.586   4.806   3.073 -0.1355  0.1325 -0.2397
 9517SOL    HW141024   5.564   4.873   3.002 -0.9072  1.9422  1.6364
 9517SOL    HW241025   5.684   4.805   3.089 -0.0817  0.5393 -0.5438
 9518SOL     OW41026   7.993   4.596   1.280 -0.0700 -0.0992  0.0605
 9518SOL    HW141027   7.945   4.681   1.299 -0.8124 -0.3470 -0.6646
 9518SOL    HW241028   8.038   4.602   1.191 -0.1336 -0.4658  0.0005
 9519SOL     OW41029   2.414   1.399   2.873 -0.2821  0.1121 -0.0793
 9519SOL    HW141030   2.461   1.413   2.786  0.0097  0.4845  0.1331
 9519SOL    HW241031   2.458   1.324   2.923 -1.5190 -1.2423 -0.9911
 9520SOL     OW41032   1.007   5.754   6.088  0.2036 -0.1672 -0.2836
 9520SOL    HW141033   1.088   5.797   6.049  0.8664 -0.4925  0.7072
 9520SOL    HW241034   1.032   5.664   6.125 -0.1894  0.5196  1.7144
 9521SOL     OW41035   6.259   2.052   5.207 -0.3602 -0.7381  0.1023
 9521SOL    HW141036   6.190   2.105   5.159  0.9291  1.8135  0.9475
 9521SOL    HW241037   6.345   2.054   5.155  0.3989  0.1309  1.3488
 9522SOL     OW41038   1.142   2.583   8.747 -0.8138  0.1058  0.5602
 9522SOL    HW141039   1.102   2.608   8.658 -1.7963 -0.0879  0.9421
 9522SOL    HW241040   1.179   2.490   8.741  1.0142  0.8664 -0.2586
 9523SOL     OW41041   3.819   8.808   5.583  0.1964  0.1572 -0.2073
 9523SOL    HW141042   3.728   8.844   5.564  0.0234  1.0925  2.1523
 9523SOL    HW241043   3.879   8.883   5.610  1.5930 -0.4928 -1.5223
 9524SOL     OW41044   2.145   3.757   0.020  0.4559 -0.1931  0.3004
 9524SOL    HW141045   2.116   3.853   0.024  1.9273  0.2710 -0.0331
 9524SOL    HW241046   2.199   3.735   0.101  1.3063 -0.3578 -0.3117
 9525SOL     OW41047   1.559   4.642   3.511 -0.2573 -0.1399 -0.5617
 9525SOL    HW141048   1.473   4.592   3.499  0.3347 -0.9623 -1.3987
 9525SOL    HW241049   1.542   4.725   3.566 -1.1637 -1.4411  1.1767
 9526SOL     OW41050   0.963   6.269   1.135  0.3181 -0.5049 -0.4110
 9526SOL    HW141051   1.021   6.326   1.193  1.6434 -1.3632 -0.8491
 9526SOL    HW241052   0.980   6.291   1.039 -0.7123 -0.1699 -0.5181
 9527SOL     OW41053   5.446   0.585   1.703 -0.0984 -0.0705  0.7566
 9527SOL    HW141054   5.347   0.595   1.707 -0.1643 -1.2558  3.3188
 9527SOL    HW241055   5.489   0.671   1.729 -0.4467  0.3131  0.0821
 9528SOL     OW41056   6.231   5.227   0.647 -0.2183 -0.0934 -0.1579
 9528SOL    HW141057   6.198   5.155   0.708 -0.5925 -0.1826 -0.4625
 9528SOL    HW241058   6.324   5.206   0.617 -0.2704 -0.3711 -0.1222
 9529SOL     OW41059   4.618   4.094   7.598  0.1939  0.2002  0.0273
 9529SOL    HW141060   4.646   4.089   7.694 -0.0992  0.9292  0.1581
 9529SOL    HW241061   4.560   4.016   7.576  2.3281 -1.3509 -0.2641
 9530SOL     OW41062   3.680   0.686   8.391  0.1153  0.7949  0.1230
 9530SOL    HW141063   3.724   0.622   8.327  2.5686  1.2970  1.2615
 9530SOL    HW241064   3.694   0.780   8.360  0.0792  0.9777  0.6556
 9531SOL     OW41065   0.125   1.890   0.919  0.5415 -0.8451  0.2774
 9531SOL    HW141066   0.167   1.893   0.828  0.1568  0.6073  0.1267
 9531SOL    HW241067   0.160   1.967   0.974  0.3059 -1.3568  1.1552
 9532SOL     OW41068   6.914   0.848   1.501 -0.3926 -0.8484  0.5483
 9532SOL    HW141069   6.863   0.904   1.567  0.4892 -0.9036  1.2873
 9532SOL    HW241070   6.882   0.869   1.408 -1.3571 -0.4668  0.9575
 9533SOL     OW41071   4.800   5.690   5.787 -0.1835  0.5165 -0.0144
 9533SOL    HW141072   4.784   5.688   5.885  2.2315  0.4244  0.4061
 9533SOL    HW241073   4.768   5.605   5.746  0.3384 -0.1527  0.9610
 9534SOL     OW41074   8.664   6.144   8.606 -0.2317  0.4465 -0.9530
 9534SOL    HW141075   8.664   6.051   8.570 -0.3111  0.5275 -1.1668
 9534SOL    HW241076   8.602   6.150   8.684  1.9372 -0.3690  0.8930
 9535SOL     OW41077   5.294   2.434   5.872 -0.6027  0.5358  0.2530
 9535SOL    HW141078   5.349   2.358   5.907  0.2737  1.4297  0.8140
 9535SOL    HW241079   5.198   2.420   5.898 -0.5800 -0.7734 -0.3150
 9536SOL     OW41080   1.457   5.267   6.665  0.2889  0.4164  0.2373
 9536SOL    HW141081   1.398   5.229   6.593 -1.5969  1.5525  1.1487
 9536SOL    HW241082   1.551   5.239   6.648 -0.1794  0.2799 -2.4374
 9537SOL     OW41083   8.200   4.855   2.828 -0.3286 -0.5183  0.0806
 9537SOL    HW141084   8.209   4.767   2.875 -1.2873 -0.7470 -0.1533
 9537SOL    HW241085   8.287   4.878   2.786 -0.0793 -1.3895  0.0962
 9538SOL     OW41086   6.239   4.156   8.663  0.0158  0.2125 -0.0492
 9538SOL    HW141087   6.255   4.092   8.588 -1.4174  0.0239 -0.2096
 9538SOL    HW241088   6.180   4.112   8.732  2.2618 -0.0440  1.7598
 9539SOL     OW41089   7.596   1.129   7.286 -0.1189  0.1563  0.1271
 9539SOL    HW141090   7.679   1.122   7.232 -0.9174 -0.3263 -1.0441
 9539SOL    HW241091   7.531   1.058   7.259 -0.9289  0.5302  1.0159
 9540SOL     OW41092   7.721   8.644   2.320  0.0811  0.0190 -0.3776
 9540SOL    HW141093   7.648   8.634   2.387 -0.7246 -0.3532 -1.3017
 9540SOL    HW241094   7.772   8.558   2.313  0.4398  0.1937  0.0662
 9541SOL     OW41095   3.855   6.458   4.429  0.1678 -0.3420 -0.2465
 9541SOL    HW141096   3.763   6.468   4.467  0.2159  1.5712 -0.5551
 9541SOL    HW241097   3.920   6.502   4.490  0.4926  0.9806 -1.5270
 9542SOL     OW41098   5.169   0.364   7.432 -0.5488 -0.0412  0.5031
 9542SOL    HW141099   5.226   0.317   7.365 -0.6978  1.5680 -0.8076
 9542SOL    HW241100   5.224   0.392   7.510 -0.1284 -0.9293  0.5234
 9543SOL     OW41101   2.834   3.366   8.333  0.2306 -0.1170 -0.4419
 9543SOL    HW141102   2.825   3.392   8.429  1.8978 -4.8006  1.1187
 9543SOL    HW241103   2.744   3.359   8.292 -0.4702  2.8548  0.4517
 9544SOL     OW41104   5.954   0.543   5.344  0.2422  0.2297 -0.2216
 9544SOL    HW141105   5.867   0.495   5.357 -0.1728  1.0938  0.1552
 9544SOL    HW241106   5.955   0.627   5.397  0.9377  0.7034 -0.9729
 9545SOL     OW41107   3.120   4.101   1.647  0.5194  0.1771 -0.7048
 9545SOL    HW141108   3.179   4.162   1.700 -0.2068  1.4811 -1.3790
 9545SOL    HW241109   3.128   4.122   1.550  2.1252 -2.4523 -1.1950
 9546SOL     OW41110   3.178   0.525   5.484 -0.5003 -0.2843  0.2078
 9546SOL    HW141111   3.184   0.432   5.448 -1.7321 -0.3243  0.0682
 9546SOL    HW241112   3.256   0.579   5.451 -0.0758 -1.1127 -0.1570
 9547SOL     OW41113   2.063   3.645   3.043 -0.3449 -0.2330  0.1688
 9547SOL    HW141114   2.019   3.667   2.956 -1.0087 -0.2754  0.4915
 9547SOL    HW241115   2.016   3.692   3.117  0.2223 -0.1973  0.5067
 9548SOL     OW41116   2.370   2.565   1.846 -0.0874 -0.7556 -0.3352
 9548SOL    HW141117   2.313   2.621   1.905  0.6367  1.7024 -1.8963
 9548SOL    HW241118   2.315   2.528   1.771 -0.4605 -1.7691  0.4238
 9549SOL     OW41119   5.862   0.566   8.374 -0.2799  0.1362  0.0924
 9549SOL    HW141120   5.950   0.593   8.413  1.1643 -2.5179 -1.1414
 9549SOL    HW241121   5.865   0.578   8.274 -1.5924  0.7471  0.1215
 9550SOL     OW41122   4.656   4.464   2.310  0.2420 -0.3238 -0.3028
 9550SOL    HW141123   4.557   4.467   2.293  0.5870  3.0767 -2.0180
 9550SOL    HW241124   4.680   4.528   2.383  1.3253 -0.3708 -0.6123
 9551SOL     OW41125   4.101   8.017   2.084  0.6333 -0.5093 -0.5444
 9551SOL    HW141126   4.136   7.946   2.022 -1.9326 -1.8562 -0.5197
 9551SOL    HW241127   4.008   7.993   2.112  1.6418  0.1599  3.6818
 9552SOL     OW41128   4.828   0.539   5.822 -0.4374 -0.5131  0.1371
 9552SOL    HW141129   4.843   0.553   5.724  2.2470  0.9402  0.7057
 9552SOL    HW241130   4.746   0.588   5.850 -1.3171 -1.0628 -1.4115
 9553SOL     OW41131   0.268   8.274   6.552  0.1204  0.0851 -0.1755
 9553SOL    HW141132   0.195   8.302   6.615  1.0820  2.6651 -0.1570
 9553SOL    HW241133   0.232   8.271   6.459  0.0343  1.7237 -0.2173
 9554SOL     OW41134   8.745   2.953   5.759 -0.2206 -0.1280  0.6358
 9554SOL    HW141135   8.754   2.898   5.842  0.8354 -1.6601 -0.4880
 9554SOL    HW241136   8.651   2.947   5.726 -0.6985  0.6308  1.7863
 9555SOL     OW41137   4.107   0.592   2.268  0.2021  0.1677  0.6981
 9555SOL    HW141138   4.143   0.682   2.242  2.1037 -0.2561  1.8185
 9555SOL    HW241139   4.095   0.589   2.367  0.8870 -1.0780  0.7500
 9556SOL     OW41140   8.876   7.977   3.863  0.1341  0.2162  0.2190
 9556SOL    HW141141   8.963   7.982   3.914  1.2606 -0.3209 -1.6096
 9556SOL    HW241142   8.874   7.894   3.808 -2.1914 -0.5037  1.3283
 9557SOL     OW41143   3.821   0.257   5.410  0.3657  0.5020  0.4772
 9557SOL    HW141144   3.855   0.232   5.501 -0.0235  0.9841  0.7583
 9557SOL    HW241145   3.728   0.224   5.399 -0.1412  1.7592  0.8368
 9558SOL     OW41146   2.633   1.909   6.535 -0.0588 -1.0900 -0.2420
 9558SOL    HW141147   2.549   1.960   6.515  1.4224  1.5405  0.0510
 9558SOL    HW241148   2.693   1.911   6.455 -0.0437 -2.5279 -0.2740
 9559SOL     OW41149   8.768   5.480   5.819  0.1418 -0.0913 -0.7761
 9559SOL    HW141150   8.835   5.551   5.798  1.1210 -0.6375  0.4668
 9559SOL    HW241151   8.783   5.401   5.758  1.5536 -0.7829  0.4473
 9560SOL     OW41152   5.465   4.520   4.655  0.1189 -0.2250 -0.1512
 9560SOL    HW141153   5.415   4.595   4.697 -0.6795 -1.5208  1.2650
 9560SOL    HW241154   5.455   4.437   4.711 -0.1914 -1.7574 -2.3903
 9561SOL     OW41155   1.406   5.016   7.976  0.1255 -0.2597  0.2272
 9561SOL    HW141156   1.425   4.959   8.055  0.4553  1.9342  1.7883
 9561SOL    HW241157   1.483   5.011   7.912  0.8601 -0.3463  1.1034
 9562SOL     OW41158   0.004   1.465   5.903 -0.2846 -0.1487 -0.4036
 9562SOL    HW141159  -0.030   1.399   5.835  0.3460 -0.8301 -0.0629
 9562SOL    HW241160   0.057   1.417   5.972 -0.3928  0.6341  0.2324
 9563SOL     OW41161   2.234   2.070   3.755 -0.3006  0.3141  0.3212
 9563SOL    HW141162   2.279   1.981   3.751 -2.3859 -0.8045  0.9625
 9563SOL    HW241163   2.189   2.090   3.668 -0.7603  0.2290  0.5353
 9564SOL     OW41164   4.948   5.379   2.704  0.0453 -0.1364  0.1864
 9564SOL    HW141165   5.037   5.339   2.728  0.3010  0.4998  0.3221
 9564SOL    HW241166   4.922   5.350   2.612  0.8431  0.4304 -0.2207
 9565SOL     OW41167   4.359   4.883   8.501 -0.5505  0.4672 -0.0773
 9565SOL    HW141168   4.411   4.868   8.417 -1.4293 -3.2047 -0.0312
 9565SOL    HW241169   4.296   4.960   8.488  0.2801  0.8161 -2.2775
 9566SOL     OW41170   3.299   5.595   7.705 -0.0390 -0.8281 -0.4810
 9566SOL    HW141171   3.202   5.610   7.724  0.1385  1.0624 -0.9855
 9566SOL    HW241172   3.353   5.629   7.782  0.2538 -1.4244 -0.4229
 9567SOL     OW41173   5.775   2.427   7.437 -0.4877  0.4642 -0.1576
 9567SOL    HW141174   5.747   2.401   7.529 -0.7609  0.5345 -0.2196
 9567SOL    HW241175   5.832   2.509   7.442  2.3511 -1.4455  0.2511
 9568SOL     OW41176   1.470   0.949   6.416 -0.1621  0.3900 -0.5227
 9568SOL    HW141177   1.563   0.959   6.453 -0.8475  0.4469  1.2545
 9568SOL    HW241178   1.454   1.016   6.345  0.7465  1.1984  0.0297
 9569SOL     OW41179   4.485   5.966   2.018 -0.7403  0.3131  0.4965
 9569SOL    HW141180   4.390   5.978   2.045 -0.9870 -0.1756 -0.1540
 9569SOL    HW241181   4.543   6.023   2.076 -1.5984  2.1765 -0.4259
 9570SOL     OW41182   0.321   1.855   6.938  0.2897  0.8489 -0.2303
 9570SOL    HW141183   0.315   1.928   7.006  0.2417 -1.0077  1.7809
 9570SOL    HW241184   0.364   1.775   6.978  1.0246  0.0050 -2.6492
 9571SOL     OW41185   3.153   1.637   2.981  0.0372 -0.0187 -0.0803
 9571SOL    HW141186   3.090   1.657   2.906  0.1020  0.6495  0.0383
 9571SOL    HW241187   3.246   1.628   2.945 -0.0405 -0.4533 -0.1791
 9572SOL     OW41188   3.321   4.273   0.915  0.0282 -0.0838 -0.4537
 9572SOL    HW141189   3.270   4.342   0.864 -1.5552 -0.1908  0.9563
 9572SOL    HW241190   3.419   4.294   0.910 -0.2516  0.9190 -1.9940
 9573SOL     OW41191   0.214   6.581   1.866  0.3713  0.2154 -0.3835
 9573SOL    HW141192   0.293   6.624   1.911 -0.5770  0.6960  0.8663
 9573SOL    HW241193   0.151   6.545   1.936  0.3771 -1.8181 -1.3960
 9574SOL     OW41194   1.702   4.181   8.157  0.6981  0.1809  0.4199
 9574SOL    HW141195   1.711   4.151   8.252  1.0298 -0.0844  0.3057
 9574SOL    HW241196   1.670   4.276   8.155  1.6195  0.5001  0.8119
 9575SOL     OW41197   4.701   3.727   7.475  1.0704  0.4764 -0.3331
 9575SOL    HW141198   4.777   3.739   7.539  1.9542  0.7062 -1.4167
 9575SOL    HW241199   4.653   3.642   7.495  2.4685 -0.3612 -0.5167
 9576SOL     OW41200   4.589   3.481   7.553  0.0576 -0.1102 -0.3676
 9576SOL    HW141201   4.618   3.445   7.464 -1.3486 -0.6868 -0.6030
 9576SOL    HW241202   4.620   3.420   7.626  0.7869  0.1097 -0.4832
 9577SOL     OW41203   8.403   1.879   8.808  0.4579 -0.6090  0.6154
 9577SOL    HW141204   8.349   1.884   8.724  1.1107  0.5397  0.2575
 9577SOL    HW241205   8.373   1.950   8.871  0.5116 -0.9512  1.0246
 9578SOL     OW41206   5.223   8.445   1.572  0.0223  0.2136  0.0385
 9578SOL    HW141207   5.273   8.503   1.507 -0.0761  0.2939  0.0353
 9578SOL    HW241208   5.146   8.401   1.525  1.7117 -2.1133 -0.6922
 9579SOL     OW41209   3.482   5.029   4.249  0.1833  0.1345 -0.1331
 9579SOL    HW141210   3.483   5.043   4.348 -1.6979 -1.6245  0.1665
 9579SOL    HW241211   3.571   4.995   4.219  0.5973  0.1751  1.0157
 9580SOL     OW41212   4.294   4.116   4.861  0.8031  0.4460 -0.0636
 9580SOL    HW141213   4.332   4.051   4.926  0.5626 -0.3823 -0.7373
 9580SOL    HW241214   4.368   4.162   4.812  0.9714 -0.6850 -0.9030
 9581SOL     OW41215   5.439   0.875   0.515 -0.2148 -0.0095  0.1266
 9581SOL    HW141216   5.373   0.950   0.510  0.5035  0.5658 -0.9240
 9581SOL    HW241217   5.530   0.911   0.530  0.1476 -0.6600 -0.4659
 9582SOL     OW41218   1.603   2.939   5.002 -0.2188 -0.2842  0.2083
 9582SOL    HW141219   1.640   2.877   4.933 -0.3262  0.5706 -0.6342
 9582SOL    HW241220   1.503   2.933   5.002 -0.2608  0.3419 -0.3178
 9583SOL     OW41221   3.835   3.028   1.147 -0.5698 -0.4066  0.8672
 9583SOL    HW141222   3.810   2.944   1.194  0.1190 -0.6748  0.7669
 9583SOL    HW241223   3.901   3.079   1.203 -1.3690  0.3175  1.1599
 9584SOL     OW41224   3.753   5.964   5.489  0.7597 -0.7643 -0.3790
 9584SOL    HW141225   3.712   5.891   5.543 -0.8558  0.5544  0.2256
 9584SOL    HW241226   3.837   5.995   5.532 -0.9911  0.9106  1.9791
 9585SOL     OW41227   4.824   0.841   5.736 -0.2423  0.2483 -0.3003
 9585SOL    HW141228   4.754   0.843   5.665  1.8787  3.3965 -2.4282
 9585SOL    HW241229   4.901   0.785   5.705 -0.1335  0.0014  0.3995
 9586SOL     OW41230   6.491   3.862   6.262 -0.3520 -0.4020 -0.0898
 9586SOL    HW141231   6.508   3.779   6.210 -0.8188  0.3186 -1.4226
 9586SOL    HW241232   6.393   3.884   6.260 -0.2339  0.1821  0.2303
 9587SOL     OW41233   8.971   2.709   4.180  0.0175 -0.9087 -0.3956
 9587SOL    HW141234   8.986   2.688   4.083  3.1793 -3.8133  0.6445
 9587SOL    HW241235   9.041   2.774   4.211  1.8730 -3.5028  1.0060
 9588SOL     OW41236   7.450   7.544   6.246 -0.1168  0.0005 -0.2671
 9588SOL    HW141237   7.493   7.629   6.215 -0.2579 -0.2924 -1.3094
 9588SOL    HW241238   7.427   7.488   6.166  0.4200 -1.2366  0.4230
 9589SOL     OW41239   2.102   2.439   8.849  0.0015 -0.0983  0.0557
 9589SOL    HW141240   2.102   2.534   8.817 -1.0477  0.5596  1.9247
 9589SOL    HW241241   2.140   2.436   8.941 -0.1868 -1.4750  0.0921
 9590SOL     OW41242   7.979   7.099   3.387  0.3383  0.0395 -1.0010
 9590SOL    HW141243   8.019   7.186   3.358 -0.7003  1.1655  0.8104
 9590SOL    HW241244   8.004   7.082   3.483  0.3053 -1.5264 -1.2596
 9591SOL     OW41245   8.256   4.582   6.635 -0.1395 -0.0177 -0.4962
 9591SOL    HW141246   8.261   4.674   6.598 -0.8877  0.8880  1.5520
 9591SOL    HW241247   8.328   4.526   6.596  1.6413  2.0288 -0.2047
 9592SOL     OW41248   3.895   2.412   6.133 -0.0302 -0.3341  0.2799
 9592SOL    HW141249   3.993   2.428   6.146 -0.3528  2.6263 -0.6593
 9592SOL    HW241250   3.855   2.384   6.220  1.7386 -2.2504  0.5314
 9593SOL     OW41251   3.518   1.883   3.834 -0.0332 -0.0122 -0.3669
 9593SOL    HW141252   3.464   1.860   3.753 -0.5964 -0.8201  0.2319
 9593SOL    HW241253   3.458   1.920   3.905  0.4354  0.5633 -0.2644
 9594SOL     OW41254   2.956   1.855   5.141  0.6111  0.3859 -0.1587
 9594SOL    HW141255   3.022   1.811   5.081  1.0556  1.1224 -0.2064
 9594SOL    HW241256   2.933   1.945   5.105 -0.1856  0.2563  0.0233
 9595SOL     OW41257   1.894   3.684   4.361 -0.0372 -0.2165 -0.3212
 9595SOL    HW141258   1.987   3.714   4.340 -0.1400  0.7144  0.5491
 9595SOL    HW241259   1.832   3.763   4.358 -0.7059 -0.7384 -0.3346
 9596SOL     OW41260   6.360   1.576   8.503  0.5129  0.3052  0.1539
 9596SOL    HW141261   6.356   1.476   8.493  2.5467  0.3844 -2.0308
 9596SOL    HW241262   6.276   1.617   8.469 -0.4865 -0.6859  1.4046
 9597SOL     OW41263   5.435   3.986   6.801 -0.1484  1.3431  0.3014
 9597SOL    HW141264   5.442   3.886   6.791 -1.3008  1.2701  0.1859
 9597SOL    HW241265   5.511   4.019   6.857 -0.9616  0.1366  2.1367
 9598SOL     OW41266   8.284   4.454   5.432  0.0753  0.5135  0.2386
 9598SOL    HW141267   8.264   4.403   5.515  0.4790 -0.0224  0.0065
 9598SOL    HW241268   8.269   4.552   5.448  1.2574  0.5346  1.2836
 9599SOL     OW41269   0.723   1.159   4.743 -0.6880 -0.2427 -0.6825
 9599SOL    HW141270   0.676   1.240   4.779  0.0212  0.3204 -1.0108
 9599SOL    HW241271   0.703   1.080   4.802 -0.4826  0.4137  0.2878
 9600SOL     OW41272   5.595   7.119   6.149 -0.5613  0.1215 -0.2182
 9600SOL    HW141273   5.668   7.152   6.208  1.1617 -1.5971 -1.2891
 9600SOL    HW241274   5.598   7.019   6.145 -1.6305  0.1261 -1.9444
 9601SOL     OW41275   5.084   0.956   5.909 -0.2760 -0.4775  0.6449
 9601SOL    HW141276   5.114   1.050   5.919 -1.3268  0.1335 -1.6559
 9601SOL    HW241277   5.150   0.905   5.854 -0.7343 -0.5508  0.1610
 9602SOL     OW41278   1.539   5.100   8.329 -0.6000 -0.5485 -0.1820
 9602SOL    HW141279   1.490   5.178   8.368  1.1640 -0.0060  1.0514
 9602SOL    HW241280   1.581   5.047   8.404  1.5461 -0.3934 -1.2426
 9603SOL     OW41281   5.349   6.267   2.355  0.0071 -0.3126  0.4177
 9603SOL    HW141282   5.265   6.214   2.371 -0.1790  0.0251  0.5557
 9603SOL    HW241283   5.326   6.352   2.309  0.2671 -0.1761  0.5417
 9604SOL     OW41284   5.773   4.500   7.174  0.3736  0.4361  0.2112
 9604SOL    HW141285   5.682   4.538   7.189  0.7465  1.4616 -0.0494
 9604SOL    HW241286   5.839   4.575   7.169  1.0414 -0.2204 -0.9441
 9605SOL     OW41287   6.187   1.900   2.706  0.5476 -0.5000 -0.0062
 9605SOL    HW141288   6.222   1.929   2.796  1.4331  1.3431 -0.9115
 9605SOL    HW241289   6.165   1.981   2.652 -0.9209 -1.6142 -1.1037
 9606SOL     OW41290   2.557   7.650   3.623 -0.2502  0.1231 -0.0078
 9606SOL    HW141291   2.501   7.581   3.576 -0.6068 -0.5702  1.3971
 9606SOL    HW241292   2.532   7.741   3.590 -0.9751 -0.3027 -0.6658
 9607SOL     OW41293   8.867   5.764   4.539  0.0472 -0.2798  0.4603
 9607SOL    HW141294   8.912   5.774   4.628  0.4595  0.5368  0.1696
 9607SOL    HW241295   8.798   5.836   4.529 -0.8424 -1.1169  0.6240
 9608SOL     OW41296   0.066   7.733   4.141 -0.2221  0.0039  0.2040
 9608SOL    HW141297   0.049   7.637   4.164  0.1184 -0.1848 -0.2980
 9608SOL    HW241298  -0.008   7.767   4.084 -0.8275  0.3294  1.1798
 9609SOL     OW41299   0.370   8.919   8.576 -0.3754 -0.2123 -0.2744
 9609SOL    HW141300   0.291   8.892   8.630 -1.8524  1.0135 -1.7661
 9609SOL    HW241301   0.345   8.923   8.479  1.2128  1.2764 -0.6555
 9610SOL     OW41302   6.187   6.136   0.815 -0.0965 -0.4894 -0.5682
 9610SOL    HW141303   6.199   6.222   0.766  0.8917 -1.2100 -1.6374
 9610SOL    HW241304   6.272   6.113   0.863  0.0285 -1.4002 -1.1985
 9611SOL     OW41305   3.319   2.051   1.419 -0.1958 -0.2035  1.0483
 9611SOL    HW141306   3.253   2.116   1.456 -0.3315 -0.1580  0.7268
 9611SOL    HW241307   3.390   2.034   1.487 -0.7079 -0.4967  1.5193
 9612SOL     OW41308   0.708   3.673   5.641 -0.7263 -0.2563 -0.0255
 9612SOL    HW141309   0.692   3.583   5.683 -2.0058 -0.3483 -0.6692
 9612SOL    HW241310   0.769   3.726   5.699 -1.1419 -0.9976  1.1235
 9613SOL     OW41311   2.601   0.914   7.925 -1.0597  0.6093 -0.8637
 9613SOL    HW141312   2.561   0.986   7.868  1.0471  0.5111 -2.5275
 9613SOL    HW241313   2.700   0.913   7.913 -0.8494 -1.2179  0.7559
 9614SOL     OW41314   3.251   8.352   8.640  0.4673  0.0430 -0.4714
 9614SOL    HW141315   3.237   8.372   8.737  0.2784  0.8015 -0.6484
 9614SOL    HW241316   3.289   8.260   8.629 -0.9305 -0.6322  0.2435
 9615SOL     OW41317   2.051   4.055   5.244 -0.4083 -0.0259  0.1175
 9615SOL    HW141318   2.003   4.136   5.211  1.4090  1.5674  1.2741
 9615SOL    HW241319   2.117   4.025   5.176  1.6114  1.7934  1.2203
 9616SOL     OW41320   1.469   4.254   6.458 -0.1004  0.0232  0.1004
 9616SOL    HW141321   1.553   4.308   6.459  0.4728 -0.8748  0.5129
 9616SOL    HW241322   1.392   4.312   6.483  0.4390  0.7645  0.0643
 9617SOL     OW41323   8.722   0.204   2.609  0.9699  0.2302 -0.0584
 9617SOL    HW141324   8.774   0.269   2.554  0.3788 -0.6466 -1.6760
 9617SOL    HW241325   8.735   0.112   2.573 -0.6964 -0.1565  0.2774
 9618SOL     OW41326   2.815   6.863   2.810  0.1415  0.3564  0.3200
 9618SOL    HW141327   2.865   6.920   2.745 -2.3254  2.1603 -0.1046
 9618SOL    HW241328   2.720   6.852   2.778  0.1949 -2.8922  1.1063
 9619SOL     OW41329   2.268   0.336   3.165  0.4069 -0.2872  0.1282
 9619SOL    HW141330   2.254   0.361   3.261  0.4845 -0.9063  0.3002
 9619SOL    HW241331   2.300   0.242   3.159  0.7683 -0.1285 -0.4853
 9620SOL     OW41332   5.107   8.246   0.799 -0.1087 -0.8479 -0.9721
 9620SOL    HW141333   5.010   8.251   0.822 -0.5569  0.9489 -3.1226
 9620SOL    HW241334   5.126   8.159   0.753 -0.6931 -1.2184 -0.5151
 9621SOL     OW41335   5.075   8.227   1.432 -0.0655 -0.3635 -0.1818
 9621SOL    HW141336   5.066   8.195   1.526 -0.4643  0.7750  0.1759
 9621SOL    HW241337   4.994   8.199   1.379  0.0826 -0.8597 -0.1424
 9622SOL     OW41338   8.326   7.575   1.994 -0.1563  1.1529  0.1247
 9622SOL    HW141339   8.359   7.487   2.027 -2.1857  0.4281  0.2338
 9622SOL    HW241340   8.355   7.647   2.057 -1.5329  0.1293  1.9617
 9623SOL     OW41341   6.416   2.996   4.029  0.1037 -0.2340 -0.3400
 9623SOL    HW141342   6.507   2.973   3.993  0.3306  1.5263 -0.9399
 9623SOL    HW241343   6.401   2.948   4.115  1.4446 -0.8369 -0.4298
 9624SOL     OW41344   0.750   6.554   0.816  0.3523  0.2573 -0.6432
 9624SOL    HW141345   0.729   6.631   0.756  0.2890  0.7703  0.0248
 9624SOL    HW241346   0.818   6.583   0.884  1.0083 -0.5370 -0.9483
 9625SOL     OW41347   2.180   0.219   2.757 -0.5320 -0.3591 -0.6491
 9625SOL    HW141348   2.228   0.222   2.670  0.3300  0.9035 -0.1391
 9625SOL    HW241349   2.240   0.182   2.828 -1.3857 -1.8358 -0.6684
 9626SOL     OW41350   3.588   1.770   5.636 -0.2372  0.2144 -0.1665
 9626SOL    HW141351   3.627   1.677   5.636 -0.8203 -0.0854  2.2201
 9626SOL    HW241352   3.497   1.768   5.595  0.6489  0.1741 -2.1734
 9627SOL     OW41353   4.311   7.645   5.644  0.1215  0.1804  0.2189
 9627SOL    HW141354   4.259   7.699   5.710 -0.3622  1.7740 -1.4347
 9627SOL    HW241355   4.408   7.646   5.669 -0.0850  0.5559  1.0297
 9628SOL     OW41356   2.963   6.180   8.310  0.0071  0.1063  0.2426
 9628SOL    HW141357   2.959   6.200   8.212 -0.9409  1.9706  0.6294
 9628SOL    HW241358   3.055   6.151   8.335  0.0276 -1.2491 -1.3462
 9629SOL     OW41359   8.855   8.848   1.058 -0.3339  0.2905  0.2395
 9629SOL    HW141360   8.902   8.907   0.992 -0.0415  0.8123  0.9029
 9629SOL    HW241361   8.825   8.903   1.136 -0.6038 -0.3322  0.5754
 9630SOL     OW41362   0.967   6.599   5.541  0.2467 -0.0755  0.8792
 9630SOL    HW141363   0.895   6.530   5.541  1.7563 -1.7235 -1.5429
 9630SOL    HW241364   0.925   6.690   5.541 -1.8287 -0.9963  0.2786
 9631SOL     OW41365   5.719   3.826   2.888  0.0989 -0.6081  0.0373
 9631SOL    HW141366   5.758   3.734   2.886  0.5332 -0.4260  0.0125
 9631SOL    HW241367   5.637   3.826   2.946 -0.0781 -1.0754 -0.2124
 9632SOL     OW41368   3.926   6.191   1.315 -0.2847 -0.8837  0.1796
 9632SOL    HW141369   3.869   6.123   1.361 -1.8547 -0.8365 -1.6507
 9632SOL    HW241370   3.919   6.278   1.362 -0.6258 -1.2327  0.7748
 9633SOL     OW41371   7.543   3.591   2.235  0.2595 -0.5143  0.5823
 9633SOL    HW141372   7.554   3.609   2.137 -1.0502 -0.3183  0.4616
 9633SOL    HW241373   7.605   3.518   2.262  0.8533 -0.3653 -0.3299
 9634SOL     OW41374   7.607   8.346   5.901 -0.2186 -0.1796 -0.5590
 9634SOL    HW141375   7.596   8.357   6.000 -1.1767  1.5487 -0.8473
 9634SOL    HW241376   7.608   8.249   5.879 -1.4924 -0.5587  0.9843
 9635SOL     OW41377   3.846   8.211   0.048  0.1776 -0.1022  0.4875
 9635SOL    HW141378   3.852   8.299   0.097  3.2678  0.0967 -0.1526
 9635SOL    HW241379   3.770   8.215  -0.017  1.1426  2.6717 -0.5629
 9636SOL     OW41380   4.690   0.722   2.498  0.2797  0.1090  0.1795
 9636SOL    HW141381   4.735   0.739   2.585 -0.1567 -0.8887  0.6068
 9636SOL    HW241382   4.753   0.673   2.437  1.0352  1.9526 -0.5373
 9637SOL     OW41383   3.252   6.338   8.488  0.0217  0.1183 -0.2060
 9637SOL    HW141384   3.239   6.409   8.419  0.5408  0.6590  0.2558
 9637SOL    HW241385   3.236   6.249   8.447  2.0051  0.3177 -1.4553
 9638SOL     OW41386   5.248   7.146   0.005  0.2899  0.0161 -0.0706
 9638SOL    HW141387   5.166   7.198  -0.016 -0.3684 -0.7065  0.6797
 9638SOL    HW241388   5.226   7.048   0.008  0.9779 -0.1196  0.9753
 9639SOL     OW41389   1.997   3.725   5.547 -0.2097 -0.0596 -0.2216
 9639SOL    HW141390   1.967   3.716   5.642 -0.0701 -2.1628 -0.3615
 9639SOL    HW241391   1.974   3.817   5.514  0.0378  0.8128  1.9318
 9640SOL     OW41392   2.404   1.834   7.732  0.0370  0.0423 -0.1799
 9640SOL    HW141393   2.477   1.834   7.800  0.8623  0.3513 -1.0598
 9640SOL    HW241394   2.317   1.852   7.777  0.4090 -0.9526  0.9693
 9641SOL     OW41395   2.286   5.006   8.367 -0.1791 -0.5678 -0.0571
 9641SOL    HW141396   2.216   4.959   8.313 -0.3550  0.2392 -0.5350
 9641SOL    HW241397   2.269   4.989   8.464 -0.3247 -1.3747 -0.2225
 9642SOL     OW41398   1.141   2.730   5.690 -0.2853  0.2831 -0.3244
 9642SOL    HW141399   1.186   2.776   5.613  0.6554 -1.3889 -0.8143
 9642SOL    HW241400   1.185   2.756   5.776 -2.0889  3.0630 -0.2075
 9643SOL     OW41401   3.799   4.673   5.117  0.3645 -0.3258 -0.3197
 9643SOL    HW141402   3.814   4.674   5.216  1.5242  1.0305 -0.5009
 9643SOL    HW241403   3.884   4.649   5.071 -0.1483 -0.8437 -1.0054
 9644SOL     OW41404   3.950   2.393   3.033 -0.4032  0.2197 -0.3102
 9644SOL    HW141405   3.883   2.336   2.985 -1.2940 -0.0392  1.2332
 9644SOL    HW241406   3.911   2.484   3.050  0.1920  0.5635 -0.7315
 9645SOL     OW41407   4.836   6.479   0.277  0.4126  0.3812 -0.2388
 9645SOL    HW141408   4.804   6.403   0.333 -1.1204  0.3718 -1.1045
 9645SOL    HW241409   4.927   6.457   0.241  0.0751 -0.9546 -0.3101
 9646SOL     OW41410   2.252   7.948   0.532  0.7190 -0.4574 -0.0848
 9646SOL    HW141411   2.195   7.975   0.455  1.3393 -0.6140 -0.6060
 9646SOL    HW241412   2.276   7.851   0.524  1.6553 -0.2230 -0.2712
 9647SOL     OW41413   4.081   3.411   0.537 -0.0132 -0.0532 -0.2618
 9647SOL    HW141414   4.058   3.452   0.449  0.6115  1.4925  0.2921
 9647SOL    HW241415   4.116   3.481   0.599  2.9462 -1.7242  0.0376
 9648SOL     OW41416   2.044   7.444   0.894  0.5203  0.4932 -0.6353
 9648SOL    HW141417   2.142   7.465   0.897  0.7664 -0.7608  0.6599
 9648SOL    HW241418   2.014   7.438   0.799  0.8802  4.4850 -1.0867
 9649SOL     OW41419   6.806   8.883   1.214  0.2029  0.7079 -0.3446
 9649SOL    HW141420   6.749   8.962   1.190  2.0468  1.6625 -1.7371
 9649SOL    HW241421   6.805   8.818   1.138 -0.9217 -0.4135  0.6067
 9650SOL     OW41422   2.910   2.619   4.877 -0.1553 -0.3507  0.1610
 9650SOL    HW141423   2.896   2.718   4.881  0.5830 -0.2576  0.5130
 9650SOL    HW241424   2.920   2.584   4.970 -0.2981 -0.7382  0.0290
 9651SOL     OW41425   3.193   5.385   1.579 -0.4033  0.0869 -0.2278
 9651SOL    HW141426   3.190   5.485   1.574 -1.0689  0.1821  1.7921
 9651SOL    HW241427   3.213   5.357   1.672  2.1927 -1.6606 -1.2401
 9652SOL     OW41428   6.851   4.079   1.646 -0.6970  0.2198 -0.0450
 9652SOL    HW141429   6.913   4.013   1.690 -0.0506 -0.3086 -1.7062
 9652SOL    HW241430   6.878   4.172   1.672 -0.9605 -0.1058  1.4671
 9653SOL     OW41431   5.006   3.566   5.948 -0.3814 -0.1248  0.6161
 9653SOL    HW141432   5.096   3.580   5.991  0.4662  2.0359 -1.7706
 9653SOL    HW241433   5.008   3.483   5.893 -0.2361 -0.7301  1.5213
 9654SOL     OW41434   0.085   4.632   2.159  0.0302 -0.0195  0.2339
 9654SOL    HW141435   0.096   4.574   2.078 -0.6420  0.5402 -0.2624
 9654SOL    HW241436   0.173   4.675   2.180  1.1820 -3.1232  2.0914
 9655SOL     OW41437   4.329   3.791   0.423 -0.0563 -0.3114 -0.4360
 9655SOL    HW141438   4.310   3.711   0.480  0.7575  0.4497  0.9148
 9655SOL    HW241439   4.341   3.872   0.481 -0.9432  0.8161 -1.7918
 9656SOL     OW41440   5.464   1.511   2.346  0.3253 -0.1267 -0.2420
 9656SOL    HW141441   5.548   1.465   2.318 -0.0383 -1.3303  0.6212
 9656SOL    HW241442   5.475   1.549   2.438 -0.8095 -2.2575  0.8077
 9657SOL     OW41443   3.024   0.332   1.790  0.1369 -0.1496  0.0921
 9657SOL    HW141444   3.057   0.278   1.713  0.3438  0.5915 -0.3428
 9657SOL    HW241445   2.950   0.393   1.760 -0.4351 -0.5424  0.6842
 9658SOL     OW41446   4.354   0.347   0.625 -0.6065 -0.0165  0.5064
 9658SOL    HW141447   4.254   0.348   0.621 -0.6734  0.0754  1.9501
 9658SOL    HW241448   4.390   0.414   0.561 -1.4749  0.2246  0.2552
 9659SOL     OW41449   7.728   3.582   6.655  0.0492  0.0958 -0.2833
 9659SOL    HW141450   7.804   3.604   6.716 -0.9081  0.8829  0.6341
 9659SOL    HW241451   7.728   3.645   6.578 -1.0599  1.5944  0.9288
 9660SOL     OW41452   6.008   6.696   6.332  0.2710  0.5489  0.1998
 9660SOL    HW141453   6.068   6.766   6.371  1.0149 -0.0097  0.0815
 9660SOL    HW241454   6.030   6.608   6.372 -0.4523  0.3344  0.1210
 9661SOL     OW41455   0.422   6.882   6.774 -0.1265  0.3824 -0.2199
 9661SOL    HW141456   0.329   6.915   6.790  0.0485  0.2497  1.1629
 9661SOL    HW241457   0.469   6.872   6.862  0.4058 -1.8641 -0.7293
 9662SOL     OW41458   6.923   8.270   6.507  0.1115 -0.1653 -0.1645
 9662SOL    HW141459   6.915   8.345   6.442 -1.5152 -0.2476 -0.0650
 9662SOL    HW241460   6.948   8.186   6.458 -0.0329  0.0109 -0.5413
 9663SOL     OW41461   4.683   3.136   1.860 -0.5291  0.0128  0.4229
 9663SOL    HW141462   4.670   3.107   1.766 -0.2322  0.4025  0.2607
 9663SOL    HW241463   4.732   3.065   1.911  2.0735  1.1134 -0.5086
 9664SOL     OW41464   2.103   0.555   5.218  0.7126  0.3198 -0.0230
 9664SOL    HW141465   2.139   0.504   5.139  0.6658  1.8732 -1.0651
 9664SOL    HW241466   2.053   0.493   5.277  3.4835 -1.5569  0.4839
 9665SOL     OW41467   5.177   2.701   8.046 -0.5963  0.0374 -0.6936
 9665SOL    HW141468   5.258   2.732   7.997 -0.2043 -1.8078 -1.2875
 9665SOL    HW241469   5.157   2.763   8.122  1.1783  0.6932 -0.7355
 9666SOL     OW41470   8.410   7.378   5.895  0.0250 -0.1232  0.4417
 9666SOL    HW141471   8.383   7.325   5.815 -0.3065 -1.4139  1.3934
 9666SOL    HW241472   8.424   7.473   5.869 -0.5470 -0.4407 -1.0525
 9667SOL     OW41473   0.929   8.124   5.231 -0.7831 -0.2777  0.3136
 9667SOL    HW141474   0.910   8.054   5.163 -0.6023  0.6125 -0.6613
 9667SOL    HW241475   0.845   8.149   5.278 -0.9032 -0.9004  0.4352
 9668SOL     OW41476   5.178   4.916   6.145 -0.2331  0.1790  0.3247
 9668SOL    HW141477   5.151   4.988   6.209  0.5185  1.7123 -1.0604
 9668SOL    HW241478   5.251   4.949   6.086 -0.9428 -1.2090 -1.3683
 9669SOL     OW41479   4.246   0.622   8.791  0.2964  0.2932  0.1134
 9669SOL    HW141480   4.281   0.593   8.880  1.4269  0.3720 -0.3003
 9669SOL    HW241481   4.321   0.657   8.735 -0.2667 -0.5031 -1.1691
 9670SOL     OW41482   2.565   7.803   2.143 -0.9684  0.0686  0.3028
 9670SOL    HW141483   2.516   7.735   2.089 -1.0007  1.2878 -1.2391
 9670SOL    HW241484   2.504   7.842   2.212 -1.2674 -0.6432  0.4448
 9671SOL     OW41485   3.495   2.936   1.940 -0.6045  0.1893 -0.1654
 9671SOL    HW141486   3.538   2.856   1.982  0.2418  1.1263  0.8008
 9671SOL    HW241487   3.515   2.938   1.843  1.4113  0.4998  0.2319
 9672SOL     OW41488   3.134   2.599   1.657 -0.0534  0.0466 -0.0524
 9672SOL    HW141489   3.138   2.534   1.733  0.3314  0.6944  0.4853
 9672SOL    HW241490   3.219   2.651   1.653 -0.3400  0.4851 -0.5117
 9673SOL     OW41491   6.502   4.847   7.147 -0.5145  0.3115 -0.5623
 9673SOL    HW141492   6.435   4.862   7.220 -0.7017  0.3800 -0.7492
 9673SOL    HW241493   6.579   4.909   7.159 -0.2926 -0.0472 -0.1106
 9674SOL     OW41494   0.341   0.267   6.127  0.0374  0.1935 -0.1036
 9674SOL    HW141495   0.271   0.247   6.059 -0.4448  0.0909  0.4223
 9674SOL    HW241496   0.405   0.334   6.090 -1.5232  1.8715  0.1771
 9675SOL     OW41497   8.961   6.472   1.932  0.3361  0.1040 -0.3126
 9675SOL    HW141498   8.967   6.506   1.838  0.6635  0.2014 -0.2576
 9675SOL    HW241499   8.936   6.375   1.931  2.9015 -0.5903 -0.5971
 9676SOL     OW41500   2.819   4.861   5.217  0.3632 -0.2272 -0.0367
 9676SOL    HW141501   2.754   4.935   5.204 -0.0959 -0.8689 -1.4421
 9676SOL    HW241502   2.912   4.896   5.207  0.1615  0.2704 -0.1630
 9677SOL     OW41503   5.389   3.316   7.030  0.1747 -0.3782 -0.8927
 9677SOL    HW141504   5.380   3.356   6.938 -0.0857  3.0420  0.5408
 9677SOL    HW241505   5.314   3.348   7.087  3.1721  1.8677  1.9811
 9678SOL     OW41506   5.953   1.154   0.778 -0.5001  0.7772  0.0462
 9678SOL    HW141507   6.047   1.153   0.746 -0.5422  0.7375 -0.0757
 9678SOL    HW241508   5.911   1.242   0.756 -0.4305  0.8687  0.2770
 9679SOL     OW41509   8.721   1.654   7.247  0.3681  0.3724 -0.1323
 9679SOL    HW141510   8.656   1.700   7.308  0.1046  0.2729 -0.3375
 9679SOL    HW241511   8.672   1.589   7.190  0.6951  0.0777 -0.0764
 9680SOL     OW41512   2.213   0.930   6.828  0.0550  0.1426  0.8513
 9680SOL    HW141513   2.154   0.904   6.904  0.2388  0.3027  1.0479
 9680SOL    HW241514   2.284   0.992   6.860  0.8200 -0.6814  0.7839
 9681SOL     OW41515   6.872   3.869   4.797 -0.4134  0.2203 -0.3392
 9681SOL    HW141516   6.820   3.914   4.724  0.2451  1.5240 -0.0312
 9681SOL    HW241517   6.961   3.913   4.806  0.6521 -1.8598 -0.7025
 9682SOL     OW41518   0.205   1.004   7.955 -0.4256 -0.1546 -0.1711
 9682SOL    HW141519   0.159   0.969   8.037 -0.8686  0.3663 -0.2003
 9682SOL    HW241520   0.249   1.091   7.977 -0.0639 -0.2973 -0.3360
 9683SOL     OW41521   8.364   3.952   4.385  0.0084  0.2543 -0.1307
 9683SOL    HW141522   8.387   3.952   4.483  0.3625 -0.9360 -0.2038
 9683SOL    HW241523   8.315   4.036   4.362  0.8469  1.0224  0.8501
 9684SOL     OW41524   7.002   0.791   8.676 -0.1655  0.0390  0.1860
 9684SOL    HW141525   7.019   0.729   8.753 -0.1273 -1.3189 -0.8988
 9684SOL    HW241526   6.989   0.738   8.593 -2.2217  1.3819 -0.4035
 9685SOL     OW41527   5.487   5.829   6.773 -0.0219 -0.2174 -0.2682
 9685SOL    HW141528   5.562   5.764   6.784 -1.7111 -1.9304  1.8388
 9685SOL    HW241529   5.458   5.831   6.678  2.0270 -0.2912 -0.9080
 9686SOL     OW41530   4.129   6.906   3.583  0.4813  0.8412  1.0305
 9686SOL    HW141531   4.206   6.908   3.647  1.4329 -1.2070  0.0158
 9686SOL    HW241532   4.045   6.929   3.631  1.1722 -0.6447  3.0202
 9687SOL     OW41533   1.182   7.805   2.453 -0.7460  0.6682 -0.1441
 9687SOL    HW141534   1.090   7.825   2.419 -0.6374  0.8196 -0.3552
 9687SOL    HW241535   1.218   7.725   2.405 -1.4753 -0.5149  1.2414
 9688SOL     OW41536   4.420   3.189   8.365 -0.3462  0.6175 -0.4975
 9688SOL    HW141537   4.406   3.091   8.380  1.7239 -0.1982 -3.5078
 9688SOL    HW241538   4.512   3.214   8.395 -0.8063  1.6324  0.1021
 9689SOL     OW41539   2.431   4.513   1.327 -0.0077  0.0376 -0.5486
 9689SOL    HW141540   2.494   4.545   1.257  1.4514  0.2419  0.8384
 9689SOL    HW241541   2.411   4.416   1.313  2.0491 -0.4984  0.0501
 9690SOL     OW41542   4.183   0.701   5.142  0.7698  0.4519 -0.3312
 9690SOL    HW141543   4.278   0.677   5.158  0.8218  1.3815  0.8332
 9690SOL    HW241544   4.178   0.773   5.072  0.8897  0.1042 -0.6990
 9691SOL     OW41545   8.195   8.586   8.060  0.1592 -0.3058 -0.2291
 9691SOL    HW141546   8.117   8.567   8.000  0.7369  0.5728 -1.2602
 9691SOL    HW241547   8.258   8.649   8.015  0.0016  1.3305  1.7828
 9692SOL     OW41548   6.472   6.050   6.865 -0.8061 -0.3182  0.3518
 9692SOL    HW141549   6.494   6.050   6.963 -1.4767  1.1865  0.5293
 9692SOL    HW241550   6.549   6.089   6.814 -1.0161  0.1986  0.4291
 9693SOL     OW41551   5.824   0.637   2.263 -0.0870  0.1730  0.0210
 9693SOL    HW141552   5.818   0.711   2.196 -1.0002  1.9534  2.0068
 9693SOL    HW241553   5.918   0.606   2.271  0.2017  0.7074 -1.2923
 9694SOL     OW41554   1.877   5.168   6.814  0.1352  0.3462  0.4297
 9694SOL    HW141555   1.845   5.174   6.719 -1.7517  0.3921  1.0571
 9694SOL    HW241556   1.912   5.258   6.843  0.1499  0.4882 -0.0234
 9695SOL     OW41557   1.818   4.486   8.756  0.4178  0.4378 -0.0688
 9695SOL    HW141558   1.736   4.430   8.748 -0.5580  2.1147 -2.3559
 9695SOL    HW241559   1.835   4.507   8.852 -0.3695 -2.0318  0.6296
 9696SOL     OW41560   5.105   1.292   0.465  0.7649  0.7111 -0.1696
 9696SOL    HW141561   5.038   1.219   0.448 -0.3914  2.1553 -1.9497
 9696SOL    HW241562   5.094   1.326   0.558  1.8624 -1.9102  0.9829
 9697SOL     OW41563   3.233   3.503   8.371  0.1652  0.1605 -0.1206
 9697SOL    HW141564   3.280   3.418   8.347  0.2364  0.5010 -1.2065
 9697SOL    HW241565   3.192   3.493   8.462  1.6171 -0.4248  0.4919
 9698SOL     OW41566   7.950   3.394   7.989 -0.1583  0.1692  0.2412
 9698SOL    HW141567   8.036   3.416   7.945  0.3565  0.8182  1.5305
 9698SOL    HW241568   7.967   3.364   8.083 -1.2885 -0.2735  0.3171
 9699SOL     OW41569   4.483   0.638   7.071 -0.4226  1.1166  0.2961
 9699SOL    HW141570   4.574   0.659   7.107 -0.9563  1.9874  1.1689
 9699SOL    HW241571   4.457   0.707   7.004 -0.0220  0.2849 -0.7375
 9700SOL     OW41572   4.476   1.217   2.901  0.8289  0.0351 -0.4109
 9700SOL    HW141573   4.376   1.216   2.909  0.8326  0.4377 -0.3069
 9700SOL    HW241574   4.515   1.147   2.960  0.6891  0.9023  0.7377
 9701SOL     OW41575   8.302   5.791   6.097 -0.1878  0.3803  0.0060
 9701SOL    HW141576   8.316   5.807   6.195 -1.3040  1.2389  0.0387
 9701SOL    HW241577   8.316   5.694   6.077 -0.4446  0.1087  1.1034
 9702SOL     OW41578   1.339   4.385   8.098 -0.8327 -0.2419 -0.1632
 9702SOL    HW141579   1.306   4.302   8.053 -0.0512 -0.8843  0.4427
 9702SOL    HW241580   1.309   4.465   8.046 -0.2782 -0.9628 -1.6196
 9703SOL     OW41581   7.535   2.805   5.634  0.5798  0.1083 -0.7453
 9703SOL    HW141582   7.475   2.789   5.712 -1.2362  1.0948 -1.9180
 9703SOL    HW241583   7.622   2.758   5.649  0.2455  0.2405  1.8387
 9704SOL     OW41584   4.597   5.265   0.045  0.2151 -0.0610 -0.5074
 9704SOL    HW141585   4.644   5.353   0.054 -0.8736  0.4222  0.7081
 9704SOL    HW241586   4.659   5.192   0.076 -0.2969  0.7208  2.5899
 9705SOL     OW41587   1.058   1.613   4.558 -0.0340 -0.6126  0.2656
 9705SOL    HW141588   1.113   1.674   4.615  3.3791 -3.0742 -0.2549
 9705SOL    HW241589   0.995   1.562   4.616  1.0907 -0.7256  1.4056
 9706SOL     OW41590   0.426   8.522   5.357  0.6643  0.3138 -0.0525
 9706SOL    HW141591   0.360   8.475   5.299 -0.6125  0.4673  1.2410
 9706SOL    HW241592   0.484   8.581   5.301 -0.0359 -0.1224 -1.2566
 9707SOL     OW41593   5.789   6.455   7.955  0.4197 -0.2179  0.3435
 9707SOL    HW141594   5.699   6.488   7.927  0.0459 -0.3846  1.3433
 9707SOL    HW241595   5.787   6.356   7.963  0.7898 -0.2512  0.0222
 9708SOL     OW41596   4.595   2.341   8.592 -0.2741 -0.5421 -0.6487
 9708SOL    HW141597   4.525   2.273   8.574 -0.8377  0.1805 -1.1773
 9708SOL    HW241598   4.597   2.409   8.518  0.5647 -0.2148 -0.3393
 9709SOL     OW41599   2.163   2.093   3.468 -0.3542 -0.1205  0.2592
 9709SOL    HW141600   2.169   2.006   3.419 -1.0918 -0.0826  0.0930
 9709SOL    HW241601   2.128   2.164   3.407 -1.5491 -0.1413  0.9002
 9710SOL     OW41602   1.985   5.070   2.423 -0.2049 -0.1881  0.0783
 9710SOL    HW141603   1.972   5.100   2.518  1.1267  1.2926 -0.1888
 9710SOL    HW241604   2.034   5.141   2.372 -0.6800 -1.0808 -1.6589
 9711SOL     OW41605   6.197   3.567   5.455  0.7287  0.5626 -0.0841
 9711SOL    HW141606   6.295   3.561   5.473  0.4224 -0.2845  1.3590
 9711SOL    HW241607   6.154   3.479   5.476 -0.7082  1.6537  1.6444
 9712SOL     OW41608   3.956   6.036   1.799 -0.0307 -0.0189  0.4390
 9712SOL    HW141609   4.043   6.003   1.835  0.4070  1.0071  0.3266
 9712SOL    HW241610   3.881   6.001   1.855  0.4497 -0.8670  0.5625
 9713SOL     OW41611   2.049   8.694   7.301 -0.2093  0.6552 -0.0723
 9713SOL    HW141612   2.035   8.727   7.394 -1.2316  0.9269 -0.3195
 9713SOL    HW241613   2.142   8.658   7.292 -0.2758  0.1403  1.2030
 9714SOL     OW41614   4.016   6.872   6.326  0.5318 -0.8362  0.3277
 9714SOL    HW141615   3.920   6.845   6.313  0.5155 -0.7543  0.2821
 9714SOL    HW241616   4.021   6.951   6.387  0.4207  0.4509 -1.2754
 9715SOL     OW41617   6.572   7.317   6.652  0.3187 -0.2840  0.2481
 9715SOL    HW141618   6.642   7.250   6.676  1.1566  0.1626 -0.9083
 9715SOL    HW241619   6.581   7.397   6.711  0.6981 -0.2836  0.1906
 9716SOL     OW41620   0.213   2.070   5.237  0.6289  0.1429 -0.3888
 9716SOL    HW141621   0.225   2.090   5.334 -0.4013 -0.1609 -0.1939
 9716SOL    HW241622   0.243   2.148   5.183  1.9306  0.0287  0.1384
 9717SOL     OW41623   1.812   5.757   3.427 -0.3013 -0.3422 -0.1943
 9717SOL    HW141624   1.858   5.722   3.509 -0.0535  0.2528 -0.0785
 9717SOL    HW241625   1.831   5.855   3.417  1.3600 -0.8369 -2.0844
 9718SOL     OW41626   1.980   4.119   6.963  0.0458  0.7118  0.4223
 9718SOL    HW141627   2.045   4.045   6.977  0.7687  1.4598  1.0951
 9718SOL    HW241628   1.889   4.089   6.991  0.1267 -0.2732 -0.3386
 9719SOL     OW41629   2.575   8.784   6.930  0.2241 -0.6220  0.2661
 9719SOL    HW141630   2.505   8.838   6.977  0.3676 -0.6459  0.5063
 9719SOL    HW241631   2.614   8.839   6.856  0.9072 -0.1185  0.9950
 9720SOL     OW41632   1.444   5.830   8.427 -0.2328  0.0679  0.2044
 9720SOL    HW141633   1.418   5.924   8.409 -2.9381 -0.5347  0.7998
 9720SOL    HW241634   1.495   5.794   8.348 -0.3270  1.5967 -0.5742
 9721SOL     OW41635   8.829   4.254   1.308 -0.0264 -0.5731 -0.4270
 9721SOL    HW141636   8.856   4.346   1.281  0.7692 -0.7397 -0.1963
 9721SOL    HW241637   8.898   4.188   1.277  3.0434 -0.4117  5.4257
 9722SOL     OW41638   3.818   8.289   0.565 -0.1580  0.7829  0.3363
 9722SOL    HW141639   3.889   8.347   0.527 -0.6023  0.6242 -0.7371
 9722SOL    HW241640   3.737   8.344   0.586 -0.1959  0.7300  0.3272
 9723SOL     OW41641   1.743   7.805   4.594  1.0137  0.2089 -0.1908
 9723SOL    HW141642   1.731   7.713   4.629 -0.9345  0.4759 -0.1198
 9723SOL    HW241643   1.812   7.804   4.521 -1.9104 -2.0695 -3.0658
 9724SOL     OW41644   7.431   5.074   7.046  0.0301  1.0203 -0.2124
 9724SOL    HW141645   7.382   4.992   7.018 -0.0732  0.9674  0.1293
 9724SOL    HW241646   7.447   5.072   7.145  1.2518  0.7425 -0.4013
 9725SOL     OW41647   8.815   6.755   4.478 -0.0563  0.2485  0.0512
 9725SOL    HW141648   8.750   6.679   4.480  1.2898 -0.9154  0.8967
 9725SOL    HW241649   8.776   6.830   4.426 -2.4631 -0.0529  1.3228
 9726SOL     OW41650   7.248   3.522   5.525  0.5176  0.3659  0.0525
 9726SOL    HW141651   7.307   3.444   5.502 -1.0392 -1.0803  0.8457
 9726SOL    HW241652   7.289   3.573   5.601  1.8742  0.7136 -0.9033
 9727SOL     OW41653   3.456   5.088   0.855 -0.6524  0.2390  0.0821
 9727SOL    HW141654   3.394   5.020   0.895 -1.2990  1.9866  2.1236
 9727SOL    HW241655   3.403   5.151   0.799 -0.2579 -0.0323 -0.6080
 9728SOL     OW41656   6.867   5.119   8.388  0.4080 -0.1671  0.3189
 9728SOL    HW141657   6.861   5.118   8.488  2.5623  0.4004  0.4791
 9728SOL    HW241658   6.885   5.027   8.354  0.8764 -0.1588  0.5444
 9729SOL     OW41659   7.325   0.798   6.095  0.0398  0.1180 -0.4719
 9729SOL    HW141660   7.307   0.709   6.053  1.2379  0.3590 -1.5160
 9729SOL    HW241661   7.265   0.867   6.055 -0.5286 -0.1144 -0.0301
 9730SOL     OW41662   4.935   6.369   4.299  0.2519 -0.6892 -0.3481
 9730SOL    HW141663   5.014   6.430   4.307  0.5611 -1.0270 -0.8031
 9730SOL    HW241664   4.917   6.327   4.387 -0.0337  0.1447 -0.0012
 9731SOL     OW41665   0.111   7.196   6.902 -0.2492 -0.2740  0.0957
 9731SOL    HW141666   0.192   7.249   6.874 -0.0488  0.7391  2.4629
 9731SOL    HW241667   0.136   7.100   6.913  0.3259 -0.1852 -0.4163
 9732SOL     OW41668   5.980   5.434   3.408  0.2781  0.3248  0.4577
 9732SOL    HW141669   5.954   5.521   3.367 -1.1802  0.7965  2.2942
 9732SOL    HW241670   5.944   5.359   3.353 -1.8134  0.9421  0.9442
 9733SOL     OW41671   5.008   7.453   2.370 -0.1439  0.1151  0.0532
 9733SOL    HW141672   4.949   7.497   2.303  2.4427 -1.7724 -3.6948
 9733SOL    HW241673   4.964   7.369   2.404 -1.8799  1.5865  1.5413
 9734SOL     OW41674   7.470   6.053   5.646  0.6685  0.8177 -0.9125
 9734SOL    HW141675   7.476   6.118   5.571 -2.6841  0.6216 -1.4332
 9734SOL    HW241676   7.395   6.080   5.707 -0.4937 -2.2910 -0.9017
 9735SOL     OW41677   7.273   0.538   5.954 -0.3013 -0.4388  0.0891
 9735SOL    HW141678   7.372   0.541   5.966 -0.1663  0.7094 -1.2182
 9735SOL    HW241679   7.251   0.525   5.858 -1.4296  1.4496  0.0665
 9736SOL     OW41680   0.202   6.352   2.755 -0.0778  0.2749  0.6888
 9736SOL    HW141681   0.176   6.399   2.671  3.6599  0.0705 -0.6534
 9736SOL    HW241682   0.195   6.253   2.741 -2.3889  0.2712  1.6562
 9737SOL     OW41683   1.237   7.220   3.477 -0.2091 -0.0858  0.1933
 9737SOL    HW141684   1.177   7.200   3.400 -0.1002  0.4473 -0.0391
 9737SOL    HW241685   1.304   7.290   3.449  2.6844 -3.0589 -0.6141
 9738SOL     OW41686   4.452   3.968   5.620  0.1719  0.8862  0.1043
 9738SOL    HW141687   4.434   3.966   5.718 -0.9289 -1.2457 -0.1185
 9738SOL    HW241688   4.550   3.986   5.605  0.6177 -0.2081  1.6198
 9739SOL     OW41689   0.752   7.899   7.750 -0.0773  0.0358 -0.1323
 9739SOL    HW141690   0.667   7.899   7.803  0.2707  0.8131  0.4387
 9739SOL    HW241691   0.738   7.950   7.665  0.4799  2.2745  1.0775
 9740SOL     OW41692   1.796   1.289   1.451 -0.1627  0.6769  0.6163
 9740SOL    HW141693   1.806   1.375   1.401  0.2756  0.8257  0.9515
 9740SOL    HW241694   1.823   1.303   1.547  3.2352 -0.6287 -0.0742
 9741SOL     OW41695   0.150   8.826   4.791  0.4754 -0.4465 -0.2061
 9741SOL    HW141696   0.173   8.812   4.695  0.6441  1.7426 -0.5154
 9741SOL    HW241697   0.229   8.802   4.848  0.5170 -1.3441 -0.6265
 9742SOL     OW41698   3.466   4.633   3.311  0.4445 -0.6293  0.1332
 9742SOL    HW141699   3.380   4.600   3.350 -0.0993  0.4419 -0.1658
 9742SOL    HW241700   3.539   4.568   3.333 -0.5764 -1.9247 -0.2479
 9743SOL     OW41701   5.613   8.503   6.091  0.2622 -0.0701  0.2875
 9743SOL    HW141702   5.546   8.509   6.017 -0.9229 -1.3111  1.2385
 9743SOL    HW241703   5.607   8.585   6.147 -2.1503 -1.1939  1.7503
 9744SOL     OW41704   5.677   4.054   2.738 -0.2560  0.1768 -0.2628
 9744SOL    HW141705   5.691   3.980   2.804 -1.2784 -0.5829 -0.8822
 9744SOL    HW241706   5.763   4.103   2.725  1.0029 -2.2121 -1.4048
 9745SOL     OW41707   7.560   7.578   4.615 -0.9947  0.2326 -0.1298
 9745SOL    HW141708   7.531   7.571   4.711 -0.5227  1.4698  0.1193
 9745SOL    HW241709   7.533   7.667   4.579  1.1894  0.8580 -0.3263
 9746SOL     OW41710   3.110   3.434   7.924  0.1002 -0.5610  0.1375
 9746SOL    HW141711   3.116   3.335   7.915 -0.1959 -0.7893  2.2257
 9746SOL    HW241712   3.072   3.458   8.014 -0.8754  1.4214 -0.7635
 9747SOL     OW41713   4.888   5.781   2.701  0.0890 -0.0101 -0.5211
 9747SOL    HW141714   4.918   5.718   2.628 -0.3217  0.2323 -0.8995
 9747SOL    HW241715   4.930   5.870   2.686 -0.0083  0.0435 -0.4686
 9748SOL     OW41716   7.354   4.994   3.239 -0.3389 -0.0445  0.6904
 9748SOL    HW141717   7.275   4.977   3.297 -0.1435 -3.5872  0.0685
 9748SOL    HW241718   7.365   4.917   3.175  1.9643  1.7056 -1.1046
 9749SOL     OW41719   6.182   8.329   2.743 -0.6343  0.4880 -0.0449
 9749SOL    HW141720   6.201   8.370   2.833  0.0481  2.1021 -0.8960
 9749SOL    HW241721   6.100   8.272   2.749  0.8968 -1.5480  2.2183
 9750SOL     OW41722   7.846   0.969   0.206  0.3336 -0.5329 -0.1234
 9750SOL    HW141723   7.799   1.049   0.168 -0.4865 -1.2653 -0.6451
 9750SOL    HW241724   7.779   0.899   0.230  1.0559 -1.0613  0.3526
 9751SOL     OW41725   0.709   8.941   0.845  0.3639 -0.0076 -0.1464
 9751SOL    HW141726   0.797   8.896   0.860 -0.0252 -1.2590 -1.5424
 9751SOL    HW241727   0.696   8.959   0.748 -0.8642  0.3027  0.0609
 9752SOL     OW41728   3.292   5.448   8.360  0.5474 -0.1464 -0.0261
 9752SOL    HW141729   3.332   5.416   8.446  0.0001 -0.8090 -0.0101
 9752SOL    HW241730   3.331   5.396   8.283  1.8618  1.2162 -0.2892
 9753SOL     OW41731   4.347   1.875   2.837 -0.1881 -0.0975  0.3899
 9753SOL    HW141732   4.362   1.843   2.744  1.6472 -0.2930  0.7365
 9753SOL    HW241733   4.396   1.961   2.852 -1.7976  0.8037  0.6970
 9754SOL     OW41734   5.297   3.113   8.200  0.7206  0.3602  0.0497
 9754SOL    HW141735   5.236   3.036   8.179  2.8226 -0.9462 -1.3655
 9754SOL    HW241736   5.291   3.181   8.127  0.2078  0.7319  0.4270
 9755SOL     OW41737   5.256   6.165   0.438 -0.2450  0.5761 -0.4169
 9755SOL    HW141738   5.236   6.114   0.522 -0.1667 -0.1758 -0.8491
 9755SOL    HW241739   5.322   6.237   0.458  0.7722 -0.4308 -0.0925
 9756SOL     OW41740   2.472   1.900   5.139  0.0661 -0.1191 -0.4546
 9756SOL    HW141741   2.464   1.977   5.076 -0.0567  0.2152 -0.0298
 9756SOL    HW241742   2.487   1.816   5.086 -0.0564  0.1539 -0.9307
 9757SOL     OW41743   8.234   6.394   1.941  0.0663 -0.2904  0.6827
 9757SOL    HW141744   8.148   6.413   1.988 -1.2992 -1.1254 -1.3850
 9757SOL    HW241745   8.294   6.473   1.947 -2.6467  2.0532 -1.6220
 9758SOL     OW41746   4.756   0.937   6.456 -0.5427 -0.0415  0.1641
 9758SOL    HW141747   4.684   0.962   6.392 -1.3440  0.1886  1.1499
 9758SOL    HW241748   4.761   1.004   6.529  0.5511 -0.1590  0.2050
 9759SOL     OW41749   4.314   2.129   3.219 -0.2124  0.5306 -0.1278
 9759SOL    HW141750   4.370   2.126   3.136 -1.4263 -2.2266 -0.8879
 9759SOL    HW241751   4.219   2.109   3.197 -0.6655  0.3172  1.8581
 9760SOL     OW41752   3.106   2.089   0.994 -0.1223 -0.1740 -0.3815
 9760SOL    HW141753   3.175   2.101   1.065 -0.8291 -1.4457  0.5265
 9760SOL    HW241754   3.052   2.008   1.013 -0.2800 -0.5678 -2.4234
 9761SOL     OW41755   1.030   2.561   0.886 -0.1194  0.2944  0.2059
 9761SOL    HW141756   1.109   2.616   0.915 -1.2845  1.7667  0.6056
 9761SOL    HW241757   1.043   2.531   0.791  1.4195 -0.4007  0.6161
 9762SOL     OW41758   3.396   4.929   5.944  0.1627 -0.1743  0.3340
 9762SOL    HW141759   3.338   4.887   5.874 -0.5089  0.0989  0.7164
 9762SOL    HW241760   3.472   4.868   5.966 -0.4421 -0.9083  0.4139
 9763SOL     OW41761   5.371   7.251   3.902  0.1938  0.4073 -0.5517
 9763SOL    HW141762   5.309   7.328   3.884  0.4334  0.6679 -0.2555
 9763SOL    HW241763   5.385   7.241   4.000 -1.5781 -1.3912 -0.4227
 9764SOL     OW41764   7.982   7.539   0.863  0.1552 -0.0444 -0.0974
 9764SOL    HW141765   7.999   7.542   0.765  1.3922 -0.4922  0.0926
 9764SOL    HW241766   7.966   7.444   0.891  3.1625 -0.3697  0.6591
 9765SOL     OW41767   2.696   0.500   3.668 -0.6264 -0.0749 -0.5502
 9765SOL    HW141768   2.772   0.498   3.604  0.0716  0.1557  0.2525
 9765SOL    HW241769   2.613   0.466   3.624 -1.0110  3.3228 -2.6326
 9766SOL     OW41770   4.534   3.051   6.946  0.8988 -0.1259 -0.0055
 9766SOL    HW141771   4.578   3.138   6.928 -2.6846  1.3740 -2.1656
 9766SOL    HW241772   4.451   3.066   7.000  0.9858 -2.3452  0.7850
 9767SOL     OW41773   3.999   5.459   1.202  0.1613 -0.1110 -0.0301
 9767SOL    HW141774   3.933   5.417   1.264 -0.4628  2.6172  1.2772
 9767SOL    HW241775   3.951   5.508   1.129  0.7731  0.2651 -0.1920
 9768SOL     OW41776   5.454   3.815   5.877  0.4235 -0.2752  0.6043
 9768SOL    HW141777   5.450   3.734   5.818 -0.5427  1.6249 -2.0496
 9768SOL    HW241778   5.550   3.835   5.898  0.8874 -0.3402 -1.3107
 9769SOL     OW41779   5.735   1.304   0.096  0.1765 -1.3015 -0.2957
 9769SOL    HW141780   5.699   1.224   0.143 -1.8452 -0.3089 -0.0998
 9769SOL    HW241781   5.830   1.320   0.124  0.4237 -3.2778  0.0761
 9770SOL     OW41782   5.232   8.403   2.152  0.0267  0.1128  0.2430
 9770SOL    HW141783   5.206   8.453   2.235  0.2138 -0.1351  0.4532
 9770SOL    HW241784   5.299   8.332   2.176 -0.9385 -0.8529  0.0945
 9771SOL     OW41785   7.111   2.956   6.014  0.5502 -0.1582 -0.2727
 9771SOL    HW141786   7.109   2.857   6.025 -1.0646 -0.1851 -0.7880
 9771SOL    HW241787   7.079   2.980   5.922  0.3717  0.8700  0.0555
 9772SOL     OW41788   3.671   6.680   4.815  0.0912  0.4887  0.5189
 9772SOL    HW141789   3.637   6.667   4.908 -0.0065  1.4276  0.6202
 9772SOL    HW241790   3.618   6.752   4.770  0.8093  0.7591  0.0943
 9773SOL     OW41791   3.800   0.367   6.450  0.0829 -0.8105  0.5486
 9773SOL    HW141792   3.827   0.278   6.412  0.0420 -0.3363 -0.6305
 9773SOL    HW241793   3.876   0.431   6.439  0.3435 -0.8655  1.9804
 9774SOL     OW41794   1.445   0.079   7.370  0.0265 -0.3547  0.4086
 9774SOL    HW141795   1.530   0.124   7.398  0.6568 -2.1816  1.5171
 9774SOL    HW241796   1.465   0.012   7.298 -0.8928  1.0147 -1.1699
 9775SOL     OW41797   6.440   5.565   5.183  0.5746  0.2802  0.0815
 9775SOL    HW141798   6.472   5.659   5.185 -1.5575  1.0886 -2.0133
 9775SOL    HW241799   6.346   5.561   5.216  0.9331 -1.2746  0.9981
 9776SOL     OW41800   4.079   5.540   5.396  0.4627  0.4909  0.1081
 9776SOL    HW141801   4.043   5.596   5.322 -0.8884 -1.1335 -0.5025
 9776SOL    HW241802   4.096   5.447   5.363  0.1322 -0.1811  1.7291
 9777SOL     OW41803   2.661   1.617   2.631 -0.4139  0.0575 -0.3032
 9777SOL    HW141804   2.600   1.538   2.635 -1.3102  0.5887 -2.6245
 9777SOL    HW241805   2.713   1.623   2.717 -1.4886 -2.0878  0.5522
 9778SOL     OW41806   8.324   4.621   6.890 -0.0413 -0.3566 -0.4966
 9778SOL    HW141807   8.386   4.546   6.914  0.1308  0.4341  1.6310
 9778SOL    HW241808   8.291   4.609   6.796  1.9153 -1.7533 -1.0282
 9779SOL     OW41809   4.866   8.712   1.921  0.1939 -0.1699 -0.6835
 9779SOL    HW141810   4.795   8.664   1.870  0.4452  0.5756 -1.7559
 9779SOL    HW241811   4.943   8.650   1.937 -1.1900 -1.3792  1.6167
 9780SOL     OW41812   2.828   5.023   1.221  0.0031 -0.4293 -0.0951
 9780SOL    HW141813   2.776   5.004   1.305  1.1841  0.3275  0.8249
 9780SOL    HW241814   2.766   5.021   1.143 -1.5097  0.9205  1.0328
 9781SOL     OW41815   2.721   7.001   5.242 -0.1498 -0.0135 -0.4132
 9781SOL    HW141816   2.662   6.955   5.175  1.5610 -4.2144  0.7861
 9781SOL    HW241817   2.817   6.984   5.219  0.4951  0.8489  1.5332
 9782SOL     OW41818   5.184   5.910   7.307  0.2892  0.1440  0.1374
 9782SOL    HW141819   5.130   5.876   7.384  1.1810  1.3896  1.3320
 9782SOL    HW241820   5.154   6.001   7.282  2.0134  0.9949  1.0362
 9783SOL     OW41821   7.690   2.001   5.977 -0.4055  0.4995  0.3757
 9783SOL    HW141822   7.688   2.081   5.917 -2.9731  0.1070 -0.1234
 9783SOL    HW241823   7.639   2.021   6.061  0.3008 -0.0937  0.9578
 9784SOL     OW41824   1.494   7.050   4.049 -0.5234 -0.1111 -0.2065
 9784SOL    HW141825   1.439   6.969   4.067 -0.2063 -0.4174 -0.6080
 9784SOL    HW241826   1.480   7.079   3.954  0.7701 -0.7842 -0.6180
 9785SOL     OW41827   7.058   4.538   3.431 -0.1287 -0.0333  0.8164
 9785SOL    HW141828   7.138   4.596   3.418 -0.6136  0.0430 -2.1515
 9785SOL    HW241829   6.981   4.592   3.464  0.1350  0.5019  0.5451
 9786SOL     OW41830   8.245   2.045   6.155 -0.2985 -0.0989  0.6852
 9786SOL    HW141831   8.295   1.981   6.097  0.1998  1.3600 -0.5398
 9786SOL    HW241832   8.185   1.994   6.217  1.9576 -1.8383  1.5155
 9787SOL     OW41833   1.926   4.515   7.976  0.0088 -0.2074  0.7347
 9787SOL    HW141834   1.940   4.474   8.065 -1.6352 -0.5792  0.8494
 9787SOL    HW241835   1.983   4.469   7.908  0.0313 -1.0207  1.2969
 9788SOL     OW41836   3.763   4.747   0.726  0.1542  0.0311 -0.2151
 9788SOL    HW141837   3.712   4.831   0.708  0.3496  0.0108 -0.8671
 9788SOL    HW241838   3.836   4.737   0.659  1.0281  0.0595  0.7329
 9789SOL     OW41839   0.301   6.162   0.442  0.2120  0.2442 -0.6222
 9789SOL    HW141840   0.353   6.122   0.517 -1.5829 -2.3453 -0.6794
 9789SOL    HW241841   0.302   6.099   0.364 -1.7238  0.8115 -1.1282
 9790SOL     OW41842   1.143   7.437   4.554  0.0711 -0.4292 -0.4739
 9790SOL    HW141843   1.208   7.391   4.616 -0.0457  1.4881  1.1181
 9790SOL    HW241844   1.154   7.400   4.462  4.2328  0.5584 -0.4944
 9791SOL     OW41845   7.192   5.850   3.338  0.1996 -0.4815 -0.2193
 9791SOL    HW141846   7.148   5.760   3.328 -3.3930  1.1455  0.3664
 9791SOL    HW241847   7.223   5.862   3.432 -0.7480 -0.5227  0.1087
 9792SOL     OW41848   6.254   6.416   8.877  0.2568 -0.5096 -0.4548
 9792SOL    HW141849   6.323   6.484   8.854  0.3180  0.0077  1.1974
 9792SOL    HW241850   6.296   6.345   8.934 -0.9329  0.6893  1.9803
 9793SOL     OW41851   1.413   6.503   6.115 -0.0654  0.6250  0.0604
 9793SOL    HW141852   1.395   6.405   6.125  0.3752  0.5483  0.1325
 9793SOL    HW241853   1.333   6.549   6.078 -0.2903  0.2427  0.0776
 9794SOL     OW41854   7.095   2.972   4.092  0.1930 -0.1345  0.3371
 9794SOL    HW141855   7.164   2.917   4.044 -0.7377 -2.1963  1.2790
 9794SOL    HW241856   7.022   2.997   4.029  0.8115  0.3636 -0.1904
 9795SOL     OW41857   8.315   5.554   3.578 -0.3451  0.2517  0.0789
 9795SOL    HW141858   8.369   5.580   3.497 -1.1913  0.3329 -0.4584
 9795SOL    HW241859   8.252   5.627   3.601 -0.7587 -0.1610  0.2582
 9796SOL     OW41860   4.203   1.260   4.417  0.5670  0.4678 -0.1144
 9796SOL    HW141861   4.105   1.243   4.421  0.8255 -1.7285 -1.8687
 9796SOL    HW241862   4.239   1.273   4.509 -1.0435 -0.8067  0.7199
 9797SOL     OW41863   2.341   1.463   8.161  0.0156  0.9049  0.4249
 9797SOL    HW141864   2.426   1.513   8.174  0.5434 -0.4650  2.4037
 9797SOL    HW241865   2.292   1.455   8.248 -0.6939 -0.8717 -0.0944
 9798SOL     OW41866   8.103   2.590   0.685 -0.3279  0.2373  0.7971
 9798SOL    HW141867   8.051   2.508   0.663  1.5485 -0.7348 -0.1806
 9798SOL    HW241868   8.070   2.667   0.630 -0.5346 -0.4255 -0.0083
 9799SOL     OW41869   6.664   8.334   7.417 -0.5744 -0.4882 -0.1626
 9799SOL    HW141870   6.699   8.426   7.431 -1.1237 -0.5099  1.5028
 9799SOL    HW241871   6.577   8.323   7.466  1.1124 -2.8753  2.5121
 9800SOL     OW41872   1.383   3.822   2.246 -0.3285 -0.6556 -0.5262
 9800SOL    HW141873   1.320   3.866   2.310  0.4681  0.1952 -0.3150
 9800SOL    HW241874   1.450   3.768   2.297  0.1372 -0.2006 -0.6456
 9801SOL     OW41875   0.387   3.467   6.787 -0.4375  0.5303  0.5013
 9801SOL    HW141876   0.405   3.375   6.820 -1.0048  0.9716  2.1234
 9801SOL    HW241877   0.470   3.523   6.794 -0.3256  0.3773  0.3720
 9802SOL     OW41878   1.009   5.044   6.602 -0.0559 -0.7722  0.2355
 9802SOL    HW141879   0.916   5.058   6.636 -0.6183 -1.7257 -0.9055
 9802SOL    HW241880   1.041   4.953   6.629 -0.6445 -1.6829 -2.0726
 9803SOL     OW41881   6.457   3.375   6.105 -0.2312 -0.4699  0.2026
 9803SOL    HW141882   6.399   3.377   6.186  0.4140 -2.2554  0.7216
 9803SOL    HW241883   6.454   3.285   6.063 -0.5677  0.4399 -1.7921
 9804SOL     OW41884   5.065   1.172   2.693  0.1400 -0.0458 -0.1337
 9804SOL    HW141885   5.014   1.145   2.774 -0.1515  0.2195 -0.2251
 9804SOL    HW241886   5.136   1.237   2.718 -0.1510  0.2772 -0.1288
 9805SOL     OW41887   0.500   8.801   8.781  0.4037 -0.3369 -0.2409
 9805SOL    HW141888   0.460   8.851   8.704 -0.7447  1.2202  1.3159
 9805SOL    HW241889   0.599   8.814   8.781  0.1485  1.7800 -0.0061
 9806SOL     OW41890   1.948   1.487   1.043 -0.3907  0.1101  0.5376
 9806SOL    HW141891   2.022   1.547   1.074 -1.1691  0.9928  0.7090
 9806SOL    HW241892   1.972   1.392   1.064  0.2813  0.4671  1.4478
 9807SOL     OW41893   0.723   2.521   4.369  0.0289 -0.1198  0.1478
 9807SOL    HW141894   0.652   2.543   4.301  0.7801 -1.5157 -1.1185
 9807SOL    HW241895   0.809   2.565   4.343  0.2948 -0.5889  0.2212
 9808SOL     OW41896   3.764   2.100   8.061 -0.3843  0.0570  0.0554
 9808SOL    HW141897   3.813   2.034   8.003  0.9307  0.6066  0.5048
 9808SOL    HW241898   3.765   2.190   8.016 -2.0368 -0.1859 -0.4880
 9809SOL     OW41899   1.719   6.740   0.742 -0.0277 -0.3604  0.5644
 9809SOL    HW141900   1.802   6.788   0.713  0.7181 -0.7721  1.9689
 9809SOL    HW241901   1.654   6.806   0.780  0.3572 -0.2590  1.0481
 9810SOL     OW41902   1.696   1.575   1.588  0.1671 -0.0714  0.1811
 9810SOL    HW141903   1.736   1.574   1.496  2.1688  2.4901  0.9597
 9810SOL    HW241904   1.762   1.538   1.653 -0.7621 -0.7044  0.7793
 9811SOL     OW41905   4.024   7.846   8.449 -0.1460 -0.0364 -0.5393
 9811SOL    HW141906   3.973   7.886   8.525 -0.1767 -1.3286  0.1485
 9811SOL    HW241907   4.118   7.828   8.478 -0.2649 -0.9037 -0.6657
 9812SOL     OW41908   1.105   1.635   6.076 -0.1551 -0.2683  0.3328
 9812SOL    HW141909   1.085   1.684   5.992  0.8886  2.3775  1.5582
 9812SOL    HW241910   1.025   1.639   6.137  0.8602  2.4214  1.5604
 9813SOL     OW41911   7.443   8.765   1.481 -0.1337 -0.0911 -0.4193
 9813SOL    HW141912   7.435   8.845   1.422 -0.7793 -0.0107 -0.2296
 9813SOL    HW241913   7.432   8.682   1.426 -0.2581 -0.0290 -0.4885
 9814SOL     OW41914   6.463   3.388   1.547  0.3288  0.3698  0.2073
 9814SOL    HW141915   6.561   3.370   1.550 -0.1267 -2.7133 -1.7031
 9814SOL    HW241916   6.417   3.335   1.619 -0.2084 -0.1372 -0.5070
 9815SOL     OW41917   4.633   6.193   5.268  0.3175  0.2545  0.3656
 9815SOL    HW141918   4.710   6.162   5.324  0.8148 -1.9847 -1.4822
 9815SOL    HW241919   4.667   6.234   5.184 -0.4520  2.9326  1.2978
 9816SOL     OW41920   6.927   8.397   8.353 -0.2313  0.0397  0.1655
 9816SOL    HW141921   6.908   8.388   8.255 -1.1037  1.3770  0.1919
 9816SOL    HW241922   6.879   8.325   8.403 -1.8138  0.8254 -0.1790
 9817SOL     OW41923   8.683   3.301   0.602 -0.1815  0.1984  0.0896
 9817SOL    HW141924   8.629   3.297   0.519  0.7450 -0.3395 -0.4963
 9817SOL    HW241925   8.733   3.215   0.614  0.7377  0.7746  0.4820
 9818SOL     OW41926   5.820   2.620   2.883  0.0998  0.3509 -0.0242
 9818SOL    HW141927   5.766   2.596   2.802 -0.6597 -1.0775  0.8785
 9818SOL    HW241928   5.759   2.626   2.963  1.1535 -0.5050  0.8600
 9819SOL     OW41929   0.925   6.857   5.706  0.0583  0.2326  0.1529
 9819SOL    HW141930   0.883   6.930   5.760 -0.7336 -1.0614  1.3215
 9819SOL    HW241931   0.885   6.856   5.614  0.2033  1.3638  0.0683
 9820SOL     OW41932   1.755   3.982   3.347  0.1905 -0.2790 -0.0511
 9820SOL    HW141933   1.701   3.946   3.271  0.9922 -0.1714 -0.6681
 9820SOL    HW241934   1.828   3.918   3.370 -0.1743 -0.4114  0.7715
 9821SOL     OW41935   2.140   1.055   7.993  0.3762 -0.1415 -0.5716
 9821SOL    HW141936   2.230   1.098   8.006  0.3717 -0.3620  0.1838
 9821SOL    HW241937   2.078   1.121   7.951 -0.0302  1.0778  1.8697
 9822SOL     OW41938   2.826   6.451   5.274  0.4501 -0.0455 -0.5727
 9822SOL    HW141939   2.781   6.536   5.247  0.2829 -0.7218 -2.5243
 9822SOL    HW241940   2.873   6.464   5.361 -0.8658  1.5873 -0.0751
 9823SOL     OW41941   6.066   5.540   0.566  0.1220  0.4652 -0.2514
 9823SOL    HW141942   6.031   5.497   0.483 -0.2455  0.9488 -0.3489
 9823SOL    HW241943   6.105   5.470   0.625 -1.2083 -0.1323 -0.0487
 9824SOL     OW41944   7.829   0.403   7.762  0.6270  0.2645  0.1604
 9824SOL    HW141945   7.803   0.500   7.761  0.6094  0.2606  0.2049
 9824SOL    HW241946   7.819   0.367   7.855 -0.4356 -0.0708 -0.0757
 9825SOL     OW41947   3.819   6.265   2.773  0.0837  0.2121  0.3416
 9825SOL    HW141948   3.809   6.275   2.872  0.7782  0.5989  0.3792
 9825SOL    HW241949   3.872   6.342   2.738 -0.2989  0.1573 -0.3559
 9826SOL     OW41950   1.974   5.814   8.248  0.3177  0.3341 -0.0382
 9826SOL    HW141951   1.884   5.810   8.204  1.4248  0.6821 -2.3976
 9826SOL    HW241952   1.977   5.748   8.323 -1.6794 -0.1582 -0.3536
 9827SOL     OW41953   5.662   1.868   0.412 -0.1492 -0.2497 -0.0301
 9827SOL    HW141954   5.667   1.891   0.509  0.3601 -1.7036  0.3028
 9827SOL    HW241955   5.584   1.808   0.395  0.4907 -1.0161 -0.2976
 9828SOL     OW41956   5.539   5.568   7.118 -0.3632  0.1584 -0.1796
 9828SOL    HW141957   5.618   5.512   7.143  1.1461  1.9820 -0.7634
 9828SOL    HW241958   5.511   5.623   7.196  2.2267  3.3334 -1.3728
 9829SOL     OW41959   1.653   4.099   5.469  0.0906 -0.0073  0.3078
 9829SOL    HW141960   1.628   4.126   5.562 -0.3924  0.1550  0.1318
 9829SOL    HW241961   1.616   4.165   5.404  0.0907 -0.3359 -0.0290
 9830SOL     OW41962   2.396   4.201   1.908  0.1891  1.0656 -0.0539
 9830SOL    HW141963   2.455   4.138   1.958 -0.3315 -0.7950 -1.7587
 9830SOL    HW241964   2.370   4.276   1.969  1.1502 -0.1276  1.8830
 9831SOL     OW41965   2.473   7.962   6.474  0.1669  0.7536  0.6203
 9831SOL    HW141966   2.464   8.049   6.427  0.2655  1.9171  2.6895
 9831SOL    HW241967   2.382   7.930   6.501  0.0193 -0.3788 -1.1295
 9832SOL     OW41968   8.722   5.126   0.190  0.4582 -0.1754  0.2799
 9832SOL    HW141969   8.675   5.050   0.145  1.3501 -1.3012  1.1974
 9832SOL    HW241970   8.766   5.184   0.121  0.3320 -0.8745 -0.3976
 9833SOL     OW41971   3.488   7.910   1.366  0.6197  0.1683 -0.2826
 9833SOL    HW141972   3.430   7.850   1.311  0.9213 -0.1027 -0.3104
 9833SOL    HW241973   3.584   7.896   1.340  0.9316 -1.3176  1.6065
 9834SOL     OW41974   8.196   2.712   2.805 -0.2835 -0.5642 -0.1433
 9834SOL    HW141975   8.124   2.692   2.871 -0.1842  0.7193  0.3596
 9834SOL    HW241976   8.171   2.793   2.751  0.3120 -0.7228 -0.6706
 9835SOL     OW41977   3.845   3.392   0.858 -0.7544 -0.3736  0.6121
 9835SOL    HW141978   3.779   3.441   0.801 -0.7055 -4.0691 -2.9215
 9835SOL    HW241979   3.938   3.416   0.830 -0.7304 -2.3796 -1.2025
 9836SOL     OW41980   5.644   2.483   8.706 -0.2473 -0.0484 -0.6276
 9836SOL    HW141981   5.688   2.394   8.692 -0.6649 -0.1190 -1.5784
 9836SOL    HW241982   5.566   2.472   8.768 -1.2424 -0.6693 -1.9334
 9837SOL     OW41983   0.168   6.379   7.718 -0.1922 -0.6534 -0.0140
 9837SOL    HW141984   0.186   6.292   7.765  0.9913  0.1826  1.1108
 9837SOL    HW241985   0.253   6.430   7.708 -0.8069  0.1883 -1.0741
 9838SOL     OW41986   7.564   5.130   7.947 -0.2568 -0.1224 -0.2467
 9838SOL    HW141987   7.557   5.229   7.936  1.8176  0.0829  0.0772
 9838SOL    HW241988   7.621   5.092   7.874 -1.2185 -1.1155 -0.4944
 9839SOL     OW41989   5.184   7.268   5.388 -0.1467  0.6268  0.3648
 9839SOL    HW141990   5.244   7.237   5.461 -1.3384 -1.4727  0.5152
 9839SOL    HW241991   5.220   7.238   5.300  0.0650  1.0867  0.2973
 9840SOL     OW41992   3.719   2.792   0.494 -0.5259 -0.1781 -0.5602
 9840SOL    HW141993   3.802   2.846   0.478  0.2731 -1.2398 -0.0269
 9840SOL    HW241994   3.669   2.781   0.408  1.5024 -2.1771 -1.5355
 9841SOL     OW41995   5.582   7.247   0.946  0.3084  0.2219 -0.1290
 9841SOL    HW141996   5.630   7.292   0.871 -0.2871  1.2382  0.0864
 9841SOL    HW241997   5.603   7.294   1.032  0.7710 -0.7691  0.3043
 9842SOL     OW41998   2.588   1.219   3.002 -0.1839  0.6341 -0.0672
 9842SOL    HW141999   2.576   1.156   2.925 -2.0325  1.9751 -0.9191
 9842SOL    HW242000   2.534   1.186   3.079 -1.3603  1.2708 -0.5965
 9843SOL     OW42001   4.217   7.554   4.773  0.3183 -0.2068  0.3246
 9843SOL    HW142002   4.232   7.455   4.768 -3.0073 -0.8620  1.9120
 9843SOL    HW242003   4.198   7.580   4.867 -2.6175  1.3393 -0.6466
 9844SOL     OW42004   8.190   4.240   6.030  0.0849  0.7891  0.1252
 9844SOL    HW142005   8.173   4.142   6.036  2.2539  0.3659  0.0666
 9844SOL    HW242006   8.115   4.285   5.981 -0.2737 -1.0392 -1.0349
 9845SOL     OW42007   3.945   8.636   1.155 -0.3179  0.0953  0.3478
 9845SOL    HW142008   4.009   8.648   1.231  1.3871 -0.6607 -0.9345
 9845SOL    HW242009   3.944   8.718   1.098  0.2751 -0.2643 -0.1879
 9846SOL     OW42010   3.518   1.340   5.692  0.3803 -0.3247  0.1825
 9846SOL    HW142011   3.427   1.359   5.656 -0.2364  0.6377  2.1898
 9846SOL    HW242012   3.584   1.404   5.654  0.0120 -0.2853 -0.3841
 9847SOL     OW42013   1.273   1.245   7.966  0.4223  0.1461 -0.7876
 9847SOL    HW142014   1.230   1.311   8.028  0.6467  0.2336 -0.7240
 9847SOL    HW242015   1.371   1.241   7.985  0.1244 -1.6067  0.5015
 9848SOL     OW42016   7.967   5.715   7.821 -0.2629  0.3083  0.5993
 9848SOL    HW142017   7.980   5.732   7.723  0.2801  0.2370  0.6549
 9848SOL    HW242018   7.900   5.780   7.857  0.7355  1.4083  0.5132
 9849SOL     OW42019   8.518   2.956   4.485 -0.7102 -0.1923  0.5014
 9849SOL    HW142020   8.445   2.908   4.535 -1.4881 -0.1224 -0.5457
 9849SOL    HW242021   8.499   3.054   4.485 -0.3888 -0.1306  0.5815
 9850SOL     OW42022   4.848   2.732   3.192  0.3658  0.0836 -0.9376
 9850SOL    HW142023   4.771   2.708   3.251  1.8616 -2.3681  0.0840
 9850SOL    HW242024   4.912   2.789   3.243  1.0424 -0.9922 -0.5702
 9851SOL     OW42025   2.877   8.250   4.830  0.4121  0.3348 -0.4987
 9851SOL    HW142026   2.863   8.213   4.921 -2.4116  1.3154 -0.4987
 9851SOL    HW242027   2.934   8.187   4.777 -1.3951 -2.2969  0.6062
 9852SOL     OW42028   6.579   5.743   5.773 -0.4150  0.6834  0.1121
 9852SOL    HW142029   6.522   5.825   5.770 -2.8604 -0.9366  0.7507
 9852SOL    HW242030   6.570   5.694   5.687 -1.3031 -0.4299  0.8287
 9853SOL     OW42031   1.441   0.307   5.372  0.5583  0.1615 -0.4175
 9853SOL    HW142032   1.507   0.379   5.353  0.1667  0.9125  1.0333
 9853SOL    HW242033   1.470   0.222   5.328  2.3817  0.5328  0.0639
 9854SOL     OW42034   0.925   8.944   1.622  0.1920 -0.2304  1.0175
 9854SOL    HW142035   0.950   8.889   1.702  0.8541 -0.1561  0.8619
 9854SOL    HW242036   0.825   8.949   1.616  0.0920 -2.7573  0.0946
 9855SOL     OW42037   0.994   1.476   2.243  0.0025 -0.3299  0.6810
 9855SOL    HW142038   1.082   1.480   2.195  0.0262 -1.3823  0.6258
 9855SOL    HW242039   0.926   1.527   2.191  0.7042  0.9724  1.0060
 9856SOL     OW42040   3.367   0.844   8.647  0.0760  0.1960 -0.1343
 9856SOL    HW142041   3.425   0.878   8.722 -1.9922 -1.0933  2.1303
 9856SOL    HW242042   3.390   0.748   8.629  0.7135  0.5656 -1.3200
 9857SOL     OW42043   5.429   0.972   7.976  0.1148  0.5231  0.3575
 9857SOL    HW142044   5.489   1.047   7.950 -0.0028  0.5392  0.1195
 9857SOL    HW242045   5.366   1.002   8.048 -1.0372  1.1671 -0.8821
 9858SOL     OW42046   2.487   0.764   0.729  0.9273 -0.2554 -0.4439
 9858SOL    HW142047   2.396   0.788   0.695  0.3912  0.0640  1.1767
 9858SOL    HW242048   2.499   0.664   0.725  0.5486 -0.2900 -0.7354
 9859SOL     OW42049   1.191   7.944   8.657 -0.3799  0.0965  0.1413
 9859SOL    HW142050   1.238   7.875   8.602 -0.2033  0.4939 -0.2092
 9859SOL    HW242051   1.256   7.989   8.718 -0.2549  0.8006 -0.5003
 9860SOL     OW42052   3.618   4.120   0.725  0.2398  0.7133 -0.3612
 9860SOL    HW142053   3.537   4.068   0.700  0.5679 -0.1350  0.3023
 9860SOL    HW242054   3.694   4.057   0.744  0.4990  1.3975  0.9677
 9861SOL     OW42055   1.170   2.869   6.484  0.0897  0.0905  0.4306
 9861SOL    HW142056   1.225   2.819   6.551  0.2236 -0.2078  0.1007
 9861SOL    HW242057   1.205   2.962   6.475 -0.9748  0.6721  2.0221
 9862SOL     OW42058   2.752   6.159   5.355 -0.2425 -0.2034 -0.2775
 9862SOL    HW142059   2.725   6.081   5.299  1.4879  0.4015 -2.0171
 9862SOL    HW242060   2.764   6.239   5.297  2.2871  0.2637  0.8107
 9863SOL     OW42061   8.337   4.815   8.197 -0.0523 -0.1854  0.0964
 9863SOL    HW142062   8.399   4.740   8.176  0.7334  0.0501  1.5256
 9863SOL    HW242063   8.279   4.833   8.118 -0.5324 -2.5693 -0.1427
 9864SOL     OW42064   5.391   4.410   5.007  0.3237 -0.0574  0.4615
 9864SOL    HW142065   5.459   4.482   5.023 -0.9568  1.3769 -0.3282
 9864SOL    HW242066   5.314   4.423   5.070 -0.2787 -0.2311 -0.2292
 9865SOL     OW42067   4.306   1.673   1.897  0.1672 -0.1027  0.4473
 9865SOL    HW142068   4.344   1.584   1.923 -1.4289 -0.7244  0.7342
 9865SOL    HW242069   4.323   1.739   1.970  0.5629 -0.4091  0.6355
 9866SOL     OW42070   2.120   7.598   7.736  0.1999  0.0059 -0.1970
 9866SOL    HW142071   2.208   7.550   7.741 -0.2509 -0.7738  0.5112
 9866SOL    HW242072   2.049   7.540   7.777 -0.3782  1.2337  0.5690
 9867SOL     OW42073   3.567   1.423   7.626 -0.2969 -0.5593 -0.6301
 9867SOL    HW142074   3.666   1.436   7.620 -0.2813 -0.1414  0.5747
 9867SOL    HW242075   3.530   1.408   7.534  0.6510  0.9698 -1.2829
 9868SOL     OW42076   7.753   4.567   2.693  0.6210 -0.0703 -0.2398
 9868SOL    HW142077   7.754   4.560   2.593 -0.3469  0.5081 -0.2931
 9868SOL    HW242078   7.811   4.643   2.721 -0.5937  0.9534 -0.4714
 9869SOL     OW42079   3.200   5.676   1.429  0.1094  0.0697 -0.0302
 9869SOL    HW142080   3.125   5.742   1.434  0.7375  0.7711  0.2700
 9869SOL    HW242081   3.238   5.663   1.521  0.2317 -0.4233 -0.1524
 9870SOL     OW42082   5.801   6.467   1.404 -0.6482 -0.4953 -0.2105
 9870SOL    HW142083   5.830   6.377   1.372 -3.3718 -0.9202 -1.6649
 9870SOL    HW242084   5.718   6.494   1.355 -0.8718  2.0349  1.4796
 9871SOL     OW42085   6.668   6.107   6.630 -0.3976  0.2880  0.1192
 9871SOL    HW142086   6.727   6.027   6.635 -1.1281 -0.1659  1.5288
 9871SOL    HW242087   6.609   6.100   6.549 -0.8314 -0.8512  0.5313
 9872SOL     OW42088   4.127   8.736   2.445 -0.1825 -0.3203  0.3264
 9872SOL    HW142089   4.207   8.703   2.396 -1.5325  0.1712 -2.2841
 9872SOL    HW242090   4.114   8.834   2.427 -0.4960 -0.0234  2.0050
 9873SOL     OW42091   3.729   8.374   6.082  0.4899 -0.2427  0.4303
 9873SOL    HW142092   3.775   8.459   6.055 -1.7378  1.7437  2.6653
 9873SOL    HW242093   3.797   8.302   6.095  2.4414  1.2430 -1.2600
 9874SOL     OW42094   8.585   1.320   5.857 -0.3475  0.4036  0.5331
 9874SOL    HW142095   8.624   1.388   5.796  0.3639  2.2357  2.9890
 9874SOL    HW242096   8.495   1.292   5.823  0.1733  1.1476 -1.4945
 9875SOL     OW42097   6.259   5.243   5.566 -0.3000  0.0811 -0.2414
 9875SOL    HW142098   6.327   5.293   5.618 -1.4958 -1.3754  2.8308
 9875SOL    HW242099   6.301   5.162   5.524  0.5699  1.0398 -1.2566
 9876SOL     OW42100   5.995   0.194   6.094 -0.8019 -0.5643  0.0461
 9876SOL    HW142101   5.975   0.156   6.184 -1.5664 -0.0261  0.1016
 9876SOL    HW242102   5.937   0.273   6.077  0.1320  0.0210 -0.4551
 9877SOL     OW42103   4.119   2.853   8.340  0.3877 -0.1365 -0.0076
 9877SOL    HW142104   4.143   2.796   8.419 -1.3664  0.6316  1.1000
 9877SOL    HW242105   4.086   2.941   8.371  2.9504  1.4999 -1.7167
 9878SOL     OW42106   1.320   8.395   8.268 -0.3562 -0.1614  0.4043
 9878SOL    HW142107   1.264   8.391   8.351 -0.6602 -0.9100  0.1651
 9878SOL    HW242108   1.416   8.400   8.292 -0.3779 -1.5101  0.7930
 9879SOL     OW42109   3.474   6.734   4.013  0.1221  0.7965 -0.2187
 9879SOL    HW142110   3.409   6.711   3.941 -0.0029  0.9309 -0.1485
 9879SOL    HW242111   3.451   6.685   4.097 -0.1314  1.1570 -0.0756
 9880SOL     OW42112   4.856   2.514   7.679 -0.6501 -0.0916  0.4867
 9880SOL    HW142113   4.828   2.472   7.592 -1.8368  0.2280  0.7143
 9880SOL    HW242114   4.777   2.521   7.740 -1.0095  4.6037 -0.3906
 9881SOL     OW42115   7.201   8.442   4.253 -0.3395  0.2000 -0.2762
 9881SOL    HW142116   7.132   8.455   4.182 -1.0682  4.4626  1.1003
 9881SOL    HW242117   7.195   8.516   4.320  3.5155 -1.0626  1.6246
 9882SOL     OW42118   4.716   3.046   8.533 -0.0669  0.8164 -0.1707
 9882SOL    HW142119   4.656   3.052   8.613  0.1875  0.2047  0.0673
 9882SOL    HW242120   4.707   3.129   8.478 -1.1715  0.7033 -0.1620
 9883SOL     OW42121   5.654   5.059   5.191  0.0567  0.6340 -0.1130
 9883SOL    HW142122   5.742   5.103   5.203  1.4335 -1.6836 -1.3251
 9883SOL    HW242123   5.610   5.093   5.108 -0.7445  2.6590  1.1289
 9884SOL     OW42124   5.241   7.205   5.135  0.3752 -0.0850  0.0258
 9884SOL    HW142125   5.148   7.193   5.098  0.2296  0.5463  0.1899
 9884SOL    HW242126   5.284   7.115   5.146 -0.6458 -0.4580  1.0437
 9885SOL     OW42127   5.272   7.357   1.856 -0.0413 -0.5710  0.8283
 9885SOL    HW142128   5.236   7.366   1.949 -3.1507 -0.7756 -0.2903
 9885SOL    HW242129   5.236   7.273   1.815 -0.2034  0.4502 -1.1676
 9886SOL     OW42130   8.719   8.245   7.096  0.4350 -0.1189  0.7250
 9886SOL    HW142131   8.681   8.153   7.102  2.6890 -1.1003  0.4351
 9886SOL    HW242132   8.674   8.304   7.162 -0.9356 -1.4598  1.0186
 9887SOL     OW42133   7.282   3.991   5.037 -0.1266  0.0624  0.3787
 9887SOL    HW142134   7.237   3.973   4.949  1.3972 -0.3738 -0.3245
 9887SOL    HW242135   7.254   4.080   5.071  1.0839  1.2779 -1.7040
 9888SOL     OW42136   3.657   6.727   5.406  0.5609  0.1523  0.1854
 9888SOL    HW142137   3.603   6.794   5.456 -0.7654 -1.8487  1.4771
 9888SOL    HW242138   3.751   6.726   5.442  0.0968  0.0173  1.4098
 9889SOL     OW42139   5.971   0.351   2.206 -0.3257  0.7613  0.0524
 9889SOL    HW142140   5.893   0.324   2.262 -1.1032  1.1204 -0.8334
 9889SOL    HW242141   5.938   0.392   2.121  0.7967 -1.6321 -1.5914
 9890SOL     OW42142   4.742   0.324   0.115  0.3067 -0.4969 -0.2562
 9890SOL    HW142143   4.672   0.355   0.179 -0.1141 -0.2419 -0.8357
 9890SOL    HW242144   4.804   0.261   0.161 -0.4248 -0.8857  0.2023
 9891SOL     OW42145   5.855   1.166   8.746 -0.1100  0.2899  0.0443
 9891SOL    HW142146   5.813   1.223   8.818  2.6294  0.4543  1.5687
 9891SOL    HW242147   5.856   1.071   8.776 -0.6032  0.0799 -0.5868
 9892SOL     OW42148   6.730   3.227   8.788 -0.7206 -0.1010  0.1559
 9892SOL    HW142149   6.641   3.181   8.790  0.2387 -2.0647 -1.0917
 9892SOL    HW242150   6.765   3.235   8.882 -1.5465 -0.6435  0.5173
 9893SOL     OW42151   7.560   3.803   5.982  0.0568  0.0440  0.2166
 9893SOL    HW142152   7.484   3.745   5.952 -1.1997  0.1306  3.0586
 9893SOL    HW242153   7.545   3.897   5.952 -0.1571 -0.2468 -0.5807
 9894SOL     OW42154   0.756   0.007   4.301  0.4174 -0.7585  0.5181
 9894SOL    HW142155   0.674   0.013   4.357  1.1226  0.2323  1.4766
 9894SOL    HW242156   0.788   0.099   4.278  2.3997 -1.0693  1.8758
 9895SOL     OW42157   2.124   2.492   2.260  0.1058 -0.1028 -0.4477
 9895SOL    HW142158   2.177   2.411   2.284  0.2789 -0.1367 -0.9394
 9895SOL    HW242159   2.072   2.523   2.339  1.8421  0.6746  0.4163
 9896SOL     OW42160   3.611   5.068   4.507  0.0450  0.3127 -0.1443
 9896SOL    HW142161   3.615   5.153   4.560 -0.3837  1.1230 -1.3808
 9896SOL    HW242162   3.697   5.058   4.456  0.3772 -0.3613  0.5423
 9897SOL     OW42163   7.681   5.385   5.036 -0.0560  0.1617 -0.3205
 9897SOL    HW142164   7.649   5.291   5.023 -1.0483  0.5131 -0.4131
 9897SOL    HW242165   7.611   5.438   5.083 -0.9187  1.7892 -3.3589
 9898SOL     OW42166   8.533   8.678   0.252  0.1295  0.4613 -0.1175
 9898SOL    HW142167   8.572   8.597   0.209  0.6230 -0.5904  2.2968
 9898SOL    HW242168   8.468   8.720   0.188  1.8657 -0.2539 -2.4446
 9899SOL     OW42169   2.829   6.894   7.958 -0.0689  0.1445  0.2822
 9899SOL    HW142170   2.770   6.821   7.993  1.0681  0.0302  1.9871
 9899SOL    HW242171   2.791   6.982   7.985 -0.1797  0.1144  0.2279
 9900SOL     OW42172   3.588   0.336   2.991 -0.7666 -0.0065 -0.2565
 9900SOL    HW142173   3.502   0.367   2.951 -0.6503 -0.5918 -0.9678
 9900SOL    HW242174   3.577   0.243   3.027 -0.4062 -0.1153 -0.4212
 9901SOL     OW42175   5.057   7.600   0.080 -0.5276  0.7753 -0.3159
 9901SOL    HW142176   4.968   7.555   0.082  0.5382 -1.6780 -3.3634
 9901SOL    HW242177   5.053   7.679   0.018 -0.6539  0.7572 -0.3301
 9902SOL     OW42178   8.213   8.105   8.277 -0.4849 -0.1360 -0.0737
 9902SOL    HW142179   8.231   8.186   8.334 -2.1247  0.2213 -0.0386
 9902SOL    HW242180   8.299   8.054   8.263  0.7034  1.9517 -0.6497
 9903SOL     OW42181   8.117   1.543   4.966 -0.1821 -0.3000 -0.1724
 9903SOL    HW142182   8.124   1.492   5.051 -0.5790  0.8697  0.5701
 9903SOL    HW242183   8.111   1.641   4.986  1.6252  0.1219 -1.6181
 9904SOL     OW42184   7.364   5.610   5.096 -0.3915 -0.3972 -0.3194
 9904SOL    HW142185   7.276   5.583   5.133 -1.0077 -1.8479 -2.7288
 9904SOL    HW242186   7.353   5.694   5.042 -0.2667 -0.5312 -0.5504
 9905SOL     OW42187   0.377   2.709   0.905 -0.1447 -0.4461 -0.1623
 9905SOL    HW142188   0.370   2.705   1.004  2.0037  2.9621  0.2475
 9905SOL    HW242189   0.299   2.663   0.863 -2.9950  1.1520  3.1410
 9906SOL     OW42190   6.056   6.769   7.679 -0.0674  0.0094 -0.5187
 9906SOL    HW142191   6.086   6.784   7.585  1.0343 -0.0852 -0.1928
 9906SOL    HW242192   6.136   6.753   7.737 -0.5839  1.8549  0.7499
 9907SOL     OW42193   0.929   8.800   6.434 -0.6881 -0.0016  0.1778
 9907SOL    HW142194   0.920   8.735   6.510 -0.5608  0.0727  0.2557
 9907SOL    HW242195   0.922   8.893   6.470 -0.7227  0.0308  0.0847
 9908SOL     OW42196   3.186   1.314   2.917  0.3819  0.0596 -0.2631
 9908SOL    HW142197   3.284   1.329   2.925  0.2124 -0.1208  2.7851
 9908SOL    HW242198   3.137   1.394   2.953 -0.5580 -1.0069  0.8744
 9909SOL     OW42199   7.169   6.790   6.390  0.4199  0.0129  0.1514
 9909SOL    HW142200   7.249   6.735   6.367  1.0831  0.0565  2.2151
 9909SOL    HW242201   7.131   6.831   6.307  1.0467 -1.9997 -1.1633
 9910SOL     OW42202   5.544   8.323   3.409 -0.1937 -0.4528 -0.0400
 9910SOL    HW142203   5.469   8.308   3.474 -0.4674 -0.8106 -0.4333
 9910SOL    HW242204   5.622   8.362   3.457  0.4746 -2.9332  1.0172
 9911SOL     OW42205   5.802   5.579   5.541 -0.5708 -0.4052 -0.5279
 9911SOL    HW142206   5.762   5.600   5.452  0.7314  1.7565 -0.6493
 9911SOL    HW242207   5.901   5.571   5.531 -0.0259  3.1670  1.2388
 9912SOL     OW42208   1.566   5.892   6.804 -0.8067  0.2868 -0.8157
 9912SOL    HW142209   1.621   5.812   6.828  0.6203  1.0479 -1.4599
 9912SOL    HW242210   1.584   5.966   6.869 -0.1415  0.9324 -1.7053
 9913SOL     OW42211   2.184   2.075   0.145  0.1125  0.1938 -0.4057
 9913SOL    HW142212   2.246   2.012   0.192  1.3382  1.9028  0.3180
 9913SOL    HW242213   2.153   2.033   0.059  2.9828 -0.3352 -1.2189
 9914SOL     OW42214   0.047   4.310   2.597 -0.0111 -0.0262 -0.4227
 9914SOL    HW142215  -0.052   4.308   2.610  0.2325  2.2099  2.0558
 9914SOL    HW242216   0.067   4.339   2.503 -1.6599 -0.9324 -1.0885
 9915SOL     OW42217   7.819   1.353   6.085  0.1702  0.1244  0.6160
 9915SOL    HW142218   7.788   1.311   6.000 -0.2701 -0.9926  1.3146
 9915SOL    HW242219   7.779   1.444   6.095 -0.4773 -0.1030  0.0665
 9916SOL     OW42220   3.697   6.965   6.087  0.0655 -0.0999 -0.4048
 9916SOL    HW142221   3.720   7.014   6.171 -0.7140 -0.1460 -0.1621
 9916SOL    HW242222   3.606   6.992   6.056 -0.4686 -1.5558 -0.1433
 9917SOL     OW42223   5.629   3.993   0.630  0.1789  0.6019 -0.0961
 9917SOL    HW142224   5.556   4.028   0.689 -0.7301 -0.8919 -0.3054
 9917SOL    HW242225   5.656   4.063   0.565 -1.2496  1.0985 -0.1720
 9918SOL     OW42226   0.142   4.394   3.359 -0.6807  0.1617 -0.1068
 9918SOL    HW142227   0.235   4.431   3.363 -0.5772 -0.2196  1.3056
 9918SOL    HW242228   0.102   4.415   3.270  1.1378 -0.6011 -1.1398
 9919SOL     OW42229   1.998   1.574   6.383  0.6051  0.2536  0.1317
 9919SOL    HW142230   1.978   1.549   6.289  1.9513  0.0059 -0.0947
 9919SOL    HW242231   2.093   1.602   6.391  0.1844  1.4312  1.1883
 9920SOL     OW42232   1.128   4.524   4.757  0.0221  0.1391 -0.3329
 9920SOL    HW142233   1.053   4.539   4.693 -0.4412 -1.1652 -0.1184
 9920SOL    HW242234   1.153   4.427   4.757 -0.9638 -0.1796  2.4994
 9921SOL     OW42235   2.246   5.672   1.852  0.2736 -0.7829 -0.4722
 9921SOL    HW142236   2.221   5.709   1.763  0.9155  0.9739  0.0451
 9921SOL    HW242237   2.202   5.725   1.924 -0.3404 -2.2667  0.2642
 9922SOL     OW42238   8.715   4.594   4.433 -0.4163  0.2920 -0.5093
 9922SOL    HW142239   8.788   4.593   4.364  0.2234 -2.3983  0.1315
 9922SOL    HW242240   8.675   4.503   4.438 -2.2515  1.1621  0.8275
 9923SOL     OW42241   5.634   6.682   0.247  0.0511 -0.5413  0.4573
 9923SOL    HW142242   5.585   6.651   0.166 -1.8134  0.9021  0.9987
 9923SOL    HW242243   5.576   6.745   0.299  1.2275 -1.3979  2.8820
 9924SOL     OW42244   6.319   6.335   3.311  0.0644  0.3378  0.0279
 9924SOL    HW142245   6.253   6.389   3.362 -1.1233 -0.3911 -0.7067
 9924SOL    HW242246   6.358   6.265   3.371 -1.5039 -0.6743 -0.1008
 9925SOL     OW42247   3.098   6.166   5.679  0.6363 -0.2726  0.5031
 9925SOL    HW142248   3.166   6.148   5.607 -0.3369  1.9265 -1.0402
 9925SOL    HW242249   3.128   6.244   5.734 -0.9068  1.1751 -0.6400
 9926SOL     OW42250   0.950   3.685   3.026 -0.1383 -0.6941  0.2383
 9926SOL    HW142251   0.931   3.756   2.958  0.4815 -0.8123 -0.0633
 9926SOL    HW242252   1.047   3.660   3.022 -0.0472 -0.5227  1.3493
 9927SOL     OW42253   4.215   2.008   2.142  0.4208 -0.2650  0.3884
 9927SOL    HW142254   4.290   1.981   2.082 -0.2577 -3.1540  0.8035
 9927SOL    HW242255   4.252   2.049   2.225  1.4524  0.1961 -0.2867
 9928SOL     OW42256   1.000   1.075   5.651 -0.1960  0.4939  0.9157
 9928SOL    HW142257   1.025   1.046   5.558 -1.2446 -0.0623  0.7979
 9928SOL    HW242258   0.979   1.173   5.650 -1.5047  0.2129  0.2871
 9929SOL     OW42259   8.655   8.081   8.374  0.3312  0.4292  0.0947
 9929SOL    HW142260   8.630   8.061   8.469  0.3688  1.3877  0.3121
 9929SOL    HW242261   8.638   8.177   8.355  0.7635  0.3425 -0.7379
 9930SOL     OW42262   5.002   6.030   2.631  0.3804  0.1112 -0.1141
 9930SOL    HW142263   4.943   6.084   2.691 -0.4909 -0.9285 -0.0300
 9930SOL    HW242264   5.032   6.087   2.554 -0.5868  0.6985 -0.0719
 9931SOL     OW42265   2.034   6.714   8.264  0.1917  0.1369  0.5941
 9931SOL    HW142266   2.026   6.721   8.363 -0.6750 -1.1184  0.6183
 9931SOL    HW242267   2.103   6.780   8.232  0.7133  0.3281  2.0505
 9932SOL     OW42268   2.922   5.710   6.320 -0.0921 -0.1315 -0.5920
 9932SOL    HW142269   2.887   5.803   6.329  2.0495  0.4028  3.5688
 9932SOL    HW242270   3.022   5.713   6.316  0.0967 -2.3226  1.4556
 9933SOL     OW42271   5.563   5.923   5.345 -0.3090  0.2291 -0.1386
 9933SOL    HW142272   5.566   5.830   5.381 -0.2185  0.0862 -0.5083
 9933SOL    HW242273   5.586   5.922   5.247  0.5785  0.7463  0.0555
 9934SOL     OW42274   8.231   8.461   6.137 -0.0249 -0.7353 -0.1866
 9934SOL    HW142275   8.284   8.535   6.180 -0.0092 -0.6375 -0.3752
 9934SOL    HW242276   8.282   8.425   6.059  0.2532 -1.3764  0.2945
 9935SOL     OW42277   6.203   8.346   6.689 -0.1447 -0.4398 -0.7449
 9935SOL    HW142278   6.171   8.345   6.594 -2.2041  1.0828 -0.0990
 9935SOL    HW242279   6.212   8.440   6.720  2.5821 -0.8880 -0.0671
 9936SOL     OW42280   4.983   1.311   8.673  0.4151  0.4772  0.5679
 9936SOL    HW142281   4.913   1.297   8.743  0.7484 -0.6258  0.6795
 9936SOL    HW242282   4.983   1.234   8.609  1.6565  0.3762  0.6765
 9937SOL     OW42283   3.993   6.023   4.089  0.2219  0.3184 -0.6061
 9937SOL    HW142284   4.058   5.954   4.059 -1.0255 -0.3994 -1.6837
 9937SOL    HW242285   4.043   6.102   4.125  1.6636 -0.6469 -0.4619
 9938SOL     OW42286   7.928   4.171   6.892  0.2670  0.2986 -0.7386
 9938SOL    HW142287   7.905   4.218   6.806  0.2465  1.9116  0.1382
 9938SOL    HW242288   7.978   4.233   6.952  0.0948 -0.7530  0.5099
 9939SOL     OW42289   6.521   8.478   0.759 -0.0607 -0.7151  0.5284
 9939SOL    HW142290   6.605   8.450   0.805  0.0420 -0.0852  0.7314
 9939SOL    HW242291   6.500   8.414   0.685  0.1989 -1.2868  0.9514
 9940SOL     OW42292   3.324   8.429   7.799 -0.1580  0.1171  0.1037
 9940SOL    HW142293   3.238   8.394   7.837 -1.1338  0.9574 -1.2945
 9940SOL    HW242294   3.307   8.516   7.752  1.4041  0.1458 -0.4335
 9941SOL     OW42295   4.261   3.874   6.239  0.1723 -0.2390 -0.4556
 9941SOL    HW142296   4.173   3.900   6.201  0.1748  1.6255  0.7697
 9941SOL    HW242297   4.263   3.896   6.336  1.0981 -2.5677  0.0888
 9942SOL     OW42298   3.576   3.778   2.358 -0.0115  0.1415  0.7760
 9942SOL    HW142299   3.481   3.767   2.389  0.4261 -0.8840  1.7747
 9942SOL    HW242300   3.612   3.690   2.327  0.1387  0.8144 -1.0350
 9943SOL     OW42301   8.607   1.895   7.011  0.0450  0.6182 -0.0566
 9943SOL    HW142302   8.680   1.829   6.992 -0.6434 -0.1877  0.0888
 9943SOL    HW242303   8.535   1.886   6.942 -0.2123  0.9794  0.1624
 9944SOL     OW42304   3.837   3.237   3.903 -0.0222  0.0121  0.3601
 9944SOL    HW142305   3.913   3.300   3.916  0.4175 -1.0218  3.3712
 9944SOL    HW242306   3.750   3.284   3.918  0.2027  0.3903  0.4619
 9945SOL     OW42307   4.384   0.745   2.187 -0.3372  0.2707 -0.4620
 9945SOL    HW142308   4.309   0.809   2.203  0.4752  0.6776  1.8426
 9945SOL    HW242309   4.465   0.775   2.236  0.5262 -1.6901 -0.6312
 9946SOL     OW42310   5.595   5.921   5.054  0.4977 -0.0222  0.3791
 9946SOL    HW142311   5.554   5.913   4.963 -1.2836  0.3550  1.1270
 9946SOL    HW242312   5.632   6.013   5.066  1.3613 -0.2856 -0.2021
 9947SOL     OW42313   2.123   2.848   4.323 -0.1688 -0.1266 -0.1027
 9947SOL    HW142314   2.113   2.947   4.335 -0.1228  0.5395 -4.7883
 9947SOL    HW242315   2.083   2.801   4.402 -0.0796  3.5984  2.2637
 9948SOL     OW42316   6.991   8.277   7.063 -0.4943 -0.3510 -0.0138
 9948SOL    HW142317   7.011   8.279   6.965 -0.7653 -1.1984 -0.0934
 9948SOL    HW242318   6.895   8.302   7.078 -1.0485 -2.2823 -0.1570
 9949SOL     OW42319   5.442   6.478   1.216 -0.7055 -0.0878 -0.2730
 9949SOL    HW142320   5.535   6.475   1.182 -0.7496  0.0716 -0.4101
 9949SOL    HW242321   5.378   6.483   1.139 -0.8465 -0.5915 -0.1911
 9950SOL     OW42322   1.082   4.744   5.176 -0.2187 -0.5013 -0.0115
 9950SOL    HW142323   1.149   4.754   5.249  0.5739  0.1569 -0.8060
 9950SOL    HW242324   1.069   4.647   5.155  0.3425 -0.6416  0.2737
 9951SOL     OW42325   8.648   4.626   5.644  0.2312  0.0115 -0.4909
 9951SOL    HW142326   8.649   4.554   5.575  0.0127  0.1340 -0.6220
 9951SOL    HW242327   8.717   4.695   5.621  0.2636 -0.0255 -0.5013
 9952SOL     OW42328   8.771   3.811   5.838  0.1188 -0.1412 -0.7465
 9952SOL    HW142329   8.679   3.810   5.800 -0.2533 -0.6524  0.1673
 9952SOL    HW242330   8.805   3.718   5.849 -0.7491 -0.1502  2.4750
 9953SOL     OW42331   5.502   6.143   3.152 -1.0734  0.0076  0.1474
 9953SOL    HW142332   5.576   6.153   3.086 -2.5161 -0.4640 -1.5949
 9953SOL    HW242333   5.462   6.232   3.172  0.6108  0.3848  1.8668
 9954SOL     OW42334   6.836   3.507   2.577 -0.7015 -0.0463 -0.2758
 9954SOL    HW142335   6.818   3.594   2.530  0.7068  0.3126 -0.1513
 9954SOL    HW242336   6.749   3.471   2.612 -1.1952  1.7313  0.3994
 9955SOL     OW42337   8.484   1.410   8.139  1.0016  0.2086 -0.0830
 9955SOL    HW142338   8.418   1.350   8.186  0.9728  1.3445  1.3725
 9955SOL    HW242339   8.577   1.380   8.160  0.9705 -0.3884 -0.7865
 9956SOL     OW42340   8.909   5.866   7.126  0.8189 -0.5334  0.3043
 9956SOL    HW142341   8.979   5.849   7.195  1.9194 -0.6536 -0.8262
 9956SOL    HW242342   8.904   5.964   7.108 -0.9909 -0.2623  2.1067
 9957SOL     OW42343   3.451   8.995   3.604 -0.5545 -0.1281  0.0833
 9957SOL    HW142344   3.460   8.924   3.534 -0.1510 -2.3785  2.3083
 9957SOL    HW242345   3.510   8.972   3.682 -1.9976  1.5820  1.7258
 9958SOL     OW42346   0.229   3.220   4.224 -0.2720  0.3491  0.5840
 9958SOL    HW142347   0.313   3.258   4.185 -0.3265 -1.5103 -1.3826
 9958SOL    HW242348   0.227   3.122   4.209 -3.2791  0.5174 -0.3018
 9959SOL     OW42349   2.310   3.159   6.996 -0.1971  0.4964  0.5585
 9959SOL    HW142350   2.254   3.242   7.005 -1.9899 -0.6473  0.1702
 9959SOL    HW242351   2.327   3.121   7.087  0.5682  1.2402  0.7320
 9960SOL     OW42352   1.593   0.317   7.238 -0.5734 -0.1513 -0.2848
 9960SOL    HW142353   1.520   0.261   7.198 -1.2623 -0.4474  1.3664
 9960SOL    HW242354   1.572   0.414   7.221 -1.0062 -0.2592 -0.3872
 9961SOL     OW42355   0.691   2.549   4.960  0.7661  0.0744  0.5848
 9961SOL    HW142356   0.713   2.576   4.866 -0.3493  1.0532  0.5869
 9961SOL    HW242357   0.599   2.511   4.962  0.3178  1.1937  1.4751
 9962SOL     OW42358   8.509   0.928   5.941 -0.2094 -0.1135 -0.6051
 9962SOL    HW142359   8.436   0.875   5.897  0.3386 -0.7568 -0.7563
 9962SOL    HW242360   8.471   0.981   6.017 -0.7063 -1.0458 -0.1885
 9963SOL     OW42361   8.673   4.343   8.694 -0.2645  0.2732  0.4219
 9963SOL    HW142362   8.699   4.402   8.617  0.2833 -0.5724 -0.0548
 9963SOL    HW242363   8.725   4.258   8.689 -2.4522 -1.0788 -0.0154
 9964SOL     OW42364   3.631   7.810   7.368 -0.0587  0.5398  0.7576
 9964SOL    HW142365   3.708   7.862   7.331 -0.3369  1.2081  1.0857
 9964SOL    HW242366   3.614   7.729   7.312  0.6876  0.5524  0.5102
 9965SOL     OW42367   3.515   0.294   5.458  0.7767 -0.4025  0.1730
 9965SOL    HW142368   3.417   0.286   5.478  0.4478  1.2494 -0.7541
 9965SOL    HW242369   3.532   0.269   5.363  0.9721  1.2857 -0.2400
 9966SOL     OW42370   4.331   1.138   7.374  0.1362  0.0552 -0.4094
 9966SOL    HW142371   4.288   1.088   7.299 -3.1213  0.8505  0.8212
 9966SOL    HW242372   4.367   1.225   7.339  1.4844 -0.9573 -1.6151
 9967SOL     OW42373   6.506   2.958   7.895 -0.8049  0.0508  0.4903
 9967SOL    HW142374   6.510   3.008   7.809 -1.6088 -1.0594 -0.2007
 9967SOL    HW242375   6.417   2.975   7.939 -0.3313  0.7529  1.1972
 9968SOL     OW42376   5.991   7.414   7.243  0.1856 -0.4324 -0.8206
 9968SOL    HW142377   6.062   7.344   7.249 -0.6153 -1.2223 -0.4423
 9968SOL    HW242378   5.952   7.416   7.151  0.5052 -0.1850 -0.9512
 9969SOL     OW42379   1.130   7.952   0.872 -0.5144  0.0798 -0.0597
 9969SOL    HW142380   1.185   8.034   0.857  0.4684  0.0207  2.8190
 9969SOL    HW242381   1.067   7.967   0.948 -2.4093 -0.8624 -1.4190
 9970SOL     OW42382   5.573   5.798   3.060 -0.1649  0.0268 -0.3326
 9970SOL    HW142383   5.485   5.825   3.098 -1.2066 -1.7563 -1.4117
 9970SOL    HW242384   5.598   5.707   3.093  2.1988  1.2707  1.4482
 9971SOL     OW42385   3.778   6.485   8.205  0.5462 -0.3537 -0.8028
 9971SOL    HW142386   3.857   6.450   8.256  0.0915 -1.3719 -0.7664
 9971SOL    HW242387   3.804   6.566   8.153  1.1334  0.4544  0.7189
 9972SOL     OW42388   3.810   6.737   0.210 -0.2506  0.1580 -0.7061
 9972SOL    HW142389   3.809   6.836   0.221 -1.1847  0.0801  0.0175
 9972SOL    HW242390   3.791   6.693   0.298  0.7003 -0.6817 -0.8979
 9973SOL     OW42391   4.989   1.418   3.044 -0.1343 -0.6269 -0.0894
 9973SOL    HW142392   5.081   1.390   3.073  0.1893  0.8008  0.3011
 9973SOL    HW242393   4.935   1.442   3.124  0.2387  1.7764 -0.5220
 9974SOL     OW42394   8.095   1.337   2.285 -0.2602 -0.2706 -0.5450
 9974SOL    HW142395   8.119   1.389   2.366  0.7551 -1.5244 -0.0319
 9974SOL    HW242396   8.131   1.383   2.204  2.4680 -1.2340  0.0706
 9975SOL     OW42397   0.754   4.616   2.927 -0.4420  0.2335 -0.3301
 9975SOL    HW142398   0.694   4.542   2.898  1.2463 -1.1690 -0.3477
 9975SOL    HW242399   0.757   4.687   2.857 -2.0672  0.3348 -0.3147
 9976SOL     OW42400   7.727   7.957   0.479  0.6235  0.3733 -0.2310
 9976SOL    HW142401   7.760   7.996   0.393 -1.1510  0.2407 -0.9979
 9976SOL    HW242402   7.678   8.026   0.531  0.9300  0.2155  0.2718
 9977SOL     OW42403   5.206   3.611   3.023 -0.2448  0.5947  0.1403
 9977SOL    HW142404   5.150   3.684   3.062  0.2405  1.2147 -0.3027
 9977SOL    HW242405   5.278   3.652   2.966 -0.4252 -0.2623 -0.7132
 9978SOL     OW42406   7.035   8.471   8.838 -0.1011 -0.4525 -0.5404
 9978SOL    HW142407   7.050   8.561   8.879 -1.2094 -0.1122 -0.8689
 9978SOL    HW242408   6.997   8.481   8.747  0.4654 -1.2514 -0.8780
 9979SOL     OW42409   7.044   5.841   7.503 -0.6540 -0.1497  0.3093
 9979SOL    HW142410   7.083   5.789   7.427  0.4594  1.7363 -0.4465
 9979SOL    HW242411   7.072   5.936   7.496 -1.4075  0.2680  2.5137
 9980SOL     OW42412   7.280   6.088   5.817 -0.2433  0.6086 -0.6728
 9980SOL    HW142413   7.273   6.150   5.895  1.0754 -0.6261  0.4560
 9980SOL    HW242414   7.250   5.997   5.844  2.4370 -0.3964 -0.9099
 9981SOL     OW42415   3.946   2.881   7.080  0.0692 -0.0988  0.3766
 9981SOL    HW142416   3.867   2.861   7.022  1.0502  0.4094 -1.1523
 9981SOL    HW242417   3.923   2.957   7.142  0.1939  1.8369 -1.8874
 9982SOL     OW42418   3.571   7.266   0.090  0.0652  0.2074  0.3478
 9982SOL    HW142419   3.622   7.240   0.008  0.3508  1.4922  0.1162
 9982SOL    HW242420   3.480   7.297   0.063  0.9172  2.7427  0.3042
 9983SOL     OW42421   0.119   5.951   8.559  0.0248 -0.0430 -0.0855
 9983SOL    HW142422   0.208   5.995   8.546  0.1640  0.1578  1.4389
 9983SOL    HW242423   0.117   5.865   8.509  0.3966  0.8227 -1.6415
 9984SOL     OW42424   3.928   3.955   8.217 -0.1163  0.1186 -0.0720
 9984SOL    HW142425   3.883   4.013   8.149  0.3452  0.9516  0.3192
 9984SOL    HW242426   4.015   3.997   8.243 -0.8463  0.4508  1.9320
 9985SOL     OW42427   0.113   6.591   4.495  0.3652  0.6070 -0.6561
 9985SOL    HW142428   0.045   6.520   4.514  0.8246  0.1540 -0.6667
 9985SOL    HW242429   0.071   6.667   4.447 -0.9489  1.9558  2.4861
 9986SOL     OW42430   3.969   5.279   0.619 -0.3006  0.6145 -0.1733
 9986SOL    HW142431   3.890   5.340   0.630  1.3317  2.2342  3.2092
 9986SOL    HW242432   4.051   5.334   0.601  0.8809 -0.6890  1.1561
 9987SOL     OW42433   1.914   1.872   5.694  0.1668 -0.8907  0.7100
 9987SOL    HW142434   1.905   1.883   5.595  0.3902  1.3735  0.9269
 9987SOL    HW242435   1.885   1.779   5.719 -3.2660 -0.3638 -1.0370
 9988SOL     OW42436   4.204   8.787   8.646  0.2051  0.6519 -0.6498
 9988SOL    HW142437   4.266   8.780   8.568 -0.5520  0.0987 -1.2141
 9988SOL    HW242438   4.122   8.732   8.628 -1.3982  2.9965 -0.8359
 9989SOL     OW42439   4.345   4.793   0.282 -0.3978  0.0828 -0.2772
 9989SOL    HW142440   4.286   4.740   0.344  0.6630 -0.9768 -0.1583
 9989SOL    HW242441   4.430   4.815   0.329 -0.7312  1.7004 -0.4171
 9990SOL     OW42442   7.468   6.274   6.610  0.0975  0.3172 -0.3663
 9990SOL    HW142443   7.431   6.273   6.702  0.7308  0.7963 -0.1059
 9990SOL    HW242444   7.558   6.318   6.610  0.1336  0.2576 -1.1962
 9991SOL     OW42445   2.977   5.024   0.714 -0.3624 -0.2774  0.7644
 9991SOL    HW142446   3.068   5.006   0.678 -0.7135  0.9245 -0.7905
 9991SOL    HW242447   2.974   5.001   0.811  1.7610  0.2447  0.9724
 9992SOL     OW42448   3.142   7.278   2.572  0.0794  0.1466  0.2304
 9992SOL    HW142449   3.192   7.364   2.575  0.3202 -0.0062  0.7649
 9992SOL    HW242450   3.049   7.293   2.606 -0.1283  0.3600 -0.4370
 9993SOL     OW42451   7.851   2.865   8.807  0.2737 -0.0054 -0.0121
 9993SOL    HW142452   7.799   2.933   8.756 -0.4879  1.1422  2.2195
 9993SOL    HW242453   7.802   2.843   8.892  0.2180 -3.7849 -0.9634
 9994SOL     OW42454   1.300   5.875   2.774 -0.0745 -0.1053 -0.0461
 9994SOL    HW142455   1.264   5.913   2.859  0.7192 -0.0652  0.2813
 9994SOL    HW242456   1.241   5.801   2.742 -1.3586  1.0653 -0.4239
 9995SOL     OW42457   2.627   8.082   3.731 -0.1572 -0.5324 -0.1541
 9995SOL    HW142458   2.532   8.112   3.724  0.2955  0.5910 -2.0152
 9995SOL    HW242459   2.631   7.989   3.768 -1.9864 -0.6838 -0.3042
 9996SOL     OW42460   0.011   1.355   7.045 -0.5343 -0.2493 -0.1300
 9996SOL    HW142461  -0.052   1.386   6.974 -0.5850 -1.9353 -0.8507
 9996SOL    HW242462  -0.010   1.261   7.069  0.0597  0.0183  1.5019
 9997SOL     OW42463   8.507   3.580   6.799 -0.2057  0.1477  0.1640
 9997SOL    HW142464   8.585   3.641   6.784 -0.8198  1.1289  0.9234
 9997SOL    HW242465   8.424   3.635   6.806 -0.7111 -0.7542  1.2357
 9998SOL     OW42466   0.577   3.850   5.391 -0.2559 -0.0515 -0.5126
 9998SOL    HW142467   0.669   3.811   5.401 -0.0483  0.5175 -0.1724
 9998SOL    HW242468   0.517   3.784   5.346  0.2160 -0.5851 -0.3592
 9999SOL     OW42469   0.386   2.893   5.813  0.3688 -0.2786  0.0245
 9999SOL    HW142470   0.453   2.866   5.744 -0.4229  0.6308 -1.0931
 9999SOL    HW242471   0.294   2.876   5.780  0.0123 -1.9529  1.7439
10000SOL     OW42472   4.173   0.476   1.027 -0.0006  0.2313 -0.1785
10000SOL    HW142473   4.128   0.563   1.008  1.1215  0.9192  0.3033
10000SOL    HW242474   4.267   0.492   1.058  0.0130 -1.1145  0.5273
10001SOL     OW42475   0.816   5.939   2.360  0.2868 -0.1699  0.1087
10001SOL    HW142476   0.892   5.981   2.309  0.8306  1.0826  1.9019
10001SOL    HW242477   0.738   6.001   2.361 -0.7317 -1.4063 -1.6211
10002SOL     OW42478   6.190   2.353   8.538 -0.1785 -0.0367  0.3944
10002SOL    HW142479   6.200   2.254   8.535  2.2362  0.1998 -1.0350
10002SOL    HW242480   6.204   2.391   8.447 -2.1048  1.5568  0.7195
10003SOL     OW42481   1.085   6.080   1.633 -0.1828 -0.0301  0.3641
10003SOL    HW142482   1.180   6.058   1.657 -0.0710  1.6332  1.5225
10003SOL    HW242483   1.032   6.094   1.717 -1.0868  0.5450 -0.2979
10004SOL     OW42484   1.245   1.993   5.833  0.1561 -0.3100  0.2221
10004SOL    HW142485   1.231   1.897   5.810 -1.1761  0.2691 -1.5233
10004SOL    HW242486   1.171   2.025   5.891 -0.9803  0.4017 -1.5865
10005SOL     OW42487   2.953   0.264   7.913  0.7745  0.8070  0.0618
10005SOL    HW142488   2.954   0.170   7.946 -1.6669  0.6604 -0.1995
10005SOL    HW242489   2.986   0.325   7.986  1.6386 -0.1456  0.4866
10006SOL     OW42490   4.444   3.285   8.088 -0.3660 -0.0976  0.0589
10006SOL    HW142491   4.418   3.262   8.182 -1.7413  0.8022 -0.0684
10006SOL    HW242492   4.416   3.380   8.069  2.6086  0.7499 -0.2916
10007SOL     OW42493   3.153   2.079   0.585 -0.1090 -0.3058  0.5341
10007SOL    HW142494   3.083   2.007   0.588 -0.5246 -0.0010 -1.4086
10007SOL    HW242495   3.244   2.036   0.589 -0.3454 -0.9941 -0.9453
10008SOL     OW42496   8.765   4.583   5.916  0.2871 -0.3486 -0.7595
10008SOL    HW142497   8.738   4.614   5.825  0.5919 -1.6087 -1.2855
10008SOL    HW242498   8.749   4.485   5.924 -1.2394  0.0235  1.0992
10009SOL     OW42499   3.892   8.666   2.008  0.5306  0.2168  0.0202
10009SOL    HW142500   3.886   8.757   2.049 -2.0414  0.5436 -1.0051
10009SOL    HW242501   3.819   8.608   2.043  2.1775 -1.5164  0.7130
10010SOL     OW42502   5.288   7.523   8.764 -0.8738  0.1617  0.3106
10010SOL    HW142503   5.250   7.565   8.681 -2.8457 -1.7343  0.2106
10010SOL    HW242504   5.232   7.549   8.843 -1.1103 -0.8638  0.4921
10011SOL     OW42505   3.401   2.923   8.858  0.3958  0.1363  0.1099
10011SOL    HW142506   3.377   2.928   8.761 -1.0636  0.0231  0.4563
10011SOL    HW242507   3.319   2.902   8.912  1.3244 -0.5102  1.3003
10012SOL     OW42508   1.415   6.753   7.578 -0.1569 -0.1392  0.4650
10012SOL    HW142509   1.349   6.682   7.603  0.0465 -0.0746  1.2036
10012SOL    HW242510   1.370   6.843   7.583  0.1727 -0.0368  1.6466
10013SOL     OW42511   0.477   3.679   3.964 -0.1529 -0.6645 -0.3859
10013SOL    HW142512   0.483   3.778   3.956 -0.3733 -0.5852  0.3876
10013SOL    HW242513   0.502   3.637   3.877 -2.5553  0.1425 -1.4920
10014SOL     OW42514   6.674   2.742   2.749 -0.2130 -0.8224 -0.0013
10014SOL    HW142515   6.699   2.647   2.763  1.6472 -0.2033  1.0018
10014SOL    HW242516   6.756   2.798   2.739 -1.1123  1.1446  2.6907
10015SOL     OW42517   3.149   8.572   7.432 -0.5987 -0.3830  0.1175
10015SOL    HW142518   3.173   8.571   7.334 -1.3931  2.5561 -0.1651
10015SOL    HW242519   3.057   8.537   7.444 -1.0665  0.6514 -0.3838
10016SOL     OW42520   0.015   5.786   1.759 -0.5581 -0.0967 -0.0826
10016SOL    HW142521  -0.044   5.706   1.771  1.6649 -2.1146 -2.0844
10016SOL    HW242522  -0.024   5.846   1.689 -1.6926  0.0610  0.6773
10017SOL     OW42523   4.210   3.871   7.130  0.2950  0.6202 -0.5358
10017SOL    HW142524   4.221   3.775   7.105 -0.2708  0.2279  0.6557
10017SOL    HW242525   4.284   3.925   7.090 -0.1305 -0.0997 -2.3080
10018SOL     OW42526   0.203   0.093   0.300 -0.3137 -0.3373  1.0267
10018SOL    HW142527   0.221   0.190   0.283  0.8559 -1.0348 -1.9907
10018SOL    HW242528   0.116   0.068   0.257  1.0234 -1.3589 -1.1477
10019SOL     OW42529   4.945   3.659   7.666 -0.2410 -0.0197  0.1390
10019SOL    HW142530   4.893   3.582   7.630  1.1168 -0.3841 -1.1352
10019SOL    HW242531   5.042   3.646   7.645  0.2085  1.2438  1.3406
10020SOL     OW42532   6.220   7.701   8.530  0.0751 -0.2536  0.1305
10020SOL    HW142533   6.240   7.670   8.437  1.1580 -0.4056  0.3970
10020SOL    HW242534   6.201   7.799   8.531  1.0477 -0.0565 -0.1255
10021SOL     OW42535   3.184   1.408   8.172 -0.0541  0.3537 -0.3235
10021SOL    HW142536   3.107   1.449   8.221 -2.6967 -0.0592 -3.9465
10021SOL    HW242537   3.198   1.314   8.204 -0.7057  0.6073  0.7081
10022SOL     OW42538   3.327   5.630   1.661 -0.1284  0.9104 -0.3908
10022SOL    HW142539   3.300   5.717   1.701 -2.8668 -0.7579  1.5411
10022SOL    HW242540   3.383   5.579   1.727  0.1238  0.5384 -0.8861
10023SOL     OW42541   1.021   2.106   1.057  0.1114 -0.2529 -0.0806
10023SOL    HW142542   1.014   2.182   1.122  2.7771 -0.8698  1.0129
10023SOL    HW242543   1.019   2.141   0.964  1.8595  1.2652  0.4147
10024SOL     OW42544   5.760   5.705   7.248 -0.2934 -0.2094 -0.1062
10024SOL    HW142545   5.749   5.714   7.347 -1.0769 -1.2662 -0.0745
10024SOL    HW242546   5.762   5.607   7.225  1.0138  0.0342 -1.0132
10025SOL     OW42547   7.184   6.641   8.396  0.1991  0.3711  0.5150
10025SOL    HW142548   7.113   6.697   8.439 -0.3633  0.7929 -0.9464
10025SOL    HW242549   7.274   6.681   8.414  0.0938 -0.2016  2.4310
10026SOL     OW42550   5.145   4.537   7.038  0.2116  0.1478  0.6474
10026SOL    HW142551   5.164   4.632   7.065  0.2151  0.7157 -1.2645
10026SOL    HW242552   5.224   4.480   7.061  0.8721  0.9222  0.3531
10027SOL     OW42553   1.401   4.099   7.640 -0.5042 -0.1013 -0.0193
10027SOL    HW142554   1.386   4.001   7.649  2.3428 -0.3375  2.9309
10027SOL    HW242555   1.371   4.145   7.724  0.3677  1.2669 -0.4416
10028SOL     OW42556   7.479   4.083   7.602 -0.0755 -0.2384 -0.6537
10028SOL    HW142557   7.469   4.090   7.702  1.5991 -1.2736 -0.4029
10028SOL    HW242558   7.508   4.170   7.565  0.0631 -0.0648 -0.1397
10029SOL     OW42559   0.197   6.788   8.813 -0.0410  0.1554 -0.2551
10029SOL    HW142560   0.119   6.818   8.758 -1.6110 -1.3887  1.0814
10029SOL    HW242561   0.180   6.810   8.909  1.0127 -0.4983  0.0869
10030SOL     OW42562   4.510   7.570   0.120  0.0550  0.3265 -0.4574
10030SOL    HW142563   4.414   7.576   0.146 -0.6809  2.4593 -3.4093
10030SOL    HW242564   4.568   7.588   0.200 -1.9634 -0.5203  1.2478
10031SOL     OW42565   7.715   4.842   6.405  0.2940 -0.6373  0.1534
10031SOL    HW142566   7.628   4.807   6.370  0.3434  0.9208 -1.5515
10031SOL    HW242567   7.697   4.905   6.481 -0.3580  2.6789 -2.6319
10032SOL     OW42568   1.335   2.854   6.238 -0.3258  0.0484  0.5545
10032SOL    HW142569   1.278   2.800   6.300  1.2763 -1.7443  0.5264
10032SOL    HW242570   1.286   2.867   6.151 -1.4470  0.1746  1.1916
10033SOL     OW42571   4.672   4.835   6.225  0.5289  0.3509  0.2592
10033SOL    HW142572   4.733   4.758   6.207 -0.2305  0.0014 -0.9546
10033SOL    HW242573   4.723   4.908   6.270  2.4546  0.9843 -2.7631
10034SOL     OW42574   1.785   7.335   8.355  0.6728  0.2366  0.3134
10034SOL    HW142575   1.724   7.383   8.418 -1.3847 -1.0654 -0.6676
10034SOL    HW242576   1.762   7.359   8.261  2.7337  0.9632 -0.0367
10035SOL     OW42577   2.354   8.033   8.289  0.0594  0.3106 -0.3896
10035SOL    HW142578   2.335   7.935   8.293 -0.8579  0.5546  2.1048
10035SOL    HW242579   2.395   8.055   8.201  0.8528 -2.4103 -0.7630
10036SOL     OW42580   0.981   2.167   0.777  0.3234  0.1409 -0.3697
10036SOL    HW142581   0.883   2.154   0.792  0.5165  0.5723  1.3057
10036SOL    HW242582   0.995   2.241   0.712 -0.4280  1.4617  0.9553
10037SOL     OW42583   1.941   7.899   1.638 -0.0290  0.2898 -0.3214
10037SOL    HW142584   1.976   7.990   1.659  0.7967 -0.1712  0.3310
10037SOL    HW242585   1.854   7.885   1.687  0.3238  0.3808  0.3399
10038SOL     OW42586   6.142   3.689   0.170 -0.0402 -0.7111  0.0777
10038SOL    HW142587   6.169   3.764   0.109 -0.7568  0.8436  1.6157
10038SOL    HW242588   6.217   3.624   0.179  2.4193  2.2906  2.4296
10039SOL     OW42589   2.494   1.074   5.714 -0.2396 -0.2959 -0.5270
10039SOL    HW142590   2.415   1.123   5.677 -0.8831 -2.0861 -1.6150
10039SOL    HW242591   2.566   1.069   5.646 -0.3209 -1.1265 -0.5674
10040SOL     OW42592   2.219   4.059   4.066  0.3871 -0.6023  0.4561
10040SOL    HW142593   2.229   3.961   4.050  1.1075 -0.4516 -0.0366
10040SOL    HW242594   2.247   4.081   4.159 -0.0009 -0.8961  0.6446
10041SOL     OW42595   8.032   8.774   6.680 -0.6096 -0.1424  0.2112
10041SOL    HW142596   7.965   8.787   6.754 -0.4184  0.0180  0.3569
10041SOL    HW242597   8.123   8.800   6.713 -0.8451  2.0760 -0.7585
10042SOL     OW42598   5.404   5.238   7.006 -0.0477  0.3782 -0.1774
10042SOL    HW142599   5.344   5.306   6.965 -0.9614 -0.4593 -0.2280
10042SOL    HW242600   5.466   5.203   6.936  0.7224  1.4546 -0.0582
10043SOL     OW42601   3.631   1.781   6.692 -0.1968 -0.0240 -0.2568
10043SOL    HW142602   3.659   1.834   6.771 -1.0435 -0.8121  0.5854
10043SOL    HW242603   3.666   1.688   6.700  0.2618  0.0680 -1.1288
10044SOL     OW42604   2.927   7.370   1.329 -0.4420  0.0477 -0.0003
10044SOL    HW142605   2.834   7.404   1.330 -0.0867  1.0220  2.1703
10044SOL    HW242606   2.987   7.436   1.284 -0.5057  0.2462  0.2064
10045SOL     OW42607   7.998   1.792   3.778 -0.0450  0.5727  0.0484
10045SOL    HW142608   8.043   1.792   3.868 -0.3032 -1.9633  0.2180
10045SOL    HW242609   8.065   1.809   3.707  1.1496 -2.5377  0.3488
10046SOL     OW42610   6.581   7.558   8.582 -0.4365  1.1515  0.2576
10046SOL    HW142611   6.494   7.510   8.568 -0.1166  1.0698 -1.5636
10046SOL    HW242612   6.657   7.496   8.561  0.0194  1.8140 -0.0608
10047SOL     OW42613   1.653   2.829   1.526 -0.1229 -0.2821  0.4910
10047SOL    HW142614   1.585   2.816   1.597  0.6941  0.0425  1.3483
10047SOL    HW242615   1.685   2.740   1.493 -0.2596 -0.4294  0.7665
10048SOL     OW42616   1.185   4.426   4.329  0.1274  0.0721  0.0779
10048SOL    HW142617   1.214   4.493   4.261  0.3500  0.0066  0.1101
10048SOL    HW242618   1.258   4.413   4.396  0.8660 -1.7157 -1.0566
10049SOL     OW42619   2.001   7.114   5.363 -0.0041  0.0967 -0.0292
10049SOL    HW142620   2.039   7.067   5.283 -0.6329  0.1024 -0.3311
10049SOL    HW242621   1.967   7.204   5.336 -0.7688 -0.1443  0.1278
10050SOL     OW42622   4.950   6.459   2.985  0.1438  0.7040  0.2518
10050SOL    HW142623   4.947   6.528   3.056 -0.8342  0.6426  0.2773
10050SOL    HW242624   4.933   6.501   2.896 -0.6764  0.4550  0.2947
10051SOL     OW42625   4.998   4.195   7.185 -0.1131  0.2181  0.2024
10051SOL    HW142626   4.996   4.275   7.245  0.9725 -0.8619  1.7168
10051SOL    HW242627   5.089   4.186   7.144 -0.5740  0.4131 -0.8882
10052SOL     OW42628   1.877   5.027   2.971 -0.7098  0.0108  0.0336
10052SOL    HW142629   1.848   4.956   3.035 -1.7985  0.4405  0.0094
10052SOL    HW242630   1.851   5.117   3.005  0.2857  0.3808 -0.1510
10053SOL     OW42631   7.151   4.517   4.917 -0.1095 -0.5430  1.1508
10053SOL    HW142632   7.170   4.455   4.841 -2.5676  0.7243 -0.5582
10053SOL    HW242633   7.235   4.568   4.940  1.3237 -2.7694  1.0507
10054SOL     OW42634   1.537   7.869   4.413 -0.2605  0.0825 -0.3561
10054SOL    HW142635   1.578   7.895   4.500 -1.3765  1.4751 -0.2370
10054SOL    HW242636   1.507   7.774   4.417  0.5773 -0.1603  0.4282
10055SOL     OW42637   2.909   1.609   0.477 -0.5845 -0.5150 -0.2128
10055SOL    HW142638   2.909   1.600   0.576  0.7558 -0.5109 -0.1967
10055SOL    HW242639   2.841   1.548   0.437 -1.5779 -0.0434  0.7425
10056SOL     OW42640   2.350   4.912   1.515  0.2425 -0.4694 -0.0273
10056SOL    HW142641   2.363   4.820   1.551 -1.2311 -0.1629  1.3462
10056SOL    HW242642   2.363   4.979   1.588  1.3078  0.4207 -1.0170
10057SOL     OW42643   6.297   2.473   8.312  0.2031  0.1281 -0.1848
10057SOL    HW142644   6.366   2.417   8.266 -0.6335 -0.0658 -1.2277
10057SOL    HW242645   6.298   2.565   8.273  0.6001  0.4405  0.5463
10058SOL     OW42646   5.984   3.066   8.852 -0.0529  0.1613  0.0603
10058SOL    HW142647   5.957   3.157   8.884 -1.3314 -0.0934 -0.2495
10058SOL    HW242648   5.947   2.996   8.914  0.8052 -0.1472  0.2231
10059SOL     OW42649   8.797   1.833   3.032 -0.0047  0.0928 -0.2311
10059SOL    HW142650   8.738   1.819   3.112  0.7374  0.7647  0.4457
10059SOL    HW242651   8.892   1.840   3.062  0.3969 -0.7744 -1.2983
10060SOL     OW42652   4.645   2.124   8.361  0.2647 -0.2947  0.3074
10060SOL    HW142653   4.660   2.056   8.290  0.7702 -0.6509  0.7422
10060SOL    HW242654   4.676   2.087   8.449  0.3671  0.4247  0.5785
10061SOL     OW42655   6.379   2.245   1.700  0.0409 -0.2352  0.5524
10061SOL    HW142656   6.454   2.204   1.752  1.0334 -0.3073 -0.8979
10061SOL    HW242657   6.305   2.270   1.762  0.9468 -0.8664  1.9119
10062SOL     OW42658   2.468   8.304   1.656 -0.0192  0.6033  0.3616
10062SOL    HW142659   2.416   8.219   1.640  0.6475  0.7388 -2.7660
10062SOL    HW242660   2.566   8.285   1.647  0.1822  1.5287  0.5969
10063SOL     OW42661   4.498   6.467   3.229  0.0669 -0.0083 -0.0856
10063SOL    HW142662   4.420   6.431   3.279 -0.3376 -1.5075 -1.7478
10063SOL    HW242663   4.484   6.564   3.210 -0.3883  0.2485  1.4902
10064SOL     OW42664   4.790   6.161   1.343  0.1892 -0.3443 -0.2769
10064SOL    HW142665   4.850   6.090   1.305  0.9752  1.1022 -1.8641
10064SOL    HW242666   4.846   6.239   1.371 -0.9016  0.8378 -1.3395
10065SOL     OW42667   7.515   1.778   0.785 -0.0945 -0.2727  0.0109
10065SOL    HW142668   7.541   1.788   0.881 -1.3462  1.8017  0.1687
10065SOL    HW242669   7.417   1.795   0.776 -0.1869 -1.5461 -1.4958
10066SOL     OW42670   3.918   0.341   4.257  0.0890  0.2911 -0.6816
10066SOL    HW142671   3.921   0.414   4.190  0.3810  0.5558 -0.3847
10066SOL    HW242672   3.834   0.349   4.311  0.5892  0.9983  0.0026
10067SOL     OW42673   4.306   1.598   7.360 -0.6310  0.4725 -0.0136
10067SOL    HW142674   4.384   1.604   7.423 -0.4249 -2.0202  0.0425
10067SOL    HW242675   4.245   1.676   7.374  0.8955  1.4794  1.2356
10068SOL     OW42676   2.381   2.574   6.559  0.2102 -0.2596  0.0225
10068SOL    HW142677   2.338   2.509   6.622 -0.2991  0.2272  0.1885
10068SOL    HW242678   2.314   2.644   6.533  0.3397 -0.6142 -1.2850
10069SOL     OW42679   6.161   7.874   0.151  0.3081 -0.5768 -0.1341
10069SOL    HW142680   6.165   7.776   0.130  3.1854 -0.3758 -0.7346
10069SOL    HW242681   6.159   7.887   0.250  3.3526 -1.2361  0.0791
10070SOL     OW42682   5.156   4.822   4.922  0.9133 -0.0871 -0.0480
10070SOL    HW142683   5.120   4.749   4.981  1.4182 -0.6278 -0.3978
10070SOL    HW242684   5.093   4.899   4.923  0.5491 -0.3785  0.6220
10071SOL     OW42685   4.538   6.833   4.139  0.5151 -0.1574  0.2040
10071SOL    HW142686   4.516   6.912   4.196  0.7655  1.0120 -1.2863
10071SOL    HW242687   4.555   6.753   4.197 -0.0344  0.8055  1.7106
10072SOL     OW42688   3.105   2.396   1.817 -0.3385 -0.9918 -0.2488
10072SOL    HW142689   3.120   2.360   1.909 -0.0874 -1.2413 -0.3855
10072SOL    HW242690   3.009   2.421   1.806 -0.3896 -1.0517  0.0494
10073SOL     OW42691   6.777   5.915   5.908  0.0934  0.4279 -0.0187
10073SOL    HW142692   6.788   6.010   5.879 -1.7472  1.4533  2.4537
10073SOL    HW242693   6.720   5.866   5.842 -0.3566  1.5015 -0.4340
10074SOL     OW42694   2.927   8.892   5.363  0.1188  0.6825 -0.6079
10074SOL    HW142695   2.878   8.955   5.302 -2.2930  2.6680  3.1833
10074SOL    HW242696   3.009   8.937   5.399  0.3383  0.3464 -0.6883
10075SOL     OW42697   7.832   3.013   7.863  0.4877  0.6104 -0.0751
10075SOL    HW142698   7.838   2.998   7.962  2.0170  3.3652  0.3126
10075SOL    HW242699   7.921   3.041   7.829 -0.3721  1.0341 -2.0007
10076SOL     OW42700   3.155   0.371   3.346  0.4744  0.3310  0.2639
10076SOL    HW142701   3.128   0.276   3.331 -0.7550  0.5877  0.7463
10076SOL    HW242702   3.246   0.374   3.387  0.2600 -0.6624  0.8347
10077SOL     OW42703   4.991   3.739   8.864  0.0460 -0.0779  1.0382
10077SOL    HW142704   4.952   3.808   8.803 -1.6495 -0.9100  1.1644
10077SOL    HW242705   4.941   3.739   8.950  0.8254 -0.6313  1.4915
10078SOL     OW42706   8.898   3.358   4.998  0.3195  0.3442 -0.3849
10078SOL    HW142707   8.928   3.410   5.078 -0.5489 -0.2740  0.3380
10078SOL    HW242708   8.940   3.267   5.000 -1.1708 -0.3328  0.3471
10079SOL     OW42709   2.484   7.478   2.977  0.0041 -0.8125 -0.2136
10079SOL    HW142710   2.482   7.420   2.896  0.9876  1.1159 -1.6602
10079SOL    HW242711   2.491   7.574   2.949  0.0845 -0.0955  2.1585
10080SOL     OW42712   5.166   5.797   1.907  0.5865  0.0907  0.0038
10080SOL    HW142713   5.098   5.767   1.840  0.0106  0.8624  0.2373
10080SOL    HW242714   5.138   5.884   1.946  1.5213  0.2248  0.3865
10081SOL     OW42715   3.449   0.114   6.562  0.7013 -0.1846  0.1375
10081SOL    HW142716   3.352   0.133   6.575  0.7842 -0.2978  0.9014
10081SOL    HW242717   3.496   0.112   6.650  1.5152  0.4616 -0.2733
10082SOL     OW42718   5.781   4.218   8.784 -0.2257  0.0787 -0.9874
10082SOL    HW142719   5.762   4.316   8.776  0.2437  0.3021  0.3682
10082SOL    HW242720   5.877   4.201   8.761  0.0618  0.1526  0.1093
10083SOL     OW42721   8.921   6.533   0.335  0.8681 -0.4351 -0.1977
10083SOL    HW142722   9.007   6.485   0.320  1.1897  0.2930 -0.7016
10083SOL    HW242723   8.915   6.562   0.431  1.1557 -0.5374 -0.1501
10084SOL     OW42724   3.976   8.227   2.352 -0.7949 -0.3640 -0.2585
10084SOL    HW142725   4.004   8.321   2.375  0.0371 -0.6900  0.0943
10084SOL    HW242726   4.027   8.163   2.409 -0.6998 -1.0705 -1.1285
10085SOL     OW42727   3.341   4.171   1.170 -0.1218 -0.0582  0.3106
10085SOL    HW142728   3.291   4.181   1.084  0.8574  0.2971 -0.2255
10085SOL    HW242729   3.280   4.193   1.247 -0.5000  1.4017 -0.3824
10086SOL     OW42730   6.440   5.428   5.728  0.1059 -0.0326 -0.0521
10086SOL    HW142731   6.488   5.478   5.655 -0.7033  0.5310 -0.2087
10086SOL    HW242732   6.459   5.471   5.816  2.2765 -1.6079  0.2608
10087SOL     OW42733   6.454   6.875   8.723 -0.1147 -0.1145 -0.0898
10087SOL    HW142734   6.467   6.972   8.700 -1.5730 -0.1878 -1.2786
10087SOL    HW242735   6.370   6.865   8.778  0.8338 -0.5281  1.3059
10088SOL     OW42736   8.846   8.983   7.514  0.1762  0.7393  0.3980
10088SOL    HW142737   8.878   8.904   7.567 -0.8205 -0.6254 -0.9921
10088SOL    HW242738   8.925   9.040   7.491  1.7961 -2.7225 -3.2108
10089SOL     OW42739   4.316   5.277   8.883  0.0159  0.0085  0.2680
10089SOL    HW142740   4.413   5.294   8.864  0.0838  0.9398  1.4017
10089SOL    HW242741   4.301   5.275   8.982 -1.5076  2.1337  0.1230
10090SOL     OW42742   0.886   5.435   8.620 -0.1575  0.1387  0.3184
10090SOL    HW142743   0.791   5.411   8.637 -0.3896 -0.8966 -2.1657
10090SOL    HW242744   0.946   5.376   8.674 -0.9028 -0.1881  0.7931
10091SOL     OW42745   3.835   7.680   3.041  0.0686  0.2823 -0.2203
10091SOL    HW142746   3.846   7.673   3.140  0.7313  1.1104 -0.2292
10091SOL    HW242747   3.810   7.774   3.017 -0.1022  0.0818 -0.8375
10092SOL     OW42748   2.436   6.825   4.794  0.2178  0.5283  0.1920
10092SOL    HW142749   2.394   6.914   4.812  0.4192  0.7170 -0.2716
10092SOL    HW242750   2.464   6.820   4.698 -1.2439 -0.6479 -0.1904
10093SOL     OW42751   6.603   2.685   1.586 -0.0552 -0.0694  0.1846
10093SOL    HW142752   6.597   2.607   1.648 -1.5112  0.5021  0.7872
10093SOL    HW242753   6.645   2.657   1.500 -1.5606 -1.7654 -0.0128
10094SOL     OW42754   3.509   4.216   4.840 -0.0989  0.2225  0.0811
10094SOL    HW142755   3.491   4.155   4.762  0.3814  0.5803 -0.3122
10094SOL    HW242756   3.575   4.286   4.812 -0.1599  0.5307  0.7258
10095SOL     OW42757   7.914   3.082   2.375 -0.9388 -0.2669 -0.7286
10095SOL    HW142758   7.970   3.000   2.367  1.5823  1.5715 -2.5408
10095SOL    HW242759   7.854   3.090   2.295 -1.2058 -0.3416 -0.5380
10096SOL     OW42760   4.298   0.851   3.107 -0.1240 -0.2640  0.4246
10096SOL    HW142761   4.268   0.755   3.106 -0.8141 -0.0470 -1.3705
10096SOL    HW242762   4.219   0.910   3.091  0.9307  0.4001 -2.7071
10097SOL     OW42763   5.129   2.313   5.311  0.6759  0.4251  0.3030
10097SOL    HW142764   5.117   2.392   5.252  1.8169 -0.0647 -0.6073
10097SOL    HW242765   5.064   2.242   5.285  1.9994 -0.2636 -1.2144
10098SOL     OW42766   3.593   8.365   7.469 -0.0391  0.5548  0.1800
10098SOL    HW142767   3.593   8.455   7.512 -1.8382  0.3736  0.5780
10098SOL    HW242768   3.545   8.299   7.527 -2.5486  0.3086 -2.0680
10099SOL     OW42769   3.169   1.783   4.491  0.5985  0.4113 -0.2207
10099SOL    HW142770   3.142   1.773   4.395  3.2358 -1.5245 -0.8360
10099SOL    HW242771   3.153   1.697   4.539  2.6595  0.1744  0.1157
10100SOL     OW42772   3.408   2.525   6.922 -0.2767 -0.3357  0.0504
10100SOL    HW142773   3.322   2.515   6.971 -0.1461 -0.2287  0.3009
10100SOL    HW242774   3.410   2.614   6.875 -0.1297 -0.1614  0.3851
10101SOL     OW42775   2.746   1.790   2.291 -0.2678  0.0021 -0.3888
10101SOL    HW142776   2.787   1.860   2.233 -1.5723  0.4686 -0.7660
10101SOL    HW242777   2.713   1.831   2.376  2.4046 -0.8253  1.0959
10102SOL     OW42778   7.019   4.072   7.236  0.1487  0.1746 -0.2596
10102SOL    HW142779   7.067   4.041   7.318  0.1483  0.7702 -0.0326
10102SOL    HW242780   6.975   3.994   7.192 -4.1267  0.4900  3.0891
10103SOL     OW42781   4.630   2.575   8.404  0.9150 -0.1759 -0.1684
10103SOL    HW142782   4.568   2.597   8.329 -0.1368 -0.0810  0.7176
10103SOL    HW242783   4.725   2.586   8.373  0.4772  0.9813 -1.1387
10104SOL     OW42784   5.724   5.824   6.249 -0.0303  0.1670 -0.2488
10104SOL    HW142785   5.709   5.733   6.210 -0.0655  0.5940 -1.2224
10104SOL    HW242786   5.698   5.894   6.183  0.6661  0.8960  0.2468
10105SOL     OW42787   3.127   0.270   0.812 -0.2996  0.4506  0.3214
10105SOL    HW142788   3.090   0.356   0.776 -0.8309 -0.0401 -0.3069
10105SOL    HW242789   3.073   0.240   0.891 -0.7594  0.1456 -0.1088
10106SOL     OW42790   5.420   3.282   7.915 -0.5831  0.4611  0.0315
10106SOL    HW142791   5.449   3.365   7.867  1.1538  0.5258  1.1816
10106SOL    HW242792   5.499   3.238   7.956 -1.5520 -1.5880 -0.2558
10107SOL     OW42793   7.048   0.620   1.519  0.0960 -0.8749 -0.3756
10107SOL    HW142794   7.002   0.706   1.496  0.7539 -0.4760 -0.1956
10107SOL    HW242795   6.992   0.543   1.487 -0.3559 -0.3776 -0.7893
10108SOL     OW42796   0.521   0.268   7.026 -0.0562 -0.0379  0.2746
10108SOL    HW142797   0.614   0.273   6.988 -0.0938 -0.0991  0.1726
10108SOL    HW242798   0.525   0.272   7.125 -0.0657  1.6972  0.2104
10109SOL     OW42799   6.742   3.693   7.351 -0.4284 -0.0340 -0.2551
10109SOL    HW142800   6.727   3.609   7.299 -2.9206 -0.8524  1.6734
10109SOL    HW242801   6.836   3.695   7.387 -0.2375 -1.7841 -0.6510
10110SOL     OW42802   3.107   7.405   7.537  0.3433 -0.1161 -0.2310
10110SOL    HW142803   3.026   7.363   7.495  1.0944 -1.4970 -0.3286
10110SOL    HW242804   3.151   7.465   7.471 -0.4476  0.4366 -0.2676
10111SOL     OW42805   6.503   7.332   5.434  0.0954  0.1565 -0.1637
10111SOL    HW142806   6.567   7.400   5.470  0.2742 -0.3221  0.4396
10111SOL    HW242807   6.410   7.354   5.464  0.0701  0.4550 -0.4536
10112SOL     OW42808   7.979   6.046   1.211 -0.2783 -0.1203  0.0900
10112SOL    HW142809   7.885   6.011   1.211 -0.1987 -0.3397 -0.2412
10112SOL    HW242810   8.027   6.014   1.129  0.2922 -0.5734  0.5910
10113SOL     OW42811   2.886   1.019   6.042  0.1830  0.1552 -0.5682
10113SOL    HW142812   2.802   1.053   5.999  0.3253 -0.8056 -1.6340
10113SOL    HW242813   2.965   1.066   6.002  0.1946  0.6490  0.0287
10114SOL     OW42814   2.471   6.188   2.089  0.1997 -0.3460 -0.4938
10114SOL    HW142815   2.441   6.259   2.025  0.6054  0.1258 -0.1737
10114SOL    HW242816   2.527   6.230   2.160  0.0846 -0.9282 -0.0550
10115SOL     OW42817   3.783   8.126   4.382 -0.8716 -0.0126 -0.6065
10115SOL    HW142818   3.740   8.039   4.355 -2.6471  0.5278  0.3826
10115SOL    HW242819   3.764   8.195   4.312 -1.9728  0.3246  0.0121
10116SOL     OW42820   5.719   7.207   7.203  0.3402 -0.0651 -0.0890
10116SOL    HW142821   5.706   7.112   7.175 -2.7227  0.1228  0.5254
10116SOL    HW242822   5.787   7.250   7.143  0.3347 -2.0934 -1.6209
10117SOL     OW42823   4.803   3.823   1.405 -0.5393  0.5710  0.1821
10117SOL    HW142824   4.703   3.831   1.397 -0.7707 -1.4024  0.9634
10117SOL    HW242825   4.845   3.830   1.314 -1.5683 -0.8879 -0.4249
10118SOL     OW42826   2.987   0.433   2.056  0.0777 -0.5303  0.1061
10118SOL    HW142827   3.011   0.406   1.963  1.5459 -1.9232  0.8574
10118SOL    HW242828   3.071   0.438   2.111 -0.6391  1.4544  1.0577
10119SOL     OW42829   0.437   4.562   1.350  0.2538  0.1601  0.2113
10119SOL    HW142830   0.453   4.464   1.345  0.9955  0.1615  2.0059
10119SOL    HW242831   0.341   4.582   1.329  0.1479 -0.9235 -0.3581
10120SOL     OW42832   8.976   1.487   6.330 -0.0077 -0.5594 -0.2916
10120SOL    HW142833   9.050   1.457   6.391 -0.3386  1.2865  1.0820
10120SOL    HW242834   8.974   1.429   6.249  0.9675 -2.5643  1.0809
10121SOL     OW42835   7.360   7.838   0.902  0.0830 -0.0293  0.4596
10121SOL    HW142836   7.303   7.888   0.837 -1.3062 -1.3824  0.6017
10121SOL    HW242837   7.397   7.901   0.970  0.6947  1.2385 -1.0238
10122SOL     OW42838   8.725   8.594   4.871  0.0761  0.4081 -0.1255
10122SOL    HW142839   8.755   8.659   4.801 -2.1990  0.5668 -0.9716
10122SOL    HW242840   8.630   8.570   4.856  0.3310 -1.6416  1.3452
10123SOL     OW42841   8.781   3.509   2.882  0.6872 -0.1306 -0.4157
10123SOL    HW142842   8.703   3.448   2.889  0.0308  0.9285  2.4306
10123SOL    HW242843   8.866   3.456   2.879  0.1479 -1.2260  2.3205
10124SOL     OW42844   4.877   2.713   6.399 -0.7299 -0.0527  0.3653
10124SOL    HW142845   4.807   2.782   6.418 -0.2000  0.5416  0.1697
10124SOL    HW242846   4.967   2.757   6.393 -0.4507 -0.6944 -0.2391
10125SOL     OW42847   3.470   2.264   8.196  0.2124  0.2219  0.0073
10125SOL    HW142848   3.452   2.288   8.291  0.8580  0.2499  0.1224
10125SOL    HW242849   3.445   2.168   8.180  1.8335 -0.3133  0.6617
10126SOL     OW42850   7.193   4.180   4.112 -0.4395  0.7347 -0.2318
10126SOL    HW142851   7.151   4.217   4.195  0.2838  2.6213 -0.6867
10126SOL    HW242852   7.145   4.216   4.032 -1.0521 -0.9785 -0.6680
10127SOL     OW42853   7.507   1.416   7.891 -0.3201 -0.2695  0.1643
10127SOL    HW142854   7.576   1.470   7.844 -1.6471  1.3692  0.0675
10127SOL    HW242855   7.467   1.470   7.966 -0.7649 -1.5654  0.8878
10128SOL     OW42856   3.427   4.492   2.577  0.1533  0.0375  0.0549
10128SOL    HW142857   3.393   4.574   2.623 -1.8297 -0.2266 -0.9294
10128SOL    HW242858   3.362   4.417   2.589  2.0247 -1.4721  1.0861
10129SOL     OW42859   8.248   4.699   0.482  0.0960  0.2639 -0.3370
10129SOL    HW142860   8.316   4.687   0.554  0.0305  1.4123 -0.0612
10129SOL    HW242861   8.261   4.630   0.411  0.4630 -0.5809  0.5493
10130SOL     OW42862   6.204   8.575   6.819  0.0589 -0.4146  0.4328
10130SOL    HW142863   6.218   8.672   6.797 -2.1493 -0.1301  0.2093
10130SOL    HW242864   6.290   8.535   6.851  0.6415  1.9856  1.9506
10131SOL     OW42865   3.066   4.033   7.144  0.2461 -0.0284 -0.0470
10131SOL    HW142866   3.010   4.105   7.184  1.7129 -0.6376  3.3036
10131SOL    HW242867   3.019   3.945   7.154  1.4703 -0.4780  2.3837
10132SOL     OW42868   4.130   0.596   5.676  0.1422 -0.1483 -0.0221
10132SOL    HW142869   4.126   0.606   5.577  0.4581  1.3911  0.1147
10132SOL    HW242870   4.048   0.635   5.717 -0.0333 -0.8680  0.3247
10133SOL     OW42871   2.953   7.176   6.401  0.1164 -0.2644  0.0641
10133SOL    HW142872   2.941   7.161   6.499  3.3422  0.6268  0.6555
10133SOL    HW242873   2.873   7.225   6.365  0.0784  1.8693  2.8143
10134SOL     OW42874   1.608   7.234   6.675  0.3946  0.5239  0.1521
10134SOL    HW142875   1.598   7.240   6.774  0.8433  1.5343  0.1451
10134SOL    HW242876   1.548   7.163   6.640 -2.2006  2.2987  0.7859
10135SOL     OW42877   5.959   8.751   0.562 -0.5623  0.2912  0.0687
10135SOL    HW142878   6.032   8.724   0.500 -1.2442  0.1549 -0.6843
10135SOL    HW242879   5.873   8.710   0.532 -1.0982  1.0806  0.5013
10136SOL     OW42880   0.631   1.006   2.716 -0.1066 -0.0269 -0.1643
10136SOL    HW142881   0.682   1.029   2.632  1.2894  1.8647  1.1705
10136SOL    HW242882   0.648   0.910   2.739  2.8752  0.5362  0.2158
10137SOL     OW42883   6.988   3.492   7.852  0.3186  0.0641  0.2143
10137SOL    HW142884   6.915   3.555   7.877  0.8866  0.8899 -0.1913
10137SOL    HW242885   7.064   3.501   7.916  0.0520 -0.8304  0.6638
10138SOL     OW42886   1.872   2.422   8.714 -0.6143 -0.0720  0.5037
10138SOL    HW142887   1.959   2.410   8.762 -0.1094 -1.8139 -0.7693
10138SOL    HW242888   1.800   2.375   8.765 -0.2633 -1.0732  0.0983
10139SOL     OW42889   6.738   3.461   0.853 -0.0571 -0.2217  0.1578
10139SOL    HW142890   6.656   3.406   0.835  0.7123 -0.8351 -1.6054
10139SOL    HW242891   6.806   3.443   0.782  1.6251  0.2752  1.6002
10140SOL     OW42892   3.082   7.441   0.013  0.0942 -0.3013  0.1066
10140SOL    HW142893   3.031   7.423   0.097 -0.0499 -0.9166 -0.1075
10140SOL    HW242894   3.024   7.422  -0.066  0.1318  0.5662 -0.1294
10141SOL     OW42895   6.947   2.571   8.165  0.1860 -0.2953 -0.7234
10141SOL    HW142896   6.997   2.557   8.251  0.9062 -1.4081 -1.3247
10141SOL    HW242897   6.913   2.665   8.163 -0.0081 -0.3056  0.8711
10142SOL     OW42898   3.270   8.373   0.074 -0.4139 -0.6213 -0.1823
10142SOL    HW142899   3.360   8.369   0.117 -1.3871 -3.8649  1.7929
10142SOL    HW242900   3.213   8.441   0.122 -0.5833 -2.2002  1.9477
10143SOL     OW42901   2.205   6.202   3.283  0.0732  0.3768 -0.6208
10143SOL    HW142902   2.256   6.153   3.213 -0.6461 -0.6694 -0.4209
10143SOL    HW242903   2.253   6.195   3.371 -0.6511 -1.0321 -0.3245
10144SOL     OW42904   8.303   1.610   0.122  0.4754  0.1935 -0.2884
10144SOL    HW142905   8.224   1.637   0.067  1.1247  1.0745 -0.8016
10144SOL    HW242906   8.323   1.682   0.189  1.6724  0.6019 -1.0621
10145SOL     OW42907   7.500   8.370   2.296  0.1565  0.1923  0.3106
10145SOL    HW142908   7.441   8.302   2.340 -1.1589  1.6124  0.7992
10145SOL    HW242909   7.582   8.385   2.351 -0.3934  0.2899  1.1044
10146SOL     OW42910   6.303   3.355   1.329  0.7732 -0.2261 -0.4053
10146SOL    HW142911   6.348   3.278   1.285  1.1248 -1.0682  1.4052
10146SOL    HW242912   6.360   3.389   1.403  0.1467  1.1320 -0.5325
10147SOL     OW42913   0.815   7.486   0.825 -0.7310 -0.6237 -0.1917
10147SOL    HW142914   0.860   7.573   0.842 -0.6826 -0.7011  0.0805
10147SOL    HW242915   0.823   7.462   0.728  2.4682 -2.0883  0.3580
10148SOL     OW42916   7.952   4.963   6.596  0.0186 -0.4509 -0.1507
10148SOL    HW142917   7.901   5.029   6.540 -0.0022  0.6382  1.1243
10148SOL    HW242918   7.967   4.879   6.543 -1.0451  0.1003 -1.3621
10149SOL     OW42919   5.086   0.161   0.092  0.2399  0.1812 -0.4053
10149SOL    HW142920   5.070   0.229   0.021  0.1534  0.1813 -0.3856
10149SOL    HW242921   5.184   0.149   0.105  0.2514  0.4290 -0.2844
10150SOL     OW42922   3.879   8.257   2.106  0.1198 -0.3735  0.0954
10150SOL    HW142923   3.873   8.167   2.063  0.8627 -0.2540 -0.2655
10150SOL    HW242924   3.901   8.245   2.203 -1.0522 -0.6219  0.3427
10151SOL     OW42925   4.651   8.191   6.299 -0.1071  0.5473  0.8473
10151SOL    HW142926   4.562   8.184   6.253  0.2607  0.4616  0.1506
10151SOL    HW242927   4.722   8.150   6.242  0.4993  1.2752  1.0710
10152SOL     OW42928   5.791   7.262   3.990  0.7683  0.2947  0.3186
10152SOL    HW142929   5.749   7.173   3.970  0.7005  0.5241 -0.5735
10152SOL    HW242930   5.816   7.266   4.087  0.7236 -0.6772  0.3740
10153SOL     OW42931   8.921   1.909   8.889  0.0261 -0.5700  0.1821
10153SOL    HW142932   8.833   1.950   8.864 -0.5054 -0.9046  1.4546
10153SOL    HW242933   8.928   1.904   8.988  0.8768 -1.8668  0.0683
10154SOL     OW42934   7.082   2.765   0.236  0.2377  0.7081  0.2264
10154SOL    HW142935   7.067   2.851   0.188  1.6982  2.0776  2.1828
10154SOL    HW242936   7.152   2.777   0.305  0.8560 -2.2062  0.1668
10155SOL     OW42937   2.078   1.219   3.046  0.1199  0.5291  0.0655
10155SOL    HW142938   1.980   1.199   3.042  0.3650 -0.5348 -0.9102
10155SOL    HW242939   2.128   1.136   3.070  0.6363  1.5511  2.7278
10156SOL     OW42940   8.581   5.320   7.291 -0.5109 -0.5956  0.3679
10156SOL    HW142941   8.483   5.299   7.291 -0.7492  0.4907  1.1764
10156SOL    HW242942   8.600   5.392   7.225  0.1167 -2.4238 -1.4872
10157SOL     OW42943   6.557   6.445   5.323  0.9146  0.0560  0.3793
10157SOL    HW142944   6.486   6.375   5.325  0.9415 -0.0139 -0.8182
10157SOL    HW242945   6.570   6.482   5.416 -1.2791  0.6932  0.4637
10158SOL     OW42946   2.814   3.020   5.512  0.5141 -0.3128  0.4089
10158SOL    HW142947   2.883   3.053   5.576  0.4101 -0.3611  0.5463
10158SOL    HW242948   2.729   3.001   5.562  0.0508  0.8420  0.0614
10159SOL     OW42949   0.795   3.313   4.600 -0.2223  0.1358 -0.4672
10159SOL    HW142950   0.855   3.239   4.629  0.4099  0.1774 -1.6133
10159SOL    HW242951   0.790   3.382   4.672  0.0305 -0.5076  0.1758
10160SOL     OW42952   1.904   2.793   5.178  0.2489 -0.6008  0.0078
10160SOL    HW142953   1.819   2.835   5.211 -0.4263 -1.5428 -0.5172
10160SOL    HW242954   1.978   2.815   5.241 -0.6116 -0.7197  1.0860
10161SOL     OW42955   4.736   0.633   2.055  0.2312 -0.0123 -0.3958
10161SOL    HW142956   4.708   0.640   2.151  2.0044  0.8449  0.0921
10161SOL    HW242957   4.802   0.559   2.045  0.6484  0.4059 -0.7891
10162SOL     OW42958   2.795   5.174   2.925 -0.4779 -0.0116  0.0794
10162SOL    HW142959   2.762   5.251   2.871 -0.4378 -1.2230 -1.7174
10162SOL    HW242960   2.864   5.206   2.990  0.4910  1.2676 -1.5515
10163SOL     OW42961   3.898   8.802   1.469 -0.3093 -0.0129 -0.2025
10163SOL    HW142962   3.806   8.768   1.449 -0.4888  2.0032 -3.2678
10163SOL    HW242963   3.893   8.873   1.539 -1.1755  0.4431 -0.7197
10164SOL     OW42964   6.485   5.144   0.607  0.0811  0.5861 -0.1268
10164SOL    HW142965   6.497   5.144   0.706 -0.2970  2.5460 -0.0657
10164SOL    HW242966   6.567   5.106   0.564  1.0455  1.4911  0.8692
10165SOL     OW42967   7.202   3.952   6.081 -0.1720  0.2120  0.4887
10165SOL    HW142968   7.238   4.025   6.139  1.7919 -0.7382  0.5103
10165SOL    HW242969   7.138   3.897   6.133  0.1527  0.4942  1.1996
10166SOL     OW42970   0.841   1.635   1.632 -0.2825 -0.1552  0.0015
10166SOL    HW142971   0.904   1.670   1.702 -0.8216  0.8818 -0.0252
10166SOL    HW242972   0.753   1.616   1.674 -0.6524  0.6096 -0.4346
10167SOL     OW42973   4.515   0.912   4.009 -0.0565 -0.5724  0.4590
10167SOL    HW142974   4.599   0.961   4.033 -0.2433  0.5291 -1.0315
10167SOL    HW242975   4.488   0.853   4.085  1.1822  0.2676  1.5808
10168SOL     OW42976   2.145   5.886   1.977 -0.1275  0.1674  0.1863
10168SOL    HW142977   2.080   5.928   1.914  0.2889  2.1097  1.0092
10168SOL    HW242978   2.118   5.905   2.071  1.3181  0.5373  0.5500
10169SOL     OW42979   3.581   1.042   3.958 -0.2215  0.5676  0.1389
10169SOL    HW142980   3.662   1.000   3.998 -0.8408 -0.0991  0.7092
10169SOL    HW242981   3.609   1.111   3.891  0.8092 -0.9083 -0.9889
10170SOL     OW42982   0.725   2.340   4.023  0.6282  0.5293 -0.1073
10170SOL    HW142983   0.677   2.364   3.939  0.5344  1.4213  0.1933
10170SOL    HW242984   0.664   2.290   4.084  0.4901  0.4930 -0.2771
10171SOL     OW42985   6.547   8.315   8.579 -0.1229  0.2759  0.2800
10171SOL    HW142986   6.582   8.319   8.486  0.3439  1.1288  0.4871
10171SOL    HW242987   6.622   8.307   8.643 -0.3005  1.6941  0.6973
10172SOL     OW42988   5.832   2.709   1.786  0.3828 -0.1261 -0.1706
10172SOL    HW142989   5.864   2.683   1.878 -1.0153 -0.8914  0.1083
10172SOL    HW242990   5.899   2.770   1.744  2.9258 -2.8047 -0.1583
10173SOL     OW42991   8.521   6.288   3.890 -0.7332 -0.5343 -0.2530
10173SOL    HW142992   8.495   6.384   3.886 -0.8573 -0.4930  1.2169
10173SOL    HW242993   8.515   6.248   3.799 -2.8411  0.2892 -0.5042
10174SOL     OW42994   7.757   5.081   3.498  0.4344  0.6924  0.2725
10174SOL    HW142995   7.718   5.136   3.572  0.1543 -1.0330  1.4553
10174SOL    HW242996   7.702   5.091   3.415 -1.5283 -0.3324  1.4129
10175SOL     OW42997   8.617   4.478   4.828  0.6585 -0.6817  0.3695
10175SOL    HW142998   8.595   4.437   4.917 -0.4283 -0.3980  0.2402
10175SOL    HW242999   8.533   4.488   4.774  1.0321  0.8356  0.0324
10176SOL     OW43000   3.158   6.184   0.789  0.0159 -0.4493  0.3390
10176SOL    HW143001   3.170   6.125   0.709 -0.7996  1.0590 -0.9424
10176SOL    HW243002   3.187   6.136   0.871 -1.2770 -2.8817 -0.5799
10177SOL     OW43003   8.009   5.651   0.755 -0.2048 -0.0592  0.2461
10177SOL    HW143004   7.948   5.728   0.774  1.3549  1.5267 -0.9699
10177SOL    HW243005   8.060   5.670   0.671  0.4145 -2.3061  0.1006
10178SOL     OW43006   1.515   3.329   3.445  0.6833  0.3272  0.6046
10178SOL    HW143007   1.470   3.387   3.513 -0.6601 -0.0792  0.0788
10178SOL    HW243008   1.600   3.373   3.416  0.0442  1.6995  0.7378
10179SOL     OW43009   7.127   3.178   2.040  0.2157 -0.8755  0.6839
10179SOL    HW143010   7.133   3.275   2.015 -0.0146 -1.2393 -0.8644
10179SOL    HW243011   7.044   3.162   2.093 -0.2911 -0.3998  0.0412
10180SOL     OW43012   4.535   2.154   5.115  0.2563 -0.1809 -0.5081
10180SOL    HW143013   4.492   2.160   5.205  0.7215 -1.0695 -0.2217
10180SOL    HW243014   4.470   2.116   5.050 -0.1342  0.6139 -0.5857
10181SOL     OW43015   7.908   5.004   5.896  0.2708 -0.0883 -0.4189
10181SOL    HW143016   7.848   5.066   5.845  0.0974  0.0719 -0.0272
10181SOL    HW243017   7.993   4.991   5.846  0.3618  0.5752 -0.4465
10182SOL     OW43018   0.765   6.449   1.609  0.3305 -0.5282 -0.1464
10182SOL    HW143019   0.840   6.398   1.651  0.6100  0.9040  1.1509
10182SOL    HW243020   0.692   6.386   1.584 -0.2834 -1.3633  3.4578
10183SOL     OW43021   2.529   5.049   7.080  0.7358 -0.3098  0.2188
10183SOL    HW143022   2.572   5.129   7.121  0.4429 -0.1199  0.1634
10183SOL    HW243023   2.435   5.072   7.053  0.5842 -0.7281  0.3775
10184SOL     OW43024   3.472   5.983   7.385  1.0817 -0.7675  0.2389
10184SOL    HW143025   3.570   6.000   7.393  1.1902 -1.6181  0.7463
10184SOL    HW243026   3.451   5.889   7.413  0.0098 -0.3121  1.0209
10185SOL     OW43027   6.338   6.108   8.325  0.6253  0.2755  0.0048
10185SOL    HW143028   6.263   6.136   8.386  2.1527  1.6926  1.2612
10185SOL    HW243029   6.412   6.068   8.380  0.9694 -0.7490 -1.1897
10186SOL     OW43030   3.664   5.004   0.685 -0.0492  0.4580 -0.1788
10186SOL    HW143031   3.698   5.081   0.631  0.7509 -0.5964 -1.2081
10186SOL    HW243032   3.631   5.037   0.773  0.3764  1.9675 -0.5757
10187SOL     OW43033   8.437   1.715   2.199 -0.2940 -0.5372  0.9658
10187SOL    HW143034   8.371   1.643   2.179 -1.6798  0.8010  0.6376
10187SOL    HW243035   8.524   1.694   2.154 -1.0237 -1.4121 -0.0557
10188SOL     OW43036   7.847   1.664   0.178 -0.5110  0.3038  0.0213
10188SOL    HW143037   7.774   1.732   0.179 -0.5932  0.2112  0.1710
10188SOL    HW243038   7.821   1.585   0.233 -0.2465  0.3240  0.1757
10189SOL     OW43039   6.724   3.365   1.595  0.3779 -0.5478  0.3840
10189SOL    HW143040   6.742   3.291   1.659  1.2216 -0.1910  0.5653
10189SOL    HW243041   6.771   3.347   1.508 -0.4993 -0.8714 -0.0359
10190SOL     OW43042   7.783   2.263   7.935 -0.2272 -0.3300  0.4001
10190SOL    HW143043   7.766   2.171   7.969  1.9072 -1.6253 -1.8678
10190SOL    HW243044   7.880   2.285   7.944 -0.9668  2.3106  2.2964
10191SOL     OW43045   4.493   5.923   4.634 -0.5553  0.0495 -0.0481
10191SOL    HW143046   4.538   5.894   4.719 -1.3809  0.9389  0.6992
10191SOL    HW243047   4.551   5.898   4.556  0.4009 -0.4150  0.7948
10192SOL     OW43048   3.882   1.099   2.897 -0.3000  0.2847  0.7612
10192SOL    HW143049   3.821   1.023   2.921  0.5832 -0.4489  0.7056
10192SOL    HW243050   3.894   1.101   2.798  0.0595  0.2030  0.8045
10193SOL     OW43051   6.828   3.296   0.136  0.0806 -0.3757  0.0062
10193SOL    HW143052   6.917   3.319   0.096 -0.2957  1.7777  0.3508
10193SOL    HW243053   6.805   3.362   0.207 -0.4907 -2.5939  1.9719
10194SOL     OW43054   4.488   6.472   7.082 -0.1173  0.0436 -0.3500
10194SOL    HW143055   4.562   6.519   7.033  0.2563 -0.5208 -0.3360
10194SOL    HW243056   4.507   6.472   7.180  0.8648 -1.7844 -0.5024
10195SOL     OW43057   0.560   2.379   0.326  0.1731  0.2739  0.9160
10195SOL    HW143058   0.494   2.304   0.333  0.5052 -0.2016 -0.7686
10195SOL    HW243059   0.558   2.417   0.233 -0.3091  2.6759  1.8792
10196SOL     OW43060   4.831   5.751   5.186 -0.0596 -0.5341  0.5898
10196SOL    HW143061   4.757   5.706   5.137 -0.8015  2.8495 -1.5010
10196SOL    HW243062   4.812   5.749   5.284 -1.8057 -1.5896  0.2557
10197SOL     OW43063   3.435   6.615   5.265 -0.1234 -0.0344  0.1381
10197SOL    HW143064   3.395   6.523   5.261 -1.0081  0.2026  2.6272
10197SOL    HW243065   3.521   6.612   5.315  0.0916  0.4137 -0.2042
10198SOL     OW43066   6.078   0.544   0.114 -0.3830  0.4587 -0.0755
10198SOL    HW143067   6.169   0.505   0.107 -0.4555  0.2523  0.1275
10198SOL    HW243068   6.085   0.641   0.138 -0.2086  0.5234 -0.3911
10199SOL     OW43069   6.504   6.149   8.633  0.0170  0.0212  0.2691
10199SOL    HW143070   6.587   6.203   8.645  0.2343 -0.4397  0.8351
10199SOL    HW243071   6.482   6.101   8.718  0.2768 -1.4372 -0.4743
10200SOL     OW43072   3.743   4.922   5.035 -0.0727 -0.5857  0.1556
10200SOL    HW143073   3.767   4.835   5.078 -0.6747 -1.1126 -0.5703
10200SOL    HW243074   3.671   4.907   4.968 -0.7065  0.5991  0.5709
10201SOL     OW43075   2.884   3.516   7.797  0.5147  0.5761  0.1503
10201SOL    HW143076   2.825   3.437   7.813 -0.3361  0.4588 -3.1215
10201SOL    HW243077   2.976   3.496   7.830  0.4321 -2.0166 -1.0534
10202SOL     OW43078   4.442   4.326   1.682 -0.1409  0.0196 -0.1311
10202SOL    HW143079   4.387   4.279   1.752 -3.0688  2.7869 -0.4404
10202SOL    HW243080   4.446   4.270   1.600 -0.4282 -1.3168  0.7515
10203SOL     OW43081   6.702   0.211   7.158  0.5409  0.3929  0.3597
10203SOL    HW143082   6.642   0.138   7.189  2.5688 -1.3573  0.2735
10203SOL    HW243083   6.689   0.225   7.060  1.3498 -1.0614  0.0236
10204SOL     OW43084   4.432   1.790   0.801 -0.3499  0.3121 -1.0468
10204SOL    HW143085   4.494   1.718   0.770 -1.3722 -0.9455 -0.2199
10204SOL    HW243086   4.339   1.767   0.772 -1.1154 -0.1611  1.6454
10205SOL     OW43087   0.411   4.469   6.689  0.1786  0.0630  0.2261
10205SOL    HW143088   0.346   4.456   6.614 -0.7243  1.7033  0.7161
10205SOL    HW243089   0.384   4.411   6.766  0.4515 -0.7462 -0.2679
10206SOL     OW43090   4.377   4.981   7.534  0.0601  0.6661  0.3836
10206SOL    HW143091   4.459   4.932   7.502  0.3486  0.8953  0.7712
10206SOL    HW243092   4.315   4.996   7.457 -1.6106 -3.3326  0.8202
10207SOL     OW43093   8.784   4.437   8.259  0.4249 -0.4958  0.0652
10207SOL    HW143094   8.699   4.452   8.309  0.7929  1.5678  0.1454
10207SOL    HW243095   8.838   4.366   8.305 -0.1103  0.0172  1.5083
10208SOL     OW43096   2.571   4.501   8.860 -0.2704  0.1659  0.7008
10208SOL    HW143097   2.540   4.425   8.916 -0.4976  0.0145  0.3703
10208SOL    HW243098   2.496   4.533   8.802 -0.4026  1.1675  1.4219
10209SOL     OW43099   2.767   2.742   7.399  0.0795  0.4382 -0.2740
10209SOL    HW143100   2.793   2.716   7.491  1.8492  2.4403 -0.1628
10209SOL    HW243101   2.700   2.816   7.402 -1.0431 -0.5509 -0.5983
10210SOL     OW43102   2.121   3.035   5.517  0.1174 -0.0780 -0.1673
10210SOL    HW143103   2.204   3.036   5.461  0.5187 -0.3417  0.4168
10210SOL    HW243104   2.125   3.109   5.584 -1.1654  1.3427 -1.6354
10211SOL     OW43105   3.982   3.573   6.643  0.3321 -0.0031 -0.1783
10211SOL    HW143106   3.990   3.615   6.733  1.2692 -0.0535 -0.2357
10211SOL    HW243107   3.995   3.642   6.572 -1.0094  0.1529 -0.2842
10212SOL     OW43108   1.205   1.883   1.077  0.2442 -0.3026 -0.2494
10212SOL    HW143109   1.148   1.804   1.057 -0.7689  0.7064 -1.3944
10212SOL    HW243110   1.148   1.959   1.109  1.1255  0.1860  0.2095
10213SOL     OW43111   2.170   8.384   3.675 -0.4919  0.4347 -0.3676
10213SOL    HW143112   2.090   8.419   3.723 -1.0864 -0.1324 -0.9465
10213SOL    HW243113   2.247   8.380   3.739 -0.1737  3.5232 -0.4513
10214SOL     OW43114   7.217   2.919   1.956  0.0738 -0.1674 -0.2557
10214SOL    HW143115   7.224   3.013   1.988 -0.8072  0.0730 -0.7469
10214SOL    HW243116   7.156   2.867   2.015  1.6618 -0.8182  0.8470
10215SOL     OW43117   4.032   5.702   4.049 -0.0446  0.4078  0.8012
10215SOL    HW143118   4.014   5.725   4.145 -0.7953  0.7953  0.5692
10215SOL    HW243119   4.036   5.603   4.038  1.1835  0.3766  1.4387
10216SOL     OW43120   6.761   4.842   8.769  0.2804 -0.3529 -0.4582
10216SOL    HW143121   6.787   4.916   8.707  1.6731 -0.7862 -0.3998
10216SOL    HW243122   6.821   4.843   8.849  0.8634 -2.0751 -0.8578
10217SOL     OW43123   3.694   1.146   1.195 -0.2904 -0.1022 -0.4006
10217SOL    HW143124   3.598   1.171   1.181  0.0974  2.9455  1.8373
10217SOL    HW243125   3.708   1.120   1.291  1.6474  2.3433  0.0232
10218SOL     OW43126   6.128   8.372   3.010 -0.3866 -0.0825  0.3711
10218SOL    HW143127   6.167   8.356   3.100 -0.9592  2.4692  1.1360
10218SOL    HW243128   6.100   8.286   2.969  1.3143 -1.4256  1.9651
10219SOL     OW43129   3.105   6.709   0.265 -0.2478  0.2692  0.4030
10219SOL    HW143130   3.014   6.732   0.230 -0.6554 -0.0286  1.2665
10219SOL    HW243131   3.164   6.790   0.260  0.1684 -0.1541 -2.4015
10220SOL     OW43132   5.788   6.932   3.286  0.0874 -0.1853  0.2851
10220SOL    HW143133   5.824   6.958   3.376  0.1512  0.7704 -0.0024
10220SOL    HW243134   5.864   6.916   3.223  0.0325  0.1106  0.1423
10221SOL     OW43135   4.166   0.270   7.095  0.3156 -0.2465  0.3045
10221SOL    HW143136   4.265   0.267   7.079 -0.0776  1.2107 -2.7299
10221SOL    HW243137   4.141   0.358   7.135  0.1215 -0.2994  0.3009
10222SOL     OW43138   4.284   4.894   3.614 -0.5387 -0.3437  0.6636
10222SOL    HW143139   4.281   4.942   3.527 -1.4269 -0.1138  0.8165
10222SOL    HW243140   4.291   4.795   3.598  0.3232 -0.2339  0.3444
10223SOL     OW43141   4.876   5.036   4.727 -0.4024 -0.0586  0.0660
10223SOL    HW143142   4.931   5.014   4.808  0.6074  3.2189  0.3351
10223SOL    HW243143   4.923   5.003   4.645  0.9474  0.8700  0.4590
10224SOL     OW43144   0.371   4.033   2.745  0.0568 -0.0680  0.4555
10224SOL    HW143145   0.391   4.124   2.710  0.7242  0.2261  1.5645
10224SOL    HW243146   0.337   3.975   2.671  0.0928  0.9379 -0.3563
10225SOL     OW43147   6.447   8.236   6.620 -0.5185 -0.1876  0.1817
10225SOL    HW143148   6.450   8.260   6.523  1.4153 -1.2526 -0.0463
10225SOL    HW243149   6.352   8.239   6.652 -1.2544 -0.3714 -1.8866
10226SOL     OW43150   6.815   4.537   2.107 -0.1194 -0.0595 -0.4063
10226SOL    HW143151   6.787   4.617   2.160  0.6391  0.6855 -1.1116
10226SOL    HW243152   6.799   4.554   2.010 -2.6529 -1.8816 -0.3775
10227SOL     OW43153   7.274   2.430   0.295  0.9495  0.2208  0.1726
10227SOL    HW143154   7.328   2.494   0.350 -1.1270  1.2445  1.0418
10227SOL    HW243155   7.273   2.462   0.200 -0.1322  1.5288  0.6143
10228SOL     OW43156   8.705   4.849   4.082 -0.4230 -0.0102 -0.0518
10228SOL    HW143157   8.800   4.871   4.101 -0.2795 -0.2966 -0.4082
10228SOL    HW243158   8.647   4.881   4.156 -0.0089 -0.1281  0.3262
10229SOL     OW43159   1.453   5.215   1.249 -0.4421 -0.3498  0.2063
10229SOL    HW143160   1.380   5.196   1.183 -0.5011  2.8233 -0.7102
10229SOL    HW243161   1.418   5.273   1.322  1.0677  0.8547 -0.0090
10230SOL     OW43162   4.691   1.773   1.350  0.3530  0.5399  0.0524
10230SOL    HW143163   4.707   1.839   1.423  1.0239 -0.9510  1.2650
10230SOL    HW243164   4.604   1.727   1.365 -0.1701  1.2169 -0.8563
10231SOL     OW43165   7.792   4.233   4.589  0.2469  0.0719  0.2898
10231SOL    HW143166   7.812   4.140   4.558 -1.1984  0.0972 -0.7823
10231SOL    HW243167   7.754   4.230   4.682 -0.4588 -0.4845 -0.0105
10232SOL     OW43168   4.857   1.139   5.915 -0.7962 -0.0098 -0.0667
10232SOL    HW143169   4.907   1.059   5.884 -0.8620  0.9920 -2.9474
10232SOL    HW243170   4.766   1.112   5.946 -0.8547 -1.0470 -1.1224
10233SOL     OW43171   2.602   3.959   3.933 -0.1280  0.7441  0.3408
10233SOL    HW143172   2.566   3.992   3.846 -0.9183 -0.2784  0.2707
10233SOL    HW243173   2.693   3.919   3.919 -0.4253  0.2230 -0.0727
10234SOL     OW43174   5.062   6.161   5.214 -0.0660 -0.4362 -0.7441
10234SOL    HW143175   5.156   6.138   5.240 -0.5161  0.1452  1.5743
10234SOL    HW243176   5.032   6.103   5.139  2.1817 -0.5422 -1.5902
10235SOL     OW43177   8.039   8.659   7.712 -0.0667  0.1139  0.8761
10235SOL    HW143178   7.971   8.727   7.742 -0.3576  1.5077 -2.6924
10235SOL    HW243179   8.118   8.706   7.674  0.2205 -1.5153 -0.6201
10236SOL     OW43180   4.792   1.430   3.969 -0.1279  0.2694  0.1102
10236SOL    HW143181   4.856   1.376   4.023  0.2206 -0.2725 -0.8453
10236SOL    HW243182   4.698   1.408   3.996  0.0649  0.5465  1.0145
10237SOL     OW43183   0.519   1.335   1.272  0.3762  0.4839  0.1315
10237SOL    HW143184   0.436   1.323   1.218 -0.3690  1.2750  1.0710
10237SOL    HW243185   0.498   1.389   1.353  1.7287  0.3311  0.5978
10238SOL     OW43186   1.403   1.453   5.488  0.2259 -0.3658 -0.1517
10238SOL    HW143187   1.328   1.454   5.554  0.4516 -0.9687  0.1144
10238SOL    HW243188   1.463   1.375   5.506  0.6622 -0.1511 -0.6509
10239SOL     OW43189   7.846   2.003   7.709  0.1883  0.4021 -0.4360
10239SOL    HW143190   7.795   1.985   7.793 -2.4419 -3.0432 -2.6370
10239SOL    HW243191   7.792   2.064   7.650  0.1982 -0.3869 -1.2735
10240SOL     OW43192   5.428   6.987   1.848  0.2081  0.8459 -0.2494
10240SOL    HW143193   5.520   7.018   1.824 -0.1384  0.8645 -1.6138
10240SOL    HW243194   5.360   7.047   1.806 -0.4316 -0.0398 -0.5076
10241SOL     OW43195   3.035   3.723   6.370  0.5030  0.1268 -0.6397
10241SOL    HW143196   2.984   3.804   6.398 -0.0375  0.1402 -1.6153
10241SOL    HW243197   3.112   3.751   6.312  1.4804  0.0873  0.6217
10242SOL     OW43198   1.852   6.857   7.710  0.2668 -0.3533  0.0881
10242SOL    HW143199   1.791   6.792   7.665 -0.4683  1.6225 -1.8827
10242SOL    HW243200   1.799   6.916   7.771  0.3903  0.4333 -0.5457
10243SOL     OW43201   3.176   4.995   6.791  0.2106 -0.1320  0.6457
10243SOL    HW143202   3.234   5.047   6.853 -0.4652  0.9779  0.3542
10243SOL    HW243203   3.206   4.899   6.790  0.8466  0.0439  1.9119
10244SOL     OW43204   3.111   3.445   6.066 -0.0241 -0.2109 -0.1384
10244SOL    HW143205   3.190   3.487   6.111 -1.7777  1.4856  1.4480
10244SOL    HW243206   3.048   3.517   6.035 -1.7062 -1.5836  0.0110
10245SOL     OW43207   0.531   0.130   3.904 -0.2050  0.2211 -0.1475
10245SOL    HW143208   0.462   0.201   3.909 -0.0268  0.2639  1.9545
10245SOL    HW243209   0.621   0.172   3.891 -0.1563  0.3503  0.6136
10246SOL     OW43210   5.715   2.312   6.785 -0.4339 -0.5566  1.0559
10246SOL    HW143211   5.677   2.224   6.814 -1.0004 -1.4748 -2.2234
10246SOL    HW243212   5.640   2.372   6.756  0.2125 -0.3979 -0.3131
10247SOL     OW43213   3.155   2.901   6.840  0.6920  0.9839 -0.4243
10247SOL    HW143214   3.068   2.861   6.868  1.2361  0.2035  0.1995
10247SOL    HW243215   3.141   2.994   6.807 -0.3829  0.8298 -0.4061
10248SOL     OW43216   0.319   4.093   8.875  0.3295 -0.5904  0.2081
10248SOL    HW143217   0.354   4.186   8.882  1.1752 -0.9268  0.4052
10248SOL    HW243218   0.350   4.052   8.789 -0.4534 -0.5201 -0.1130
10249SOL     OW43219   5.459   8.237   7.794 -0.1925 -0.0350  0.3409
10249SOL    HW143220   5.539   8.182   7.771 -0.2034 -0.5052  1.3842
10249SOL    HW243221   5.393   8.234   7.719 -1.1872 -3.2879  1.2688
10250SOL     OW43222   3.536   7.324   5.617  0.0436 -0.5114 -0.6252
10250SOL    HW143223   3.633   7.309   5.599  0.0540  1.7144 -2.7344
10250SOL    HW243224   3.519   7.319   5.716  2.6995  1.1170 -0.0118
10251SOL     OW43225   3.848   6.948   4.580  0.5359  0.0054  0.6580
10251SOL    HW143226   3.838   6.878   4.510 -0.5734  1.7548 -0.9890
10251SOL    HW243227   3.945   6.965   4.597  0.8174  0.0500 -0.9506
10252SOL     OW43228   3.738   1.799   7.694 -0.5818 -0.5864  0.1571
10252SOL    HW143229   3.803   1.724   7.708 -1.6525 -1.8414 -1.4912
10252SOL    HW243230   3.777   1.884   7.731  1.2160 -1.6736  0.8121
10253SOL     OW43231   8.062   4.969   5.085 -0.3974  0.2352  0.3199
10253SOL    HW143232   7.989   4.943   5.149  2.0385 -0.1379  3.0288
10253SOL    HW243233   8.043   5.061   5.049 -2.8275 -0.3540 -0.0016
10254SOL     OW43234   2.495   3.944   7.448 -0.1633  0.0915 -0.2402
10254SOL    HW143235   2.488   4.011   7.522  2.8710 -0.3602  0.5022
10254SOL    HW243236   2.518   3.991   7.362  0.9984  0.1245  0.0826
10255SOL     OW43237   3.735   8.914   5.950 -0.1067  0.2843  0.1544
10255SOL    HW143238   3.657   8.894   6.010 -0.0638  0.3255  0.2234
10255SOL    HW243239   3.719   8.873   5.861  0.6654 -1.3930  0.7549
10256SOL     OW43240   8.304   1.551   5.761 -0.7270  0.1548 -0.0051
10256SOL    HW143241   8.346   1.466   5.731  0.5584  0.4041  1.0210
10256SOL    HW243242   8.214   1.532   5.800 -0.9195 -0.5847 -0.7913
10257SOL     OW43243   3.930   3.707   8.889  0.8651  0.0243  1.0658
10257SOL    HW143244   3.997   3.636   8.909  1.4768  0.8715  2.0876
10257SOL    HW243245   3.846   3.665   8.853  1.6992 -1.0915  0.3940
10258SOL     OW43246   5.030   7.842   6.546 -0.1521 -0.4448 -0.6482
10258SOL    HW143247   4.998   7.925   6.501 -1.0660 -0.2195  0.3958
10258SOL    HW243248   5.089   7.866   6.623 -1.0987 -0.7133  0.1819
10259SOL     OW43249   3.226   3.891   6.163  0.7531  0.5240  0.1217
10259SOL    HW143250   3.305   3.844   6.125  0.4989 -0.8561  1.2832
10259SOL    HW243251   3.157   3.904   6.092  0.6024 -1.3455 -0.0778
10260SOL     OW43252   2.637   6.701   6.617  0.0889  0.5751  0.3907
10260SOL    HW143253   2.607   6.606   6.627 -1.5957  1.2292  1.8338
10260SOL    HW243254   2.698   6.725   6.693  1.3418  0.3726 -0.5216
10261SOL     OW43255   3.775   7.708   7.621 -0.0918 -0.1873  0.0249
10261SOL    HW143256   3.818   7.706   7.531  1.0260 -0.2110  0.5618
10261SOL    HW243257   3.762   7.802   7.651  2.2359 -0.1758  1.1150
10262SOL     OW43258   3.686   5.135   5.211 -0.4213 -0.9769 -0.0187
10262SOL    HW143259   3.723   5.073   5.142  1.1940  0.5108 -0.5092
10262SOL    HW243260   3.742   5.218   5.215 -1.8790 -0.0444  1.4409
10263SOL     OW43261   5.489   4.286   7.393  0.2602  0.2555 -0.1010
10263SOL    HW143262   5.554   4.362   7.401 -1.1752  1.6747 -1.6521
10263SOL    HW243263   5.495   4.247   7.301 -1.5373  0.8287 -0.4733
10264SOL     OW43264   5.548   8.262   0.048 -0.1409  0.1865  0.1563
10264SOL    HW143265   5.515   8.328  -0.018  0.0779  0.1576  0.0171
10264SOL    HW243266   5.635   8.223   0.017 -0.6494 -0.7315 -0.1417
10265SOL     OW43267   8.015   4.715   0.091 -0.2646 -0.6901  0.0484
10265SOL    HW143268   7.965   4.798   0.069 -1.8105 -1.5667  0.2276
10265SOL    HW243269   8.005   4.648   0.017  0.7267 -0.8457  0.0386
10266SOL     OW43270   3.817   3.249   0.321 -0.5715 -0.1302  0.1024
10266SOL    HW143271   3.820   3.255   0.420 -1.5689  0.5794  0.1051
10266SOL    HW243272   3.723   3.231   0.292  0.0181 -2.2354 -0.6348
10267SOL     OW43273   4.698   6.293   6.682  0.6279  0.0898 -0.0391
10267SOL    HW143274   4.776   6.295   6.619  0.2479 -0.8077 -0.5402
10267SOL    HW243275   4.732   6.289   6.776  1.1969  1.6103 -0.1648
10268SOL     OW43276   7.763   6.203   1.670 -0.6929  0.2521  0.2806
10268SOL    HW143277   7.739   6.288   1.718  0.3064  1.2202 -0.8957
10268SOL    HW243278   7.827   6.224   1.596 -0.9893 -1.4437 -0.4684
10269SOL     OW43279   1.160   7.112   8.142  0.1010 -0.4583  0.7649
10269SOL    HW143280   1.213   7.028   8.127  0.1042 -0.3272  0.0261
10269SOL    HW243281   1.077   7.109   8.086 -1.3156 -1.2301  2.8417
10270SOL     OW43282   2.752   8.249   1.662  0.4552 -0.8379  0.1014
10270SOL    HW143283   2.837   8.299   1.676  0.2377 -0.3550 -0.3021
10270SOL    HW243284   2.768   8.151   1.676  1.4254 -0.9146 -1.4739
10271SOL     OW43285   6.742   6.260   4.517 -0.1901 -0.8210  0.6346
10271SOL    HW143286   6.752   6.354   4.484 -0.4534 -1.1109 -0.3066
10271SOL    HW243287   6.645   6.238   4.526 -0.2607 -2.1148 -2.5474
10272SOL     OW43288   5.769   2.216   8.680 -0.4271  0.1408  0.3724
10272SOL    HW143289   5.782   2.149   8.607  0.7896  0.5837  0.1708
10272SOL    HW243290   5.774   2.170   8.769  2.8108  0.2757  0.3285
10273SOL     OW43291   4.939   4.979   4.984 -0.3920  0.1421 -0.4013
10273SOL    HW143292   4.941   5.068   5.029 -2.0700 -0.2684  0.4997
10273SOL    HW243293   4.852   4.934   5.001  0.0067 -1.2132 -1.7738
10274SOL     OW43294   0.441   3.974   3.343 -0.0934 -0.1998 -0.0438
10274SOL    HW143295   0.382   3.969   3.423  2.4770  2.1557  2.0798
10274SOL    HW243296   0.440   4.067   3.306  0.3061 -0.7759 -1.5493
10275SOL     OW43297   3.705   4.506   6.650  0.3019  0.0286  0.1426
10275SOL    HW143298   3.779   4.536   6.590 -1.5359 -0.6357 -2.5117
10275SOL    HW243299   3.700   4.567   6.729  1.9342  1.6865 -0.9917
10276SOL     OW43300   1.983   4.239   6.478  0.1918  0.0343 -0.1897
10276SOL    HW143301   2.077   4.267   6.462  0.1726  0.4732  0.4402
10276SOL    HW243302   1.934   4.234   6.391  0.5015  0.8619 -0.4165
10277SOL     OW43303   1.838   7.918   0.479  0.5469  0.1007 -0.8136
10277SOL    HW143304   1.763   7.927   0.413 -0.1954  1.9304  0.2434
10277SOL    HW243305   1.825   7.836   0.534 -0.8440  0.5500 -0.4598
10278SOL     OW43306   5.445   3.599   5.719 -0.3914 -0.5808 -0.1633
10278SOL    HW143307   5.393   3.514   5.721  0.0209 -0.8707 -1.4556
10278SOL    HW243308   5.472   3.620   5.625 -0.5643  1.0245  0.1277
10279SOL     OW43309   4.163   1.797   0.754 -0.1829 -0.1356 -0.0211
10279SOL    HW143310   4.172   1.888   0.794 -1.5511  0.5707 -1.2511
10279SOL    HW243311   4.109   1.739   0.816 -1.1291  0.5403 -0.1914
10280SOL     OW43312   4.576   2.732   0.443 -0.1698  0.0406 -0.6799
10280SOL    HW143313   4.580   2.685   0.354 -0.1868 -0.1058 -0.6035
10280SOL    HW243314   4.488   2.714   0.486  0.1539 -0.5790 -0.2573
10281SOL     OW43315   2.880   4.173   8.340 -0.6191 -0.5681 -0.6095
10281SOL    HW143316   2.979   4.176   8.358 -0.3379 -1.3911 -1.9134
10281SOL    HW243317   2.851   4.078   8.330 -1.7473 -0.3884  0.7114
10282SOL     OW43318   5.286   6.771   3.172  0.3002  0.1364 -0.4506
10282SOL    HW143319   5.372   6.740   3.214  0.6061  0.1708 -1.0542
10282SOL    HW243320   5.304   6.804   3.080 -0.4040 -0.0901 -0.6690
10283SOL     OW43321   6.746   4.161   5.868 -1.0125 -0.2507 -0.0964
10283SOL    HW143322   6.722   4.104   5.948  1.7463  0.5153  1.3452
10283SOL    HW243323   6.775   4.102   5.793  1.6442 -0.8637  1.3267
10284SOL     OW43324   4.749   8.426   6.119  0.6776 -0.0606  0.6539
10284SOL    HW143325   4.655   8.433   6.151  0.5226 -0.4531  0.2793
10284SOL    HW243326   4.812   8.443   6.195  0.3128 -1.0786  1.1765
10285SOL     OW43327   8.333   7.757   6.238 -0.3514 -0.8128 -0.4422
10285SOL    HW143328   8.286   7.790   6.319  0.3753 -1.0174  0.0676
10285SOL    HW243329   8.267   7.747   6.163 -0.7593  0.7975 -0.3169
10286SOL     OW43330   4.023   8.258   7.372 -0.2999  0.0233  0.2678
10286SOL    HW143331   3.960   8.213   7.435 -0.6518  0.5821  0.3154
10286SOL    HW243332   4.098   8.299   7.423  1.0973 -2.2073  0.0720
10287SOL     OW43333   6.441   3.101   6.001  0.8694 -0.1856 -0.5093
10287SOL    HW143334   6.540   3.101   6.017  0.8388 -1.6306 -0.2849
10287SOL    HW243335   6.418   3.029   5.937 -0.0022  0.4398 -0.9133
10288SOL     OW43336   1.247   6.516   3.176 -0.3863 -0.1791 -0.4936
10288SOL    HW143337   1.158   6.539   3.215 -1.1408 -1.5669 -1.3810
10288SOL    HW243338   1.235   6.453   3.099  1.1931  1.3946 -2.0638
10289SOL     OW43339   5.843   8.722   8.143 -0.0616 -0.1244  0.4494
10289SOL    HW143340   5.940   8.743   8.144 -0.0291 -0.1847 -0.8562
10289SOL    HW243341   5.830   8.624   8.164 -0.0008  0.3625  2.9094
10290SOL     OW43342   8.354   1.820   6.070 -0.1922  0.3435  0.3723
10290SOL    HW143343   8.438   1.775   6.100  0.4336 -0.4869 -2.4362
10290SOL    HW243344   8.280   1.753   6.069 -0.2202  0.3776  0.1177
10291SOL     OW43345   3.365   4.014   0.841 -0.6729 -0.4498 -0.2482
10291SOL    HW143346   3.376   4.099   0.892 -0.7176 -0.4598 -0.2232
10291SOL    HW243347   3.293   4.025   0.772 -0.3334 -0.3062 -0.5820
10292SOL     OW43348   5.260   3.080   7.720  0.3355 -0.2027  0.3933
10292SOL    HW143349   5.343   3.131   7.743 -0.2540  2.1326 -2.3621
10292SOL    HW243350   5.190   3.096   7.789  0.8623  1.0348  0.6454
10293SOL     OW43351   4.219   5.124   8.071 -0.1994 -0.4538 -0.2103
10293SOL    HW143352   4.255   5.175   7.993 -3.0325  0.1345 -1.2117
10293SOL    HW243353   4.173   5.041   8.038 -0.8036 -0.5691  0.8964
10294SOL     OW43354   6.985   3.199   1.682 -0.2593  0.0750 -0.6461
10294SOL    HW143355   6.998   3.297   1.667 -0.5215  0.4059  1.1811
10294SOL    HW243356   7.073   3.152   1.673 -0.3148  0.3010 -2.6381
10295SOL     OW43357   7.723   3.131   2.747 -0.6138  0.1486 -0.5102
10295SOL    HW143358   7.732   3.103   2.842 -1.0800 -0.6040 -0.6896
10295SOL    HW243359   7.632   3.168   2.732 -0.5276  0.3020 -0.6592
10296SOL     OW43360   4.119   7.224   7.018  0.0609  0.0475  0.1516
10296SOL    HW143361   4.188   7.279   6.973 -0.0338  1.1041  1.2640
10296SOL    HW243362   4.108   7.137   6.970  1.2085  0.4216 -0.7932
10297SOL     OW43363   2.305   3.751   8.619  0.3135 -0.1469 -0.2986
10297SOL    HW143364   2.345   3.664   8.589 -0.0916  0.0595 -1.4843
10297SOL    HW243365   2.358   3.826   8.580 -0.6587  0.1300 -1.1152
10298SOL     OW43366   2.358   6.537   4.434 -0.3480  0.2558 -0.9087
10298SOL    HW143367   2.345   6.487   4.520 -0.0797 -0.4027 -1.2427
10298SOL    HW243368   2.421   6.613   4.449  0.1964 -0.2331 -0.6554
10299SOL     OW43369   2.240   2.394   8.451  0.8803  0.0343  0.3301
10299SOL    HW143370   2.220   2.478   8.400 -0.0742  0.2771  1.0919
10299SOL    HW243371   2.193   2.318   8.407  0.6948  0.1150  0.3874
10300SOL     OW43372   3.168   1.344   4.368  0.2181  0.4158  0.1123
10300SOL    HW143373   3.169   1.263   4.310 -0.4094  0.7051 -0.3030
10300SOL    HW243374   3.232   1.412   4.332 -1.2629  1.1920 -1.1081
10301SOL     OW43375   6.512   1.316   1.102  0.4219 -0.5250  0.1598
10301SOL    HW143376   6.598   1.344   1.146  0.8243 -0.2806 -0.7860
10301SOL    HW243377   6.514   1.217   1.086  0.5186 -0.5224  0.1558
10302SOL     OW43378   0.752   0.260   6.858  0.2376  0.5934  0.0170
10302SOL    HW143379   0.716   0.232   6.769  0.1813  1.6705 -0.3078
10302SOL    HW243380   0.846   0.229   6.867  0.6280  1.4528 -0.9021
10303SOL     OW43381   7.979   8.279   7.448  0.1031  0.1930 -0.4548
10303SOL    HW143382   7.904   8.223   7.484  1.0438 -0.8306 -0.0867
10303SOL    HW243383   7.996   8.254   7.353 -1.3141  1.7892 -1.1596
10304SOL     OW43384   4.454   2.996   0.235  0.4882 -0.0951  0.2594
10304SOL    HW143385   4.549   3.008   0.208  0.1472 -1.1584 -1.5174
10304SOL    HW243386   4.435   3.051   0.316  2.5957  0.1482  0.6153
10305SOL     OW43387   0.756   4.022   1.824  0.0901 -0.0566  0.0158
10305SOL    HW143388   0.790   4.086   1.893  2.3132  0.4330 -1.4776
10305SOL    HW243389   0.832   3.966   1.790 -1.3590 -1.7358 -0.5366
10306SOL     OW43390   4.387   4.072   1.943  0.4520 -0.0137  0.3665
10306SOL    HW143391   4.375   4.130   2.024  0.0594 -0.1844  0.4285
10306SOL    HW243392   4.298   4.053   1.903  0.4976 -1.3729  0.8993
10307SOL     OW43393   3.014   1.904   6.609 -0.5524  0.4943  0.5785
10307SOL    HW143394   3.006   1.805   6.611 -0.8636  0.4683 -1.1048
10307SOL    HW243395   3.094   1.930   6.555 -1.1485  1.1750  0.0160
10308SOL     OW43396   3.579   0.807   3.632  0.0922  0.3845 -0.9323
10308SOL    HW143397   3.539   0.802   3.541  1.1860 -1.8444 -1.3068
10308SOL    HW243398   3.509   0.784   3.700 -0.4788  1.1535 -1.2471
10309SOL     OW43399   5.202   1.068   7.132 -0.2532  0.5142 -0.1052
10309SOL    HW143400   5.169   0.974   7.133 -0.7877  0.6793 -1.0402
10309SOL    HW243401   5.302   1.069   7.135 -0.2080 -0.1172 -1.1148
10310SOL     OW43402   3.286   5.184   4.026  0.4216 -0.0763 -0.3513
10310SOL    HW143403   3.368   5.146   3.983 -1.2244 -0.3169 -3.4119
10310SOL    HW243404   3.250   5.119   4.092  3.3447  0.5452  1.9258
10311SOL     OW43405   6.838   3.852   7.163  0.2268  0.0105 -0.6616
10311SOL    HW143406   6.759   3.897   7.122 -0.2875 -0.9413 -0.7081
10311SOL    HW243407   6.811   3.805   7.246  0.5736 -1.0167 -1.1221
10312SOL     OW43408   0.432   8.027   7.725  0.4708  0.1646  0.6581
10312SOL    HW143409   0.335   8.004   7.711  0.3733 -1.3655  3.3704
10312SOL    HW243410   0.453   8.023   7.823  3.2101  0.7819  0.1358
10313SOL     OW43411   4.920   8.486   6.345  0.2963 -0.1824 -0.4498
10313SOL    HW143412   4.881   8.510   6.434 -0.3141 -0.9881 -0.4957
10313SOL    HW243413   5.014   8.454   6.358  0.4645  0.4033 -0.1821
10314SOL     OW43414   0.375   1.091   8.208 -0.4794 -0.4524 -0.0468
10314SOL    HW143415   0.290   1.091   8.261 -0.4472 -1.3677  0.0060
10314SOL    HW243416   0.380   1.176   8.155 -3.1339 -1.8160 -2.7016
10315SOL     OW43417   7.845   8.907   7.713 -0.7055  0.5430 -0.1915
10315SOL    HW143418   7.843   8.991   7.768 -0.7514 -0.4603  1.3581
10315SOL    HW243419   7.841   8.931   7.616 -0.4690  2.3479  0.2265
10316SOL     OW43420   8.123   0.448   0.738 -0.0777 -0.2995  0.1073
10316SOL    HW143421   8.217   0.445   0.771 -0.3197 -1.2596  0.7444
10316SOL    HW243422   8.123   0.453   0.639  0.6610 -3.2176 -0.0871
10317SOL     OW43423   5.437   1.579   6.749  0.4010 -0.1974 -0.4140
10317SOL    HW143424   5.345   1.555   6.720 -0.4496  0.5113  1.5620
10317SOL    HW243425   5.449   1.678   6.740  1.3929 -0.4352 -1.7880
10318SOL     OW43426   3.629   4.791   3.133  0.1732 -0.0485  0.2305
10318SOL    HW143427   3.676   4.859   3.189 -0.2569  0.8426 -0.4766
10318SOL    HW243428   3.586   4.723   3.193  0.2724  0.5218  0.9624
10319SOL     OW43429   4.008   2.971   5.668  0.0334 -0.3666 -0.5493
10319SOL    HW143430   3.988   3.061   5.630 -1.0985 -0.4792 -0.2300
10319SOL    HW243431   4.108   2.959   5.675  0.1725  1.1436  0.1316
10320SOL     OW43432   2.027   6.830   6.700 -0.1967  0.0347  0.0133
10320SOL    HW143433   2.050   6.773   6.622 -2.6583  0.3699 -1.0121
10320SOL    HW243434   2.027   6.775   6.783  2.4047 -0.3286 -0.2134
10321SOL     OW43435   2.505   0.661   1.478  0.0444  0.4857 -0.3395
10321SOL    HW143436   2.474   0.603   1.554 -0.7678 -0.3846 -1.3045
10321SOL    HW243437   2.431   0.723   1.452  0.9228  2.0212  0.7099
10322SOL     OW43438   0.823   1.184   8.430  0.2324 -0.5166 -0.6508
10322SOL    HW143439   0.844   1.280   8.409  0.3230 -0.4958 -0.4734
10322SOL    HW243440   0.726   1.175   8.449  0.7828  0.2673  3.0197
10323SOL     OW43441   2.078   0.174   3.557  0.4402 -0.0340 -0.4885
10323SOL    HW143442   2.095   0.124   3.641 -1.3901 -0.3626 -0.2916
10323SOL    HW243443   2.007   0.243   3.573 -1.3410 -1.3922 -2.1791
10324SOL     OW43444   8.827   5.498   6.920 -0.9643 -0.3624  0.0395
10324SOL    HW143445   8.780   5.427   6.868 -0.3316 -1.0635  0.4269
10324SOL    HW243446   8.926   5.492   6.903 -0.9178  0.5056 -0.0344
10325SOL     OW43447   0.794   8.576   7.140 -0.2958  0.2472 -0.2243
10325SOL    HW143448   0.885   8.614   7.120 -1.1709  2.0073 -0.9556
10325SOL    HW243449   0.730   8.651   7.158 -1.9187 -0.9167 -1.0395
10326SOL     OW43450   0.330   7.818   4.106  0.1145 -0.0590 -0.2404
10326SOL    HW143451   0.400   7.764   4.059 -0.1673 -0.9726  0.3595
10326SOL    HW243452   0.243   7.769   4.104 -0.4362  0.9337 -0.7210
10327SOL     OW43453   6.050   2.104   8.771 -0.2655  0.4328  0.3236
10327SOL    HW143454   6.018   2.092   8.676 -3.0127  1.0665  1.1207
10327SOL    HW243455   5.988   2.056   8.833  1.6734 -0.2187  1.8139
10328SOL     OW43456   2.277   4.287   0.662  0.2341  0.0870 -0.7577
10328SOL    HW143457   2.305   4.352   0.732 -2.5206  0.0615  0.4396
10328SOL    HW243458   2.266   4.334   0.574 -0.8579  1.0539 -0.1054
10329SOL     OW43459   7.197   7.733   7.234 -0.4779 -0.6192  0.1807
10329SOL    HW143460   7.239   7.732   7.144  0.4435 -2.0608  0.5991
10329SOL    HW243461   7.169   7.640   7.259 -0.3194 -0.3202  1.5462
10330SOL     OW43462   2.886   7.367   3.541 -0.9186 -0.7229  0.1766
10330SOL    HW143463   2.846   7.410   3.622 -1.1117 -1.6105  0.5582
10330SOL    HW243464   2.818   7.364   3.468 -0.6801  0.2645 -0.0853
10331SOL     OW43465   4.737   3.793   1.673  0.5935 -0.3848 -0.1218
10331SOL    HW143466   4.826   3.797   1.719  1.2997 -0.7813 -1.4343
10331SOL    HW243467   4.745   3.832   1.581 -0.9796  1.1037  0.3430
10332SOL     OW43468   0.028   4.777   7.433  0.7339 -0.5814  0.5278
10332SOL    HW143469   0.099   4.772   7.503  0.3938  3.5694  1.3119
10332SOL    HW243470   0.029   4.869   7.392 -3.8309 -0.5910  0.1905
10333SOL     OW43471   5.588   2.097   6.859 -0.1150  0.3728  0.8440
10333SOL    HW143472   5.632   2.007   6.854  0.5845  0.7770 -0.3833
10333SOL    HW243473   5.571   2.120   6.955  1.3416 -0.2820  1.2702
10334SOL     OW43474   3.031   3.440   8.172 -0.0209  0.2967 -0.0808
10334SOL    HW143475   2.972   3.414   8.248 -0.2210  3.2084  0.8335
10334SOL    HW243476   3.110   3.491   8.207  0.8271  0.1169 -1.6763
10335SOL     OW43477   3.731   7.445   5.963 -0.5857  0.0787  0.1488
10335SOL    HW143478   3.786   7.529   5.961 -3.0158  1.6946 -0.2725
10335SOL    HW243479   3.791   7.367   5.984  2.3224  1.4092 -2.6626
10336SOL     OW43480   2.840   2.201   5.413  0.0659 -0.3408 -0.5819
10336SOL    HW143481   2.764   2.151   5.454  1.4303 -1.1928  0.9543
10336SOL    HW243482   2.848   2.291   5.456  0.3463 -0.5101 -0.2822
10337SOL     OW43483   4.268   2.263   5.975 -0.0206 -0.8751 -0.4957
10337SOL    HW143484   4.207   2.273   5.898 -0.1983  0.4564 -0.2017
10337SOL    HW243485   4.218   2.229   6.054 -0.1917 -0.6655 -0.5139
10338SOL     OW43486   2.326   4.706   4.638  0.0317  0.2302  0.0567
10338SOL    HW143487   2.385   4.740   4.565  0.1555 -0.9088 -0.3874
10338SOL    HW243488   2.290   4.783   4.691  0.6365  1.0130 -0.6617
10339SOL     OW43489   3.369   1.871   2.680 -0.4471  0.4567  0.0041
10339SOL    HW143490   3.460   1.889   2.643 -0.9448  1.5115 -0.7369
10339SOL    HW243491   3.300   1.901   2.614 -1.3315 -0.0201  0.7059
10340SOL     OW43492   6.443   5.618   2.082 -0.8645  0.6419 -0.6201
10340SOL    HW143493   6.414   5.593   2.174  1.1183  0.5732  0.0231
10340SOL    HW243494   6.371   5.670   2.036 -2.4276 -0.5437  0.4417
10341SOL     OW43495   1.948   3.895   4.789  0.0894 -0.2369  0.3029
10341SOL    HW143496   2.001   3.912   4.706  1.3091 -0.2591  1.0485
10341SOL    HW243497   1.909   3.803   4.785  0.7737 -0.5245  0.0765
10342SOL     OW43498   5.262   8.654   8.782 -0.1564 -0.1544  0.4573
10342SOL    HW143499   5.337   8.589   8.774 -0.8265 -1.1662  2.1665
10342SOL    HW243500   5.214   8.640   8.869 -2.0756  0.7306 -0.4103
10343SOL     OW43501   2.533   8.749   1.802 -0.6017 -0.4470 -0.4464
10343SOL    HW143502   2.573   8.767   1.713  2.0608  1.6900  1.0875
10343SOL    HW243503   2.540   8.651   1.823  1.0898 -0.5740 -1.5362
10344SOL     OW43504   8.495   8.097   2.949 -0.0087  0.2309  0.5488
10344SOL    HW143505   8.401   8.110   2.917 -0.1602  0.8659  1.2474
10344SOL    HW243506   8.548   8.180   2.933  1.0390 -0.8382 -1.8417
10345SOL     OW43507   8.696   6.958   3.196 -0.2879 -0.3274  0.7708
10345SOL    HW143508   8.669   6.874   3.148  0.4810 -0.8624  1.2618
10345SOL    HW243509   8.793   6.976   3.179 -0.2045 -0.0910  1.4796
10346SOL     OW43510   5.248   6.768   1.283  0.0468  0.2330  0.3737
10346SOL    HW143511   5.331   6.716   1.265 -0.6645 -0.2292 -1.7191
10346SOL    HW243512   5.168   6.713   1.259 -0.8027  1.3061  0.6948
10347SOL     OW43513   3.311   2.705   1.288 -0.2491  0.3946  0.5597
10347SOL    HW143514   3.397   2.739   1.250 -0.5471  1.7964  1.1309
10347SOL    HW243515   3.244   2.778   1.290 -1.2854 -0.5480  0.6662
10348SOL     OW43516   4.657   2.443   7.899  0.6920 -1.0212 -0.5429
10348SOL    HW143517   4.640   2.380   7.823 -2.2577 -1.3691  0.3398
10348SOL    HW243518   4.609   2.528   7.882  1.7664 -0.3066 -0.0371
10349SOL     OW43519   8.962   5.641   3.744  0.3003 -0.1383 -0.1962
10349SOL    HW143520   8.994   5.726   3.702 -0.4569 -0.0672 -0.6339
10349SOL    HW243521   8.948   5.656   3.842 -0.2235  0.3586 -0.3422
10350SOL     OW43522   2.824   7.911   2.144  0.2047  0.4057 -0.0474
10350SOL    HW143523   2.883   7.839   2.106 -0.1340  0.3701 -0.5042
10350SOL    HW243524   2.729   7.881   2.140 -0.0660  1.4078 -1.4528
10351SOL     OW43525   2.811   2.788   2.145 -0.2865 -0.1359  0.0883
10351SOL    HW143526   2.838   2.717   2.081  2.1802  1.4507 -0.7296
10351SOL    HW243527   2.852   2.770   2.234 -0.5455 -0.3241  0.1671
10352SOL     OW43528   0.945   1.699   5.739  0.3296  0.4765 -0.0922
10352SOL    HW143529   0.919   1.770   5.674 -0.1864 -0.4001 -0.8512
10352SOL    HW243530   1.045   1.699   5.749  0.3170  1.4271  0.0549
10353SOL     OW43531   7.189   2.558   8.623 -0.3398 -0.1228 -0.0187
10353SOL    HW143532   7.204   2.651   8.590 -0.2701 -0.1823 -0.1573
10353SOL    HW243533   7.236   2.546   8.711  1.1268 -0.5408 -0.8267
10354SOL     OW43534   4.317   8.241   2.181 -0.2847 -0.6516  0.2136
10354SOL    HW143535   4.291   8.325   2.133 -0.3709 -0.8160 -0.0305
10354SOL    HW243536   4.235   8.198   2.218 -0.7793 -2.6579 -2.9852
10355SOL     OW43537   8.648   0.703   6.113  0.1168 -0.0550 -0.0063
10355SOL    HW143538   8.614   0.613   6.140 -0.5814  0.0850 -0.4246
10355SOL    HW243539   8.573   0.768   6.111  0.4363  0.3004 -0.7144
10356SOL     OW43540   3.795   1.121   7.671  0.0993  0.3557  0.4164
10356SOL    HW143541   3.837   1.133   7.761  0.6898 -0.3508  0.2390
10356SOL    HW243542   3.736   1.040   7.672  0.6282 -0.0397 -0.0136
10357SOL     OW43543   6.533   7.332   8.844 -0.4890 -0.7439 -0.0802
10357SOL    HW143544   6.466   7.273   8.889  1.1231 -0.1152  3.3215
10357SOL    HW243545   6.609   7.351   8.907  0.5671  2.4192 -2.1632
10358SOL     OW43546   8.033   4.587   5.495  0.4339 -0.2146 -0.4851
10358SOL    HW143547   7.976   4.604   5.576 -2.6374  1.2869 -2.8778
10358SOL    HW243548   8.109   4.653   5.493  2.3335 -2.1758  2.6855
10359SOL     OW43549   8.182   5.207   4.783 -0.6100  0.0733 -0.4853
10359SOL    HW143550   8.214   5.137   4.847 -1.6812 -1.0733 -1.1805
10359SOL    HW243551   8.107   5.171   4.729 -0.1356  1.2408 -1.9671
10360SOL     OW43552   0.268   8.428   7.168 -1.0045  0.1182 -0.3722
10360SOL    HW143553   0.328   8.360   7.126 -0.0167  1.3900 -1.0755
10360SOL    HW243554   0.187   8.383   7.207 -1.2023 -1.2533 -2.3232
10361SOL     OW43555   7.211   7.063   0.305 -0.2336  0.0869  0.3529
10361SOL    HW143556   7.141   7.022   0.364  0.1782  0.2295  0.9458
10361SOL    HW243557   7.218   7.161   0.323  0.3791  0.0101  0.5712
10362SOL     OW43558   5.542   2.032   2.957 -0.3087 -0.1025  0.5228
10362SOL    HW143559   5.465   1.975   2.930 -0.2579 -1.0220  2.2847
10362SOL    HW243560   5.513   2.099   3.025 -0.0607  1.0987 -0.5313
10363SOL     OW43561   2.826   8.271   6.928  0.4848 -0.0355 -0.4109
10363SOL    HW143562   2.753   8.217   6.885 -0.1216 -0.9161  1.6587
10363SOL    HW243563   2.787   8.356   6.963  0.1906 -0.9417  1.5677
10364SOL     OW43564   6.234   2.981   5.703  0.1734 -0.1394 -0.1470
10364SOL    HW143565   6.153   2.955   5.649 -0.2044  1.0756 -0.1910
10364SOL    HW243566   6.310   2.999   5.641 -0.2121  1.0860 -0.2929
10365SOL     OW43567   5.831   6.753   2.060 -0.0620 -0.1872  0.4779
10365SOL    HW143568   5.737   6.754   2.026 -0.1958 -1.7154  0.7583
10365SOL    HW243569   5.832   6.783   2.155 -0.0846  1.1130  0.0776
10366SOL     OW43570   2.464   2.930   4.056  0.1009  0.6299 -0.0021
10366SOL    HW143571   2.471   2.911   3.958  1.1535  1.4118 -0.0798
10366SOL    HW243572   2.553   2.957   4.092 -0.4177  1.0027  1.0371
10367SOL     OW43573   8.863   4.748   4.600 -0.0876  0.4659 -0.6065
10367SOL    HW143574   8.822   4.688   4.531 -1.0168  2.5154 -1.9014
10367SOL    HW243575   8.794   4.775   4.666  0.8356 -1.6030  1.2536
10368SOL     OW43576   5.446   7.009   1.015 -0.2089  0.1256 -0.1781
10368SOL    HW143577   5.346   7.005   1.015 -0.1597 -1.3648  0.3782
10368SOL    HW243578   5.475   7.100   0.988 -1.7265  0.8920  0.7289
10369SOL     OW43579   7.653   3.095   5.663  0.6507  0.4929  0.1894
10369SOL    HW143580   7.578   3.081   5.597 -1.3111  1.2645  2.1956
10369SOL    HW243581   7.668   3.011   5.714 -0.1820  0.8823  1.1021
10370SOL     OW43582   4.641   3.072   1.594 -0.0453  0.5361  0.6057
10370SOL    HW143583   4.710   3.077   1.523 -0.1204 -1.4480  0.3551
10370SOL    HW243584   4.563   3.017   1.561 -0.4721  0.3572  1.8770
10371SOL     OW43585   6.415   5.877   6.027  0.2051  0.1973 -0.1366
10371SOL    HW143586   6.358   5.907   5.951 -1.7677  3.3442  2.4359
10371SOL    HW243587   6.368   5.805   6.078 -0.1382  0.6800  0.2327
10372SOL     OW43588   6.547   7.878   7.130  0.0156  0.5707  0.0137
10372SOL    HW143589   6.596   7.955   7.089 -1.0051  0.1369 -2.0418
10372SOL    HW243590   6.613   7.810   7.162  0.8111  0.7964 -1.1323
10373SOL     OW43591   5.377   4.294   1.270  0.5787  0.2113 -0.1419
10373SOL    HW143592   5.438   4.228   1.227  1.5593 -0.4442  2.1994
10373SOL    HW243593   5.429   4.353   1.331 -0.9556  0.2935  1.1193
10374SOL     OW43594   1.502   5.855   6.183  0.0645  0.3443 -0.2408
10374SOL    HW143595   1.454   5.908   6.252  0.0459 -0.4758  0.3890
10374SOL    HW243596   1.597   5.887   6.176  0.0095  0.5637  0.0251
10375SOL     OW43597   4.500   6.860   7.863 -0.0943 -0.0611  0.0922
10375SOL    HW143598   4.417   6.884   7.914 -0.2063 -1.0520  0.3809
10375SOL    HW243599   4.538   6.942   7.820 -0.6811  0.5657  0.7681
10376SOL     OW43600   1.980   3.637   2.770 -0.5351 -0.4152  0.2365
10376SOL    HW143601   2.031   3.690   2.702  0.4724 -1.0916  0.4613
10376SOL    HW243602   1.885   3.668   2.771 -0.4201  0.0120 -1.0515
10377SOL     OW43603   6.602   2.963   7.091 -0.4374  0.0369 -0.5632
10377SOL    HW143604   6.668   2.962   7.016  1.1583 -0.4835  0.8097
10377SOL    HW243605   6.528   2.898   7.071  1.0737 -1.6713 -0.7543
10378SOL     OW43606   3.759   4.411   5.239  0.1615  0.0552 -0.3466
10378SOL    HW143607   3.823   4.399   5.164  2.1413  0.7746  1.1918
10378SOL    HW243608   3.778   4.497   5.286 -0.6053 -0.7139  1.4127
10379SOL     OW43609   8.123   2.287   7.159 -0.0535 -0.0497 -0.1639
10379SOL    HW143610   8.058   2.332   7.099  0.3299 -0.3522 -0.8070
10379SOL    HW243611   8.165   2.209   7.112 -1.2785 -1.5755  1.1856
10380SOL     OW43612   6.635   7.585   8.185  0.5602  0.5841 -0.3793
10380SOL    HW143613   6.688   7.656   8.137  0.6922  0.4923 -0.3683
10380SOL    HW243614   6.543   7.620   8.205  0.9296  1.0799  0.4538
10381SOL     OW43615   8.335   6.619   2.258  0.7568  0.1081 -0.2370
10381SOL    HW143616   8.315   6.717   2.262 -0.6262 -0.2270  1.5683
10381SOL    HW243617   8.251   6.567   2.270  1.5870 -1.3140 -0.4538
10382SOL     OW43618   4.999   1.663   2.696  0.1360  0.1584  0.6167
10382SOL    HW143619   4.976   1.621   2.609 -0.6260 -0.9063  1.3122
10382SOL    HW243620   4.920   1.715   2.730 -0.2382 -1.0104  1.5746
10383SOL     OW43621   7.631   6.938   1.121 -0.3793 -0.3806 -0.3863
10383SOL    HW143622   7.619   6.852   1.170 -0.6275  0.1116  0.4300
10383SOL    HW243623   7.728   6.953   1.103 -0.3697 -1.0212 -0.8859
10384SOL     OW43624   4.188   0.553   5.941 -0.7111  0.3082  0.4022
10384SOL    HW143625   4.173   0.565   5.843 -0.5339 -1.1223  0.1907
10384SOL    HW243626   4.120   0.490   5.978  1.2837 -1.8669  0.5080
10385SOL     OW43627   5.318   7.535   1.258 -0.8301 -0.5203 -0.3046
10385SOL    HW143628   5.254   7.587   1.202  1.0792  0.0248 -2.0090
10385SOL    HW243629   5.349   7.592   1.334 -1.3759 -0.3628 -0.1939
10386SOL     OW43630   4.396   8.646   6.337 -0.4886 -0.4737 -0.6115
10386SOL    HW143631   4.463   8.657   6.410 -1.1880 -1.3860  0.1855
10386SOL    HW243632   4.304   8.658   6.375 -0.7930  0.5947 -1.6553
10387SOL     OW43633   3.864   4.976   7.849  0.2281 -0.4651 -0.0593
10387SOL    HW143634   3.903   5.032   7.776  0.4678  0.0863  0.4901
10387SOL    HW243635   3.878   4.880   7.828  0.9762 -0.2925 -0.3620
10388SOL     OW43636   3.175   0.736   3.615  0.9942  0.9712 -0.3665
10388SOL    HW143637   3.177   0.816   3.555 -0.7245  1.2198 -0.1257
10388SOL    HW243638   3.189   0.654   3.560 -1.3510  1.1376 -1.2779
10389SOL     OW43639   2.729   5.625   8.214 -0.6598  0.0280  0.1476
10389SOL    HW143640   2.631   5.635   8.198 -0.6772 -0.0911  0.1778
10389SOL    HW243641   2.771   5.582   8.134 -0.3997  1.3699 -0.4671
10390SOL     OW43642   5.611   3.902   7.523  0.2163 -0.4162 -0.0297
10390SOL    HW143643   5.556   3.840   7.579 -1.1034 -0.2766 -1.1367
10390SOL    HW243644   5.562   3.989   7.513 -0.2410 -0.9140 -2.5149
10391SOL     OW43645   5.145   4.492   6.773  0.1060  0.1563  0.7202
10391SOL    HW143646   5.155   4.502   6.872  0.2198  2.6751  0.4825
10391SOL    HW243647   5.231   4.458   6.735 -0.0817 -1.2618  1.5241
10392SOL     OW43648   0.570   2.701   6.885 -0.4585 -0.2763  0.0168
10392SOL    HW143649   0.583   2.693   6.786 -2.8629 -0.8738 -0.2733
10392SOL    HW243650   0.557   2.797   6.909  0.1649 -0.1265 -0.2476
10393SOL     OW43651   4.897   3.810   5.460  1.1670  0.0129  0.6425
10393SOL    HW143652   4.958   3.880   5.496  0.0725  0.8359  0.9162
10393SOL    HW243653   4.806   3.822   5.499 -0.1687  1.2041 -2.7097
10394SOL     OW43654   3.653   1.466   4.944 -0.3291 -0.0158  0.5934
10394SOL    HW143655   3.597   1.547   4.925  0.5219  0.9260  1.9778
10394SOL    HW243656   3.612   1.386   4.900 -2.4834  0.7307  1.1583
10395SOL     OW43657   5.120   6.398   3.343  0.7148  0.2798  0.2783
10395SOL    HW143658   5.070   6.437   3.421  1.0515 -0.6027  0.9393
10395SOL    HW243659   5.117   6.462   3.266 -1.1732  0.3595  0.4077
10396SOL     OW43660   8.798   4.986   8.011  0.0366  0.2780 -0.3354
10396SOL    HW143661   8.788   4.907   8.072 -1.3665  0.5480 -0.2023
10396SOL    HW243662   8.737   4.976   7.933  0.6217  0.7290 -0.8543
10397SOL     OW43663   3.873   7.071   7.835  0.3146 -0.3625 -0.0106
10397SOL    HW143664   3.830   7.108   7.918 -1.2249 -0.8186 -0.5783
10397SOL    HW243665   3.808   7.010   7.789  1.4518 -0.7465 -1.1252
10398SOL     OW43666   4.159   1.033   4.964  0.5007  0.7944 -0.2719
10398SOL    HW143667   4.141   1.111   5.024  1.9794  0.2680  0.8887
10398SOL    HW243668   4.080   1.019   4.904 -0.0237  2.8226 -0.1221
10399SOL     OW43669   0.968   2.109   0.454 -0.0077 -0.1306  0.2798
10399SOL    HW143670   0.976   2.069   0.363 -2.4569  1.8198 -0.8337
10399SOL    HW243671   0.966   2.035   0.522  3.0088 -1.5578 -1.0809
10400SOL     OW43672   7.076   1.820   8.552 -0.0893 -0.3153 -0.4486
10400SOL    HW143673   7.081   1.745   8.487  1.8031 -0.7909  0.2342
10400SOL    HW243674   6.991   1.813   8.605  0.3663 -2.3165  0.0316
10401SOL     OW43675   2.210   8.475   7.818 -0.3726 -0.4104 -0.3766
10401SOL    HW143676   2.142   8.524   7.872  2.2866  3.0296 -0.0228
10401SOL    HW243677   2.240   8.394   7.869 -0.6594  0.7072  1.6133
10402SOL     OW43678   4.385   7.977   5.662 -0.5237 -0.4644 -0.4963
10402SOL    HW143679   4.420   8.042   5.729 -2.6353  1.1467 -0.9078
10402SOL    HW243680   4.375   7.887   5.704  1.4959 -0.3276  0.3439
10403SOL     OW43681   6.084   3.010   8.255 -0.6347  0.0834 -0.2589
10403SOL    HW143682   6.091   3.076   8.331 -3.0496  0.6975 -0.5462
10403SOL    HW243683   6.008   2.948   8.272  1.6768 -2.7597  0.0503
10404SOL     OW43684   4.564   7.697   6.044 -0.4716  0.1663 -0.5980
10404SOL    HW143685   4.563   7.598   6.026  0.3942  0.1227 -0.4581
10404SOL    HW243686   4.483   7.722   6.096 -0.2686 -0.6254  0.1123
10405SOL     OW43687   3.020   1.358   0.115  0.0789  0.4526  0.1651
10405SOL    HW143688   2.978   1.268   0.122  2.0545 -0.4148  1.2405
10405SOL    HW243689   3.009   1.407   0.201 -2.1054  1.7877 -0.8206
10406SOL     OW43690   2.890   7.095   6.649  0.2037  0.3306  0.1802
10406SOL    HW143691   2.835   7.016   6.677  1.3883 -0.6232 -0.1112
10406SOL    HW243692   2.866   7.174   6.705 -1.5468 -0.0273 -0.0436
10407SOL     OW43693   5.130   0.368   2.847  0.2750  0.5686 -0.2959
10407SOL    HW143694   5.204   0.307   2.875  0.6490  1.1235 -0.0738
10407SOL    HW243695   5.102   0.425   2.924 -0.0963  0.6553 -0.4936
10408SOL     OW43696   1.238   4.012   2.393  0.4540  0.0701  0.0600
10408SOL    HW143697   1.210   4.079   2.324  0.6121  1.6045  1.4744
10408SOL    HW243698   1.170   4.010   2.466  1.5480  0.2576  1.0877
10409SOL     OW43699   6.952   5.948   4.647  0.1681 -0.1825 -0.2148
10409SOL    HW143700   6.899   5.878   4.695 -0.8577  0.3883 -0.4946
10409SOL    HW243701   6.911   6.038   4.665  1.0310  0.2594 -0.4539
10410SOL     OW43702   5.214   7.113   1.731 -0.5384  0.0876  0.8625
10410SOL    HW143703   5.169   7.026   1.709 -1.0496  0.2106  1.4144
10410SOL    HW243704   5.273   7.140   1.654 -0.5564 -0.6261  0.5925
10411SOL     OW43705   5.430   1.409   0.622  0.1672 -0.0245  0.0618
10411SOL    HW143706   5.462   1.359   0.542 -0.4355 -3.3155  1.7892
10411SOL    HW243707   5.330   1.415   0.619  0.2276  0.9795 -0.0641
10412SOL     OW43708   4.980   8.681   3.606  0.3368  0.5735  0.5141
10412SOL    HW143709   4.951   8.614   3.674  1.4055 -0.3491  0.0627
10412SOL    HW243710   5.038   8.750   3.650  1.9828 -0.6636  0.3383
10413SOL     OW43711   6.119   2.658   8.099  0.3214  0.0021  0.1069
10413SOL    HW143712   6.049   2.605   8.146 -0.0243  0.8500  0.5456
10413SOL    HW243713   6.168   2.715   8.164  2.7748 -2.0248  0.1541
10414SOL     OW43714   7.431   0.244   8.811 -0.0973  0.2707 -0.1066
10414SOL    HW143715   7.434   0.229   8.712  0.3759  1.1564 -0.2350
10414SOL    HW243716   7.458   0.160   8.858 -3.3157 -1.1257 -0.6472
10415SOL     OW43717   5.369   0.974   8.689 -0.0439  0.4976 -0.1442
10415SOL    HW143718   5.331   1.066   8.688 -0.8302  0.1665 -1.0304
10415SOL    HW243719   5.330   0.922   8.765  1.3998  1.2979  1.1798
10416SOL     OW43720   5.177   1.960   8.278  0.1361 -0.0912 -0.1683
10416SOL    HW143721   5.159   1.862   8.275 -0.8023  0.0203  1.3431
10416SOL    HW243722   5.197   1.987   8.372 -0.3413  1.2757 -0.4481
10417SOL     OW43723   5.020   7.230   7.535 -0.7284 -0.6034  0.0417
10417SOL    HW143724   5.086   7.176   7.588  0.2690  0.4193 -0.1313
10417SOL    HW243725   5.023   7.201   7.439 -0.7242 -0.7570  0.0886
10418SOL     OW43726   4.976   4.080   2.438  0.0726  0.1241  0.5333
10418SOL    HW143727   4.881   4.080   2.469 -0.4725 -0.4671 -1.1268
10418SOL    HW243728   5.009   3.986   2.430 -0.4690  0.1583 -2.6539
10419SOL     OW43729   5.827   7.322   7.427 -0.4865 -0.1056 -0.5215
10419SOL    HW143730   5.913   7.365   7.401  1.4855 -3.1040  0.7515
10419SOL    HW243731   5.780   7.289   7.345  0.5967 -0.3042 -1.0735
10420SOL     OW43732   1.762   8.271   6.155  0.2378 -0.4095  0.1958
10420SOL    HW143733   1.749   8.250   6.252  2.9093  2.4911  1.2848
10420SOL    HW243734   1.728   8.363   6.136  0.0963 -0.8067 -1.5293
10421SOL     OW43735   1.156   5.037   7.880  0.0157  0.7035 -0.0562
10421SOL    HW143736   1.233   5.033   7.944 -0.3103  2.2516  0.4552
10421SOL    HW243737   1.166   4.965   7.811  2.3284  1.3722 -0.4617
10422SOL     OW43738   2.003   2.359   3.033  0.3182  0.3812 -0.1371
10422SOL    HW143739   2.006   2.259   3.022  0.6040  0.4076 -0.2917
10422SOL    HW243740   1.912   2.386   3.066  0.8723 -0.1486  1.9142
10423SOL     OW43741   2.227   5.445   8.394 -1.1893 -0.0321  0.8127
10423SOL    HW143742   2.227   5.475   8.489 -0.6536 -0.2171  0.8727
10423SOL    HW243743   2.321   5.430   8.363 -1.2954  0.9997 -0.0532
10424SOL     OW43744   8.847   1.488   0.992 -0.1830 -0.5710  0.4718
10424SOL    HW143745   8.867   1.390   0.989  5.1362  0.3708 -2.8491
10424SOL    HW243746   8.816   1.519   0.902  0.8584  1.2335  0.7034
10425SOL     OW43747   2.546   7.598   3.322 -0.6106 -0.2196 -0.1131
10425SOL    HW143748   2.495   7.612   3.238  0.6414  2.6025 -0.4558
10425SOL    HW243749   2.546   7.683   3.376  1.3941 -0.9666  1.1308
10426SOL     OW43750   2.202   8.321   1.583 -0.1076  0.0797  0.3447
10426SOL    HW143751   2.298   8.325   1.610 -0.9387  0.1224  3.5036
10426SOL    HW243752   2.164   8.414   1.578 -0.3445 -0.0083  0.4905
10427SOL     OW43753   7.463   2.828   7.589 -0.0888 -0.0892  0.1299
10427SOL    HW143754   7.546   2.880   7.571  0.4239 -1.0103 -0.2307
10427SOL    HW243755   7.485   2.749   7.646 -1.2018  1.1854  2.4065
10428SOL     OW43756   4.839   6.279   5.067  0.1879 -0.4777  0.6552
10428SOL    HW143757   4.834   6.378   5.061 -0.3007 -0.4256  1.8962
10428SOL    HW243758   4.935   6.250   5.065  0.3022 -0.0562 -0.6710
10429SOL     OW43759   8.413   4.488   8.140 -0.1730  0.0952  0.3320
10429SOL    HW143760   8.437   4.545   8.061  0.7590 -0.3148  0.3203
10429SOL    HW243761   8.341   4.424   8.114 -0.3751  0.4515  0.0116
10430SOL     OW43762   3.924   6.776   5.519 -0.1922  0.4690  0.1719
10430SOL    HW143763   3.934   6.867   5.560  0.5268  1.2293 -1.6226
10430SOL    HW243764   4.015   6.735   5.506 -0.3920  0.3581 -0.9014
10431SOL     OW43765   7.562   8.146   0.576 -0.1251  0.0043  0.0768
10431SOL    HW143766   7.550   8.209   0.499 -1.6190  0.0817  0.3510
10431SOL    HW243767   7.565   8.197   0.662  1.7271 -0.0661  0.0694
10432SOL     OW43768   0.444   8.884   6.246  0.2165 -0.6723  0.4052
10432SOL    HW143769   0.371   8.864   6.311  0.1637 -0.2680  0.4759
10432SOL    HW243770   0.487   8.971   6.270  1.1561 -1.2227  0.7463
10433SOL     OW43771   4.293   4.952   6.634  0.3263  0.3020 -0.0708
10433SOL    HW143772   4.342   4.949   6.721  1.2535  0.1630 -0.5933
10433SOL    HW243773   4.337   5.017   6.573 -0.8084  1.0091 -0.1621
10434SOL     OW43774   6.872   7.860   7.168 -0.1197  0.0910  0.1743
10434SOL    HW143775   6.802   7.915   7.214 -0.7425 -0.5183 -0.0270
10434SOL    HW243776   6.959   7.869   7.216 -0.2477  1.1438  0.2197
10435SOL     OW43777   8.060   1.442   5.899  0.2986 -0.7261  0.4596
10435SOL    HW143778   7.992   1.462   5.970  1.0860 -0.0332  1.0249
10435SOL    HW243779   8.054   1.346   5.873  0.0826 -1.0077  1.5430
10436SOL     OW43780   1.732   2.222   3.305  0.1936  0.1213 -0.6068
10436SOL    HW143781   1.654   2.260   3.255  1.0559  0.4839 -1.7065
10436SOL    HW243782   1.739   2.124   3.286 -0.7379 -0.1756  0.5066
10437SOL     OW43783   0.620   8.195   6.324  0.7329 -0.7120  0.2347
10437SOL    HW143784   0.697   8.253   6.351  0.9074 -0.8649  0.0658
10437SOL    HW243785   0.649   8.133   6.251  0.7419 -1.5055  0.9040
10438SOL     OW43786   7.702   7.934   0.828 -0.3721 -0.1391 -0.5066
10438SOL    HW143787   7.622   7.898   0.779 -0.3477 -1.2692  0.2551
10438SOL    HW243788   7.678   7.949   0.924  0.5551 -1.3120 -0.0734
10439SOL     OW43789   2.534   3.281   7.673  0.1954 -0.2682  0.8061
10439SOL    HW143790   2.436   3.257   7.674 -0.3151  1.8067  2.0607
10439SOL    HW243791   2.551   3.349   7.601  0.7508 -0.6686  0.5509
10440SOL     OW43792   5.457   5.859   8.644  0.3501 -0.2824 -0.0311
10440SOL    HW143793   5.471   5.863   8.545  0.4715 -0.6192 -0.0306
10440SOL    HW243794   5.530   5.908   8.691 -0.9085  1.8108 -0.1876
10441SOL     OW43795   2.187   0.944   2.687 -0.1052 -0.5269  0.1431
10441SOL    HW143796   2.111   0.882   2.669 -0.2706 -1.1587  2.8754
10441SOL    HW243797   2.151   1.034   2.711  0.0691 -0.2369 -0.6683
10442SOL     OW43798   2.198   1.398   2.612  0.9627 -0.0197 -0.1253
10442SOL    HW143799   2.289   1.358   2.597  0.8439 -0.1733 -0.4574
10442SOL    HW243800   2.151   1.348   2.685  0.0946 -1.7104 -1.7761
10443SOL     OW43801   7.600   7.117   5.056 -0.0513 -0.3581  0.1289
10443SOL    HW143802   7.628   7.049   4.989  0.7586 -1.1147  1.2062
10443SOL    HW243803   7.619   7.209   5.022 -1.8473 -0.6322 -1.6549
10444SOL     OW43804   5.691   7.024   1.791  0.7645 -0.3625  0.5411
10444SOL    HW143805   5.730   6.952   1.734 -0.8690 -1.0593  0.2728
10444SOL    HW243806   5.747   7.038   1.872  1.4096 -1.5200  0.2967
10445SOL     OW43807   7.221   5.117   7.388 -0.7831 -0.2342  0.0651
10445SOL    HW143808   7.130   5.077   7.381 -1.5112  1.2023  1.1476
10445SOL    HW243809   7.278   5.060   7.448 -1.3662 -0.4114  0.4467
10446SOL     OW43810   6.813   0.355   7.352  0.3250 -0.5618 -0.8619
10446SOL    HW143811   6.746   0.421   7.386  1.7801  0.4951  0.0144
10446SOL    HW243812   6.775   0.307   7.273 -1.9138 -0.8270  0.3290
10447SOL     OW43813   6.246   6.767   5.782 -0.7006 -0.4373  0.0350
10447SOL    HW143814   6.202   6.796   5.697  1.1285  1.1254 -0.4252
10447SOL    HW243815   6.259   6.668   5.781 -1.2143 -0.5004 -1.2560
10448SOL     OW43816   1.975   3.074   0.077 -0.2387 -0.0056 -0.2836
10448SOL    HW143817   2.060   3.083   0.026  0.2465  1.2832  0.7081
10448SOL    HW243818   1.988   3.012   0.154 -0.1884  0.1921 -0.1314
10449SOL     OW43819   6.668   2.441   0.011  0.0823  0.5254 -0.1210
10449SOL    HW143820   6.629   2.490  -0.067 -1.1788  1.3287  0.9870
10449SOL    HW243821   6.598   2.431   0.083  1.5013  0.7107  1.3211
10450SOL     OW43822   1.346   4.998   4.925 -0.1876  0.4558  0.1163
10450SOL    HW143823   1.287   4.923   4.895  1.1140 -0.8557  0.7942
10450SOL    HW243824   1.382   5.046   4.845  1.1557 -1.3676 -0.4089
10451SOL     OW43825   7.627   3.354   5.716  1.0261  0.6340 -0.2047
10451SOL    HW143826   7.625   3.256   5.738 -1.6029  1.1485  2.1330
10451SOL    HW243827   7.715   3.392   5.746  1.1587 -0.5651  1.0007
10452SOL     OW43828   6.480   3.665   5.612  0.2110 -0.4226 -0.3374
10452SOL    HW143829   6.452   3.761   5.610  1.1455 -0.1619 -1.3056
10452SOL    HW243830   6.435   3.619   5.688 -1.4407  0.4136 -0.7699
10453SOL     OW43831   8.947   3.904   8.503 -0.1224 -0.4657  0.2420
10453SOL    HW143832   8.927   3.815   8.546  0.4474 -0.9873 -0.5683
10453SOL    HW243833   9.040   3.902   8.465 -1.0469 -0.3965 -2.0369
10454SOL     OW43834   8.920   8.134   7.743  0.0588  0.1957  0.6596
10454SOL    HW143835   8.889   8.214   7.794 -0.9185 -0.2855  0.8419
10454SOL    HW243836   8.918   8.054   7.803 -0.8120 -0.3215 -0.0563
10455SOL     OW43837   2.781   1.950   6.303  0.1883  0.1167 -0.8440
10455SOL    HW143838   2.765   2.003   6.219  2.7854  1.0843 -0.7718
10455SOL    HW243839   2.855   1.885   6.288  0.0540 -0.3495  0.4426
10456SOL     OW43840   2.550   4.013   2.035  0.5256  0.8822  0.4787
10456SOL    HW143841   2.556   3.913   2.042 -1.2939  0.6653 -0.6187
10456SOL    HW243842   2.630   4.055   2.078  1.0271 -1.0263  1.4412
10457SOL     OW43843   1.475   3.109   3.317  0.6610  0.6386  0.1747
10457SOL    HW143844   1.545   3.125   3.248 -1.4956 -0.2015 -2.2865
10457SOL    HW243845   1.469   3.188   3.378  2.5971  1.3802 -0.5552
10458SOL     OW43846   2.564   3.088   6.922  0.6928  0.6078 -0.4738
10458SOL    HW143847   2.470   3.123   6.920  1.0922  1.7637  0.5900
10458SOL    HW243848   2.568   3.007   6.981  0.6901  1.5369  0.8134
10459SOL     OW43849   8.318   8.816   0.065 -0.0711  1.0948 -0.7396
10459SOL    HW143850   8.234   8.763   0.068 -1.3183  3.0481  0.2516
10459SOL    HW243851   8.341   8.837  -0.030 -0.4645  0.2067 -1.0371
10460SOL     OW43852   5.607   3.241   8.693 -0.0455  0.0202  0.4823
10460SOL    HW143853   5.640   3.215   8.602 -1.6271  0.4237 -0.2173
10460SOL    HW243854   5.670   3.308   8.733  0.4611  0.1095 -0.4552
10461SOL     OW43855   6.166   6.115   0.514  0.1470 -0.3090 -0.0541
10461SOL    HW143856   6.202   6.193   0.565 -1.7259  1.4944 -1.3798
10461SOL    HW243857   6.070   6.102   0.536 -0.1891 -0.6934 -1.6553
10462SOL     OW43858   7.857   2.851   7.180 -0.4344 -0.0079 -0.1556
10462SOL    HW143859   7.848   2.817   7.086 -2.3581  0.4811 -0.1705
10462SOL    HW243860   7.906   2.939   7.179 -1.8587  0.7852 -0.8753
10463SOL     OW43861   6.711   6.595   5.158 -0.3180  0.0681  0.0445
10463SOL    HW143862   6.677   6.542   5.235 -1.8794  2.3318  0.9651
10463SOL    HW243863   6.809   6.611   5.169 -0.0804 -1.5244  0.3816
10464SOL     OW43864   7.299   4.961   2.189  0.8799  0.2365  0.2151
10464SOL    HW143865   7.329   4.992   2.279  0.0187  0.5328  0.3948
10464SOL    HW243866   7.259   4.869   2.197  1.7789 -0.1848 -0.0370
10465SOL     OW43867   3.061   1.506   6.133 -0.4446 -0.1947 -0.1202
10465SOL    HW143868   3.004   1.588   6.124  0.4987  0.5053  0.1905
10465SOL    HW243869   3.007   1.425   6.109 -1.6067  0.4426  0.3025
10466SOL     OW43870   0.053   8.986   6.686  0.2661 -0.2487  0.3432
10466SOL    HW143871   0.141   8.952   6.654  0.9821  1.2031  0.7242
10466SOL    HW243872   0.049   9.085   6.675 -0.7397 -0.1207  1.6784
10467SOL     OW43873   5.938   6.886   3.055  0.1336 -0.2138 -0.1825
10467SOL    HW143874   6.000   6.914   2.982 -0.8483 -0.0537 -0.9718
10467SOL    HW243875   5.873   6.818   3.019 -1.2399  0.8918  0.1697
10468SOL     OW43876   5.431   7.280   0.496  0.3177  0.5598  0.0215
10468SOL    HW143877   5.452   7.266   0.400  1.4759  2.5844 -0.0381
10468SOL    HW243878   5.385   7.369   0.508  1.1392  0.8088  1.4612
10469SOL     OW43879   4.808   0.998   3.264  0.4310  0.2327 -0.1457
10469SOL    HW143880   4.713   0.976   3.287  0.4836 -0.8536 -0.9864
10469SOL    HW243881   4.867   0.969   3.339 -0.0240  2.1880  1.0173
10470SOL     OW43882   2.104   4.428   8.550 -0.3791 -0.5459  0.0762
10470SOL    HW143883   2.175   4.498   8.545  0.0102 -0.9146  0.3405
10470SOL    HW243884   2.105   4.386   8.641 -1.7484  0.2838  0.4787
10471SOL     OW43885   7.236   3.983   4.780  0.1451  0.1612 -0.0148
10471SOL    HW143886   7.167   4.037   4.731 -0.5502 -2.0146 -1.5476
10471SOL    HW243887   7.310   3.959   4.716  0.4503 -0.6404  0.6315
10472SOL     OW43888   1.938   3.633   0.509 -0.0648  0.1916 -0.4890
10472SOL    HW143889   1.848   3.594   0.527 -0.1854  1.1312  1.0302
10472SOL    HW243890   1.950   3.643   0.410 -1.7919  0.4045 -0.7079
10473SOL     OW43891   5.944   2.535   8.325  0.3012 -0.3107  0.5287
10473SOL    HW143892   5.878   2.485   8.268  0.7688 -1.2159  0.7718
10473SOL    HW243893   5.941   2.499   8.418 -0.5072  1.2123  1.1064
10474SOL     OW43894   6.212   6.085   4.785  0.1163 -0.3573 -0.5988
10474SOL    HW143895   6.213   6.160   4.718  2.1619  0.3896  0.2237
10474SOL    HW243896   6.267   6.111   4.865 -1.3403 -1.6913  0.8849
10475SOL     OW43897   2.422   7.679   0.633  0.4401  0.2511  0.5726
10475SOL    HW143898   2.491   7.751   0.630  1.8458 -1.0759  0.4768
10475SOL    HW243899   2.451   7.602   0.577 -1.2922 -0.1934  0.2423
10476SOL     OW43900   3.504   0.872   4.213  0.4168 -0.0464 -0.0096
10476SOL    HW143901   3.563   0.950   4.190  0.7462 -0.1006  0.6459
10476SOL    HW243902   3.475   0.880   4.308 -0.8351  0.1078 -0.3862
10477SOL     OW43903   7.746   4.445   5.886 -0.0766 -0.3512 -0.4485
10477SOL    HW143904   7.703   4.519   5.939  2.8777  0.1046  1.4535
10477SOL    HW243905   7.676   4.383   5.852 -2.4876  2.3925 -0.6360
10478SOL     OW43906   5.041   7.483   6.910 -0.0840 -0.7429  0.1243
10478SOL    HW143907   4.974   7.469   6.837 -0.1228 -1.5519  0.3191
10478SOL    HW243908   4.994   7.508   6.994  0.0061  0.9195 -0.3016
10479SOL     OW43909   0.970   6.567   3.228  0.3297  0.0052 -0.1505
10479SOL    HW143910   1.005   6.594   3.317  0.8402 -0.7074 -0.1252
10479SOL    HW243911   0.873   6.591   3.221 -0.1793 -1.5273  1.2771
10480SOL     OW43912   0.489   6.709   7.501  0.2030 -0.5650 -0.5495
10480SOL    HW143913   0.560   6.779   7.508  0.5023 -0.9402  0.2927
10480SOL    HW243914   0.432   6.726   7.421 -1.7887  2.5237  1.4056
10481SOL     OW43915   5.430   2.072   5.693 -0.6831 -0.0790  0.0777
10481SOL    HW143916   5.394   2.097   5.603 -0.3870 -0.0536 -0.0348
10481SOL    HW243917   5.451   1.975   5.695 -1.1267 -0.1713  0.2712
10482SOL     OW43918   8.389   8.743   6.148 -0.4791 -0.0412  0.6658
10482SOL    HW143919   8.389   8.823   6.208  0.5366  0.4186  0.0768
10482SOL    HW243920   8.325   8.757   6.073  2.3745  1.8937 -1.5517
10483SOL     OW43921   4.731   6.508   2.726 -0.2292 -0.4054  0.4880
10483SOL    HW143922   4.731   6.422   2.676 -1.1045 -0.2750  0.2547
10483SOL    HW243923   4.681   6.497   2.812  0.7801 -0.4750  1.0768
10484SOL     OW43924   6.930   7.100   0.564 -0.4711 -0.5667 -0.5949
10484SOL    HW143925   6.911   7.130   0.471  3.5187 -1.1754 -1.6839
10484SOL    HW243926   7.000   7.158   0.605 -0.3818 -1.8225  1.1230
10485SOL     OW43927   6.712   0.207   2.885 -0.2906 -0.2767 -0.0664
10485SOL    HW143928   6.768   0.176   2.808  2.0688  0.0758  1.4760
10485SOL    HW243929   6.693   0.130   2.946 -0.2411 -0.0925  0.1827
10486SOL     OW43930   5.360   6.378   0.584 -0.3568  0.4414 -0.3730
10486SOL    HW143931   5.346   6.467   0.540 -1.5009 -0.3853 -1.7556
10486SOL    HW243932   5.455   6.351   0.574 -0.3064  0.8759 -1.1943
10487SOL     OW43933   3.265   1.158   3.218 -0.5116  0.6763  0.8091
10487SOL    HW143934   3.239   1.254   3.211  0.8178  0.9576 -0.5740
10487SOL    HW243935   3.313   1.130   3.135 -1.7790 -1.4668  0.7662
10488SOL     OW43936   3.599   0.664   4.844 -0.3269  0.1321 -0.1198
10488SOL    HW143937   3.595   0.593   4.914 -2.0357 -0.3251 -0.6557
10488SOL    HW243938   3.581   0.754   4.886  0.2318  0.0554  0.2868
10489SOL     OW43939   8.846   3.835   4.098  0.4505 -0.3556 -0.0325
10489SOL    HW143940   8.881   3.752   4.055  0.4057  0.6578 -2.0931
10489SOL    HW243941   8.909   3.865   4.169  1.9461 -0.5456 -1.2639
10490SOL     OW43942   4.549   7.121   4.547 -0.1566  0.0051 -0.1121
10490SOL    HW143943   4.550   7.176   4.631 -1.4363  1.0488 -0.7491
10490SOL    HW243944   4.621   7.052   4.551  1.5314  1.7727  0.6908
10491SOL     OW43945   4.760   5.639   6.063 -0.3522  0.8288 -0.2847
10491SOL    HW143946   4.803   5.601   6.145 -0.8797  3.0809  1.0750
10491SOL    HW243947   4.661   5.636   6.074 -0.4297  0.6453 -1.0656
10492SOL     OW43948   8.039   0.464   7.180  0.4932 -0.3665 -0.1432
10492SOL    HW143949   8.017   0.474   7.083  1.1265 -0.4736 -0.3012
10492SOL    HW243950   8.097   0.384   7.193  2.0536  0.7729  0.0631
10493SOL     OW43951   5.868   5.433   3.662  0.1862  0.0981  0.4249
10493SOL    HW143952   5.890   5.425   3.564  2.6327  1.7879  0.8288
10493SOL    HW243953   5.815   5.516   3.677  0.2978  0.1288  0.6352
10494SOL     OW43954   7.724   8.785   2.088  0.0501 -0.0552 -0.1589
10494SOL    HW143955   7.715   8.708   2.151 -1.9182  0.6639  0.4776
10494SOL    HW243956   7.633   8.818   2.062  0.8526  2.8753  0.5823
10495SOL     OW43957   2.228   1.141   5.500  0.0070  0.4392  0.0435
10495SOL    HW143958   2.159   1.082   5.459  1.3213 -1.0111 -0.1082
10495SOL    HW243959   2.221   1.136   5.600  1.2369 -1.3292  0.0513
10496SOL     OW43960   3.720   5.697   7.655  0.0742 -0.0672 -0.2766
10496SOL    HW143961   3.732   5.598   7.664  1.6545  0.0583 -0.7953
10496SOL    HW243962   3.716   5.722   7.559 -1.5362  0.2563 -0.1389
10497SOL     OW43963   1.804   0.052   4.980  0.7763 -0.8497 -0.6669
10497SOL    HW143964   1.712   0.091   4.968  0.8256 -0.1861  0.9024
10497SOL    HW243965   1.812  -0.032   4.927 -0.9584 -1.2339 -0.3624
10498SOL     OW43966   7.036   4.942   5.986  0.3888  0.5495 -0.1621
10498SOL    HW143967   6.954   4.947   6.042  0.9728  2.1743  0.5913
10498SOL    HW243968   7.068   5.035   5.965  1.7313 -0.0530 -0.8839
10499SOL     OW43969   2.262   4.169   1.695  0.1951 -0.2084  0.1246
10499SOL    HW143970   2.295   4.186   1.788 -0.1945 -0.7616  0.3697
10499SOL    HW243971   2.337   4.136   1.638  0.9788  2.3883 -0.3809
10500SOL     OW43972   3.999   5.339   6.595  0.1195 -0.0949 -0.1907
10500SOL    HW143973   3.932   5.413   6.594  0.3186  0.0897  0.1093
10500SOL    HW243974   4.025   5.318   6.689  1.0354  0.3361 -0.3368
10501SOL     OW43975   6.078   5.948   6.014  1.3241  0.2915 -0.3577
10501SOL    HW143976   6.106   6.031   5.965  0.7674  0.4213 -0.4642
10501SOL    HW243977   6.025   5.889   5.952  1.0051  0.2465 -0.0471
10502SOL     OW43978   6.145   8.181   7.633  0.4498  0.6780  0.2712
10502SOL    HW143979   6.048   8.155   7.638  0.4049  0.8700  0.4195
10502SOL    HW243980   6.157   8.250   7.561  0.7215 -0.4257 -0.7504
10503SOL     OW43981   4.640   3.964   7.298  0.1057 -0.3562  0.1685
10503SOL    HW143982   4.574   4.026   7.340  0.6515  0.0993  0.3615
10503SOL    HW243983   4.680   3.905   7.368 -0.5940 -1.0974 -0.0532
10504SOL     OW43984   6.009   8.515   3.482 -0.0970 -0.2984  0.0453
10504SOL    HW143985   6.024   8.420   3.455 -0.8627  0.5501 -3.6058
10504SOL    HW243986   6.092   8.551   3.524  1.5752 -1.4347 -2.1644
10505SOL     OW43987   7.454   6.234   3.059 -0.5848  0.0509 -0.5703
10505SOL    HW143988   7.526   6.178   3.101 -1.8902 -1.5656 -0.3961
10505SOL    HW243989   7.470   6.330   3.079  0.0403 -0.5106  1.8022
10506SOL     OW43990   4.362   1.741   8.699 -0.1164  0.5028 -0.1707
10506SOL    HW143991   4.314   1.724   8.785 -0.3046 -0.3604 -0.4392
10506SOL    HW243992   4.353   1.838   8.674 -1.0453  0.5147  0.1831
10507SOL     OW43993   3.772   7.267   1.255  0.3905  0.4344 -0.6686
10507SOL    HW143994   3.743   7.359   1.229 -0.7112 -0.4055 -2.5643
10507SOL    HW243995   3.871   7.258   1.244  0.1272  0.5253 -3.4220
10508SOL     OW43996   5.077   1.833   6.001 -0.6575  0.7544  0.2778
10508SOL    HW143997   5.106   1.818   5.907 -1.1857 -0.9960  0.3847
10508SOL    HW243998   4.983   1.800   6.013  0.7042 -2.5958  2.3657
10509SOL     OW43999   2.504   2.331   0.098  0.6048  0.3291  0.1921
10509SOL    HW144000   2.405   2.341   0.106  0.7743  1.5257  1.0788
10509SOL    HW244001   2.539   2.395   0.030  0.8627  0.5608  0.5371
10510SOL     OW44002   6.242   5.717   6.146  0.0742  0.1921  0.7108
10510SOL    HW144003   6.214   5.693   6.239 -1.2479  1.2749  0.6072
10510SOL    HW244004   6.190   5.797   6.116 -0.7853 -1.2058 -1.6179
10511SOL     OW44005   8.602   3.305   3.015  0.6556  0.1883 -0.3400
10511SOL    HW144006   8.668   3.275   3.084  1.6297  1.9413 -0.4664
10511SOL    HW244007   8.589   3.234   2.947  2.2914 -0.2536 -0.2086
10512SOL     OW44008   2.674   4.957   3.312 -0.4938  0.2777  0.3229
10512SOL    HW144009   2.755   5.015   3.321  0.2052 -0.3596 -1.7124
10512SOL    HW244010   2.593   5.014   3.296 -0.0891  0.7892  0.0929
10513SOL     OW44011   8.067   3.577   4.043 -0.3112 -0.0055  0.2941
10513SOL    HW144012   8.163   3.561   4.018 -0.6471 -1.2311 -0.2584
10513SOL    HW244013   8.020   3.490   4.052 -0.8701  0.5084  2.6765
10514SOL     OW44014   6.357   3.695   1.809  0.2045 -0.2082 -0.3155
10514SOL    HW144015   6.321   3.623   1.869  1.8203 -1.1494 -0.4415
10514SOL    HW244016   6.311   3.690   1.720  0.9177 -1.6510 -0.6160
10515SOL     OW44017   4.805   8.509   5.831 -0.0377 -1.0637  0.1732
10515SOL    HW144018   4.851   8.437   5.882  0.8748 -0.1155  0.7249
10515SOL    HW244019   4.753   8.567   5.894  0.6005 -0.2509 -0.0299
10516SOL     OW44020   8.650   3.813   8.058  0.3136  0.5217  0.3895
10516SOL    HW144021   8.575   3.878   8.061 -0.8043 -0.6807 -1.0696
10516SOL    HW244022   8.705   3.822   8.142 -1.8101  0.9489  1.7792
10517SOL     OW44023   6.727   5.155   0.097 -0.2183 -0.0421  0.1840
10517SOL    HW144024   6.779   5.135   0.179 -0.7397 -1.7545  0.1026
10517SOL    HW244025   6.718   5.254   0.087 -2.6282  0.1739  3.7407
10518SOL     OW44026   4.028   8.759   6.659  0.2328 -0.4662  0.0087
10518SOL    HW144027   4.108   8.702   6.643  1.2323  0.5179  1.3829
10518SOL    HW244028   4.020   8.778   6.757  0.0095  1.8825 -0.4500
10519SOL     OW44029   0.120   6.572   0.972 -0.3093  1.1679  0.2645
10519SOL    HW144030   0.122   6.549   1.070 -1.9254  0.2692  0.1021
10519SOL    HW244031   0.068   6.656   0.959 -0.2551  1.1854  0.1642
10520SOL     OW44032   0.201   4.719   5.803  0.7484 -0.1311  0.3945
10520SOL    HW144033   0.112   4.677   5.784  1.1325  0.0302 -1.9134
10520SOL    HW244034   0.216   4.794   5.739  1.8524  0.9006  1.8449
10521SOL     OW44035   8.206   5.842   1.820  0.3812 -0.2951 -0.6930
10521SOL    HW144036   8.243   5.913   1.761 -0.8528  1.1594  0.2459
10521SOL    HW244037   8.110   5.862   1.841 -0.3248 -2.8009 -1.2704
10522SOL     OW44038   0.859   7.653   1.325 -0.5091  0.0922 -0.0204
10522SOL    HW144039   0.828   7.606   1.242  0.8345 -0.0209 -0.4766
10522SOL    HW244040   0.876   7.585   1.397 -1.3341  0.1562  0.2371
10523SOL     OW44041   2.519   5.141   6.426 -0.0351 -0.3862 -0.5060
10523SOL    HW144042   2.609   5.136   6.383 -1.9298 -1.0779 -4.5869
10523SOL    HW244043   2.479   5.049   6.431 -0.9189  0.0399  0.3657
10524SOL     OW44044   5.504   3.916   0.143 -0.1655 -0.0058 -0.6629
10524SOL    HW144045   5.546   3.880   0.059  1.8187  1.3848 -0.2920
10524SOL    HW244046   5.496   4.015   0.137  0.2986  0.1374  0.9463
10525SOL     OW44047   3.624   3.641   7.196  0.0557 -0.2326  0.2765
10525SOL    HW144048   3.597   3.547   7.215  1.0609 -0.5449  0.1958
10525SOL    HW244049   3.571   3.676   7.119  0.0331 -0.9073 -0.0192
10526SOL     OW44050   1.089   7.386   3.688  0.2180  0.3141 -0.6286
10526SOL    HW144051   1.013   7.389   3.622  0.2370  0.5381 -0.6419
10526SOL    HW244052   1.174   7.367   3.639  0.3201  1.0483 -0.7517
10527SOL     OW44053   2.271   4.981   5.931 -0.6004 -0.1924  0.0349
10527SOL    HW144054   2.195   4.920   5.910 -0.9236 -0.3607  1.6517
10527SOL    HW244055   2.238   5.056   5.988  0.0659  0.7766 -0.8436
10528SOL     OW44056   4.952   4.275   1.641  0.1207  0.0928  0.2878
10528SOL    HW144057   5.019   4.251   1.571  0.2459  1.2824 -0.0158
10528SOL    HW244058   4.944   4.201   1.707  1.0876 -0.4208 -0.1715
10529SOL     OW44059   8.230   4.306   1.744  0.0209  0.2301 -0.5828
10529SOL    HW144060   8.176   4.233   1.702 -1.0630  1.3378 -1.1537
10529SOL    HW244061   8.293   4.344   1.677  1.7749 -1.2919  0.1807
10530SOL     OW44062   7.464   7.679   4.871  0.3495  0.0424 -0.0326
10530SOL    HW144063   7.372   7.652   4.900  0.2960  1.9707  1.6529
10530SOL    HW244064   7.532   7.632   4.927  0.4047 -0.9451 -0.9040
10531SOL     OW44065   0.325   8.979   7.508 -0.1747  0.2841  0.5086
10531SOL    HW144066   0.386   8.966   7.430 -1.3251  0.0648 -0.3647
10531SOL    HW244067   0.365   9.046   7.571  1.5334 -0.7523  0.5635
10532SOL     OW44068   8.910   2.742   3.890 -0.4420  0.0995 -0.3589
10532SOL    HW144069   8.939   2.825   3.938 -0.9077  0.5856 -0.9180
10532SOL    HW244070   8.810   2.737   3.889 -0.4122 -1.0685  0.6960
10533SOL     OW44071   3.061   2.479   7.563  0.1543  0.3694  0.0701
10533SOL    HW144072   3.114   2.560   7.537 -0.4416  0.8502  0.3655
10533SOL    HW244073   3.123   2.401   7.571  0.3581  0.1586 -2.9589
10534SOL     OW44074   8.272   6.853   8.283  0.0014  0.1666  0.1778
10534SOL    HW144075   8.361   6.826   8.247  1.2995  4.1284  0.0823
10534SOL    HW244076   8.203   6.842   8.212  1.6360  3.0794 -1.9750
10535SOL     OW44077   5.605   8.707   6.292  0.1643 -0.3988  0.1613
10535SOL    HW144078   5.648   8.754   6.370  0.8316 -0.0002 -0.4420
10535SOL    HW244079   5.507   8.727   6.292 -0.0944 -1.6175  1.7579
10536SOL     OW44080   0.904   1.224   0.220 -0.7365 -0.7507 -0.1534
10536SOL    HW144081   0.979   1.235   0.285 -1.6452  0.7791  0.6618
10536SOL    HW244082   0.887   1.310   0.172 -1.6869 -1.1955 -0.6425
10537SOL     OW44083   6.888   7.731   2.492 -0.8025  0.8331 -0.2085
10537SOL    HW144084   6.912   7.806   2.554  0.0288  0.3785  0.0205
10537SOL    HW244085   6.826   7.668   2.538  1.4968 -0.6604  0.9259
10538SOL     OW44086   3.076   0.806   3.101  0.3143  0.5305 -0.7331
10538SOL    HW144087   3.073   0.902   3.073  0.0498  1.1787  1.3783
10538SOL    HW244088   3.047   0.748   3.025  0.3369  2.1316 -1.9919
10539SOL     OW44089   4.414   7.564   5.110 -0.1283  0.3214  0.0238
10539SOL    HW144090   4.511   7.585   5.102 -0.4193  1.1628 -1.4443
10539SOL    HW244091   4.362   7.648   5.126 -0.6896 -0.0501  0.2021
10540SOL     OW44092   7.749   4.880   8.032  0.3342  0.4177  0.1570
10540SOL    HW144093   7.762   4.959   8.091 -0.7538  0.9450 -0.3049
10540SOL    HW244094   7.748   4.797   8.089  1.3534  0.7318  0.6499
10541SOL     OW44095   5.635   4.169   4.461 -0.2663 -0.5596 -0.1783
10541SOL    HW144096   5.600   4.136   4.373 -0.4066 -1.3712  0.1830
10541SOL    HW244097   5.580   4.248   4.491  0.0784  0.0170 -1.0460
10542SOL     OW44098   5.065   8.928   0.779  0.3687 -0.0801  0.3512
10542SOL    HW144099   5.083   9.026   0.769 -0.5984  0.0918  0.2984
10542SOL    HW244100   4.968   8.910   0.762  0.9027 -1.2936 -1.4416
10543SOL     OW44101   2.243   5.550   7.522  0.1402  0.3865  0.6995
10543SOL    HW144102   2.286   5.465   7.553  1.2372  0.7443  0.1751
10543SOL    HW244103   2.250   5.620   7.593 -1.1229 -0.0667  1.2926
10544SOL     OW44104   4.434   2.447   2.731 -0.3399  0.5756 -0.1656
10544SOL    HW144105   4.389   2.358   2.743 -2.2434  1.6178  0.6862
10544SOL    HW244106   4.461   2.483   2.820  2.8276 -0.3081 -0.7126
10545SOL     OW44107   0.182   0.938   5.165 -0.3896 -0.3285 -0.2585
10545SOL    HW144108   0.270   0.928   5.212  0.2373  2.1691 -0.8248
10545SOL    HW244109   0.196   0.937   5.066 -0.7640  1.7000 -0.3503
10546SOL     OW44110   7.398   7.555   1.728  0.1913 -0.2134 -0.0173
10546SOL    HW144111   7.477   7.564   1.667  0.6482 -0.1701  0.5834
10546SOL    HW244112   7.334   7.488   1.690  0.5236 -0.2621 -0.4942
10547SOL     OW44113   5.847   0.951   0.909  0.9047  0.3811 -0.1712
10547SOL    HW144114   5.808   0.895   0.836  0.1996  0.1759  0.3576
10547SOL    HW244115   5.899   1.027   0.868 -2.2302  2.2262 -0.9579
10548SOL     OW44116   4.481   2.817   2.468 -0.4218 -0.0487 -0.3323
10548SOL    HW144117   4.485   2.891   2.402 -0.6935  1.2624  1.0892
10548SOL    HW244118   4.390   2.775   2.467 -0.0324 -0.8916 -1.6756
10549SOL     OW44119   6.965   3.359   7.391  0.4486  0.1626 -0.0297
10549SOL    HW144120   6.953   3.385   7.295  0.8557  0.5346  0.0178
10549SOL    HW244121   6.919   3.426   7.449 -0.2629 -0.3616  0.0163
10550SOL     OW44122   8.813   1.926   6.662 -0.1608  0.3358  0.4436
10550SOL    HW144123   8.895   1.944   6.716  0.1583 -1.2768  0.5231
10550SOL    HW244124   8.789   2.008   6.609  1.2345  0.9581  0.7570
10551SOL     OW44125   8.915   0.366   5.623  0.2687  0.8570  0.2936
10551SOL    HW144126   8.984   0.439   5.625 -0.0706  1.1580  1.0035
10551SOL    HW244127   8.926   0.308   5.703  0.3127  0.3276 -0.0922
10552SOL     OW44128   1.268   5.576   2.364 -0.2131  0.4301  0.3467
10552SOL    HW144129   1.283   5.583   2.462  0.9413 -2.9190  0.4738
10552SOL    HW244130   1.216   5.493   2.344  1.2312  0.0391 -2.0196
10553SOL     OW44131   0.956   2.862   7.598 -0.2940  0.2966  0.9246
10553SOL    HW144132   0.948   2.955   7.561 -0.4729  0.0824  0.4193
10553SOL    HW244133   0.900   2.800   7.543  0.4495 -0.2510  0.7898
10554SOL     OW44134   6.921   6.637   6.440 -0.6498  0.1992  0.1113
10554SOL    HW144135   6.955   6.615   6.531  0.0888 -0.0100 -0.2074
10554SOL    HW244136   6.982   6.702   6.395 -1.3647  0.8184  0.0131
10555SOL     OW44137   3.031   2.783   7.620 -0.6321 -0.3354  0.1967
10555SOL    HW144138   2.933   2.764   7.629 -0.7011 -0.1779 -0.2501
10555SOL    HW244139   3.083   2.705   7.655 -0.9139 -0.4286  0.4150
10556SOL     OW44140   7.497   3.107   1.946 -0.1350 -0.6474  0.9797
10556SOL    HW144141   7.472   3.100   1.849  0.4744 -0.3820  0.7992
10556SOL    HW244142   7.474   3.022   1.993 -1.2963 -0.4370  0.8065
10557SOL     OW44143   8.644   0.042   7.692 -0.3891 -0.7357 -0.8080
10557SOL    HW144144   8.559   0.049   7.639  0.2682  0.6423 -1.7044
10557SOL    HW244145   8.721   0.062   7.632  0.4055  0.2916  0.5507
10558SOL     OW44146   3.426   5.157   7.572  0.3088 -0.6540  0.2008
10558SOL    HW144147   3.471   5.246   7.581  1.8145 -1.2474 -1.3317
10558SOL    HW244148   3.396   5.126   7.663  0.8737  0.8186  0.9165
10559SOL     OW44149   0.389   5.420   8.376  0.3115  0.1020 -0.3100
10559SOL    HW144150   0.369   5.516   8.359  1.0126  0.3858  0.4222
10559SOL    HW244151   0.389   5.370   8.289  0.2562  0.8196 -0.7302
10560SOL     OW44152   3.299   7.049   1.974 -0.1286  0.2174  0.4857
10560SOL    HW144153   3.227   7.091   2.030  0.0022  0.2287  0.6474
10560SOL    HW244154   3.268   6.959   1.943  0.1096 -0.1455  1.2624
10561SOL     OW44155   1.259   4.386   6.538  0.1405 -0.0271 -0.1065
10561SOL    HW144156   1.162   4.376   6.519  0.6189 -1.7951 -1.7919
10561SOL    HW244157   1.272   4.418   6.632 -2.0325 -1.0234  0.5511
10562SOL     OW44158   0.961   5.952   4.941  0.3452 -0.3368  0.3791
10562SOL    HW144159   0.978   5.985   5.034 -1.3955 -0.5780  0.7983
10562SOL    HW244160   0.959   6.029   4.878 -0.7073  0.0622  0.8925
10563SOL     OW44161   8.976   5.173   6.327 -1.0930 -0.5109  0.4751
10563SOL    HW144162   8.901   5.186   6.262 -0.4400  0.0576 -0.1655
10563SOL    HW244163   8.989   5.257   6.379  1.2096  0.5033 -1.6533
10564SOL     OW44164   1.603   1.361   7.682  0.0470 -0.1209 -0.0658
10564SOL    HW144165   1.658   1.445   7.683  1.2973 -0.9418  1.2526
10564SOL    HW244166   1.587   1.334   7.587  0.4528  1.0759 -0.4925
10565SOL     OW44167   6.205   6.274   6.998 -0.6562  0.3619 -0.2005
10565SOL    HW144168   6.215   6.213   6.920  0.8658  1.0705 -0.5732
10565SOL    HW244169   6.198   6.221   7.082 -0.0924 -0.3419 -0.6006
10566SOL     OW44170   6.490   8.770   6.554  0.4284 -0.8278  0.2411
10566SOL    HW144171   6.552   8.698   6.523  1.9846  0.2899  0.6739
10566SOL    HW244172   6.540   8.857   6.558 -1.3822  0.2457 -0.1384
10567SOL     OW44173   3.320   8.119   4.845 -0.0419  0.5575  0.4896
10567SOL    HW144174   3.345   8.181   4.920  0.7660  0.5947  0.1920
10567SOL    HW244175   3.387   8.126   4.772 -0.4842  0.0500  0.0299
10568SOL     OW44176   3.369   4.327   8.494  0.9062  0.5130 -0.0825
10568SOL    HW144177   3.408   4.413   8.460  0.4597  0.7826  0.0821
10568SOL    HW244178   3.271   4.326   8.476  0.6893  0.5912  1.0403
10569SOL     OW44179   6.983   5.868   6.084 -0.3511 -0.5841 -0.4411
10569SOL    HW144180   6.918   5.894   6.012  0.1853  0.8339 -0.4174
10569SOL    HW244181   6.968   5.772   6.109 -0.4774 -1.1235 -2.5097
10570SOL     OW44182   7.950   3.295   8.818 -0.5832  0.8136  0.0115
10570SOL    HW144183   8.017   3.282   8.891 -1.1389  0.3074  0.4393
10570SOL    HW244184   7.930   3.392   8.808 -1.9219  0.7526  1.8338
10571SOL     OW44185   7.429   3.075   1.669 -0.6246 -0.0426 -0.0624
10571SOL    HW144186   7.472   2.985   1.677 -2.0250 -0.8123 -0.8651
10571SOL    HW244187   7.329   3.064   1.671 -0.8327  1.7696  2.7852
10572SOL     OW44188   1.933   6.550   8.651  0.5328 -0.0759  0.6470
10572SOL    HW144189   1.932   6.647   8.627  2.4636  0.2424  1.7174
10572SOL    HW244190   1.982   6.499   8.580 -1.7874 -0.5154 -0.6770
10573SOL     OW44191   8.716   7.465   5.512 -0.3606  0.4282 -0.1860
10573SOL    HW144192   8.760   7.379   5.485  0.6265  1.3312 -1.4871
10573SOL    HW244193   8.743   7.488   5.606  0.2570 -0.0929 -0.2360
10574SOL     OW44194   3.288   6.773   1.110 -0.2033 -0.1594  0.4647
10574SOL    HW144195   3.268   6.777   1.208 -0.2589 -0.5736  0.4728
10574SOL    HW244196   3.203   6.789   1.059 -0.7499 -2.7208  0.5049
10575SOL     OW44197   1.215   2.578   3.818  0.2154 -0.1377  0.2140
10575SOL    HW144198   1.163   2.662   3.836 -0.2221  0.0139 -1.6850
10575SOL    HW244199   1.158   2.515   3.766  1.4230 -0.5867 -0.5701
10576SOL     OW44200   4.221   8.361   7.545 -0.1788  0.2390  0.0520
10576SOL    HW144201   4.218   8.306   7.628 -1.7853 -1.1177 -0.8536
10576SOL    HW244202   4.306   8.342   7.496 -0.3822 -0.9233  0.1196
10577SOL     OW44203   2.650   2.948   1.709  0.6270 -0.2106 -0.2534
10577SOL    HW144204   2.565   2.901   1.686 -0.1612 -0.0888  2.3036
10577SOL    HW244205   2.724   2.881   1.717  1.0372 -0.2267 -3.3760
10578SOL     OW44206   7.960   3.563   6.387 -0.4922 -0.4556  0.6159
10578SOL    HW144207   7.995   3.576   6.480  0.6803  0.6859  0.0353
10578SOL    HW244208   7.875   3.616   6.376 -0.8198 -0.8637  1.1277
10579SOL     OW44209   7.711   5.066   7.135 -0.2007  0.2767  0.2473
10579SOL    HW144210   7.647   5.143   7.139  0.5461  0.8395  2.4625
10579SOL    HW244211   7.735   5.047   7.039 -1.1721  2.1504 -0.3931
10580SOL     OW44212   0.725   5.117   5.607  0.5723  1.0850  0.2135
10580SOL    HW144213   0.814   5.157   5.629  1.3164 -0.2987 -0.2550
10580SOL    HW244214   0.682   5.082   5.690  1.6301 -0.5872  0.0730
10581SOL     OW44215   1.915   0.921   0.258  0.4141 -0.0614 -0.2100
10581SOL    HW144216   1.903   0.822   0.254 -2.2673  0.2903 -2.0973
10581SOL    HW244217   1.916   0.951   0.353  0.5461 -1.8106  0.3460
10582SOL     OW44218   8.955   3.584   6.920 -0.2146  0.0772  0.1230
10582SOL    HW144219   8.878   3.531   6.956 -0.6510  1.1664  0.7951
10582SOL    HW244220   8.962   3.570   6.821 -1.6166  0.4076 -0.0318
10583SOL     OW44221   1.004   1.435   5.247  0.4121  0.5558 -0.2929
10583SOL    HW144222   0.987   1.492   5.166 -1.1176 -1.1899 -1.2532
10583SOL    HW244223   0.946   1.467   5.322 -0.3309  0.3790 -0.7833
10584SOL     OW44224   8.132   1.979   4.453  0.0442  0.2138 -0.2318
10584SOL    HW144225   8.071   2.024   4.519 -0.3386  0.4079 -0.7133
10584SOL    HW244226   8.226   2.009   4.468 -0.0600  0.3577  0.1366
10585SOL     OW44227   4.929   1.722   7.523 -0.3833 -0.2570 -0.0089
10585SOL    HW144228   4.985   1.805   7.517  1.6295 -1.5337  0.4732
10585SOL    HW244229   4.836   1.746   7.549  0.0890  1.8747 -0.1734
10586SOL     OW44230   7.201   5.834   5.889  0.4493  0.2529  0.2690
10586SOL    HW144231   7.193   5.778   5.806 -0.0749  2.0295 -0.9094
10586SOL    HW244232   7.119   5.822   5.945 -1.0823  2.1469 -1.4755
10587SOL     OW44233   7.694   1.639   6.306 -0.2959  0.1108 -0.1868
10587SOL    HW144234   7.746   1.664   6.387 -1.0153 -1.6270  0.8492
10587SOL    HW244235   7.642   1.555   6.324  0.5535 -1.0523 -2.8513
10588SOL     OW44236   6.402   4.963   2.462  0.4516 -0.0985  0.0333
10588SOL    HW144237   6.343   5.044   2.463  1.2769  0.5175 -0.5196
10588SOL    HW244238   6.497   4.991   2.472  0.7586 -0.9906 -0.3325
10589SOL     OW44239   3.964   0.419   0.380 -0.6617  0.5461  0.4764
10589SOL    HW144240   3.983   0.514   0.404 -0.2070  0.9260 -1.3102
10589SOL    HW244241   3.955   0.411   0.281 -1.2655 -1.1807  0.6550
10590SOL     OW44242   3.816   5.570   6.580 -0.2681  0.2857 -0.0902
10590SOL    HW144243   3.722   5.568   6.615  0.1565 -0.3230  1.0160
10590SOL    HW244244   3.814   5.598   6.484 -1.6063 -0.0029 -0.1646
10591SOL     OW44245   4.658   7.433   2.330 -0.0224  0.0052 -0.6216
10591SOL    HW144246   4.603   7.455   2.250 -0.1418 -0.8582 -0.7842
10591SOL    HW244247   4.671   7.334   2.335  2.0129  0.2366 -0.9011
10592SOL     OW44248   0.724   4.637   1.315 -0.0461 -0.2084 -0.1760
10592SOL    HW144249   0.637   4.592   1.335  1.1446 -2.2101  0.6399
10592SOL    HW244250   0.706   4.724   1.268 -2.4275 -1.3920 -1.5903
10593SOL     OW44251   5.812   0.343   0.619 -0.4264  0.6200 -0.7560
10593SOL    HW144252   5.863   0.352   0.533  0.6967 -0.8202 -0.2638
10593SOL    HW244253   5.795   0.434   0.657 -1.1355  1.2968 -2.5926
10594SOL     OW44254   6.768   7.154   6.738 -0.0925 -0.0888 -0.6581
10594SOL    HW144255   6.856   7.190   6.767  0.3526 -0.7585 -1.1490
10594SOL    HW244256   6.773   7.054   6.732 -0.7172 -0.0918 -1.2333
10595SOL     OW44257   5.354   8.103   1.016  0.0759 -0.3705 -0.5499
10595SOL    HW144258   5.265   8.118   1.058  0.0405 -1.5918 -0.1542
10595SOL    HW244259   5.424   8.095   1.087  0.2307 -1.0954 -0.7779
10596SOL     OW44260   0.990   4.425   0.387 -0.3874 -0.6623  0.0355
10596SOL    HW144261   0.952   4.337   0.360 -1.3322  0.2228 -1.6077
10596SOL    HW244262   1.037   4.467   0.309  1.5190 -0.4520  1.2597
10597SOL     OW44263   5.997   6.632   4.423 -0.1299  0.4442 -0.4836
10597SOL    HW144264   5.949   6.575   4.490  0.3300  0.7994  0.1567
10597SOL    HW244265   5.975   6.600   4.331  0.9908 -1.4926 -0.1104
10598SOL     OW44266   5.592   7.241   8.316  0.2870 -0.6465  0.5264
10598SOL    HW144267   5.575   7.234   8.218 -0.1740 -1.6591  0.6770
10598SOL    HW244268   5.680   7.199   8.339  2.3520  3.1402 -0.0159
10599SOL     OW44269   8.367   3.142   3.531  0.5202  0.2257 -0.3337
10599SOL    HW144270   8.274   3.167   3.556  0.4324  0.3631 -0.7906
10599SOL    HW244271   8.369   3.047   3.499  0.6900 -0.0557  0.5178
10600SOL     OW44272   7.755   1.345   5.485 -0.3587  0.0649  0.2899
10600SOL    HW144273   7.780   1.416   5.551 -1.0064 -1.5941  2.3750
10600SOL    HW244274   7.783   1.256   5.519  0.0096 -0.7695 -2.0751
10601SOL     OW44275   7.394   2.013   0.980  0.4591  0.2583  0.2869
10601SOL    HW144276   7.427   2.107   0.982  1.9722 -0.2558 -0.3007
10601SOL    HW244277   7.353   1.993   0.891 -0.5474  0.5834  0.6693
10602SOL     OW44278   1.487   2.012   7.278 -0.3994 -0.1026  0.4028
10602SOL    HW144279   1.551   2.059   7.338  2.2546 -1.3789 -1.2954
10602SOL    HW244280   1.532   1.931   7.239 -3.0618 -1.0179 -0.8884
10603SOL     OW44281   3.476   4.845   0.555  0.2580  0.1659 -0.1465
10603SOL    HW144282   3.534   4.907   0.608 -0.1973  0.9322 -0.5372
10603SOL    HW244283   3.445   4.771   0.614  0.3286  0.6309  0.4884
10604SOL     OW44284   7.023   6.354   5.462 -0.1108 -0.2506  0.4942
10604SOL    HW144285   7.048   6.360   5.365 -0.4272 -0.5232  0.3915
10604SOL    HW244286   7.067   6.274   5.503  0.5639  0.2481  0.7448
10605SOL     OW44287   6.808   3.624   1.259  0.2589  0.0743 -0.3516
10605SOL    HW144288   6.807   3.524   1.256 -1.2951  0.1193 -2.2158
10605SOL    HW244289   6.764   3.655   1.343  0.2783 -0.8047 -0.0150
10606SOL     OW44290   2.658   3.336   6.168  0.3005  0.3548  0.0553
10606SOL    HW144291   2.737   3.370   6.218  0.2832  0.2031  0.1871
10606SOL    HW244292   2.606   3.413   6.131 -0.2615  0.5020  1.1513
10607SOL     OW44293   0.480   6.833   8.172 -0.0149 -0.8276 -0.5360
10607SOL    HW144294   0.566   6.883   8.184 -2.2317  2.4747  3.1612
10607SOL    HW244295   0.415   6.891   8.123 -0.9717 -2.2342 -0.9612
10608SOL     OW44296   8.106   5.936   2.268 -0.6313  0.5443 -0.1792
10608SOL    HW144297   8.202   5.958   2.248 -0.5367 -0.0355 -0.3777
10608SOL    HW244298   8.098   5.906   2.363 -0.3656 -0.8129 -0.5711
10609SOL     OW44299   5.936   4.385   8.359 -0.1077  0.1694  0.5679
10609SOL    HW144300   6.030   4.398   8.391  0.3708  0.3645 -0.8980
10609SOL    HW244301   5.903   4.296   8.389  1.0846 -0.5384 -0.1915
10610SOL     OW44302   2.237   4.616   1.874 -0.3170 -0.4044  0.4685
10610SOL    HW144303   2.314   4.573   1.826 -1.1398 -2.3251  0.8136
10610SOL    HW244304   2.229   4.711   1.846  2.5053 -0.0276  0.8062
10611SOL     OW44305   5.865   8.433   2.618 -0.1807 -1.4595 -0.0860
10611SOL    HW144306   5.905   8.343   2.635  1.2050 -1.1290 -1.5462
10611SOL    HW244307   5.930   8.504   2.645 -1.0890 -0.8920  0.6270
10612SOL     OW44308   8.639   5.592   3.695  0.1677  0.2049  0.3773
10612SOL    HW144309   8.736   5.605   3.717  0.3545 -0.7683  0.1255
10612SOL    HW244310   8.606   5.507   3.737  0.3281 -1.2703 -2.4159
10613SOL     OW44311   4.810   2.421   7.404  0.4601  0.1690  0.0072
10613SOL    HW144312   4.770   2.474   7.330  2.2077 -1.3449 -2.0721
10613SOL    HW244313   4.906   2.448   7.417 -0.4857  2.2625  3.5209
10614SOL     OW44314   7.868   1.193   7.556 -0.3548  0.1232  0.1590
10614SOL    HW144315   7.769   1.186   7.562 -0.3904 -0.3592 -0.9078
10614SOL    HW244316   7.893   1.268   7.495 -0.0625  0.2529  0.4379
10615SOL     OW44317   8.737   4.088   8.612 -0.6798 -0.1017  0.4834
10615SOL    HW144318   8.825   4.059   8.576 -0.3678  0.5093  0.7422
10615SOL    HW244319   8.672   4.099   8.537  0.5449  3.2045 -0.1759
10616SOL     OW44320   5.684   3.900   0.342 -0.1836  0.2971 -0.1310
10616SOL    HW144321   5.611   3.895   0.274 -0.6918  0.2518  0.4072
10616SOL    HW244322   5.673   3.983   0.396  0.4571  0.5385 -0.3718
10617SOL     OW44323   2.137   3.671   3.617 -0.2211  0.1927  0.2968
10617SOL    HW144324   2.069   3.686   3.689 -0.3467  0.5966  0.0976
10617SOL    HW244325   2.167   3.760   3.581  0.3964  0.0149  0.3691
10618SOL     OW44326   2.658   5.748   5.358 -0.1411  0.1684 -0.8320
10618SOL    HW144327   2.606   5.665   5.340 -1.3021  0.4691  1.0007
10618SOL    HW244328   2.642   5.778   5.452  1.2799  1.7533 -1.0596
10619SOL     OW44329   8.156   6.171   7.263  0.2224 -0.2561 -0.2655
10619SOL    HW144330   8.247   6.136   7.286  0.1553  0.8123  1.7488
10619SOL    HW244331   8.099   6.096   7.228  0.1951 -2.1622  3.5604
10620SOL     OW44332   0.635   3.181   8.231  0.4623 -0.2750  0.6970
10620SOL    HW144333   0.725   3.215   8.259 -0.3926  1.1050  1.8714
10620SOL    HW244334   0.646   3.094   8.182  2.3060 -1.0382  2.3658
10621SOL     OW44335   2.401   4.650   1.570  0.4779 -0.4325 -0.5485
10621SOL    HW144336   2.398   4.615   1.477  0.1029 -2.4065  0.1836
10621SOL    HW244337   2.457   4.589   1.627  1.1841  1.0647  0.3900
10622SOL     OW44338   0.557   4.379   7.057  0.3181 -0.0632 -0.4510
10622SOL    HW144339   0.627   4.368   7.127 -1.0822 -1.3567  0.8027
10622SOL    HW244340   0.532   4.289   7.020 -1.2279  0.2759 -0.2935
10623SOL     OW44341   2.462   7.516   8.587 -0.3983  0.5833 -0.3747
10623SOL    HW144342   2.495   7.564   8.506 -0.2829 -4.1280 -3.3117
10623SOL    HW244343   2.539   7.495   8.647  0.7225 -2.2540 -2.6912
10624SOL     OW44344   0.380   1.300   8.038 -0.9758 -0.3266  0.1125
10624SOL    HW144345   0.397   1.297   7.939  0.8596 -2.0839  0.4401
10624SOL    HW244346   0.433   1.375   8.078 -2.6554  1.1432 -0.3874
10625SOL     OW44347   5.849   2.105   2.670  0.5027 -0.2811  0.1571
10625SOL    HW144348   5.804   2.191   2.692 -1.0967 -1.4116  1.4382
10625SOL    HW244349   5.939   2.123   2.629  0.8309  1.9906  1.7948
10626SOL     OW44350   4.528   0.133   8.522  0.4685  0.7338  0.2812
10626SOL    HW144351   4.602   0.162   8.583  0.8534  0.1889  0.0737
10626SOL    HW244352   4.521   0.033   8.523 -0.1731  0.7738  0.1890
10627SOL     OW44353   2.969   3.732   0.945 -0.3386 -0.1588 -0.4764
10627SOL    HW144354   2.872   3.741   0.968  0.5619  2.8295  2.4423
10627SOL    HW244355   2.980   3.743   0.846 -2.5655  3.7630 -0.3971
10628SOL     OW44356   1.369   5.605   3.301 -0.0355  0.7258  0.1675
10628SOL    HW144357   1.427   5.670   3.348  1.5061  0.2444 -1.0303
10628SOL    HW244358   1.408   5.584   3.211  0.1175 -2.6647  0.9512
10629SOL     OW44359   6.037   5.819   0.609  0.0941 -0.0766 -0.1027
10629SOL    HW144360   6.036   5.719   0.612 -0.6682 -0.1076 -1.2064
10629SOL    HW244361   6.129   5.851   0.585 -0.0557 -0.5673 -1.3575
10630SOL     OW44362   6.486   0.967   8.127 -0.2355 -0.2366  0.2579
10630SOL    HW144363   6.561   0.902   8.129  0.4246  0.4879 -0.3570
10630SOL    HW244364   6.517   1.055   8.164 -0.7525  0.0942 -0.0845
10631SOL     OW44365   4.111   2.980   8.041 -0.6251  0.3538  0.5478
10631SOL    HW144366   4.173   3.018   7.973 -0.3538 -0.9033  0.0865
10631SOL    HW244367   4.099   3.046   8.116  1.1144  0.6747  0.5595
10632SOL     OW44368   5.234   5.921   3.401  0.3220  0.8516 -0.0661
10632SOL    HW144369   5.237   5.917   3.301 -0.6526  0.7313 -0.0929
10632SOL    HW244370   5.208   6.013   3.430 -1.4655  0.3287  0.0265
10633SOL     OW44371   8.398   2.388   0.157  0.2497  0.1892 -0.3881
10633SOL    HW144372   8.333   2.464   0.151  1.7609  1.6081  0.5963
10633SOL    HW244373   8.381   2.337   0.242  0.2931  0.4192 -0.2419
10634SOL     OW44374   4.563   4.112   8.809  1.0821 -0.1270  0.3851
10634SOL    HW144375   4.540   4.121   8.906  1.8381  0.9085  0.4779
10634SOL    HW244376   4.551   4.017   8.780 -0.8491 -0.1218  1.0473
10635SOL     OW44377   3.825   0.427   0.108 -0.0805 -0.1443 -0.1530
10635SOL    HW144378   3.770   0.343   0.107  0.9881 -0.8593 -0.7114
10635SOL    HW244379   3.875   0.435   0.021  1.8798 -0.3263  0.9210
10636SOL     OW44380   1.605   0.240   0.821  0.3273 -0.1658 -0.2653
10636SOL    HW144381   1.686   0.268   0.873  1.3538 -0.6395 -1.5895
10636SOL    HW244382   1.534   0.209   0.885  1.4799 -0.5238  0.8751
10637SOL     OW44383   4.935   7.774   4.281 -0.0764  0.1549  0.8622
10637SOL    HW144384   4.943   7.674   4.281 -0.3433  0.1172 -0.8510
10637SOL    HW244385   5.027   7.814   4.286  0.0713 -0.1857  0.9225
10638SOL     OW44386   0.961   3.239   6.013  0.0088  0.3789 -0.0111
10638SOL    HW144387   1.016   3.301   5.957  0.6901 -1.0165 -0.9394
10638SOL    HW244388   1.001   3.147   6.009 -1.4762 -0.3125  0.6068
10639SOL     OW44389   4.314   8.559   1.959  0.6202  0.3967 -0.3192
10639SOL    HW144390   4.253   8.497   2.007 -0.3043  1.7146  0.2169
10639SOL    HW244391   4.261   8.631   1.915  1.4687 -0.5140 -2.9602
10640SOL     OW44392   4.642   2.020   6.188 -0.4662 -0.2088 -0.6704
10640SOL    HW144393   4.627   1.989   6.094  1.3227 -0.7409 -0.8073
10640SOL    HW244394   4.654   1.940   6.248  0.9940  0.1414 -0.4620
10641SOL     OW44395   0.887   2.416   5.924 -0.0052 -0.2780  0.6830
10641SOL    HW144396   0.835   2.363   5.991 -0.2419 -1.8487 -0.6935
10641SOL    HW244397   0.829   2.485   5.882 -0.2701 -0.3137  0.9936
10642SOL     OW44398   4.660   0.141   4.174 -0.1122  0.2448  0.5348
10642SOL    HW144399   4.716   0.222   4.194  1.0912 -0.2106 -0.8902
10642SOL    HW244400   4.605   0.158   4.092  0.8994 -0.7300 -0.3625
10643SOL     OW44401   4.256   0.396   1.457 -0.4357 -0.1141  0.1820
10643SOL    HW144402   4.210   0.318   1.414 -0.0909  0.1088 -0.6085
10643SOL    HW244403   4.244   0.392   1.556 -1.0074 -0.7928  0.0863
10644SOL     OW44404   0.765   3.822   6.196 -0.0942 -0.5157 -0.4780
10644SOL    HW144405   0.799   3.774   6.277 -0.0492 -0.7264 -0.6212
10644SOL    HW244406   0.835   3.823   6.125 -0.0625 -0.1523 -0.4385
10645SOL     OW44407   5.674   0.602   7.826 -1.0865  0.3028 -0.2678
10645SOL    HW144408   5.752   0.640   7.777  0.5429 -2.4536  0.0767
10645SOL    HW244409   5.657   0.656   7.909  0.3586  1.0431 -0.4411
10646SOL     OW44410   2.512   4.687   2.233  0.1648 -1.0869 -0.3467
10646SOL    HW144411   2.529   4.600   2.279  0.9642 -0.5014  0.4796
10646SOL    HW244412   2.593   4.745   2.239 -0.0044 -0.6699 -1.7797
10647SOL     OW44413   0.687   6.145   5.686 -0.5676  0.0373 -0.7710
10647SOL    HW144414   0.753   6.107   5.752 -1.0383 -1.2425 -1.0192
10647SOL    HW244415   0.702   6.103   5.597 -1.5524 -0.0733 -0.8838
10648SOL     OW44416   6.615   3.174   3.262  0.3983 -0.0724 -0.1611
10648SOL    HW144417   6.535   3.126   3.226  0.0189  0.7355 -0.4245
10648SOL    HW244418   6.612   3.172   3.362 -1.8280  2.8797 -0.0800
10649SOL     OW44419   7.324   3.873   3.539  0.4754  0.1653  0.6489
10649SOL    HW144420   7.409   3.878   3.486 -0.4336  1.1606 -0.7548
10649SOL    HW244421   7.258   3.937   3.501 -1.9264 -2.6523 -0.1155
10650SOL     OW44422   8.036   5.067   0.664  0.0342  0.3699  0.2547
10650SOL    HW144423   8.064   4.973   0.682 -0.5761 -0.2908 -2.1105
10650SOL    HW244424   8.109   5.116   0.617 -0.1402  0.7013  0.3236
10651SOL     OW44425   0.238   1.362   1.391  0.2365  0.3595  0.2271
10651SOL    HW144426   0.177   1.332   1.464 -0.0494  1.7557  0.5847
10651SOL    HW244427   0.307   1.425   1.428 -0.6746  2.0701 -0.8932
10652SOL     OW44428   5.234   6.575   4.872  0.1279 -0.5492  0.3870
10652SOL    HW144429   5.292   6.608   4.798 -0.3890  1.2381  0.7608
10652SOL    HW244430   5.152   6.632   4.877 -0.8093 -1.9419  1.0127
10653SOL     OW44431   2.620   6.163   0.793  0.0233  0.6808  0.8139
10653SOL    HW144432   2.569   6.249   0.792  0.2393  0.8088  0.3471
10653SOL    HW244433   2.715   6.180   0.765  0.1660  0.3495  1.0846
10654SOL     OW44434   2.750   2.062   1.320  0.3243 -0.0692 -0.2468
10654SOL    HW144435   2.703   1.993   1.264 -0.1600  0.1280 -0.0841
10654SOL    HW244436   2.847   2.040   1.325  0.2834 -0.3677 -0.7533
10655SOL     OW44437   5.426   7.266   1.527 -0.1445 -0.0645 -0.2622
10655SOL    HW144438   5.492   7.194   1.505 -0.3316  0.2238 -1.7621
10655SOL    HW244439   5.469   7.330   1.592  0.5963 -0.5905 -0.2177
10656SOL     OW44440   3.542   0.161   3.432  0.4380  0.1845 -0.6135
10656SOL    HW144441   3.520   0.151   3.335 -1.0876  1.3564 -0.4107
10656SOL    HW244442   3.499   0.088   3.484  0.8043 -0.1337 -0.7591
10657SOL     OW44443   7.285   6.936   0.561  0.8679  0.4992  0.2176
10657SOL    HW144444   7.295   6.938   0.660  1.8525 -1.5132  0.1761
10657SOL    HW244445   7.374   6.951   0.518  0.3572  1.9009 -0.3874
10658SOL     OW44446   7.884   5.237   8.506  0.6798 -0.8511 -0.6918
10658SOL    HW144447   7.912   5.184   8.426  1.5672  0.0373 -0.9914
10658SOL    HW244448   7.864   5.331   8.478 -0.1759 -0.8390 -0.0596
10659SOL     OW44449   1.226   2.286   5.406 -0.2775 -0.3323 -0.4103
10659SOL    HW144450   1.308   2.243   5.369 -1.5861 -3.7084  0.4191
10659SOL    HW244451   1.252   2.367   5.459  2.2562  0.0841 -2.1890
10660SOL     OW44452   1.499   6.047   5.189 -0.2790  0.0618 -0.0161
10660SOL    HW144453   1.569   6.117   5.173  0.3044 -0.6575 -0.6147
10660SOL    HW244454   1.482   6.039   5.287  0.0435  0.6590  0.0903
10661SOL     OW44455   1.471   0.169   1.055  0.0250  0.1471 -0.0034
10661SOL    HW144456   1.467   0.252   1.110 -0.6175 -0.7953  1.4225
10661SOL    HW244457   1.379   0.129   1.049  0.1585  0.0294 -1.4581
10662SOL     OW44458   5.312   7.256   8.660  0.0999  0.0071 -0.5859
10662SOL    HW144459   5.285   7.352   8.663  0.4562  0.1084 -0.6139
10662SOL    HW244460   5.279   7.210   8.742  0.3678  0.2722 -0.3244
10663SOL     OW44461   2.867   0.554   7.674 -0.0280  0.8663 -0.4601
10663SOL    HW144462   2.934   0.528   7.604  1.0850  0.8466  0.6042
10663SOL    HW244463   2.914   0.589   7.755 -1.2724  0.2271  0.5693
10664SOL     OW44464   6.947   2.548   6.260 -0.6147 -0.4331 -0.6692
10664SOL    HW144465   6.933   2.640   6.223  1.4751  0.4263  0.5703
10664SOL    HW244466   6.887   2.535   6.339  0.2413  0.4958  0.1537
10665SOL     OW44467   4.039   2.673   4.865  0.4665  0.1283  0.1676
10665SOL    HW144468   4.060   2.766   4.894 -3.1171  0.9728  0.2654
10665SOL    HW244469   4.033   2.614   4.945 -0.3367  0.4811  0.3673
10666SOL     OW44470   6.516   5.035   5.962  0.9933  0.2070 -0.1224
10666SOL    HW144471   6.463   5.039   6.047  0.7786  3.5869 -0.3362
10666SOL    HW244472   6.585   4.964   5.968  1.3611  0.7922  3.1284
10667SOL     OW44473   3.374   5.199   5.848  0.3886  0.3288  0.5114
10667SOL    HW144474   3.454   5.241   5.804 -0.7682  1.2668 -0.7085
10667SOL    HW244475   3.397   5.105   5.874  1.7400  0.4264 -0.2534
10668SOL     OW44476   3.756   6.294   1.125 -0.0478  0.0942 -1.1409
10668SOL    HW144477   3.846   6.277   1.164  0.7244 -1.0057 -3.3144
10668SOL    HW244478   3.711   6.207   1.106  0.3724  0.5232 -4.3435
10669SOL     OW44479   8.193   2.297   7.552 -0.0748  0.2529  0.1777
10669SOL    HW144480   8.142   2.360   7.611 -0.6648  0.3626 -0.4569
10669SOL    HW244481   8.157   2.205   7.563 -0.3329  0.3111 -0.1846
10670SOL     OW44482   4.078   5.373   1.761  0.5480 -0.3493  0.1906
10670SOL    HW144483   4.035   5.418   1.683  1.3161 -0.2697 -0.1932
10670SOL    HW244484   4.175   5.357   1.741  0.8758  0.1510  1.3355
10671SOL     OW44485   3.249   6.839   8.619  0.3573  0.3422 -0.2707
10671SOL    HW144486   3.334   6.801   8.581  0.3414 -1.3471  1.2905
10671SOL    HW244487   3.171   6.788   8.583  0.2309 -0.1940  0.7562
10672SOL     OW44488   4.039   7.108   2.400  0.1332  0.0993  0.6362
10672SOL    HW144489   3.964   7.043   2.386 -1.8063  2.1460  1.1297
10672SOL    HW244490   4.074   7.099   2.494 -0.7402  0.3501  0.9962
10673SOL     OW44491   1.434   5.886   8.144  0.2742 -0.1570 -0.2072
10673SOL    HW144492   1.418   5.971   8.195 -0.6988  0.3771 -1.3731
10673SOL    HW244493   1.346   5.843   8.123  0.7057 -0.7041 -0.8904
10674SOL     OW44494   2.774   1.051   6.950 -0.7444 -0.1209 -0.1333
10674SOL    HW144495   2.733   1.062   7.040  1.6051 -0.0290  0.9464
10674SOL    HW244496   2.730   0.975   6.902 -2.2208  0.0407  0.9443
10675SOL     OW44497   4.069   4.189   1.960  0.1197  0.4111 -0.0199
10675SOL    HW144498   4.060   4.157   2.054 -0.4935 -0.1361 -0.2584
10675SOL    HW244499   4.022   4.277   1.950 -0.4533  0.1135  0.0143
10676SOL     OW44500   7.441   8.500   4.509  0.0836 -0.0087  0.0475
10676SOL    HW144501   7.382   8.580   4.493 -0.4702 -0.2096  1.0012
10676SOL    HW244502   7.466   8.459   4.421  0.7864  1.5055 -0.4745
10677SOL     OW44503   2.405   8.190   2.947 -0.0019  0.3432 -1.1676
10677SOL    HW144504   2.395   8.216   2.851 -1.3701  0.7364 -0.9288
10677SOL    HW244505   2.426   8.271   3.002 -0.1980  0.2827 -1.0013
10678SOL     OW44506   8.320   3.480   5.458  0.0368 -0.1401  0.2117
10678SOL    HW144507   8.351   3.572   5.432 -1.3101  1.1505  2.9653
10678SOL    HW244508   8.399   3.427   5.490  1.1269 -0.6111 -3.0367
10679SOL     OW44509   4.464   3.085   2.341 -0.2507 -0.0236  0.3084
10679SOL    HW144510   4.376   3.131   2.330  1.1480  3.0852  1.6019
10679SOL    HW244511   4.522   3.105   2.262  0.0493 -0.3460  0.4429
10680SOL     OW44512   1.369   3.749   6.194  0.3701 -0.0235  0.0898
10680SOL    HW144513   1.290   3.730   6.135 -1.6155  2.7324  1.7325
10680SOL    HW244514   1.420   3.826   6.156  1.4995 -0.8877 -0.1914
10681SOL     OW44515   1.004   7.586   4.798  0.6569  0.3685 -0.5409
10681SOL    HW144516   1.057   7.528   4.737  0.7166 -0.4562  0.2818
10681SOL    HW244517   0.987   7.674   4.754  0.2499 -0.3965 -1.9595
10682SOL     OW44518   0.846   7.304   2.278 -0.2256 -0.1036 -0.9951
10682SOL    HW144519   0.783   7.372   2.316  0.6138  0.3877 -0.4670
10682SOL    HW244520   0.822   7.287   2.182  0.7781  2.4698 -1.7640
10683SOL     OW44521   6.903   6.358   0.844  0.2516 -0.0925 -0.3337
10683SOL    HW144522   6.889   6.434   0.780 -0.6482 -0.5542 -0.6830
10683SOL    HW244523   6.832   6.360   0.914  0.5671 -0.2814 -0.0020
10684SOL     OW44524   0.890   7.069   5.886 -0.1198 -0.0088 -0.7194
10684SOL    HW144525   0.828   7.128   5.937  0.7844  0.6011 -0.3079
10684SOL    HW244526   0.970   7.122   5.857  0.7513 -1.0568 -0.2517
10685SOL     OW44527   3.718   5.415   8.011 -0.2079 -0.3818  0.1103
10685SOL    HW144528   3.764   5.352   8.074  2.3873  0.1289 -1.2043
10685SOL    HW244529   3.704   5.369   7.923  0.4440  0.4052 -0.4161
10686SOL     OW44530   6.874   8.937   0.461  0.1135 -0.1527  0.4576
10686SOL    HW144531   6.916   8.930   0.370  2.2206 -0.9349  1.4787
10686SOL    HW244532   6.799   9.004   0.457  1.0785  0.8644 -1.5199
10687SOL     OW44533   2.424   5.649   2.636 -0.5432 -0.2036  0.2060
10687SOL    HW144534   2.490   5.681   2.567 -0.7965  2.4641  1.1318
10687SOL    HW244535   2.472   5.601   2.709  0.1585  0.1148 -0.0461
10688SOL     OW44536   7.608   5.906   3.389  0.3877 -0.4007 -0.0931
10688SOL    HW144537   7.570   5.969   3.321  1.8447  0.0190 -0.5166
10688SOL    HW244538   7.662   5.957   3.456  1.2013 -1.1502 -0.1711
10689SOL     OW44539   2.677   1.015   7.208 -0.6413 -0.4583  0.0951
10689SOL    HW144540   2.587   1.021   7.250 -0.3669 -0.4400  0.6838
10689SOL    HW244541   2.721   0.930   7.234  0.6571  0.7836  2.1384
10690SOL     OW44542   8.210   7.180   0.002 -0.2080 -0.3309 -0.0725
10690SOL    HW144543   8.242   7.151  -0.089 -2.2263  0.3913 -1.0438
10690SOL    HW244544   8.141   7.115   0.035 -2.8037  1.7992 -1.0921
10691SOL     OW44545   4.526   1.036   3.639  0.0137  0.3203 -0.2806
10691SOL    HW144546   4.463   0.961   3.655 -1.8157  1.7091 -0.7538
10691SOL    HW244547   4.475   1.122   3.631  1.9001  1.4038 -1.2704
10692SOL     OW44548   3.637   2.447   8.064  0.2643  0.4016  0.3860
10692SOL    HW144549   3.582   2.378   8.112  2.6164 -1.9316 -0.1303
10692SOL    HW244550   3.728   2.451   8.105  1.2723  0.6643 -1.8055
10693SOL     OW44551   1.827   7.856   0.127  0.0201  0.0135  0.1163
10693SOL    HW144552   1.827   7.842   0.028 -0.9917 -2.8796  0.4668
10693SOL    HW244553   1.875   7.780   0.170 -0.9399  0.4295  1.9520
10694SOL     OW44554   4.692   1.216   3.155 -0.2965 -0.1843 -0.0946
10694SOL    HW144555   4.737   1.135   3.191 -0.8181 -1.3261 -1.9459
10694SOL    HW244556   4.744   1.298   3.182  0.9790 -1.2195  0.6450
10695SOL     OW44557   0.198   1.089   5.608 -0.0278  0.1592 -0.5528
10695SOL    HW144558   0.227   0.995   5.625  0.8634  0.3289 -1.1303
10695SOL    HW244559   0.160   1.095   5.515  0.9305  0.6051 -0.9196
10696SOL     OW44560   5.997   8.907   5.545 -0.4535  0.1763 -0.1461
10696SOL    HW144561   6.007   8.808   5.557 -1.5609  0.1273  0.3388
10696SOL    HW244562   5.914   8.927   5.493  0.2409  0.8149 -1.0518
10697SOL     OW44563   2.045   8.177   2.184 -0.1083  0.5161  0.1371
10697SOL    HW144564   2.105   8.103   2.154 -1.5389 -0.3557 -0.6440
10697SOL    HW244565   2.059   8.258   2.127  0.8623  0.5725  0.4525
10698SOL     OW44566   1.642   5.501   3.612  0.4904  0.2838  0.5270
10698SOL    HW144567   1.678   5.421   3.660  2.8321  1.5514  0.9505
10698SOL    HW244568   1.714   5.569   3.601 -1.3178  2.1321 -0.3279
10699SOL     OW44569   4.865   4.048   6.172  0.7310  0.5175 -0.0844
10699SOL    HW144570   4.819   3.996   6.244  0.4798  0.2845 -0.4117
10699SOL    HW244571   4.801   4.067   6.098  1.6785 -1.6257 -1.5183
10700SOL     OW44572   6.560   8.372   2.954 -0.0949  0.5660  0.2060
10700SOL    HW144573   6.541   8.458   2.906  1.0352 -0.3865 -1.9515
10700SOL    HW244574   6.595   8.304   2.890 -0.0297 -1.2177  2.0886
10701SOL     OW44575   8.084   1.660   1.007 -0.0681 -0.6367 -0.0132
10701SOL    HW144576   8.091   1.587   1.076 -0.1730  1.0622  1.8377
10701SOL    HW244577   7.991   1.697   1.007  0.1122 -0.1744 -0.6053
10702SOL     OW44578   1.139   2.061   5.516  0.1116 -0.3628  0.0458
10702SOL    HW144579   1.205   1.986   5.527  0.5585 -0.0003 -0.1484
10702SOL    HW244580   1.183   2.137   5.468  0.1152  0.6122  1.5567
10703SOL     OW44581   5.486   4.870   5.290  0.4456 -0.3027  0.5214
10703SOL    HW144582   5.395   4.885   5.252  1.1677  0.8446 -0.8195
10703SOL    HW244583   5.550   4.936   5.250  1.8535 -1.0547  1.4801
10704SOL     OW44584   5.528   4.602   6.048 -0.1232  0.0137  0.0207
10704SOL    HW144585   5.565   4.693   6.026 -2.1057  1.4259  2.2862
10704SOL    HW244586   5.592   4.553   6.106 -0.1589  0.9813  0.8863
10705SOL     OW44587   2.617   8.969   8.490  0.0460 -0.5838 -0.4582
10705SOL    HW144588   2.560   8.897   8.450  1.0147 -0.7902 -1.4986
10705SOL    HW244589   2.684   8.928   8.551 -0.2902 -0.4276  0.0200
10706SOL     OW44590   7.419   6.659   5.903 -0.1721 -0.0516  0.3961
10706SOL    HW144591   7.505   6.645   5.952  0.2055  0.7253 -0.0321
10706SOL    HW244592   7.345   6.613   5.951  0.5183 -0.8746  0.6712
10707SOL     OW44593   8.246   5.174   1.656  0.3640  0.0897  0.3757
10707SOL    HW144594   8.244   5.185   1.557  1.6013  0.1201  0.3564
10707SOL    HW244595   8.158   5.136   1.687 -0.5490  1.3882 -0.5685
10708SOL     OW44596   3.004   5.015   3.588  0.5874  0.1799 -0.3325
10708SOL    HW144597   3.060   5.093   3.616 -1.5092  0.8891  2.0133
10708SOL    HW244598   2.924   5.047   3.538  1.0707 -0.6859 -1.7045
10709SOL     OW44599   8.566   7.705   7.689 -0.3279  0.2739  0.3404
10709SOL    HW144600   8.546   7.646   7.768  2.5035 -0.2798  0.7045
10709SOL    HW244601   8.486   7.761   7.668 -1.8746 -1.1667  2.2210
10710SOL     OW44602   5.133   5.803   3.612 -0.2347  0.2461 -0.4789
10710SOL    HW144603   5.035   5.811   3.596 -0.3959 -2.3332 -1.1539
10710SOL    HW244604   5.183   5.845   3.536 -0.8426  0.6354 -0.6591
10711SOL     OW44605   8.609   6.280   4.511  0.0213 -0.2676  0.3362
10711SOL    HW144606   8.625   6.236   4.599 -0.0973  1.2998  1.1424
10711SOL    HW244607   8.566   6.214   4.449 -0.9267 -1.0494  1.7985
10712SOL     OW44608   2.340   1.830   3.790  0.1874 -0.3788  0.1127
10712SOL    HW144609   2.374   1.823   3.883  0.5742  0.2093  0.0168
10712SOL    HW244610   2.357   1.744   3.742  0.2889 -0.5647  0.4804
10713SOL     OW44611   7.728   3.772   6.464  0.1977 -0.2215 -0.1057
10713SOL    HW144612   7.673   3.819   6.395 -0.5981  0.2631  0.8448
10713SOL    HW244613   7.816   3.819   6.474 -0.2964  0.6396  0.3062
10714SOL     OW44614   8.683   2.561   8.530  0.1824  0.1414 -0.4722
10714SOL    HW144615   8.711   2.533   8.622 -0.0802 -0.7267 -0.6503
10714SOL    HW244616   8.583   2.560   8.523  0.2052 -0.0271 -0.8313
10715SOL     OW44617   1.780   5.854   5.045  0.2233 -0.3603 -0.2347
10715SOL    HW144618   1.682   5.837   5.041  0.5245 -2.2564 -0.0385
10715SOL    HW244619   1.804   5.889   5.136 -0.2095 -0.2459 -0.1627
10716SOL     OW44620   4.149   5.014   0.306  0.4408  0.2368 -0.4732
10716SOL    HW144621   4.061   5.036   0.348  0.6211 -1.6014  0.9016
10716SOL    HW244622   4.134   4.962   0.222  0.2186 -0.7725  0.1826
10717SOL     OW44623   8.106   1.612   7.448  0.2253 -0.4012  0.5171
10717SOL    HW144624   8.126   1.643   7.355  1.8139 -0.8029  0.7178
10717SOL    HW244625   8.123   1.687   7.512 -0.2342 -0.3297  0.5596
10718SOL     OW44626   4.130   6.711   0.675 -0.4806 -0.8880 -0.1935
10718SOL    HW144627   4.080   6.746   0.596  1.5029 -1.4328 -1.7165
10718SOL    HW244628   4.162   6.788   0.730  0.6369 -0.3871 -1.5104
10719SOL     OW44629   1.978   6.338   8.009  0.1123 -0.0966  0.1145
10719SOL    HW144630   2.034   6.295   7.938  0.3413 -1.8021  1.3028
10719SOL    HW244631   1.946   6.427   7.977  0.0692 -0.9227 -2.1941
10720SOL     OW44632   2.511   7.423   1.010 -0.9702  0.5186  0.1831
10720SOL    HW144633   2.476   7.352   0.949  1.2041 -0.4729  0.0331
10720SOL    HW244634   2.461   7.419   1.097 -0.1408 -1.9709  0.5829
10721SOL     OW44635   2.849   4.798   7.886  0.0102 -0.3469  0.3670
10721SOL    HW144636   2.761   4.753   7.869  1.1635 -2.3580 -0.4901
10721SOL    HW244637   2.850   4.888   7.844 -0.5979 -1.4834 -2.1292
10722SOL     OW44638   7.377   4.270   7.929 -0.0749 -0.4057 -0.7067
10722SOL    HW144639   7.300   4.276   7.865  0.7015  2.7626 -1.4198
10722SOL    HW244640   7.351   4.313   8.016 -0.1351 -2.1435  0.1673
10723SOL     OW44641   2.259   7.748   1.734 -0.4211  0.1476  0.3802
10723SOL    HW144642   2.284   7.673   1.673 -2.1397 -1.6007  1.7478
10723SOL    HW244643   2.168   7.732   1.771 -0.7250  2.8121  0.9053
10724SOL     OW44644   1.929   4.087   6.699  0.1566 -0.1805  0.5497
10724SOL    HW144645   1.948   4.138   6.783  2.1515  0.4378 -0.2324
10724SOL    HW244646   1.965   4.139   6.621 -0.0625 -1.6033 -0.5079
10725SOL     OW44647   8.157   7.406   4.374 -0.1521  0.4031 -0.0435
10725SOL    HW144648   8.124   7.466   4.301  0.1776  0.2802 -0.3001
10725SOL    HW244649   8.256   7.395   4.365 -0.3260 -0.9090 -0.5537
10726SOL     OW44650   7.670   5.833   1.460 -0.0565  0.0730 -0.1626
10726SOL    HW144651   7.614   5.880   1.392 -2.0538  0.3468  1.5757
10726SOL    HW244652   7.654   5.734   1.455 -0.3872  0.1141  0.0400
10727SOL     OW44653   5.949   5.997   4.838 -0.4758  0.2922 -0.0972
10727SOL    HW144654   6.040   6.036   4.819 -0.6646 -0.1968 -2.1412
10727SOL    HW244655   5.960   5.911   4.888  0.0778  1.3216  1.5963
10728SOL     OW44656   4.888   4.795   2.346 -0.1313  0.6553  0.2989
10728SOL    HW144657   4.878   4.798   2.247 -0.0070  1.2157  0.2985
10728SOL    HW244658   4.966   4.738   2.370 -0.7494 -0.2687  0.1182
10729SOL     OW44659   7.333   7.387   0.823 -0.0613 -0.0164 -0.1509
10729SOL    HW144660   7.321   7.484   0.799 -0.0315  0.1468  0.4808
10729SOL    HW244661   7.420   7.375   0.870 -0.6072 -0.1515  0.8221
10730SOL     OW44662   8.723   8.663   1.470  0.3626 -0.4622  0.1016
10730SOL    HW144663   8.675   8.702   1.392  2.0848  1.1468 -0.1730
10730SOL    HW244664   8.770   8.579   1.442  3.0225  1.4204 -1.2525
10731SOL     OW44665   5.076   6.275   1.360 -0.1507  0.3691  0.6149
10731SOL    HW144666   5.083   6.264   1.459 -0.1543 -0.8998  0.4848
10731SOL    HW244667   5.157   6.323   1.325  1.1028 -1.4903  0.9049
10732SOL     OW44668   4.864   6.073   5.362 -0.3760  0.5203  0.0610
10732SOL    HW144669   4.882   6.019   5.444 -0.0845  1.7962  0.8494
10732SOL    HW244670   4.950   6.104   5.323 -0.5219  0.0490 -0.6446
10733SOL     OW44671   0.036   6.221   8.483 -0.6032  0.0297 -0.0252
10733SOL    HW144672   0.087   6.136   8.478 -0.0549  0.4603 -2.0961
10733SOL    HW244673  -0.025   6.218   8.563 -0.6905 -2.3371 -0.1328
10734SOL     OW44674   4.257   1.670   2.999 -0.5534  1.1864  0.6891
10734SOL    HW144675   4.165   1.646   2.968 -0.0386  0.2821 -0.2182
10734SOL    HW244676   4.291   1.748   2.947 -0.4546  0.9195  0.3459
10735SOL     OW44677   1.612   6.851   8.466  0.4153  0.6863 -0.4083
10735SOL    HW144678   1.562   6.794   8.531  3.3786 -2.8470 -1.0294
10735SOL    HW244679   1.553   6.873   8.388 -0.7828 -1.8315 -0.2634
10736SOL     OW44680   8.696   7.806   0.502 -0.2606 -0.1588 -0.4934
10736SOL    HW144681   8.647   7.850   0.426 -0.4149 -1.3116 -1.0765
10736SOL    HW244682   8.671   7.710   0.506 -0.2391 -0.1125  1.0268
10737SOL     OW44683   3.217   1.254   2.662 -0.3876  0.3000 -0.2817
10737SOL    HW144684   3.204   1.250   2.761  0.0993 -0.3279 -0.2379
10737SOL    HW244685   3.245   1.346   2.636  1.8114 -0.1183  0.4739
10738SOL     OW44686   3.195   5.409   2.767 -0.3858 -0.2977  0.3713
10738SOL    HW144687   3.137   5.395   2.847  1.5781 -1.0573  1.7158
10738SOL    HW244688   3.285   5.441   2.797 -0.0561  0.7697 -1.6507
10739SOL     OW44689   5.489   7.499   7.773  0.4203 -0.4287 -0.2529
10739SOL    HW144690   5.552   7.508   7.697 -1.2300 -0.8975 -1.7084
10739SOL    HW244691   5.401   7.541   7.750  0.0397 -0.1525  1.5709
10740SOL     OW44692   5.480   1.107   7.212 -0.3916  0.0972  0.3976
10740SOL    HW144693   5.571   1.080   7.245 -0.1600  1.1287  0.6219
10740SOL    HW244694   5.487   1.139   7.118 -0.4520  0.5591  0.5488
10741SOL     OW44695   5.801   6.118   7.443 -0.6650  0.8556 -0.2900
10741SOL    HW144696   5.828   6.193   7.382 -3.6131  3.1452  1.0518
10741SOL    HW244697   5.745   6.053   7.392  1.4074 -0.1692 -1.3169
10742SOL     OW44698   2.871   8.978   3.309  0.0045  0.0818  0.3337
10742SOL    HW144699   2.834   8.886   3.297  1.1187 -0.6063  2.0074
10742SOL    HW244700   2.969   8.978   3.290  0.1862  0.7279  1.2498
10743SOL     OW44701   3.345   4.667   8.664  0.1401 -0.4011 -0.7499
10743SOL    HW144702   3.289   4.693   8.586 -0.1058 -0.3456 -0.5550
10743SOL    HW244703   3.441   4.662   8.636  0.6946  3.9925 -0.0648
10744SOL     OW44704   2.646   7.789   0.463 -0.4493  0.2432  0.5329
10744SOL    HW144705   2.732   7.797   0.514  1.4690  0.1945 -2.5859
10744SOL    HW244706   2.596   7.875   0.469  0.6242  0.8507  0.9465
10745SOL     OW44707   7.294   5.804   3.034 -0.1658  0.0020 -0.2179
10745SOL    HW144708   7.257   5.886   2.992 -0.2557  0.7225  1.2267
10745SOL    HW244709   7.243   5.783   3.118  0.8585 -0.6257  0.2679
10746SOL     OW44710   8.778   3.875   1.639  0.5554 -0.1980  0.0258
10746SOL    HW144711   8.692   3.877   1.589  0.4527  0.7954  0.2331
10746SOL    HW244712   8.855   3.875   1.575  0.4372  1.8331 -0.1327
10747SOL     OW44713   2.206   5.938   5.107 -0.2043  0.0592 -0.1955
10747SOL    HW144714   2.198   5.939   5.207 -1.0979  1.5263 -0.2614
10747SOL    HW244715   2.290   5.984   5.080  1.1135 -2.1901 -0.0639
10748SOL     OW44716   0.501   3.738   8.367  0.1192 -0.7280 -0.1218
10748SOL    HW144717   0.522   3.702   8.276 -0.7364 -1.4442 -0.0501
10748SOL    HW244718   0.517   3.667   8.435 -1.3145 -0.9075  0.0511
10749SOL     OW44719   3.281   2.131   4.711  0.0885 -0.4878  0.3727
10749SOL    HW144720   3.181   2.130   4.704  0.0956  1.6846 -0.4646
10749SOL    HW244721   3.313   2.226   4.709  2.2124 -1.1939 -0.0697
10750SOL     OW44722   1.093   4.164   4.329 -0.6857  0.3221 -0.0352
10750SOL    HW144723   0.998   4.153   4.359 -0.0704  0.8364  2.2024
10750SOL    HW244724   1.116   4.261   4.327  1.0194  0.0704  3.5778
10751SOL     OW44725   1.897   3.902   3.665 -0.3141 -0.3721  0.0400
10751SOL    HW144726   1.967   3.966   3.697 -0.1752 -0.3762 -0.2543
10751SOL    HW244727   1.849   3.941   3.587 -0.2354 -0.6219 -0.1333
10752SOL     OW44728   4.255   1.522   4.275  0.3930 -0.0087  0.2249
10752SOL    HW144729   4.333   1.503   4.335  0.2465  0.4957  0.5743
10752SOL    HW244730   4.194   1.443   4.274 -0.1089  0.3566  1.5198
10753SOL     OW44731   1.409   7.289   4.657  0.3912  0.2188 -0.3294
10753SOL    HW144732   1.447   7.337   4.737  0.0209 -1.3483  0.8057
10753SOL    HW244733   1.482   7.266   4.594  1.1184 -1.2044  1.0023
10754SOL     OW44734   6.128   5.653   5.762  0.7216  0.0542 -0.1384
10754SOL    HW144735   6.168   5.665   5.671  0.6620 -1.4073 -0.3629
10754SOL    HW244736   6.173   5.577   5.809 -1.6255 -1.4903 -0.3187
10755SOL     OW44737   0.911   5.294   5.700  0.0136  0.0052  0.2719
10755SOL    HW144738   0.856   5.378   5.700 -0.0092 -0.0027 -1.4258
10755SOL    HW244739   0.956   5.284   5.612 -0.2022 -1.9393  0.3751
10756SOL     OW44740   4.731   2.100   8.678  0.5705  0.3715  0.3067
10756SOL    HW144741   4.825   2.112   8.709  0.9573  0.8347 -1.0400
10756SOL    HW244742   4.698   2.186   8.639 -0.2918  0.0972  0.4222
10757SOL     OW44743   2.975   8.533   7.176  0.0666  0.0968  0.3256
10757SOL    HW144744   2.937   8.624   7.195  1.8039  0.5900  1.5379
10757SOL    HW244745   2.955   8.472   7.253  0.4496 -0.0529  0.3053
10758SOL     OW44746   3.132   7.642   0.311  0.5693  0.0713 -0.1261
10758SOL    HW144747   3.125   7.730   0.263  0.4512 -0.1157 -0.4518
10758SOL    HW244748   3.226   7.629   0.341  1.1837 -0.8637 -2.3312
10759SOL     OW44749   1.698   2.697   3.638  0.0651  0.5470 -1.0956
10759SOL    HW144750   1.603   2.708   3.667 -0.0518  0.3862 -1.4207
10759SOL    HW244751   1.758   2.706   3.718 -0.2937 -0.4209 -0.6989
10760SOL     OW44752   0.801   2.572   0.692 -0.6657 -0.4731 -0.0245
10760SOL    HW144753   0.804   2.546   0.789 -1.4048  1.9514  0.6714
10760SOL    HW244754   0.861   2.511   0.640 -0.8786 -2.3350  1.8153
10761SOL     OW44755   8.151   1.858   7.893  0.0982 -0.5283  0.1157
10761SOL    HW144756   8.231   1.899   7.938 -0.1086  1.2096 -1.0605
10761SOL    HW244757   8.182   1.804   7.814  0.0438  0.9059 -0.8906
10762SOL     OW44758   0.010   6.002   7.696 -0.6989 -0.0558  0.4505
10762SOL    HW144759   0.098   5.991   7.742 -0.7664  1.6594  1.0432
10762SOL    HW244760  -0.059   6.029   7.763 -1.0959  1.1462 -0.4240
10763SOL     OW44761   0.682   4.721   5.968  0.4188 -0.1840  0.4612
10763SOL    HW144762   0.756   4.687   6.025 -0.2819 -0.6791  1.0935
10763SOL    HW244763   0.648   4.807   6.007 -0.1368 -0.5812  0.8710
10764SOL     OW44764   8.757   1.730   6.881 -0.1093 -0.1740 -0.2956
10764SOL    HW144765   8.803   1.644   6.859 -1.2659 -0.6566 -0.8886
10764SOL    HW244766   8.773   1.796   6.809  0.6052  0.0360  0.0567
10765SOL     OW44767   4.636   7.855   6.571 -0.1099  0.2286 -0.5951
10765SOL    HW144768   4.715   7.806   6.608  0.3449  0.0837 -1.7220
10765SOL    HW244769   4.598   7.804   6.493 -0.1078  1.2529 -1.2818
10766SOL     OW44770   6.464   5.685   3.100  0.2562  0.7173 -0.2398
10766SOL    HW144771   6.387   5.709   3.158 -2.9281 -0.1269 -3.9259
10766SOL    HW244772   6.512   5.607   3.140 -1.0635  0.9292  1.8641
10767SOL     OW44773   5.560   3.011   8.226 -0.4248 -0.0922  0.2353
10767SOL    HW144774   5.462   3.026   8.239 -0.5358  0.2059 -0.9131
10767SOL    HW244775   5.598   3.081   8.166  0.3011 -0.7468 -0.0901
10768SOL     OW44776   6.554   5.754   4.338 -0.5483  0.1615  0.9158
10768SOL    HW144777   6.610   5.799   4.269  0.1966 -0.4540  1.1121
10768SOL    HW244778   6.457   5.763   4.314 -0.2825 -0.1308 -0.2476
10769SOL     OW44779   8.894   6.541   0.611  0.0400  0.3267  0.3976
10769SOL    HW144780   8.872   6.447   0.640 -0.1044 -0.5279 -2.2798
10769SOL    HW244781   8.965   6.579   0.670  0.5916 -1.7375  1.1045
10770SOL     OW44782   8.853   5.222   8.134  0.2765  0.3556  0.1254
10770SOL    HW144783   8.943   5.209   8.175  1.0388  0.5537 -1.4313
10770SOL    HW244784   8.823   5.137   8.092 -0.6253  0.0719  1.3494
10771SOL     OW44785   8.430   6.864   3.042 -0.5827  0.0753  0.4623
10771SOL    HW144786   8.450   6.766   3.038 -2.0572 -0.2687  0.8605
10771SOL    HW244787   8.362   6.887   2.972 -1.0159  0.6046  1.0514
10772SOL     OW44788   8.508   1.731   3.973  0.7133  0.0747  0.0528
10772SOL    HW144789   8.550   1.693   4.055 -0.4620 -0.5183  0.3989
10772SOL    HW244790   8.494   1.830   3.985 -0.9952 -0.2889  1.2714
10773SOL     OW44791   0.908   3.148   4.976 -0.3991  0.1487  0.9305
10773SOL    HW144792   0.964   3.134   5.057 -0.1628  1.7355  1.0565
10773SOL    HW244793   0.879   3.059   4.940  1.2910 -0.6609  1.4821
10774SOL     OW44794   7.509   4.115   1.621 -0.9748 -0.2053 -0.6088
10774SOL    HW144795   7.591   4.169   1.602  0.2561 -2.3594 -1.6090
10774SOL    HW244796   7.476   4.135   1.713  1.8146 -0.6966  0.5640
10775SOL     OW44797   8.505   6.324   1.442 -0.2650 -0.3805  0.3399
10775SOL    HW144798   8.513   6.356   1.347 -1.6413 -1.2919 -0.0906
10775SOL    HW244799   8.411   6.296   1.460  0.1240 -0.7733  1.8052
10776SOL     OW44800   3.456   1.247   6.657  0.0831 -0.0077 -0.3796
10776SOL    HW144801   3.446   1.164   6.712  1.2700 -0.4781 -0.8670
10776SOL    HW244802   3.436   1.327   6.713  1.0789 -0.4989  0.6763
10777SOL     OW44803   2.310   1.677   7.534 -0.2079 -0.0566  0.5032
10777SOL    HW144804   2.349   1.721   7.615  0.2915 -1.0249  0.8112
10777SOL    HW244805   2.252   1.601   7.563  2.4661 -2.4141 -0.0794
10778SOL     OW44806   1.875   1.752   1.166 -0.5016  0.1690  0.0204
10778SOL    HW144807   1.919   1.796   1.087 -0.7122  0.5374  0.1086
10778SOL    HW244808   1.778   1.737   1.145 -0.2324 -1.0869 -0.3632
10779SOL     OW44809   3.272   1.419   0.035  0.0827  0.0254  0.1531
10779SOL    HW144810   3.288   1.515   0.057  1.8771 -0.2500  0.1294
10779SOL    HW244811   3.184   1.391   0.073 -0.5298  1.7045  0.0433
10780SOL     OW44812   4.624   0.805   7.979  0.0619 -0.4678 -0.1916
10780SOL    HW144813   4.676   0.871   8.033 -2.9246 -0.2907  2.5890
10780SOL    HW244814   4.635   0.713   8.017 -0.6412 -0.6241 -0.3581
10781SOL     OW44815   3.445   0.002   1.938 -0.3560 -0.2335 -0.6112
10781SOL    HW144816   3.385   0.052   2.000  0.9085 -0.5648  0.9147
10781SOL    HW244817   3.391  -0.033   1.861 -1.8091  0.8276 -0.1049
10782SOL     OW44818   4.238   6.832   2.318  0.0962  0.1403 -0.6125
10782SOL    HW144819   4.209   6.882   2.400 -1.9069  0.5295 -1.5297
10782SOL    HW244820   4.247   6.735   2.339  2.3037  0.6136  0.7505
10783SOL     OW44821   5.759   1.976   8.354 -0.4939 -0.5415  0.1111
10783SOL    HW144822   5.744   2.050   8.289  0.4308 -1.3538 -1.0405
10783SOL    HW244823   5.776   1.891   8.305 -0.4106 -1.2941  1.4192
10784SOL     OW44824   2.731   7.804   4.291  0.0613 -0.0148  0.7295
10784SOL    HW144825   2.793   7.727   4.305  1.1325  1.1197  2.2923
10784SOL    HW244826   2.636   7.771   4.293  0.5136 -1.2973  1.3022
10785SOL     OW44827   1.110   1.125   6.618  0.1701  0.0534 -0.7734
10785SOL    HW144828   1.163   1.190   6.564  1.0247 -0.9846 -1.2014
10785SOL    HW244829   1.070   1.056   6.558  0.1114 -0.3977 -0.2235
10786SOL     OW44830   8.295   7.878   0.333 -0.0364 -0.1933 -0.3728
10786SOL    HW144831   8.226   7.950   0.345  0.6805  0.3937  0.2781
10786SOL    HW244832   8.260   7.809   0.269 -2.0236 -0.9068  1.4133
10787SOL     OW44833   3.850   5.218   8.172 -0.2200  0.3462 -0.2848
10787SOL    HW144834   3.795   5.184   8.249 -0.6192  0.9565 -0.3011
10787SOL    HW244835   3.884   5.140   8.119 -1.6428 -0.0143 -0.6812
10788SOL     OW44836   0.473   1.367   0.715  0.2275 -0.2186 -0.0953
10788SOL    HW144837   0.520   1.329   0.794 -2.3692 -2.6493  0.3665
10788SOL    HW244838   0.493   1.313   0.634  0.4530  0.4240 -0.4765
10789SOL     OW44839   1.775   1.515   4.948  0.1859  0.6518  0.5047
10789SOL    HW144840   1.861   1.493   4.902 -0.4746 -2.1380  0.5135
10789SOL    HW244841   1.791   1.524   5.047  0.5425  0.4816  0.4614
10790SOL     OW44842   0.261   4.435   6.412  0.2028 -0.3079  0.4276
10790SOL    HW144843   0.220   4.521   6.444  0.4769  1.2309 -3.1047
10790SOL    HW244844   0.351   4.454   6.372 -0.7201 -1.8389 -2.5053
10791SOL     OW44845   6.919   2.367   0.010 -0.5390 -0.4098 -0.2083
10791SOL    HW144846   6.956   2.459  -0.003  0.0256 -0.8754 -2.2104
10791SOL    HW244847   6.820   2.371   0.017 -0.5017  0.3822 -0.1357
10792SOL     OW44848   0.735   5.134   0.383  0.0263 -0.4619  0.1954
10792SOL    HW144849   0.663   5.065   0.384 -2.4723  1.9751 -2.7725
10792SOL    HW244850   0.703   5.216   0.431  0.9171  0.5447 -0.8938
10793SOL     OW44851   5.713   7.666   7.936  0.1861  0.2891  0.2431
10793SOL    HW144852   5.661   7.581   7.926 -1.4769  1.3285 -0.1168
10793SOL    HW244853   5.727   7.708   7.846  0.7431  0.5547  0.4511
10794SOL     OW44854   8.802   7.558   5.761  0.0266  0.0469  0.2682
10794SOL    HW144855   8.765   7.481   5.813  0.8533 -0.6119 -0.1016
10794SOL    HW244856   8.901   7.564   5.777  0.2193  0.0798 -0.9234
10795SOL     OW44857   4.020   7.004   7.387 -0.7975 -0.2380  0.2973
10795SOL    HW144858   4.119   7.000   7.371 -0.9513 -0.2515 -0.7173
10795SOL    HW244859   3.973   6.991   7.300 -1.7199 -1.7828  1.0188
10796SOL     OW44860   4.298   5.912   8.568 -0.2231  0.0575  0.2510
10796SOL    HW144861   4.370   5.900   8.500  0.9896  3.5025  0.8105
10796SOL    HW244862   4.229   5.841   8.556  1.6460 -1.4194 -2.3689
10797SOL     OW44863   3.410   4.918   3.388  0.3086  0.0595  0.1196
10797SOL    HW144864   3.423   4.886   3.294 -0.5785 -0.1024  0.0404
10797SOL    HW244865   3.429   4.844   3.452  2.2696  0.5716  0.1371
10798SOL     OW44866   5.576   5.246   5.408 -0.7424 -0.2968 -0.1540
10798SOL    HW144867   5.513   5.292   5.345  0.5259 -0.0142 -1.2350
10798SOL    HW244868   5.662   5.226   5.361  0.0290 -0.5740  1.3367
10799SOL     OW44869   4.978   7.239   1.555  0.2777  0.0126 -0.0731
10799SOL    HW144870   5.052   7.284   1.505  1.2077 -1.3957  0.0111
10799SOL    HW244871   4.958   7.291   1.638  1.2835  0.3248 -0.0187
10800SOL     OW44872   1.330   2.956   5.008 -0.3326 -0.2552  0.0924
10800SOL    HW144873   1.283   3.011   4.939  0.2630 -1.2051 -1.0972
10800SOL    HW244874   1.274   2.877   5.032  0.2351 -0.9140 -0.6806
10801SOL     OW44875   4.190   2.757   2.322  0.1896  0.4720 -0.9071
10801SOL    HW144876   4.096   2.755   2.287 -0.7237  1.3347  1.3334
10801SOL    HW244877   4.225   2.664   2.330 -0.4947  0.1440 -1.7505
10802SOL     OW44878   0.598   1.457   7.198 -0.1674  0.2142 -0.1914
10802SOL    HW144879   0.593   1.487   7.293  1.1565 -0.0238 -0.0261
10802SOL    HW244880   0.672   1.507   7.152  0.3035 -0.8674 -0.6327
10803SOL     OW44881   2.512   2.854   3.790  0.0414 -0.6503 -0.1654
10803SOL    HW144882   2.465   2.822   3.707  1.3277  0.5492 -1.3928
10803SOL    HW244883   2.550   2.945   3.773 -0.5325  0.0220  2.1007
10804SOL     OW44884   1.332   5.449   7.102  0.2399 -0.1522 -0.4627
10804SOL    HW144885   1.314   5.500   7.186 -0.9451 -1.4970  0.1285
10804SOL    HW244886   1.256   5.386   7.085  0.6668 -0.1839 -2.3200
10805SOL     OW44887   2.595   2.335   6.950 -0.4565 -0.2883  0.3886
10805SOL    HW144888   2.558   2.428   6.955 -0.6033 -0.3783  0.9910
10805SOL    HW244889   2.528   2.270   6.986 -0.8580 -0.7704 -1.1713
10806SOL     OW44890   8.220   1.485   4.125 -0.6076 -0.1994 -0.0246
10806SOL    HW144891   8.237   1.393   4.159 -0.3813 -0.3883 -0.6368
10806SOL    HW244892   8.196   1.480   4.028  0.6179  0.4893 -0.3712
10807SOL     OW44893   3.084   7.143   2.129 -0.0727 -0.1862  0.4510
10807SOL    HW144894   3.049   7.049   2.125 -0.4472  0.0107 -2.0356
10807SOL    HW244895   3.012   7.204   2.163 -0.7680 -0.4024 -0.6118
10808SOL     OW44896   0.082   2.669   3.661  0.2156 -0.0587  0.1925
10808SOL    HW144897   0.127   2.580   3.661  0.2912 -0.0244 -0.2846
10808SOL    HW244898   0.017   2.674   3.736  1.5236  0.1515  1.3325
10809SOL     OW44899   5.531   4.021   4.815 -0.1273 -0.0615 -0.4968
10809SOL    HW144900   5.558   3.953   4.747 -0.4140 -0.4195 -0.2540
10809SOL    HW244901   5.431   4.026   4.819 -0.1865 -2.3412  2.1649
10810SOL     OW44902   7.543   3.946   0.138  0.7297  0.4673  0.2872
10810SOL    HW144903   7.506   3.879   0.202 -1.2830 -1.6400 -2.9386
10810SOL    HW244904   7.524   4.038   0.172 -1.0250 -0.5819  2.2948
10811SOL     OW44905   6.132   5.404   2.736  0.1252 -0.3050 -0.4776
10811SOL    HW144906   6.156   5.438   2.645  0.0615  0.1671 -0.3198
10811SOL    HW244907   6.157   5.472   2.805 -2.8344  0.7984 -0.4079
10812SOL     OW44908   3.917   8.234   1.054 -0.0121 -0.3937  0.4849
10812SOL    HW144909   3.883   8.145   1.083  2.7509 -0.5456  3.5452
10812SOL    HW244910   4.004   8.223   1.005 -0.1535  0.5717 -0.0135
10813SOL     OW44911   3.924   3.449   5.852 -0.6708 -0.3436 -0.7058
10813SOL    HW144912   3.876   3.378   5.904 -1.0822 -0.1268 -0.7840
10813SOL    HW244913   3.871   3.472   5.770 -1.1371  0.8861 -0.0803
10814SOL     OW44914   1.969   7.635   6.377  0.0376  0.2407  0.3803
10814SOL    HW144915   1.954   7.540   6.350  0.3148  0.5178 -0.7843
10814SOL    HW244916   2.016   7.684   6.303  1.6245  0.8035  1.7220
10815SOL     OW44917   7.833   2.650   4.173  0.3084 -0.1043 -0.0837
10815SOL    HW144918   7.857   2.686   4.263  1.1919  1.6712 -1.0114
10815SOL    HW244919   7.733   2.641   4.167  0.1409  1.1107  0.5998
10816SOL     OW44920   3.613   7.593   6.357 -0.0069 -0.3615 -0.1226
10816SOL    HW144921   3.575   7.617   6.268 -1.4281 -1.9649  0.0208
10816SOL    HW244922   3.564   7.514   6.394  2.0863 -1.1565  1.0520
10817SOL     OW44923   5.403   3.809   7.695  0.2819  0.3202 -0.5543
10817SOL    HW144924   5.434   3.806   7.790  1.0520  0.2253 -0.8078
10817SOL    HW244925   5.352   3.894   7.680 -1.9624 -0.7954  0.5888
10818SOL     OW44926   8.454   1.921   8.376  0.1749 -0.5728  0.2687
10818SOL    HW144927   8.532   1.945   8.434 -0.1185 -1.0568  0.8786
10818SOL    HW244928   8.453   1.822   8.361  0.3538 -0.4292 -0.7314
10819SOL     OW44929   5.303   8.339   1.161  0.2548  0.1868  0.0854
10819SOL    HW144930   5.388   8.382   1.131  0.1392  0.0605 -0.4276
10819SOL    HW244931   5.323   8.271   1.232  0.6898 -0.5565 -0.7459
10820SOL     OW44932   8.178   6.346   5.172 -0.3718  0.0348 -0.2611
10820SOL    HW144933   8.147   6.372   5.081  2.5505  2.4118 -0.6742
10820SOL    HW244934   8.158   6.420   5.237  1.6758  0.3731  0.0359
10821SOL     OW44935   2.866   3.362   2.114  0.4979  0.1366  0.9143
10821SOL    HW144936   2.905   3.403   2.196  0.2020  1.0689  0.5942
10821SOL    HW244937   2.792   3.300   2.140  0.2260  0.6325  1.3451
10822SOL     OW44938   5.874   4.594   5.345  0.6597  0.1156  0.0216
10822SOL    HW144939   5.967   4.586   5.379  0.7542  1.4849  0.1079
10822SOL    HW244940   5.830   4.504   5.348  1.0451 -0.0271  2.5903
10823SOL     OW44941   7.305   0.743   7.661 -0.2274 -0.3793 -0.0123
10823SOL    HW144942   7.312   0.766   7.564  0.3768 -0.6178 -0.0260
10823SOL    HW244943   7.299   0.826   7.715  1.3714 -0.1949 -0.1057
10824SOL     OW44944   0.459   2.282   8.340  0.7826  0.4208  0.0713
10824SOL    HW144945   0.457   2.267   8.241 -0.4336  1.7859 -0.1234
10824SOL    HW244946   0.530   2.225   8.381 -0.9909 -2.7814 -1.1314
10825SOL     OW44947   2.100   7.256   5.566 -0.1087 -0.0319  0.1944
10825SOL    HW144948   2.057   7.197   5.498 -2.8479 -0.0280  1.8314
10825SOL    HW244949   2.182   7.298   5.527  1.1249 -3.7680 -1.4614
10826SOL     OW44950   6.077   3.087   2.745 -0.0543 -0.1027 -0.8413
10826SOL    HW144951   6.038   3.017   2.805 -0.8754 -0.2596 -1.5535
10826SOL    HW244952   6.120   3.043   2.666  0.8374  0.1172 -0.4924
10827SOL     OW44953   1.239   6.329   5.840 -0.8820  0.1503  0.2460
10827SOL    HW144954   1.199   6.418   5.816 -0.5396  0.3229  0.3124
10827SOL    HW244955   1.257   6.326   5.938  2.3104  1.3376 -0.2564
10828SOL     OW44956   1.697   2.943   4.256 -0.3659  0.5275  0.2964
10828SOL    HW144957   1.704   3.041   4.274  1.4126  0.4529  0.1245
10828SOL    HW244958   1.682   2.895   4.343  0.8053  0.7813  0.6463
10829SOL     OW44959   3.506   3.362   0.546 -0.0159  0.6485 -0.3157
10829SOL    HW144960   3.593   3.402   0.573 -0.2021  0.5461  0.4492
10829SOL    HW244961   3.475   3.300   0.618  0.0686 -0.5472 -1.2929
10830SOL     OW44962   4.249   7.093   1.518  0.5800  0.1561  0.5785
10830SOL    HW144963   4.299   7.179   1.500  1.6803 -0.7441 -0.8141
10830SOL    HW244964   4.161   7.096   1.470  0.2647  0.8269  1.1866
10831SOL     OW44965   4.006   4.765   1.388  0.4058  0.4253  0.0372
10831SOL    HW144966   3.925   4.775   1.446  1.3839  0.4695  1.4180
10831SOL    HW244967   4.042   4.856   1.365 -0.0632  0.4106 -0.7577
10832SOL     OW44968   4.280   0.476   6.299  0.0116 -0.3490 -0.0553
10832SOL    HW144969   4.273   0.514   6.392  0.1538  1.0594 -0.5975
10832SOL    HW244970   4.212   0.520   6.240  0.3693 -0.7543 -0.7705
10833SOL     OW44971   8.930   7.385   6.819  0.7650 -0.0658 -0.4727
10833SOL    HW144972   8.956   7.437   6.900  0.0338 -1.4233  0.6592
10833SOL    HW244973   8.979   7.297   6.818 -0.8066 -0.9713 -0.3512
10834SOL     OW44974   1.533   1.211   5.510 -0.1808 -0.4226 -0.0051
10834SOL    HW144975   1.540   1.140   5.581  1.3265 -1.6297 -1.3272
10834SOL    HW244976   1.488   1.173   5.429  0.7754  0.0856 -0.7764
10835SOL     OW44977   4.752   8.080   0.039  0.0152  0.2798 -0.4638
10835SOL    HW144978   4.757   7.988   0.080  1.6018 -0.2607 -1.7848
10835SOL    HW244979   4.658   8.101   0.015 -0.7805  0.1275  2.3535
10836SOL     OW44980   4.075   2.285   5.723  0.1509  0.5406 -0.2621
10836SOL    HW144981   4.022   2.347   5.665 -0.5160  0.5238  0.3291
10836SOL    HW244982   4.018   2.209   5.753  0.9789 -0.3792 -1.0064
10837SOL     OW44983   1.724   2.508   6.480 -0.2920 -0.6055 -0.2165
10837SOL    HW144984   1.724   2.421   6.529 -2.6690  0.1094  1.1196
10837SOL    HW244985   1.656   2.569   6.520  0.9914  1.6948 -1.4680
10838SOL     OW44986   6.837   4.723   3.556 -0.3930  0.0555  0.4641
10838SOL    HW144987   6.768   4.676   3.611  1.1597 -0.1756  2.2643
10838SOL    HW244988   6.797   4.751   3.469 -2.9454  0.5300  1.7514
10839SOL     OW44989   1.473   5.864   7.766  0.1713  0.4855 -0.5643
10839SOL    HW144990   1.476   5.957   7.801  1.3732  0.0415  0.5205
10839SOL    HW244991   1.487   5.799   7.840 -0.9730 -0.5894 -1.2552
10840SOL     OW44992   2.459   2.029   2.677 -0.0756 -0.1302  0.1416
10840SOL    HW144993   2.433   1.982   2.762  0.4324 -1.7747 -0.5949
10840SOL    HW244994   2.423   2.123   2.679 -0.9145 -0.4592  1.7353
10841SOL     OW44995   6.935   4.920   0.100  0.6529 -0.2190  0.3545
10841SOL    HW144996   6.861   4.969   0.147  0.0480 -1.0784  0.3151
10841SOL    HW244997   7.016   4.979   0.095  0.0383  0.6594  0.5771
10842SOL     OW44998   8.574   5.198   4.071  0.1432  0.2536 -0.1405
10842SOL    HW144999   8.655   5.157   4.029  0.3207  1.3970 -0.9332
10842SOL    HW245000   8.492   5.153   4.034  0.4279 -2.0918  1.9383
10843SOL     OW45001   1.159   3.377   5.850  0.0353  0.2822 -0.1980
10843SOL    HW145002   1.218   3.458   5.863 -0.0835  0.0862  1.7376
10843SOL    HW245003   1.216   3.298   5.830  0.2874  0.4822 -0.2763
10844SOL     OW45004   1.667   6.823   6.561 -0.5837 -0.1119 -0.1538
10844SOL    HW145005   1.652   6.914   6.525  1.6537 -0.1718 -1.2699
10844SOL    HW245006   1.651   6.755   6.490  0.7779 -0.4091 -0.1848
10845SOL     OW45007   5.415   5.647   2.336 -0.0577  0.3916  0.1790
10845SOL    HW145008   5.514   5.655   2.346  0.1243 -1.9561  0.4857
10845SOL    HW245009   5.384   5.700   2.257  1.4382  1.0347  0.0162
10846SOL     OW45010   8.153   5.346   8.574 -0.3846 -0.1515  0.0791
10846SOL    HW145011   8.192   5.257   8.597  0.7905  0.3120 -0.0719
10846SOL    HW245012   8.063   5.334   8.533  0.8764 -1.4264 -2.3727
10847SOL     OW45013   1.492   5.141   5.335 -0.9531  0.1809 -0.1117
10847SOL    HW145014   1.570   5.100   5.382 -0.9294 -0.1182 -0.4050
10847SOL    HW245015   1.481   5.236   5.363 -0.4249  0.2503 -0.1414
10848SOL     OW45016   7.342   0.969   7.915  0.0305  0.1117  0.0041
10848SOL    HW145017   7.260   1.017   7.945  0.8748  0.6506  1.4553
10848SOL    HW245018   7.400   1.032   7.864 -0.2051 -0.1352 -0.5750
10849SOL     OW45019   8.245   0.116   4.462 -0.2341 -1.1077  0.3273
10849SOL    HW145020   8.148   0.125   4.480 -0.0566  0.1370  0.6944
10849SOL    HW245021   8.264   0.024   4.426 -1.3073 -1.9113  1.7604
10850SOL     OW45022   3.542   8.560   6.225 -0.4333  0.1395 -0.0187
10850SOL    HW145023   3.615   8.553   6.293 -0.0004 -1.7272 -0.6325
10850SOL    HW245024   3.556   8.490   6.154 -2.2451  0.4387 -0.6951
10851SOL     OW45025   2.085   1.197   2.454 -0.2322 -0.0611 -0.1663
10851SOL    HW145026   2.119   1.279   2.498  0.3680  0.4695 -1.5845
10851SOL    HW245027   2.157   1.127   2.453 -0.6996 -0.5694  0.9227
10852SOL     OW45028   8.814   5.283   5.064 -0.1401 -0.3135  0.8900
10852SOL    HW145029   8.881   5.341   5.111 -0.1997  0.7347 -0.3022
10852SOL    HW245030   8.854   5.193   5.047  0.9461  0.2829  0.2440
10853SOL     OW45031   5.427   1.399   6.209 -0.6843 -0.0173 -0.3319
10853SOL    HW145032   5.520   1.362   6.210 -0.9081 -0.6268 -1.1660
10853SOL    HW245033   5.366   1.334   6.254 -0.5903  0.7120  0.8546
10854SOL     OW45034   1.425   7.279   7.684 -1.1009  0.2006  1.0707
10854SOL    HW145035   1.493   7.308   7.751 -0.1335  0.4937 -0.0164
10854SOL    HW245036   1.425   7.342   7.606 -1.5427 -0.6614  0.3544
10855SOL     OW45037   0.494   4.573   5.034 -0.1497  0.5953  0.0285
10855SOL    HW145038   0.450   4.637   5.097  0.2223  1.0739 -0.1955
10855SOL    HW245039   0.426   4.534   4.972 -0.2569  1.3683 -0.3449
10856SOL     OW45040   2.854   7.186   2.975 -0.0607 -0.2156  0.0917
10856SOL    HW145041   2.853   7.275   3.021 -1.9249  0.3342 -0.9928
10856SOL    HW245042   2.892   7.117   3.038  0.4905  1.1453  1.2837
10857SOL     OW45043   7.275   2.521   0.032 -0.0056 -0.2183 -0.0772
10857SOL    HW145044   7.201   2.585   0.009  1.8723  1.1133 -2.5973
10857SOL    HW245045   7.362   2.570   0.034  1.4089 -2.5901 -1.5816
10858SOL     OW45046   1.284   1.873   7.894 -0.7113  0.6641 -0.6501
10858SOL    HW145047   1.219   1.905   7.825 -1.3883 -0.0885 -0.3640
10858SOL    HW245048   1.286   1.773   7.894  0.6922  0.6762 -0.8867
10859SOL     OW45049   8.866   1.067   0.528 -0.1890  0.5419 -0.2390
10859SOL    HW145050   8.937   1.104   0.588  1.1818  1.1076 -2.1412
10859SOL    HW245051   8.868   1.115   0.441 -3.1003  0.7222 -0.2661
10860SOL     OW45052   1.242   5.070   8.758  0.6142  0.4323 -0.1869
10860SOL    HW145053   1.335   5.074   8.722  0.8189  1.2996  0.4293
10860SOL    HW245054   1.239   5.009   8.836  0.8503  1.0716  0.3256
10861SOL     OW45055   1.426   7.867   2.276 -0.0713  0.8417 -0.6985
10861SOL    HW145056   1.478   7.806   2.217  0.0548  0.1031  0.1643
10861SOL    HW245057   1.346   7.818   2.311 -1.7189  2.1509 -2.5205
10862SOL     OW45058   4.137   0.358   2.734 -0.0261 -0.2277 -0.2576
10862SOL    HW145059   4.190   0.400   2.808  0.3624 -0.5989 -0.3208
10862SOL    HW245060   4.041   0.352   2.760 -0.1142  0.8501 -0.3126
10863SOL     OW45061   0.812   0.790   5.365 -0.3196 -0.8170 -0.4216
10863SOL    HW145062   0.719   0.819   5.389  0.5117  0.5765  1.2129
10863SOL    HW245063   0.865   0.776   5.449  1.2755 -0.4959 -1.3602
10864SOL     OW45064   8.580   5.820   0.342 -0.2320  0.2152 -0.0011
10864SOL    HW145065   8.616   5.787   0.430 -0.1332  0.8524  0.1983
10864SOL    HW245066   8.621   5.767   0.268 -0.4455 -0.4453  0.3469
10865SOL     OW45067   0.237   2.408   3.648 -0.0389 -0.1736  0.2161
10865SOL    HW145068   0.302   2.426   3.575  0.5020  0.0034  0.7345
10865SOL    HW245069   0.285   2.402   3.735 -0.8682  1.3724  0.8086
10866SOL     OW45070   3.198   8.808   7.044 -0.5892  0.2463 -0.5752
10866SOL    HW145071   3.256   8.751   7.101  1.1958  0.9717 -1.6314
10866SOL    HW245072   3.233   8.809   6.950 -0.2933  3.4578 -0.4827
10867SOL     OW45073   4.953   3.180   7.311  0.5331 -0.3709 -0.3784
10867SOL    HW145074   4.965   3.166   7.213  0.7975 -1.6753 -0.1644
10867SOL    HW245075   5.038   3.156   7.359 -0.3889 -2.1904  0.4001
10868SOL     OW45076   7.778   3.566   1.803  0.3099  0.6892 -0.3547
10868SOL    HW145077   7.782   3.476   1.761  0.6813 -0.3136  1.7603
10868SOL    HW245078   7.855   3.577   1.866 -0.3906  2.0288  0.2887
10869SOL     OW45079   5.268   8.081   0.279  0.3290 -0.2669  0.3689
10869SOL    HW145080   5.332   8.129   0.339  0.7985 -0.0979 -0.2586
10869SOL    HW245081   5.254   8.135   0.195 -1.7298  0.3930  1.0969
10870SOL     OW45082   6.753   3.307   2.327 -0.5934  0.3871  0.3169
10870SOL    HW145083   6.713   3.383   2.378 -0.6615  0.7042 -0.2014
10870SOL    HW245084   6.742   3.324   2.229 -0.9975 -0.4997  0.2049
10871SOL     OW45085   4.391   5.081   4.052 -0.8578  0.0468 -0.0214
10871SOL    HW145086   4.366   5.000   4.105  1.1020 -0.2567  0.4609
10871SOL    HW245087   4.308   5.127   4.021 -2.0073 -1.0585  1.3475
10872SOL     OW45088   3.658   1.955   0.233  0.0718 -0.5340  0.4046
10872SOL    HW145089   3.602   2.036   0.216 -0.1683 -0.7340  0.2254
10872SOL    HW245090   3.742   1.961   0.180  1.5780  1.1428  2.9286
10873SOL     OW45091   2.088   6.721   2.889  0.0618  0.5703 -0.1103
10873SOL    HW145092   2.180   6.747   2.862  0.0637 -0.4338 -1.0925
10873SOL    HW245093   2.088   6.689   2.984  1.0796 -1.2956 -0.7323
10874SOL     OW45094   6.026   3.904   5.225  0.0152 -0.2363  0.6275
10874SOL    HW145095   5.981   3.826   5.270  0.3113 -0.0777  1.2095
10874SOL    HW245096   5.964   3.944   5.157 -0.2308 -0.8294  0.4982
10875SOL     OW45097   3.862   4.941   7.368 -0.8283  0.3051 -0.1394
10875SOL    HW145098   3.903   4.894   7.447  1.0832 -0.1758 -1.3843
10875SOL    HW245099   3.902   5.033   7.360 -0.1886 -0.0600 -1.1922
10876SOL     OW45100   1.998   7.023   6.083 -0.1276 -0.0602  0.2982
10876SOL    HW145101   2.016   7.043   5.987 -3.3634 -2.3040 -0.8551
10876SOL    HW245102   2.049   7.087   6.140  1.5141  1.6027 -2.8890
10877SOL     OW45103   3.929   1.504   7.780 -0.4977  0.0117 -0.0352
10877SOL    HW145104   3.878   1.479   7.698  1.0189  1.6209 -1.5022
10877SOL    HW245105   4.024   1.472   7.772 -0.3862 -0.0220  1.2101
10878SOL     OW45106   3.445   8.523   2.008  0.2516 -1.0610 -0.0042
10878SOL    HW145107   3.455   8.511   1.909 -0.1569 -0.0372 -0.1773
10878SOL    HW245108   3.400   8.611   2.026  3.4904  0.4514  1.2025
10879SOL     OW45109   2.294   6.492   7.530  0.5210 -0.0542  0.5230
10879SOL    HW145110   2.366   6.493   7.461  1.5786  0.0195  1.6125
10879SOL    HW245111   2.293   6.579   7.579  0.5801 -0.5463  1.4150
10880SOL     OW45112   1.227   4.754   4.890  0.6649 -0.5211  0.0774
10880SOL    HW145113   1.224   4.728   4.986 -0.5068 -0.3521  0.0936
10880SOL    HW245114   1.203   4.675   4.833  1.4075 -0.6368 -0.0790
10881SOL     OW45115   5.716   2.390   7.697  0.1788  0.1852 -0.5894
10881SOL    HW145116   5.812   2.376   7.720  0.4103  0.5702 -1.2751
10881SOL    HW245117   5.668   2.430   7.775  0.4886 -0.3679 -0.1145
10882SOL     OW45118   4.877   1.427   3.706  0.0819  0.3806  0.0269
10882SOL    HW145119   4.857   1.436   3.803  1.0334  1.8773  0.1012
10882SOL    HW245120   4.791   1.429   3.654 -0.3401  0.8725  0.7465
10883SOL     OW45121   6.316   5.232   7.191  0.7301  0.3739  0.0242
10883SOL    HW145122   6.281   5.306   7.133  0.9271 -0.3833 -1.0703
10883SOL    HW245123   6.413   5.249   7.211  0.8393  0.2818 -0.4266
10884SOL     OW45124   5.908   5.593   7.713  0.2042  0.5922  0.0275
10884SOL    HW145125   5.874   5.627   7.800  0.1280  0.1032  0.1886
10884SOL    HW245126   6.008   5.594   7.713  0.2148 -0.7561  0.6494
10885SOL     OW45127   0.579   3.298   8.466  0.2875  0.2998  0.1589
10885SOL    HW145128   0.580   3.304   8.366  2.3499 -0.2991  0.1189
10885SOL    HW245129   0.542   3.210   8.493  1.5490 -0.3475 -0.1574
10886SOL     OW45130   1.864   3.388   3.123  0.0278 -0.1426  0.3056
10886SOL    HW145131   1.926   3.403   3.200  0.1457 -0.3491  0.2521
10886SOL    HW245132   1.917   3.381   3.039 -0.0865 -0.0975  0.2303
10887SOL     OW45133   3.649   3.945   3.228 -0.1531  0.2980 -0.2316
10887SOL    HW145134   3.725   4.001   3.195  0.7493 -0.7069  0.0839
10887SOL    HW245135   3.681   3.888   3.304 -1.1227 -0.4192 -0.3498
10888SOL     OW45136   2.845   2.563   4.289  0.1325  0.2635  0.0812
10888SOL    HW145137   2.837   2.583   4.386 -0.3805 -0.8815  0.2906
10888SOL    HW245138   2.759   2.585   4.243  0.5168  1.2089 -0.1974
10889SOL     OW45139   7.435   4.065   5.972  0.0467 -0.0458 -0.5640
10889SOL    HW145140   7.437   4.102   6.065 -0.7276 -2.7945  0.6212
10889SOL    HW245141   7.348   4.018   5.958  1.4973 -2.5833 -1.4362
10890SOL     OW45142   7.031   3.772   7.529  0.3206 -0.3963 -0.3789
10890SOL    HW145143   7.048   3.723   7.444  0.7354 -1.9915  0.5978
10890SOL    HW245144   7.118   3.806   7.565  0.4374 -1.5938  0.4983
10891SOL     OW45145   1.380   3.908   3.788 -0.6368 -0.6809  0.1974
10891SOL    HW145146   1.300   3.967   3.777 -0.1006 -0.0309 -0.2454
10891SOL    HW245147   1.457   3.947   3.737  0.7676  0.2097  2.9017
10892SOL     OW45148   7.248   6.929   3.421 -0.2517  0.3798 -0.3251
10892SOL    HW145149   7.202   7.004   3.470 -1.1786  0.6686 -1.6003
10892SOL    HW245150   7.179   6.865   3.388  0.5216 -0.8808  0.4842
10893SOL     OW45151   3.143   8.274   2.586  0.8792 -0.4950  0.1550
10893SOL    HW145152   3.200   8.237   2.513  0.3878  1.3471 -1.1863
10893SOL    HW245153   3.148   8.374   2.585 -2.3176 -0.3060  0.0453
10894SOL     OW45154   8.805   2.156   4.506  0.3933  0.4023 -0.2455
10894SOL    HW145155   8.868   2.193   4.438  0.0360  0.7741 -0.3744
10894SOL    HW245156   8.857   2.119   4.583  0.8301 -0.8402 -1.1294
10895SOL     OW45157   2.847   4.071   4.479  0.1715 -0.2746 -0.0009
10895SOL    HW145158   2.814   4.163   4.458  1.0763  0.1370  0.3477
10895SOL    HW245159   2.864   4.063   4.577  1.8388 -0.2234 -0.2740
10896SOL     OW45160   0.597   3.218   4.788 -0.0808 -0.9871  0.7178
10896SOL    HW145161   0.656   3.287   4.746  1.6441 -1.5444  2.1921
10896SOL    HW245162   0.509   3.259   4.812  0.0629  0.1021 -0.5661
10897SOL     OW45163   1.424   3.616   4.814  0.3701  0.3395  0.3266
10897SOL    HW145164   1.469   3.681   4.875  1.6596  0.0684 -0.3082
10897SOL    HW245165   1.335   3.591   4.851  1.0253  0.3733  1.9842
10898SOL     OW45166   4.688   1.834   7.574 -0.5087 -0.1241 -0.2921
10898SOL    HW145167   4.718   1.916   7.622  0.8625 -1.0262  0.4437
10898SOL    HW245168   4.632   1.859   7.496 -0.8439  1.4678  0.4510
10899SOL     OW45169   6.384   2.978   0.582  0.2738  0.3227  0.4542
10899SOL    HW145170   6.481   2.974   0.556  0.2586  1.9512  0.0517
10899SOL    HW245171   6.343   3.061   0.544 -1.5437 -0.8536 -0.1994
10900SOL     OW45172   3.989   5.491   3.440 -0.0274  0.3096  0.0387
10900SOL    HW145173   3.950   5.567   3.389  3.3575  2.2471  0.2071
10900SOL    HW245174   4.025   5.423   3.376  0.6396  0.8116 -0.1136
10901SOL     OW45175   3.701   7.953   0.870 -0.5129  0.0785 -0.1411
10901SOL    HW145176   3.748   7.988   0.950 -1.7942  1.4095  0.0583
10901SOL    HW245177   3.634   7.884   0.898 -0.9612  0.5439 -0.0561
10902SOL     OW45178   2.600   5.226   7.338 -0.0092  0.3707 -0.1275
10902SOL    HW145179   2.641   5.317   7.345 -0.7453  0.6153  1.1753
10902SOL    HW245180   2.501   5.234   7.334 -0.2287 -0.4716  2.6928
10903SOL     OW45181   0.315   6.630   6.803  0.2262 -0.4731  0.3497
10903SOL    HW145182   0.247   6.633   6.877 -1.2105 -0.2809 -0.9434
10903SOL    HW245183   0.367   6.716   6.803 -0.4848 -0.0339  0.4787
10904SOL     OW45184   0.335   2.317   7.404 -0.2207  0.1170  0.1043
10904SOL    HW145185   0.339   2.309   7.304  2.1863 -3.7615  0.4221
10904SOL    HW245186   0.247   2.284   7.436 -0.1918 -0.6936 -0.6129
10905SOL     OW45187   6.410   7.602   8.816 -0.5042 -0.3314 -0.1486
10905SOL    HW145188   6.470   7.523   8.808 -0.0864 -0.1121  0.7145
10905SOL    HW245189   6.376   7.628   8.726  0.5108 -0.6004 -0.6130
10906SOL     OW45190   3.346   3.391   8.633  0.1977 -0.2338  0.3693
10906SOL    HW145191   3.378   3.354   8.545  0.3741 -1.0450  0.7758
10906SOL    HW245192   3.246   3.390   8.634  0.1613  0.9830 -0.3314
10907SOL     OW45193   5.677   6.352   4.548  0.0385 -0.0173  0.1188
10907SOL    HW145194   5.735   6.280   4.512 -1.1053 -0.9697  0.1574
10907SOL    HW245195   5.605   6.312   4.605  0.4764  1.2924  1.6233
10908SOL     OW45196   7.868   5.641   5.523  0.1884 -0.0718  1.0308
10908SOL    HW145197   7.882   5.575   5.449 -0.5120  1.0261 -0.1000
10908SOL    HW245198   7.819   5.598   5.598 -0.2209 -0.8413  0.3196
10909SOL     OW45199   4.610   6.714   3.039  0.5932 -0.0841 -0.2459
10909SOL    HW145200   4.589   6.621   3.006 -1.3197 -0.1623  1.0703
10909SOL    HW245201   4.707   6.732   3.027  0.8824 -2.0138 -1.1429
10910SOL     OW45202   1.088   6.160   5.677 -0.1791  0.1335  0.2137
10910SOL    HW145203   1.013   6.128   5.734  0.7097 -0.6183  0.9598
10910SOL    HW245204   1.141   6.229   5.726  0.1200  0.0564  0.0020
10911SOL     OW45205   0.848   1.562   8.774 -0.5318  0.3529 -0.3015
10911SOL    HW145206   0.784   1.496   8.813  0.4621 -0.1397  0.5486
10911SOL    HW245207   0.832   1.652   8.814  0.8301 -0.2551  1.7308
10912SOL     OW45208   8.116   5.141   2.002 -0.4791 -0.6712 -0.5251
10912SOL    HW145209   8.075   5.137   1.911  1.4603  0.9094 -1.4768
10912SOL    HW245210   8.213   5.120   1.997 -0.1557  0.3322  1.0630
10913SOL     OW45211   3.413   5.371   3.377  0.2183  0.0170  0.3566
10913SOL    HW145212   3.457   5.296   3.428 -3.5993 -1.2660  1.9398
10913SOL    HW245213   3.447   5.458   3.411  0.4542 -0.8993  2.5522
10914SOL     OW45214   0.888   3.090   5.607 -0.5849 -0.1039  0.3388
10914SOL    HW145215   0.838   3.116   5.690 -0.9127  0.8157 -0.1373
10914SOL    HW245216   0.955   3.161   5.585  0.6204 -1.1072  0.7067
10915SOL     OW45217   5.138   1.694   8.318  0.1502 -0.2507  0.0683
10915SOL    HW145218   5.196   1.625   8.274  0.6028 -1.4532  2.4607
10915SOL    HW245219   5.079   1.649   8.385 -2.2689  1.2054 -0.9996
10916SOL     OW45220   4.221   8.298   7.827  0.1074  0.5091 -0.1353
10916SOL    HW145221   4.269   8.341   7.904  1.0224 -1.2210  0.2869
10916SOL    HW245222   4.143   8.246   7.861  0.5727 -0.3454 -0.3476
10917SOL     OW45223   8.087   1.044   7.462  0.1061  0.1591  0.2036
10917SOL    HW145224   8.141   1.121   7.428 -0.0912 -0.1078 -0.7375
10917SOL    HW245225   7.993   1.074   7.477  0.1784  0.2595  0.4654
10918SOL     OW45226   4.989   6.010   5.011 -0.9812 -0.0345 -0.2880
10918SOL    HW145227   5.034   5.956   4.940  0.3423 -1.3294  1.4932
10918SOL    HW245228   4.938   5.949   5.072 -1.6537  0.9993  0.2006
10919SOL     OW45229   2.193   6.492   0.770 -0.3841  0.9767  0.2741
10919SOL    HW145230   2.103   6.453   0.789 -0.5370  1.6848  1.0273
10919SOL    HW245231   2.225   6.461   0.680  0.0700 -1.9561  1.3839
10920SOL     OW45232   6.614   3.971   7.082  0.3031 -0.3233 -0.4015
10920SOL    HW145233   6.532   3.929   7.043  0.9658 -1.1315 -0.9557
10920SOL    HW245234   6.591   4.017   7.167 -0.7116 -0.6139 -0.5112
10921SOL     OW45235   7.744   6.578   6.422 -0.0074  0.2574 -0.4719
10921SOL    HW145236   7.687   6.554   6.344 -2.3074  0.2676  1.1403
10921SOL    HW245237   7.699   6.650   6.475  1.8312  0.7209  0.5026
10922SOL     OW45238   8.604   1.572   4.727 -0.3725 -0.3015 -0.9351
10922SOL    HW145239   8.512   1.611   4.725 -0.1216  0.4150  0.9246
10922SOL    HW245240   8.671   1.645   4.739  0.3738 -0.9180 -1.3440
10923SOL     OW45241   6.146   1.345   2.092  0.5424  0.5748  0.1868
10923SOL    HW145242   6.111   1.304   2.008 -0.9234  2.6984 -0.2711
10923SOL    HW245243   6.107   1.436   2.104  1.5200  0.7142  2.6583
10924SOL     OW45244   6.361   4.866   2.186  0.3696 -0.2258  0.1465
10924SOL    HW145245   6.264   4.883   2.168  0.5085  1.5737  0.9612
10924SOL    HW245246   6.385   4.903   2.276  1.4916 -1.9693  0.5936
10925SOL     OW45247   2.335   4.026   4.320 -0.1643 -0.2186 -0.1297
10925SOL    HW145248   2.425   3.992   4.291 -0.0691 -0.2479  0.2003
10925SOL    HW245249   2.327   4.019   4.419 -0.3301  0.2616 -0.1069
10926SOL     OW45250   4.968   2.411   1.423  0.8146 -0.0859 -0.3233
10926SOL    HW145251   5.048   2.396   1.480  0.0026  1.0385  1.1356
10926SOL    HW245252   4.926   2.324   1.400  1.3510 -0.5602  0.4876
10927SOL     OW45253   4.091   5.196   6.106 -0.2709 -0.7923 -0.1293
10927SOL    HW145254   4.054   5.191   6.199  0.6449  1.1311  0.3515
10927SOL    HW245255   4.015   5.200   6.041 -0.9327  0.8314  0.7095
10928SOL     OW45256   7.884   2.742   1.624 -0.2602 -0.0075 -0.2916
10928SOL    HW145257   7.874   2.668   1.558  0.5403 -1.5209  1.2409
10928SOL    HW245258   7.976   2.741   1.663 -0.0668  2.1316 -0.6249
10929SOL     OW45259   6.526   5.409   6.063  0.2805 -0.1727 -0.1484
10929SOL    HW145260   6.576   5.496   6.062 -0.1177  0.0487 -1.3382
10929SOL    HW245261   6.590   5.333   6.055  0.6163  0.0121  0.7288
10930SOL     OW45262   2.850   4.414   2.677  0.0448 -0.5150 -0.3751
10930SOL    HW145263   2.923   4.346   2.673  1.1339  0.7157 -1.4140
10930SOL    HW245264   2.869   4.489   2.615  0.0863  1.9968  2.5229
10931SOL     OW45265   2.703   3.884   3.509 -0.1316 -0.1397  0.4308
10931SOL    HW145266   2.749   3.806   3.550 -0.4221 -0.3392  0.3773
10931SOL    HW245267   2.770   3.940   3.459  0.1477 -0.1166  0.8313
10932SOL     OW45268   1.017   3.891   3.905 -0.6761 -0.0105  0.6868
10932SOL    HW145269   1.018   3.792   3.919  1.3607 -0.2091 -0.5159
10932SOL    HW245270   1.061   3.935   3.982 -1.2293 -0.0728  1.0391
10933SOL     OW45271   5.455   4.237   3.227  0.1112 -0.6776 -0.3553
10933SOL    HW145272   5.497   4.155   3.190 -0.0018 -0.9189  0.0412
10933SOL    HW245273   5.514   4.276   3.298 -0.0598 -0.6868 -0.2074
10934SOL     OW45274   3.643   4.092   5.993  0.4343  0.0450  0.0420
10934SOL    HW145275   3.724   4.113   5.938  0.0394  0.7182 -0.2928
10934SOL    HW245276   3.562   4.088   5.933  0.0869  0.2468  0.4985
10935SOL     OW45277   4.436   1.782   5.674 -0.1931 -0.2164  0.0398
10935SOL    HW145278   4.450   1.791   5.773  0.6431  1.5158 -0.2155
10935SOL    HW245279   4.451   1.687   5.647  0.5950 -0.5075  1.4381
10936SOL     OW45280   7.866   8.373   0.907 -0.0337  0.1077 -0.6473
10936SOL    HW145281   7.944   8.409   0.958 -0.8734  0.0702  0.7000
10936SOL    HW245282   7.891   8.285   0.866 -0.3342 -1.5833  2.5678
10937SOL     OW45283   8.270   1.044   5.754  0.0686  0.5447 -0.0650
10937SOL    HW145284   8.279   0.967   5.817  0.8225  0.7649  0.1010
10937SOL    HW245285   8.291   1.013   5.661  0.7588  0.6416  0.0591
10938SOL     OW45286   4.520   8.022   6.757  0.5337 -0.5288 -0.0646
10938SOL    HW145287   4.425   7.992   6.756  0.3874 -0.1221  0.9444
10938SOL    HW245288   4.573   7.968   6.692 -0.2752 -1.1183 -0.2402
10939SOL     OW45289   3.047   0.349   6.462 -0.8331  0.2263  0.1781
10939SOL    HW145290   3.049   0.291   6.381  0.8045  0.7636 -0.1748
10939SOL    HW245291   3.105   0.310   6.534  0.3738  1.4660 -0.1065
10940SOL     OW45292   0.959   8.902   1.189 -0.3606 -0.2244 -0.1780
10940SOL    HW145293   0.996   8.844   1.261  0.5374  0.2324 -0.2609
10940SOL    HW245294   0.953   8.850   1.103  0.3050 -0.2486 -0.2177
10941SOL     OW45295   2.299   3.432   7.441 -0.4479 -0.5389  0.3671
10941SOL    HW145296   2.214   3.484   7.430 -0.2730  0.1100  2.0302
10941SOL    HW245297   2.284   3.356   7.503  0.1198 -0.5844  0.4478
10942SOL     OW45298   2.272   4.572   6.329  0.3350  0.3857  0.4521
10942SOL    HW145299   2.211   4.647   6.303  0.6411  0.8605  1.0909
10942SOL    HW245300   2.313   4.592   6.417  1.5629  0.1506 -0.0616
10943SOL     OW45301   5.712   5.652   6.898 -0.3224  0.1847  0.2194
10943SOL    HW145302   5.652   5.620   6.971 -0.3142 -2.4966 -0.8940
10943SOL    HW245303   5.791   5.698   6.938  0.4113 -2.5076  1.9779
10944SOL     OW45304   5.941   4.098   5.495  0.2308 -0.0516 -0.1102
10944SOL    HW145305   6.032   4.139   5.502 -0.3695  1.4913 -1.2925
10944SOL    HW245306   5.902   4.117   5.405 -0.9953 -1.2782  0.1466
10945SOL     OW45307   2.894   1.817   7.490 -0.1918  0.7037  0.1704
10945SOL    HW145308   2.923   1.910   7.511  0.0132  1.0623 -1.6498
10945SOL    HW245309   2.829   1.786   7.560  1.4689  1.3597  2.0294
10946SOL     OW45310   5.269   1.070   1.411 -0.2224  0.4085  0.1137
10946SOL    HW145311   5.312   0.981   1.398  1.6089  1.5806 -2.3653
10946SOL    HW245312   5.322   1.124   1.476 -0.1150  0.4774 -0.0316
10947SOL     OW45313   0.814   4.242   0.290 -0.3237  0.5494  0.2322
10947SOL    HW145314   0.752   4.315   0.319 -0.4872  1.6764 -2.7859
10947SOL    HW245315   0.772   4.190   0.217  1.5018  0.0875 -0.5166
10948SOL     OW45316   3.551   8.539   0.924 -0.7003  0.0577 -0.8007
10948SOL    HW145317   3.574   8.590   1.007  0.5268  0.1231 -1.1737
10948SOL    HW245318   3.479   8.588   0.875  1.1229  1.9836 -1.6459
10949SOL     OW45319   2.002   5.479   6.996  0.6167 -0.2206 -0.4703
10949SOL    HW145320   2.077   5.433   7.043  1.9079  0.7624 -1.4866
10949SOL    HW245321   2.018   5.578   6.998 -1.7686  0.1432  1.1252
10950SOL     OW45322   1.786   2.481   3.155 -0.3467  1.1818  0.8987
10950SOL    HW145323   1.750   2.427   3.232 -0.7234  2.5346  1.6764
10950SOL    HW245324   1.715   2.488   3.085 -0.5584  1.3132  1.1258
10951SOL     OW45325   8.298   6.220   8.361  0.4144 -0.5153 -0.2881
10951SOL    HW145326   8.276   6.124   8.344 -0.8910 -0.3804  0.6285
10951SOL    HW245327   8.300   6.237   8.459  0.2994  0.4769 -0.4518
10952SOL     OW45328   0.582   4.602   8.868 -0.3411  0.1407 -0.0604
10952SOL    HW145329   0.633   4.541   8.807 -1.6743 -0.0236 -1.0350
10952SOL    HW245330   0.640   4.629   8.945  1.2721  0.1180 -1.2525
10953SOL     OW45331   2.567   8.867   2.387  0.1074 -0.6536 -0.3745
10953SOL    HW145332   2.495   8.937   2.385 -0.6890 -1.4861 -0.9217
10953SOL    HW245333   2.561   8.810   2.305  1.0353 -1.0885 -0.1478
10954SOL     OW45334   4.787   6.677   3.410  0.5873 -0.6391  0.4119
10954SOL    HW145335   4.749   6.585   3.414  1.1973 -0.8376  2.6950
10954SOL    HW245336   4.881   6.673   3.376  1.0338 -1.0324  1.6498
10955SOL     OW45337   3.999   7.031   1.978  0.3127  0.3551 -0.8952
10955SOL    HW145338   4.076   7.040   2.042 -0.0684 -1.2649 -0.1774
10955SOL    HW245339   3.974   7.121   1.944  2.0471  0.9914 -0.5634
10956SOL     OW45340   8.896   0.773   6.223 -0.0609 -0.3590  0.1202
10956SOL    HW145341   8.808   0.749   6.182  0.2287 -1.1798 -0.0510
10956SOL    HW245342   8.884   0.847   6.289 -0.5278  1.0142 -1.4827
10957SOL     OW45343   8.951   5.302   3.240 -0.3245 -0.7098  0.3759
10957SOL    HW145344   9.000   5.356   3.308  1.8459  0.4462 -2.0078
10957SOL    HW245345   8.878   5.357   3.199  0.6703 -0.1529 -0.7060
10958SOL     OW45346   2.102   3.532   1.711 -0.3556  0.2034  0.1328
10958SOL    HW145347   2.134   3.572   1.797  1.9095 -0.4958 -0.3446
10958SOL    HW245348   2.029   3.466   1.730 -0.7171  0.9396  1.3842
10959SOL     OW45349   0.808   6.481   2.284 -0.4340 -0.0988  0.5129
10959SOL    HW145350   0.863   6.405   2.319  1.5492  1.2410  0.3829
10959SOL    HW245351   0.834   6.565   2.332  0.8846  1.3998 -2.6740
10960SOL     OW45352   3.839   1.162   5.220  0.1059 -0.0515 -0.3610
10960SOL    HW145353   3.848   1.256   5.185  0.1656 -0.3994 -1.2831
10960SOL    HW245354   3.750   1.151   5.264  0.9791  1.1091  1.8079
10961SOL     OW45355   1.543   4.286   0.693 -0.1208 -0.5654  0.0776
10961SOL    HW145356   1.636   4.300   0.726  0.2384  0.3804 -1.3230
10961SOL    HW245357   1.527   4.189   0.678 -0.0086 -0.9428  2.1663
10962SOL     OW45358   6.447   7.863   6.799  0.1809  0.1250 -0.3987
10962SOL    HW145359   6.444   7.914   6.885  0.3596 -1.9998  0.8948
10962SOL    HW245360   6.355   7.834   6.774  0.3446 -0.7306 -0.0166
10963SOL     OW45361   4.998   1.807   1.893  0.5281 -0.5507  0.9282
10963SOL    HW145362   4.916   1.759   1.925  0.2717  0.6659  2.1695
10963SOL    HW245363   5.080   1.758   1.924  0.2686 -0.3154  1.9991
10964SOL     OW45364   1.407   8.624   3.163  0.5693 -0.2160 -0.0525
10964SOL    HW145365   1.472   8.700   3.165  1.7206 -1.1396 -1.2054
10964SOL    HW245366   1.433   8.555   3.230 -0.4407  0.3538  0.9514
10965SOL     OW45367   8.338   2.767   1.046  0.7099 -0.3251 -0.0488
10965SOL    HW145368   8.410   2.727   1.103  1.1358 -2.9165 -2.3164
10965SOL    HW245369   8.263   2.701   1.037 -1.2607  1.7119  0.9400
10966SOL     OW45370   3.905   1.598   2.302  0.0831  0.0554 -0.5609
10966SOL    HW145371   3.824   1.540   2.305  1.2363 -1.5790 -0.1002
10966SOL    HW245372   3.961   1.572   2.223  0.6519  0.4703 -0.2965
10967SOL     OW45373   1.796   7.534   6.812 -0.3570 -0.4936  0.6473
10967SOL    HW145374   1.782   7.582   6.898  0.3455 -1.9025  1.5801
10967SOL    HW245375   1.824   7.439   6.831  0.2198 -0.7016 -1.1201
10968SOL     OW45376   8.012   6.457   2.955  0.1642  0.3823 -0.0507
10968SOL    HW145377   8.083   6.455   2.885 -0.4506  1.5498 -0.7241
10968SOL    HW245378   7.923   6.474   2.911 -0.4941 -0.7440  0.8077
10969SOL     OW45379   2.689   7.893   8.582 -0.1538 -0.2985 -0.6434
10969SOL    HW145380   2.754   7.957   8.624  0.6328 -1.9279  0.6739
10969SOL    HW245381   2.599   7.937   8.574  0.3065  0.8766  0.5159
10970SOL     OW45382   1.093   1.616   4.278  0.0193 -0.2146  0.1969
10970SOL    HW145383   1.076   1.620   4.376  1.3868 -1.5574  0.4977
10970SOL    HW245384   1.086   1.709   4.240 -0.0849  0.3837  1.6314
10971SOL     OW45385   7.784   6.483   8.043  0.1170 -0.4277 -0.2009
10971SOL    HW145386   7.725   6.404   8.028 -2.2290  1.2774 -0.1298
10971SOL    HW245387   7.829   6.507   7.957  1.1203 -2.0125 -0.1462
10972SOL     OW45388   4.846   5.510   3.770 -0.4813 -0.0091 -0.3427
10972SOL    HW145389   4.858   5.457   3.685 -0.4638 -1.9345  0.8282
10972SOL    HW245390   4.926   5.497   3.828 -0.4253  1.4407 -0.0835
10973SOL     OW45391   7.677   3.550   0.274 -0.5360  0.3613  0.0132
10973SOL    HW145392   7.772   3.577   0.259 -0.3622  0.5076  1.3718
10973SOL    HW245393   7.652   3.479   0.208 -0.3338  2.2248 -2.1498
10974SOL     OW45394   7.141   8.712   1.906 -0.3000 -0.3019 -0.3533
10974SOL    HW145395   7.180   8.676   1.991 -0.8376 -1.1100 -0.4503
10974SOL    HW245396   7.072   8.781   1.928  2.9308  3.0727 -0.1854
10975SOL     OW45397   4.507   5.964   0.890 -0.1630 -0.2484  0.0272
10975SOL    HW145398   4.575   6.030   0.859  0.2088 -0.7532 -0.2546
10975SOL    HW245399   4.554   5.883   0.925 -0.5987 -0.1389  0.8812
10976SOL     OW45400   1.156   2.355   3.623  0.2365  0.0298  0.1884
10976SOL    HW145401   1.185   2.376   3.530 -1.2073  1.7189  0.1004
10976SOL    HW245402   1.092   2.279   3.623  1.1217 -0.7276 -0.0629
10977SOL     OW45403   1.629   2.020   3.633 -0.1289 -0.4108  0.2058
10977SOL    HW145404   1.557   2.055   3.573 -0.4715 -1.1601  0.1821
10977SOL    HW245405   1.703   2.088   3.639 -0.3808 -0.0651 -0.5547
10978SOL     OW45406   8.453   7.638   0.110 -0.3820  0.0125  0.0354
10978SOL    HW145407   8.495   7.727   0.095 -1.6827  0.7710  0.8069
10978SOL    HW245408   8.356   7.643   0.085 -0.4929 -1.1559  0.2031
10979SOL     OW45409   0.936   3.121   7.520  0.1363  0.2544 -0.6828
10979SOL    HW145410   0.904   3.140   7.613 -1.1217 -1.6157 -0.7071
10979SOL    HW245411   0.887   3.178   7.455 -0.3489  0.2130 -0.3590
10980SOL     OW45412   2.494   1.560   4.646 -0.1685  0.2875 -0.1430
10980SOL    HW145413   2.591   1.546   4.665 -0.0756  0.8310 -0.1947
10980SOL    HW245414   2.440   1.493   4.696  0.2494 -0.2104 -0.3504
10981SOL     OW45415   7.528   5.318   4.238 -0.5044 -0.4012  0.1557
10981SOL    HW145416   7.621   5.281   4.229 -0.3436 -0.0914  0.4896
10981SOL    HW245417   7.522   5.404   4.189 -0.1748  0.3340  1.3676
10982SOL     OW45418   7.469   5.952   6.621  0.1264 -0.0616 -0.1630
10982SOL    HW145419   7.493   6.045   6.596  0.5236 -0.2942 -0.6516
10982SOL    HW245420   7.412   5.911   6.550 -1.2063  0.2681  0.6879
10983SOL     OW45421   8.356   6.937   0.886 -0.0597  0.6956 -0.4164
10983SOL    HW145422   8.379   6.983   0.800  0.3467 -0.2050 -0.8008
10983SOL    HW245423   8.331   7.005   0.955  0.0759  1.4549 -1.1089
10984SOL     OW45424   4.498   5.610   7.470 -0.2836  0.8428 -0.0472
10984SOL    HW145425   4.423   5.598   7.405 -0.5947  0.1006  0.4467
10984SOL    HW245426   4.509   5.707   7.491  0.3388  1.1719 -1.8265
10985SOL     OW45427   8.303   4.787   4.640  0.1160  0.0848 -0.9718
10985SOL    HW145428   8.205   4.792   4.624  0.0100 -0.2730 -0.4612
10985SOL    HW245429   8.343   4.715   4.583 -0.2597 -1.1938  0.3287
10986SOL     OW45430   3.058   7.312   5.673 -0.3120 -0.4175  0.2600
10986SOL    HW145431   3.147   7.331   5.632 -0.6303  0.7163  0.0883
10986SOL    HW245432   3.031   7.217   5.652  0.0504 -0.2185 -1.1760
10987SOL     OW45433   0.088   0.789   4.600  0.3591  0.1344 -0.0868
10987SOL    HW145434   0.005   0.737   4.624  0.3791  0.3072  0.3761
10987SOL    HW245435   0.071   0.886   4.618 -0.1298  0.4550 -2.1814
10988SOL     OW45436   2.242   1.937   0.498  0.4788  0.0473 -0.6374
10988SOL    HW145437   2.285   1.900   0.415  0.5166 -2.9124  0.6444
10988SOL    HW245438   2.158   1.888   0.518  0.2608  0.9807  0.8884
10989SOL     OW45439   6.890   8.537   6.428 -0.6833 -0.1487  0.4775
10989SOL    HW145440   6.891   8.582   6.517 -0.2105  0.4828  0.1603
10989SOL    HW245441   6.796   8.528   6.397 -0.8359 -0.1460  0.9352
10990SOL     OW45442   1.900   0.628   4.028  0.2876 -0.8309  0.0592
10990SOL    HW145443   1.975   0.671   3.979  1.4636 -1.3335  1.3766
10990SOL    HW245444   1.911   0.643   4.126  0.6494 -3.9395  0.5518
10991SOL     OW45445   1.082   3.039   8.868 -0.0101 -0.0732 -0.1229
10991SOL    HW145446   1.023   3.114   8.842  0.7087  0.6776  0.3661
10991SOL    HW245447   1.166   3.075   8.909  1.5203 -1.0670 -2.2977
10992SOL     OW45448   3.834   3.143   0.641 -0.0297 -0.2568 -0.3959
10992SOL    HW145449   3.896   3.206   0.688  0.4213 -1.5951  0.8192
10992SOL    HW245450   3.883   3.100   0.565 -0.5113  1.2750 -1.5985
10993SOL     OW45451   4.472   4.833   3.837 -0.1591 -0.1528  0.2243
10993SOL    HW145452   4.441   4.882   3.755  0.4307 -0.8831 -0.4339
10993SOL    HW245453   4.568   4.857   3.856 -0.2000 -0.2259  0.5286
10994SOL     OW45454   3.876   2.864   6.117  0.0090  0.0577  0.1333
10994SOL    HW145455   3.875   2.908   6.207 -1.5235  1.4203 -0.5300
10994SOL    HW245456   3.957   2.805   6.110 -0.0112 -0.3247  2.5142
10995SOL     OW45457   8.010   6.534   2.612 -0.2985 -0.3036 -0.4218
10995SOL    HW145458   7.943   6.579   2.552 -0.9610 -0.8269 -0.0883
10995SOL    HW245459   8.097   6.583   2.608 -0.2964 -0.4236 -1.9233
10996SOL     OW45460   6.301   6.875   3.590  0.1821 -0.0585 -0.3113
10996SOL    HW145461   6.276   6.939   3.663 -0.4784 -0.3165 -0.3019
10996SOL    HW245462   6.396   6.888   3.564  0.6152 -0.4157  1.0570
10997SOL     OW45463   7.673   8.184   2.516 -0.4986  0.1167  0.1466
10997SOL    HW145464   7.715   8.095   2.533  0.3711 -0.0280 -2.5735
10997SOL    HW245465   7.578   8.182   2.547 -0.6784 -1.9571 -0.4983
10998SOL     OW45466   0.194   5.181   5.258 -0.1040 -0.7686  0.4699
10998SOL    HW145467   0.186   5.173   5.357  2.7314 -1.0649  0.7189
10998SOL    HW245468   0.235   5.270   5.235 -1.1459 -0.5166 -0.4734
10999SOL     OW45469   4.122   6.217   5.797  0.2872  0.1100 -0.3079
10999SOL    HW145470   4.049   6.283   5.814  0.4141 -0.0557  0.9809
10999SOL    HW245471   4.137   6.163   5.880  1.0736 -0.6420 -0.9379
11000SOL     OW45472   4.847   3.295   1.434 -0.3260 -0.1738 -0.2222
11000SOL    HW145473   4.854   3.200   1.406  0.9225 -0.1490 -0.0585
11000SOL    HW245474   4.877   3.354   1.359  0.8753 -0.0149  0.3554
11001SOL     OW45475   0.224   4.682   6.504  0.0625 -0.1331 -0.1543
11001SOL    HW145476   0.138   4.728   6.479 -0.1621  0.4040  1.5584
11001SOL    HW245477   0.294   4.752   6.522  0.4931 -0.5399 -0.2581
11002SOL     OW45478   8.248   5.888   6.627 -0.2950 -0.1104 -0.0257
11002SOL    HW145479   8.242   5.879   6.726 -0.6415  0.6079  0.0198
11002SOL    HW245480   8.156   5.896   6.588 -0.1804 -0.7572 -0.4419
11003SOL     OW45481   2.680   2.104   7.894  0.4259  0.0181 -0.4182
11003SOL    HW145482   2.627   2.157   7.828 -0.6816  0.2374  0.6225
11003SOL    HW245483   2.640   2.013   7.903  1.6863 -0.6531 -1.4073
11004SOL     OW45484   7.207   5.851   4.625  0.5765 -0.7255 -0.0243
11004SOL    HW145485   7.256   5.923   4.577 -0.2788 -1.4343 -1.9993
11004SOL    HW245486   7.116   5.884   4.650  0.7698 -0.5856  0.4943
11005SOL     OW45487   1.152   1.674   6.576  0.4375 -0.3506  0.0541
11005SOL    HW145488   1.218   1.620   6.523 -0.6927 -0.4519 -1.2776
11005SOL    HW245489   1.061   1.663   6.537  0.1631  2.4281 -0.2243
11006SOL     OW45490   4.412   8.079   1.983  0.8277  0.2775  0.4726
11006SOL    HW145491   4.385   8.142   2.056  0.4814  1.0543 -0.3177
11006SOL    HW245492   4.331   8.047   1.934  1.0112 -0.7277  0.8229
11007SOL     OW45493   3.659   7.494   2.894  0.5189 -0.1483 -0.4361
11007SOL    HW145494   3.744   7.534   2.929  0.8837 -1.6267  0.3705
11007SOL    HW245495   3.668   7.480   2.795  0.7424  0.8738 -0.5665
11008SOL     OW45496   8.462   7.208   5.668  0.1137 -0.3072  0.0957
11008SOL    HW145497   8.547   7.228   5.717  0.6688 -2.3037 -0.0051
11008SOL    HW245498   8.462   7.257   5.581  1.0060 -0.0118  0.2565
11009SOL     OW45499   5.408   8.637   6.738  0.8995 -0.1261  0.4563
11009SOL    HW145500   5.468   8.711   6.706 -0.0997 -0.1353 -1.5256
11009SOL    HW245501   5.338   8.675   6.799  1.1746  0.3546  0.4778
11010SOL     OW45502   0.603   8.590   8.633 -0.4295 -0.5656  0.2133
11010SOL    HW145503   0.551   8.617   8.714 -1.9964 -0.0821 -0.9286
11010SOL    HW245504   0.693   8.634   8.635 -1.3959  1.4346  0.4489
11011SOL     OW45505   1.816   1.173   2.702  0.2959  0.5613 -0.7395
11011SOL    HW145506   1.739   1.118   2.734  1.0095 -0.3775 -0.6097
11011SOL    HW245507   1.825   1.165   2.603  0.6212  0.1535 -0.6776
11012SOL     OW45508   3.331   3.231   7.748 -0.3372 -0.3728 -0.4773
11012SOL    HW145509   3.245   3.185   7.728 -1.4848  2.2546 -1.8208
11012SOL    HW245510   3.401   3.200   7.683 -1.5854  1.1113 -2.5817
11013SOL     OW45511   7.679   5.541   4.788 -0.3549  0.2038 -0.0390
11013SOL    HW145512   7.764   5.594   4.789  0.2637 -0.7814  0.2669
11013SOL    HW245513   7.673   5.486   4.871 -2.1585  1.5930  0.7940
11014SOL     OW45514   4.940   8.276   7.429 -0.2809  0.6081 -0.8592
11014SOL    HW145515   4.980   8.353   7.379  1.3885  0.2653 -0.0855
11014SOL    HW245516   4.999   8.251   7.505 -1.5669 -0.4735 -0.1875
11015SOL     OW45517   7.380   5.566   7.389  0.0005  0.2301 -0.3103
11015SOL    HW145518   7.361   5.656   7.350 -2.0000 -0.3382 -0.7122
11015SOL    HW245519   7.327   5.497   7.340  1.9174 -1.2460 -0.3413
11016SOL     OW45520   0.577   2.673   8.007 -0.0865  0.0229  0.5493
11016SOL    HW145521   0.521   2.755   8.016 -2.4646 -1.4387 -0.5770
11016SOL    HW245522   0.523   2.599   7.966  2.5725 -1.5396 -0.2848
11017SOL     OW45523   6.184   7.165   2.727  0.3727 -0.1546  0.4235
11017SOL    HW145524   6.274   7.206   2.741 -1.0640  3.6741 -0.8128
11017SOL    HW245525   6.117   7.208   2.789 -1.2883 -0.2576 -1.2427
11018SOL     OW45526   0.295   4.792   3.194  0.4455 -0.1255 -0.2417
11018SOL    HW145527   0.200   4.760   3.197  1.2782 -2.5842  1.7225
11018SOL    HW245528   0.339   4.758   3.110 -0.0939  0.0803 -0.6089
11019SOL     OW45529   0.051   1.705   8.747  0.2681 -0.1960 -0.1854
11019SOL    HW145530  -0.007   1.786   8.757 -0.7459 -0.5074 -3.1739
11019SOL    HW245531  -0.004   1.623   8.766  1.1254 -0.2836  2.1675
11020SOL     OW45532   4.588   0.689   1.415 -0.9785 -0.1222  0.6713
11020SOL    HW145533   4.625   0.678   1.323 -1.9891 -0.3664  0.2834
11020SOL    HW245534   4.633   0.766   1.460  0.8324 -1.1520  0.6556
11021SOL     OW45535   1.408   3.862   0.746  0.2392  0.5995 -0.2231
11021SOL    HW145536   1.499   3.870   0.786 -0.3028  1.1761  0.9318
11021SOL    HW245537   1.343   3.833   0.817 -0.2843 -0.8478 -1.2759
11022SOL     OW45538   4.308   8.380   2.507 -0.0310  0.2457  0.3734
11022SOL    HW145539   4.291   8.323   2.587 -0.2392 -4.0493 -2.5630
11022SOL    HW245540   4.222   8.417   2.473 -0.1243  0.8282  1.2270
11023SOL     OW45541   2.520   2.033   6.825  0.1598 -0.2386  0.2671
11023SOL    HW145542   2.612   2.024   6.863  0.8148 -1.9175 -1.6148
11023SOL    HW245543   2.527   2.048   6.726 -1.6089 -1.2748 -0.0290
11024SOL     OW45544   2.534   6.749   7.528 -0.4785  0.6647 -0.6253
11024SOL    HW145545   2.500   6.776   7.437 -0.9325  1.3601 -0.2512
11024SOL    HW245546   2.456   6.727   7.587 -0.1077 -2.0652 -1.0876
11025SOL     OW45547   7.275   6.312   0.401  0.3445  0.1178  0.2256
11025SOL    HW145548   7.294   6.299   0.498 -0.4997 -0.7248  0.2797
11025SOL    HW245549   7.347   6.269   0.347  0.1117 -0.5861  0.4679
11026SOL     OW45550   6.929   4.226   2.359 -0.1113  0.3763  0.1089
11026SOL    HW145551   6.925   4.132   2.323  0.0270 -0.0211  1.1160
11026SOL    HW245552   6.997   4.230   2.432  0.1743  1.3639 -0.2132
11027SOL     OW45553   4.793   7.490   6.787  0.5537  0.2494 -0.2653
11027SOL    HW145554   4.822   7.490   6.691 -0.2071  0.0688 -0.5032
11027SOL    HW245555   4.718   7.555   6.799 -0.2881 -0.7434 -0.0904
11028SOL     OW45556   5.212   0.111   1.362 -0.1011  0.2199  0.7093
11028SOL    HW145557   5.196   0.208   1.349  0.8948  0.2262 -0.6522
11028SOL    HW245558   5.128   0.060   1.344  0.4636  0.4897 -3.1493
11029SOL     OW45559   4.740   7.685   0.951 -0.1846 -1.4819  0.4182
11029SOL    HW145560   4.750   7.672   0.853  0.8172 -0.9334  0.4467
11029SOL    HW245561   4.670   7.753   0.970  1.7908  0.7482 -0.0185
11030SOL     OW45562   5.290   6.010   5.312 -0.1536  0.0798  0.7226
11030SOL    HW145563   5.242   5.935   5.268  1.2326 -0.2343 -0.3057
11030SOL    HW245564   5.374   5.976   5.354  1.8992  1.4206 -2.0997
11031SOL     OW45565   4.911   2.816   7.241 -0.8680  0.3841  0.0877
11031SOL    HW145566   4.905   2.897   7.300 -0.6346  2.3638 -2.5434
11031SOL    HW245567   5.005   2.781   7.244 -0.2388  1.9397 -0.9849
11032SOL     OW45568   6.648   5.929   6.156 -0.4410 -0.0267  0.0599
11032SOL    HW145569   6.693   5.923   6.067  0.5540  1.3862  0.4508
11032SOL    HW245570   6.550   5.910   6.145 -0.1875 -0.6899 -1.1896
11033SOL     OW45571   5.434   4.173   6.243  0.2637 -0.1793  0.1676
11033SOL    HW145572   5.502   4.109   6.207  0.3185  0.7428 -1.4056
11033SOL    HW245573   5.342   4.140   6.221  0.3079  0.6991 -1.4263
11034SOL     OW45574   1.890   4.238   2.330 -0.6205  0.6177 -0.0614
11034SOL    HW145575   1.972   4.182   2.317 -1.0157  0.1381 -0.5519
11034SOL    HW245576   1.822   4.213   2.261 -2.0407 -0.6102  1.7138
11035SOL     OW45577   4.135   6.586   5.481 -0.3415 -0.0694  0.1816
11035SOL    HW145578   4.211   6.527   5.506 -1.2665 -1.0294  0.7317
11035SOL    HW245579   4.056   6.531   5.458 -0.6045  0.9019 -1.3144
11036SOL     OW45580   7.824   2.341   4.176  0.0512 -0.0340 -0.2248
11036SOL    HW145581   7.837   2.318   4.273  4.5876  1.5446 -0.3129
11036SOL    HW245582   7.805   2.439   4.167  0.8145  0.0473 -0.9810
11037SOL     OW45583   6.042   1.707   0.540 -0.1068 -0.1476  0.2557
11037SOL    HW145584   6.025   1.805   0.546 -0.9811 -0.3485  1.4455
11037SOL    HW245585   6.035   1.667   0.632  0.5202 -1.2755 -0.1795
11038SOL     OW45586   7.471   2.237   0.362 -0.2482  0.6670  0.4213
11038SOL    HW145587   7.391   2.282   0.322  0.1462  3.4680  2.6070
11038SOL    HW245588   7.554   2.277   0.324  0.1605 -1.3864 -0.9277
11039SOL     OW45589   3.742   4.496   0.215  0.4973 -0.2964 -0.3806
11039SOL    HW145590   3.673   4.467   0.149  0.3319  0.1715 -0.4205
11039SOL    HW245591   3.703   4.568   0.274  1.0261  0.1486 -0.5684
11040SOL     OW45592   7.024   3.786   2.796 -0.3326  0.2391 -0.4700
11040SOL    HW145593   7.030   3.690   2.824 -0.7260  0.6022  0.8829
11040SOL    HW245594   6.928   3.812   2.786 -0.2067  0.1184 -2.2057
11041SOL     OW45595   4.810   4.603   3.293 -0.0895 -0.1878 -0.0799
11041SOL    HW145596   4.744   4.673   3.320  0.4024  1.0638 -1.9815
11041SOL    HW245597   4.761   4.518   3.273 -0.9077  0.1402  0.4997
11042SOL     OW45598   8.733   1.663   1.749  0.3256  0.0645  0.4316
11042SOL    HW145599   8.716   1.700   1.840 -0.0528 -0.9963  0.8014
11042SOL    HW245600   8.733   1.563   1.754  0.4405  0.0075 -0.7123
11043SOL     OW45601   0.668   2.748   5.989 -0.1050  0.2254 -0.3719
11043SOL    HW145602   0.590   2.809   5.976 -1.3360 -1.1446  0.3696
11043SOL    HW245603   0.713   2.768   6.076 -0.1437  0.4768 -0.4110
11044SOL     OW45604   8.753   2.258   8.217  0.2610 -0.1129 -0.0971
11044SOL    HW145605   8.813   2.233   8.141 -0.6154  0.3331 -0.9334
11044SOL    HW245606   8.794   2.334   8.268  2.2473 -2.2566  1.6161
11045SOL     OW45607   7.053   0.939   1.872  0.5849 -0.8486 -0.2748
11045SOL    HW145608   7.087   0.988   1.953  0.2198 -2.4484  0.8854
11045SOL    HW245609   6.985   0.995   1.825  1.9550  0.7656 -0.3863
11046SOL     OW45610   3.547   8.119   6.067 -0.2931  0.3526 -0.4789
11046SOL    HW145611   3.608   8.198   6.066  1.0430 -0.6631 -1.1966
11046SOL    HW245612   3.492   8.118   5.983 -0.0854  0.3575 -0.6160
11047SOL     OW45613   8.451   7.030   1.427  0.2199  0.5055 -0.6629
11047SOL    HW145614   8.425   6.950   1.373 -2.6808  0.4607  0.6899
11047SOL    HW245615   8.512   7.089   1.373 -0.3443 -0.9169 -2.9199
11048SOL     OW45616   1.303   8.020   4.725  0.2420 -0.3581 -0.2790
11048SOL    HW145617   1.311   8.108   4.678 -1.8789 -0.0121 -0.0580
11048SOL    HW245618   1.391   7.996   4.765  0.4397  2.6028  1.2418
11049SOL     OW45619   0.744   8.332   4.510  0.1359 -0.5366  0.4234
11049SOL    HW145620   0.800   8.267   4.561  2.6252  1.1982  0.0154
11049SOL    HW245621   0.803   8.383   4.446 -2.3750 -0.5128 -1.9395
11050SOL     OW45622   6.228   1.295   1.583 -0.7525  0.3353 -0.0480
11050SOL    HW145623   6.250   1.251   1.496 -0.6641 -0.0441  0.1645
11050SOL    HW245624   6.299   1.273   1.650 -0.4236  1.2496 -0.0952
11051SOL     OW45625   3.464   5.853   1.065  0.2605 -0.2392 -0.2694
11051SOL    HW145626   3.446   5.774   1.123 -2.0054  0.3922 -0.0497
11051SOL    HW245627   3.471   5.823   0.969  0.7062 -0.8564 -0.0484
11052SOL     OW45628   8.035   1.609   1.923  0.0009 -0.1656 -0.0392
11052SOL    HW145629   8.066   1.699   1.952 -1.9511  0.7425 -0.6953
11052SOL    HW245630   7.971   1.572   1.990 -1.6580  0.3466 -1.2742
11053SOL     OW45631   2.991   5.657   6.916 -0.0778 -0.3478 -0.0217
11053SOL    HW145632   2.967   5.653   6.819 -1.6881  0.5054  0.3251
11053SOL    HW245633   3.087   5.686   6.925 -0.0843  0.1411 -1.3283
11054SOL     OW45634   2.933   5.005   0.971  0.4877  0.2559  0.0431
11054SOL    HW145635   2.836   4.990   0.954  0.2960  0.7551  0.6736
11054SOL    HW245636   2.955   4.982   1.066  0.7293  1.2926  0.2547
11055SOL     OW45637   3.577   0.276   6.151  0.4356 -0.0335  0.3865
11055SOL    HW145638   3.524   0.354   6.184  0.8988  0.0459  0.9435
11055SOL    HW245639   3.671   0.305   6.130  0.0650  0.0026 -1.3620
11056SOL     OW45640   6.314   1.980   2.041 -0.3300  0.4411  0.4247
11056SOL    HW145641   6.367   2.035   1.977  2.3866 -1.7541  0.6760
11056SOL    HW245642   6.323   2.017   2.133  1.5499 -0.3847  0.6025
11057SOL     OW45643   2.901   2.331   8.276  0.3401  0.0345  0.6773
11057SOL    HW145644   2.824   2.339   8.339  0.5535 -1.2422  1.1090
11057SOL    HW245645   2.882   2.259   8.210  0.6951  0.4737  0.0911
11058SOL     OW45646   4.872   1.772   0.435  0.9961  0.1574 -0.0494
11058SOL    HW145647   4.832   1.847   0.384 -0.1263  0.3394  1.0791
11058SOL    HW245648   4.808   1.695   0.437  1.8231 -0.5583 -0.5489
11059SOL     OW45649   5.008   7.164   8.586  0.5663 -0.0150  0.1515
11059SOL    HW145650   5.077   7.211   8.531  0.2296  0.2516 -0.0401
11059SOL    HW245651   5.032   7.172   8.682  1.4038 -0.8698  0.0268
11060SOL     OW45652   8.531   4.415   8.393 -0.1318 -0.0286  0.8464
11060SOL    HW145653   8.490   4.452   8.477 -1.4753 -2.0119  1.1003
11060SOL    HW245654   8.470   4.434   8.316 -0.3330 -0.8372  0.8114
11061SOL     OW45655   2.730   8.320   8.760  0.1293 -0.2584 -0.0300
11061SOL    HW145656   2.634   8.302   8.779 -0.3134  0.5021 -1.4683
11061SOL    HW245657   2.758   8.404   8.806  0.4032 -1.0069  1.2191
11062SOL     OW45658   2.683   2.323   2.469  0.2924 -0.1451  0.2330
11062SOL    HW145659   2.618   2.250   2.448 -3.3767  3.1323 -0.5737
11062SOL    HW245660   2.659   2.405   2.416  4.7254  1.4387  0.4857
11063SOL     OW45661   0.141   3.362   3.366 -0.1019 -0.4783  0.1832
11063SOL    HW145662   0.097   3.394   3.282  0.0093 -0.7724  0.0103
11063SOL    HW245663   0.103   3.273   3.392 -0.2652 -0.3001  0.5461
11064SOL     OW45664   1.427   6.216   5.675 -0.7598  0.2938  0.2152
11064SOL    HW145665   1.357   6.269   5.723  0.6046  2.4584 -0.1316
11064SOL    HW245666   1.402   6.205   5.579 -1.0988  0.2101  0.3143
11065SOL     OW45667   0.791   3.381   5.038  0.3452  0.4743  0.3853
11065SOL    HW145668   0.703   3.365   5.083  0.2003  1.1498  0.3372
11065SOL    HW245669   0.822   3.296   4.995  0.1879 -0.0117  1.2346
11066SOL     OW45670   2.952   8.873   8.380  0.3865  0.5550  0.2549
11066SOL    HW145671   3.045   8.876   8.418  0.2375  1.8453  0.5423
11066SOL    HW245672   2.958   8.882   8.280  0.5605  0.7943  0.2858
11067SOL     OW45673   7.831   6.586   8.321  0.1286 -0.0506 -0.0852
11067SOL    HW145674   7.791   6.569   8.231 -2.1703  1.3027  0.6598
11067SOL    HW245675   7.840   6.499   8.370 -1.9772 -0.3828 -0.2523
11068SOL     OW45676   7.231   5.432   4.865 -0.3119 -0.0742 -0.3046
11068SOL    HW145677   7.175   5.514   4.852  0.9705  0.8437  0.0055
11068SOL    HW245678   7.266   5.429   4.959  0.3993 -0.5015 -0.5793
11069SOL     OW45679   3.170   0.295   2.292  0.8364  0.4365  0.9777
11069SOL    HW145680   3.223   0.369   2.334  2.2667 -1.0045  1.7691
11069SOL    HW245681   3.120   0.245   2.363 -0.4481  0.8596  0.4014
11070SOL     OW45682   5.775   4.081   5.708  0.0584 -0.2176 -0.3191
11070SOL    HW145683   5.843   4.091   5.635  0.2858 -0.7973 -0.1890
11070SOL    HW245684   5.686   4.058   5.668 -0.0057  0.2989 -0.4727
11071SOL     OW45685   7.791   2.214   6.399  0.0531  0.2651  0.0754
11071SOL    HW145686   7.780   2.117   6.377 -0.0004  0.7298 -2.0566
11071SOL    HW245687   7.772   2.269   6.318 -0.2200  2.0913  1.3446
11072SOL     OW45688   7.338   2.811   2.690 -0.2596  0.0189  0.1411
11072SOL    HW145689   7.244   2.779   2.677 -0.1873 -1.4105  2.7773
11072SOL    HW245690   7.384   2.816   2.601 -2.6963  0.3764 -1.1436
11073SOL     OW45691   4.311   6.485   0.679  0.1524 -0.3653 -0.2406
11073SOL    HW145692   4.252   6.562   0.656  0.0393 -0.1551  0.7280
11073SOL    HW245693   4.398   6.519   0.715 -0.1201 -0.6839  0.7422
11074SOL     OW45694   3.503   5.605   3.454  0.1043  0.2078  0.2104
11074SOL    HW145695   3.580   5.636   3.399 -0.0889  0.2497 -0.0410
11074SOL    HW245696   3.489   5.668   3.531  0.9939 -0.4019  0.8769
11075SOL     OW45697   3.192   8.119   5.738  0.2195 -0.1638  0.4962
11075SOL    HW145698   3.204   8.051   5.811  0.2096  0.9851  1.5688
11075SOL    HW245699   3.104   8.164   5.749  0.6511  0.7205  0.3573
11076SOL     OW45700   7.909   8.375   8.147 -0.0689  0.3096  0.0075
11076SOL    HW145701   7.927   8.444   8.077  0.1358  0.8697  0.5969
11076SOL    HW245702   7.991   8.361   8.202  1.0818 -3.1861 -2.4513
11077SOL     OW45703   5.717   8.494   3.808  0.2238  0.3828  0.2633
11077SOL    HW145704   5.768   8.579   3.802 -0.6075  0.8698 -0.0947
11077SOL    HW245705   5.745   8.443   3.890  0.7140  1.0014  0.4794
11078SOL     OW45706   3.946   8.130   2.741  0.4718 -0.0679 -0.2697
11078SOL    HW145707   4.013   8.137   2.668  0.7133 -0.2820 -0.0731
11078SOL    HW245708   3.925   8.034   2.757  0.7407 -0.0501  0.2233
11079SOL     OW45709   3.103   1.669   2.120 -0.3823 -0.3453  0.7869
11079SOL    HW145710   3.201   1.690   2.118 -0.4265 -0.1558  0.6409
11079SOL    HW245711   3.057   1.727   2.186 -0.5749  0.3141  0.0730
11080SOL     OW45712   0.958   6.130   5.412 -0.0448  0.3271 -0.0135
11080SOL    HW145713   0.961   6.206   5.348  1.6382 -0.7993 -1.3224
11080SOL    HW245714   1.007   6.153   5.496  0.2520  0.7567 -0.3096
11081SOL     OW45715   6.668   8.123   0.642 -0.3813  0.4251 -0.2772
11081SOL    HW145716   6.673   8.175   0.557  0.2875  1.4009  0.3518
11081SOL    HW245717   6.696   8.181   0.719  0.9827 -1.0263  0.3623
11082SOL     OW45718   1.010   5.488   6.142  0.0029  0.8119  0.3028
11082SOL    HW145719   1.057   5.413   6.095 -1.5771  0.1411 -0.2559
11082SOL    HW245720   1.039   5.492   6.237 -0.7955 -1.3018  0.6593
11083SOL     OW45721   4.862   4.910   3.520 -0.1862  0.0782  0.3830
11083SOL    HW145722   4.907   4.822   3.529 -1.2534 -0.8709 -2.7342
11083SOL    HW245723   4.763   4.899   3.534 -0.0995  1.1750  1.9893
11084SOL     OW45724   3.657   0.141   5.652  0.5012 -0.5489  0.5284
11084SOL    HW145725   3.604   0.211   5.604  0.4335 -0.6812  0.4141
11084SOL    HW245726   3.703   0.184   5.731  0.3941 -0.3916  0.5068
11085SOL     OW45727   2.323   2.769   2.952  0.9515  0.7597 -0.2342
11085SOL    HW145728   2.262   2.690   2.960  0.6502  1.1363  1.3897
11085SOL    HW245729   2.360   2.792   3.042  1.2889  2.2689 -0.7453
11086SOL     OW45730   7.131   6.228   0.958  0.0042  0.2752  0.5063
11086SOL    HW145731   7.062   6.264   0.895  0.8894 -0.3910 -0.8732
11086SOL    HW245732   7.204   6.295   0.970  0.7235 -0.2822 -0.6059
11087SOL     OW45733   3.967   4.613   4.490  0.1010 -0.2593  0.1634
11087SOL    HW145734   3.899   4.598   4.419 -1.8156 -0.3308  1.9721
11087SOL    HW245735   4.048   4.556   4.472 -0.9339 -1.3210 -1.1706
11088SOL     OW45736   2.240   0.661   8.557 -0.5444 -0.3038 -0.2811
11088SOL    HW145737   2.222   0.575   8.510 -0.1393 -0.5623  0.0403
11088SOL    HW245738   2.328   0.698   8.529 -0.3410 -0.4143  0.2138
11089SOL     OW45739   8.389   4.681   3.767  0.4555  0.5313 -0.0302
11089SOL    HW145740   8.474   4.732   3.758  0.7162  0.1126  0.0660
11089SOL    HW245741   8.386   4.634   3.855  0.4572 -0.0533 -0.3374
11090SOL     OW45742   8.128   1.122   4.305 -0.8648  0.4096 -0.5105
11090SOL    HW145743   8.147   1.035   4.351 -1.0939  0.9860  0.6733
11090SOL    HW245744   8.033   1.122   4.273 -0.9246  0.3036 -0.3345
11091SOL     OW45745   5.702   6.350   2.993 -0.5087 -0.0944 -0.2553
11091SOL    HW145746   5.692   6.425   3.058 -0.6692  0.7288 -1.2325
11091SOL    HW245747   5.793   6.309   3.003  1.1256  2.8036 -2.4236
11092SOL     OW45748   7.490   4.480   6.692  0.1570 -0.0743  0.2342
11092SOL    HW145749   7.585   4.498   6.716 -0.2868  1.7368  0.7224
11092SOL    HW245750   7.448   4.563   6.656 -1.2226 -0.8716 -0.0550
11093SOL     OW45751   5.779   6.799   7.705 -0.4368  0.2562  0.4220
11093SOL    HW145752   5.878   6.791   7.708 -0.4045  0.7189  0.5715
11093SOL    HW245753   5.751   6.840   7.618 -0.4427  0.9717  0.7655
11094SOL     OW45754   8.242   2.218   1.597 -0.2094 -0.2607 -0.3320
11094SOL    HW145755   8.338   2.200   1.619 -0.1315  0.1189 -0.3691
11094SOL    HW245756   8.185   2.148   1.641 -0.1318  1.0429  1.8849
11095SOL     OW45757   2.074   4.668   2.812 -0.4419 -0.1051 -0.1487
11095SOL    HW145758   2.046   4.762   2.831  0.1103  0.2529 -1.0831
11095SOL    HW245759   2.023   4.634   2.732  0.4179 -0.1009 -0.6981
11096SOL     OW45760   3.968   4.437   0.037  1.1273  0.1458 -0.2527
11096SOL    HW145761   3.892   4.482   0.084 -0.0704 -1.1049 -0.9457
11096SOL    HW245762   4.022   4.385   0.103  1.7383  1.5075  0.3369
11097SOL     OW45763   1.706   4.181   0.442 -0.1259  0.0199  0.2516
11097SOL    HW145764   1.616   4.143   0.422 -0.3516  0.6180  0.1185
11097SOL    HW245765   1.737   4.151   0.532 -1.7152  2.1366  1.5364
11098SOL     OW45766   6.712   6.379   8.016 -0.2766 -0.9933  0.0527
11098SOL    HW145767   6.703   6.476   7.994 -1.4141 -1.0261  0.3591
11098SOL    HW245768   6.748   6.370   8.109 -1.0020 -0.8620  0.3486
11099SOL     OW45769   8.560   5.150   3.486 -0.1578 -0.1188 -0.4088
11099SOL    HW145770   8.531   5.058   3.514  3.1782 -1.4338 -1.0744
11099SOL    HW245771   8.537   5.164   3.390 -0.6555 -0.2278 -0.3109
11100SOL     OW45772   1.512   6.060   6.595  0.1601  0.1430 -0.3982
11100SOL    HW145773   1.441   6.069   6.664 -0.3174 -2.8706 -0.4347
11100SOL    HW245774   1.591   6.011   6.633  0.5327 -0.1732 -1.5452
11101SOL     OW45775   5.961   2.008   8.528 -0.4523 -0.2078  0.1246
11101SOL    HW145776   5.878   1.989   8.477 -0.8007  0.6367  0.3626
11101SOL    HW245777   6.036   2.029   8.465 -0.4715 -0.7778 -0.0835
11102SOL     OW45778   4.403   4.321   3.995 -0.2149  0.5128 -0.0620
11102SOL    HW145779   4.404   4.420   3.982  1.5742  0.7289  1.5157
11102SOL    HW245780   4.322   4.283   3.952 -0.4989  2.5638 -1.4032
11103SOL     OW45781   0.407   3.664   0.164 -0.4330  0.1451  0.1528
11103SOL    HW145782   0.398   3.756   0.126 -0.9188 -0.3962 -1.0716
11103SOL    HW245783   0.490   3.659   0.220 -0.6458  1.4445  0.5916
11104SOL     OW45784   6.659   2.796   5.871 -0.0528  0.1333 -0.2812
11104SOL    HW145785   6.677   2.750   5.784  0.2297  1.0614 -0.7095
11104SOL    HW245786   6.563   2.825   5.874 -0.0905  0.0069 -0.2367
11105SOL     OW45787   3.289   7.895   8.769  0.0063  0.3015  0.3237
11105SOL    HW145788   3.291   7.797   8.790 -0.5706  0.0022 -0.9859
11105SOL    HW245789   3.207   7.936   8.809  0.0553  0.1738  0.5540
11106SOL     OW45790   2.307   1.876   2.299  0.2387 -0.1226  0.1247
11106SOL    HW145791   2.300   1.955   2.360  0.3428 -0.4986  0.6309
11106SOL    HW245792   2.295   1.792   2.352 -1.9534 -0.3863 -0.7505
11107SOL     OW45793   7.989   6.671   5.552  0.0724 -0.0923 -0.0701
11107SOL    HW145794   7.968   6.747   5.491  0.3895  0.6691  0.7664
11107SOL    HW245795   7.907   6.614   5.563 -0.0961 -0.0180 -0.8861
11108SOL     OW45796   7.690   6.161   7.084  0.0872 -0.4303  0.2157
11108SOL    HW145797   7.712   6.247   7.037 -0.2278 -1.2136 -1.3671
11108SOL    HW245798   7.677   6.180   7.181  0.4782  1.2468 -0.0331
11109SOL     OW45799   7.745   0.174   1.040  0.2026  0.2380  0.1112
11109SOL    HW145800   7.818   0.108   1.022 -0.2273 -0.2759  0.2400
11109SOL    HW245801   7.782   0.251   1.093  1.1714  1.1131 -1.7893
11110SOL     OW45802   0.164   3.675   3.649  0.1472 -0.1971  0.5693
11110SOL    HW145803   0.204   3.585   3.665 -0.1177 -0.4387 -0.1240
11110SOL    HW245804   0.235   3.738   3.615  0.3310 -0.1417  1.0527
11111SOL     OW45805   8.887   4.985   0.497  0.7254  0.0482 -1.0185
11111SOL    HW145806   8.864   4.889   0.506 -0.4867  0.4549  0.2602
11111SOL    HW245807   8.845   5.038   0.571  0.9838  1.6317 -1.9669
11112SOL     OW45808   2.463   2.461   6.172  0.4286 -0.3118 -0.3780
11112SOL    HW145809   2.368   2.492   6.168  0.3380 -0.2240  1.9243
11112SOL    HW245810   2.524   2.539   6.165  0.3547 -0.3797 -1.9836
11113SOL     OW45811   5.073   2.065   2.915  0.4998  0.1200 -0.0384
11113SOL    HW145812   5.083   2.087   3.013 -0.0446 -0.3853  0.1304
11113SOL    HW245813   4.999   2.120   2.876  1.3151  0.9923 -0.3860
11114SOL     OW45814   4.077   1.396   8.809  0.5133  0.3279  0.4459
11114SOL    HW145815   4.052   1.482   8.763  1.2844  1.4361  2.0451
11114SOL    HW245816   4.106   1.329   8.741  1.0223  1.7335 -0.7524
11115SOL     OW45817   5.763   6.243   4.203  0.5440 -0.8261 -0.4039
11115SOL    HW145818   5.769   6.244   4.103  1.0479  2.3192 -0.4113
11115SOL    HW245819   5.671   6.268   4.231  1.4845  2.5849 -0.1277
11116SOL     OW45820   4.939   3.615   2.719  0.0197  0.1984  0.2539
11116SOL    HW145821   4.916   3.588   2.625  0.2792  0.5948  0.0752
11116SOL    HW245822   5.011   3.555   2.754 -1.3103 -1.0921  0.8412
11117SOL     OW45823   7.606   6.454   3.102 -0.0897 -0.1011  0.3060
11117SOL    HW145824   7.705   6.449   3.114  0.1933  1.0725 -1.3447
11117SOL    HW245825   7.585   6.471   3.006 -1.9047 -0.3336  0.6410
11118SOL     OW45826   5.642   7.805   1.202  1.0181 -0.0964  0.0082
11118SOL    HW145827   5.543   7.791   1.207  1.4299 -3.4384 -0.0102
11118SOL    HW245828   5.682   7.789   1.292  1.2965  3.9639  0.6810
11119SOL     OW45829   0.788   8.521   8.208  0.1674 -0.2149 -0.0832
11119SOL    HW145830   0.840   8.442   8.239 -1.5492 -1.4141 -0.1464
11119SOL    HW245831   0.697   8.520   8.250  0.0096  1.5435 -0.3425
11120SOL     OW45832   7.972   0.151   7.852 -0.0461 -0.4042 -0.5621
11120SOL    HW145833   8.001   0.208   7.775  2.6497 -0.6777  0.1799
11120SOL    HW245834   7.905   0.201   7.907  1.6647  1.7829 -0.3783
11121SOL     OW45835   1.162   6.535   7.593 -0.2730 -0.3717  0.1497
11121SOL    HW145836   1.233   6.476   7.555 -0.6627 -1.0061  0.4071
11121SOL    HW245837   1.187   6.562   7.686  0.2009  0.3728 -0.1883
11122SOL     OW45838   5.795   6.990   1.245  0.3240  0.0677  0.2005
11122SOL    HW145839   5.834   6.906   1.283  1.1871  0.9261  1.2487
11122SOL    HW245840   5.696   6.984   1.247  0.3775 -1.1281 -0.1912
11123SOL     OW45841   1.393   1.077   4.024  0.4462  0.4885  0.4248
11123SOL    HW145842   1.442   1.158   3.990  1.9827 -0.1220  1.1702
11123SOL    HW245843   1.458   1.006   4.048 -0.9863 -1.7625 -2.1318
11124SOL     OW45844   8.573   2.814   7.734  0.1054 -0.0251 -0.7045
11124SOL    HW145845   8.567   2.732   7.791 -0.2463  1.8358  2.0268
11124SOL    HW245846   8.665   2.821   7.696  0.2376 -1.4844 -0.7110
11125SOL     OW45847   0.833   1.177   6.692  0.1527 -0.5468  0.3327
11125SOL    HW145848   0.920   1.191   6.644 -0.1391  0.2805  0.0391
11125SOL    HW245849   0.848   1.119   6.772  1.7143  2.7615  2.5405
11126SOL     OW45850   6.286   5.227   2.429  0.0151  0.1848 -0.1286
11126SOL    HW145851   6.366   5.284   2.413 -0.2158  0.1261 -1.6065
11126SOL    HW245852   6.219   5.243   2.356 -0.1572 -1.7716 -0.4320
11127SOL     OW45853   6.217   5.622   7.212  0.7531  0.2516  0.2531
11127SOL    HW145854   6.286   5.599   7.144  0.7709 -0.7750  0.6085
11127SOL    HW245855   6.262   5.651   7.297  0.7392  0.7245  0.0983
11128SOL     OW45856   6.739   1.075   8.351  0.0716 -0.1194  0.1239
11128SOL    HW145857   6.830   1.035   8.334 -0.3222 -0.5425 -1.0800
11128SOL    HW245858   6.743   1.174   8.337  0.4624 -0.0721  0.5581
11129SOL     OW45859   1.142   0.035   4.436 -0.0954 -0.1385  0.2458
11129SOL    HW145860   1.219  -0.010   4.483 -0.9413 -1.1262  0.7037
11129SOL    HW245861   1.057  -0.013   4.458 -1.0026  1.6053  0.6230
11130SOL     OW45862   6.309   2.273   1.429 -0.0001  0.6234  0.2543
11130SOL    HW145863   6.366   2.278   1.511 -0.1796  1.7355  0.3170
11130SOL    HW245864   6.213   2.287   1.453 -0.4088 -1.8818  0.2370
11131SOL     OW45865   3.948   2.189   7.102  0.1046 -0.4419 -0.6512
11131SOL    HW145866   4.012   2.206   7.027  0.1332 -1.0647 -0.7711
11131SOL    HW245867   3.998   2.182   7.188  0.2710 -1.5502 -0.8309
11132SOL     OW45868   4.446   0.383   7.207 -0.4507  0.0494 -0.2386
11132SOL    HW145869   4.418   0.462   7.153 -0.4429  0.7991  0.8359
11132SOL    HW245870   4.544   0.390   7.228 -0.8473  0.7418  1.4584
11133SOL     OW45871   6.946   4.659   4.372  0.0195  0.1133 -0.3104
11133SOL    HW145872   7.017   4.644   4.441  1.1047  1.0796 -1.2041
11133SOL    HW245873   6.932   4.575   4.321 -1.1471 -0.7664  1.3886
11134SOL     OW45874   2.262   4.961   6.329  0.0833 -0.0808 -0.1887
11134SOL    HW145875   2.182   4.920   6.286  0.0462 -0.4426  0.2252
11134SOL    HW245876   2.233   5.020   6.404  0.2562 -0.9497  0.5645
11135SOL     OW45877   7.800   5.605   2.980  0.5687  0.2967 -0.3644
11135SOL    HW145878   7.858   5.683   2.958 -1.1068  1.6856  0.0244
11135SOL    HW245879   7.824   5.569   3.070  0.4202  1.2432  0.0526
11136SOL     OW45880   8.892   8.656   7.475  0.1782  0.4691  0.2274
11136SOL    HW145881   8.902   8.557   7.481  2.1770  0.6738  0.5228
11136SOL    HW245882   8.836   8.688   7.551 -0.0360 -0.3690  0.4304
11137SOL     OW45883   3.269   6.763   1.393  0.1556 -0.1648 -0.0998
11137SOL    HW145884   3.333   6.794   1.463  0.1745 -0.3790 -0.0209
11137SOL    HW245885   3.228   6.676   1.421 -1.2010  0.6466  0.4759
11138SOL     OW45886   4.163   5.119   2.002  0.3711  0.4784  0.0694
11138SOL    HW145887   4.112   5.131   2.087 -0.4495 -0.6938 -0.2339
11138SOL    HW245888   4.100   5.125   1.925  0.3042 -3.0375 -0.2146
11139SOL     OW45889   7.293   3.996   3.120 -0.0081  0.6060  0.1995
11139SOL    HW145890   7.328   3.983   3.213 -0.4323  3.6284  0.8209
11139SOL    HW245891   7.351   4.061   3.072 -1.3479  1.1026 -0.7569
11140SOL     OW45892   1.949   1.979   3.790  0.0786  0.1361  0.2939
11140SOL    HW145893   2.040   1.991   3.830  0.7755 -0.0253 -1.2187
11140SOL    HW245894   1.908   2.068   3.772  0.7067  0.2194 -0.7435
11141SOL     OW45895   7.656   3.958   7.989  0.4222 -0.0522 -0.3534
11141SOL    HW145896   7.713   4.035   8.018  0.1946  0.1458 -0.4320
11141SOL    HW245897   7.561   3.988   7.982  0.6136  0.1469 -2.2340
11142SOL     OW45898   5.023   3.977   5.624  0.1919  0.4714 -0.4403
11142SOL    HW145899   4.947   4.040   5.639  0.4866  0.3383  1.7680
11142SOL    HW245900   5.051   3.936   5.711  1.5934 -0.8808 -1.4823
11143SOL     OW45901   1.983   0.491   5.647 -0.5423  0.4444  0.8836
11143SOL    HW145902   2.083   0.494   5.649 -0.5245  1.6022 -0.9120
11143SOL    HW245903   1.949   0.464   5.737  1.4294 -1.7923  1.0243
11144SOL     OW45904   5.836   1.720   8.264  0.0405 -0.5197  0.3748
11144SOL    HW145905   5.816   1.645   8.328  1.8936  2.2444  4.4345
11144SOL    HW245906   5.935   1.728   8.252 -0.1973  0.5189 -0.9748
11145SOL     OW45907   1.051   6.842   2.436  0.1960 -0.5001 -0.0970
11145SOL    HW145908   1.099   6.843   2.348  0.3105 -2.1543 -0.0635
11145SOL    HW245909   0.990   6.763   2.440  1.0077 -1.0614  1.7463
11146SOL     OW45910   4.296   8.220   4.389 -0.0565 -0.1475  0.5060
11146SOL    HW145911   4.201   8.197   4.411  0.1851 -2.9079 -1.0368
11146SOL    HW245912   4.298   8.282   4.311 -0.5862 -0.1582  0.4780
11147SOL     OW45913   4.587   3.119   5.796  0.5663 -0.2077  0.4177
11147SOL    HW145914   4.578   3.038   5.854  0.3626 -0.1965  0.4022
11147SOL    HW245915   4.659   3.178   5.831  0.7570 -0.4247  0.3956
11148SOL     OW45916   6.358   3.133   8.683 -0.1504  0.2268 -0.4554
11148SOL    HW145917   6.397   3.214   8.640 -1.2435  1.3269  0.6118
11148SOL    HW245918   6.422   3.099   8.753  0.7139 -0.3853 -1.5222
11149SOL     OW45919   7.700   7.126   1.503  0.2780  0.0520 -0.3828
11149SOL    HW145920   7.788   7.083   1.487  1.1002  1.3645  0.5457
11149SOL    HW245921   7.669   7.172   1.419  1.5587  1.5254 -0.0545
11150SOL     OW45922   3.309   7.459   1.836 -0.1019  0.1513 -0.4303
11150SOL    HW145923   3.320   7.422   1.743  1.2760  0.1587 -0.2879
11150SOL    HW245924   3.344   7.553   1.838  0.5945 -0.1150  0.2683
11151SOL     OW45925   2.984   3.187   7.160 -0.2876 -0.1459 -0.2692
11151SOL    HW145926   2.921   3.125   7.206 -0.9024 -0.7290 -1.8763
11151SOL    HW245927   2.970   3.182   7.061  0.5792  1.5668 -0.4949
11152SOL     OW45928   2.816   8.693   7.534 -1.0797  0.2582 -0.0337
11152SOL    HW145929   2.808   8.616   7.598 -1.7061 -0.1378 -0.5880
11152SOL    HW245930   2.879   8.761   7.572 -1.6059  0.1215  1.1051
11153SOL     OW45931   3.842   3.033   5.896 -0.0945 -0.5687 -0.2041
11153SOL    HW145932   3.908   3.006   5.826  0.0649 -1.2660  0.2129
11153SOL    HW245933   3.850   2.972   5.975  0.3115  0.7412  0.7778
11154SOL     OW45934   5.464   6.726   5.558 -0.3209  0.2814 -0.0440
11154SOL    HW145935   5.522   6.707   5.637  1.1621  1.1981 -0.9100
11154SOL    HW245936   5.429   6.640   5.521  0.2132 -0.2464  0.6742
11155SOL     OW45937   3.730   4.168   4.251 -0.1113 -0.0382 -0.2673
11155SOL    HW145938   3.791   4.246   4.240  1.0410 -0.6420  1.5621
11155SOL    HW245939   3.674   4.180   4.333 -0.0230 -1.0471 -0.0477
11156SOL     OW45940   5.212   1.494   8.074 -0.4169  0.1045 -0.2148
11156SOL    HW145941   5.310   1.497   8.055 -0.7994  1.2422 -2.0916
11156SOL    HW245942   5.166   1.439   8.005 -1.2935  0.8860 -0.2679
11157SOL     OW45943   8.810   3.940   3.198  0.4558 -0.9766 -0.3345
11157SOL    HW145944   8.806   3.913   3.294  2.0062  1.3041  0.4213
11157SOL    HW245945   8.851   3.866   3.144 -0.3058 -2.2226  0.7674
11158SOL     OW45946   1.014   0.099   0.716 -0.2766  0.6135  0.0807
11158SOL    HW145947   0.946   0.140   0.655  0.3196  0.7356 -0.5138
11158SOL    HW245948   1.038   0.165   0.787  1.1260  1.5526 -1.2214
11159SOL     OW45949   2.087   2.813   1.022 -0.1201 -0.3720 -0.4215
11159SOL    HW145950   2.049   2.729   1.060 -0.1071 -0.6118 -0.9286
11159SOL    HW245951   2.165   2.790   0.964  0.8913  0.1248  0.7187
11160SOL     OW45952   1.012   6.995   2.944  0.4181 -0.2469 -0.4709
11160SOL    HW145953   1.098   7.039   2.972  1.2966 -1.1878 -1.5964
11160SOL    HW245954   1.013   6.980   2.845 -0.5146 -1.3860 -0.3266
11161SOL     OW45955   3.354   2.584   5.147 -0.6048 -0.6164 -0.5748
11161SOL    HW145956   3.324   2.547   5.235 -1.2346  0.4898 -0.3192
11161SOL    HW245957   3.276   2.624   5.099  0.1098  0.6306 -0.7181
11162SOL     OW45958   1.186   3.344   8.419 -0.2706 -0.7771  0.1509
11162SOL    HW145959   1.101   3.377   8.459  0.0490 -0.7558  0.8121
11162SOL    HW245960   1.218   3.263   8.468  0.9933  0.2288  1.0098
11163SOL     OW45961   3.283   5.375   1.852  0.4444 -0.2627 -0.7993
11163SOL    HW145962   3.261   5.369   1.949  0.0476 -1.9056 -0.9766
11163SOL    HW245963   3.372   5.332   1.835  1.0832  1.0983 -0.9887
11164SOL     OW45964   0.747   7.867   3.783 -0.2360 -0.6045 -0.1965
11164SOL    HW145965   0.741   7.961   3.749 -0.3585 -0.2640  0.7356
11164SOL    HW245966   0.805   7.865   3.864  0.0220 -1.3911 -0.3965
11165SOL     OW45967   1.252   1.850   8.761  0.4158 -0.4948  0.5076
11165SOL    HW145968   1.217   1.915   8.829  0.3379 -1.4963  1.4506
11165SOL    HW245969   1.235   1.885   8.669 -1.2171  0.0110  0.9782
11166SOL     OW45970   4.459   5.631   7.015  0.2552 -0.0089 -0.0910
11166SOL    HW145971   4.390   5.703   7.011 -0.4859 -0.7373 -0.4966
11166SOL    HW245972   4.547   5.670   7.044  0.6637  1.6813 -3.3927
11167SOL     OW45973   5.252   2.479   7.869  0.3236 -0.0215 -0.3043
11167SOL    HW145974   5.184   2.536   7.916 -0.2414 -0.0883 -1.0292
11167SOL    HW245975   5.231   2.383   7.885  0.1980 -0.0432 -0.5946
11168SOL     OW45976   0.069   0.386   0.426  0.0367  0.2794 -0.0298
11168SOL    HW145977   0.147   0.422   0.376  0.1306  1.0278  0.6500
11168SOL    HW245978   0.017   0.461   0.466  0.0543 -0.3164  1.1347
11169SOL     OW45979   7.301   4.962   0.166  0.6923  0.5412 -0.3471
11169SOL    HW145980   7.273   4.986   0.259  1.1009  0.3346 -0.1709
11169SOL    HW245981   7.294   4.863   0.153 -0.3974  0.6773 -0.8792
11170SOL     OW45982   1.447   3.324   4.841 -0.1990 -0.6735 -0.2183
11170SOL    HW145983   1.459   3.423   4.833  0.4151 -0.3946  3.2245
11170SOL    HW245984   1.357   3.305   4.879  0.7150 -1.2733  1.6938
11171SOL     OW45985   8.552   3.912   1.486  0.0800 -0.5932 -0.8759
11171SOL    HW145986   8.608   3.869   1.415  0.7334  0.6559 -1.1445
11171SOL    HW245987   8.457   3.917   1.455  0.2810 -0.4704 -1.4858
11172SOL     OW45988   7.157   6.969   1.402 -0.3112 -0.5290  0.6881
11172SOL    HW145989   7.201   7.008   1.482  0.7398 -1.8588  0.7721
11172SOL    HW245990   7.124   7.042   1.343 -0.5949  0.4640  2.0456
11173SOL     OW45991   1.326   2.364   0.553 -0.3919 -0.1034 -0.5888
11173SOL    HW145992   1.363   2.273   0.532  0.5389  0.1812 -0.2271
11173SOL    HW245993   1.398   2.420   0.593 -1.6743 -0.0545  1.6912
11174SOL     OW45994   6.414   5.353   6.325  0.0150  0.1468  0.0432
11174SOL    HW145995   6.423   5.452   6.330 -0.2596  0.1928 -0.3371
11174SOL    HW245996   6.436   5.322   6.232  2.0440 -0.3552  0.6624
11175SOL     OW45997   4.629   3.688   7.174  0.3786 -0.2088  0.3325
11175SOL    HW145998   4.690   3.677   7.096  0.8195 -0.9497  0.7785
11175SOL    HW245999   4.676   3.737   7.247 -0.4582  1.6396 -0.3462
11176SOL     OW46000   0.781   1.724   7.087  0.1672  0.8736 -0.1691
11176SOL    HW146001   0.847   1.658   7.123 -0.6246  0.5873  0.7836
11176SOL    HW246002   0.822   1.773   7.011  1.9452  1.5864  1.2001
11177SOL     OW46003   2.056   4.604   4.810  0.3482  0.1163  0.3622
11177SOL    HW146004   1.986   4.625   4.877  0.3504  1.5842 -0.0927
11177SOL    HW246005   2.116   4.683   4.797  1.4518 -0.7626 -0.0321
11178SOL     OW46006   6.589   3.141   0.273 -1.2645 -0.2755 -0.0649
11178SOL    HW146007   6.627   3.099   0.355 -2.6033 -1.3335  0.0198
11178SOL    HW246008   6.620   3.236   0.267  0.6683 -0.8487  0.4644
11179SOL     OW46009   1.767   5.746   0.191  0.1838 -0.3036  0.4099
11179SOL    HW146010   1.750   5.649   0.176  0.6196  0.0020 -2.4356
11179SOL    HW246011   1.702   5.800   0.137  1.9699  0.9361 -0.5642
11180SOL     OW46012   6.382   8.930   3.085  0.3862 -0.2414  0.1744
11180SOL    HW146013   6.320   8.982   3.145  2.4238  0.2770  1.8723
11180SOL    HW246014   6.379   8.834   3.111  0.7801 -0.1142  0.7083
11181SOL     OW46015   6.904   3.879   1.486  0.1472 -0.1904 -0.5768
11181SOL    HW146016   6.873   3.964   1.528 -1.4411 -0.8096 -0.4778
11181SOL    HW246017   6.861   3.868   1.397  1.7422 -0.0188 -1.3833
11182SOL     OW46018   7.810   0.249   2.324 -0.1665 -0.1472 -0.2435
11182SOL    HW146019   7.753   0.197   2.260 -0.0407 -1.1814  0.4651
11182SOL    HW246020   7.796   0.214   2.416  1.9554 -0.7488 -0.1149
11183SOL     OW46021   2.570   2.290   2.166  0.2100  0.1695 -0.1871
11183SOL    HW146022   2.582   2.383   2.201 -0.7197  0.7804 -1.4732
11183SOL    HW246023   2.526   2.293   2.076 -0.9048 -1.5575  0.2642
11184SOL     OW46024   2.227   2.666   8.404 -0.3407 -0.4686  0.1822
11184SOL    HW146025   2.257   2.719   8.483 -1.2851 -0.6594  0.6729
11184SOL    HW246026   2.300   2.664   8.336  1.1257 -1.6711  1.7297
11185SOL     OW46027   7.436   5.459   2.750 -0.1630 -0.3994  0.8931
11185SOL    HW146028   7.338   5.443   2.767 -0.1474 -0.6093  0.7809
11185SOL    HW246029   7.489   5.428   2.828 -0.2272  0.2131  1.1883
11186SOL     OW46030   5.558   0.729   8.056  0.0882  0.1360 -0.4317
11186SOL    HW146031   5.531   0.701   8.148  0.3253 -2.6462 -1.1724
11186SOL    HW246032   5.491   0.794   8.020 -0.7924  0.1245  1.1405
11187SOL     OW46033   7.783   3.782   8.159 -0.2130 -0.0690  0.5498
11187SOL    HW146034   7.736   3.845   8.097  0.1281  0.1881  0.5498
11187SOL    HW246035   7.768   3.688   8.129 -2.0782 -0.0840  1.4971
11188SOL     OW46036   0.345   4.037   2.284  0.1215 -0.6001 -0.3999
11188SOL    HW146037   0.314   4.049   2.189  0.2884 -1.8112 -0.6153
11188SOL    HW246038   0.365   4.127   2.324 -1.9999  0.0971 -0.8070
11189SOL     OW46039   7.299   8.593   0.183 -0.1266  0.1223  0.3691
11189SOL    HW146040   7.366   8.660   0.217 -1.0251  1.5719 -0.6324
11189SOL    HW246041   7.211   8.639   0.170 -1.0454 -1.5298  0.6860
11190SOL     OW46042   2.517   6.096   7.184 -0.5225 -0.0264  0.1117
11190SOL    HW146043   2.426   6.137   7.175  0.3456  2.0157  0.2032
11190SOL    HW246044   2.586   6.169   7.182  0.9317 -1.2293  2.9886
11191SOL     OW46045   3.261   0.186   5.231  0.4354  0.2009  0.1030
11191SOL    HW146046   3.352   0.217   5.204 -0.2250  2.0063 -0.1098
11191SOL    HW246047   3.206   0.167   5.150  0.4545 -0.4200  0.2292
11192SOL     OW46048   3.064   4.649   8.727  1.1459 -0.6953 -0.0879
11192SOL    HW146049   3.159   4.680   8.730  0.9761 -0.1301 -0.5669
11192SOL    HW246050   3.006   4.718   8.770  1.1072 -1.6534  1.4478
11193SOL     OW46051   1.782   5.537   6.510 -0.2285  0.6440  0.1670
11193SOL    HW146052   1.691   5.558   6.474 -1.1414 -2.0250  0.8263
11193SOL    HW246053   1.824   5.621   6.545 -3.8904  1.3836  3.0760
11194SOL     OW46054   8.274   3.800   0.486  0.2577 -0.7556 -0.3787
11194SOL    HW146055   8.252   3.766   0.577 -0.0668 -1.8686 -0.8677
11194SOL    HW246056   8.373   3.792   0.470  0.5659  0.9747  0.4815
11195SOL     OW46057   4.408   2.388   2.165  0.5825 -0.0449  0.1933
11195SOL    HW146058   4.426   2.464   2.103 -2.5045  1.2486  0.7950
11195SOL    HW246059   4.338   2.414   2.231  0.0010 -3.1633  0.9060
11196SOL     OW46060   7.999   4.670   3.781 -0.3065  0.6216  0.0246
11196SOL    HW146061   8.036   4.593   3.833 -1.1970 -0.5852 -1.1011
11196SOL    HW246062   8.073   4.734   3.761  0.7245 -0.5875 -0.1483
11197SOL     OW46063   1.251   4.620   2.494  0.4637  0.8343  0.4314
11197SOL    HW146064   1.295   4.659   2.413 -1.3828  2.2113  0.0651
11197SOL    HW246065   1.213   4.530   2.471 -0.2176  1.2999 -0.2940
11198SOL     OW46066   6.886   3.203   7.610 -0.1409  0.2299 -0.4199
11198SOL    HW146067   6.954   3.226   7.679 -2.3912  1.3579  1.4848
11198SOL    HW246068   6.915   3.241   7.522  1.3479  1.2796  0.4851
11199SOL     OW46069   8.669   1.833   3.261 -0.1270  0.3283 -0.0572
11199SOL    HW146070   8.574   1.812   3.235 -0.1416  0.0731  0.2098
11199SOL    HW246071   8.670   1.870   3.354 -0.0446  1.0113 -0.3273
11200SOL     OW46072   3.900   5.853   4.983  0.1087 -0.1503 -0.4389
11200SOL    HW146073   3.868   5.907   5.061  1.5436  0.7375 -0.4602
11200SOL    HW246074   3.936   5.914   4.913 -0.4183 -1.0014 -1.4721
11201SOL     OW46075   0.279   0.838   5.476 -0.3320 -0.4072  0.1855
11201SOL    HW146076   0.345   0.841   5.400  1.7719  0.7285  2.0074
11201SOL    HW246077   0.309   0.771   5.544 -0.5783  0.7353  1.4380
11202SOL     OW46078   0.884   6.982   6.634  0.2954  0.5616 -0.1769
11202SOL    HW146079   0.875   7.005   6.537  2.4341 -0.5071 -0.6615
11202SOL    HW246080   0.842   6.893   6.651  1.2748  0.0466 -0.4396
11203SOL     OW46081   5.906   6.138   6.137  0.1376  0.5180 -0.3927
11203SOL    HW146082   5.874   6.125   6.230  0.5014  0.7126 -0.2376
11203SOL    HW246083   5.981   6.075   6.118 -2.0984 -1.8673 -1.6612
11204SOL     OW46084   3.291   8.525   5.051 -0.1526 -0.0557  0.3538
11204SOL    HW146085   3.242   8.559   4.971 -1.2409 -0.8695  0.6709
11204SOL    HW246086   3.260   8.574   5.133 -1.9940 -2.0314  0.8683
11205SOL     OW46087   1.751   4.588   5.404 -0.3036 -0.2648  0.1556
11205SOL    HW146088   1.808   4.648   5.460 -1.8237  2.3029 -0.9750
11205SOL    HW246089   1.791   4.496   5.404  1.0339  0.2391  3.4394
11206SOL     OW46090   7.127   5.078   5.328 -0.0432  0.0257  0.5166
11206SOL    HW146091   7.181   5.080   5.412 -0.3811 -3.7054  0.8912
11206SOL    HW246092   7.185   5.052   5.251 -0.5338 -0.3602  0.2713
11207SOL     OW46093   0.350   6.669   4.659  0.1456 -0.0466 -0.6101
11207SOL    HW146094   0.318   6.631   4.746 -2.0261  0.4499 -1.1484
11207SOL    HW246095   0.327   6.606   4.585 -0.5443  0.8063 -1.1335
11208SOL     OW46096   2.353   8.745   7.559  0.2170 -0.3727 -0.4432
11208SOL    HW146097   2.265   8.698   7.569  0.2379 -0.1121  1.2222
11208SOL    HW246098   2.341   8.842   7.583  0.8813 -0.2727 -0.5208
11209SOL     OW46099   1.930   3.049   3.488  0.0189 -0.3657  0.2798
11209SOL    HW146100   2.005   3.002   3.536 -0.3733 -1.0393  0.2361
11209SOL    HW246101   1.956   3.063   3.393  0.2389 -0.2605  0.3531
11210SOL     OW46102   6.053   5.137   5.243 -0.1240  0.2282  0.0311
11210SOL    HW146103   6.153   5.135   5.236 -0.1417  1.8761 -0.9005
11210SOL    HW246104   6.020   5.045   5.266  1.6395 -0.1942  0.9987
11211SOL     OW46105   8.918   8.389   6.365  0.0638 -0.4384 -0.2088
11211SOL    HW146106   8.944   8.413   6.459 -1.2505 -0.2728  0.1163
11211SOL    HW246107   8.908   8.472   6.311 -1.8810 -0.3632  0.2293
11212SOL     OW46108   1.738   4.963   7.843  0.7935  0.0424 -0.0596
11212SOL    HW146109   1.700   4.987   7.933  0.5951 -1.9475  0.4006
11212SOL    HW246110   1.799   4.885   7.852  0.6008 -0.3143 -1.6905
11213SOL     OW46111   3.542   2.682   1.153  0.4468 -0.1962  0.4591
11213SOL    HW146112   3.574   2.644   1.066 -0.1463  1.8667 -0.6926
11213SOL    HW246113   3.620   2.721   1.202  0.3996  1.0442 -0.4114
11214SOL     OW46114   5.305   5.871   7.924 -0.0433 -0.7016 -0.5847
11214SOL    HW146115   5.306   5.866   8.024  3.1659 -0.2133 -0.5255
11214SOL    HW246116   5.297   5.779   7.886  1.8400 -1.2202  0.1881
11215SOL     OW46117   0.761   5.805   0.259  0.0166  0.2917 -0.0612
11215SOL    HW146118   0.848   5.838   0.222  0.0941  0.7158  0.5033
11215SOL    HW246119   0.693   5.878   0.253 -0.2784 -0.0095 -0.4140
11216SOL     OW46120   1.268   1.590   7.876 -0.1918 -0.7711 -0.1424
11216SOL    HW146121   1.327   1.532   7.932 -0.1073 -1.5559 -1.0340
11216SOL    HW246122   1.198   1.534   7.831  0.9116 -0.4346 -2.3297
11217SOL     OW46123   1.183   1.439   8.555 -0.7552  0.0377 -0.1484
11217SOL    HW146124   1.183   1.339   8.546  1.1577  0.0090  0.0134
11217SOL    HW246125   1.206   1.464   8.649  0.1559  0.6606 -0.5387
11218SOL     OW46126   4.276   4.766   1.586  0.1218  0.2249 -0.3717
11218SOL    HW146127   4.339   4.694   1.616  0.3174  0.4151 -0.3280
11218SOL    HW246128   4.312   4.810   1.504 -0.0838  0.1552 -0.4988
11219SOL     OW46129   8.996   3.827   6.006  0.0773 -0.4996 -0.2420
11219SOL    HW146130   8.908   3.819   5.959  1.2044  1.5540 -2.7971
11219SOL    HW246131   9.059   3.758   5.972 -0.0747 -1.0139  0.5137
11220SOL     OW46132   7.366   4.195   7.279 -0.7320  0.0483  0.1725
11220SOL    HW146133   7.434   4.247   7.332 -0.0374  0.3638 -1.0100
11220SOL    HW246134   7.375   4.218   7.182 -1.8640 -0.6759 -0.1124
11221SOL     OW46135   8.655   4.180   5.203  0.1498 -0.0497  0.4022
11221SOL    HW146136   8.663   4.183   5.303 -0.4929  1.9101  0.4192
11221SOL    HW246137   8.708   4.102   5.168  1.3292 -0.0837  2.1668
11222SOL     OW46138   1.371   4.559   6.338  0.2999 -0.6372 -0.2296
11222SOL    HW146139   1.327   4.647   6.357  2.9843  0.2562  2.4327
11222SOL    HW246140   1.329   4.487   6.394  0.4053 -0.3208  0.2633
11223SOL     OW46141   2.156   8.892   3.212  0.5787 -0.1115 -0.4653
11223SOL    HW146142   2.118   8.824   3.150 -1.4647  0.6980 -0.1686
11223SOL    HW246143   2.090   8.967   3.222  2.2652  1.3063  0.1578
11224SOL     OW46144   6.751   8.350   7.143  0.0164 -0.2112  0.9516
11224SOL    HW146145   6.713   8.344   7.235 -1.3306  1.1580  0.5212
11224SOL    HW246146   6.737   8.443   7.108  0.0345 -0.8672 -0.8220
11225SOL     OW46147   1.923   6.390   5.461  0.1040 -0.5399  0.5288
11225SOL    HW146148   1.867   6.335   5.523  2.3165 -0.4498  2.7025
11225SOL    HW246149   1.969   6.462   5.512  0.0153  1.1607 -1.6981
11226SOL     OW46150   6.688   4.466   5.082  0.1892 -0.2809 -0.3475
11226SOL    HW146151   6.607   4.524   5.085  0.0532 -0.4087 -1.3117
11226SOL    HW246152   6.746   4.485   5.161 -0.6701 -0.0287  0.2266
11227SOL     OW46153   2.517   3.295   7.287 -0.1270  0.1705 -0.2648
11227SOL    HW146154   2.441   3.347   7.326  0.1755  0.3847  0.0444
11227SOL    HW246155   2.571   3.354   7.228  0.9563  0.5675  1.0763
11228SOL     OW46156   2.223   7.517   0.055 -0.3862 -0.3919 -0.3369
11228SOL    HW146157   2.189   7.453  -0.013 -0.0584  0.8620 -1.7161
11228SOL    HW246158   2.311   7.485   0.090 -0.0950 -0.5612 -1.2141
11229SOL     OW46159   3.237   1.474   1.062  0.5507 -0.0450 -0.2538
11229SOL    HW146160   3.188   1.417   0.996 -0.1140  1.5107 -1.1198
11229SOL    HW246161   3.287   1.546   1.014  2.6575 -0.8233  0.7147
11230SOL     OW46162   3.842   8.932   6.776 -0.2813 -0.3227 -0.3078
11230SOL    HW146163   3.875   8.922   6.683 -1.3662  2.3297 -1.0361
11230SOL    HW246164   3.915   8.908   6.840  1.3978  0.5369 -1.8468
11231SOL     OW46165   0.584   0.595   1.208 -0.9684 -0.3667 -0.2757
11231SOL    HW146166   0.655   0.580   1.139 -1.0898  0.0189 -0.4867
11231SOL    HW246167   0.509   0.530   1.195 -0.6958 -0.7132 -0.1102
11232SOL     OW46168   2.344   4.682   7.296 -0.1062  0.0638  0.3307
11232SOL    HW146169   2.287   4.684   7.378 -0.8935  1.5802 -0.2359
11232SOL    HW246170   2.298   4.629   7.224 -1.5419  2.5032 -0.6178
11233SOL     OW46171   4.324   4.647   5.644 -0.0153  0.4109 -0.4823
11233SOL    HW146172   4.393   4.635   5.716  1.2050  0.2803 -1.6459
11233SOL    HW246173   4.293   4.557   5.613 -2.3397  0.4676  1.5285
11234SOL     OW46174   7.401   4.942   4.831  0.3888  0.1243  0.0949
11234SOL    HW146175   7.406   4.874   4.758 -0.5658  1.2616 -1.0633
11234SOL    HW246176   7.420   5.033   4.793  1.3701  0.5472  1.5589
11235SOL     OW46177   7.090   0.351   7.372 -0.4013 -0.1357 -0.0372
11235SOL    HW146178   6.990   0.357   7.370 -0.3174  1.0644 -1.0848
11235SOL    HW246179   7.118   0.260   7.342 -1.1890 -0.6372  0.7028
11236SOL     OW46180   7.035   1.543   7.919  0.3869  0.1487  0.5601
11236SOL    HW146181   7.044   1.517   8.015  0.3372  0.3508  0.6199
11236SOL    HW246182   7.111   1.503   7.867  1.4211  1.4698  0.9951
11237SOL     OW46183   6.617   1.641   7.098 -0.1288 -0.1689  0.1236
11237SOL    HW146184   6.540   1.577   7.107 -0.6117  0.4646  0.4880
11237SOL    HW246185   6.674   1.613   7.021 -1.0403 -0.3115 -0.5002
11238SOL     OW46186   4.453   8.416   1.765 -0.1914  0.6139 -0.5077
11238SOL    HW146187   4.385   8.447   1.831 -0.8856 -1.4028 -0.2229
11238SOL    HW246188   4.411   8.350   1.703  1.9087 -2.2288  0.9387
11239SOL     OW46189   3.923   4.878   3.934 -0.0705 -0.4086  0.0575
11239SOL    HW146190   4.013   4.857   3.971  0.2631  1.2679  0.2305
11239SOL    HW246191   3.928   4.886   3.835  0.6452  2.6604  0.2732
11240SOL     OW46192   0.477   1.625   7.020  0.8221  0.0368 -0.3720
11240SOL    HW146193   0.559   1.682   7.029  0.6474  0.4449 -1.3021
11240SOL    HW246194   0.484   1.548   7.082  1.1282  0.9953  0.8121
11241SOL     OW46195   8.586   3.667   5.405  0.3804 -0.6252  0.0592
11241SOL    HW146196   8.651   3.737   5.436 -0.5428 -1.1650  3.5142
11241SOL    HW246197   8.624   3.576   5.424 -0.3012 -0.9719 -0.2382
11242SOL     OW46198   5.562   7.383   6.904 -0.2859  0.3719 -0.0353
11242SOL    HW146199   5.487   7.447   6.887  0.7579  1.7383  0.3783
11242SOL    HW246200   5.642   7.411   6.851  0.9714  0.9052  2.0710
11243SOL     OW46201   1.422   5.272   8.064 -0.0783 -0.3691  0.1643
11243SOL    HW146202   1.515   5.302   8.043  0.8739 -2.8764  0.6718
11243SOL    HW246203   1.411   5.176   8.037 -1.9895 -0.6202  1.7466
11244SOL     OW46204   2.396   3.495   6.452  0.4931  0.2405  0.0983
11244SOL    HW146205   2.470   3.563   6.459 -0.6419  1.8342 -2.5349
11244SOL    HW246206   2.435   3.406   6.429  1.7098  0.8468 -0.2518
11245SOL     OW46207   4.049   1.710   6.186 -0.0089 -0.0757  1.2652
11245SOL    HW146208   4.138   1.752   6.205  0.1171 -0.2357  1.0293
11245SOL    HW246209   3.980   1.782   6.173  0.4844  0.0888 -0.4922
11246SOL     OW46210   5.012   1.594   4.657 -0.3175  0.0645 -0.2201
11246SOL    HW146211   5.064   1.590   4.742  0.5320 -0.5738 -0.7595
11246SOL    HW246212   5.065   1.551   4.583 -2.1949 -1.8923 -0.4703
11247SOL     OW46213   6.077   5.517   4.691 -0.8821  0.2164  0.1898
11247SOL    HW146214   6.016   5.442   4.666  1.5224 -1.9913  0.8150
11247SOL    HW246215   6.159   5.514   4.633 -0.5978  2.1726  0.4559
11248SOL     OW46216   4.493   6.991   3.574 -0.2530  0.2130  0.0213
11248SOL    HW146217   4.527   6.952   3.488 -0.1385 -0.4032  0.3373
11248SOL    HW246218   4.544   6.950   3.651 -2.7996 -1.9816  0.6127
11249SOL     OW46219   4.968   7.424   5.388  1.0221 -0.0884 -0.6683
11249SOL    HW146220   5.056   7.377   5.396  0.4798 -1.1312 -0.7506
11249SOL    HW246221   4.920   7.420   5.476  0.1175 -1.4294 -1.2035
11250SOL     OW46222   5.095   7.191   3.621 -0.2900 -0.5810 -0.2239
11250SOL    HW146223   5.118   7.288   3.608 -0.7350 -0.4506 -0.0818
11250SOL    HW246224   5.019   7.185   3.687 -1.0670 -0.9591 -1.1538
11251SOL     OW46225   8.089   4.619   1.007 -0.0308  0.4292  0.1139
11251SOL    HW146226   8.061   4.715   1.012  1.4188  1.1354 -3.3463
11251SOL    HW246227   8.031   4.572   0.940  1.3733 -0.2624 -0.6265
11252SOL     OW46228   3.824   5.285   4.908  0.1103  0.4717 -0.4990
11252SOL    HW146229   3.903   5.248   4.958  2.2863  1.7123 -2.8905
11252SOL    HW246230   3.771   5.344   4.968 -0.1060 -1.8758  1.6922
11253SOL     OW46231   2.387   6.502   8.069  0.2347  0.7568  0.0197
11253SOL    HW146232   2.477   6.541   8.085  1.2669 -1.0911 -1.0899
11253SOL    HW246233   2.397   6.413   8.024 -2.0830 -0.1968  1.2982
11254SOL     OW46234   0.373   5.465   5.521 -0.1422 -0.2802  0.0447
11254SOL    HW146235   0.448   5.409   5.485  0.2698  1.1061 -1.2927
11254SOL    HW246236   0.288   5.412   5.518  0.4644 -1.2735 -0.0038
11255SOL     OW46237   0.495   6.003   6.717 -0.5784 -0.5990 -0.6325
11255SOL    HW146238   0.509   5.905   6.725 -1.0213 -0.4644  2.6639
11255SOL    HW246239   0.483   6.043   6.808  0.4748  2.6554 -1.8234
11256SOL     OW46240   7.691   6.348   7.693  0.3071  0.3600  0.5658
11256SOL    HW146241   7.699   6.294   7.777  0.0190  0.2286  0.5090
11256SOL    HW246242   7.755   6.425   7.696 -0.3190  0.8505  1.2707
11257SOL     OW46243   2.385   0.826   3.873 -0.0188  0.1046  0.1741
11257SOL    HW146244   2.473   0.791   3.840  0.1226  1.3719 -0.8535
11257SOL    HW246245   2.400   0.912   3.921 -0.8861  1.4005 -1.7940
11258SOL     OW46246   8.109   5.700   1.546  0.0966 -0.1251 -0.6511
11258SOL    HW146247   8.046   5.626   1.571  0.9292 -0.7768 -0.4656
11258SOL    HW246248   8.138   5.748   1.629  1.7518 -1.3831 -0.4978
11259SOL     OW46249   5.771   2.129   6.558 -0.5060  0.3202  0.5193
11259SOL    HW146250   5.777   2.188   6.639  0.0016  1.7055 -0.5088
11259SOL    HW246251   5.853   2.071   6.553 -0.8761 -0.2851  1.3839
11260SOL     OW46252   1.222   5.676   6.500 -0.3430  0.0864  0.0287
11260SOL    HW146253   1.171   5.762   6.503 -1.9373 -0.7401 -1.8614
11260SOL    HW246254   1.305   5.684   6.554 -1.0237  2.4477  0.7793
11261SOL     OW46255   3.107   6.251   0.259 -0.1261 -0.1220 -0.0591
11261SOL    HW146256   3.075   6.312   0.186 -2.6035 -0.7986  0.4354
11261SOL    HW246257   3.129   6.305   0.340  0.9883  0.4487 -0.7226
11262SOL     OW46258   0.595   4.237   4.763 -0.2382 -0.1676  0.6764
11262SOL    HW146259   0.518   4.180   4.789 -0.2586 -0.0947  0.7749
11262SOL    HW246260   0.679   4.200   4.802 -0.2812 -0.0075  0.9205
11263SOL     OW46261   3.788   0.565   8.624  0.1547  0.6127 -0.2242
11263SOL    HW146262   3.807   0.620   8.543 -1.6894  1.0354 -0.3842
11263SOL    HW246263   3.693   0.534   8.622  0.2815  0.0629  1.4477
11264SOL     OW46264   8.048   3.358   5.709  0.1546  0.2228 -0.3018
11264SOL    HW146265   8.106   3.381   5.630  2.1735  0.3609  1.1805
11264SOL    HW246266   8.106   3.341   5.788 -1.7736 -1.7142  0.7166
11265SOL     OW46267   4.990   4.454   4.916 -0.5811  0.0344  0.1384
11265SOL    HW146268   5.012   4.528   4.980  1.5785  1.5028 -2.1825
11265SOL    HW246269   5.008   4.366   4.960  2.1232  1.0214  1.1693
11266SOL     OW46270   2.998   1.778   6.286 -0.4274  0.5222 -0.0419
11266SOL    HW146271   3.088   1.806   6.322 -0.8574  0.5069  1.0745
11266SOL    HW246272   2.965   1.699   6.338 -0.2602 -0.6334 -1.6678
11267SOL     OW46273   4.474   8.449   6.178  0.0915 -0.2512  0.0610
11267SOL    HW146274   4.501   8.499   6.096  0.9597  0.7301  0.9341
11267SOL    HW246275   4.453   8.513   6.251  0.8403 -1.1501  1.0778
11268SOL     OW46276   3.158   4.691   3.157 -0.5109  0.5651  0.2335
11268SOL    HW146277   3.171   4.745   3.240 -3.0042  0.2910  0.8353
11268SOL    HW246278   3.141   4.753   3.080  3.2004  0.9006 -0.4411
11269SOL     OW46279   8.616   7.391   4.780 -0.1410 -0.0597  0.2370
11269SOL    HW146280   8.679   7.319   4.751 -0.7661 -1.1092  1.4025
11269SOL    HW246281   8.522   7.360   4.768 -0.4336  0.9017 -0.0473
11270SOL     OW46282   6.093   0.189   6.426  0.0402 -0.3579 -0.7242
11270SOL    HW146283   6.162   0.250   6.387 -0.4114  0.7402  0.1625
11270SOL    HW246284   6.130   0.096   6.432  2.4898  0.7506  2.4086
11271SOL     OW46285   3.783   8.973   1.878  0.1123  0.8882 -0.4876
11271SOL    HW146286   3.807   8.957   1.974  0.1201 -1.2657 -0.8165
11271SOL    HW246287   3.716   9.046   1.872  0.0682  1.0016  1.1760
11272SOL     OW46288   5.218   6.061   6.478  0.3744  0.1800 -0.3101
11272SOL    HW146289   5.134   6.114   6.466 -1.7546 -3.0382 -0.0942
11272SOL    HW246290   5.270   6.098   6.555 -0.7478  2.3166 -0.5371
11273SOL     OW46291   7.126   4.844   6.705 -0.5092 -0.8322  0.7315
11273SOL    HW146292   7.062   4.885   6.641  1.9430 -0.9112 -1.8594
11273SOL    HW246293   7.106   4.746   6.715 -1.2440 -0.7038  0.4825
11274SOL     OW46294   4.530   6.468   2.957 -0.1410 -0.3122  0.0726
11274SOL    HW146295   4.504   6.451   3.052  2.9368 -2.1174  0.6733
11274SOL    HW246296   4.457   6.439   2.896 -1.5203 -0.6155  1.8355
11275SOL     OW46297   3.675   1.650   4.550 -0.0182 -0.0041 -0.8548
11275SOL    HW146298   3.585   1.606   4.544 -1.3330  2.1552  1.7394
11275SOL    HW246299   3.723   1.616   4.630  0.4631  0.6284 -0.8764
11276SOL     OW46300   2.155   0.969   7.248  0.3586  0.7604  0.2766
11276SOL    HW146301   2.117   0.898   7.308  2.7405 -1.1656 -0.4493
11276SOL    HW246302   2.246   0.995   7.280 -0.4124  3.4581  0.4601
11277SOL     OW46303   6.082   1.775   8.173  0.0151  0.2149  0.1526
11277SOL    HW146304   6.073   1.798   8.076  0.3742  0.3946  0.1615
11277SOL    HW246305   6.158   1.826   8.212 -0.5841  0.6910  0.7021
11278SOL     OW46306   0.764   4.571   8.474  0.7770 -0.2947  0.1112
11278SOL    HW146307   0.720   4.621   8.400  0.6435  0.6434  0.8131
11278SOL    HW246308   0.841   4.624   8.509  1.4805 -1.2025 -0.0402
11279SOL     OW46309   7.266   5.305   7.052  0.4205 -0.0379 -0.0136
11279SOL    HW146310   7.189   5.290   6.990  0.6694  1.0615 -0.6119
11279SOL    HW246311   7.339   5.241   7.031  1.2743  1.5711 -2.1843
11280SOL     OW46312   2.895   0.017   7.715 -0.0672 -0.3642 -0.1958
11280SOL    HW146313   2.948   0.100   7.697  0.4497  0.3562  4.0861
11280SOL    HW246314   2.801   0.031   7.684 -0.0439  1.9522  0.6530
11281SOL     OW46315   5.898   6.429   0.972  0.3227 -0.0234 -0.3849
11281SOL    HW146316   5.991   6.460   0.954  0.3798 -1.6277 -3.2301
11281SOL    HW246317   5.843   6.440   0.888 -1.4372 -1.2466  0.5780
11282SOL     OW46318   2.422   8.270   6.936  0.1758 -0.0658 -0.7286
11282SOL    HW146319   2.325   8.268   6.914  0.0674 -1.5947 -0.1319
11282SOL    HW246320   2.473   8.217   6.868  0.3178 -1.2683  0.3080
11283SOL     OW46321   7.148   2.282   8.605  0.6101  0.1478  0.0297
11283SOL    HW146322   7.147   2.377   8.573  2.3293  0.4115  0.7482
11283SOL    HW246323   7.065   2.236   8.572  1.1992  1.0468 -2.8702
11284SOL     OW46324   3.409   2.558   6.115 -0.0300 -0.6553  0.1155
11284SOL    HW146325   3.474   2.634   6.112 -0.9462  0.2348  2.0137
11284SOL    HW246326   3.459   2.472   6.104  1.3972  0.0368  0.9871
11285SOL     OW46327   0.839   2.354   0.430 -0.0922 -0.7207  0.3390
11285SOL    HW146328   0.751   2.373   0.387  0.7894 -0.3075 -1.3278
11285SOL    HW246329   0.852   2.255   0.437  0.0711 -0.8067 -1.0462
11286SOL     OW46330   2.178   5.130   7.930  0.0921  0.0236  0.3993
11286SOL    HW146331   2.237   5.186   7.989  0.6156 -0.7808  0.6475
11286SOL    HW246332   2.123   5.190   7.871  0.3069  0.8052  0.9900
11287SOL     OW46333   3.918   3.018   0.407 -0.5222  0.1887  0.8477
11287SOL    HW146334   3.978   2.960   0.352 -0.5995  0.7580  0.1538
11287SOL    HW246335   3.886   3.095   0.351 -0.5159  0.8281  1.7196
11288SOL     OW46336   8.197   7.924   0.630  0.0564  0.2040 -1.3548
11288SOL    HW146337   8.288   7.889   0.608 -0.2226 -1.8611  0.5777
11288SOL    HW246338   8.180   7.911   0.728 -2.6927 -0.3389 -1.8761
11289SOL     OW46339   6.020   4.307   3.681  0.0147  0.0856 -0.0553
11289SOL    HW146340   5.945   4.352   3.729 -0.3780  0.2887 -0.8539
11289SOL    HW246341   6.043   4.221   3.727 -0.6449  0.0713  0.2478
11290SOL     OW46342   0.223   1.906   0.671 -0.3394 -0.1273 -0.3404
11290SOL    HW146343   0.128   1.884   0.652 -0.0995 -0.3079 -1.3706
11290SOL    HW246344   0.282   1.865   0.601  0.4048  0.8874 -0.3253
11291SOL     OW46345   3.773   3.554   2.657  0.5078  0.2769  0.1091
11291SOL    HW146346   3.686   3.550   2.705  0.3560 -0.9306 -0.2698
11291SOL    HW246347   3.761   3.526   2.562  1.9518 -3.5417  0.9555
11292SOL     OW46348   7.776   2.480   6.722  0.3315 -1.1167 -0.3147
11292SOL    HW146349   7.830   2.398   6.701 -1.5666 -2.0529 -1.6909
11292SOL    HW246350   7.739   2.518   6.638  1.2460  1.2227  0.3183
11293SOL     OW46351   1.578   0.181   0.563  0.2631 -0.1308  0.4369
11293SOL    HW146352   1.597   0.216   0.655  0.6334  2.1191 -0.4682
11293SOL    HW246353   1.635   0.230   0.497 -0.7222 -1.0467 -1.1067
11294SOL     OW46354   3.456   2.249   3.393 -0.4227  0.0760  0.2040
11294SOL    HW146355   3.513   2.168   3.402 -1.7814 -0.9199 -0.0210
11294SOL    HW246356   3.514   2.328   3.370  0.8861 -0.8492  0.2702
11295SOL     OW46357   0.732   2.610   5.772  0.5444  0.4627 -0.0715
11295SOL    HW146358   0.715   2.670   5.850  1.0440  1.6322 -0.8497
11295SOL    HW246359   0.781   2.661   5.701  1.6693 -1.0888 -0.4192
11296SOL     OW46360   6.151   8.435   0.519  0.4239 -0.3706 -0.2270
11296SOL    HW146361   6.082   8.387   0.464  0.5635 -0.4091 -0.3680
11296SOL    HW246362   6.105   8.486   0.592  0.3855 -2.0813  0.9710
11297SOL     OW46363   3.168   7.359   6.426  0.6059 -0.0742  0.2065
11297SOL    HW146364   3.137   7.450   6.451 -0.1128  0.1106 -1.2872
11297SOL    HW246365   3.095   7.293   6.443  0.7408 -0.2110  0.2591
11298SOL     OW46366   3.032   4.424   7.335 -0.0529  0.4435 -0.1076
11298SOL    HW146367   2.937   4.397   7.317 -0.1328 -0.0421  1.0353
11298SOL    HW246368   3.073   4.459   7.250 -0.6556 -1.1352 -1.0629
11299SOL     OW46369   4.409   4.074   6.066 -0.3691  0.8503  0.0861
11299SOL    HW146370   4.440   4.155   6.116  0.2062 -0.9450  2.6971
11299SOL    HW246371   4.374   4.006   6.131 -1.4739 -0.7500 -2.1251
11300SOL     OW46372   3.748   5.593   4.507  0.1951  0.4062  0.0413
11300SOL    HW146373   3.751   5.512   4.448  2.4443  1.1168 -0.8717
11300SOL    HW246374   3.842   5.622   4.528 -0.5833  2.6812  0.4914
11301SOL     OW46375   2.606   1.496   0.705  0.4657 -0.0755  0.3308
11301SOL    HW146376   2.550   1.419   0.674  0.3913  0.2019 -0.2516
11301SOL    HW246377   2.573   1.529   0.793  1.2676 -1.4845  1.1689
11302SOL     OW46378   2.971   5.733   3.500 -0.2446  0.0011  0.1704
11302SOL    HW146379   2.901   5.743   3.571 -2.0993 -0.1324 -1.5803
11302SOL    HW246380   3.038   5.664   3.529 -0.0842  1.0441  2.4334
11303SOL     OW46381   2.250   6.770   3.200  0.3089 -0.5781 -0.0846
11303SOL    HW146382   2.267   6.738   3.293  0.6342  0.7289  0.3202
11303SOL    HW246383   2.336   6.780   3.151  0.4383  2.0874  0.6268
11304SOL     OW46384   3.528   3.826   3.892  0.0121 -0.1618 -0.2784
11304SOL    HW146385   3.542   3.891   3.967 -1.1456 -0.2497  0.0221
11304SOL    HW246386   3.436   3.787   3.898  0.6160 -1.6777 -0.5743
11305SOL     OW46387   2.434   7.777   2.923 -0.3783 -0.3059  0.0900
11305SOL    HW146388   2.491   7.832   2.984 -0.2157  0.0809 -0.3999
11305SOL    HW246389   2.338   7.785   2.951 -0.1604 -1.1904  1.0895
11306SOL     OW46390   8.457   1.845   4.324 -0.4341 -0.1387 -0.3933
11306SOL    HW146391   8.445   1.880   4.231 -2.3765 -0.2311 -0.1909
11306SOL    HW246392   8.428   1.749   4.327 -0.5472 -0.0828  0.3470
11307SOL     OW46393   8.592   7.052   2.377 -0.1710 -0.3566 -0.3154
11307SOL    HW146394   8.651   7.014   2.448  0.4127  0.6406 -0.2587
11307SOL    HW246395   8.568   7.147   2.401 -0.3662 -0.1781 -1.2099
11308SOL     OW46396   6.168   5.963   8.810  0.2259  0.4289 -0.2168
11308SOL    HW146397   6.094   6.023   8.841 -2.4310 -1.4578 -2.6013
11308SOL    HW246398   6.161   5.874   8.855  0.3135 -0.1348 -1.2753
11309SOL     OW46399   2.158   2.726   6.416 -0.3940 -0.4174 -0.2084
11309SOL    HW146400   2.139   2.674   6.333 -2.4593 -0.6924  0.3907
11309SOL    HW246401   2.121   2.819   6.405  0.3089 -0.1128 -0.0083
11310SOL     OW46402   2.618   5.032   4.591  0.6077 -0.1331  0.2787
11310SOL    HW146403   2.634   5.129   4.609 -0.8822  0.1355  0.1744
11310SOL    HW246404   2.690   4.978   4.634  0.5555  0.9208  1.7133
11311SOL     OW46405   1.323   8.687   7.647  0.0811 -0.6176  0.5128
11311SOL    HW146406   1.340   8.592   7.624 -1.1176 -0.6178 -0.4234
11311SOL    HW246407   1.262   8.692   7.726 -1.0419 -0.6434 -0.3409
11312SOL     OW46408   6.131   4.288   4.392 -0.1543  0.1320 -0.7520
11312SOL    HW146409   6.155   4.192   4.380  4.7158  0.5914  3.5619
11312SOL    HW246410   6.053   4.296   4.453  0.3406 -1.0570  0.0502
11313SOL     OW46411   6.947   3.022   0.119  0.3912 -0.5456 -0.3778
11313SOL    HW146412   6.882   2.953   0.086  0.6487  0.0439 -2.1926
11313SOL    HW246413   6.901   3.110   0.129  0.6234 -0.4083 -0.4972
11314SOL     OW46414   3.071   0.023   6.805  0.3105 -0.2236  0.0139
11314SOL    HW146415   3.142  -0.000   6.872 -0.7691 -2.2030  0.5238
11314SOL    HW246416   2.988   0.051   6.853  0.3972  1.0265 -0.5580
11315SOL     OW46417   0.979   6.606   0.970  0.3727 -0.3398 -0.6065
11315SOL    HW146418   0.964   6.614   1.068 -1.2589 -2.9065 -0.6027
11315SOL    HW246419   1.072   6.573   0.953  0.8000  0.5149  0.0324
11316SOL     OW46420   1.985   1.810   8.102  0.0829  0.6154 -0.0099
11316SOL    HW146421   1.909   1.863   8.139  0.5981  2.3084 -1.2905
11316SOL    HW246422   2.035   1.866   8.036  0.0910 -1.8056 -2.1267
11317SOL     OW46423   3.287   6.067   7.570 -0.4949  0.0907  0.0783
11317SOL    HW146424   3.358   6.058   7.501  0.5996 -0.3350  1.2308
11317SOL    HW246425   3.236   5.982   7.577 -1.4301  0.5557 -1.0826
11318SOL     OW46426   1.328   0.957   5.038 -0.0532 -0.4147  0.0915
11318SOL    HW146427   1.353   1.032   4.977 -0.0160  0.8538  1.6006
11318SOL    HW246428   1.240   0.918   5.010 -0.2563  0.4632 -0.4926
11319SOL     OW46429   7.320   7.704   8.853  0.6395 -0.2869  0.1666
11319SOL    HW146430   7.258   7.667   8.783  2.3833  1.2918 -2.2805
11319SOL    HW246431   7.271   7.772   8.908 -0.3723 -0.6075 -0.3184
11320SOL     OW46432   3.705   2.082   3.395  0.5241  0.9452 -0.0879
11320SOL    HW146433   3.779   2.044   3.341  0.9441 -0.3691  1.3592
11320SOL    HW246434   3.712   2.182   3.396  0.2072  1.0234 -2.8143
11321SOL     OW46435   8.015   8.757   8.337 -0.0133  0.6176 -0.2395
11321SOL    HW146436   8.057   8.845   8.361  0.3343  0.4699 -0.3050
11321SOL    HW246437   8.085   8.685   8.340 -0.5525  0.1245  1.0722
11322SOL     OW46438   8.520   5.020   0.992 -0.0352  0.1600  0.5297
11322SOL    HW146439   8.435   5.002   0.942  0.3287  0.4260 -0.1998
11322SOL    HW246440   8.518   4.973   1.080 -0.4825 -0.7239  0.0549
11323SOL     OW46441   6.306   3.089   3.760  1.0043 -0.4786  0.3408
11323SOL    HW146442   6.362   3.010   3.784  1.5137  0.0673  0.9834
11323SOL    HW246443   6.253   3.117   3.840 -0.4430 -1.1930 -0.3548
11324SOL     OW46444   8.448   7.363   4.361  0.5167  0.2590  0.1380
11324SOL    HW146445   8.466   7.284   4.303  1.7229 -0.7287  1.8521
11324SOL    HW246446   8.535   7.404   4.390 -0.0389 -0.0415  2.3063
11325SOL     OW46447   2.903   3.727   2.569 -0.2500  0.3603 -0.1552
11325SOL    HW146448   2.944   3.641   2.598 -1.2087  0.0194  0.2203
11325SOL    HW246449   2.944   3.756   2.482  0.9282  0.1520  0.3214
11326SOL     OW46450   4.325   1.581   8.466 -0.6340 -0.5436 -0.3505
11326SOL    HW146451   4.397   1.526   8.508  0.1515  0.5221 -0.3014
11326SOL    HW246452   4.296   1.652   8.530  0.1436  0.7005 -1.3612
11327SOL     OW46453   7.140   4.648   8.737 -0.2580  0.1278  0.2159
11327SOL    HW146454   7.210   4.595   8.689 -0.2779 -0.5919  0.9778
11327SOL    HW246455   7.073   4.682   8.671 -0.1777 -0.7001 -0.2916
11328SOL     OW46456   6.582   6.139   1.548 -0.7465 -0.4045  0.2954
11328SOL    HW146457   6.555   6.116   1.455 -0.0728 -3.4383  0.7913
11328SOL    HW246458   6.675   6.173   1.549 -0.5391 -0.9524 -0.0892
11329SOL     OW46459   4.636   2.133   0.539  0.8467  0.2904  0.8360
11329SOL    HW146460   4.689   2.204   0.495  0.1527 -0.6499 -1.5665
11329SOL    HW246461   4.630   2.053   0.479  0.0299 -1.0878  2.6950
11330SOL     OW46462   6.220   8.459   7.551 -0.0437  0.1580  0.3075
11330SOL    HW146463   6.254   8.536   7.605 -1.5566  0.4951  0.8187
11330SOL    HW246464   6.129   8.482   7.516  0.3888 -0.5730 -1.3089
11331SOL     OW46465   4.595   6.884   4.849 -0.2681  0.1320  0.2177
11331SOL    HW146466   4.649   6.959   4.810 -0.4418  0.6399  0.9374
11331SOL    HW246467   4.511   6.874   4.797 -0.9748  1.4813  1.0624
11332SOL     OW46468   8.853   3.488   2.043 -0.1554  0.1338 -0.0840
11332SOL    HW146469   8.839   3.443   1.955  0.3441 -0.1969  0.0046
11332SOL    HW246470   8.924   3.558   2.034  0.9950 -0.9641  0.4206
11333SOL     OW46471   4.810   4.989   7.167 -0.6174 -0.3392 -0.4478
11333SOL    HW146472   4.731   5.050   7.160 -1.1188 -0.9804 -0.5047
11333SOL    HW246473   4.889   5.031   7.123 -0.3071  1.2995  1.6067
11334SOL     OW46474   6.167   6.304   8.397 -0.4883 -0.2412 -0.4616
11334SOL    HW146475   6.163   6.303   8.297  1.2302 -1.1747 -0.5454
11334SOL    HW246476   6.097   6.365   8.433 -0.0890  1.3190 -2.2884
11335SOL     OW46477   3.571   2.707   8.813 -0.6670 -0.3914  0.6331
11335SOL    HW146478   3.585   2.711   8.715  0.9208 -1.0516  0.8220
11335SOL    HW246479   3.530   2.793   8.845 -0.7513  0.0020 -0.5243
11336SOL     OW46480   6.347   4.156   1.464  0.1425 -0.1141  0.5838
11336SOL    HW146481   6.365   4.082   1.530 -0.0521 -0.6297  0.0628
11336SOL    HW246482   6.265   4.206   1.493  0.9324  0.6387  1.5681
11337SOL     OW46483   4.059   1.013   5.811 -0.2286 -0.3839  0.8805
11337SOL    HW146484   3.982   0.950   5.820  1.0054 -1.9850  0.5007
11337SOL    HW246485   4.062   1.050   5.719  0.4546 -1.6777  0.3656
11338SOL     OW46486   1.404   1.963   1.716 -0.8106  0.2695 -0.3977
11338SOL    HW146487   1.475   2.012   1.767  0.5480 -1.7983 -0.2235
11338SOL    HW246488   1.447   1.890   1.661 -2.8379 -1.2706  0.0156
11339SOL     OW46489   7.464   7.025   0.198 -0.2072 -0.1512 -0.4915
11339SOL    HW146490   7.462   7.120   0.168 -0.6149 -0.4302 -1.3698
11339SOL    HW246491   7.372   6.997   0.227  0.3475  0.3859  1.9290
11340SOL     OW46492   4.717   6.300   0.465 -0.1851 -0.3023 -0.3280
11340SOL    HW146493   4.727   6.209   0.425  0.1420 -0.3469 -0.1426
11340SOL    HW246494   4.621   6.315   0.487 -0.2420 -0.6060 -0.3561
11341SOL     OW46495   5.973   1.612   0.808 -0.0675  0.2479 -0.2353
11341SOL    HW146496   5.897   1.548   0.807  0.2082 -0.1615  2.2248
11341SOL    HW246497   5.940   1.703   0.836  0.4949 -0.1802  1.9017
11342SOL     OW46498   0.692   5.176   8.852  0.5216  0.2118  0.1124
11342SOL    HW146499   0.738   5.216   8.931 -0.0897 -0.8906  1.0371
11342SOL    HW246500   0.600   5.149   8.878 -0.3147  1.4878 -1.4640
11343SOL     OW46501   8.082   1.790   5.687  0.2923  0.4607 -0.0722
11343SOL    HW146502   8.006   1.806   5.749 -1.4841  0.3994 -2.1637
11343SOL    HW246503   8.166   1.829   5.725 -1.4185  3.3694  0.7984
11344SOL     OW46504   5.778   7.463   2.143 -0.2337 -0.0148 -0.2994
11344SOL    HW146505   5.848   7.495   2.079  1.7280 -1.0213  1.2832
11344SOL    HW246506   5.759   7.533   2.211 -1.5114  0.6222 -1.2665
11345SOL     OW46507   8.354   3.419   6.953  0.2451 -0.2342  0.0563
11345SOL    HW146508   8.427   3.462   6.900  2.7830 -2.3492  1.7386
11345SOL    HW246509   8.307   3.351   6.897  1.1537 -0.5575 -0.3209
11346SOL     OW46510   4.695   4.232   2.937  0.0730  0.2465 -0.1791
11346SOL    HW146511   4.777   4.290   2.934  1.0519 -0.9904  1.7150
11346SOL    HW246512   4.693   4.173   2.856  0.1325  1.4874 -1.1002
11347SOL     OW46513   6.399   4.402   7.903 -0.3248 -0.3848  0.3887
11347SOL    HW146514   6.410   4.485   7.849  0.6219 -2.3495 -2.5942
11347SOL    HW246515   6.436   4.416   7.995  1.6126  1.8763 -0.6955
11348SOL     OW46516   2.515   7.432   3.904  0.4399  0.2577 -0.3285
11348SOL    HW146517   2.595   7.468   3.854  1.1835  0.3968  0.9238
11348SOL    HW246518   2.511   7.333   3.893 -1.9739  0.7168 -4.3160
11349SOL     OW46519   1.489   2.549   6.023 -0.0611 -0.2104 -0.0909
11349SOL    HW146520   1.520   2.532   5.929  0.4618  0.9502 -0.1404
11349SOL    HW246521   1.479   2.462   6.071  0.8341 -0.7543 -0.8624
11350SOL     OW46522   7.277   3.929   2.758  0.0075 -0.9188  0.1485
11350SOL    HW146523   7.268   4.005   2.694  2.0927  0.2961  1.2325
11350SOL    HW246524   7.186   3.897   2.784 -0.8719 -0.9458 -2.7923
11351SOL     OW46525   4.738   7.824   0.145  0.3941 -0.1916  0.1202
11351SOL    HW146526   4.730   7.767   0.064  0.0266 -0.0552  0.0589
11351SOL    HW246527   4.810   7.789   0.205  2.0956  0.8732 -1.2391
11352SOL     OW46528   6.100   2.932   7.111 -0.2122 -0.1537 -0.2403
11352SOL    HW146529   6.036   2.863   7.076  0.6871 -0.0285 -2.2317
11352SOL    HW246530   6.048   3.011   7.143 -1.1656 -1.0054  0.3661
11353SOL     OW46531   3.340   1.229   1.423  0.3218 -0.0514 -0.0489
11353SOL    HW146532   3.367   1.140   1.388  1.8116  0.2710  0.2370
11353SOL    HW246533   3.251   1.255   1.386  0.4322 -1.1272 -1.0566
11354SOL     OW46534   7.136   4.971   4.130  0.2179 -0.4330 -0.0993
11354SOL    HW146535   7.091   5.059   4.144 -1.0313 -1.0544 -0.2178
11354SOL    HW246536   7.137   4.949   4.032 -0.2064 -0.9371  0.0081
11355SOL     OW46537   3.400   5.399   5.009  0.6829 -0.2484 -0.2679
11355SOL    HW146538   3.353   5.311   4.996  1.6347 -0.5791 -1.5738
11355SOL    HW246539   3.492   5.383   5.045  0.5423  0.2756  0.3328
11356SOL     OW46540   5.468   1.900   5.965  0.7281  0.0876 -0.0409
11356SOL    HW146541   5.542   1.966   5.972  1.2381 -0.7110  2.4119
11356SOL    HW246542   5.381   1.944   5.988  0.7929  0.3717 -0.3300
11357SOL     OW46543   3.847   7.783   8.250  0.6285 -0.2529  0.2549
11357SOL    HW146544   3.877   7.704   8.196  2.6565  0.1894  0.6819
11357SOL    HW246545   3.910   7.796   8.327 -0.5748  0.8626  1.0702
11358SOL     OW46546   4.327   7.554   4.364  0.3347 -0.3563 -0.1093
11358SOL    HW146547   4.348   7.473   4.419 -2.9850 -0.6798  0.7978
11358SOL    HW246548   4.392   7.627   4.386  0.8441 -1.4372  2.1281
11359SOL     OW46549   7.640   4.708   5.427  0.7980  0.4340 -0.1899
11359SOL    HW146550   7.708   4.703   5.500  0.4275 -0.6188  0.0878
11359SOL    HW246551   7.682   4.679   5.340  0.4073 -1.2560  0.1877
11360SOL     OW46552   0.297   7.601   1.569 -0.4358 -0.2665  0.1767
11360SOL    HW146553   0.330   7.608   1.663  2.0590 -0.3725 -0.6740
11360SOL    HW246554   0.300   7.691   1.525  1.1827 -0.7416 -0.7083
11361SOL     OW46555   8.870   7.224   5.540  0.3575  0.3286 -0.6108
11361SOL    HW146556   8.933   7.273   5.480 -1.5088  0.9159 -2.1505
11361SOL    HW246557   8.876   7.126   5.522  1.9480  0.2302  0.3677
11362SOL     OW46558   2.231   3.614   1.932  0.2564  0.1312 -0.1170
11362SOL    HW146559   2.328   3.634   1.921  0.8564 -1.0671  2.5310
11362SOL    HW246560   2.195   3.663   2.011 -0.7471 -1.1176  0.2268
11363SOL     OW46561   5.266   7.870   6.723 -0.0823  0.2646 -0.1436
11363SOL    HW146562   5.299   7.786   6.681 -0.5180  0.3575 -0.6810
11363SOL    HW246563   5.317   7.888   6.807  0.1812 -0.4021 -0.1597
11364SOL     OW46564   3.058   5.923   1.477  0.2569 -0.0318  0.6712
11364SOL    HW146565   2.978   5.979   1.495 -0.3460 -0.9818  0.9898
11364SOL    HW246566   3.119   5.925   1.557  0.1780  0.0632  0.7286
11365SOL     OW46567   1.781   2.020   6.649  0.2968 -0.3396  0.3250
11365SOL    HW146568   1.736   1.977   6.728  0.4483 -1.3340 -0.1268
11365SOL    HW246569   1.824   1.949   6.592  0.9179  0.4472 -0.1974
11366SOL     OW46570   1.872   6.147   2.366  0.0874 -0.3137 -0.7432
11366SOL    HW146571   1.919   6.169   2.452  0.3494 -0.9164 -0.7306
11366SOL    HW246572   1.783   6.106   2.386  0.9219 -2.1941 -0.7196
11367SOL     OW46573   3.937   6.231   2.147  0.4885 -0.2771  0.6437
11367SOL    HW146574   3.889   6.316   2.125  0.9152 -0.2621 -0.2634
11367SOL    HW246575   3.870   6.162   2.175 -0.2018 -0.5671 -1.6058
11368SOL     OW46576   3.653   1.178   4.895 -0.1664  0.4058  0.0954
11368SOL    HW146577   3.640   1.092   4.845  0.6738 -0.1266  0.7728
11368SOL    HW246578   3.729   1.229   4.854  0.9488 -0.3329  1.2061
11369SOL     OW46579   3.678   7.005   7.029 -0.4574  0.0860  0.7839
11369SOL    HW146580   3.578   7.004   7.031 -0.4976  0.8757 -0.2717
11369SOL    HW246581   3.710   6.961   6.945  0.0673  0.1177  0.9663
11370SOL     OW46582   4.582   2.696   8.655 -0.0178  0.3481 -0.2941
11370SOL    HW146583   4.599   2.665   8.561 -1.1627 -0.9239 -0.1045
11370SOL    HW246584   4.585   2.796   8.658 -0.7299  0.4405 -1.8493
11371SOL     OW46585   5.933   4.805   5.906  0.1245 -0.5826 -0.3284
11371SOL    HW146586   5.948   4.767   5.814  1.3848  0.7007 -0.6650
11371SOL    HW246587   6.014   4.856   5.935 -0.6566 -0.1132  1.0813
11372SOL     OW46588   2.598   7.839   7.858  0.8294  0.5679 -0.2263
11372SOL    HW146589   2.568   7.873   7.769  0.4565 -1.5466 -0.9133
11372SOL    HW246590   2.652   7.910   7.904 -0.6649  2.4163 -1.2546
11373SOL     OW46591   8.409   6.785   1.309  0.2893 -0.1014  0.5570
11373SOL    HW146592   8.341   6.716   1.285  0.4774 -0.6131  1.4935
11373SOL    HW246593   8.472   6.798   1.233 -1.1693  0.7661 -0.5338
11374SOL     OW46594   2.077   0.504   0.595 -0.3591 -0.3321 -0.5550
11374SOL    HW146595   2.071   0.491   0.496 -1.8477 -0.5992 -0.4298
11374SOL    HW246596   2.144   0.440   0.633  0.6150  0.1359 -1.4483
11375SOL     OW46597   1.027   7.507   2.356 -0.2886 -0.0250  0.8756
11375SOL    HW146598   0.953   7.569   2.382 -0.2883 -0.1228  1.1101
11375SOL    HW246599   0.991   7.414   2.346 -0.3540  0.0650  0.2038
11376SOL     OW46600   8.917   5.717   8.607 -0.2523 -0.2016  0.4329
11376SOL    HW146601   9.011   5.723   8.640 -0.9077  2.0642  2.0158
11376SOL    HW246602   8.910   5.643   8.540  2.6869 -0.2725  0.1245
11377SOL     OW46603   4.278   3.982   3.740  0.4862 -0.1947  0.2346
11377SOL    HW146604   4.253   4.071   3.778  0.5374  0.8827 -2.2218
11377SOL    HW246605   4.291   3.917   3.815 -1.5875  1.3059  1.9745
11378SOL     OW46606   2.031   4.093   3.503 -0.5304 -0.5796 -0.0675
11378SOL    HW146607   2.128   4.076   3.516 -0.6509 -0.5565  0.8783
11378SOL    HW246608   2.006   4.074   3.408  0.4187 -0.4700 -0.3423
11379SOL     OW46609   3.114   5.571   8.171 -0.1352  0.4188  0.1528
11379SOL    HW146610   3.179   5.554   8.245 -0.6236  1.0719  0.7461
11379SOL    HW246611   3.033   5.514   8.185  0.8053 -1.2993 -1.2558
11380SOL     OW46612   1.738   8.983   7.470 -0.0733  0.0820  0.4821
11380SOL    HW146613   1.656   8.947   7.514 -1.2252  1.3889 -0.5400
11380SOL    HW246614   1.734   9.083   7.472  1.6521  0.1528  0.6959
11381SOL     OW46615   3.958   6.914   0.909 -0.1181 -0.1930 -0.4115
11381SOL    HW146616   3.916   6.856   0.979  1.8277 -1.6563 -0.4133
11381SOL    HW246617   4.007   6.990   0.952  1.8924 -1.6342 -0.0852
11382SOL     OW46618   5.400   5.658   7.524 -0.2664 -0.3703 -0.0951
11382SOL    HW146619   5.409   5.666   7.424  1.3231  1.0189  0.1367
11382SOL    HW246620   5.424   5.745   7.566 -2.0969 -0.5746  1.4631
11383SOL     OW46621   8.627   4.017   5.998 -0.3047  0.5624  0.3458
11383SOL    HW146622   8.599   4.002   6.093  3.0389  3.0011  1.8036
11383SOL    HW246623   8.683   3.940   5.967  2.1894  1.7136  1.8610
11384SOL     OW46624   1.023   1.894   4.168  0.3911 -0.3887  0.2092
11384SOL    HW146625   1.104   1.917   4.222 -0.1245  1.6336  0.1373
11384SOL    HW246626   0.965   1.975   4.157 -0.4245 -1.2048 -1.8360
11385SOL     OW46627   5.099   8.385   6.524 -0.2209  0.4555  0.2985
11385SOL    HW146628   5.092   8.462   6.587  1.8431  2.0599 -1.3788
11385SOL    HW246629   5.168   8.321   6.556  0.2997  0.8939  0.0483
11386SOL     OW46630   8.168   2.628   8.504 -0.0964  0.2104  0.4832
11386SOL    HW146631   8.088   2.626   8.563 -1.5407  0.3572 -1.4253
11386SOL    HW246632   8.147   2.679   8.420  1.9536  0.1520 -0.1115
11387SOL     OW46633   6.950   7.325   2.835  0.2088 -0.2024 -0.4217
11387SOL    HW146634   6.961   7.227   2.820 -0.2044 -0.2588 -0.3572
11387SOL    HW246635   6.931   7.342   2.931 -0.4734 -0.1257 -0.5681
11388SOL     OW46636   7.050   4.627   5.206 -0.1646  0.1695 -0.4458
11388SOL    HW146637   7.006   4.667   5.287 -0.4399 -0.5072 -0.2577
11388SOL    HW246638   6.992   4.643   5.126 -1.5553 -2.0575  0.0535
11389SOL     OW46639   4.864   5.820   2.258 -0.4164 -0.4392  0.1979
11389SOL    HW146640   4.789   5.757   2.278  0.7594 -1.1110  2.6951
11389SOL    HW246641   4.932   5.815   2.331  1.8485  0.4967 -1.7821
11390SOL     OW46642   5.083   6.172   2.394 -0.1638 -1.0988  0.1990
11390SOL    HW146643   5.069   6.098   2.329  0.3281 -2.5328  1.7039
11390SOL    HW246644   5.046   6.257   2.356 -2.9186 -2.5831 -0.5185
11391SOL     OW46645   2.069   6.681   5.074 -0.2556 -0.4856  0.0674
11391SOL    HW146646   2.044   6.756   5.013 -3.9233 -0.9782  0.8450
11391SOL    HW246647   2.082   6.598   5.021  0.8282  0.0120 -0.4660
11392SOL     OW46648   2.809   5.279   7.924 -0.0719 -0.6264 -0.6517
11392SOL    HW146649   2.742   5.349   7.899  1.1990  0.1131 -2.0966
11392SOL    HW246650   2.843   5.297   8.017  0.2831  0.7420 -1.0269
11393SOL     OW46651   3.527   5.511   6.715 -0.0310  0.4896 -0.1568
11393SOL    HW146652   3.430   5.487   6.712 -0.5706  2.4923  0.5857
11393SOL    HW246653   3.549   5.552   6.803  1.3632  0.5878 -0.5360
11394SOL     OW46654   1.079   4.831   6.747  0.6174 -0.2286 -0.3711
11394SOL    HW146655   1.164   4.875   6.775  0.5548  0.6937 -1.5936
11394SOL    HW246656   1.046   4.773   6.822  0.6480  1.8569  1.3331
11395SOL     OW46657   8.249   7.555   7.493  0.0273 -0.0896  0.1014
11395SOL    HW146658   8.274   7.633   7.551  0.0081  0.1651 -0.2293
11395SOL    HW246659   8.160   7.520   7.521  0.4443 -0.5801  0.8537
11396SOL     OW46660   8.258   1.579   8.570 -0.3538 -0.1339  0.0322
11396SOL    HW146661   8.182   1.644   8.563 -1.3387 -1.2809 -0.0117
11396SOL    HW246662   8.262   1.523   8.487  0.2718 -0.3906  0.2297
11397SOL     OW46663   0.583   4.360   3.598 -0.4739  0.4176  0.3055
11397SOL    HW146664   0.650   4.287   3.616 -1.0017 -0.0067  0.5551
11397SOL    HW246665   0.627   4.432   3.544 -0.2853 -0.6645 -1.0139
11398SOL     OW46666   8.033   0.641   2.086 -0.0907  0.3703 -0.3286
11398SOL    HW146667   7.997   0.619   2.177  1.3653 -0.5314  0.0438
11398SOL    HW246668   8.070   0.734   2.087  1.2416 -0.1524  0.4270
11399SOL     OW46669   0.564   8.620   0.237  1.1001 -0.3016 -0.6540
11399SOL    HW146670   0.630   8.693   0.217  4.4236 -2.3418  2.2306
11399SOL    HW246671   0.587   8.578   0.325 -2.8395 -2.5557 -0.6020
11400SOL     OW46672   7.231   6.549   6.089 -0.0508  0.4979  0.4521
11400SOL    HW146673   7.201   6.477   6.152 -0.3100  0.0319 -0.2054
11400SOL    HW246674   7.295   6.610   6.137 -0.9533  0.6833  1.4363
11401SOL     OW46675   8.187   5.277   0.367  0.0996  0.4220  0.0303
11401SOL    HW146676   8.183   5.207   0.296  1.2521 -1.4267  1.7479
11401SOL    HW246677   8.280   5.314   0.371 -0.5311  2.1619 -0.9468
11402SOL     OW46678   8.537   4.706   7.999  0.2714 -0.2707  0.3400
11402SOL    HW146679   8.619   4.652   8.017  0.3088  0.1841  1.5728
11402SOL    HW246680   8.559   4.779   7.934  0.4027 -1.2497 -0.7271
11403SOL     OW46681   5.062   8.647   0.391 -0.3326 -0.2501 -1.1284
11403SOL    HW146682   5.066   8.581   0.466 -1.2722 -1.0912 -1.8088
11403SOL    HW246683   4.967   8.670   0.372 -0.0176  1.5047 -0.7416
11404SOL     OW46684   6.013   8.968   2.053  0.3193 -0.1608 -0.9333
11404SOL    HW146685   5.914   8.970   2.044  0.2398 -1.1507 -0.2833
11404SOL    HW246686   6.054   9.025   1.981 -0.6530 -1.1073 -2.2578
11405SOL     OW46687   8.961   6.819   7.125 -0.2513 -0.1941 -0.1462
11405SOL    HW146688   9.038   6.854   7.178  0.7907  0.4783 -2.0616
11405SOL    HW246689   8.881   6.877   7.141  0.3245  0.5773 -0.0491
11406SOL     OW46690   6.200   8.341   8.889  0.2993  0.4214 -0.1980
11406SOL    HW146691   6.226   8.251   8.854  4.6236  0.9737  1.3574
11406SOL    HW246692   6.214   8.409   8.818  0.3982  0.3607 -0.2372
11407SOL     OW46693   6.627   2.184   1.352  0.6167 -0.2265  0.2519
11407SOL    HW146694   6.571   2.266   1.339  3.5082  1.6058 -1.2221
11407SOL    HW246695   6.661   2.182   1.446 -1.2785 -1.0032  0.9610
11408SOL     OW46696   7.964   5.354   6.075  0.0181 -0.5584 -0.0345
11408SOL    HW146697   7.971   5.337   6.174 -0.4079 -1.0304 -0.0867
11408SOL    HW246698   7.948   5.451   6.059 -1.6668 -0.7424  0.4436
11409SOL     OW46699   7.775   4.638   6.756 -0.1626  0.6602  0.4953
11409SOL    HW146700   7.859   4.596   6.720 -0.7817 -0.7662  0.6708
11409SOL    HW246701   7.799   4.715   6.815  1.0518 -0.0252  0.9120
11410SOL     OW46702   8.163   4.594   5.841 -0.7159 -0.2763 -0.5296
11410SOL    HW146703   8.250   4.553   5.815 -0.3142  0.1282  0.1500
11410SOL    HW246704   8.091   4.525   5.837 -0.3136 -0.6838 -0.8207
11411SOL     OW46705   4.579   7.540   0.667 -0.2898 -0.5320  0.0710
11411SOL    HW146706   4.558   7.636   0.647 -0.0663 -0.3150  0.8232
11411SOL    HW246707   4.551   7.482   0.591 -1.1092  0.0522 -0.0792
11412SOL     OW46708   1.177   1.018   0.992  0.0398 -0.1840 -0.6492
11412SOL    HW146709   1.253   0.980   1.045 -0.3088 -1.2256 -0.9021
11412SOL    HW246710   1.091   0.990   1.033 -0.2178  1.3830 -0.0902
11413SOL     OW46711   0.335   7.924   6.887 -0.1046 -0.0436  0.1003
11413SOL    HW146712   0.373   7.909   6.795  0.8456 -0.6608  0.5837
11413SOL    HW246713   0.356   7.846   6.945  0.0894  0.7412  1.1052
11414SOL     OW46714   4.414   4.774   4.976  0.2542 -1.2664 -0.2152
11414SOL    HW146715   4.506   4.761   4.940  0.4313 -1.9862  0.4850
11414SOL    HW246716   4.371   4.685   4.991 -0.6977 -0.9293 -0.8961
11415SOL     OW46717   1.244   6.003   6.088  0.0795  0.3857 -0.1713
11415SOL    HW146718   1.267   5.947   6.008 -0.2425 -0.4110  0.2853
11415SOL    HW246719   1.310   5.985   6.161 -1.5081 -1.3834  0.8988
11416SOL     OW46720   8.408   7.297   7.691  0.6359  0.2832 -0.1976
11416SOL    HW146721   8.503   7.321   7.706  0.9108 -0.8161 -0.1627
11416SOL    HW246722   8.385   7.308   7.594  0.5788  1.3102 -0.0677
11417SOL     OW46723   5.013   0.104   1.105 -0.0788  0.1544  0.0444
11417SOL    HW146724   5.036   0.197   1.133  1.9056 -0.0661 -0.7564
11417SOL    HW246725   4.941   0.107   1.036  0.7934  1.1832 -0.8436
11418SOL     OW46726   7.201   4.155   3.638  0.2763 -0.2520  0.5927
11418SOL    HW146727   7.282   4.199   3.599 -0.2128  0.5123  0.4355
11418SOL    HW246728   7.127   4.156   3.572  0.3120 -1.4727  0.5281
11419SOL     OW46729   3.004   0.805   3.820 -0.7992 -0.5182 -0.0655
11419SOL    HW146730   3.063   0.766   3.749  0.8685 -0.6957  1.3762
11419SOL    HW246731   2.966   0.730   3.875 -0.8223 -0.3096  0.1997
11420SOL     OW46732   2.499   2.514   7.938  0.7448  0.0485 -0.3638
11420SOL    HW146733   2.489   2.545   7.843  0.3867 -1.8980 -0.9709
11420SOL    HW246734   2.596   2.519   7.964  0.9262  0.0081 -1.0202
11421SOL     OW46735   4.154   1.210   3.231 -0.0611  0.3197 -0.0029
11421SOL    HW146736   4.240   1.257   3.209  0.1776 -0.6611 -1.2111
11421SOL    HW246737   4.156   1.183   3.327  0.9869  0.3095 -0.0129
11422SOL     OW46738   8.480   6.862   6.667  0.1648 -0.0325  0.5246
11422SOL    HW146739   8.415   6.890   6.595  2.7490  2.8171 -0.7985
11422SOL    HW246740   8.519   6.773   6.643 -0.3632  0.0454 -0.6814
11423SOL     OW46741   7.486   2.940   3.100  0.1886 -0.0442 -0.3445
11423SOL    HW146742   7.479   2.878   3.022 -0.0557 -0.9106  0.3613
11423SOL    HW246743   7.401   2.991   3.110  0.1538 -0.0667 -0.5229
11424SOL     OW46744   2.779   3.296   6.646  0.3649 -0.1158 -0.3524
11424SOL    HW146745   2.867   3.337   6.621  0.9561 -1.3908 -0.3641
11424SOL    HW246746   2.714   3.310   6.572  0.4662  1.0501 -0.2421
11425SOL     OW46747   3.888   1.625   3.860  0.3416  0.2089 -0.1311
11425SOL    HW146748   3.840   1.670   3.934  1.4027 -1.0090  1.3386
11425SOL    HW246749   3.949   1.555   3.897  0.0735 -1.2042 -2.2058
11426SOL     OW46750   6.775   6.207   5.393  0.1577  0.7233  0.1045
11426SOL    HW146751   6.794   6.184   5.298 -1.1582  1.2712 -0.2995
11426SOL    HW246752   6.851   6.259   5.431  1.1274 -0.3602 -0.3406
11427SOL     OW46753   6.518   4.733   8.426 -0.8040 -0.3448  0.3361
11427SOL    HW146754   6.525   4.820   8.378 -0.6200  0.6229  2.0954
11427SOL    HW246755   6.545   4.659   8.365 -0.0369  0.9196 -0.8796
11428SOL     OW46756   2.143   2.948   2.684  0.1406 -0.3133 -0.5628
11428SOL    HW146757   2.070   3.007   2.717 -0.4959 -1.2540 -0.2737
11428SOL    HW246758   2.231   2.985   2.714 -0.4750 -1.7893  3.3296
11429SOL     OW46759   7.047   4.601   6.681 -0.0441 -0.1034  0.0170
11429SOL    HW146760   6.975   4.586   6.614 -0.9866  0.5838  0.8798
11429SOL    HW246761   7.079   4.512   6.716 -1.3101 -0.3639  0.5249
11430SOL     OW46762   0.687   2.452   0.035  0.8846  0.4375 -0.7043
11430SOL    HW146763   0.626   2.491  -0.033 -0.6799 -0.2377  0.2921
11430SOL    HW246764   0.709   2.522   0.103  0.2981  0.3687 -0.4391
11431SOL     OW46765   2.195   8.536   5.758 -0.1671  0.2850 -0.5644
11431SOL    HW146766   2.163   8.447   5.790  0.1508  0.3961  0.0780
11431SOL    HW246767   2.197   8.537   5.658  2.6966 -1.4942 -0.6062
11432SOL     OW46768   1.882   4.748   3.736  0.0265 -0.6091  0.2477
11432SOL    HW146769   1.793   4.765   3.779 -0.0736 -2.0987  0.6667
11432SOL    HW246770   1.914   4.831   3.691 -0.2231  0.7797  2.5733
11433SOL     OW46771   3.626   4.266   2.446  0.7338  0.3740  0.3053
11433SOL    HW146772   3.592   4.176   2.421 -2.0575  1.3339  0.4616
11433SOL    HW246773   3.671   4.262   2.535 -1.0131 -0.5329  1.1680
11434SOL     OW46774   3.889   4.955   5.717 -0.4265  0.0026 -0.6625
11434SOL    HW146775   3.961   4.888   5.731 -0.3519 -0.0873 -1.4328
11434SOL    HW246776   3.800   4.909   5.714 -0.6033  0.2114  1.1399
11435SOL     OW46777   4.839   7.511   6.277  0.5897 -0.5503  1.1309
11435SOL    HW146778   4.927   7.500   6.231  0.1130  0.1869  0.0173
11435SOL    HW246779   4.778   7.436   6.250 -0.1809  0.6664 -0.6378
11436SOL     OW46780   5.804   3.275   2.052  0.2995 -0.4029 -0.3315
11436SOL    HW146781   5.756   3.219   1.984 -1.6805 -0.8548  1.3688
11436SOL    HW246782   5.901   3.254   2.049  0.1258 -1.0146 -2.4531
11437SOL     OW46783   7.803   4.444   4.284  0.5032  0.2948  0.2992
11437SOL    HW146784   7.900   4.434   4.263  0.2346 -1.3200 -0.2493
11437SOL    HW246785   7.749   4.429   4.201 -0.3599 -1.9372  1.2197
11438SOL     OW46786   4.571   5.870   3.248 -0.2002  0.0023  0.0440
11438SOL    HW146787   4.566   5.970   3.245 -3.8012 -0.1702 -1.6143
11438SOL    HW246788   4.635   5.838   3.179 -0.3493  1.0843 -0.6046
11439SOL     OW46789   0.547   2.647   8.704 -0.3697 -0.4052  0.1193
11439SOL    HW146790   0.549   2.550   8.682  3.0757 -0.5770  0.8216
11439SOL    HW246791   0.637   2.687   8.685 -1.8780  2.7581 -0.6235
11440SOL     OW46792   5.850   3.674   1.287  0.2976 -0.1717 -0.4267
11440SOL    HW146793   5.780   3.673   1.215 -0.5575 -1.1615  0.3937
11440SOL    HW246794   5.930   3.724   1.254  0.3937 -1.6045 -2.5138
11441SOL     OW46795   5.687   5.122   3.033 -0.1881 -0.1187 -0.7159
11441SOL    HW146796   5.755   5.112   2.960 -1.6709  0.5090 -2.2134
11441SOL    HW246797   5.602   5.076   3.006 -0.2024 -1.3789  1.3778
11442SOL     OW46798   8.214   7.666   6.560  0.1368 -0.0878  0.6041
11442SOL    HW146799   8.202   7.755   6.516  2.6121 -0.1731 -0.3224
11442SOL    HW246800   8.180   7.594   6.500  0.7311  0.0319  0.1152
11443SOL     OW46801   7.853   4.937   0.031 -0.1570 -0.3459 -0.3731
11443SOL    HW146802   7.855   5.002  -0.044  0.5708 -0.6907 -0.6562
11443SOL    HW246803   7.813   4.980   0.112 -3.1513 -0.6762 -1.6209
11444SOL     OW46804   5.377   2.578   7.641 -0.0031 -0.3141 -0.0532
11444SOL    HW146805   5.317   2.536   7.710 -1.1062  0.7366 -0.3557
11444SOL    HW246806   5.463   2.527   7.637 -0.7901 -1.7329  0.5323
11445SOL     OW46807   3.699   6.427   5.075  0.4812 -0.3475 -0.1071
11445SOL    HW146808   3.746   6.359   5.019 -1.1733  0.4584 -2.5332
11445SOL    HW246809   3.604   6.399   5.090  0.1113  0.8564 -0.1268
11446SOL     OW46810   4.683   6.074   7.338 -0.1814  0.0392  0.3530
11446SOL    HW146811   4.605   6.127   7.372 -0.0308 -0.5354  1.5896
11446SOL    HW246812   4.765   6.100   7.388  0.2509 -0.0611 -0.2918
11447SOL     OW46813   5.439   0.482   6.469 -0.0543 -0.0184 -0.0744
11447SOL    HW146814   5.459   0.507   6.564 -4.2528  0.5494  0.7845
11447SOL    HW246815   5.421   0.565   6.416  0.1636 -0.4450 -0.8224
11448SOL     OW46816   1.878   7.207   3.934  0.3427 -0.9024  0.0784
11448SOL    HW146817   1.802   7.161   3.980 -0.7339  1.2746  0.5590
11448SOL    HW246818   1.961   7.198   3.989  0.0290 -1.8110  0.4109
11449SOL     OW46819   4.085   7.455   7.895 -0.1070 -0.0035  0.0825
11449SOL    HW146820   4.114   7.385   7.829 -1.0196  0.6664 -1.0349
11449SOL    HW246821   4.018   7.416   7.957 -0.8247 -0.0471 -0.7169
11450SOL     OW46822   2.638   2.502   8.798 -0.3164  0.5690  0.3119
11450SOL    HW146823   2.622   2.508   8.699 -1.9633  0.6528  0.5613
11450SOL    HW246824   2.728   2.539   8.820  1.2025 -1.9599 -1.4765
11451SOL     OW46825   0.401   5.896   4.067  0.2603  0.4760  0.2298
11451SOL    HW146826   0.435   5.891   4.161  1.4668 -2.7598 -0.3302
11451SOL    HW246827   0.332   5.825   4.051  1.4557 -0.2776 -1.8518
11452SOL     OW46828   5.105   6.794   0.468  0.2870  0.5999 -0.4839
11452SOL    HW146829   5.092   6.893   0.472  0.0082  0.5647 -0.5473
11452SOL    HW246830   5.017   6.749   0.452  0.4466  0.3543 -0.6721
11453SOL     OW46831   8.236   8.141   2.815 -0.4243  0.5450  0.0560
11453SOL    HW146832   8.205   8.080   2.888 -1.9600  0.0960 -0.9436
11453SOL    HW246833   8.275   8.086   2.741 -0.5715  0.8566 -0.2530
11454SOL     OW46834   8.316   5.333   4.984 -0.3047 -0.5755 -0.0783
11454SOL    HW146835   8.264   5.316   4.900 -1.4050 -1.0144  0.6815
11454SOL    HW246836   8.412   5.347   4.961 -0.7081 -0.0047 -1.4836
11455SOL     OW46837   5.037   8.191   3.563  0.3381  0.6838 -0.8326
11455SOL    HW146838   4.988   8.118   3.517 -1.2362  0.7404  0.7066
11455SOL    HW246839   4.978   8.270   3.574  1.4942  1.5805 -0.9705
11456SOL     OW46840   0.645   3.045   6.742  0.4822 -0.0507  0.3039
11456SOL    HW146841   0.631   3.107   6.664 -0.5738 -0.2405  0.3333
11456SOL    HW246842   0.741   3.047   6.769  0.5086  1.4159  0.1606
11457SOL     OW46843   8.240   8.892   0.295 -0.6890  0.6290  0.5668
11457SOL    HW146844   8.267   8.886   0.199 -0.8698 -0.0753  0.5595
11457SOL    HW246845   8.168   8.825   0.314 -1.5796  1.6764  0.8827
11458SOL     OW46846   5.261   8.863   3.034 -0.8160 -0.5220  0.2440
11458SOL    HW146847   5.220   8.836   2.947 -1.4019  0.0068  0.3522
11458SOL    HW246848   5.277   8.961   3.034 -0.7224 -0.5374  0.6961
11459SOL     OW46849   2.909   8.802   0.904  0.0482  0.1540  1.1234
11459SOL    HW146850   2.833   8.758   0.857  0.4816 -0.3648  0.9192
11459SOL    HW246851   2.993   8.750   0.890  0.9456  2.0266 -0.6470
11460SOL     OW46852   1.608   1.777   6.283  0.4533 -0.9806  0.5590
11460SOL    HW146853   1.515   1.777   6.248  0.5986 -1.4222  0.1634
11460SOL    HW246854   1.672   1.766   6.207  0.8625  0.0930  0.7394
11461SOL     OW46855   5.802   3.237   5.680 -0.1783 -0.2382  0.2517
11461SOL    HW146856   5.897   3.206   5.675 -0.8960 -2.5398  0.1273
11461SOL    HW246857   5.796   3.333   5.654  1.8702 -0.5901 -1.6482
11462SOL     OW46858   0.344   2.473   7.637 -0.9035  0.3025  0.0722
11462SOL    HW146859   0.317   2.569   7.636  0.2687  0.6448  0.2233
11462SOL    HW246860   0.332   2.433   7.546 -0.1050  0.9713 -0.3356
11463SOL     OW46861   3.707   5.410   7.604  0.0937 -0.5459  0.0188
11463SOL    HW146862   3.618   5.432   7.563 -0.0384 -2.7997 -0.9468
11463SOL    HW246863   3.696   5.344   7.678  0.7929  0.4738  1.0597
11464SOL     OW46864   0.723   3.227   6.929  0.3266 -0.3715 -0.5789
11464SOL    HW146865   0.646   3.172   6.899 -1.1581  0.4054  1.6953
11464SOL    HW246866   0.692   3.295   6.996  3.0800 -0.4855  0.9031
11465SOL     OW46867   2.076   6.439   4.808  0.1416 -0.1316 -0.3314
11465SOL    HW146868   2.116   6.369   4.866  0.4961  0.3981  0.0598
11465SOL    HW246869   2.140   6.516   4.797 -0.5231  0.4532 -0.1797
11466SOL     OW46870   2.685   7.382   8.424 -0.1502  0.0223 -0.4462
11466SOL    HW146871   2.776   7.415   8.448  0.1929 -1.0273 -0.2545
11466SOL    HW246872   2.672   7.289   8.460 -0.5440 -0.6220 -2.1731
11467SOL     OW46873   3.849   5.616   2.093 -0.1457 -0.6127  0.0376
11467SOL    HW146874   3.824   5.665   2.009 -0.6347 -2.1915 -0.7561
11467SOL    HW246875   3.929   5.660   2.135 -1.0154  1.2830 -0.2617
11468SOL     OW46876   1.334   6.656   6.770 -0.4771 -0.4229 -0.2246
11468SOL    HW146877   1.403   6.590   6.741 -0.5748 -0.2019 -0.9859
11468SOL    HW246878   1.274   6.615   6.839  0.6463 -0.4907  0.7288
11469SOL     OW46879   2.417   0.742   0.089 -0.2935  0.3712 -0.0203
11469SOL    HW146880   2.393   0.740   0.186  1.4251  1.0416  0.4354
11469SOL    HW246881   2.336   0.763   0.035 -1.2336  0.1481  1.2878
11470SOL     OW46882   2.814   6.833   0.414 -0.6636 -0.3920  0.1084
11470SOL    HW146883   2.777   6.874   0.498 -1.8177  0.5290 -0.8280
11470SOL    HW246884   2.858   6.746   0.436 -0.5015  0.0800  1.7441
11471SOL     OW46885   0.900   3.390   3.157  0.2152 -0.1232 -0.3203
11471SOL    HW146886   0.847   3.318   3.202 -0.5086 -0.4599 -1.6844
11471SOL    HW246887   0.850   3.476   3.160  1.0320  0.3090  1.2148
11472SOL     OW46888   4.951   5.495   5.389  0.5918 -0.3086  0.3631
11472SOL    HW146889   4.905   5.584   5.390  1.8087  0.4496 -3.3304
11472SOL    HW246890   5.050   5.509   5.396  0.9053 -1.2318 -1.8808
11473SOL     OW46891   0.025   3.523   5.252 -0.2557  0.3901  0.2794
11473SOL    HW146892   0.089   3.504   5.327 -2.2611  1.7621  2.3981
11473SOL    HW246893   0.017   3.622   5.239  0.0405  0.1730 -1.7557
11474SOL     OW46894   2.714   1.536   5.047  0.1052  0.6124  0.1752
11474SOL    HW146895   2.782   1.465   5.062  1.1699  1.6010  0.0664
11474SOL    HW246896   2.651   1.540   5.125  0.0506 -0.4188  0.1906
11475SOL     OW46897   6.016   6.096   5.489  0.0945 -0.3338  0.2898
11475SOL    HW146898   6.093   6.127   5.435  1.7651 -0.0455  2.7324
11475SOL    HW246899   5.955   6.173   5.509 -0.2494 -0.3429 -0.7238
11476SOL     OW46900   8.664   2.641   0.276  0.3059 -0.0354  0.7907
11476SOL    HW146901   8.653   2.591   0.362 -0.4730 -1.1482  0.0629
11476SOL    HW246902   8.673   2.739   0.294 -1.1170 -0.1363  2.0553
11477SOL     OW46903   2.492   0.180   5.372 -0.2615  0.2980 -0.3213
11477SOL    HW146904   2.460   0.133   5.290  0.4327  1.7252 -1.4202
11477SOL    HW246905   2.542   0.115   5.430  0.6934 -0.3200 -1.8211
11478SOL     OW46906   1.874   7.088   1.007  0.3418 -0.2584  0.5922
11478SOL    HW146907   1.781   7.090   1.046 -0.5048 -0.5317 -1.3870
11478SOL    HW246908   1.901   6.994   0.991  1.5881 -0.2711  2.5432
11479SOL     OW46909   8.555   5.161   4.506 -0.6568 -0.5675 -0.0134
11479SOL    HW146910   8.583   5.093   4.574  0.3686  1.3770  1.5540
11479SOL    HW246911   8.631   5.180   4.444 -0.5461  0.0653  0.3175
11480SOL     OW46912   0.866   2.166   8.364  0.2035 -0.7275  0.3553
11480SOL    HW146913   0.886   2.083   8.311  0.8880  1.2870 -2.6779
11480SOL    HW246914   0.912   2.161   8.452  1.7590 -2.7732 -0.5217
11481SOL     OW46915   8.022   3.713   4.269 -0.1492 -0.3355  0.1092
11481SOL    HW146916   8.120   3.726   4.282 -0.2550  1.1790 -0.4975
11481SOL    HW246917   8.006   3.649   4.194  0.3699  2.4980 -2.4923
11482SOL     OW46918   2.979   6.614   1.234  0.3815 -0.2040  0.1802
11482SOL    HW146919   3.007   6.588   1.327  0.9897  2.4075  0.7498
11482SOL    HW246920   3.056   6.602   1.172  0.7502  0.4687  0.4976
11483SOL     OW46921   1.542   6.532   3.604 -0.1537  0.8562  0.2553
11483SOL    HW146922   1.500   6.442   3.616  0.1507  0.5996 -0.5445
11483SOL    HW246923   1.523   6.565   3.511 -1.1380  2.0754  0.8892
11484SOL     OW46924   0.879   1.195   3.949 -0.2615 -0.5310 -0.0478
11484SOL    HW146925   0.972   1.171   3.978 -0.7288 -0.5920  1.4651
11484SOL    HW246926   0.867   1.170   3.853  1.8316  1.0895 -0.7702
11485SOL     OW46927   6.617   0.960   2.476 -0.0756  0.1367  0.1586
11485SOL    HW146928   6.658   0.872   2.500  0.5918  0.2161 -0.6456
11485SOL    HW246929   6.540   0.945   2.413 -0.1190  0.1073  0.2203
11486SOL     OW46930   5.953   2.045   7.567  0.4718 -0.3610 -0.2458
11486SOL    HW146931   5.860   2.076   7.588  1.0733  0.2289  1.6778
11486SOL    HW246932   6.011   2.125   7.547  0.3665 -0.7853 -2.3967
11487SOL     OW46933   6.502   6.280   0.373  0.0585 -0.9587 -0.5812
11487SOL    HW146934   6.574   6.238   0.428 -0.6599  0.2253  1.3450
11487SOL    HW246935   6.493   6.377   0.398 -2.6128 -1.2431 -0.3108
11488SOL     OW46936   8.680   0.243   5.835 -0.4230 -0.7528 -0.0633
11488SOL    HW146937   8.689   0.343   5.828 -2.5380 -0.6702 -1.8209
11488SOL    HW246938   8.762   0.200   5.797  1.3093  0.3011  2.3107
11489SOL     OW46939   3.841   6.568   5.254  0.2540  0.9526 -0.2689
11489SOL    HW146940   3.799   6.530   5.171 -1.8423 -0.3296  1.3522
11489SOL    HW246941   3.790   6.648   5.284 -0.0233  0.4085  0.7333
11490SOL     OW46942   5.505   3.495   1.697 -0.1631  0.4294 -0.4677
11490SOL    HW146943   5.570   3.538   1.760 -0.4421 -0.5378  0.5037
11490SOL    HW246944   5.521   3.396   1.696 -2.3367  0.0415  0.6458
11491SOL     OW46945   2.183   2.989   8.724  0.2428  0.0756 -0.0243
11491SOL    HW146946   2.261   3.049   8.704  0.2235 -0.4348 -1.7490
11491SOL    HW246947   2.134   2.968   8.639 -0.8722 -0.8560  0.8205
11492SOL     OW46948   3.565   3.123   0.054 -0.1221 -0.0097 -0.3564
11492SOL    HW146949   3.513   3.049   0.012 -0.9299  0.0648  0.4862
11492SOL    HW246950   3.554   3.120   0.153  1.2911  0.1677 -0.1897
11493SOL     OW46951   6.384   6.250   0.139 -0.4818 -0.5516 -0.1179
11493SOL    HW146952   6.438   6.266   0.222 -0.9861  1.0010 -0.0818
11493SOL    HW246953   6.443   6.210   0.069  1.8644  4.7802 -1.4411
11494SOL     OW46954   4.606   6.823   8.803 -0.2991 -0.3208 -0.0785
11494SOL    HW146955   4.687   6.854   8.853  1.5831 -1.6781 -2.1795
11494SOL    HW246956   4.559   6.901   8.764  1.1495  0.3458 -0.5314
11495SOL     OW46957   5.209   7.430   7.418 -0.2914 -0.9914 -0.5647
11495SOL    HW146958   5.173   7.365   7.485 -1.3566 -0.3161 -0.4739
11495SOL    HW246959   5.177   7.405   7.327 -1.3364 -0.1405 -0.4286
11496SOL     OW46960   6.584   7.591   2.968 -0.3108  0.5027  0.1375
11496SOL    HW146961   6.624   7.606   2.878 -3.2278 -0.0966 -1.3111
11496SOL    HW246962   6.529   7.671   2.993 -1.3791 -0.2924  0.3434
11497SOL     OW46963   4.379   4.442   5.444 -0.0404  0.3840 -0.2588
11497SOL    HW146964   4.390   4.381   5.522  1.4679  2.4523  1.1912
11497SOL    HW246965   4.408   4.395   5.360  0.7186 -1.0073  0.7614
11498SOL     OW46966   4.663   1.407   3.571  0.0332  0.1423  0.1773
11498SOL    HW146967   4.658   1.482   3.505 -0.3718  0.1989  0.2694
11498SOL    HW246968   4.575   1.360   3.574  0.6865 -1.1791 -0.8694
11499SOL     OW46969   2.672   4.427   2.019  0.3718  0.7789  0.5422
11499SOL    HW146970   2.727   4.347   1.996  0.7196  1.7425 -2.2491
11499SOL    HW246971   2.575   4.402   2.018  0.3572  0.7718 -2.3112
11500SOL     OW46972   7.027   6.386   2.616 -0.4180 -0.4269  0.5132
11500SOL    HW146973   7.056   6.343   2.702 -0.8617 -0.6379  0.5553
11500SOL    HW246974   7.070   6.339   2.540 -0.6114 -0.7073  0.5787
11501SOL     OW46975   2.998   6.949   5.257 -0.1144 -0.9540  0.2653
11501SOL    HW146976   3.058   7.024   5.230 -0.7921  0.1565  1.7976
11501SOL    HW246977   3.050   6.882   5.310 -0.0769 -0.2831  1.0864
11502SOL     OW46978   8.381   4.832   4.124  0.2073  0.5143  0.0095
11502SOL    HW146979   8.406   4.903   4.058 -2.2397  1.7855  0.3738
11502SOL    HW246980   8.415   4.857   4.215  2.6682 -0.7157 -0.5506
11503SOL     OW46981   7.752   0.761   2.015  0.0285  1.0768  0.1384
11503SOL    HW146982   7.813   0.692   2.055 -0.8587 -0.8955 -1.8034
11503SOL    HW246983   7.669   0.766   2.070 -1.3787 -1.9421 -1.5658
11504SOL     OW46984   6.304   6.331   5.958 -0.6874 -0.4501  0.1487
11504SOL    HW146985   6.398   6.359   5.975 -0.5766 -0.8739  0.2276
11504SOL    HW246986   6.242   6.391   6.009 -0.5907  1.4433 -1.9026
11505SOL     OW46987   5.191   5.689   7.747 -0.5507 -0.1880 -0.3671
11505SOL    HW146988   5.197   5.604   7.801  0.7928 -0.4002 -0.8239
11505SOL    HW246989   5.222   5.671   7.654 -0.4746  0.7505 -0.5256
11506SOL     OW46990   8.643   1.136   6.565  0.0645 -0.2837  0.1040
11506SOL    HW146991   8.598   1.223   6.546 -1.2920 -1.1110 -0.5057
11506SOL    HW246992   8.576   1.071   6.603  1.5226 -0.3745  2.6679
11507SOL     OW46993   7.411   7.386   4.472 -0.6010  0.1917  0.3236
11507SOL    HW146994   7.486   7.380   4.406 -0.8135 -0.0185  0.1002
11507SOL    HW246995   7.419   7.471   4.524 -0.0611  0.0461  0.4819
11508SOL     OW46996   3.096   1.904   7.134 -0.3245  0.0217 -0.1782
11508SOL    HW146997   3.112   1.936   7.041 -0.2733  1.1545  0.2143
11508SOL    HW246998   3.093   1.982   7.196  2.7486 -0.8999  1.2525
11509SOL     OW46999   8.130   2.392   3.515 -0.5547 -0.4315  0.5554
11509SOL    HW147000   8.075   2.310   3.531 -0.3230 -0.9518 -1.1690
11509SOL    HW247001   8.189   2.377   3.435 -1.0936  1.7051 -0.2706
11510SOL     OW47002   6.806   7.959   1.735 -0.1566  0.3586  0.2408
11510SOL    HW147003   6.762   7.888   1.680  0.6784  0.7946 -1.0142
11510SOL    HW247004   6.738   8.027   1.763 -0.9739 -0.9355  1.5027
11511SOL     OW47005   3.848   6.766   2.684 -0.1921  0.0232 -0.1396
11511SOL    HW147006   3.751   6.764   2.660 -0.6750  0.9900  1.6964
11511SOL    HW247007   3.867   6.843   2.744  2.0344  0.7817 -1.7431
11512SOL     OW47008   8.952   0.433   4.170  0.3667  0.4639  0.3901
11512SOL    HW147009   8.865   0.424   4.122  0.9038  0.0327 -0.5160
11512SOL    HW247010   8.961   0.527   4.205 -0.6437  0.3865  0.8717
11513SOL     OW47011   3.637   4.899   5.671 -0.5831  0.2080 -0.2721
11513SOL    HW147012   3.605   4.871   5.581 -1.1128 -0.8920  0.2401
11513SOL    HW247013   3.590   4.983   5.699 -1.7775 -0.4653 -0.2447
11514SOL     OW47014   3.329   4.830   5.039  0.0088  0.2198  0.0931
11514SOL    HW147015   3.381   4.748   5.015 -0.9710 -0.6847  0.9926
11514SOL    HW247016   3.231   4.808   5.042 -0.2501  1.3803  0.4980
11515SOL     OW47017   8.786   7.132   6.843  0.3160  0.0583  0.4800
11515SOL    HW147018   8.816   7.227   6.848  1.3278 -0.1718 -0.8465
11515SOL    HW247019   8.697   7.127   6.796  0.0792  0.3876  0.8968
11516SOL     OW47020   6.708   3.523   0.343 -0.4165  0.6014  0.2171
11516SOL    HW147021   6.768   3.543   0.265 -0.8541 -0.7582 -0.4719
11516SOL    HW247022   6.764   3.492   0.420 -0.2136 -0.6381 -0.4154
11517SOL     OW47023   2.427   6.089   5.058  0.0265 -0.3116 -0.3220
11517SOL    HW147024   2.461   6.102   4.964 -0.1385  0.4616 -0.2814
11517SOL    HW247025   2.504   6.094   5.122  0.0390 -0.0940 -0.3547
11518SOL     OW47026   1.913   8.744   5.547  0.1254 -0.3046  0.3581
11518SOL    HW147027   1.901   8.822   5.608 -2.4121 -0.0811 -0.3465
11518SOL    HW247028   1.925   8.776   5.453  1.1365 -0.7077  0.3489
11519SOL     OW47029   4.306   6.406   6.100  0.1861  0.0632 -0.2429
11519SOL    HW147030   4.374   6.464   6.145  1.3765 -2.0732  0.8526
11519SOL    HW247031   4.328   6.398   6.003  1.0747  0.0235 -0.0435
11520SOL     OW47032   5.865   1.982   0.016 -0.2571  0.5590  0.0307
11520SOL    HW147033   5.886   1.884   0.021  2.3468  1.1181  1.3066
11520SOL    HW247034   5.809   2.008   0.095 -1.0412  0.0997 -0.3669
11521SOL     OW47035   2.623   4.566   6.752  0.5025  0.3192  0.5081
11521SOL    HW147036   2.621   4.483   6.808  0.6980  0.9470  1.4656
11521SOL    HW247037   2.702   4.564   6.692  0.0017 -0.6109 -0.1386
11522SOL     OW47038   6.427   2.814   3.352  0.1565 -0.1451 -0.0768
11522SOL    HW147039   6.397   2.883   3.287 -0.9489 -0.0586  0.5189
11522SOL    HW247040   6.493   2.753   3.308 -1.4438 -0.7847 -1.5974
11523SOL     OW47041   3.457   2.839   3.681 -0.6257 -0.0204 -0.0908
11523SOL    HW147042   3.395   2.767   3.650  0.5749 -0.9586 -0.3294
11523SOL    HW247043   3.486   2.820   3.775 -1.0546  0.6699  0.1895
11524SOL     OW47044   7.578   3.354   1.710 -0.2133 -0.2269  0.3234
11524SOL    HW147045   7.536   3.414   1.778  0.0766 -2.1515  2.2330
11524SOL    HW247046   7.546   3.260   1.724  1.9512 -1.1184 -0.4660
11525SOL     OW47047   2.377   5.285   3.469  0.0247 -0.0793 -0.8224
11525SOL    HW147048   2.413   5.227   3.396 -0.2994 -1.7194  0.2848
11525SOL    HW247049   2.431   5.368   3.476  2.0413 -1.3503 -0.8398
11526SOL     OW47050   1.232   6.838   6.582  0.6391  0.3138 -0.1402
11526SOL    HW147051   1.179   6.780   6.519  1.1125  0.1140 -0.3613
11526SOL    HW247052   1.279   6.781   6.649  1.2505  0.4171 -0.4670
11527SOL     OW47053   8.017   3.279   6.314 -0.3865 -0.4034  0.5165
11527SOL    HW147054   8.080   3.266   6.391  0.4136 -0.4575 -0.1379
11527SOL    HW247055   7.971   3.367   6.323  1.5426  0.7198 -0.2145
11528SOL     OW47056   8.577   0.441   6.221 -0.3635  0.4034 -0.1231
11528SOL    HW147057   8.638   0.438   6.300  0.9259  1.7339 -1.0340
11528SOL    HW247058   8.594   0.362   6.163  1.1677  1.2383 -0.8397
11529SOL     OW47059   1.987   1.557   5.818  0.0300  0.2572  0.2375
11529SOL    HW147060   2.071   1.573   5.767  0.5097  0.6571  1.1520
11529SOL    HW247061   2.000   1.581   5.914 -0.1544 -2.6346  1.0488
11530SOL     OW47062   6.264   0.181   6.710 -0.1159  0.7103 -0.1018
11530SOL    HW147063   6.364   0.174   6.706 -0.0901  0.5901  0.7949
11530SOL    HW247064   6.232   0.236   6.633  0.5873  0.1964 -0.7687
11531SOL     OW47065   5.784   7.660   0.774 -0.0185 -0.3247 -0.9557
11531SOL    HW147066   5.718   7.586   0.765 -1.0359  0.6243 -1.4454
11531SOL    HW247067   5.875   7.627   0.749 -0.0626 -1.9861  0.9566
11532SOL     OW47068   8.125   1.830   3.271 -0.1069  0.1533  0.4039
11532SOL    HW147069   8.051   1.794   3.213  1.5993  1.2932 -2.5632
11532SOL    HW247070   8.109   1.928   3.287  0.0649  0.1011  0.8923
11533SOL     OW47071   2.319   8.019   3.630  0.2851  0.0792  0.1004
11533SOL    HW147072   2.284   7.931   3.661 -0.1907  0.2003 -0.0700
11533SOL    HW247073   2.245   8.087   3.635 -0.0647 -0.0951 -2.0887
11534SOL     OW47074   2.238   6.129   0.063  0.3637  0.2845 -0.1708
11534SOL    HW147075   2.323   6.077   0.054  0.2186  0.0493 -0.1964
11534SOL    HW247076   2.224   6.186  -0.018 -0.3542 -0.9521 -0.9354
11535SOL     OW47077   8.600   6.840   5.739 -0.1943  0.0633 -0.3925
11535SOL    HW147078   8.577   6.750   5.776  0.3944 -0.2958 -0.8953
11535SOL    HW247079   8.604   6.835   5.639 -0.7062  0.7802 -0.4521
11536SOL     OW47080   3.400   3.535   6.212  0.6941  0.2173  0.0967
11536SOL    HW147081   3.473   3.468   6.194 -0.0851 -0.1208 -1.9135
11536SOL    HW247082   3.424   3.622   6.170  0.1362  0.2288 -0.1980
11537SOL     OW47083   1.054   1.599   2.004  0.2569  0.1810 -0.4095
11537SOL    HW147084   1.048   1.665   1.929 -0.8173 -2.5288 -2.8065
11537SOL    HW247085   1.078   1.509   1.967  0.0149 -1.1509  2.5622
11538SOL     OW47086   3.033   1.536   7.700 -0.3921 -0.6716  0.1264
11538SOL    HW147087   3.117   1.514   7.650 -0.3015 -0.1173  0.0312
11538SOL    HW247088   2.954   1.516   7.641 -0.2705  0.4596 -0.4454
11539SOL     OW47089   2.045   3.712   6.268 -0.1285  0.1267  0.4076
11539SOL    HW147090   2.034   3.808   6.295 -0.4140 -0.3537  2.0726
11539SOL    HW247091   1.955   3.668   6.264  0.0723 -0.2970  0.5102
11540SOL     OW47092   5.584   6.244   8.114  0.3964  0.0603  0.0977
11540SOL    HW147093   5.559   6.178   8.043 -1.8978 -0.5555  1.4152
11540SOL    HW247094   5.643   6.200   8.181  2.3734  0.5760 -1.2804
11541SOL     OW47095   2.944   8.356   6.377  0.0943  0.1047 -0.5054
11541SOL    HW147096   2.984   8.394   6.461  1.0270 -1.4863 -0.2140
11541SOL    HW247097   2.932   8.258   6.387  0.9089 -0.2260 -2.5061
11542SOL     OW47098   2.136   1.755   8.619  0.2180 -0.0217 -0.1572
11542SOL    HW147099   2.235   1.761   8.622  0.1139  1.9858  0.1942
11542SOL    HW247100   2.107   1.720   8.529  1.3157 -3.5464  0.8229
11543SOL     OW47101   5.878   3.973   8.184 -0.2017  0.3013  0.3113
11543SOL    HW147102   5.970   3.934   8.180 -0.5137 -0.4163  0.1098
11543SOL    HW247103   5.847   3.974   8.279 -0.5736 -0.8374  0.2036
11544SOL     OW47104   2.481   1.651   2.972  0.0472 -0.1871 -0.1411
11544SOL    HW147105   2.439   1.568   2.934 -0.0996 -0.3000  0.2668
11544SOL    HW247106   2.578   1.634   2.988  0.3573  0.2260 -1.5287
11545SOL     OW47107   7.557   3.909   2.804  0.1778  1.2297 -0.2717
11545SOL    HW147108   7.600   3.949   2.723  0.0324  3.0083  0.5113
11545SOL    HW247109   7.458   3.927   2.802  0.0109  0.3382 -0.2375
11546SOL     OW47110   0.115   2.731   7.048  0.1741 -0.1879 -0.2281
11546SOL    HW147111   0.044   2.729   7.118  0.7505  0.3699  0.3772
11546SOL    HW247112   0.085   2.790   6.972 -0.8586 -1.5614 -0.9142
11547SOL     OW47113   3.220   1.402   8.658  0.4461  0.6992 -0.2538
11547SOL    HW147114   3.202   1.498   8.637  0.7286  0.5337 -1.2474
11547SOL    HW247115   3.232   1.392   8.757 -0.0822  1.6016 -0.0917
11548SOL     OW47116   8.460   0.587   1.281  0.1834  0.3679  0.1360
11548SOL    HW147117   8.414   0.508   1.321 -0.2543  0.2139 -0.6665
11548SOL    HW247118   8.515   0.632   1.351  0.0781 -0.3811  0.7093
11549SOL     OW47119   2.513   7.660   4.063 -0.0992 -0.2170 -0.0713
11549SOL    HW147120   2.528   7.629   4.157 -0.0726 -1.8654 -0.6062
11549SOL    HW247121   2.524   7.583   4.000 -0.4828  0.7939 -1.3974
11550SOL     OW47122   3.065   0.484   7.474  0.0192 -0.1626 -0.7786
11550SOL    HW147123   3.159   0.453   7.462  0.3745  0.9509 -0.9237
11550SOL    HW247124   3.013   0.466   7.391  0.1576 -0.5648 -0.7796
11551SOL     OW47125   7.497   4.678   4.063  0.1122  0.1407 -0.5962
11551SOL    HW147126   7.409   4.661   4.107  1.0973  0.2342  1.5206
11551SOL    HW247127   7.508   4.777   4.049  0.1805  0.1985 -0.1622
11552SOL     OW47128   4.394   7.553   0.874 -0.0826  0.5204 -0.2054
11552SOL    HW147129   4.423   7.631   0.929  0.8030 -0.7939  1.2472
11552SOL    HW247130   4.460   7.537   0.800  1.8542 -1.1692  1.8181
11553SOL     OW47131   3.006   1.630   8.329 -0.4516  0.4517  0.1284
11553SOL    HW147132   3.094   1.599   8.363 -1.0135  2.2600  3.3843
11553SOL    HW247133   3.010   1.727   8.307 -1.1423  0.1322 -1.5260
11554SOL     OW47134   1.731   3.989   7.036 -0.1006  0.3202 -0.0550
11554SOL    HW147135   1.785   3.927   7.092  1.0314  1.6801  0.3612
11554SOL    HW247136   1.664   3.936   6.984  1.2011 -1.3078 -0.1109
11555SOL     OW47137   0.167   0.463   3.976  0.1146  0.4783 -0.3994
11555SOL    HW147138   0.232   0.461   4.052  0.5621  0.8878 -0.7613
11555SOL    HW247139   0.074   0.472   4.011  0.0991 -1.7325  0.1943
11556SOL     OW47140   4.094   5.658   6.602 -0.2817  0.0177 -0.8272
11556SOL    HW147141   4.018   5.597   6.579 -0.1760 -0.4034 -0.0837
11556SOL    HW247142   4.165   5.652   6.532 -0.9906  0.5126 -1.5926
11557SOL     OW47143   4.148   3.402   1.563 -0.7203 -0.3706 -0.1083
11557SOL    HW147144   4.175   3.382   1.469 -0.5233  1.2320 -0.4121
11557SOL    HW247145   4.052   3.380   1.577 -0.8730 -0.1583 -0.8298
11558SOL     OW47146   3.540   4.433   1.888 -0.7711  0.1687 -0.4719
11558SOL    HW147147   3.470   4.480   1.942 -0.2649  2.9813 -2.1494
11558SOL    HW247148   3.595   4.374   1.948 -1.5721  1.5716  1.6970
11559SOL     OW47149   0.855   4.559   3.686 -0.3058 -0.2902  0.9079
11559SOL    HW147150   0.917   4.552   3.608 -1.3973  0.1098 -0.0316
11559SOL    HW247151   0.800   4.642   3.676 -1.1325 -0.7506  1.5928
11560SOL     OW47152   3.367   1.463   2.528 -0.5443  0.0600  0.1769
11560SOL    HW147153   3.460   1.461   2.563 -0.8845  0.0418  1.0785
11560SOL    HW247154   3.352   1.550   2.480  1.5368 -1.9166 -4.4428
11561SOL     OW47155   1.943   8.868   2.329  0.4767 -0.6778  0.1159
11561SOL    HW147156   1.881   8.834   2.399 -0.2690 -0.1897 -0.2939
11561SOL    HW247157   1.896   8.868   2.240  0.8219  0.3676 -0.0749
11562SOL     OW47158   5.148   2.162   0.914 -0.1164  0.0678 -0.2666
11562SOL    HW147159   5.059   2.193   0.948 -0.1661  2.3730 -2.4165
11562SOL    HW247160   5.167   2.205   0.826  3.4116  0.0624  0.4358
11563SOL     OW47161   3.592   0.075   6.813 -0.3671 -0.5377 -0.2788
11563SOL    HW147162   3.686   0.043   6.817 -0.4820 -0.7675  0.6525
11563SOL    HW247163   3.537   0.028   6.882 -0.4458  1.9125  1.3895
11564SOL     OW47164   7.314   4.173   5.271  0.5450  0.3746 -0.1258
11564SOL    HW147165   7.393   4.220   5.233 -2.3625  1.8761 -4.7226
11564SOL    HW247166   7.246   4.240   5.301  0.4030 -0.8857  2.5273
11565SOL     OW47167   1.079   6.556   5.832  0.4715  0.1705 -0.7225
11565SOL    HW147168   1.119   6.618   5.900 -0.2477 -0.1224 -0.0228
11565SOL    HW247169   1.027   6.609   5.765  1.0669  0.4509 -0.9614
11566SOL     OW47170   8.573   8.002   3.367 -0.1177  0.0934 -0.5926
11566SOL    HW147171   8.664   8.011   3.407  0.0400 -0.2728 -0.8693
11566SOL    HW247172   8.504   8.027   3.435  0.1272 -1.0211  0.0795
11567SOL     OW47173   4.144   7.192   2.859 -0.2827  0.1287  0.5552
11567SOL    HW147174   4.215   7.186   2.789  0.5348  1.0361  1.2768
11567SOL    HW247175   4.101   7.103   2.871  1.6817 -0.7933  1.0426
11568SOL     OW47176   4.363   1.532   2.701 -1.5249  0.2552 -0.5827
11568SOL    HW147177   4.376   1.615   2.648  0.0448  0.6013  0.3013
11568SOL    HW247178   4.427   1.532   2.779 -1.9701 -1.4496 -0.1987
11569SOL     OW47179   8.853   3.082   0.505 -0.2256 -0.2110 -0.2213
11569SOL    HW147180   8.875   3.034   0.590 -1.0317  1.3617  0.9021
11569SOL    HW247181   8.917   3.054   0.434  0.5129 -1.4912  0.9175
11570SOL     OW47182   8.305   8.863   6.749  0.7329 -0.1470 -0.0183
11570SOL    HW147183   8.320   8.948   6.698  1.4305  0.0131  0.4519
11570SOL    HW247184   8.364   8.861   6.829 -0.5344 -0.2969  0.9252
11571SOL     OW47185   1.384   4.604   0.408 -0.1271  0.6406  0.5208
11571SOL    HW147186   1.315   4.531   0.413 -0.0418  0.6032  1.0980
11571SOL    HW247187   1.475   4.565   0.418  0.1232  0.4391 -2.0582
11572SOL     OW47188   8.512   0.521   5.811 -0.2763 -0.2331 -0.0114
11572SOL    HW147189   8.492   0.507   5.714  0.3714  0.8495 -0.3106
11572SOL    HW247190   8.439   0.481   5.866 -0.7345 -0.7018 -0.9487
11573SOL     OW47191   5.837   5.892   2.305  0.6275 -0.6302 -0.5458
11573SOL    HW147192   5.757   5.925   2.256 -0.4016 -1.6628  0.4325
11573SOL    HW247193   5.837   5.792   2.307  2.5663 -0.6963 -1.5610
11574SOL     OW47194   4.647   6.173   7.068  0.3729 -0.3887  0.5432
11574SOL    HW147195   4.560   6.133   7.042  0.1582  0.4153 -0.0081
11574SOL    HW247196   4.675   6.138   7.158 -0.5877 -0.5332  0.7868
11575SOL     OW47197   3.507   3.484   8.224  0.1789  0.0714  0.6143
11575SOL    HW147198   3.545   3.435   8.302 -1.5192 -2.8450 -0.3122
11575SOL    HW247199   3.418   3.522   8.248 -0.1639 -0.4828  0.2381
11576SOL     OW47200   5.991   1.832   1.400  0.1042 -0.4021  0.1534
11576SOL    HW147201   5.964   1.928   1.391 -1.4734 -0.9367 -0.9464
11576SOL    HW247202   6.015   1.795   1.310  4.0493 -0.1203  0.9950
11577SOL     OW47203   1.975   6.829   0.981 -0.2285 -0.6230  0.8210
11577SOL    HW147204   2.051   6.800   1.039 -0.2354 -0.7364  0.7732
11577SOL    HW247205   1.909   6.754   0.973  0.2596 -0.9629 -0.1473
11578SOL     OW47206   1.260   2.397   1.272 -0.2759 -0.0703  0.0371
11578SOL    HW147207   1.284   2.306   1.239  3.1774  1.4939 -2.1251
11578SOL    HW247208   1.305   2.414   1.359 -0.2199 -0.1342  0.0206
11579SOL     OW47209   8.181   1.562   3.209 -0.1170  0.8949 -0.4904
11579SOL    HW147210   8.240   1.633   3.171 -0.7659  2.1089  0.7386
11579SOL    HW247211   8.087   1.596   3.215 -0.5674 -0.3091 -0.5185
11580SOL     OW47212   6.254   8.308   6.156  0.0257 -0.3765  0.2148
11580SOL    HW147213   6.215   8.378   6.216 -0.6746 -1.8537  1.4990
11580SOL    HW247214   6.244   8.218   6.198 -0.6896 -1.4774 -2.2224
11581SOL     OW47215   8.692   4.150   5.494  0.4192  1.3082 -0.1666
11581SOL    HW147216   8.764   4.211   5.528  0.2217  0.5473  1.6494
11581SOL    HW247217   8.632   4.125   5.569  0.9468 -1.7714 -0.7271
11582SOL     OW47218   8.367   4.307   4.305 -0.1007  0.2474 -0.0199
11582SOL    HW147219   8.451   4.299   4.358  0.7274 -0.5821 -1.4323
11582SOL    HW247220   8.291   4.270   4.358  0.4695  0.6551  1.1188
11583SOL     OW47221   2.093   3.095   1.298  0.3618 -0.6143 -0.5926
11583SOL    HW147222   2.013   3.145   1.264  0.8316  0.5896  0.0713
11583SOL    HW247223   2.139   3.149   1.368  1.1227 -1.7959 -0.1782
11584SOL     OW47224   4.249   4.179   7.093  0.5500 -0.2023 -0.0906
11584SOL    HW147225   4.164   4.162   7.143  0.6821  2.3742  1.1225
11584SOL    HW247226   4.249   4.126   7.009 -1.2903 -1.9052  0.9246
11585SOL     OW47227   0.862   7.730   3.405  0.0054  0.5777  0.5470
11585SOL    HW147228   0.869   7.644   3.456  0.0832 -0.5464 -1.2934
11585SOL    HW247229   0.917   7.800   3.450 -0.0906 -0.3214  2.1029
11586SOL     OW47230   7.731   7.978   7.135  0.0617 -0.2067 -0.2033
11586SOL    HW147231   7.645   7.959   7.182  0.4875  1.4293  1.2414
11586SOL    HW247232   7.711   8.013   7.043 -0.8476  1.6617  0.6895
11587SOL     OW47233   3.134   8.610   4.842 -0.7916  0.6816  0.0905
11587SOL    HW147234   3.135   8.709   4.827 -0.6725  0.7682  0.6629
11587SOL    HW247235   3.039   8.578   4.847 -0.8302  0.7767 -0.0406
11588SOL     OW47236   3.276   0.025   8.048  0.4776 -0.1690  0.1018
11588SOL    HW147237   3.326   0.045   7.963  0.1218  0.5327  0.0592
11588SOL    HW247238   3.308   0.085   8.121  2.2966 -2.1883  1.0356
11589SOL     OW47239   7.921   3.135   1.323  0.3929  0.4191  0.4290
11589SOL    HW147240   7.946   3.096   1.234 -1.3327  3.8427 -1.6654
11589SOL    HW247241   7.868   3.069   1.375  0.9894 -1.4589 -1.2695
11590SOL     OW47242   5.206   2.770   6.877 -0.0113  0.1722 -0.1763
11590SOL    HW147243   5.152   2.739   6.956 -2.6768  0.6795 -1.7479
11590SOL    HW247244   5.211   2.697   6.809  1.4804  0.0669  0.0339
11591SOL     OW47245   1.272   3.146   4.103 -0.4778  0.0121  0.2192
11591SOL    HW147246   1.368   3.172   4.112  0.0856 -1.9046 -0.0511
11591SOL    HW247247   1.221   3.221   4.061  1.5714 -0.2149 -2.8827
11592SOL     OW47248   7.715   1.917   1.927  0.0736  0.4105 -0.1497
11592SOL    HW147249   7.688   2.005   1.889  0.1877  0.4765 -0.0754
11592SOL    HW247250   7.719   1.923   2.027  0.5656  0.4540 -0.1733
11593SOL     OW47251   0.014   0.752   7.328 -0.0260  0.1377  0.0205
11593SOL    HW147252   0.099   0.704   7.304 -0.4634  0.1948 -1.7422
11593SOL    HW247253  -0.062   0.708   7.280 -0.3774  2.8857 -2.0324
11594SOL     OW47254   2.914   8.888   2.171  0.2653  0.0428  0.1012
11594SOL    HW147255   2.936   8.977   2.133  0.7150  0.3248  1.0115
11594SOL    HW247256   2.894   8.896   2.268  0.2173 -0.8290  0.1754
11595SOL     OW47257   2.372   4.151   6.685 -0.2648  0.4898 -0.4383
11595SOL    HW147258   2.353   4.174   6.781 -3.3914  0.7687 -1.0686
11595SOL    HW247259   2.389   4.234   6.633  0.2436  0.4290 -0.3731
11596SOL     OW47260   4.308   3.332   7.760 -0.3662 -0.2280  0.1016
11596SOL    HW147261   4.392   3.385   7.771 -0.5076  0.0182 -0.0200
11596SOL    HW247262   4.239   3.364   7.824 -1.1978  1.2256 -1.4696
11597SOL     OW47263   1.411   8.866   6.209 -0.4185  0.0557  0.3432
11597SOL    HW147264   1.473   8.833   6.280 -1.2509  0.9113  1.4661
11597SOL    HW247265   1.317   8.845   6.234 -0.7083  0.2829 -0.5472
11598SOL     OW47266   2.571   4.975   5.452 -0.3507 -0.0908  0.3625
11598SOL    HW147267   2.509   5.033   5.399  0.7727  1.2053  0.4237
11598SOL    HW247268   2.531   4.955   5.541 -1.2748 -0.4338 -0.1177
11599SOL     OW47269   2.379   7.306   6.024 -0.1086  0.2192 -0.8636
11599SOL    HW147270   2.450   7.236   6.037  0.3265  0.5737 -1.2910
11599SOL    HW247271   2.333   7.290   5.937 -0.4490  0.0826 -0.6588
11600SOL     OW47272   4.800   0.034   5.270  0.1179 -0.8166 -0.0405
11600SOL    HW147273   4.785   0.042   5.368  0.1042 -1.9673  0.0567
11600SOL    HW247274   4.736   0.093   5.222  1.3174  1.1447  0.6885
11601SOL     OW47275   3.474   1.792   0.308  0.1093 -0.1919  0.2077
11601SOL    HW147276   3.502   1.742   0.390 -2.5440  0.0987  1.3233
11601SOL    HW247277   3.553   1.844   0.273  1.7459 -1.7156  1.5026
11602SOL     OW47278   4.607   5.984   0.101  0.1545  0.4060  0.0318
11602SOL    HW147279   4.626   6.066   0.046 -0.6421  0.1649 -0.5906
11602SOL    HW247280   4.515   5.951   0.083 -1.4376  2.3121  4.0041
11603SOL     OW47281   3.360   5.419   7.015  0.3936 -0.0369  0.2400
11603SOL    HW147282   3.434   5.484   6.997  0.9292 -0.8029 -0.3182
11603SOL    HW247283   3.292   5.424   6.942  0.3693 -0.0185  0.2639
11604SOL     OW47284   0.171   7.300   0.344  0.2054  0.0019  0.3198
11604SOL    HW147285   0.229   7.365   0.295  0.8000 -0.6856  0.0931
11604SOL    HW247286   0.219   7.269   0.427 -0.0725 -0.1460  0.4260
11605SOL     OW47287   5.320   1.433   1.290 -0.5260  0.4478 -0.0677
11605SOL    HW147288   5.337   1.402   1.384 -0.6631 -0.7077 -0.4197
11605SOL    HW247289   5.265   1.365   1.242  2.3513 -0.6167 -2.0220
11606SOL     OW47290   1.088   0.453   1.098 -0.3190  0.5655  0.2000
11606SOL    HW147291   1.016   0.500   1.151  0.9078  1.1086  1.4104
11606SOL    HW247292   1.173   0.504   1.106  0.3875 -0.4708 -0.6508
11607SOL     OW47293   1.742   7.977   6.680 -0.0205 -0.3566  0.4802
11607SOL    HW147294   1.765   7.885   6.649 -1.7988 -0.6649  0.0012
11607SOL    HW247295   1.697   7.972   6.769 -1.3999 -0.0854 -0.1901
11608SOL     OW47296   6.246   0.399   0.744 -0.2667  0.1416  0.0179
11608SOL    HW147297   6.217   0.416   0.838 -1.4484  1.9651 -0.6527
11608SOL    HW247298   6.203   0.315   0.711  1.6532 -1.5742  1.7023
11609SOL     OW47299   4.690   0.753   5.508 -0.0291 -0.5479 -0.0734
11609SOL    HW147300   4.605   0.748   5.559 -0.4080 -1.4576 -0.7893
11609SOL    HW247301   4.686   0.693   5.428  1.0335 -0.1120 -0.4803
11610SOL     OW47302   5.373   7.671   1.520  0.7858 -0.2697 -0.9088
11610SOL    HW147303   5.336   7.622   1.599 -0.9788 -0.4419 -1.8193
11610SOL    HW247304   5.362   7.769   1.534 -0.4550 -0.3389 -1.3856
11611SOL     OW47305   7.882   5.765   8.473  0.0965  0.6057  0.1788
11611SOL    HW147306   7.857   5.670   8.491  2.4764  0.1819  1.4473
11611SOL    HW247307   7.920   5.772   8.380  0.5414  0.1796  0.3243
11612SOL     OW47308   4.436   0.629   8.416 -0.3375  0.5176 -0.0273
11612SOL    HW147309   4.457   0.532   8.405 -2.5906  0.0150 -0.0809
11612SOL    HW247310   4.443   0.654   8.513 -0.7394  0.0624  0.1198
11613SOL     OW47311   7.087   5.599   6.152  0.6502 -0.3279  0.2048
11613SOL    HW147312   7.187   5.601   6.157  0.6230  0.2828  0.4816
11613SOL    HW247313   7.049   5.590   6.244  0.3685  2.7540  0.4378
11614SOL     OW47314   8.433   5.998   5.991 -0.5551 -0.2925 -0.4229
11614SOL    HW147315   8.459   6.066   6.060  0.8822 -1.2331 -0.0207
11614SOL    HW247316   8.389   5.920   6.036 -0.9287 -0.2622 -0.7312
11615SOL     OW47317   6.566   4.158   4.353  0.5326  0.0334  0.7328
11615SOL    HW147318   6.559   4.201   4.443  1.9251 -2.5410  2.1228
11615SOL    HW247319   6.622   4.216   4.293  1.2295  0.8304  2.1197
11616SOL     OW47320   7.018   8.147   2.770 -0.0852  0.4666 -0.2823
11616SOL    HW147321   7.085   8.211   2.733  1.0318 -0.5594 -0.0630
11616SOL    HW247322   7.044   8.120   2.863 -1.8588  1.5570  0.5647
11617SOL     OW47323   6.914   3.789   7.774  0.5336  0.2980  0.1862
11617SOL    HW147324   6.942   3.768   7.680  0.5940  0.7327  0.1068
11617SOL    HW247325   6.857   3.714   7.808  0.2961  0.2568 -0.2888
11618SOL     OW47326   0.908   5.207   0.647 -0.2095  0.1300 -0.0398
11618SOL    HW147327   0.827   5.153   0.671 -0.1424 -1.8807 -3.9276
11618SOL    HW247328   0.885   5.304   0.649 -2.4015 -0.3670  0.0780
11619SOL     OW47329   7.204   5.126   4.999  0.6296 -0.4927 -0.4920
11619SOL    HW147330   7.246   5.193   5.060 -1.1101 -2.0002  2.4695
11619SOL    HW247331   7.269   5.052   4.981  1.1722 -0.0082 -0.5326
11620SOL     OW47332   0.408   3.682   5.837 -0.0669 -0.4077 -0.0516
11620SOL    HW147333   0.444   3.697   5.929 -1.0272  0.8358  0.1216
11620SOL    HW247334   0.452   3.745   5.773 -2.5509  1.7525  0.3124
11621SOL     OW47335   4.688   0.659   5.228  0.4010 -0.2508 -0.5479
11621SOL    HW147336   4.616   0.707   5.178  0.3010  1.4710  1.2175
11621SOL    HW247337   4.769   0.717   5.235  1.3631 -1.5033 -0.9803
11622SOL     OW47338   2.747   1.528   8.401  0.0559  0.2166  0.2357
11622SOL    HW147339   2.835   1.563   8.369  0.6199 -0.7564  0.7025
11622SOL    HW247340   2.761   1.471   8.482 -0.7618 -1.6055 -0.8759
11623SOL     OW47341   2.442   8.188   7.462 -0.1547  0.1278  0.1536
11623SOL    HW147342   2.435   8.277   7.508 -1.3115 -0.6439  1.4969
11623SOL    HW247343   2.490   8.200   7.375  1.3505  1.7707  1.1491
11624SOL     OW47344   2.062   5.829   1.532  0.4991 -0.2797  0.3571
11624SOL    HW147345   2.129   5.838   1.458 -0.5116 -0.7107 -0.6187
11624SOL    HW247346   2.056   5.733   1.559 -0.7235 -0.4576 -0.5085
11625SOL     OW47347   6.597   7.008   1.999  0.6779  0.3145 -0.0748
11625SOL    HW147348   6.585   6.926   1.943 -2.0365  0.8723 -0.4032
11625SOL    HW247349   6.655   6.987   2.077  1.3985 -1.4646 -1.0531
11626SOL     OW47350   2.445   2.800   4.780 -0.3478  0.6918 -0.3141
11626SOL    HW147351   2.484   2.708   4.770 -0.0540  0.6119  1.4102
11626SOL    HW247352   2.492   2.863   4.719  0.4163 -0.0227 -0.4782
11627SOL     OW47353   4.292   5.625   6.408  0.3142 -0.3300  0.1091
11627SOL    HW147354   4.314   5.569   6.328  0.0485  1.6111 -1.3603
11627SOL    HW247355   4.346   5.593   6.487  1.7414 -1.2998 -1.2261
11628SOL     OW47356   8.142   4.184   6.543  0.0693 -0.7789 -0.4054
11628SOL    HW147357   8.180   4.225   6.460 -1.0330  0.5535 -0.2666
11628SOL    HW247358   8.180   4.231   6.623 -1.3343  0.1310 -0.2512
11629SOL     OW47359   7.222   1.878   1.525  0.2558 -0.2068 -0.1901
11629SOL    HW147360   7.241   1.960   1.470  3.3522  0.5285  1.8580
11629SOL    HW247361   7.300   1.816   1.521 -1.5504 -2.5052 -0.6717
11630SOL     OW47362   4.749   2.104   7.697 -0.0797  0.1994  0.2114
11630SOL    HW147363   4.682   2.174   7.670 -1.5036 -0.5036  1.8519
11630SOL    HW247364   4.810   2.142   7.767 -0.4800 -0.0055  0.6750
11631SOL     OW47365   4.131   8.470   2.772  0.1324 -0.0095 -0.1453
11631SOL    HW147366   4.161   8.562   2.797 -0.0571 -0.4350  1.7104
11631SOL    HW247367   4.031   8.470   2.761  0.4097  0.6732 -3.1733
11632SOL     OW47368   2.475   1.158   3.234 -0.4188  0.1307 -0.3771
11632SOL    HW147369   2.489   1.255   3.250 -2.6900  0.3648  0.2633
11632SOL    HW247370   2.402   1.124   3.292  0.0867 -1.8940 -0.8662
11633SOL     OW47371   4.692   4.482   5.125 -0.4463  0.1045  0.0431
11633SOL    HW147372   4.612   4.433   5.159 -0.7034 -1.0622 -2.1593
11633SOL    HW247373   4.756   4.417   5.083 -0.1547  1.4567 -1.6738
11634SOL     OW47374   5.397   0.815   1.397 -0.0143  0.2984  0.0573
11634SOL    HW147375   5.374   0.723   1.364  0.7648 -0.1848  0.8353
11634SOL    HW247376   5.496   0.828   1.393  0.2832 -0.3197  3.5181
11635SOL     OW47377   1.551   3.315   0.721 -0.1987 -0.1854 -0.6975
11635SOL    HW147378   1.641   3.297   0.682  0.3471  0.4442  0.2392
11635SOL    HW247379   1.514   3.400   0.682 -0.1317 -0.1354 -0.6519
11636SOL     OW47380   3.280   2.506   8.601  0.3038  0.0591  0.3489
11636SOL    HW147381   3.287   2.476   8.696 -1.2072 -0.2745  0.3633
11636SOL    HW247382   3.184   2.515   8.576  0.6990  0.5441 -1.0307
11637SOL     OW47383   4.756   4.655   7.124  0.3002  0.4789 -0.1065
11637SOL    HW147384   4.818   4.730   7.100  1.8467 -0.9348 -0.6120
11637SOL    HW247385   4.722   4.611   7.041 -0.0587  0.1785  0.1948
11638SOL     OW47386   6.412   3.933   5.650  0.4030 -0.1317 -0.1953
11638SOL    HW147387   6.458   3.913   5.737  0.1454  0.4661  0.0862
11638SOL    HW247388   6.433   4.027   5.623  0.8728 -0.4716 -1.0309
11639SOL     OW47389   0.287   8.201   4.718 -0.1771 -0.2633  0.2614
11639SOL    HW147390   0.342   8.268   4.668 -0.0359  0.5481  1.4838
11639SOL    HW247391   0.211   8.171   4.661  0.0755  0.5224 -0.4974
11640SOL     OW47392   3.700   5.681   3.918  0.4908 -0.5251 -0.1630
11640SOL    HW147393   3.663   5.772   3.898  1.5097 -0.4895 -1.9863
11640SOL    HW247394   3.798   5.689   3.938  0.3444 -1.0949  0.8381
11641SOL     OW47395   8.168   7.665   1.057  0.2646 -0.0924 -0.5135
11641SOL    HW147396   8.153   7.758   1.090  3.0272  0.9309 -2.0295
11641SOL    HW247397   8.100   7.643   0.987 -2.2502 -0.3434  1.8944
11642SOL     OW47398   7.410   2.614   0.422 -0.2672  0.0118 -0.1917
11642SOL    HW147399   7.435   2.644   0.330  0.3187  1.1715  0.3387
11642SOL    HW247400   7.471   2.656   0.489 -0.4874 -1.0671  0.7111
11643SOL     OW47401   0.797   6.152   7.001  0.8110  0.4589  0.3742
11643SOL    HW147402   0.743   6.068   7.010 -0.2479  0.7916 -2.3399
11643SOL    HW247403   0.747   6.229   7.041  0.2093  0.3934 -0.2406
11644SOL     OW47404   0.163   6.345   1.680  0.8548 -0.2036  0.2400
11644SOL    HW147405   0.203   6.399   1.754  1.1869 -1.2529  0.8299
11644SOL    HW247406   0.202   6.375   1.592  0.1764  1.3002  0.4340
11645SOL     OW47407   2.915   2.049   3.805  0.2608 -0.0461  0.3129
11645SOL    HW147408   2.878   2.135   3.840  0.9570 -0.5628  2.4118
11645SOL    HW247409   2.922   1.983   3.880  1.4039 -1.3542 -0.9096
11646SOL     OW47410   8.639   4.681   5.233 -0.7605  0.4033 -0.1599
11646SOL    HW147411   8.670   4.606   5.292  1.5017 -0.3469 -2.2604
11646SOL    HW247412   8.709   4.752   5.229 -2.6123  2.4079  1.2918
11647SOL     OW47413   8.086   7.971   7.370  0.0436 -0.1684  0.0249
11647SOL    HW147414   8.110   7.887   7.321  0.7152 -0.6066  1.0655
11647SOL    HW247415   8.145   7.979   7.451 -0.8256  0.6918  0.5764
11648SOL     OW47416   4.230   6.555   4.690 -0.0802  0.2358 -0.4665
11648SOL    HW147417   4.289   6.632   4.717  0.1734 -1.0315  2.7143
11648SOL    HW247418   4.138   6.569   4.726  0.9140 -2.7390  3.6429
11649SOL     OW47419   6.547   5.366   7.123 -0.2256 -0.1690  0.1542
11649SOL    HW147420   6.630   5.377   7.176 -0.8629 -0.8792  1.3315
11649SOL    HW247421   6.554   5.283   7.066  0.3374  0.4284 -0.6556
11650SOL     OW47422   3.825   5.204   3.338 -0.4181  0.4442 -0.0368
11650SOL    HW147423   3.918   5.189   3.372 -0.4101  0.5415 -0.0164
11650SOL    HW247424   3.824   5.286   3.280 -0.0700 -0.6983 -1.6962
11651SOL     OW47425   4.149   4.379   8.696  0.1836 -0.0890 -0.2063
11651SOL    HW147426   4.091   4.373   8.777  1.8292 -1.1717  0.9149
11651SOL    HW247427   4.127   4.304   8.634 -0.1453 -0.0517 -0.1377
11652SOL     OW47428   0.583   2.389   3.781 -0.3504 -0.0744 -0.5247
11652SOL    HW147429   0.628   2.308   3.744 -0.3898 -0.6212  0.6063
11652SOL    HW247430   0.538   2.439   3.706  1.9754  0.4112 -1.6641
11653SOL     OW47431   1.158   2.224   7.313 -0.0768 -0.3355  0.0164
11653SOL    HW147432   1.195   2.148   7.365 -0.1231 -0.1657  0.2953
11653SOL    HW247433   1.119   2.190   7.227  1.8267 -0.3748 -0.8619
11654SOL     OW47434   4.063   2.263   4.702 -0.4358  0.0026  0.5500
11654SOL    HW147435   4.091   2.309   4.618 -2.7337  1.5024  0.5705
11654SOL    HW247436   4.031   2.171   4.681 -3.1092  1.1379 -0.5723
11655SOL     OW47437   0.636   1.628   4.699 -0.3682 -0.3460  0.1722
11655SOL    HW147438   0.582   1.711   4.713  1.2765  0.6930  0.4689
11655SOL    HW247439   0.657   1.618   4.602 -2.0902 -1.4047 -0.1112
11656SOL     OW47440   4.344   1.834   1.244 -0.1643 -0.2675  0.2755
11656SOL    HW147441   4.380   1.773   1.314  0.5141 -1.9560 -1.5101
11656SOL    HW247442   4.314   1.780   1.165  1.2892  1.7633 -1.7105
11657SOL     OW47443   8.746   6.614   6.669 -0.3901  0.1129 -0.4293
11657SOL    HW147444   8.655   6.590   6.634 -0.3966 -0.0880 -0.2732
11657SOL    HW247445   8.739   6.636   6.766  0.0450 -1.7966  0.0558
11658SOL     OW47446   3.393   8.700   0.775  0.1562 -0.7163 -0.0036
11658SOL    HW147447   3.436   8.789   0.792  1.6665 -1.4334  0.0454
11658SOL    HW247448   3.294   8.709   0.781  0.3375  0.7522  1.0204
11659SOL     OW47449   2.680   3.599   3.934  0.2820 -0.1207 -0.4307
11659SOL    HW147450   2.723   3.689   3.940 -1.9279  0.8348  1.4805
11659SOL    HW247451   2.581   3.608   3.938  0.0390 -2.7011  0.5216
11660SOL     OW47452   3.300   5.284   4.285  0.3899 -0.3758 -0.0156
11660SOL    HW147453   3.289   5.319   4.192 -0.3164  0.4702  0.3709
11660SOL    HW247454   3.367   5.210   4.286 -0.0613 -0.8082 -1.2951
11661SOL     OW47455   4.146   0.892   0.265 -0.1262 -0.0806 -0.8066
11661SOL    HW147456   4.112   0.873   0.173 -1.6724  0.8212 -0.4269
11661SOL    HW247457   4.072   0.926   0.322  0.4780 -1.9988  1.2066
11662SOL     OW47458   3.070   0.836   1.922  0.2244  0.2099  0.3488
11662SOL    HW147459   3.031   0.787   2.000  0.6468 -2.0934 -0.8341
11662SOL    HW247460   3.111   0.922   1.954  0.3672 -0.6752  2.6677
11663SOL     OW47461   8.670   5.189   5.276 -0.5455 -0.7397 -0.0415
11663SOL    HW147462   8.739   5.162   5.344 -1.2959 -1.7528  0.3364
11663SOL    HW247463   8.713   5.246   5.206  0.2401  0.2861  1.2617
11664SOL     OW47464   2.319   1.098   0.718  0.4696  0.0916  0.2380
11664SOL    HW147465   2.266   1.153   0.653  0.4177 -1.4953 -1.1130
11664SOL    HW247466   2.318   1.141   0.808 -3.8162 -0.2740  0.4690
11665SOL     OW47467   4.029   7.333   4.940 -0.0833 -0.4191  0.2975
11665SOL    HW147468   3.973   7.289   5.010  0.1602 -2.3464 -0.6867
11665SOL    HW247469   4.125   7.326   4.965 -0.1744  1.9236  1.4404
11666SOL     OW47470   0.427   4.709   2.940  0.0549  0.4484 -0.4098
11666SOL    HW147471   0.518   4.675   2.917 -0.4932 -1.1805 -0.2303
11666SOL    HW247472   0.393   4.765   2.865  1.4468  1.5746 -0.2216
11667SOL     OW47473   0.864   4.527   8.044  0.3508 -0.6570 -0.9284
11667SOL    HW147474   0.914   4.596   8.096  1.3328 -1.4014 -0.8774
11667SOL    HW247475   0.846   4.448   8.102 -1.0692 -0.3154 -0.8898
11668SOL     OW47476   4.231   2.375   3.083  0.1009 -0.7421 -0.0925
11668SOL    HW147477   4.269   2.336   3.000  1.3706 -0.4498  0.3423
11668SOL    HW247478   4.131   2.369   3.080  0.1668 -1.3449 -1.3247
11669SOL     OW47479   2.480   5.142   7.853  0.2102  0.4978 -0.5863
11669SOL    HW147480   2.477   5.046   7.826 -2.0174  0.4306 -0.1975
11669SOL    HW247481   2.514   5.150   7.947  1.7571  0.2313 -1.1034
11670SOL     OW47482   4.487   7.282   7.108  0.1039 -0.2898  0.1145
11670SOL    HW147483   4.423   7.286   7.032 -0.7922 -2.9998  0.6715
11670SOL    HW247484   4.467   7.356   7.172 -3.1087 -1.6176  0.7408
11671SOL     OW47485   6.937   6.247   1.860  0.2785  0.1147 -0.0338
11671SOL    HW147486   7.017   6.288   1.817  1.0144  0.5493  1.7049
11671SOL    HW247487   6.964   6.200   1.944 -0.8077 -2.4780 -1.0440
11672SOL     OW47488   6.908   4.891   0.717 -0.0871  0.3421 -0.4681
11672SOL    HW147489   6.882   4.965   0.779 -2.7376 -0.3755 -0.6884
11672SOL    HW247490   7.007   4.877   0.723 -0.0076  1.6146  2.1373
11673SOL     OW47491   8.762   2.259   8.580 -0.6382 -0.1917 -0.2836
11673SOL    HW147492   8.799   2.316   8.506 -1.1658  1.4294  0.6869
11673SOL    HW247493   8.835   2.238   8.645 -0.4781 -0.4800 -0.5588
11674SOL     OW47494   1.032   5.782   2.421  0.5176  0.7517  0.2558
11674SOL    HW147495   1.022   5.700   2.364  1.9289  0.7563 -0.0084
11674SOL    HW247496   0.945   5.831   2.425 -0.5651 -1.2071  1.1106
11675SOL     OW47497   7.714   5.363   1.909 -0.2572  0.0111 -0.0718
11675SOL    HW147498   7.649   5.396   1.978 -0.3637  0.6322 -0.4696
11675SOL    HW247499   7.787   5.312   1.955 -1.0039 -0.6781  0.3778
11676SOL     OW47500   0.818   0.299   0.647  0.0787  0.3555 -0.6546
11676SOL    HW147501   0.832   0.287   0.548  0.5421 -1.3388 -0.4015
11676SOL    HW247502   0.737   0.248   0.675 -0.2806  1.1604 -0.2152
11677SOL     OW47503   3.867   6.576   6.472  0.6547  0.5724  0.0678
11677SOL    HW147504   3.878   6.491   6.420 -0.8210  0.6462 -0.3868
11677SOL    HW247505   3.833   6.648   6.412 -2.2350  0.3504  1.3199
11678SOL     OW47506   2.123   8.319   6.917  0.2776 -0.6541  0.0290
11678SOL    HW147507   2.152   8.370   6.836 -0.9839 -0.5553 -0.3785
11678SOL    HW247508   2.099   8.384   6.990  1.8859 -0.7536  0.6594
11679SOL     OW47509   5.456   8.737   0.591  0.0417 -0.4040 -0.1007
11679SOL    HW147510   5.416   8.658   0.637 -2.2186  0.6933 -0.1216
11679SOL    HW247511   5.439   8.820   0.645  0.5397  0.3676 -1.1074
11680SOL     OW47512   5.614   7.540   2.642 -0.1633  0.0241  0.0748
11680SOL    HW147513   5.568   7.515   2.727  1.4012  0.1676  0.9821
11680SOL    HW247514   5.575   7.486   2.566 -2.5802  0.9624  0.6039
11681SOL     OW47515   7.408   5.750   0.870 -0.7114  0.3800  0.4863
11681SOL    HW147516   7.333   5.810   0.844 -0.8727 -0.0347 -0.0100
11681SOL    HW247517   7.381   5.655   0.856 -0.2897  0.2065  0.8285
11682SOL     OW47518   3.833   2.375   4.359  0.5803  0.8868 -0.1771
11682SOL    HW147519   3.797   2.349   4.270  0.8816 -1.2401  0.3052
11682SOL    HW247520   3.790   2.461   4.388 -2.5249 -0.4223 -0.6198
11683SOL     OW47521   4.648   0.610   8.830 -0.3567  0.0697 -0.1446
11683SOL    HW147522   4.705   0.630   8.910 -0.3869  1.6218 -0.4950
11683SOL    HW247523   4.666   0.517   8.799  1.1669  0.1560  0.4313
11684SOL     OW47524   4.461   2.487   3.237 -0.3679  0.8383 -0.0476
11684SOL    HW147525   4.381   2.463   3.181  0.3205  0.5508 -0.9106
11684SOL    HW247526   4.544   2.472   3.184  0.4194 -1.7317  1.8329
11685SOL     OW47527   8.253   1.330   7.506 -0.0812 -0.6111 -0.1443
11685SOL    HW147528   8.206   1.415   7.482 -0.8925 -1.0478 -0.1214
11685SOL    HW247529   8.272   1.329   7.604  0.4690 -0.1918 -0.2450
11686SOL     OW47530   2.595   4.324   6.900 -0.2845  0.3944 -0.4260
11686SOL    HW147531   2.656   4.246   6.887 -0.7444  0.2676 -1.9049
11686SOL    HW247532   2.502   4.291   6.918 -0.0843  0.5949  1.0401
11687SOL     OW47533   8.419   7.652   5.895 -0.7536 -0.2133  0.0148
11687SOL    HW147534   8.354   7.710   5.945 -1.6778 -2.2440  1.2352
11687SOL    HW247535   8.506   7.650   5.944 -0.5225  0.5992 -0.3502
11688SOL     OW47536   4.864   6.292   6.456  0.6663  0.3597  0.7382
11688SOL    HW147537   4.779   6.280   6.405  1.7711 -1.0262 -0.8563
11688SOL    HW247538   4.923   6.357   6.407  1.7403 -0.9842  0.2189
11689SOL     OW47539   7.874   7.929   1.600 -0.0006  0.9739  0.1575
11689SOL    HW147540   7.918   8.019   1.611  0.8170  0.1975  3.8120
11689SOL    HW247541   7.808   7.915   1.673 -2.6715 -0.0535 -2.3494
11690SOL     OW47542   8.727   6.615   1.034 -0.4022  0.3274  0.7021
11690SOL    HW147543   8.774   6.530   1.008 -0.8698  0.7802 -1.7322
11690SOL    HW247544   8.752   6.639   1.127  1.2380 -1.4807  0.7682
11691SOL     OW47545   8.565   5.586   6.138 -0.0908 -0.1055 -0.0721
11691SOL    HW147546   8.563   5.625   6.230 -1.9932 -0.5531  0.0896
11691SOL    HW247547   8.579   5.487   6.144 -1.2002 -0.2759 -0.2089
11692SOL     OW47548   8.663   7.780   8.641  0.1877 -0.3692 -0.0890
11692SOL    HW147549   8.738   7.769   8.575 -0.0799 -0.0689 -0.4448
11692SOL    HW247550   8.598   7.706   8.630 -0.0558 -0.1069 -0.4259
11693SOL     OW47551   4.085   6.743   3.346  0.7627  0.0259  0.3879
11693SOL    HW147552   4.019   6.748   3.421  0.0606  0.3813 -0.2544
11693SOL    HW247553   4.164   6.800   3.368  0.1942  0.7813  0.4988
11694SOL     OW47554   4.734   8.712   6.079 -0.3886  0.5673 -0.2396
11694SOL    HW147555   4.668   8.702   6.005 -0.5045  0.3040 -0.1026
11694SOL    HW247556   4.748   8.623   6.123 -2.6754  1.2712  2.0593
11695SOL     OW47557   3.821   7.148   6.280  0.1046  0.4061  0.5833
11695SOL    HW147558   3.762   7.157   6.360  1.4527  0.3169  1.6025
11695SOL    HW247559   3.909   7.111   6.307 -0.1581 -1.7361 -1.2883
11696SOL     OW47560   2.152   2.891   3.563 -0.2007 -0.2007 -0.2440
11696SOL    HW147561   2.222   2.962   3.566 -0.0806 -0.3681  1.4608
11696SOL    HW247562   2.195   2.802   3.544 -0.0481 -0.1802  0.0023
11697SOL     OW47563   0.644   6.151   2.400 -0.3427  0.5769 -0.3587
11697SOL    HW147564   0.674   6.222   2.464 -0.4049  2.2424 -2.0920
11697SOL    HW247565   0.571   6.097   2.440  1.6946 -0.4393  2.1313
11698SOL     OW47566   8.911   0.698   4.279 -0.2395  0.2186 -0.3660
11698SOL    HW147567   9.006   0.696   4.310  0.0354 -0.2450 -1.2070
11698SOL    HW247568   8.899   0.771   4.211 -0.2899 -0.2121 -0.8298
11699SOL     OW47569   6.987   7.229   6.853  0.0111  0.2070 -0.6284
11699SOL    HW147570   6.966   7.225   6.951 -1.2670  1.8731 -0.8209
11699SOL    HW247571   7.080   7.262   6.840 -0.6465  2.3359 -0.0349
11700SOL     OW47572   7.802   7.467   8.209  0.3645  0.0095 -0.5371
11700SOL    HW147573   7.712   7.481   8.251  0.0754  0.4235 -1.2771
11700SOL    HW247574   7.854   7.551   8.215  1.2564 -0.6367  1.1540
11701SOL     OW47575   5.413   2.787   7.072 -0.6629  0.2820 -0.4054
11701SOL    HW147576   5.342   2.778   7.003  0.1251  0.3678 -1.2273
11701SOL    HW247577   5.482   2.715   7.059  0.2409  1.1767 -0.6088
11702SOL     OW47578   8.323   3.998   1.248 -0.2385  0.3161 -0.2187
11702SOL    HW147579   8.413   4.007   1.205  0.3177  1.3892  1.1354
11702SOL    HW247580   8.285   4.089   1.265 -0.0516 -0.0453  2.3522
11703SOL     OW47581   4.875   6.741   3.077  0.3754 -0.3044  0.5092
11703SOL    HW147582   4.917   6.749   3.168 -0.4750 -0.4178  0.9218
11703SOL    HW247583   4.931   6.790   3.010  2.0681 -1.8864  0.7333
11704SOL     OW47584   7.084   8.851   1.249  0.1585 -0.1402 -0.1572
11704SOL    HW147585   6.985   8.858   1.240 -0.0836  1.3369  2.8927
11704SOL    HW247586   7.107   8.769   1.301  0.2540  1.3952  2.3080
11705SOL     OW47587   5.520   6.804   2.013  0.3586  0.2588 -0.5196
11705SOL    HW147588   5.537   6.861   2.093  0.4727  1.5006 -1.4222
11705SOL    HW247589   5.504   6.862   1.933 -0.0032 -0.9670 -1.3477
11706SOL     OW47590   4.814   0.750   4.136 -0.3694  0.1176 -0.1964
11706SOL    HW147591   4.886   0.732   4.069  0.9222 -1.2155  1.4936
11706SOL    HW247592   4.802   0.849   4.146  2.2601  0.4121  0.5260
11707SOL     OW47593   1.082   4.486   2.897 -0.0923 -0.0724 -0.4821
11707SOL    HW147594   1.017   4.471   2.971  2.2357  1.3446  1.9709
11707SOL    HW247595   1.117   4.399   2.864 -0.8660 -0.7122  0.3702
11708SOL     OW47596   4.670   5.644   2.338 -0.1496 -0.3320  0.1677
11708SOL    HW147597   4.709   5.571   2.281  0.8313 -0.0370  0.4522
11708SOL    HW247598   4.608   5.604   2.405 -1.4033 -0.6741 -1.1634
11709SOL     OW47599   7.519   0.197   8.567  0.1689  0.1628  0.2150
11709SOL    HW147600   7.533   0.253   8.485  1.3308 -0.1019  0.2318
11709SOL    HW247601   7.589   0.126   8.571 -0.4447 -0.3983  0.9562
11710SOL     OW47602   1.209   8.772   6.711  0.3320  0.0277 -0.3041
11710SOL    HW147603   1.198   8.673   6.705  1.7288 -0.0932 -1.0648
11710SOL    HW247604   1.119   8.815   6.720 -0.4101 -1.2233 -1.5101
11711SOL     OW47605   4.373   0.460   0.137 -0.0978  0.1006 -0.1107
11711SOL    HW147606   4.448   0.450   0.203 -0.5387 -0.0007  0.3795
11711SOL    HW247607   4.293   0.412   0.171 -0.0628 -0.7157 -1.1530
11712SOL     OW47608   8.495   1.470   1.898 -0.1048  0.4880 -0.0034
11712SOL    HW147609   8.515   1.479   1.996 -0.0219 -0.2720  0.0475
11712SOL    HW247610   8.443   1.551   1.868  0.7161  1.1972  0.4489
11713SOL     OW47611   2.289   6.240   7.165  0.1968  0.0648 -0.0283
11713SOL    HW147612   2.306   6.325   7.115  0.3646  0.9692  1.5227
11713SOL    HW247613   2.234   6.261   7.246  2.7047 -0.8521  1.9529
11714SOL     OW47614   5.651   4.160   5.019 -0.7605  0.0968  0.4593
11714SOL    HW147615   5.607   4.130   4.934 -0.9148 -0.8867  0.8734
11714SOL    HW247616   5.736   4.109   5.031  0.0758  1.3931  0.0903
11715SOL     OW47617   2.099   3.850   8.106  0.3634 -0.7150 -0.0177
11715SOL    HW147618   2.002   3.825   8.107 -0.2608  1.5709  1.4452
11715SOL    HW247619   2.143   3.818   8.189  0.5146 -0.5317 -0.0261
11716SOL     OW47620   6.083   5.040   0.800  0.2085 -0.2029 -0.1863
11716SOL    HW147621   6.001   4.983   0.790  0.7463 -1.2445  1.1850
11716SOL    HW247622   6.164   4.986   0.780  0.5766  0.8715 -1.7027
11717SOL     OW47623   0.172   4.798   1.271  0.6017 -0.2155  0.2275
11717SOL    HW147624   0.121   4.777   1.355  0.7894 -0.5272  0.2675
11717SOL    HW247625   0.266   4.825   1.295  0.1463  1.3974  0.2128
11718SOL     OW47626   7.350   3.785   3.830 -0.3190  0.8791 -0.4390
11718SOL    HW147627   7.353   3.792   3.731  0.3822  0.5366 -0.4477
11718SOL    HW247628   7.356   3.877   3.870 -3.6090  1.2859 -0.7470
11719SOL     OW47629   2.161   7.752   3.011  0.0969  0.1326  0.1915
11719SOL    HW147630   2.151   7.719   2.917 -0.7726  1.2355 -0.1121
11719SOL    HW247631   2.144   7.676   3.074 -2.2766  0.0405 -0.4904
11720SOL     OW47632   0.725   5.828   5.154  0.4747  0.6150 -0.3807
11720SOL    HW147633   0.771   5.747   5.118  0.3971  0.1534  0.5616
11720SOL    HW247634   0.719   5.898   5.082 -0.3304 -0.5818 -1.4878
11721SOL     OW47635   6.665   4.988   1.471  0.5453 -0.1017  0.0499
11721SOL    HW147636   6.728   4.935   1.414  2.1372  0.5005  1.2006
11721SOL    HW247637   6.652   4.942   1.559 -1.8182 -0.9795 -0.7251
11722SOL     OW47638   4.758   2.014   0.271  0.0226  0.5762 -0.2304
11722SOL    HW147639   4.667   1.993   0.237  0.2026  0.7570 -0.8212
11722SOL    HW247640   4.761   2.109   0.303 -0.5557 -0.0164  1.6633
11723SOL     OW47641   6.213   2.735   0.524 -0.6501  0.0812 -0.1335
11723SOL    HW147642   6.275   2.813   0.517 -1.3236  0.6574  0.1540
11723SOL    HW247643   6.151   2.735   0.445 -2.2717  1.2935  1.0855
11724SOL     OW47644   2.489   6.790   3.027 -0.6167  0.4194 -0.3525
11724SOL    HW147645   2.440   6.755   2.948 -0.4231  0.0915 -0.3284
11724SOL    HW247646   2.587   6.782   3.012 -0.5649  1.2819 -0.4939
11725SOL     OW47647   6.499   2.128   6.024  0.5939  0.2006 -0.0710
11725SOL    HW147648   6.539   2.219   6.033 -0.5474  0.5449  1.8967
11725SOL    HW247649   6.572   2.059   6.021  1.3984  1.0031  0.7828
11726SOL     OW47650   3.044   4.793   1.344  0.1187  0.2814 -0.1456
11726SOL    HW147651   3.130   4.795   1.395 -0.4823 -1.5577  0.9950
11726SOL    HW247652   2.968   4.804   1.408 -0.5512  0.2005 -0.9293
11727SOL     OW47653   7.712   1.519   5.844  0.1071  0.5558  0.3928
11727SOL    HW147654   7.761   1.554   5.764 -1.8767 -1.1925 -1.6432
11727SOL    HW247655   7.725   1.420   5.850 -0.0939  0.6086  2.0350
11728SOL     OW47656   3.443   8.225   7.662 -0.1644  0.1080  0.1951
11728SOL    HW147657   3.391   8.143   7.686  0.5928 -0.4810 -0.1537
11728SOL    HW247658   3.399   8.305   7.703 -1.1967 -0.4058  0.1235
11729SOL     OW47659   4.934   4.548   4.155  0.0076 -0.0341  0.1574
11729SOL    HW147660   4.878   4.524   4.076 -1.5084 -0.4838  1.3267
11729SOL    HW247661   4.918   4.482   4.228 -1.7033  2.5540  2.2586
11730SOL     OW47662   7.406   6.037   2.451 -0.0767 -0.6292 -0.2496
11730SOL    HW147663   7.366   5.982   2.377 -0.6826  2.0078 -1.9769
11730SOL    HW247664   7.504   6.022   2.454 -0.0466 -0.7739 -1.6111
11731SOL     OW47665   5.899   5.736   8.348 -0.4533 -0.6767  0.5237
11731SOL    HW147666   5.958   5.671   8.301  1.3248  0.5429  1.0353
11731SOL    HW247667   5.912   5.730   8.447  0.6951  1.3222  0.5228
11732SOL     OW47668   2.371   6.892   5.875 -0.1965 -0.3031 -0.1622
11732SOL    HW147669   2.300   6.872   5.807  1.9029 -1.3813 -2.0788
11732SOL    HW247670   2.443   6.823   5.869  0.3760 -0.0217  2.7165
11733SOL     OW47671   5.306   5.532   7.031  0.0784 -0.4757  0.0954
11733SOL    HW147672   5.402   5.537   7.058 -0.2169  0.4142  0.9630
11733SOL    HW247673   5.292   5.588   6.949  0.4410 -1.1819 -0.4612
11734SOL     OW47674   5.527   6.280   0.959  0.0823  0.5960  0.0842
11734SOL    HW147675   5.607   6.323   0.917  0.7046  0.1543  0.8006
11734SOL    HW247676   5.455   6.348   0.971  0.2637  0.9457 -0.7770
11735SOL     OW47677   7.122   4.725   6.357 -0.3154  0.3181 -0.4301
11735SOL    HW147678   7.054   4.698   6.289 -0.9767  2.6339 -0.7229
11735SOL    HW247679   7.187   4.790   6.316 -0.2891  1.1651  0.9179
11736SOL     OW47680   6.455   7.969   0.540  0.2746 -0.1267  0.0610
11736SOL    HW147681   6.526   8.014   0.594  1.4903 -1.6377 -0.2211
11736SOL    HW247682   6.427   8.029   0.465 -0.4994  1.4535  1.5776
11737SOL     OW47683   3.803   0.386   2.038  0.2289  0.4027 -0.1899
11737SOL    HW147684   3.734   0.340   1.982  0.8381 -0.4967 -0.2124
11737SOL    HW247685   3.860   0.444   1.979  1.1872 -0.9241 -0.6061
11738SOL     OW47686   0.141   3.773   7.706 -0.5020 -0.6344  0.5783
11738SOL    HW147687   0.194   3.838   7.652  1.3321 -1.9975  0.6788
11738SOL    HW247688   0.059   3.746   7.656 -0.6586  0.8536  0.0403
11739SOL     OW47689   1.040   5.572   3.010  0.0732 -0.2867 -0.4925
11739SOL    HW147690   1.019   5.657   2.962 -2.1692 -0.0611  0.8295
11739SOL    HW247691   1.107   5.591   3.082  0.8120  0.0283 -1.2464
11740SOL     OW47692   4.862   8.554   7.239  0.2784 -0.3032  0.0353
11740SOL    HW147693   4.836   8.547   7.335 -0.1854  2.2439  0.1301
11740SOL    HW247694   4.790   8.514   7.182 -0.4990  0.1834  0.6569
11741SOL     OW47695   7.326   6.632   2.359  0.7065  0.2346 -0.1249
11741SOL    HW147696   7.415   6.668   2.331  0.5609  0.5756 -0.1477
11741SOL    HW247697   7.257   6.656   2.291  0.3787  0.9605  0.4558
11742SOL     OW47698   7.462   3.043   5.475  0.0524  0.1276  0.4518
11742SOL    HW147699   7.496   2.954   5.507  1.2207 -0.2465 -1.7782
11742SOL    HW247700   7.379   3.030   5.422 -1.8112  0.7399  3.1388
11743SOL     OW47701   0.858   0.501   5.764  0.3365  0.1646  0.3087
11743SOL    HW147702   0.934   0.437   5.749  1.8401  2.0431 -0.4061
11743SOL    HW247703   0.839   0.508   5.862  1.5592  0.1923  0.5529
11744SOL     OW47704   1.369   7.756   7.097  0.4634  0.3377  0.1147
11744SOL    HW147705   1.385   7.853   7.111 -0.1137  0.6518 -1.3011
11744SOL    HW247706   1.450   7.714   7.057  0.7252  0.2229  0.7598
11745SOL     OW47707   5.131   3.570   2.452  0.8857  0.4044 -0.4982
11745SOL    HW147708   5.127   3.474   2.481  2.1879 -0.1787 -2.1966
11745SOL    HW247709   5.225   3.601   2.450  0.4926  1.6437 -0.2670
11746SOL     OW47710   1.235   1.902   6.685 -0.8694  0.3886 -0.3449
11746SOL    HW147711   1.202   1.830   6.623 -1.8448  1.3484 -0.9670
11746SOL    HW247712   1.333   1.913   6.675 -0.0401 -3.4700  2.5030
11747SOL     OW47713   0.849   5.217   6.374  0.3757 -0.5424 -0.3944
11747SOL    HW147714   0.888   5.202   6.465 -1.1329 -2.3224 -0.0068
11747SOL    HW247715   0.755   5.249   6.383  0.2877 -0.5241 -1.3200
11748SOL     OW47716   1.269   3.130   6.454  0.7827  0.3229 -0.4814
11748SOL    HW147717   1.205   3.160   6.383  1.2291 -1.3069 -1.6008
11748SOL    HW247718   1.361   3.163   6.432  0.3492  2.8919  1.2660
11749SOL     OW47719   0.685   6.046   3.015 -0.4794  0.1563 -0.2042
11749SOL    HW147720   0.678   5.961   2.963 -1.1894  0.1805 -0.1515
11749SOL    HW247721   0.780   6.076   3.017 -0.1536 -0.8806  0.1788
11750SOL     OW47722   2.777   2.770   3.616 -0.6570  0.1741 -0.1177
11750SOL    HW147723   2.863   2.744   3.659 -0.3433  0.2314 -0.7103
11750SOL    HW247724   2.702   2.719   3.659 -0.2152 -0.6469 -0.2962
11751SOL     OW47725   1.308   5.968   1.169  0.2046 -0.1184  0.1573
11751SOL    HW147726   1.254   5.984   1.252 -0.4865 -0.6879 -0.1789
11751SOL    HW247727   1.399   6.008   1.180 -0.6565  1.9170  0.2885
11752SOL     OW47728   3.663   6.646   0.908  0.0750  0.0777 -0.3423
11752SOL    HW147729   3.758   6.621   0.892  0.1611  0.3138 -0.1910
11752SOL    HW247730   3.641   6.730   0.857  0.5948  1.3389  1.4658
11753SOL     OW47731   4.045   0.103   4.290  0.5131 -0.2205  0.4952
11753SOL    HW147732   4.109   0.079   4.217 -0.8345  0.1358 -0.8491
11753SOL    HW247733   4.017   0.199   4.280 -0.7981 -0.5774  0.5979
11754SOL     OW47734   3.446   5.245   5.332 -0.3466  0.3028 -0.1785
11754SOL    HW147735   3.397   5.269   5.248  0.3622 -0.2070 -0.7508
11754SOL    HW247736   3.537   5.209   5.308 -0.6592 -1.1476  0.7418
11755SOL     OW47737   5.517   8.255   6.171  0.5520  0.3380 -0.1310
11755SOL    HW147738   5.553   8.348   6.167 -0.0108  0.6089  0.9145
11755SOL    HW247739   5.568   8.202   6.238 -0.1923  0.3832  0.4869
11756SOL     OW47740   3.471   0.949   4.471  0.4310  0.5013 -0.2510
11756SOL    HW147741   3.413   0.971   4.549  0.8891 -2.0883  0.8876
11756SOL    HW247742   3.548   1.012   4.468  1.3969 -0.4775  2.5280
11757SOL     OW47743   5.443   3.422   7.571  0.3818 -0.0357 -0.0622
11757SOL    HW147744   5.524   3.433   7.513 -0.6569 -1.0337 -1.7570
11757SOL    HW247745   5.458   3.468   7.659  1.9424  1.6277 -1.1586
11758SOL     OW47746   4.370   5.429   3.996  0.1049 -0.0904 -0.4267
11758SOL    HW147747   4.376   5.528   4.009 -1.0735  0.2613 -2.3600
11758SOL    HW247748   4.437   5.384   4.055  0.7832  1.8583  0.3450
11759SOL     OW47749   3.248   2.304   1.584  0.2576 -0.1912  0.2546
11759SOL    HW147750   3.243   2.370   1.509  1.6658 -0.0171  0.3021
11759SOL    HW247751   3.192   2.335   1.660  1.1190  1.0908  0.3782
11760SOL     OW47752   8.227   7.126   7.816  0.3334  0.5447 -0.6662
11760SOL    HW147753   8.305   7.152   7.760 -0.2876  1.5873 -1.0651
11760SOL    HW247754   8.234   7.169   7.905  1.0394 -0.6761 -0.1136
11761SOL     OW47755   0.251   1.518   0.715 -0.0163  0.0697  0.0905
11761SOL    HW147756   0.209   1.523   0.806 -0.1783 -0.6746  0.0560
11761SOL    HW247757   0.336   1.466   0.720 -0.9963 -1.6309 -0.5311
11762SOL     OW47758   2.347   4.916   3.511 -0.1022 -0.1762 -0.0413
11762SOL    HW147759   2.411   4.933   3.586 -0.2602 -0.4784  0.1652
11762SOL    HW247760   2.308   4.825   3.521 -0.2635 -0.1456 -0.3904
11763SOL     OW47761   3.886   8.553   5.042 -0.2469  0.2601  0.3827
11763SOL    HW147762   3.958   8.490   5.073  0.3301  0.2837 -0.8647
11763SOL    HW247763   3.858   8.611   5.118  1.6265  0.7961  0.6939
11764SOL     OW47764   0.005   8.401   6.024  0.3245 -0.5095  0.5871
11764SOL    HW147765   0.094   8.443   6.011  1.7213 -4.0435 -2.1711
11764SOL    HW247766   0.013   8.324   6.088 -0.6449 -1.0797  0.0465
11765SOL     OW47767   2.391   2.738   1.266  0.5057  0.5689 -0.1831
11765SOL    HW147768   2.403   2.657   1.208  0.6949  0.7133 -0.3479
11765SOL    HW247769   2.365   2.816   1.210  1.3908  0.8787 -0.1809
11766SOL     OW47770   4.116   0.136   1.400 -0.0005 -0.2520  0.0699
11766SOL    HW147771   4.036   0.091   1.360  0.6722 -1.7479  0.3517
11766SOL    HW247772   4.179   0.066   1.434  1.3046  0.9148  0.0718
11767SOL     OW47773   6.624   3.606   6.962 -0.4032 -0.3453 -0.0307
11767SOL    HW147774   6.626   3.569   6.869 -2.3536  1.4374 -0.8119
11767SOL    HW247775   6.633   3.705   6.959 -1.0613 -0.2162  1.6470
11768SOL     OW47776   3.038   6.042   2.449 -0.4233 -0.3195 -0.5139
11768SOL    HW147777   2.941   6.036   2.468 -0.8208  1.7421 -1.6468
11768SOL    HW247778   3.054   6.033   2.351  0.7188 -2.4176 -0.1597
11769SOL     OW47779   4.762   5.802   7.231  0.0368 -0.1269  0.1552
11769SOL    HW147780   4.785   5.740   7.306  0.6299  0.2626  0.3014
11769SOL    HW247781   4.728   5.888   7.268 -1.2749 -0.5426 -0.0557
11770SOL     OW47782   4.748   4.472   3.965  0.2928 -0.4269 -0.0131
11770SOL    HW147783   4.666   4.520   3.997  0.1923 -0.0952 -0.7625
11770SOL    HW247784   4.728   4.375   3.954  0.4530 -0.6290  1.3666
11771SOL     OW47785   2.394   1.104   7.753 -0.3635  0.3125 -0.8056
11771SOL    HW147786   2.306   1.061   7.731 -0.4609  0.7542 -1.3008
11771SOL    HW247787   2.401   1.118   7.852 -0.6122 -0.2373 -0.7124
11772SOL     OW47788   5.729   8.449   6.575 -0.0624 -0.6125  0.4111
11772SOL    HW147789   5.714   8.363   6.525 -0.5500 -0.4411  0.2634
11772SOL    HW247790   5.769   8.517   6.514  0.4888 -0.7814  0.5730
11773SOL     OW47791   7.976   6.119   1.949 -0.3419 -0.1096  0.0598
11773SOL    HW147792   7.992   6.043   1.886 -0.3914  1.5883 -2.0246
11773SOL    HW247793   8.060   6.141   1.998  0.0810 -0.4601 -0.5112
11774SOL     OW47794   2.938   5.075   5.654  0.0051 -0.2729 -0.4348
11774SOL    HW147795   2.893   5.024   5.728  0.5767 -1.1690 -0.7015
11774SOL    HW247796   2.950   5.170   5.682 -0.3320 -0.4668  0.3843
11775SOL     OW47797   1.745   1.214   7.167 -0.0929 -0.3549 -0.2137
11775SOL    HW147798   1.671   1.214   7.100 -1.1280  4.3212  0.7060
11775SOL    HW247799   1.827   1.254   7.127 -0.0283  0.3792  0.6317
11776SOL     OW47800   1.371   6.979   1.994 -0.2517  0.0575 -0.3410
11776SOL    HW147801   1.353   6.958   1.897 -1.0505  2.4853 -0.7600
11776SOL    HW247802   1.462   7.019   2.002  0.4445 -1.5832  0.1609
11777SOL     OW47803   7.142   2.352   6.269 -0.0585 -0.0299  0.1930
11777SOL    HW147804   7.082   2.432   6.271 -2.0601 -1.4941  0.6760
11777SOL    HW247805   7.213   2.365   6.201 -0.6068  1.9833 -0.0273
11778SOL     OW47806   4.730   0.887   1.536  0.0822 -0.2039  0.1447
11778SOL    HW147807   4.687   0.865   1.623  1.8088 -1.9946  0.5911
11778SOL    HW247808   4.806   0.950   1.550  0.8075 -1.0447  0.0409
11779SOL     OW47809   2.056   2.721   4.589  0.2355 -0.0260 -0.3896
11779SOL    HW147810   2.030   2.809   4.629 -1.4842 -0.7463  0.1270
11779SOL    HW247811   2.154   2.707   4.602  0.4475  1.5858 -0.0519
11780SOL     OW47812   8.432   8.829   1.614  0.1988  0.3532 -0.3229
11780SOL    HW147813   8.410   8.744   1.662  1.5903 -0.3891 -0.9721
11780SOL    HW247814   8.510   8.873   1.659 -1.0721  1.7367  0.5362
11781SOL     OW47815   5.564   1.307   0.397  0.1564  0.2082 -0.1054
11781SOL    HW147816   5.484   1.346   0.351  0.1775  1.9404  1.2562
11781SOL    HW247817   5.592   1.223   0.351 -0.3220  1.4296 -2.7091
11782SOL     OW47818   3.010   7.951   2.358  0.0311 -0.5166 -0.4574
11782SOL    HW147819   3.076   8.002   2.303  0.0029  0.3509  0.3037
11782SOL    HW247820   2.933   7.924   2.301 -0.4246  1.1460 -0.6667
11783SOL     OW47821   2.655   0.534   5.438 -0.5447  0.8748 -0.0260
11783SOL    HW147822   2.650   0.454   5.498  3.9434 -0.1527 -0.8281
11783SOL    HW247823   2.607   0.514   5.352  0.4460 -0.9784 -0.1757
11784SOL     OW47824   5.217   7.666   6.357  0.1095 -0.1277 -0.0078
11784SOL    HW147825   5.163   7.743   6.392  1.3147  0.1959  1.1931
11784SOL    HW247826   5.166   7.620   6.285 -0.7432  1.6345 -0.5627
11785SOL     OW47827   1.156   8.659   0.146 -0.3875 -0.2486  0.0514
11785SOL    HW147828   1.235   8.664   0.207  1.0203  2.0598 -1.8752
11785SOL    HW247829   1.106   8.745   0.149 -2.1193 -1.2399  0.2637
11786SOL     OW47830   3.625   4.676   0.958  0.3015  0.2321  0.7968
11786SOL    HW147831   3.688   4.658   1.034  0.3310  1.0422  0.9648
11786SOL    HW247832   3.677   4.696   0.875  0.2784 -1.4631  0.3491
11787SOL     OW47833   3.356   2.081   5.350  0.4151 -0.0328 -0.1715
11787SOL    HW147834   3.361   2.093   5.251 -2.1708 -1.2670 -0.4861
11787SOL    HW247835   3.261   2.078   5.379  1.1094 -1.8223  2.0893
11788SOL     OW47836   1.686   5.098   8.089  0.8257 -0.0194 -0.2682
11788SOL    HW147837   1.636   5.110   8.175  2.5649  1.1480  0.6064
11788SOL    HW247838   1.696   5.186   8.043  1.9196 -0.2569 -0.5101
11789SOL     OW47839   4.069   5.976   3.452 -0.3159  0.3153 -0.9052
11789SOL    HW147840   4.037   5.956   3.359 -0.0861 -0.8377 -0.7439
11789SOL    HW247841   4.166   5.998   3.450 -0.1898 -0.2238 -0.8801
11790SOL     OW47842   0.782   1.671   0.963 -0.2376  0.3506  0.0002
11790SOL    HW147843   0.721   1.645   1.039  0.9427  0.7641  1.1127
11790SOL    HW247844   0.877   1.654   0.990  0.1641  0.0038 -1.6017
11791SOL     OW47845   2.690   3.601   5.688 -0.0172  0.4931 -0.1321
11791SOL    HW147846   2.612   3.609   5.750  0.0928 -0.6382  0.1628
11791SOL    HW247847   2.660   3.558   5.603  0.6978 -1.9114  0.7940
11792SOL     OW47848   4.219   6.645   1.557 -0.8026 -0.4551  0.2970
11792SOL    HW147849   4.220   6.554   1.516  0.0237 -1.4336  2.4167
11792SOL    HW247850   4.128   6.663   1.595 -1.3888  0.2113 -1.3577
11793SOL     OW47851   3.580   1.814   3.380  0.0761  0.0238  0.2165
11793SOL    HW147852   3.641   1.888   3.409 -2.4119  1.4270  2.0999
11793SOL    HW247853   3.517   1.849   3.310  1.6507 -1.5358 -2.0501
11794SOL     OW47854   7.814   4.240   8.621 -0.1091  0.0729 -0.0844
11794SOL    HW147855   7.770   4.323   8.656  0.4804  0.8158 -1.0659
11794SOL    HW247856   7.849   4.186   8.698 -1.8830 -0.0670  0.6484
11795SOL     OW47857   3.373   4.043   8.159  0.4095 -0.2997  0.2886
11795SOL    HW147858   3.358   3.944   8.166 -1.5354 -0.1066 -0.6362
11795SOL    HW247859   3.391   4.067   8.064 -1.0879  0.4524  0.1809
11796SOL     OW47860   6.883   4.657   0.439  0.3908  0.1806  0.7129
11796SOL    HW147861   6.888   4.583   0.506 -0.1810 -0.5469 -0.0424
11796SOL    HW247862   6.811   4.721   0.465 -1.9731 -1.7331 -0.7950
11797SOL     OW47863   7.900   2.891   5.255 -0.1426 -0.2026  0.8916
11797SOL    HW147864   7.926   2.984   5.226  0.9224 -0.9472 -0.6228
11797SOL    HW247865   7.825   2.858   5.198 -1.1130  0.0571  2.0143
11798SOL     OW47866   3.733   4.141   0.108  0.0093  0.1100  0.7637
11798SOL    HW147867   3.708   4.213   0.172 -0.5918 -1.6035  2.5212
11798SOL    HW247868   3.833   4.134   0.103  0.0695  1.2980  0.3004
11799SOL     OW47869   4.003   0.245   1.632  0.5252  0.3831  0.4687
11799SOL    HW147870   4.088   0.292   1.652  0.7696 -0.4556  1.4182
11799SOL    HW247871   4.002   0.217   1.536  1.3841  0.2329  0.5074
11800SOL     OW47872   7.341   5.772   3.571 -0.1699  0.0544 -0.4551
11800SOL    HW147873   7.311   5.684   3.535 -0.4544  0.4952 -1.3110
11800SOL    HW247874   7.439   5.783   3.557 -0.0856 -0.2449 -0.0959
11801SOL     OW47875   7.379   5.162   4.432 -0.1711 -0.3630  0.2473
11801SOL    HW147876   7.330   5.235   4.480 -1.5285 -0.0066 -1.6135
11801SOL    HW247877   7.442   5.202   4.365  2.5328 -0.8283  2.4237
11802SOL     OW47878   1.397   8.043   4.208  1.1342 -0.1946  0.1417
11802SOL    HW147879   1.447   7.998   4.283  0.6915  0.7314  1.0076
11802SOL    HW247880   1.328   8.104   4.247 -0.5562 -1.3220 -1.0309
11803SOL     OW47881   5.162   2.361   6.730  0.4711  0.5403 -0.3941
11803SOL    HW147882   5.074   2.400   6.702  0.2562 -0.4526 -1.1195
11803SOL    HW247883   5.178   2.380   6.827  1.1691  3.9205 -1.1249
11804SOL     OW47884   2.786   1.393   1.033  0.6472  0.0159  0.5841
11804SOL    HW147885   2.866   1.442   0.998  0.4683 -0.2684 -0.2099
11804SOL    HW247886   2.815   1.304   1.069  0.3550 -1.0869 -1.8499
11805SOL     OW47887   3.459   3.728   6.981  0.0208  0.5342  0.0381
11805SOL    HW147888   3.399   3.793   7.029  0.5041  0.8529  0.2099
11805SOL    HW247889   3.476   3.759   6.888  2.5414  2.1270  0.9946
11806SOL     OW47890   4.437   1.402   1.398  0.8620 -0.1997  0.0151
11806SOL    HW147891   4.416   1.394   1.300  0.7261 -0.2284  0.0468
11806SOL    HW247892   4.416   1.316   1.444 -0.8841  0.4035  0.4041
11807SOL     OW47893   8.122   0.018   8.247 -0.0778 -0.4282  0.0914
11807SOL    HW147894   8.096   0.111   8.271  0.8251  0.2546 -1.4933
11807SOL    HW247895   8.082  -0.007   8.159 -1.3796 -2.0149  1.1070
11808SOL     OW47896   2.045   3.478   5.377 -0.2385  0.2524 -0.2068
11808SOL    HW147897   2.090   3.504   5.291  2.0631  1.4431  1.2936
11808SOL    HW247898   2.047   3.556   5.440 -0.5346 -1.0601  1.4585
11809SOL     OW47899   5.963   7.277   2.876  0.4620  0.2775  0.0272
11809SOL    HW147900   5.911   7.249   2.956  1.0486 -0.5585  0.1256
11809SOL    HW247901   5.913   7.347   2.826  0.0543  0.7323  1.0765
11810SOL     OW47902   3.463   8.900   5.026  0.8374 -0.0010 -0.2991
11810SOL    HW147903   3.374   8.930   5.060  0.7676  0.7982 -1.1544
11810SOL    HW247904   3.492   8.817   5.074 -2.3490 -2.7996 -2.9117
11811SOL     OW47905   8.001   4.297   1.225 -0.3599 -0.1455 -0.2838
11811SOL    HW147906   8.080   4.282   1.285  0.9309 -0.1409 -1.9506
11811SOL    HW247907   7.974   4.393   1.229 -1.4501 -0.4895  1.6561
11812SOL     OW47908   8.969   4.699   5.239 -0.2802  0.5251  0.4049
11812SOL    HW147909   8.903   4.773   5.224 -1.8800 -1.1162 -0.8450
11812SOL    HW247910   8.991   4.656   5.151 -0.0985 -1.1184  1.2440
11813SOL     OW47911   8.170   5.070   7.145  0.8853  0.0033 -0.0983
11813SOL    HW147912   8.194   5.037   7.053  3.6526  1.4045  0.0869
11813SOL    HW247913   8.184   4.997   7.211  0.3804 -0.5330 -0.5754
11814SOL     OW47914   3.559   7.576   7.192  0.3505  0.1547  0.0203
11814SOL    HW147915   3.598   7.532   7.112 -1.0286 -0.8516 -0.1210
11814SOL    HW247916   3.518   7.663   7.166  1.1497  0.4892 -0.1090
11815SOL     OW47917   7.938   5.420   1.429 -0.0439  0.7808 -0.0218
11815SOL    HW147918   8.035   5.433   1.450 -0.1842 -0.5017  1.6125
11815SOL    HW247919   7.928   5.344   1.364  0.0636  1.0195 -0.3159
11816SOL     OW47920   5.097   4.660   1.613  0.3455  0.4515 -0.2229
11816SOL    HW147921   5.056   4.609   1.688 -0.9883  0.5356 -0.8816
11816SOL    HW247922   5.062   4.754   1.613 -0.4798  0.1687 -1.5630
11817SOL     OW47923   7.281   3.802   8.486 -0.3213  0.0555  0.8433
11817SOL    HW147924   7.183   3.824   8.480 -0.5892 -1.2300  0.4536
11817SOL    HW247925   7.294   3.704   8.473  1.1491  0.4119 -0.5504
11818SOL     OW47926   0.032   8.167   6.959 -0.6187  0.8563 -0.3743
11818SOL    HW147927   0.045   8.095   7.027 -0.7072  1.6629  0.5023
11818SOL    HW247928  -0.062   8.199   6.962 -0.7329  0.6025 -1.1717
11819SOL     OW47929   1.288   1.561   8.783  0.0928  1.0593 -0.0049
11819SOL    HW147930   1.291   1.649   8.734  1.8191  1.2512  0.4238
11819SOL    HW247931   1.258   1.577   8.877  1.5698  1.3457  0.4152
11820SOL     OW47932   4.623   1.547   7.373  0.0236  0.8317  0.7530
11820SOL    HW147933   4.707   1.528   7.322 -0.4737  0.4593  0.0538
11820SOL    HW247934   4.562   1.604   7.317 -1.3010 -1.1018  0.1489
11821SOL     OW47935   4.508   4.402   3.677  0.1523  0.4604 -0.0573
11821SOL    HW147936   4.504   4.438   3.770 -0.7808 -0.1107  0.1291
11821SOL    HW247937   4.517   4.302   3.680 -3.6089  0.0394 -0.5530
11822SOL     OW47938   2.035   7.464   5.995  0.1849  0.7371  0.0349
11822SOL    HW147939   2.072   7.427   5.909 -0.4004  0.8269 -0.2553
11822SOL    HW247940   2.098   7.442   6.070  0.6310  0.5387 -0.3945
11823SOL     OW47941   8.409   3.399   6.362  0.1337 -0.2142 -0.3275
11823SOL    HW147942   8.415   3.380   6.264 -0.2025  0.3761 -0.4657
11823SOL    HW247943   8.464   3.480   6.383 -0.5035  0.1792 -0.1767
11824SOL     OW47944   8.165   1.620   2.502  0.5573  0.5563  0.4821
11824SOL    HW147945   8.195   1.525   2.510 -0.3836 -0.0460 -2.5316
11824SOL    HW247946   8.173   1.665   2.591  0.6564 -2.4282  2.0472
11825SOL     OW47947   2.980   2.210   2.882 -0.1854  0.2593  0.7040
11825SOL    HW147948   3.006   2.188   2.976  0.4496 -0.1050  0.4480
11825SOL    HW247949   2.958   2.126   2.833  1.1564  0.2877  0.0442
11826SOL     OW47950   1.620   2.787   5.971  0.2287  0.2912  0.2639
11826SOL    HW147951   1.576   2.700   5.993  0.2604  0.1579 -0.1878
11826SOL    HW247952   1.687   2.809   6.041 -0.0142  0.1101  0.5510
11827SOL     OW47953   6.400   1.598   0.566  0.3250 -0.3149  0.2904
11827SOL    HW147954   6.337   1.581   0.491  0.6425 -1.6305  0.3134
11827SOL    HW247955   6.482   1.644   0.532  1.0813 -2.1537 -0.4215
11828SOL     OW47956   7.278   7.760   2.393  0.4040  0.4495  0.5231
11828SOL    HW147957   7.294   7.764   2.294  0.4453 -1.2813  0.4400
11828SOL    HW247958   7.219   7.682   2.414 -0.4755  1.4277  1.7688
11829SOL     OW47959   0.704   0.596   0.457 -0.6929 -0.3278  0.6494
11829SOL    HW147960   0.793   0.641   0.449 -0.4175 -0.5985  2.0187
11829SOL    HW247961   0.657   0.599   0.369  0.1695  0.8589  0.2184
11830SOL     OW47962   7.598   7.598   1.557 -0.4502  0.1675 -0.2743
11830SOL    HW147963   7.617   7.693   1.531  2.1440 -0.0259  0.7394
11830SOL    HW247964   7.657   7.537   1.505 -0.0748 -0.6745  1.1170
11831SOL     OW47965   4.529   4.521   4.897 -0.1501  0.0970  0.5253
11831SOL    HW147966   4.605   4.532   4.960  0.6900  0.1511 -0.4837
11831SOL    HW247967   4.524   4.426   4.866 -0.2013  0.1958  0.2249
11832SOL     OW47968   6.644   5.202   7.770 -0.1034 -0.0290  0.5632
11832SOL    HW147969   6.573   5.245   7.715  1.0012  0.6216 -0.3867
11832SOL    HW247970   6.654   5.251   7.857 -1.3940 -0.6498  1.0708
11833SOL     OW47971   4.239   4.980   4.472  0.4353 -0.3380 -1.0833
11833SOL    HW147972   4.306   4.925   4.521 -0.6195  0.1232  0.9659
11833SOL    HW247973   4.147   4.955   4.503 -0.0801  2.2806 -0.3758
11834SOL     OW47974   7.400   6.240   7.397  0.0207  0.5628  0.1557
11834SOL    HW147975   7.429   6.311   7.461  1.1798  1.8930 -1.7991
11834SOL    HW247976   7.344   6.281   7.325 -0.2578 -0.7111 -0.3677
11835SOL     OW47977   8.517   1.289   6.860  0.1517 -0.7612  0.1979
11835SOL    HW147978   8.424   1.255   6.868 -0.2810  0.5470  0.6834
11835SOL    HW247979   8.534   1.317   6.765 -0.8548  1.6107  0.6977
11836SOL     OW47980   3.494   6.519   2.023  0.4777  0.0510  0.1278
11836SOL    HW147981   3.434   6.588   2.063 -0.5666 -0.1670 -1.0104
11836SOL    HW247982   3.573   6.564   1.982 -0.3098  0.6125 -0.8103
11837SOL     OW47983   6.410   8.987   8.009  0.2674 -0.3226  0.6476
11837SOL    HW147984   6.472   9.055   7.971  1.1998 -0.4900  1.8323
11837SOL    HW247985   6.462   8.907   8.039 -0.9876 -2.3374 -2.3528
11838SOL     OW47986   1.794   5.228   7.758 -0.4312 -0.6533 -0.1298
11838SOL    HW147987   1.831   5.200   7.670  0.4215 -0.3587  0.1213
11838SOL    HW247988   1.782   5.149   7.817  2.7915 -0.4453  0.8871
11839SOL     OW47989   1.172   0.507   5.178 -0.1880 -0.3956  0.2491
11839SOL    HW147990   1.121   0.534   5.096  0.9923  1.4266  0.1038
11839SOL    HW247991   1.259   0.465   5.150  0.5280  0.8680  0.5767
11840SOL     OW47992   7.894   6.328   8.447  0.9704  0.0581 -0.5392
11840SOL    HW147993   7.815   6.281   8.406  0.7337 -2.0744  2.1912
11840SOL    HW247994   7.968   6.333   8.380 -0.4979 -0.4395 -2.2420
11841SOL     OW47995   7.799   4.961   0.341  0.5259  0.3603 -0.5148
11841SOL    HW147996   7.812   5.032   0.410  2.7612 -1.0702  0.5740
11841SOL    HW247997   7.886   4.916   0.322 -0.2987 -0.1889 -3.2942
11842SOL     OW47998   2.027   8.038   5.954 -0.0828  0.2895 -0.0205
11842SOL    HW147999   1.935   8.073   5.937  0.3588  1.0219 -0.9633
11842SOL    HW248000   2.023   7.940   5.971 -1.2873  0.6879  2.1400
11843SOL     OW48001   4.014   7.764   1.043  0.4720  0.1173 -0.1539
11843SOL    HW148002   4.101   7.810   1.027  0.4701 -0.2865 -1.3812
11843SOL    HW248003   3.998   7.698   0.969 -1.7578  1.5093 -0.9334
11844SOL     OW48004   7.341   8.210   2.441 -0.3225  0.0827 -0.5055
11844SOL    HW148005   7.292   8.123   2.448 -1.0953  0.4835 -0.8699
11844SOL    HW248006   7.323   8.265   2.522 -1.5505  0.7646 -1.2140
11845SOL     OW48007   5.511   3.660   8.473 -0.1431 -0.0725 -0.2180
11845SOL    HW148008   5.519   3.572   8.427 -0.1211  0.6943 -1.7125
11845SOL    HW248009   5.447   3.652   8.550 -1.7928 -0.8727 -1.6417
11846SOL     OW48010   4.097   6.138   2.643  0.0626 -0.5215 -0.1368
11846SOL    HW148011   4.112   6.184   2.555 -0.7634  2.4624  1.2110
11846SOL    HW248012   4.175   6.154   2.703 -0.2209 -0.9195  0.3412
11847SOL     OW48013   5.460   5.927   2.577  0.5197 -0.1248 -0.7272
11847SOL    HW148014   5.400   5.900   2.502 -2.7189  0.8140  1.4138
11847SOL    HW248015   5.514   6.006   2.548  0.0143 -0.3434 -2.3689
11848SOL     OW48016   2.257   2.424   0.580 -0.4968  0.0727  0.4855
11848SOL    HW148017   2.307   2.349   0.624 -1.5883 -0.8135  0.2605
11848SOL    HW248018   2.175   2.387   0.535  0.4444  0.9654 -2.0739
11849SOL     OW48019   1.811   3.095   5.835  0.3465 -0.3306 -0.1870
11849SOL    HW148020   1.827   3.034   5.757  4.1982  1.5761 -0.9843
11849SOL    HW248021   1.784   3.185   5.802 -1.1972 -0.4161  0.8307
11850SOL     OW48022   3.424   1.272   5.055 -0.2452 -0.3084 -0.6224
11850SOL    HW148023   3.429   1.341   5.127 -1.6686 -1.1863  0.3549
11850SOL    HW248024   3.516   1.244   5.029  0.3039  0.8111  0.0926
11851SOL     OW48025   1.210   2.081   6.865  0.3145 -0.1921 -0.7073
11851SOL    HW148026   1.175   2.053   6.954  1.7245  0.8466  0.2005
11851SOL    HW248027   1.202   2.005   6.801  0.4173 -1.3642  0.6437
11852SOL     OW48028   3.551   4.630   4.463  0.8392  0.7883 -0.0806
11852SOL    HW148029   3.622   4.574   4.507  0.4751  0.8712  0.6323
11852SOL    HW248030   3.494   4.673   4.534  0.7951  1.6480 -0.6306
11853SOL     OW48031   3.575   7.524   8.247  0.0624 -0.2364 -0.3108
11853SOL    HW148032   3.595   7.622   8.252 -1.9054  0.1715  0.0677
11853SOL    HW248033   3.646   7.472   8.295  0.9488  1.0260 -0.2498
11854SOL     OW48034   3.084   3.298   6.283  0.9890 -0.0579  0.1851
11854SOL    HW148035   3.149   3.228   6.310  1.7417  0.2897 -0.6984
11854SOL    HW248036   3.114   3.340   6.197 -1.1550 -0.9138 -1.0259
11855SOL     OW48037   3.414   5.403   8.085  0.1025 -0.2375  0.2481
11855SOL    HW148038   3.512   5.411   8.068  0.1391 -0.6312  0.2613
11855SOL    HW248039   3.365   5.476   8.037  0.3409 -0.4592 -0.3381
11856SOL     OW48040   6.833   6.384   5.014 -0.1473 -0.5389 -0.9475
11856SOL    HW148041   6.913   6.392   4.954  1.9338 -0.8449  1.7114
11856SOL    HW248042   6.787   6.472   5.020 -0.3815 -0.4921 -2.9287
11857SOL     OW48043   3.014   5.834   4.159  0.0514 -0.0104  0.2090
11857SOL    HW148044   3.051   5.927   4.161 -0.1437  0.1034 -1.1117
11857SOL    HW248045   3.038   5.787   4.244 -0.1846  1.3725  1.0593
11858SOL     OW48046   3.925   1.325   3.376  0.1854 -0.3998 -0.2416
11858SOL    HW148047   4.019   1.324   3.342 -0.0582  1.2698 -1.0612
11858SOL    HW248048   3.919   1.387   3.454  0.1895 -2.1559  1.1741
11859SOL     OW48049   5.144   4.830   1.880  0.3130  0.3096 -0.0681
11859SOL    HW148050   5.119   4.923   1.906  0.5956 -0.1313  1.8846
11859SOL    HW248051   5.235   4.829   1.838  0.1713  0.9501 -0.3846
11860SOL     OW48052   4.108   4.671   3.740  0.1197  0.4047  0.0994
11860SOL    HW148053   4.152   4.591   3.701 -0.6210 -1.0768  2.2499
11860SOL    HW248054   4.171   4.718   3.801 -0.3671 -0.1306  1.0138
11861SOL     OW48055   3.703   6.041   3.453 -0.0847 -0.0966  0.2175
11861SOL    HW148056   3.603   6.032   3.455  0.0291 -1.2359  3.4093
11861SOL    HW248057   3.745   5.951   3.464  1.3830  0.1733 -2.5429
11862SOL     OW48058   2.742   2.210   1.555 -0.0289 -0.4838 -0.5135
11862SOL    HW148059   2.730   2.171   1.464  0.0442  0.5007 -0.9484
11862SOL    HW248060   2.812   2.158   1.605  2.9475  1.5030 -2.4941
11863SOL     OW48061   1.676   4.641   3.251  0.1665 -0.4496 -0.6619
11863SOL    HW148062   1.647   4.646   3.346 -0.1590 -0.7529 -0.7439
11863SOL    HW248063   1.618   4.576   3.202  0.7846 -0.8211 -0.9061
11864SOL     OW48064   7.201   3.508   7.637 -0.5135  0.7118 -0.4623
11864SOL    HW148065   7.141   3.588   7.635 -0.8589  0.4679  0.0891
11864SOL    HW248066   7.147   3.425   7.648 -0.0200  0.5812  1.2304
11865SOL     OW48067   6.374   3.935   2.476  0.3049  0.0353 -0.3004
11865SOL    HW148068   6.468   3.917   2.504  0.6633  0.8165 -0.9914
11865SOL    HW248069   6.313   3.919   2.553  0.8754 -1.5855 -0.1632
11866SOL     OW48070   7.103   6.738   0.498 -0.1308 -0.2092 -0.3867
11866SOL    HW148071   7.024   6.773   0.547  0.9176  0.1227  1.0991
11866SOL    HW248072   7.178   6.804   0.503  1.1874 -1.7428  0.7178
11867SOL     OW48073   2.749   1.490   0.069  0.2343  0.0420 -1.4469
11867SOL    HW148074   2.678   1.420   0.074 -0.3075  0.6882 -0.0353
11867SOL    HW248075   2.832   1.450   0.029  1.1399 -2.4753  2.5953
11868SOL     OW48076   4.073   1.737   4.384 -0.1871 -0.5816  0.4689
11868SOL    HW148077   4.138   1.671   4.346 -0.3042  0.3440 -1.4225
11868SOL    HW248078   4.111   1.777   4.467  1.2199 -0.8067 -0.0485
11869SOL     OW48079   6.017   5.863   7.415  0.3856 -0.0402 -0.2041
11869SOL    HW148080   6.006   5.961   7.432 -1.1210 -0.2971  0.3854
11869SOL    HW248081   5.935   5.814   7.447  1.7731 -1.6627  0.9782
11870SOL     OW48082   4.313   0.757   1.197 -0.0609 -0.2236 -0.3618
11870SOL    HW148083   4.367   0.696   1.139  0.5144 -0.6961  0.6543
11870SOL    HW248084   4.349   0.850   1.190  1.4569 -0.6903  0.9760
11871SOL     OW48085   4.191   4.979   7.312 -0.1870  0.1725 -0.1639
11871SOL    HW148086   4.103   4.934   7.329 -0.7070  1.5491  0.8679
11871SOL    HW248087   4.175   5.067   7.267  0.6845  0.3046 -0.2147
11872SOL     OW48088   0.573   7.388   7.324 -1.1113 -0.6470  0.5527
11872SOL    HW148089   0.565   7.371   7.225  0.1719 -2.1883  0.6949
11872SOL    HW248090   0.578   7.301   7.372 -2.1976  0.0946  2.0379
11873SOL     OW48091   0.901   0.198   7.160  0.0879  0.7037  0.2712
11873SOL    HW148092   0.876   0.102   7.147 -1.0541  0.7504  1.8725
11873SOL    HW248093   0.903   0.245   7.072 -2.2514 -0.1058 -0.2541
11874SOL     OW48094   8.778   1.753   4.854 -0.1367  0.1403  0.2418
11874SOL    HW148095   8.743   1.772   4.945  1.2066  2.2324  0.3590
11874SOL    HW248096   8.818   1.836   4.815 -3.5298  0.1316 -3.5733
11875SOL     OW48097   2.828   1.122   1.191  0.0833  0.7256  0.2360
11875SOL    HW148098   2.800   1.142   1.285  1.0507  1.4117  0.3905
11875SOL    HW248099   2.925   1.096   1.190  0.0160  0.4872 -0.5479
11876SOL     OW48100   6.749   3.489   8.382 -0.3621  0.4584  0.2234
11876SOL    HW148101   6.761   3.530   8.472  0.8850  1.0371 -0.1986
11876SOL    HW248102   6.837   3.457   8.348 -0.9862 -0.6777 -0.3660
11877SOL     OW48103   5.606   7.088   3.866 -0.1305 -0.8232  0.3244
11877SOL    HW148104   5.634   7.127   3.778  1.3375  0.1153  1.1930
11877SOL    HW248105   5.520   7.130   3.895 -0.9657 -1.6082 -0.9616
11878SOL     OW48106   1.830   5.199   0.206 -0.1717  0.2956 -0.0475
11878SOL    HW148107   1.828   5.101   0.225  0.7287  0.0233 -1.3646
11878SOL    HW248108   1.811   5.249   0.291  1.3928 -0.9589  1.0581
11879SOL     OW48109   6.500   4.945   2.889  0.3319 -0.0768 -0.2409
11879SOL    HW148110   6.538   5.031   2.854  0.9864 -0.1327  0.3205
11879SOL    HW248111   6.415   4.963   2.938  0.7722  0.3210  0.3801
11880SOL     OW48112   3.516   6.344   8.551 -0.3976 -0.4372  0.0908
11880SOL    HW148113   3.416   6.332   8.551 -0.3361 -1.0283 -1.7725
11880SOL    HW248114   3.552   6.324   8.460  1.5128 -0.8813  0.9251
11881SOL     OW48115   5.350   2.267   6.540  0.3402  0.2846  0.0536
11881SOL    HW148116   5.322   2.177   6.507  0.1253  0.0369  0.9120
11881SOL    HW248117   5.280   2.305   6.600  0.2170  1.2301 -0.6618
11882SOL     OW48118   0.265   0.009   0.801 -0.5715 -0.1091 -0.0298
11882SOL    HW148119   0.297  -0.084   0.787  1.7951  0.3033  2.2475
11882SOL    HW248120   0.272   0.061   0.716 -0.2086 -1.4935 -0.8521
11883SOL     OW48121   7.281   6.896   5.992 -0.2117 -0.6101  0.4121
11883SOL    HW148122   7.335   6.824   5.949  1.1653  1.0672 -0.7425
11883SOL    HW248123   7.334   6.939   6.065  0.0263  1.0234 -0.7004
11884SOL     OW48124   4.742   2.576   8.119  0.0942  0.4043  0.2733
11884SOL    HW148125   4.787   2.502   8.170 -0.2810  0.8022  1.1935
11884SOL    HW248126   4.686   2.537   8.046 -1.4172 -0.3157  1.7932
11885SOL     OW48127   2.824   7.425   3.082 -0.5044  0.3710 -0.6006
11885SOL    HW148128   2.810   7.520   3.055  0.1033  0.7547  0.4447
11885SOL    HW248129   2.758   7.401   3.154 -0.4564  0.0850 -0.6516
11886SOL     OW48130   0.026   3.142   3.501 -0.5465  0.2433  0.5465
11886SOL    HW148131  -0.030   3.103   3.427 -1.0110 -0.6831  1.3862
11886SOL    HW248132   0.072   3.069   3.550 -0.0840  0.8779  1.0630
11887SOL     OW48133   2.471   2.332   8.584  0.0776  0.0820  0.3481
11887SOL    HW148134   2.392   2.385   8.555 -0.1183 -0.2317  0.3061
11887SOL    HW248135   2.444   2.265   8.653  0.2198 -0.3341  0.0021
11888SOL     OW48136   2.738   6.853   6.151  0.2145  0.3114 -0.3667
11888SOL    HW148137   2.775   6.795   6.224  0.1397  1.0134  0.2328
11888SOL    HW248138   2.672   6.917   6.190  0.4516  0.9440 -0.9989
11889SOL     OW48139   0.006   3.290   5.501 -0.1548 -0.1974  0.1910
11889SOL    HW148140   0.070   3.330   5.566  2.1029 -0.1033 -2.0384
11889SOL    HW248141   0.027   3.193   5.488 -3.5824 -1.4743  3.1098
11890SOL     OW48142   2.843   8.633   6.671  0.1392 -0.3690 -0.1095
11890SOL    HW148143   2.752   8.592   6.670  0.0467 -0.2180  1.2208
11890SOL    HW248144   2.895   8.597   6.748  0.9668  0.0621 -0.4578
11891SOL     OW48145   5.467   1.049   6.607  0.3292  0.7334 -0.5988
11891SOL    HW148146   5.406   1.129   6.610 -1.1997 -0.4299  0.3662
11891SOL    HW248147   5.509   1.037   6.697 -0.3304 -0.1904 -0.4035
11892SOL     OW48148   0.764   5.663   7.038  0.3886  0.5957  0.2451
11892SOL    HW148149   0.721   5.584   7.081 -1.9744  1.6950 -0.0283
11892SOL    HW248150   0.863   5.649   7.034  0.0551 -2.1336  0.5955
11893SOL     OW48151   4.550   2.063   2.908  0.4039 -0.3393  0.2934
11893SOL    HW148152   4.607   2.133   2.864 -0.6660  0.4509  0.1570
11893SOL    HW248153   4.609   2.000   2.959  1.4322  0.2914 -0.0969
11894SOL     OW48154   2.339   2.243   4.154 -0.4907 -0.4378 -0.2488
11894SOL    HW148155   2.366   2.267   4.061 -1.1039  0.7366 -0.1312
11894SOL    HW248156   2.286   2.158   4.153 -0.4108 -0.4738 -0.9641
11895SOL     OW48157   3.911   4.854   2.444 -0.0686  0.4823 -0.2232
11895SOL    HW148158   3.915   4.902   2.532  0.2087 -0.1031  0.0889
11895SOL    HW248159   3.847   4.901   2.383  0.2939  1.3123  0.0341
11896SOL     OW48160   4.914   2.253   1.075 -0.8106 -0.8030 -0.0320
11896SOL    HW148161   4.906   2.221   1.169  1.2757  0.0932  0.4937
11896SOL    HW248162   4.859   2.336   1.063  0.0335 -0.1114  0.8068
11897SOL     OW48163   8.293   5.485   8.197 -0.1702 -1.1270  0.0933
11897SOL    HW148164   8.222   5.539   8.153  1.4986 -0.5955 -2.0220
11897SOL    HW248165   8.383   5.509   8.159  1.2393 -1.4035  3.0520
11898SOL     OW48166   7.707   7.737   2.040 -0.5240  0.1897 -0.6186
11898SOL    HW148167   7.701   7.796   2.120 -0.6110  1.7401 -1.7507
11898SOL    HW248168   7.616   7.726   2.000 -0.3489  0.1130 -0.9979
11899SOL     OW48169   7.669   2.981   7.535 -0.2021  0.5193  0.2304
11899SOL    HW148170   7.755   2.931   7.526  0.6948  1.8645  1.1286
11899SOL    HW248171   7.664   3.051   7.463 -0.6018  0.3811  0.1206
11900SOL     OW48172   7.217   6.537   4.103  0.8924  0.0734  0.2778
11900SOL    HW148173   7.161   6.480   4.162 -0.9764  0.3370 -1.1955
11900SOL    HW248174   7.200   6.634   4.124  0.2950  0.1659 -0.6171
11901SOL     OW48175   2.416   6.569   5.806  0.0265  0.3435  0.7880
11901SOL    HW148176   2.389   6.593   5.899 -3.3589 -1.5305  0.3501
11901SOL    HW248177   2.505   6.522   5.809  0.7744  1.7733  2.8375
11902SOL     OW48178   6.789   2.434   6.451  0.3571  0.1926  0.2939
11902SOL    HW148179   6.699   2.400   6.477  1.2175 -1.7975  0.7298
11902SOL    HW248180   6.853   2.422   6.527  1.7940 -1.4747 -1.1392
11903SOL     OW48181   2.930   3.759   8.105  0.0771  0.4039 -0.3708
11903SOL    HW148182   2.995   3.799   8.041 -0.0410 -0.0704 -0.7961
11903SOL    HW248183   2.970   3.756   8.197 -0.2428  2.2746 -0.1617
11904SOL     OW48184   4.702   7.023   8.087  0.2110 -0.3904 -0.4955
11904SOL    HW148185   4.799   7.014   8.112  0.3186 -0.6805 -1.0106
11904SOL    HW248186   4.694   7.079   8.005 -0.1815  0.9900  0.4597
11905SOL     OW48187   3.064   3.701   3.545 -0.5083  0.0240 -0.4062
11905SOL    HW148188   3.074   3.649   3.630 -2.5429  1.9116  1.0328
11905SOL    HW248189   2.991   3.661   3.490 -1.0049  0.3803 -0.0174
11906SOL     OW48190   0.755   1.514   0.451 -0.5016 -0.4381  0.2929
11906SOL    HW148191   0.808   1.553   0.527 -0.5721  0.9340 -0.3483
11906SOL    HW248192   0.747   1.415   0.464  2.8859 -0.8167 -0.0204
11907SOL     OW48193   5.552   4.498   2.306  0.0422  0.2342 -0.5540
11907SOL    HW148194   5.627   4.545   2.352 -0.5225 -0.3181  0.9537
11907SOL    HW248195   5.587   4.418   2.258  0.4983  0.2453 -0.2398
11908SOL     OW48196   2.133   6.268   5.247 -0.0618  0.3798  0.5545
11908SOL    HW148197   2.064   6.317   5.302 -0.0856 -1.3190  2.0686
11908SOL    HW248198   2.212   6.248   5.304  0.2112 -0.7953 -0.2343
11909SOL     OW48199   7.049   3.192   1.001  0.3060 -0.0109 -0.3753
11909SOL    HW148200   7.036   3.131   0.922  1.7688  0.4578 -1.0044
11909SOL    HW248201   7.127   3.161   1.055  1.0245  1.2298 -0.6615
11910SOL     OW48202   1.436   4.131   0.361 -0.3361  0.8926 -0.0958
11910SOL    HW148203   1.406   4.061   0.296  1.1640  1.0358 -0.9614
11910SOL    HW248204   1.374   4.132   0.440 -0.2653 -1.5863  0.0472
11911SOL     OW48205   3.030   1.906   8.273 -0.1307 -0.1843  0.1465
11911SOL    HW148206   3.061   1.874   8.184 -1.9969  0.7886 -0.8795
11911SOL    HW248207   3.071   1.995   8.293  0.9179 -0.7686  0.6365
11912SOL     OW48208   7.599   4.594   4.939 -0.5645 -0.1442 -0.1989
11912SOL    HW148209   7.546   4.570   4.859 -1.9801 -0.7312  0.8921
11912SOL    HW248210   7.542   4.646   5.003  0.0262 -1.1109  1.1634
11913SOL     OW48211   1.133   6.612   1.626  0.1889  0.6606 -0.7647
11913SOL    HW148212   1.065   6.679   1.594 -1.7472 -1.9735 -2.3202
11913SOL    HW248213   1.152   6.629   1.723 -1.4920  2.4662 -0.7155
11914SOL     OW48214   7.625   6.266   7.992 -0.6030  0.3964 -0.2523
11914SOL    HW148215   7.560   6.308   8.055  0.6182  1.3617  0.3925
11914SOL    HW248216   7.672   6.191   8.038 -0.2382  0.6273 -0.2450
11915SOL     OW48217   3.328   6.514   8.769 -0.3849  0.2615  0.0619
11915SOL    HW148218   3.245   6.525   8.714 -0.8679  2.2204  1.1247
11915SOL    HW248219   3.409   6.522   8.711 -0.8473  3.7828 -0.2193
11916SOL     OW48220   5.496   8.895   5.655  0.7192  0.0373  0.2767
11916SOL    HW148221   5.441   8.837   5.594  0.7841  0.5108 -0.2318
11916SOL    HW248222   5.438   8.929   5.729  0.7575 -0.9440  0.7632
11917SOL     OW48223   8.650   6.159   4.098 -0.1258  0.0054 -0.1688
11917SOL    HW148224   8.712   6.223   4.144  0.8419 -1.0550  0.0482
11917SOL    HW248225   8.601   6.206   4.025  3.0891  0.2446 -2.3001
11918SOL     OW48226   7.823   7.396   1.175  0.0124 -0.4809 -0.6617
11918SOL    HW148227   7.796   7.489   1.149  1.7239 -0.3324 -2.0332
11918SOL    HW248228   7.904   7.369   1.122 -0.2280 -2.6109  0.0105
11919SOL     OW48229   1.262   1.919   4.273 -0.3607 -0.5182 -0.3495
11919SOL    HW148230   1.326   1.903   4.348  0.5362  0.5702 -0.8593
11919SOL    HW248231   1.312   1.953   4.193 -1.4831 -0.3769 -1.0106
11920SOL     OW48232   1.318   1.628   0.704 -0.0026  0.0909  0.3341
11920SOL    HW148233   1.237   1.585   0.743 -1.8804  2.2740 -1.0138
11920SOL    HW248234   1.295   1.722   0.676  2.9089  0.6341 -0.3488
11921SOL     OW48235   3.846   1.068   4.345  0.2199  0.1854  0.3348
11921SOL    HW148236   3.890   1.091   4.259 -0.8163  0.2045 -0.1895
11921SOL    HW248237   3.847   1.148   4.406 -1.7075  1.0729 -0.7777
11922SOL     OW48238   2.865   2.097   1.840 -0.0290 -0.0368  0.1346
11922SOL    HW148239   2.800   2.041   1.891 -0.6407  0.4753 -0.0730
11922SOL    HW248240   2.888   2.051   1.754  0.4989 -0.5914  0.5706
11923SOL     OW48241   3.282   8.004   6.493  0.3999 -0.5467 -0.8907
11923SOL    HW148242   3.347   8.004   6.569 -0.5211  0.7629 -0.0925
11923SOL    HW248243   3.331   8.021   6.407  1.0968  0.6929 -0.2620
11924SOL     OW48244   4.045   2.442   8.606  1.0055 -0.3164 -0.7236
11924SOL    HW148245   3.972   2.376   8.586 -0.6360  1.8998 -2.2007
11924SOL    HW248246   4.065   2.440   8.704 -0.7835 -1.2222 -0.3444
11925SOL     OW48247   5.665   2.756   6.033  0.4669  1.1801  0.1660
11925SOL    HW148248   5.733   2.690   6.004 -0.2442  0.2564  0.5939
11925SOL    HW248249   5.660   2.760   6.133  0.7886  2.1729  0.1532
11926SOL     OW48250   6.740   8.956   6.298 -0.7438  0.0454 -0.6073
11926SOL    HW148251   6.717   8.978   6.393  1.3072  0.9274 -0.2992
11926SOL    HW248252   6.784   9.035   6.255 -1.5697 -0.3826 -2.2729
11927SOL     OW48253   1.670   1.980   5.060  0.3818  0.4540 -0.0982
11927SOL    HW148254   1.632   1.952   5.148  0.5725  0.6134  0.0346
11927SOL    HW248255   1.769   1.965   5.060  0.5049  1.2229  0.0137
11928SOL     OW48256   3.551   3.670   4.634 -0.2545  0.5251  0.3818
11928SOL    HW148257   3.567   3.674   4.535  3.9432  0.2050  0.9722
11928SOL    HW248258   3.576   3.579   4.668 -3.1675  0.1105  1.5509
11929SOL     OW48259   8.185   4.861   3.757  0.0409  0.2992 -0.0503
11929SOL    HW148260   8.260   4.798   3.777  0.4804  0.2578 -1.7632
11929SOL    HW248261   8.207   4.915   3.677 -1.0392  1.5095  0.4557
11930SOL     OW48262   7.310   8.769   2.807 -0.4305  0.5011  0.0687
11930SOL    HW148263   7.309   8.781   2.707 -1.2043  1.5174  0.1939
11930SOL    HW248264   7.372   8.835   2.847 -1.5877  1.3929  0.4178
11931SOL     OW48265   3.901   7.648   5.990  0.6022  0.0249  0.1541
11931SOL    HW148266   3.922   7.733   6.039  1.4297  0.4404 -0.9084
11931SOL    HW248267   3.977   7.625   5.929  0.8275 -2.0271  1.1777
11932SOL     OW48268   7.566   2.177   5.590 -0.1024  0.3729  0.6353
11932SOL    HW148269   7.629   2.227   5.648 -0.7464  1.3082  0.5345
11932SOL    HW248270   7.498   2.240   5.552  0.1506 -0.2561 -0.9200
11933SOL     OW48271   8.797   7.521   7.251  0.4572  0.6732  0.2775
11933SOL    HW148272   8.725   7.488   7.313  0.6960 -0.0212  0.1808
11933SOL    HW248273   8.757   7.538   7.161  0.2212  1.1791  0.4749
11934SOL     OW48274   7.027   8.966   7.000 -0.4528 -0.2986  0.2069
11934SOL    HW148275   7.104   9.028   6.983 -0.2861 -0.0245  1.8171
11934SOL    HW248276   7.000   8.973   7.096 -0.4343 -2.7034  0.4131
11935SOL     OW48277   2.064   8.361   1.980 -0.0647  0.2706 -0.2597
11935SOL    HW148278   1.981   8.404   1.944  0.7516  0.2208 -2.2904
11935SOL    HW248279   2.125   8.431   2.017 -0.6835  0.3818  0.5562
11936SOL     OW48280   3.651   1.262   0.287  0.0621 -0.2055  0.2045
11936SOL    HW148281   3.681   1.198   0.216  1.3811  1.5287 -0.8509
11936SOL    HW248282   3.700   1.242   0.372  0.5856 -0.4867 -0.1582
11937SOL     OW48283   3.184   2.702   2.759  0.3728 -0.0632  0.0661
11937SOL    HW148284   3.088   2.725   2.743  0.4745 -0.0285 -0.5074
11937SOL    HW248285   3.201   2.609   2.726  0.0590 -0.8400  1.9994
11938SOL     OW48286   0.552   3.541   8.633 -0.3739 -0.4153  0.9888
11938SOL    HW148287   0.608   3.470   8.589 -0.7914  0.3462 -0.8042
11938SOL    HW248288   0.472   3.498   8.676  0.1745 -1.1972  1.2375
11939SOL     OW48289   6.798   8.880   1.785  1.1152 -0.5100  0.3297
11939SOL    HW148290   6.890   8.844   1.768  1.7826  0.7995  1.1636
11939SOL    HW248291   6.777   8.952   1.719 -0.1542 -2.2355 -1.2175
11940SOL     OW48292   2.341   6.395   1.927 -0.2216  0.0095 -0.4540
11940SOL    HW148293   2.289   6.333   1.868  0.3303  0.7264 -1.7091
11940SOL    HW248294   2.284   6.422   2.005 -0.8546 -1.1651 -0.4924
11941SOL     OW48295   2.467   6.832   0.957  0.2442  0.6443 -0.0523
11941SOL    HW148296   2.542   6.778   0.921  0.0859 -1.0017  1.9971
11941SOL    HW248297   2.490   6.864   1.049 -1.0048  1.3093  0.0457
11942SOL     OW48298   2.891   2.233   5.726 -0.9602 -0.0635  0.3235
11942SOL    HW148299   2.956   2.165   5.759 -1.7402 -0.9301  0.1124
11942SOL    HW248300   2.822   2.250   5.796 -1.6042 -0.5952 -0.1612
11943SOL     OW48301   8.452   8.384   6.839 -0.7945  0.1925 -0.3954
11943SOL    HW148302   8.549   8.391   6.865 -0.9997 -0.1196  0.4738
11943SOL    HW248303   8.445   8.360   6.743 -0.0055  1.5803 -0.8221
11944SOL     OW48304   6.757   4.055   7.804  0.1455 -0.0805  0.2410
11944SOL    HW148305   6.756   4.023   7.899  0.9440  0.5154  0.4575
11944SOL    HW248306   6.819   3.997   7.750 -1.4536 -1.3521 -0.2622
11945SOL     OW48307   1.698   6.292   4.410  0.6084 -0.0333  0.4715
11945SOL    HW148308   1.750   6.316   4.491 -0.4188  1.6525  0.6649
11945SOL    HW248309   1.751   6.314   4.328  1.7374 -1.9519  0.6664
11946SOL     OW48310   7.657   2.848   3.337  0.3720  0.3632  0.6531
11946SOL    HW148311   7.634   2.921   3.401 -0.8550 -0.1392  0.8094
11946SOL    HW248312   7.608   2.862   3.251  0.6374  0.0795  0.4524
11947SOL     OW48313   5.921   0.686   3.185 -0.3381 -0.1327 -0.0190
11947SOL    HW148314   5.829   0.687   3.225 -0.4400  0.5742 -0.2546
11947SOL    HW248315   5.987   0.658   3.254 -0.8825 -1.8792 -0.1869
11948SOL     OW48316   5.247   8.995   7.237 -0.8295 -0.1580  0.0389
11948SOL    HW148317   5.251   8.908   7.286  0.0528 -0.6592 -0.9212
11948SOL    HW248318   5.197   8.984   7.152  0.1823  0.0159 -0.5919
11949SOL     OW48319   6.260   6.552   6.357  0.6790 -0.0032 -0.2583
11949SOL    HW148320   6.350   6.570   6.397  1.3503 -1.1611 -1.2095
11949SOL    HW248321   6.206   6.495   6.420  0.9791 -0.1261 -0.1128
11950SOL     OW48322   3.078   0.409   1.258  0.0405  0.6252 -0.2088
11950SOL    HW148323   3.050   0.500   1.226 -1.0684 -0.0092 -1.1095
11950SOL    HW248324   3.041   0.340   1.196  0.5544 -0.4602  0.6843
11951SOL     OW48325   0.039   4.277   5.387  0.3963 -0.1740 -0.6763
11951SOL    HW148326   0.075   4.365   5.357 -0.5136 -0.3143 -2.2430
11951SOL    HW248327  -0.018   4.290   5.469  1.8976  0.3935  0.2914
11952SOL     OW48328   1.559   5.554   1.173 -0.2965  0.3825  0.0014
11952SOL    HW148329   1.600   5.640   1.142  1.9358 -0.3039  0.9389
11952SOL    HW248330   1.506   5.570   1.257  1.2232  0.6318  0.9335
11953SOL     OW48331   8.818   8.650   8.146  0.1121  0.1478  0.0480
11953SOL    HW148332   8.779   8.582   8.208  0.4755  0.5451  0.7155
11953SOL    HW248333   8.917   8.651   8.154  0.0635  1.3125  0.6317
11954SOL     OW48334   3.369   0.770   3.802  0.1672 -0.1496  0.7244
11954SOL    HW148335   3.351   0.857   3.847  1.7226  0.3167  0.4695
11954SOL    HW248336   3.288   0.741   3.752 -0.7417  0.5775  1.7519
11955SOL     OW48337   1.904   3.775   5.830  0.2495  0.5089  0.1996
11955SOL    HW148338   1.949   3.825   5.904  1.7413 -1.1397  0.4399
11955SOL    HW248339   1.855   3.697   5.868  0.5131  0.0075 -0.4849
11956SOL     OW48340   0.106   2.168   8.861 -0.5346 -0.3185 -0.3794
11956SOL    HW148341   0.055   2.089   8.893  0.5820 -1.0244 -0.3234
11956SOL    HW248342   0.203   2.157   8.884 -0.6743  2.0348  1.5612
11957SOL     OW48343   3.559   5.277   2.654  0.3269 -0.1104 -0.3269
11957SOL    HW148344   3.496   5.350   2.630 -1.5335 -1.9960 -1.4164
11957SOL    HW248345   3.618   5.257   2.575 -1.1324 -1.6640 -1.0853
11958SOL     OW48346   5.323   8.018   1.730 -0.2469  0.0828  0.4378
11958SOL    HW148347   5.317   8.109   1.770 -0.2067 -0.1940  1.0837
11958SOL    HW248348   5.386   8.020   1.652 -1.1968  0.8676 -0.3140
11959SOL     OW48349   7.070   4.931   3.336  0.2202 -0.4107 -0.5776
11959SOL    HW148350   7.064   4.907   3.433  0.0277  0.9019 -0.2597
11959SOL    HW248351   6.986   4.905   3.289 -0.1414  0.0007 -0.1560
11960SOL     OW48352   7.785   7.657   7.575 -0.6589 -0.0701  0.0859
11960SOL    HW148353   7.698   7.662   7.624 -1.5625 -0.4431 -1.4733
11960SOL    HW248354   7.786   7.724   7.501 -0.0112 -0.7608 -0.5330
11961SOL     OW48355   3.285   4.196   6.232 -0.0126 -0.6108  0.3899
11961SOL    HW148356   3.246   4.106   6.251  0.5281 -0.7558  0.8455
11961SOL    HW248357   3.245   4.264   6.292  2.3516 -1.2242  2.7825
11962SOL     OW48358   5.455   4.276   4.771 -0.4337 -0.0146 -0.0468
11962SOL    HW148359   5.452   4.328   4.857  0.2680 -0.1424  0.0595
11962SOL    HW248360   5.498   4.187   4.787  1.4505  0.7170 -0.8986
11963SOL     OW48361   5.899   2.707   7.831 -0.6069  1.1327  0.5470
11963SOL    HW148362   5.879   2.719   7.928  1.2129  1.6101  0.8844
11963SOL    HW248363   5.928   2.613   7.814 -0.4903  1.1667  0.5535
11964SOL     OW48364   2.110   4.959   1.972  0.4077 -0.5535  0.5167
11964SOL    HW148365   2.184   4.922   2.029  0.6436  0.1481  0.6760
11964SOL    HW248366   2.150   5.000   1.890  0.2295  0.1818  0.7971
11965SOL     OW48367   1.106   0.863   4.898 -0.2214 -0.0971  0.4990
11965SOL    HW148368   1.037   0.790   4.897  0.2312 -0.5593 -3.3002
11965SOL    HW248369   1.063   0.950   4.875  0.2027 -0.1387 -0.4601
11966SOL     OW48370   1.437   2.195   6.700 -0.0164  0.1440  0.2864
11966SOL    HW148371   1.483   2.108   6.683  0.1613  0.1630  0.6501
11966SOL    HW248372   1.342   2.178   6.727 -0.4139  0.1338 -1.0960
11967SOL     OW48373   3.406   7.389   4.892  0.0785  0.2989 -0.5003
11967SOL    HW148374   3.432   7.299   4.926  0.3276  0.4128 -0.3947
11967SOL    HW248375   3.477   7.424   4.832  1.4573  1.7814  1.8980
11968SOL     OW48376   1.614   1.674   1.107  0.1984 -0.3062 -0.0414
11968SOL    HW148377   1.539   1.715   1.056  1.8532  0.8616 -1.5668
11968SOL    HW248378   1.577   1.628   1.188 -2.1511  0.2292 -0.7654
11969SOL     OW48379   2.069   4.250   0.138  0.6834  0.2961  0.2433
11969SOL    HW148380   1.982   4.291   0.166  0.4173 -0.6603  0.8461
11969SOL    HW248381   2.114   4.209   0.217  0.2655 -1.8052 -0.5679
11970SOL     OW48382   0.202   5.581   6.674 -0.6965 -0.8417 -0.4434
11970SOL    HW148383   0.131   5.651   6.682 -0.1693 -0.4681  1.2485
11970SOL    HW248384   0.213   5.534   6.762  0.6229 -1.4219 -0.8978
11971SOL     OW48385   4.111   8.713   1.809 -0.2007  0.2896 -0.6403
11971SOL    HW148386   4.036   8.688   1.871 -0.6445  0.1783 -1.2107
11971SOL    HW248387   4.127   8.811   1.813  0.3960  0.1547  0.3382
11972SOL     OW48388   8.551   4.794   6.891 -0.0021 -0.7594  0.3111
11972SOL    HW148389   8.639   4.748   6.878  0.2693  0.1695 -1.1766
11972SOL    HW248390   8.477   4.728   6.876  0.3973 -0.9311 -0.9854
11973SOL     OW48391   2.556   4.097   3.271  1.0739  0.0557  0.4244
11973SOL    HW148392   2.555   3.998   3.254  0.0847  0.2963 -0.9855
11973SOL    HW248393   2.649   4.132   3.260  1.0054 -0.3290 -1.4126
11974SOL     OW48394   4.370   6.404   6.425 -0.2033  0.0208  0.1286
11974SOL    HW148395   4.376   6.358   6.514  0.1683  1.5958  0.9214
11974SOL    HW248396   4.287   6.460   6.422  0.8504  1.6009  0.2632
11975SOL     OW48397   2.452   2.921   2.245  0.2147  0.1265 -0.4081
11975SOL    HW148398   2.380   2.989   2.258 -0.5060 -0.5838 -0.6278
11975SOL    HW248399   2.486   2.891   2.334  1.8597  2.1402 -0.3201
11976SOL     OW48400   0.094   3.108   4.984 -0.0815 -0.3729 -0.6426
11976SOL    HW148401   0.083   3.116   5.083 -0.6615  2.0333 -0.8621
11976SOL    HW248402   0.190   3.095   4.962  0.1951  0.2814  0.1709
11977SOL     OW48403   2.971   4.744   5.508 -0.2978  0.5173 -1.0427
11977SOL    HW148404   2.955   4.750   5.410 -1.7132  1.9280 -0.7435
11977SOL    HW248405   3.063   4.776   5.529  0.0772  0.0319 -1.9234
11978SOL     OW48406   0.398   5.427   6.242  0.1513  0.2271  0.1515
11978SOL    HW148407   0.323   5.373   6.205  1.1441 -1.0865  0.0562
11978SOL    HW248408   0.369   5.469   6.328 -1.1229  0.8095 -0.5392
11979SOL     OW48409   8.928   5.303   0.430  0.1235  0.2151  0.3959
11979SOL    HW148410   8.841   5.333   0.390  0.3222  0.3101  0.0393
11979SOL    HW248411   8.915   5.214   0.474 -0.2066  0.3261  0.5264
11980SOL     OW48412   5.759   8.394   8.079  0.3567 -0.0699 -0.1824
11980SOL    HW148413   5.829   8.426   8.142 -0.4163  0.4479  0.4238
11980SOL    HW248414   5.781   8.301   8.048  0.3924 -0.5973  1.3724
11981SOL     OW48415   7.818   4.257   0.008 -0.5321 -0.2457 -0.1183
11981SOL    HW148416   7.782   4.290   0.095  0.1734  0.0992  0.0387
11981SOL    HW248417   7.917   4.269   0.005 -0.5362 -0.3617 -0.9202
11982SOL     OW48418   2.950   0.547   8.466 -0.8900  0.3999 -0.4021
11982SOL    HW148419   3.033   0.531   8.519 -0.4354 -1.3449 -1.5991
11982SOL    HW248420   2.971   0.600   8.384 -1.2185  1.1997  0.0218
11983SOL     OW48421   8.835   7.988   3.525  0.3656 -0.3813 -0.0700
11983SOL    HW148422   8.919   7.974   3.577  0.1024 -0.7796  0.2554
11983SOL    HW248423   8.764   7.926   3.559 -0.0588 -0.0530 -0.3453
11984SOL     OW48424   5.962   1.971   0.565  0.2652  0.0006  0.5028
11984SOL    HW148425   5.866   1.945   0.567  0.2611  0.0303  0.6397
11984SOL    HW248426   5.982   2.031   0.642  0.4481 -0.1926  0.6042
11985SOL     OW48427   7.393   4.847   1.001  0.1820 -0.0370 -0.0891
11985SOL    HW148428   7.449   4.782   1.052 -0.3368  1.1449  2.0485
11985SOL    HW248429   7.330   4.797   0.942  1.4865 -1.4149 -0.3518
11986SOL     OW48430   5.657   4.582   0.986 -0.4232  0.4259 -0.4822
11986SOL    HW148431   5.608   4.498   1.009 -0.2688  0.4830  0.0574
11986SOL    HW248432   5.738   4.560   0.933  0.7379  0.0569  1.4210
11987SOL     OW48433   8.353   5.183   8.883  0.0105 -0.3239  0.0547
11987SOL    HW148434   8.313   5.166   8.792  0.7730  0.3425 -0.4148
11987SOL    HW248435   8.290   5.152   8.953 -0.3347 -1.4175 -0.7142
11988SOL     OW48436   8.057   1.746   8.456 -0.4960 -0.0132  0.0032
11988SOL    HW148437   7.965   1.750   8.494 -0.6214 -1.9364 -0.0249
11988SOL    HW248438   8.053   1.712   8.362  0.2899 -0.8024  0.2470
11989SOL     OW48439   5.300   5.228   7.263  0.1264  0.8184  0.4023
11989SOL    HW148440   5.313   5.321   7.297  0.7206  1.1637 -0.7309
11989SOL    HW248441   5.336   5.221   7.170  0.1777 -0.5721  0.5025
11990SOL     OW48442   1.335   4.874   6.158  0.6285 -0.4124 -0.1448
11990SOL    HW148443   1.269   4.820   6.107  1.2976 -1.4121  0.0327
11990SOL    HW248444   1.425   4.866   6.115  0.8874 -0.0537  0.3270
11991SOL     OW48445   5.615   5.857   4.048  0.1395  0.3892 -0.3702
11991SOL    HW148446   5.668   5.908   3.979 -0.5704  0.5836 -0.7786
11991SOL    HW248447   5.677   5.818   4.115  0.9715 -1.0883 -1.9643
11992SOL     OW48448   1.449   2.861   4.660  0.2542  0.2646  0.2060
11992SOL    HW148449   1.477   2.837   4.567  0.8389 -2.2410  0.9992
11992SOL    HW248450   1.511   2.819   4.726 -0.3855  1.6899  1.7725
11993SOL     OW48451   6.448   3.651   6.112  0.1509 -0.1718  0.1740
11993SOL    HW148452   6.469   3.554   6.121  0.3388 -0.1185  0.3167
11993SOL    HW248453   6.431   3.673   6.016 -0.0785 -0.3830  0.1667
11994SOL     OW48454   4.250   5.896   4.189  0.1825  0.3394  0.0740
11994SOL    HW148455   4.290   5.976   4.145  2.7284 -1.1355 -0.3637
11994SOL    HW248456   4.225   5.919   4.283  2.0335  1.3448  0.3497
11995SOL     OW48457   4.054   7.632   1.981  0.0457 -0.9696 -0.6351
11995SOL    HW148458   4.046   7.633   1.881  0.3314 -0.5683 -0.6551
11995SOL    HW248459   3.963   7.643   2.022 -0.0970 -1.3441 -0.8510
11996SOL     OW48460   4.843   7.522   0.695 -0.0308 -0.4524  0.2748
11996SOL    HW148461   4.852   7.433   0.740 -3.1326  0.4775  2.8636
11996SOL    HW248462   4.748   7.536   0.666  0.3187  2.2066  0.3061
11997SOL     OW48463   1.818   4.877   8.233 -0.0410  0.2317  0.0863
11997SOL    HW148464   1.783   4.961   8.191 -1.9988 -0.1061  1.0049
11997SOL    HW248465   1.791   4.798   8.178 -0.4801 -0.0137  0.6579
11998SOL     OW48466   0.100   7.953   5.341 -0.5424 -0.3768 -0.4543
11998SOL    HW148467   0.145   7.996   5.419  0.8081 -1.0461 -0.8499
11998SOL    HW248468   0.004   7.936   5.363 -1.1144  2.7919 -0.2915
11999SOL     OW48469   4.507   3.568   5.643 -0.1645 -0.2476 -0.1931
11999SOL    HW148470   4.498   3.468   5.643 -0.4562 -0.2242 -0.0312
11999SOL    HW248471   4.513   3.600   5.738 -0.7653 -0.0565 -0.2169
12000SOL     OW48472   3.941   5.435   5.851  0.4767  0.1875 -0.2017
12000SOL    HW148473   3.903   5.346   5.876  0.1222  0.6999  1.1175
12000SOL    HW248474   3.937   5.446   5.751  0.4247 -1.2212 -0.3695
12001SOL     OW48475   1.240   1.297   6.422 -0.4400  0.0726 -0.3496
12001SOL    HW148476   1.295   1.375   6.453  0.4509 -0.2395 -1.1322
12001SOL    HW248477   1.273   1.267   6.333 -1.3702 -0.6322 -0.4589
12002SOL     OW48478   1.077   0.527   1.642 -0.6987  0.0205  0.2162
12002SOL    HW148479   1.036   0.447   1.684  1.3514  0.2000  2.6552
12002SOL    HW248480   1.010   0.601   1.638 -1.6817 -0.8269  0.7934
12003SOL     OW48481   0.871   1.644   0.691  0.2687  0.3197  0.2003
12003SOL    HW148482   0.823   1.676   0.773 -0.7942  0.1187 -0.3388
12003SOL    HW248483   0.936   1.715   0.662  0.5255  0.4704  1.1003
12004SOL     OW48484   7.831   3.548   8.764  0.0758 -0.6146  0.4855
12004SOL    HW148485   7.757   3.513   8.821 -0.5791 -0.5610 -0.3219
12004SOL    HW248486   7.843   3.646   8.781 -0.6819 -0.4231 -0.0894
12005SOL     OW48487   5.515   7.385   6.357  0.3836  0.0678 -0.4338
12005SOL    HW148488   5.465   7.335   6.286 -1.0928 -0.6489  1.0913
12005SOL    HW248489   5.582   7.324   6.399 -0.0242 -0.0411  0.0554
12006SOL     OW48490   3.158   1.758   4.917 -0.3454  0.2764  0.0967
12006SOL    HW148491   3.123   1.811   4.840  0.7679  0.7453 -0.0911
12006SOL    HW248492   3.129   1.663   4.908 -1.5675  0.6547 -0.0535
12007SOL     OW48493   5.776   6.457   0.240 -0.5476 -0.0136  0.0702
12007SOL    HW148494   5.746   6.402   0.163 -1.9819 -0.0105  0.6072
12007SOL    HW248495   5.746   6.552   0.227  2.0737  0.7158 -0.9500
12008SOL     OW48496   7.937   1.854   1.779 -0.8429 -0.0578 -0.1390
12008SOL    HW148497   7.857   1.881   1.831 -0.8008 -0.8340  0.3330
12008SOL    HW248498   7.944   1.754   1.776  1.0632 -0.0055  1.3277
12009SOL     OW48499   4.031   5.986   4.782 -0.1303  0.3699  0.1328
12009SOL    HW148500   4.100   6.018   4.717 -1.6942 -0.3463 -1.9337
12009SOL    HW248501   3.946   5.965   4.734 -0.8721 -1.6424  2.1820
12010SOL     OW48502   6.312   2.692   0.127 -0.7194 -0.4986  0.3477
12010SOL    HW148503   6.271   2.638   0.200 -0.8938  0.6103  1.0939
12010SOL    HW248504   6.305   2.789   0.150  0.9022 -0.2202 -0.2655
12011SOL     OW48505   3.562   5.153   3.461 -0.0364  0.0375 -0.2081
12011SOL    HW148506   3.534   5.084   3.394 -0.2530  0.8947 -1.0173
12011SOL    HW248507   3.655   5.182   3.442 -0.0485  0.1816 -0.0487
12012SOL     OW48508   4.116   4.454   4.226 -0.2760 -0.2576  0.6970
12012SOL    HW148509   4.114   4.485   4.131 -0.7590 -1.3227  0.3495
12012SOL    HW248510   4.203   4.480   4.268  0.2803 -0.4997 -0.2888
12013SOL     OW48511   3.824   7.914   3.460  0.4181 -0.4145 -0.6073
12013SOL    HW148512   3.800   7.898   3.365 -2.0165 -0.6408 -0.0013
12013SOL    HW248513   3.761   7.862   3.519  1.1986  0.5680  1.1298
12014SOL     OW48514   8.705   4.573   6.611 -0.1163  0.5418  0.6669
12014SOL    HW148515   8.740   4.618   6.693 -0.3394 -0.4026  1.2908
12014SOL    HW248516   8.768   4.588   6.535 -0.1072  1.7679  0.8983
12015SOL     OW48517   3.662   1.717   1.383 -0.5035  0.3134 -0.1273
12015SOL    HW148518   3.568   1.716   1.416 -0.5028 -1.5186 -0.1754
12015SOL    HW248519   3.724   1.729   1.461 -0.6276 -1.5298  0.2640
12016SOL     OW48520   1.003   4.219   8.430 -0.0224  0.1835 -0.2432
12016SOL    HW148521   1.031   4.296   8.373  0.3826  0.3225  0.1364
12016SOL    HW248522   0.925   4.173   8.388  1.0613 -0.5003 -1.5779
12017SOL     OW48523   1.890   8.169   6.588 -0.0159  0.3043  0.1661
12017SOL    HW148524   1.832   8.093   6.618 -0.7657 -0.2941 -2.6751
12017SOL    HW248525   1.920   8.153   6.494  0.6486  3.0460 -0.1266
12018SOL     OW48526   8.674   7.577   8.328  0.0594  0.0623 -0.3339
12018SOL    HW148527   8.764   7.608   8.357  0.5498 -0.1846 -1.5487
12018SOL    HW248528   8.682   7.489   8.282 -1.0220 -0.7491  1.0115
12019SOL     OW48529   6.025   0.085   7.931  0.4081 -0.4352 -0.3907
12019SOL    HW148530   5.947   0.124   7.980  0.0162  1.2957 -2.3269
12019SOL    HW248531   6.075   0.158   7.886  1.2294 -1.9203 -1.9270
12020SOL     OW48532   2.204   2.258   6.898 -0.2209  0.0488  0.1085
12020SOL    HW148533   2.119   2.205   6.903 -2.0954  2.9793  0.8191
12020SOL    HW248534   2.237   2.277   6.990  1.1985 -1.0489 -0.1675
12021SOL     OW48535   2.564   7.870   2.571  0.6374 -0.2192 -0.7202
12021SOL    HW148536   2.473   7.833   2.591  0.8031 -0.4036 -0.3026
12021SOL    HW248537   2.588   7.849   2.476  0.0260  0.2875 -0.9892
12022SOL     OW48538   5.722   5.354   5.669  0.0278  0.5038 -0.1456
12022SOL    HW148539   5.756   5.443   5.640  0.7546  0.3020  0.0702
12022SOL    HW248540   5.671   5.311   5.594  0.6709  0.5959 -0.6366
12023SOL     OW48541   6.889   4.711   2.954  0.5719  0.2226  0.4690
12023SOL    HW148542   6.849   4.619   2.962  1.3872 -0.2890 -1.1250
12023SOL    HW248543   6.820   4.779   2.979 -0.8053 -0.7236 -0.6211
12024SOL     OW48544   4.453   7.027   5.684  0.2333  0.3504 -0.2652
12024SOL    HW148545   4.546   7.063   5.691  0.8720 -1.0779 -1.0017
12024SOL    HW248546   4.404   7.072   5.609  0.1470  1.4729  0.4571
12025SOL     OW48547   8.528   5.907   4.039  0.1860  0.6100  0.2191
12025SOL    HW148548   8.449   5.904   4.100  0.9687 -0.0386  1.2390
12025SOL    HW248549   8.578   5.992   4.053 -0.4103  1.0908 -0.5401
12026SOL     OW48550   4.602   0.542   6.290 -0.0510  0.5452 -0.0463
12026SOL    HW148551   4.606   0.512   6.385 -1.5877  0.6345  0.0526
12026SOL    HW248552   4.690   0.525   6.246  0.5155  0.0647  1.2565
12027SOL     OW48553   3.818   5.793   1.192  0.0056  0.0252  0.1538
12027SOL    HW148554   3.752   5.865   1.169  1.8149  1.5761 -0.2948
12027SOL    HW248555   3.833   5.735   1.112  1.2269  1.3477 -0.6106
12028SOL     OW48556   5.518   0.060   0.346  0.2043 -0.5265  0.1200
12028SOL    HW148557   5.591  -0.008   0.336  2.1966  1.5072  0.3364
12028SOL    HW248558   5.485   0.085   0.255  1.5488  0.3696 -0.1407
12029SOL     OW48559   0.964   2.645   4.694 -0.2865 -0.3000 -0.6502
12029SOL    HW148560   1.058   2.647   4.661 -0.0633  0.8556  0.0512
12029SOL    HW248561   0.959   2.687   4.785 -1.6460  0.5683 -1.1088
12030SOL     OW48562   6.844   6.133   5.159  0.1527 -0.1993  0.3650
12030SOL    HW148563   6.832   6.224   5.118 -0.1147 -0.7771 -0.8630
12030SOL    HW248564   6.824   6.063   5.091  0.1080 -1.1901  1.3813
12031SOL     OW48565   8.925   4.250   8.405 -0.0379  0.3169  0.7799
12031SOL    HW148566   9.012   4.212   8.373  0.1197 -1.4220  3.0889
12031SOL    HW248567   8.937   4.292   8.495 -1.7579 -0.8424  1.5954
12032SOL     OW48568   4.011   3.259   6.189 -0.4876 -0.2723  0.3094
12032SOL    HW148569   4.061   3.344   6.200 -0.5637 -0.4474  2.0796
12032SOL    HW248570   3.934   3.273   6.127 -0.2241  0.8196  0.2271
12033SOL     OW48571   4.315   5.502   3.741  0.6665  0.2030  0.2084
12033SOL    HW148572   4.335   5.493   3.839  0.0886  0.3256  0.3376
12033SOL    HW248573   4.218   5.525   3.729  1.1437  2.0243 -0.3099
12034SOL     OW48574   2.977   5.488   3.283  0.1330 -0.4892 -0.7016
12034SOL    HW148575   2.882   5.480   3.313  0.3709  0.9156  0.4588
12034SOL    HW248576   3.017   5.571   3.320  3.0682 -3.0363  2.1598
12035SOL     OW48577   1.835   0.387   0.203 -0.2629  0.0825  0.5266
12035SOL    HW148578   1.845   0.349   0.295 -1.7251 -1.2956  0.1445
12035SOL    HW248579   1.889   0.332   0.139 -0.0524  0.4333  0.4008
12036SOL     OW48580   3.682   7.931   8.870  0.4389 -0.2281  0.5533
12036SOL    HW148581   3.626   7.999   8.918  1.9711  0.9325  0.7210
12036SOL    HW248582   3.625   7.853   8.844 -1.5694  1.6012 -0.6273
12037SOL     OW48583   8.793   1.068   5.166 -0.4421 -0.4601  0.6565
12037SOL    HW148584   8.852   1.003   5.215  1.1491  0.1918 -0.3375
12037SOL    HW248585   8.715   1.092   5.223  0.3848 -1.1696  2.1103
12038SOL     OW48586   7.316   0.795   7.369 -0.0716  0.0686 -0.3550
12038SOL    HW148587   7.312   0.697   7.347  0.8457 -0.4878  1.8017
12038SOL    HW248588   7.366   0.843   7.298 -0.6612 -1.0132 -1.5168
12039SOL     OW48589   1.706   3.071   8.135 -0.2035  0.0966  0.0307
12039SOL    HW148590   1.782   3.012   8.162 -0.3384 -0.4621 -0.7817
12039SOL    HW248591   1.719   3.162   8.173  1.9227  0.5768 -1.7716
12040SOL     OW48592   3.559   8.002   7.005 -0.2896 -0.3120  0.0662
12040SOL    HW148593   3.626   8.033   6.937  0.1890  0.2041  0.7536
12040SOL    HW248594   3.524   8.082   7.054 -1.6510 -0.5586 -0.5094
12041SOL     OW48595   1.322   2.442   8.528  0.3576  0.6222  0.2218
12041SOL    HW148596   1.290   2.467   8.437 -1.4675 -1.6537  0.1793
12041SOL    HW248597   1.311   2.343   8.541  0.1892  0.9648  3.0436
12042SOL     OW48598   2.810   5.100   0.544 -0.4514  0.6399 -0.6595
12042SOL    HW148599   2.881   5.073   0.608 -1.4920 -1.1771 -0.2362
12042SOL    HW248600   2.851   5.128   0.457  0.8194  0.5572 -0.0845
12043SOL     OW48601   5.697   5.191   0.278  0.1129 -0.5544 -0.5229
12043SOL    HW148602   5.739   5.270   0.234 -0.9125  0.6216  0.6089
12043SOL    HW248603   5.769   5.131   0.314  0.9266 -0.7902 -2.4518
12044SOL     OW48604   8.490   5.510   4.393  0.0982  0.0765 -0.5956
12044SOL    HW148605   8.455   5.447   4.462  0.1684  0.5731 -0.1021
12044SOL    HW248606   8.577   5.549   4.423 -1.3044  2.5590  0.4223
12045SOL     OW48607   3.438   2.448   3.706 -0.3706  0.1748 -0.0529
12045SOL    HW148608   3.397   2.359   3.724 -0.7564  0.4013  0.1874
12045SOL    HW248609   3.403   2.515   3.772 -1.6304  0.9601 -1.4720
12046SOL     OW48610   1.923   0.154   5.954  1.1806 -0.1481  0.4737
12046SOL    HW148611   1.982   0.110   5.887  0.6883  0.1993 -0.1978
12046SOL    HW248612   1.893   0.242   5.918  1.4786  0.3609  1.4490
12047SOL     OW48613   3.191   7.893   7.075  0.1228 -0.6093  0.0617
12047SOL    HW148614   3.177   7.992   7.084  0.3768 -0.5385 -0.2976
12047SOL    HW248615   3.108   7.850   7.040  0.4688 -0.3300 -1.1139
12048SOL     OW48616   7.767   4.432   6.462  0.1511  0.4300 -0.0214
12048SOL    HW148617   7.687   4.478   6.424  1.2985  3.5482  1.1193
12048SOL    HW248618   7.835   4.418   6.389 -1.0346 -1.4130 -0.8040
12049SOL     OW48619   1.665   3.191   4.945 -0.4718 -0.0224  0.5815
12049SOL    HW148620   1.626   3.103   4.971 -2.3530  1.0908  1.6664
12049SOL    HW248621   1.594   3.246   4.899  0.3918  1.2944  0.8055
12050SOL     OW48622   6.032   7.881   1.437  0.0537  0.3326  0.6522
12050SOL    HW148623   6.067   7.792   1.406 -0.1115  0.4391  0.1462
12050SOL    HW248624   6.090   7.954   1.402 -0.7500  0.5200 -0.3323
12051SOL     OW48625   2.553   8.407   5.218  0.0920  0.1258  0.3450
12051SOL    HW148626   2.642   8.362   5.226  0.2801  0.6003  0.8896
12051SOL    HW248627   2.518   8.429   5.308 -0.9503 -0.7744  0.1672
12052SOL     OW48628   6.235   2.807   1.886  0.4653 -0.0845  0.5573
12052SOL    HW148629   6.247   2.714   1.850  1.1674 -0.2479  1.2030
12052SOL    HW248630   6.284   2.872   1.827  0.8373 -0.2447  0.6891
12053SOL     OW48631   2.195   3.494   8.788  0.8840 -0.3106 -0.7582
12053SOL    HW148632   2.187   3.585   8.830 -0.8446 -0.0984 -1.5147
12053SOL    HW248633   2.177   3.424   8.856 -0.0418 -0.0187 -0.6985
12054SOL     OW48634   5.400   3.939   1.517  0.6342 -0.1692 -0.3568
12054SOL    HW148635   5.463   3.892   1.579 -0.0348  0.0609  0.5140
12054SOL    HW248636   5.435   3.935   1.423  2.0063  0.0878  0.1362
12055SOL     OW48637   2.529   0.031   6.170  0.2464 -0.3472 -0.2058
12055SOL    HW148638   2.574  -0.035   6.110  0.0871  1.1978 -2.0524
12055SOL    HW248639   2.432   0.008   6.177  0.0401  0.1086 -1.4444
12056SOL     OW48640   3.328   2.876   8.590  0.6309  0.3661  0.2375
12056SOL    HW148641   3.324   2.918   8.500  0.5169  0.4200  0.2676
12056SOL    HW248642   3.327   2.776   8.580  0.1827  0.3717  0.1957
12057SOL     OW48643   0.078   0.066   7.788 -0.0121  0.2548 -0.0044
12057SOL    HW148644   0.012   0.112   7.729 -1.2847 -1.8721 -0.3076
12057SOL    HW248645   0.111  -0.016   7.741  0.9604 -0.0345  1.1780
12058SOL     OW48646   0.549   0.869   6.787  0.4811  0.0613  0.5148
12058SOL    HW148647   0.459   0.830   6.803  0.6028 -0.0947  0.8382
12058SOL    HW248648   0.549   0.922   6.703 -0.0708  0.5542  0.8270
12059SOL     OW48649   6.767   8.224   8.744 -0.2183 -0.1059 -0.2702
12059SOL    HW148650   6.860   8.201   8.715 -0.0135  0.8940 -0.4252
12059SOL    HW248651   6.772   8.286   8.822 -0.7570  0.8761 -1.0150
12060SOL     OW48652   7.287   0.647   1.649  0.0005  0.0983  0.3681
12060SOL    HW148653   7.252   0.739   1.634  0.2501  0.5680  2.5397
12060SOL    HW248654   7.220   0.580   1.617  0.3169  1.0067 -2.3059
12061SOL     OW48655   3.059   0.996   6.996 -0.3782 -0.0893 -0.0166
12061SOL    HW148656   2.964   1.012   6.969 -0.5149  0.4656  0.7729
12061SOL    HW248657   3.064   0.987   7.095  0.5041  0.6320  0.0141
12062SOL     OW48658   3.789   0.711   3.148  0.2722 -0.2945 -0.0270
12062SOL    HW148659   3.756   0.667   3.231  0.0875  1.5743  0.9166
12062SOL    HW248660   3.835   0.644   3.091  0.0206 -1.6937  1.3838
12063SOL     OW48661   6.132   4.802   3.638 -0.2193 -0.0279 -0.2200
12063SOL    HW148662   6.084   4.889   3.654 -1.1409 -0.7436  1.0185
12063SOL    HW248663   6.213   4.819   3.583 -1.5151  1.3278 -1.7828
12064SOL     OW48664   1.323   7.156   1.620 -0.8170  0.5622  0.2799
12064SOL    HW148665   1.341   7.065   1.656 -0.7611  0.8660  1.0175
12064SOL    HW248666   1.239   7.192   1.660 -0.4958  1.0973  0.4884
12065SOL     OW48667   8.110   1.621   4.616  0.3242 -0.7572 -0.0271
12065SOL    HW148668   8.082   1.582   4.528 -0.0571  0.8776 -0.6538
12065SOL    HW248669   8.032   1.669   4.657  1.2547  0.8798 -0.1395
12066SOL     OW48670   5.769   8.988   4.011 -0.5763  0.2166 -0.4475
12066SOL    HW148671   5.690   8.951   4.061 -0.2092 -1.3451 -0.9972
12066SOL    HW248672   5.739   9.066   3.956 -1.7551 -0.3696 -0.6695
12067SOL     OW48673   0.175   8.747   6.171 -0.3625  0.9100  0.5370
12067SOL    HW148674   0.193   8.779   6.265  0.5404  1.4337  0.2006
12067SOL    HW248675   0.207   8.817   6.107  0.6946 -0.2398 -0.1987
12068SOL     OW48676   6.159   2.625   5.847 -0.2772  0.6002 -0.4584
12068SOL    HW148677   6.086   2.676   5.803 -1.3432  0.7136  1.3857
12068SOL    HW248678   6.123   2.579   5.929  1.4781 -0.1593 -0.0864
12069SOL     OW48679   5.801   5.429   5.059 -0.3426 -0.2540  0.1241
12069SOL    HW148680   5.795   5.346   5.004 -1.1335 -0.6143  0.7430
12069SOL    HW248681   5.869   5.491   5.019  1.8941 -2.1423  0.8952
12070SOL     OW48682   8.623   5.566   5.202  0.0282 -0.1902 -0.3301
12070SOL    HW148683   8.544   5.563   5.263 -1.7618  1.1866 -2.5180
12070SOL    HW248684   8.604   5.512   5.120  0.8190  1.3058 -1.5028
12071SOL     OW48685   2.691   2.752   2.719 -0.1610  0.2719  0.0000
12071SOL    HW148686   2.680   2.653   2.718  3.2299 -0.2177  2.4182
12071SOL    HW248687   2.640   2.790   2.797  0.6508  0.0742  0.6428
12072SOL     OW48688   6.607   5.399   2.675 -0.0182 -0.0549  0.2043
12072SOL    HW148689   6.551   5.480   2.662 -0.1487 -0.1794 -0.0041
12072SOL    HW248690   6.677   5.394   2.604  0.4599  0.2733  0.6518
12073SOL     OW48691   7.352   8.956   6.380 -0.2894  1.1886  0.2819
12073SOL    HW148692   7.403   8.909   6.452  0.9043  1.3640 -0.4156
12073SOL    HW248693   7.383   8.922   6.291 -0.3263  2.3720 -0.1918
12074SOL     OW48694   0.245   8.537   6.030 -0.0911  0.2215  0.0663
12074SOL    HW148695   0.234   8.617   6.088 -2.5384 -0.3748  0.4486
12074SOL    HW248696   0.290   8.464   6.082 -1.6777 -0.0890  1.0123
12075SOL     OW48697   1.622   1.647   7.198 -0.0145 -0.2020 -0.8661
12075SOL    HW148698   1.679   1.728   7.188 -1.9647  1.1076 -1.8216
12075SOL    HW248699   1.665   1.583   7.261  2.2898  0.8966 -1.2743
12076SOL     OW48700   4.656   6.099   7.662 -0.7085 -0.2947 -0.1585
12076SOL    HW148701   4.744   6.119   7.618 -0.1459 -1.0899  0.5735
12076SOL    HW248702   4.666   6.105   7.761 -1.4481 -0.5205 -0.0671
12077SOL     OW48703   1.506   0.050   7.057 -0.1933 -0.0621 -0.1009
12077SOL    HW148704   1.483  -0.013   6.983  1.6652 -0.7150 -0.1443
12077SOL    HW248705   1.599   0.085   7.044 -0.1815  0.5284  1.4378
12078SOL     OW48706   0.623   8.361   4.948 -0.3920  0.0416  0.4328
12078SOL    HW148707   0.654   8.286   4.890 -0.6103  0.6220 -0.4472
12078SOL    HW248708   0.579   8.324   5.030 -1.5953 -0.7816 -0.5789
12079SOL     OW48709   1.818   2.363   0.722  0.2188  0.5655 -0.1371
12079SOL    HW148710   1.828   2.456   0.757  2.1749  0.8890 -1.4196
12079SOL    HW248711   1.805   2.366   0.623 -1.0185 -0.4868 -0.0212
12080SOL     OW48712   0.407   8.905   3.780 -0.5638 -0.2530 -0.4727
12080SOL    HW148713   0.346   8.879   3.854  0.3021  0.0857  0.3654
12080SOL    HW248714   0.432   9.001   3.790  0.1055 -0.3893 -0.8216
12081SOL     OW48715   4.513   8.019   7.971 -0.2782 -0.0092  0.1768
12081SOL    HW148716   4.538   7.922   7.981 -0.1318 -0.1217 -1.1681
12081SOL    HW248717   4.438   8.027   7.905  0.7502  0.9272 -0.8910
12082SOL     OW48718   7.373   6.700   6.250 -0.1282 -0.3768  0.0169
12082SOL    HW148719   7.442   6.630   6.268 -0.3772 -0.9299 -1.1064
12082SOL    HW248720   7.416   6.791   6.255  0.0518 -0.5602  2.1228
12083SOL     OW48721   6.200   3.071   7.773  0.0327 -0.4185 -0.7541
12083SOL    HW148722   6.226   2.984   7.731 -0.4934 -1.2938  0.6879
12083SOL    HW248723   6.154   3.053   7.860  0.8074  1.3515  0.0412
12084SOL     OW48724   2.642   8.428   6.454  0.6400 -0.2618  0.0413
12084SOL    HW148725   2.738   8.402   6.462  1.4446  2.3026 -0.6879
12084SOL    HW248726   2.607   8.455   6.544  0.5983 -1.1788  0.3014
12085SOL     OW48727   6.457   4.007   7.871  0.1090  0.1930 -0.1797
12085SOL    HW148728   6.534   4.027   7.932  1.4591 -1.3036 -1.3492
12085SOL    HW248729   6.445   3.908   7.863 -2.5663  0.3999  0.7300
12086SOL     OW48730   4.709   3.451   5.144  0.5909  0.2728 -0.2497
12086SOL    HW148731   4.642   3.381   5.168 -0.8817  1.6574 -0.2142
12086SOL    HW248732   4.778   3.456   5.217 -0.4794  0.2984  0.7915
12087SOL     OW48733   3.599   7.198   2.780  0.3603  0.4855 -0.0560
12087SOL    HW148734   3.530   7.236   2.719  0.0263  1.7623  1.1029
12087SOL    HW248735   3.690   7.230   2.752  0.3729 -0.1370 -0.7707
12088SOL     OW48736   4.622   3.873   5.249  0.3651  0.1032  0.1502
12088SOL    HW148737   4.641   3.938   5.322  1.3470 -0.9732  0.8844
12088SOL    HW248738   4.577   3.792   5.287  2.4527 -1.2275 -0.0992
12089SOL     OW48739   3.669   3.273   3.319  0.1820  0.1154 -0.2497
12089SOL    HW148740   3.679   3.197   3.255  1.7290  1.4873 -1.6576
12089SOL    HW248741   3.672   3.359   3.269  0.8705  1.1938  1.6184
12090SOL     OW48742   6.241   3.690   7.567  0.2203  0.2160 -0.2324
12090SOL    HW148743   6.260   3.745   7.486 -0.7236  1.6016  0.4611
12090SOL    HW248744   6.201   3.748   7.638 -0.2882 -1.2657  0.7205
12091SOL     OW48745   6.167   6.507   7.480 -0.1435  0.4917  0.1911
12091SOL    HW148746   6.253   6.526   7.528  0.6427 -0.0995 -0.9716
12091SOL    HW248747   6.093   6.502   7.547  1.1087 -1.4759  1.4795
12092SOL     OW48748   4.841   8.011   6.130 -0.3230 -0.0351 -0.0805
12092SOL    HW148749   4.936   8.000   6.100 -0.2924  0.7496 -0.2987
12092SOL    HW248750   4.780   7.978   6.059 -0.2154 -0.3365 -0.0332
12093SOL     OW48751   6.241   6.795   4.086 -0.2356  0.4616 -0.2470
12093SOL    HW148752   6.320   6.856   4.097  0.0291 -0.0559  0.7491
12093SOL    HW248753   6.245   6.722   4.155 -1.6298  0.4806 -0.1397
12094SOL     OW48754   2.377   8.008   3.158  0.4877 -0.2216 -0.0574
12094SOL    HW148755   2.398   8.085   3.098  1.0961  0.3689  0.9101
12094SOL    HW248756   2.280   8.009   3.181  0.6823  0.8171  0.7288
12095SOL     OW48757   7.818   3.666   7.077  0.3563  0.5860 -0.1226
12095SOL    HW148758   7.776   3.625   7.157  1.5104  0.2750  0.3382
12095SOL    HW248759   7.824   3.765   7.089 -1.4487  0.7821 -0.7717
12096SOL     OW48760   8.415   2.280   0.654 -0.0468 -0.4221  0.2526
12096SOL    HW148761   8.431   2.334   0.737 -0.8080 -0.2166  0.2681
12096SOL    HW248762   8.439   2.184   0.672 -1.3114 -0.5963  1.0709
12097SOL     OW48763   2.485   0.749   8.475  0.6114  0.5440 -0.3328
12097SOL    HW148764   2.498   0.791   8.385  1.2336 -1.6679 -1.3191
12097SOL    HW248765   2.574   0.740   8.520  0.4528  0.5368 -0.0247
12098SOL     OW48766   1.632   8.864   0.768 -0.2530  0.4363  0.5102
12098SOL    HW148767   1.551   8.847   0.824  0.4934 -0.5397  1.2963
12098SOL    HW248768   1.699   8.916   0.821  0.2198  0.0090  0.3270
12099SOL     OW48769   6.890   5.765   7.008 -0.6007 -0.1475  0.5199
12099SOL    HW148770   6.946   5.845   6.984  0.5261 -1.1715 -0.3218
12099SOL    HW248771   6.906   5.692   6.942 -0.1577 -1.7676  2.3591
12100SOL     OW48772   8.078   2.642   0.980  0.2670  0.0676  0.7335
12100SOL    HW148773   8.100   2.634   0.883  1.1308 -0.0871  0.9326
12100SOL    HW248774   8.086   2.552   1.023 -2.5256 -0.3448  0.4733
12101SOL     OW48775   7.428   2.931   4.583  0.4549  0.5562 -0.2631
12101SOL    HW148776   7.436   2.976   4.672 -0.3966  0.5030 -0.1550
12101SOL    HW248777   7.418   3.000   4.511  1.8836  0.6281 -0.4113
12102SOL     OW48778   3.778   0.684   5.485 -0.6850 -0.2297 -0.5128
12102SOL    HW148779   3.800   0.628   5.405 -0.8654 -0.7557 -0.2006
12102SOL    HW248780   3.706   0.749   5.462 -1.1618 -0.7904 -0.6121
12103SOL     OW48781   2.405   5.919   2.046 -0.2914  0.6950 -0.5086
12103SOL    HW148782   2.424   6.009   2.086  0.0521 -0.0415  1.0245
12103SOL    HW248783   2.306   5.908   2.034 -0.3138  1.4009 -1.0141
12104SOL     OW48784   0.646   0.762   8.599 -0.0786  0.1339  0.1535
12104SOL    HW148785   0.648   0.690   8.530 -1.1585  0.1663  0.0783
12104SOL    HW248786   0.591   0.839   8.566 -1.2200 -0.1498  1.3328
12105SOL     OW48787   7.052   3.768   0.261 -0.3791 -0.1366 -0.3909
12105SOL    HW148788   7.080   3.811   0.347 -1.2346 -1.1186  0.3948
12105SOL    HW248789   7.070   3.830   0.185  0.4215  0.7299  0.4927
12106SOL     OW48790   1.179   8.299   2.476  0.2755 -0.0645  1.2667
12106SOL    HW148791   1.134   8.238   2.541 -0.8138  0.2893  0.8640
12106SOL    HW248792   1.128   8.298   2.389  0.8725  0.5833  0.9061
12107SOL     OW48793   2.532   3.595   6.096 -0.5894  0.3008 -0.0359
12107SOL    HW148794   2.450   3.617   6.148  0.3737  1.9600  0.8359
12107SOL    HW248795   2.513   3.604   5.998 -1.0550  2.2097  0.2011
12108SOL     OW48796   8.931   0.052   6.916 -0.5551 -0.2362 -1.1950
12108SOL    HW148797   8.974   0.016   6.833 -0.5761  0.8049 -1.6644
12108SOL    HW248798   8.985   0.129   6.951 -1.8036  0.8296 -1.5619
12109SOL     OW48799   5.611   3.311   1.024  0.4220 -0.5469  0.2118
12109SOL    HW148800   5.571   3.282   0.938 -1.5198 -0.2893  1.0165
12109SOL    HW248801   5.540   3.346   1.085  1.8952  0.2187  1.5504
12110SOL     OW48802   4.488   2.913   3.282  0.1924  0.2025  0.0123
12110SOL    HW148803   4.555   2.940   3.213  0.7289  1.0813  0.8505
12110SOL    HW248804   4.414   2.980   3.284  1.4046  1.5670  1.9320
12111SOL     OW48805   6.902   5.451   4.037  0.0079  0.0454 -0.1563
12111SOL    HW148806   6.977   5.401   4.081  0.8047  1.5183  0.1867
12111SOL    HW248807   6.851   5.501   4.106 -1.2636 -0.8952 -0.4048
12112SOL     OW48808   5.674   3.575   1.978 -0.3375 -0.0932 -0.3967
12112SOL    HW148809   5.721   3.496   2.016 -1.4047 -0.8816 -0.7108
12112SOL    HW248810   5.644   3.635   2.053  0.6507  0.1177 -0.1704
12113SOL     OW48811   3.389   2.837   7.023  0.2806 -0.1259 -0.4689
12113SOL    HW148812   3.412   2.934   7.033  1.3084 -0.4107  0.0761
12113SOL    HW248813   3.322   2.825   6.950 -0.8365  1.1231  0.3412
12114SOL     OW48814   1.546   3.295   3.826 -0.4083 -0.0171  0.3261
12114SOL    HW148815   1.560   3.235   3.905  1.0982  1.8700  1.5575
12114SOL    HW248816   1.631   3.345   3.807 -0.9866  0.1563 -2.0062
12115SOL     OW48817   5.767   5.084   6.013  0.3238 -0.0611  0.1262
12115SOL    HW148818   5.702   5.009   6.029  1.9278 -1.3731  0.7003
12115SOL    HW248819   5.821   5.064   5.931  1.8858 -0.3687  1.2104
12116SOL     OW48820   7.223   1.470   7.491 -0.0634  0.4760  0.5761
12116SOL    HW148821   7.191   1.441   7.581 -1.5205  1.3542  0.3646
12116SOL    HW248822   7.170   1.422   7.420  1.5286 -0.7111  0.1693
12117SOL     OW48823   2.904   1.565   6.472 -0.5594 -0.4817  0.1770
12117SOL    HW148824   2.962   1.489   6.501  0.5021 -0.3578 -1.5669
12117SOL    HW248825   2.818   1.529   6.435  0.1774 -0.8929 -1.1827
12118SOL     OW48826   5.600   1.575   7.901 -0.0433  0.8226  0.0684
12118SOL    HW148827   5.559   1.519   7.830  1.9317 -3.0884  1.8817
12118SOL    HW248828   5.699   1.579   7.888 -0.0480  3.3630  0.4085
12119SOL     OW48829   0.912   5.581   2.230 -0.1398  0.0520  0.1420
12119SOL    HW148830   0.857   5.573   2.147  1.9650 -2.1057 -1.0985
12119SOL    HW248831   0.861   5.543   2.307 -1.7026  1.1184 -0.3543
12120SOL     OW48832   0.246   6.130   7.855 -0.0712  0.2193 -0.3793
12120SOL    HW148833   0.337   6.123   7.897 -0.2027 -1.3807 -0.3402
12120SOL    HW248834   0.176   6.134   7.926 -0.0833  0.7494 -0.4188
12121SOL     OW48835   6.975   4.564   7.732  0.0892 -0.4921  1.0541
12121SOL    HW148836   6.950   4.551   7.827 -2.2239 -0.1514  0.5064
12121SOL    HW248837   6.897   4.543   7.673  1.8013 -1.7298 -0.8412
12122SOL     OW48838   5.332   2.925   0.711 -0.7571 -0.2306 -0.0406
12122SOL    HW148839   5.392   2.846   0.725 -2.4301 -1.6582 -0.6770
12122SOL    HW248840   5.312   2.935   0.614 -0.1398  1.3115 -0.0143
12123SOL     OW48841   7.291   7.618   0.560 -0.1846  0.2577  0.5726
12123SOL    HW148842   7.244   7.630   0.648  0.4928  0.7917  0.8623
12123SOL    HW248843   7.379   7.666   0.562 -1.2989  2.4961 -1.2941
12124SOL     OW48844   2.288   1.057   3.378  0.2517  0.1422 -0.5604
12124SOL    HW148845   2.196   1.094   3.388 -0.0406 -0.5237 -0.7328
12124SOL    HW248846   2.320   1.024   3.467 -0.4315 -1.3431 -0.8356
12125SOL     OW48847   6.763   4.107   0.639 -0.0441 -0.0710  0.1029
12125SOL    HW148848   6.721   4.140   0.724 -0.3493  0.6032 -0.3072
12125SOL    HW248849   6.774   4.008   0.644  0.8026  0.0692  1.3166
12126SOL     OW48850   7.713   6.730   5.673 -0.4897  0.4367 -0.3336
12126SOL    HW148851   7.667   6.803   5.622 -1.1803  0.7147  0.6639
12126SOL    HW248852   7.779   6.771   5.736 -0.6691  0.1870  0.0187
12127SOL     OW48853   6.669   4.199   2.646 -0.1396  0.1704  0.0923
12127SOL    HW148854   6.645   4.247   2.561 -2.6495  1.6362  1.5794
12127SOL    HW248855   6.737   4.252   2.696 -0.6759  0.6846  0.2845
12128SOL     OW48856   6.647   3.902   2.506 -0.1339  0.5851  0.2643
12128SOL    HW148857   6.728   3.878   2.453 -0.6222  0.9005 -0.6391
12128SOL    HW248858   6.648   4.000   2.525 -0.6357  0.7070 -0.3243
12129SOL     OW48859   4.686   6.503   3.827  0.2605  0.0870  0.5867
12129SOL    HW148860   4.608   6.562   3.850 -0.9498 -1.3259  0.1434
12129SOL    HW248861   4.714   6.452   3.908 -0.1794 -0.4457  0.4068
12130SOL     OW48862   5.780   6.954   5.367  0.0070  0.3577  0.1891
12130SOL    HW148863   5.837   6.915   5.294 -3.1932 -4.4496 -0.0391
12130SOL    HW248864   5.796   6.904   5.452  0.6822  3.1696  1.7547
12131SOL     OW48865   5.283   2.905   0.250 -0.4406 -0.3940  0.3285
12131SOL    HW148866   5.338   2.987   0.233 -1.4362  0.0510 -0.8787
12131SOL    HW248867   5.218   2.923   0.324 -0.3928 -0.2248  0.3288
12132SOL     OW48868   2.529   1.906   6.119 -0.1969 -0.1351  1.0508
12132SOL    HW148869   2.488   1.984   6.073  0.8939 -1.1776 -1.7600
12132SOL    HW248870   2.628   1.918   6.125 -0.1232 -0.8740  1.4334
12133SOL     OW48871   7.276   1.899   7.510 -0.1731  0.1684 -0.2646
12133SOL    HW148872   7.345   1.833   7.541 -0.9295 -1.6641 -2.4055
12133SOL    HW248873   7.185   1.869   7.538 -0.5201  0.3308 -1.1869
12134SOL     OW48874   2.061   4.905   7.434  0.0635  0.5772  0.4154
12134SOL    HW148875   2.000   4.920   7.356 -0.2026  2.2872  0.9350
12134SOL    HW248876   2.015   4.849   7.502 -0.2607  0.3413  0.0037
12135SOL     OW48877   3.931   4.018   6.664  0.4657  0.2139  0.6727
12135SOL    HW148878   3.932   4.101   6.607  1.0367  0.5493  1.1535
12135SOL    HW248879   3.952   3.939   6.608 -1.1973  0.2382 -0.0123
12136SOL     OW48880   0.494   6.959   3.290 -0.7125 -0.1553 -0.3880
12136SOL    HW148881   0.435   7.039   3.282  0.2056  0.6297  0.5758
12136SOL    HW248882   0.576   6.982   3.344  0.0050 -1.4859 -0.8749
12137SOL     OW48883   0.684   1.203   0.630 -0.1035  0.2967 -0.7251
12137SOL    HW148884   0.763   1.144   0.648  0.5705  1.3251 -0.2354
12137SOL    HW248885   0.649   1.186   0.538 -1.6504 -2.8489  0.3673
12138SOL     OW48886   2.517   4.792   2.752 -0.0029  0.5475 -0.4139
12138SOL    HW148887   2.434   4.743   2.725  0.8109 -1.0584 -0.0284
12138SOL    HW248888   2.592   4.727   2.763  1.4232  2.0377 -1.1960
12139SOL     OW48889   6.663   1.469   7.867  0.3244 -0.7309 -0.0544
12139SOL    HW148890   6.683   1.377   7.901  2.5813 -0.5209 -0.7472
12139SOL    HW248891   6.645   1.466   7.769 -0.3076 -0.5231  0.0513
12140SOL     OW48892   5.869   5.413   4.073 -0.3324  0.4778 -0.2707
12140SOL    HW148893   5.770   5.418   4.086 -0.5934  2.2624 -2.5024
12140SOL    HW248894   5.888   5.364   3.988  0.5796  2.0524 -0.9967
12141SOL     OW48895   8.259   5.925   0.747  0.0334 -0.0921  0.2471
12141SOL    HW148896   8.326   5.919   0.673 -1.5415  0.5938 -1.2865
12141SOL    HW248897   8.286   5.864   0.822  3.0861  1.2556  0.3010
12142SOL     OW48898   4.848   1.460   2.828  0.0159 -0.3655  0.2056
12142SOL    HW148899   4.907   1.523   2.777 -0.0372  0.3639  1.0397
12142SOL    HW248900   4.899   1.419   2.903 -0.5772  0.3862  1.0240
12143SOL     OW48901   6.845   6.387   2.149 -0.0950  0.1471  0.2861
12143SOL    HW148902   6.788   6.315   2.111  1.6972 -0.5398 -1.2090
12143SOL    HW248903   6.821   6.402   2.245 -1.1860 -1.7340  0.3280
12144SOL     OW48904   1.819   4.504   3.613  0.2731  0.0402  0.1413
12144SOL    HW148905   1.736   4.542   3.570  1.6121  1.9585 -0.8262
12144SOL    HW248906   1.853   4.569   3.681  0.0121 -1.5327  1.8089
12145SOL     OW48907   6.129   8.034   0.434 -0.5303  0.3469  0.4491
12145SOL    HW148908   6.228   8.046   0.426 -0.3144 -2.3867 -2.1871
12145SOL    HW248909   6.105   8.020   0.530  1.5790  1.5163  1.1744
12146SOL     OW48910   4.280   8.320   8.461  0.1192 -0.2767 -0.2135
12146SOL    HW148911   4.191   8.331   8.506  0.2232 -0.6855  0.0916
12146SOL    HW248912   4.327   8.240   8.498  0.4775 -0.2502 -0.6034
12147SOL     OW48913   7.723   1.995   8.026 -0.0505  0.2746 -0.2029
12147SOL    HW148914   7.635   1.951   8.040 -0.7958  1.0392 -2.3014
12147SOL    HW248915   7.796   1.928   8.035 -0.8815 -0.5271  0.7285
12148SOL     OW48916   0.025   8.232   8.704  0.3015 -0.6376  0.7285
12148SOL    HW148917  -0.051   8.188   8.753  1.2083 -2.7955  0.2399
12148SOL    HW248918   0.108   8.177   8.715  2.6479  3.2915  3.8795
12149SOL     OW48919   3.246   5.344   2.122 -0.3396 -0.6467  0.2351
12149SOL    HW148920   3.175   5.365   2.189  1.5332  1.0250  1.7217
12149SOL    HW248921   3.269   5.247   2.129 -2.0518 -1.0828  0.1351
12150SOL     OW48922   7.718   5.963   2.759  0.0561  0.0352  0.2022
12150SOL    HW148923   7.804   6.005   2.788 -1.0865  1.6279  1.3271
12150SOL    HW248924   7.665   5.937   2.840 -1.3896  0.8491 -0.4684
12151SOL     OW48925   4.554   7.641   6.786  0.0195 -0.8597 -0.2942
12151SOL    HW148926   4.561   7.730   6.742 -0.0428 -2.1737 -3.0855
12151SOL    HW248927   4.468   7.635   6.837 -0.2519  0.4627 -0.5947
12152SOL     OW48928   3.479   4.565   8.408 -0.0266  0.3998 -0.6164
12152SOL    HW148929   3.468   4.619   8.325  0.9939 -0.1705 -1.1397
12152SOL    HW248930   3.564   4.592   8.454  0.4015 -0.6240 -0.7890
12153SOL     OW48931   1.636   5.169   8.642 -0.1123 -0.2518 -0.1972
12153SOL    HW148932   1.670   5.260   8.667  0.0585 -0.1472 -0.7969
12153SOL    HW248933   1.602   5.122   8.724  0.6965 -0.0242  0.2792
12154SOL     OW48934   6.988   7.157   1.263  0.6689  0.5916  0.4106
12154SOL    HW148935   6.929   7.099   1.207  0.9158  1.0868 -0.3671
12154SOL    HW248936   6.977   7.253   1.236  1.5182  0.7345  0.5374
12155SOL     OW48937   4.007   3.981   1.423  0.1021  0.1779  0.2985
12155SOL    HW148938   3.938   4.028   1.476 -0.7800 -0.6044 -0.1421
12155SOL    HW248939   4.097   4.018   1.445 -0.4708  1.3462  0.7155
12156SOL     OW48940   5.145   3.614   0.427 -0.5688 -0.1836 -0.0136
12156SOL    HW148941   5.120   3.655   0.515  0.4262  1.9453 -0.6741
12156SOL    HW248942   5.063   3.594   0.374 -1.1209 -0.1601  0.8324
12157SOL     OW48943   1.920   0.760   8.866  0.2619 -0.4023  0.3757
12157SOL    HW148944   1.871   0.847   8.868  1.5141  0.3411 -0.2776
12157SOL    HW248945   1.930   0.725   8.959 -0.0092  0.3026  0.6738
12158SOL     OW48946   5.464   8.436   3.684  0.2673  0.0554 -0.0869
12158SOL    HW148947   5.413   8.484   3.755 -0.4177 -1.0851  0.2147
12158SOL    HW248948   5.561   8.460   3.690 -0.2176  2.3326 -0.7344
12159SOL     OW48949   7.829   5.480   5.310  0.0773 -0.3848  0.5961
12159SOL    HW148950   7.895   5.508   5.241 -0.0989  1.4681  1.1457
12159SOL    HW248951   7.736   5.501   5.278 -0.1044 -0.9518  0.7476
12160SOL     OW48952   5.095   0.454   2.241  0.2427  0.3359  0.1485
12160SOL    HW148953   5.165   0.492   2.302  1.2765  0.7199 -1.2636
12160SOL    HW248954   5.090   0.355   2.253 -0.2497  0.5236  1.5625
12161SOL     OW48955   5.437   3.753   1.892  0.6199  0.4809 -0.5304
12161SOL    HW148956   5.358   3.804   1.927  0.3657 -0.3014  0.0584
12161SOL    HW248957   5.474   3.695   1.965 -0.8645 -2.3396 -1.9561
12162SOL     OW48958   4.573   8.080   0.458 -0.4437 -0.4369 -0.1371
12162SOL    HW148959   4.663   8.096   0.497 -1.4561  1.4989  1.4742
12162SOL    HW248960   4.555   8.147   0.386 -1.7236  1.0595  1.5360
12163SOL     OW48961   7.285   0.989   6.314 -0.4192 -0.4335 -0.8188
12163SOL    HW148962   7.300   0.926   6.238  0.6722 -0.3065 -0.7210
12163SOL    HW248963   7.207   1.048   6.294 -0.5970 -0.9022 -1.5096
12164SOL     OW48964   3.258   2.280   7.581  0.7413 -0.1826 -0.0745
12164SOL    HW148965   3.246   2.188   7.544 -2.5234 -0.5375  1.6813
12164SOL    HW248966   3.296   2.274   7.673  0.8754  0.2553 -0.1023
12165SOL     OW48967   8.900   6.423   5.243 -0.0622 -0.1817  0.1429
12165SOL    HW148968   8.985   6.457   5.203 -0.0563  2.0099  1.9238
12165SOL    HW248969   8.920   6.382   5.332 -0.8206 -0.0421  0.3763
12166SOL     OW48970   6.064   4.331   2.959  0.5460 -0.3580  0.1261
12166SOL    HW148971   5.965   4.336   2.941  0.7030  0.1062 -0.6091
12166SOL    HW248972   6.084   4.373   3.048 -0.1192 -1.8767  1.0169
12167SOL     OW48973   6.118   5.893   7.878  0.2747  0.3739 -0.1532
12167SOL    HW148974   6.182   5.901   7.954  2.7165 -0.7998 -2.0451
12167SOL    HW248975   6.069   5.980   7.867  0.2283  0.7106  2.4109
12168SOL     OW48976   8.923   6.916   6.717  0.3804  0.5239  0.4432
12168SOL    HW148977   8.862   6.992   6.735  0.2260  0.7124 -0.8550
12168SOL    HW248978   8.870   6.834   6.695  0.5764  0.4492  0.2377
12169SOL     OW48979   6.758   1.223   1.397 -0.4269  0.1256  0.1141
12169SOL    HW148980   6.755   1.314   1.355 -0.3923 -0.3736 -1.0069
12169SOL    HW248981   6.799   1.159   1.332  1.4301 -0.2885  1.6623
12170SOL     OW48982   7.073   6.278   5.199  0.2085  0.1959  0.3566
12170SOL    HW148983   7.062   6.333   5.116 -1.0719  0.2144  0.5308
12170SOL    HW248984   7.013   6.197   5.194  0.8878 -0.3440  0.8083
12171SOL     OW48985   0.923   4.388   0.661  0.0518  0.1749  0.0138
12171SOL    HW148986   0.837   4.407   0.708  0.5664  0.7539  0.7429
12171SOL    HW248987   0.921   4.427   0.570 -0.8352 -0.6757 -0.3426
12172SOL     OW48988   1.912   6.782   1.557  0.0461  0.2595  0.1985
12172SOL    HW148989   1.927   6.723   1.478 -1.8102 -0.8291  0.6297
12172SOL    HW248990   1.913   6.878   1.527  1.0508 -0.0596 -0.8455
12173SOL     OW48991   2.464   6.332   2.387  0.0901  0.4259  0.0362
12173SOL    HW148992   2.463   6.428   2.361 -0.6918  0.6720  0.9455
12173SOL    HW248993   2.376   6.308   2.428 -0.5833 -1.2576 -2.2660
12174SOL     OW48994   0.076   6.692   5.102 -0.1226  0.0471 -0.2509
12174SOL    HW148995   0.115   6.688   5.194  0.4330 -0.6329 -0.5131
12174SOL    HW248996   0.107   6.776   5.057 -2.2263  1.5168  0.9854
12175SOL     OW48997   1.884   3.951   6.370  0.2132 -0.4685 -0.2513
12175SOL    HW148998   1.936   3.998   6.440  1.0304 -0.2445 -1.0023
12175SOL    HW248999   1.792   3.930   6.405  0.4767 -0.0104  0.7325
12176SOL     OW49000   1.191   7.605   4.288  0.2803  0.1354 -0.2785
12176SOL    HW149001   1.262   7.560   4.233  0.5090  1.4905 -1.1213
12176SOL    HW249002   1.226   7.621   4.380 -0.3400 -2.7577  0.5249
12177SOL     OW49003   8.498   1.360   6.592 -0.4332  0.2311 -0.6210
12177SOL    HW149004   8.535   1.445   6.555  0.2737  0.1278 -0.1678
12177SOL    HW249005   8.410   1.340   6.549  0.5984 -0.1621 -2.6001
12178SOL     OW49006   1.067   7.084   7.529 -0.5288  0.6260 -0.7322
12178SOL    HW149007   1.048   7.132   7.443 -0.8555  1.0617 -0.4218
12178SOL    HW249008   0.991   7.098   7.592 -0.2254  0.4284 -0.3228
12179SOL     OW49009   7.790   1.767   7.539  0.0580  0.1479  0.5232
12179SOL    HW149010   7.830   1.681   7.572  0.9101 -1.0482 -3.3390
12179SOL    HW249011   7.842   1.844   7.576  1.9683 -1.1537  0.6328
12180SOL     OW49012   0.184   5.618   4.909 -0.0497 -0.0661 -0.1727
12180SOL    HW149013   0.242   5.541   4.882 -0.4992 -0.1958 -0.7919
12180SOL    HW249014   0.236   5.703   4.905 -0.2210 -0.0218 -1.9207
12181SOL     OW49015   5.811   3.730   1.765  0.0198  0.6959 -0.4643
12181SOL    HW149016   5.767   3.679   1.839  1.2719  0.4189  0.0998
12181SOL    HW249017   5.857   3.666   1.703  1.1937  1.0921 -0.0157
12182SOL     OW49018   4.629   7.630   1.223  0.1606  0.5695 -0.2459
12182SOL    HW149019   4.533   7.603   1.232 -0.3111  1.8407 -1.4417
12182SOL    HW249020   4.649   7.655   1.128  2.3756 -2.3208 -0.6411
12183SOL     OW49021   6.109   1.733   2.066 -0.4808  0.4835  0.1648
12183SOL    HW149022   6.177   1.806   2.070 -1.0760  1.0927 -0.7602
12183SOL    HW249023   6.127   1.674   1.988 -1.4901  1.1237 -0.5635
12184SOL     OW49024   1.511   5.417   8.296  0.1227  0.5688  0.1653
12184SOL    HW149025   1.439   5.395   8.229 -0.1682  0.6850  0.4392
12184SOL    HW249026   1.470   5.430   8.386  0.5704 -0.0156  0.4553
12185SOL     OW49027   1.229   7.639   0.364  0.0696 -0.7529  0.1624
12185SOL    HW149028   1.135   7.639   0.397 -0.2110  1.5829 -0.5485
12185SOL    HW249029   1.240   7.570   0.292 -1.6662  0.4290 -1.2612
12186SOL     OW49030   7.979   7.295   4.581 -0.5810 -0.1306  0.2208
12186SOL    HW149031   7.888   7.324   4.553  0.2603  2.4565 -0.0352
12186SOL    HW249032   8.047   7.349   4.531  1.1671 -3.7738 -1.5105
12187SOL     OW49033   0.749   0.223   0.940  0.6081 -0.3072  0.3323
12187SOL    HW149034   0.769   0.135   0.898  2.1465  0.6010 -0.9149
12187SOL    HW249035   0.709   0.209   1.030 -0.2497 -2.2764 -0.3200
12188SOL     OW49036   0.474   4.491   4.766 -0.0374  0.2155 -0.1141
12188SOL    HW149037   0.505   4.396   4.777  3.0635  1.3095  1.1837
12188SOL    HW249038   0.402   4.494   4.697 -0.3684 -3.1119 -0.0239
12189SOL     OW49039   1.776   2.297   7.781  0.6119 -0.2061  0.0273
12189SOL    HW149040   1.732   2.315   7.693  0.0054 -0.6573  0.2392
12189SOL    HW249041   1.824   2.379   7.812 -0.1166  0.2999 -0.1797
12190SOL     OW49042   1.728   4.095   3.886 -0.5256  0.5166 -0.4710
12190SOL    HW149043   1.826   4.078   3.878 -1.0174 -1.2333 -4.4738
12190SOL    HW249044   1.685   4.019   3.935 -0.1101  0.3972 -0.2899
12191SOL     OW49045   8.210   5.327   6.362  0.3870  0.2907  0.4752
12191SOL    HW149046   8.240   5.400   6.301  1.8016 -0.8097 -0.1773
12191SOL    HW249047   8.111   5.334   6.375  0.4997  2.3355  0.4660
12192SOL     OW49048   6.909   5.525   5.568 -0.8356  0.0690  0.0362
12192SOL    HW149049   6.882   5.484   5.481  2.7758 -1.3449 -0.4817
12192SOL    HW249050   6.903   5.457   5.641  1.2064 -0.2689 -0.0855
12193SOL     OW49051   6.805   5.872   6.596  0.8571 -0.1743  0.4028
12193SOL    HW149052   6.886   5.844   6.647  0.1666 -0.7058  1.2295
12193SOL    HW249053   6.730   5.810   6.617 -0.2410  1.3124  0.9479
12194SOL     OW49054   3.793   7.227   5.494  0.0864  0.2214  0.0112
12194SOL    HW149055   3.882   7.194   5.524  1.1628  2.4570 -0.6038
12194SOL    HW249056   3.775   7.195   5.401  0.2250 -0.2902  0.1628
12195SOL     OW49057   3.099   5.499   1.210 -0.2326 -0.1962 -0.3190
12195SOL    HW149058   3.121   5.409   1.246  0.3672  0.0878  0.0449
12195SOL    HW249059   3.157   5.568   1.254 -0.0927  0.2627 -1.1997
12196SOL     OW49060   4.987   2.896   8.862  0.0405  0.2794 -0.2352
12196SOL    HW149061   4.988   2.893   8.762 -0.3517  2.7402 -0.3312
12196SOL    HW249062   5.051   2.828   8.897  3.7544  2.5675 -2.2458
12197SOL     OW49063   6.831   6.832   8.168  1.0175  0.1868  0.2119
12197SOL    HW149064   6.763   6.768   8.132  2.2666  0.0915 -2.0977
12197SOL    HW249065   6.792   6.883   8.245 -1.8897  0.6365 -1.4942
12198SOL     OW49066   3.304   2.421   5.397 -0.0395 -0.0304 -0.2368
12198SOL    HW149067   3.281   2.324   5.395 -0.4876  0.0869 -3.6490
12198SOL    HW249068   3.402   2.431   5.418 -0.3005 -1.1158  1.6162
12199SOL     OW49069   2.670   8.772   7.944 -0.3000 -0.0705  0.0587
12199SOL    HW149070   2.621   8.829   7.878 -1.1869  0.7928  1.4614
12199SOL    HW249071   2.741   8.826   7.988 -1.3433  0.0540  1.6190
12200SOL     OW49072   2.386   1.080   8.279 -0.0071 -0.4621  0.1268
12200SOL    HW149073   2.447   1.003   8.256 -2.7089 -2.3165 -1.0967
12200SOL    HW249074   2.334   1.058   8.361 -1.9996 -0.6972 -1.1606
12201SOL     OW49075   6.814   5.782   2.474 -0.1452  0.4009 -0.2278
12201SOL    HW149076   6.840   5.825   2.388 -1.0740  0.5369 -0.4392
12201SOL    HW249077   6.873   5.816   2.547  0.0361  0.9782 -0.6413
12202SOL     OW49078   8.527   6.633   8.532 -0.0347 -0.1118 -0.0816
12202SOL    HW149079   8.494   6.540   8.549  0.0398 -0.1322 -0.0534
12202SOL    HW249080   8.505   6.659   8.438 -1.1380  0.2877  0.2718
12203SOL     OW49081   3.295   2.442   4.738  0.0942 -0.0218  0.3220
12203SOL    HW149082   3.284   2.534   4.775 -1.9096 -0.2788  0.4457
12203SOL    HW249083   3.214   2.418   4.684 -0.0146 -2.1668  1.3520
12204SOL     OW49084   4.096   6.245   6.208  0.0135 -0.6065  0.9359
12204SOL    HW149085   4.175   6.306   6.214  0.3937 -1.1997  2.2201
12204SOL    HW249086   4.013   6.295   6.234  0.1757 -0.3789  1.0142
12205SOL     OW49087   0.082   2.910   5.794  0.0294 -0.1721 -0.1731
12205SOL    HW149088   0.075   2.871   5.885 -1.2065  0.6473  0.1029
12205SOL    HW249089   0.072   2.838   5.725 -3.0523 -0.2895  0.3104
12206SOL     OW49090   1.235   5.549   7.352 -0.4892 -0.0607 -0.2970
12206SOL    HW149091   1.236   5.453   7.380 -0.3737  0.1090  0.2795
12206SOL    HW249092   1.200   5.605   7.427  1.9922  0.6723  0.3606
12207SOL     OW49093   2.715   1.719   7.683 -0.2807 -0.5676  0.1922
12207SOL    HW149094   2.758   1.631   7.661  0.4776 -0.5968  1.7312
12207SOL    HW249095   2.681   1.716   7.777  0.7200  1.1695  0.6123
12208SOL     OW49096   7.679   3.299   3.165  0.3657 -0.7528 -0.1055
12208SOL    HW149097   7.686   3.317   3.263  1.5349  0.6163 -0.4236
12208SOL    HW249098   7.589   3.326   3.133  0.0816 -0.9258  0.5300
12209SOL     OW49099   0.934   2.071   8.605 -0.4655 -0.0619  0.0693
12209SOL    HW149100   0.951   1.973   8.614  0.9575  0.1368 -0.3089
12209SOL    HW249101   0.910   2.110   8.694 -1.9710 -0.9075  0.0577
12210SOL     OW49102   8.963   3.488   0.642  0.2886  0.6580  0.3263
12210SOL    HW149103   8.916   3.571   0.674 -2.3026 -1.3894  2.0191
12210SOL    HW249104   8.897   3.428   0.596  1.7724 -1.2357  0.6292
12211SOL     OW49105   1.053   4.637   7.796  0.2212 -0.6344 -0.2126
12211SOL    HW149106   0.971   4.603   7.843 -1.4097  0.6748 -1.9790
12211SOL    HW249107   1.074   4.576   7.719 -0.7944  0.5562 -1.4507
12212SOL     OW49108   2.605   2.980   1.060 -0.1440 -0.0910  0.2897
12212SOL    HW149109   2.511   2.970   1.092  0.1457  0.1221  1.2201
12212SOL    HW249110   2.653   2.892   1.069  0.3714  0.3367  1.8730
12213SOL     OW49111   8.806   4.810   7.133 -0.1180 -0.0247 -0.4317
12213SOL    HW149112   8.897   4.788   7.099  1.5761 -0.0560  3.7593
12213SOL    HW249113   8.803   4.906   7.161 -1.5520  0.1285 -1.0447
12214SOL     OW49114   4.603   3.170   2.126 -0.5466 -0.3725  0.0284
12214SOL    HW149115   4.612   3.137   2.032  2.1657 -1.0248  0.4640
12214SOL    HW249116   4.691   3.208   2.156 -1.0820 -1.0672  2.6055
12215SOL     OW49117   0.333   5.073   3.012  0.5923  0.2736  0.4695
12215SOL    HW149118   0.263   5.056   3.081  0.7553 -1.1373  0.3044
12215SOL    HW249119   0.350   4.989   2.960 -1.0250  1.7943 -2.6868
12216SOL     OW49120   4.354   4.110   5.387 -0.0578  0.1200  0.3949
12216SOL    HW149121   4.379   4.078   5.478 -2.7416 -0.0478  1.1119
12216SOL    HW249122   4.326   4.032   5.331  0.4750  0.3677 -0.2323
12217SOL     OW49123   0.624   0.621   6.867 -0.0426  0.3201  0.1662
12217SOL    HW149124   0.597   0.717   6.854 -0.8899 -0.1672 -1.7328
12217SOL    HW249125   0.720   0.611   6.840  0.3786  0.8274  1.3906
12218SOL     OW49126   3.736   5.152   2.460 -1.5059  0.6545  0.0312
12218SOL    HW149127   3.804   5.114   2.522 -0.8152  1.1667 -0.4133
12218SOL    HW249128   3.726   5.093   2.380 -1.7619  0.4536  0.2103
12219SOL     OW49129   2.170   6.180   1.645 -0.4549  0.6114  0.0060
12219SOL    HW149130   2.218   6.264   1.622  1.6926 -0.0874  1.7275
12219SOL    HW249131   2.089   6.171   1.587 -0.0451  3.2150 -1.0541
12220SOL     OW49132   3.685   3.232   2.308 -0.2489  0.5797 -1.1485
12220SOL    HW149133   3.618   3.209   2.238  0.1130 -2.3773 -0.5700
12220SOL    HW249134   3.760   3.166   2.305  1.1561  2.0832  0.1879
12221SOL     OW49135   6.250   0.238   7.769  0.2302  0.0378  0.0491
12221SOL    HW149136   6.295   0.249   7.680 -1.3590  1.5331 -0.5798
12221SOL    HW249137   6.237   0.141   7.787  1.3793 -0.3194 -0.9357
12222SOL     OW49138   2.862   5.321   8.420 -0.3085 -0.0173  0.5176
12222SOL    HW149139   2.829   5.268   8.498 -2.2845  1.3240  0.6335
12222SOL    HW249140   2.859   5.418   8.442  0.5963  0.2942 -0.6891
12223SOL     OW49141   0.497   1.847   6.492 -0.1852  0.7187  0.2917
12223SOL    HW149142   0.501   1.807   6.584 -1.1338  2.0925  0.9530
12223SOL    HW249143   0.446   1.933   6.496 -1.4628  0.0943 -1.7771
12224SOL     OW49144   8.261   7.459   3.905 -0.4860 -0.1343 -0.8980
12224SOL    HW149145   8.169   7.451   3.866 -0.4614 -1.8594 -0.6456
12224SOL    HW249146   8.258   7.433   4.002  0.4050 -0.9715 -1.0893
12225SOL     OW49147   7.037   2.905   2.990 -1.1121  0.0984  0.1812
12225SOL    HW149148   6.986   2.990   3.004 -0.6250  0.0158  2.6395
12225SOL    HW249149   7.048   2.858   3.078  0.0526 -1.6878 -0.8987
12226SOL     OW49150   5.487   6.648   0.870  0.0213 -0.4310  0.6068
12226SOL    HW149151   5.478   6.692   0.781  0.5591 -1.6177 -0.0458
12226SOL    HW249152   5.556   6.695   0.924  0.0916 -0.0518  0.1905
12227SOL     OW49153   8.023   7.405   5.438  0.4395 -0.4480  0.0236
12227SOL    HW149154   8.017   7.504   5.427  1.5106 -0.2537  1.1077
12227SOL    HW249155   8.048   7.363   5.351  2.0166  0.4316  0.0348
12228SOL     OW49156   2.240   7.978   1.581 -0.2069 -0.1417 -0.2658
12228SOL    HW149157   2.177   8.046   1.616  0.9840 -0.6478  3.0887
12228SOL    HW249158   2.228   7.892   1.631  2.5562 -0.4751 -0.0754
12229SOL     OW49159   4.926   8.793   8.605 -0.2038  0.3242 -0.0431
12229SOL    HW149160   5.025   8.793   8.594  0.0654 -0.3500  2.0974
12229SOL    HW249161   4.903   8.814   8.701 -2.1184  0.3089 -0.4759
12230SOL     OW49162   4.928   6.322   0.636 -0.0314  0.5692  0.1955
12230SOL    HW149163   4.999   6.257   0.608 -0.5986  0.0281 -0.0043
12230SOL    HW249164   4.857   6.326   0.566 -1.8419 -1.3599  1.8182
12231SOL     OW49165   8.333   0.489   5.009 -0.4041  0.4939 -0.1449
12231SOL    HW149166   8.410   0.539   4.969  0.2906 -1.9592 -1.9502
12231SOL    HW249167   8.276   0.452   4.936 -1.9008  0.1536  1.1811
12232SOL     OW49168   7.482   6.252   6.187  1.0320 -0.3383  0.6675
12232SOL    HW149169   7.497   6.190   6.110  0.6848 -0.3262  0.5880
12232SOL    HW249170   7.410   6.215   6.246  0.1047  0.4845  0.0761
12233SOL     OW49171   0.297   4.993   6.022  0.0300  0.4805 -0.1188
12233SOL    HW149172   0.322   4.898   6.038 -0.0785  0.1635 -1.7383
12233SOL    HW249173   0.197   5.001   6.019  0.0146  0.8447  1.1162
12234SOL     OW49174   3.292   5.506   5.237 -0.0600  0.2995 -0.3622
12234SOL    HW149175   3.379   5.512   5.285 -0.0781 -1.2245 -0.1152
12234SOL    HW249176   3.307   5.482   5.142 -0.2161 -0.1613 -0.2730
12235SOL     OW49177   3.435   1.402   4.710  0.2559 -0.6388 -0.2850
12235SOL    HW149178   3.355   1.343   4.720 -0.8841  0.5940 -1.9060
12235SOL    HW249179   3.514   1.347   4.685 -0.6107 -1.5907 -0.9794
12236SOL     OW49180   4.721   8.688   1.331  0.0973 -0.2460  0.2753
12236SOL    HW149181   4.771   8.619   1.280 -0.4153 -0.8916  0.6468
12236SOL    HW249182   4.652   8.645   1.389  0.1017  0.5401  0.8818
12237SOL     OW49183   7.900   0.637   5.920  0.3018  0.4276  0.3084
12237SOL    HW149184   7.992   0.602   5.902 -0.2210  0.0175 -1.6500
12237SOL    HW249185   7.891   0.730   5.885 -0.0633  0.4274  0.3935
12238SOL     OW49186   6.235   1.447   0.753 -0.0871 -0.1109  0.2171
12238SOL    HW149187   6.289   1.503   0.691  0.1619  0.9975  1.4245
12238SOL    HW249188   6.142   1.485   0.760 -0.2107 -0.4206  0.2736
12239SOL     OW49189   1.041   2.444   2.775  0.2395  0.3729  0.4825
12239SOL    HW149190   0.978   2.374   2.741 -3.2000  3.1100  1.0517
12239SOL    HW249191   1.046   2.438   2.875 -0.6953  1.4809  0.5927
12240SOL     OW49192   4.964   2.665   1.302  0.2520 -0.3519  0.1708
12240SOL    HW149193   4.959   2.566   1.314  1.5367 -0.5942 -1.1482
12240SOL    HW249194   4.997   2.686   1.210  0.8510  1.2937  0.7356
12241SOL     OW49195   5.478   6.915   0.326  0.2625 -0.0547 -0.4198
12241SOL    HW149196   5.394   6.918   0.272  0.3642  0.5131 -0.5471
12241SOL    HW249197   5.555   6.945   0.271  0.3559  0.5847  0.0509
12242SOL     OW49198   3.352   7.456   2.867  0.4503  0.0269  0.1728
12242SOL    HW149199   3.312   7.392   2.932  2.5043  0.2551  1.6870
12242SOL    HW249200   3.430   7.414   2.822  1.9300  1.5213  1.3209
12243SOL     OW49201   1.141   8.429   7.216  0.5059 -0.7411 -0.3220
12243SOL    HW149202   1.102   8.364   7.150  2.6532 -0.9873 -1.3690
12243SOL    HW249203   1.176   8.379   7.295 -1.7623 -0.4715  0.8983
12244SOL     OW49204   8.773   6.519   1.320  0.8809  0.0504  0.4101
12244SOL    HW149205   8.741   6.540   1.413  1.0174  1.9752  0.0322
12244SOL    HW249206   8.707   6.458   1.276 -1.3550  2.4724  0.3147
12245SOL     OW49207   1.288   6.903   1.717 -0.9338  0.6911 -0.2622
12245SOL    HW149208   1.191   6.929   1.720 -0.9108  0.9965 -1.7937
12245SOL    HW249209   1.305   6.846   1.637  0.2585  1.0490 -0.2751
12246SOL     OW49210   5.973   4.030   2.848 -0.7537 -0.0355 -0.1644
12246SOL    HW149211   5.980   4.112   2.903 -0.4913 -0.7571  0.8874
12246SOL    HW249212   5.903   3.969   2.885 -0.8174 -0.3713 -0.8174
12247SOL     OW49213   0.191   4.237   1.106  0.7483  0.5156 -0.2155
12247SOL    HW149214   0.246   4.292   1.167  0.8928 -0.7477  0.8187
12247SOL    HW249215   0.235   4.231   1.017  0.0837  3.1219 -0.7672
12248SOL     OW49216   0.335   0.156   0.517 -0.7404  0.3959  0.1761
12248SOL    HW149217   0.283   0.112   0.444 -0.4347 -0.6925  0.6060
12248SOL    HW249218   0.376   0.241   0.483 -0.6369 -0.0791 -0.8924
12249SOL     OW49219   0.277   4.763   3.554 -0.0889 -0.2589 -0.6289
12249SOL    HW149220   0.255   4.859   3.541 -2.0219 -0.4644  0.9137
12249SOL    HW249221   0.273   4.715   3.466  0.9844  1.0596 -1.4167
12250SOL     OW49222   5.733   3.875   2.523 -0.5433  0.1672 -0.0305
12250SOL    HW149223   5.708   3.923   2.439 -0.8957  0.4306  0.2227
12250SOL    HW249224   5.713   3.933   2.602  3.1857  1.4492  0.0978
12251SOL     OW49225   4.318   2.071   7.450 -0.4686 -0.1697  0.1328
12251SOL    HW149226   4.350   2.005   7.519  2.2339  0.6654 -0.2603
12251SOL    HW249227   4.397   2.119   7.411 -2.2740  2.1331 -0.7766
12252SOL     OW49228   0.412   4.250   2.955 -0.5105  0.2192 -0.0325
12252SOL    HW149229   0.329   4.301   2.934  0.4983  1.5437 -0.8162
12252SOL    HW249230   0.405   4.158   2.916 -1.1163  0.7211 -1.1235
12253SOL     OW49231   0.671   7.011   7.915 -0.1416  0.0609 -0.3506
12253SOL    HW149232   0.572   7.018   7.929  0.0361 -0.5684  1.3286
12253SOL    HW249233   0.695   6.917   7.894  0.2045  0.0277  0.1771
12254SOL     OW49234   2.038   7.736   3.826  0.2659  0.0571 -0.2883
12254SOL    HW149235   1.994   7.816   3.785  0.3100  0.8994  1.2936
12254SOL    HW249236   1.971   7.686   3.882  1.1463  1.0437  1.6935
12255SOL     OW49237   3.234   6.095   8.365 -0.3078  0.3854 -0.1326
12255SOL    HW149238   3.228   6.006   8.411  3.1678  0.6848  1.0722
12255SOL    HW249239   3.275   6.083   8.275 -0.7608  0.6316 -0.3705
12256SOL     OW49240   3.309   1.902   7.786  0.0114  0.5429 -0.6392
12256SOL    HW149241   3.265   1.854   7.710 -0.4415  1.0125 -0.6772
12256SOL    HW249242   3.394   1.943   7.755 -0.2487  0.8607 -0.9314
12257SOL     OW49243   0.734   5.515   5.698  0.1383 -0.0526  0.2764
12257SOL    HW149244   0.646   5.481   5.733 -0.4102 -0.2808 -1.2907
12257SOL    HW249245   0.789   5.550   5.774 -1.7242  1.0435  1.1452
12258SOL     OW49246   2.669   1.510   6.025  0.2829 -0.2767  0.1619
12258SOL    HW149247   2.644   1.518   6.121 -1.3414 -0.5071 -0.2308
12258SOL    HW249248   2.697   1.599   5.989  0.0475 -0.0242  0.6136
12259SOL     OW49249   2.159   5.728   3.378  0.4163  0.1731  0.2526
12259SOL    HW149250   2.077   5.695   3.332  0.6175 -0.0227  0.0305
12259SOL    HW249251   2.225   5.758   3.309  0.6761 -0.0216  0.4168
12260SOL     OW49252   3.362   2.718   1.570 -0.0782  0.1598 -0.6071
12260SOL    HW149253   3.379   2.721   1.471  1.7345  0.8245 -0.2809
12260SOL    HW249254   3.425   2.779   1.617 -0.6551 -0.4663  1.0122
12261SOL     OW49255   7.173   3.886   1.359  0.3174 -0.4885 -0.4837
12261SOL    HW149256   7.089   3.900   1.411 -0.4560  0.9399 -2.1119
12261SOL    HW249257   7.162   3.807   1.298 -0.4744  0.7676 -1.9817
12262SOL     OW49258   3.932   6.855   4.307  0.0582  0.6910  0.4972
12262SOL    HW149259   3.961   6.950   4.314 -0.0929  0.5955  2.6436
12262SOL    HW249260   3.999   6.796   4.353  0.0597 -0.2275 -0.6653
12263SOL     OW49261   8.374   3.470   3.200  0.1724  0.0559 -0.3101
12263SOL    HW149262   8.429   3.429   3.127 -1.0279 -0.8463 -0.7294
12263SOL    HW249263   8.282   3.433   3.197 -0.3306  1.1747  0.7050
12264SOL     OW49264   1.600   7.656   8.241 -0.0539  0.5288  0.4263
12264SOL    HW149265   1.540   7.723   8.198 -0.0928  0.9657  1.1609
12264SOL    HW249266   1.558   7.623   8.326 -0.3737 -0.9604 -0.2936
12265SOL     OW49267   4.161   2.290   8.156 -0.1999 -0.1277 -0.5753
12265SOL    HW149268   4.242   2.332   8.196  0.9427 -3.6579  1.0226
12265SOL    HW249269   4.157   2.310   8.059  1.7272  1.4005 -0.3692
12266SOL     OW49270   4.484   4.284   4.738  0.2126 -0.0175  0.2157
12266SOL    HW149271   4.545   4.211   4.768 -0.6558 -0.8805 -0.0788
12266SOL    HW249272   4.489   4.292   4.638  1.0657  1.0064  0.3442
12267SOL     OW49273   7.100   2.685   2.686 -0.0282 -0.3864  0.3138
12267SOL    HW149274   7.042   2.766   2.699  0.2397 -0.0336 -0.6051
12267SOL    HW249275   7.050   2.603   2.714  0.1292  0.2001  2.4174
12268SOL     OW49276   1.016   3.498   8.733  0.4741 -0.0228  0.6222
12268SOL    HW149277   0.976   3.472   8.645  2.4067 -0.3343 -0.2100
12268SOL    HW249278   0.950   3.550   8.786 -1.0839 -0.7357 -0.5844
12269SOL     OW49279   3.603   7.494   4.766 -0.4025 -0.1953 -0.2067
12269SOL    HW149280   3.695   7.487   4.804 -1.0469 -1.0096  1.2576
12269SOL    HW249281   3.603   7.560   4.691  1.6934 -1.3048 -1.2438
12270SOL     OW49282   8.821   5.169   6.086  0.0265 -0.6227 -0.3819
12270SOL    HW149283   8.728   5.168   6.050 -1.3313 -0.5534  2.9748
12270SOL    HW249284   8.854   5.263   6.094 -0.5322 -0.5117  0.6621
12271SOL     OW49285   0.739   1.595   4.968  0.5826 -0.4319 -0.0980
12271SOL    HW149286   0.743   1.688   5.005  1.2867 -0.3333 -0.4120
12271SOL    HW249287   0.708   1.599   4.873  0.4572 -0.5311 -0.0606
12272SOL     OW49288   0.269   7.806   5.154  0.4028 -0.0794 -0.3099
12272SOL    HW149289   0.265   7.766   5.246  2.9661 -1.0549 -0.5941
12272SOL    HW249290   0.253   7.904   5.160 -0.4458 -0.2859  1.0457
12273SOL     OW49291   0.393   5.575   3.538  0.0962  0.3371  0.2549
12273SOL    HW149292   0.304   5.546   3.501 -0.5367  1.8505  0.5376
12273SOL    HW249293   0.450   5.609   3.464 -0.3394  1.2967  0.3580
12274SOL     OW49294   4.401   4.112   7.333  0.0878 -0.1978 -0.1519
12274SOL    HW149295   4.377   4.135   7.238 -0.0090 -0.3025 -0.1525
12274SOL    HW249296   4.322   4.127   7.392 -0.0356 -0.7303 -0.1830
12275SOL     OW49297   6.045   2.995   7.974  0.7814 -0.3181 -0.3090
12275SOL    HW149298   5.951   2.972   7.947  0.3368  2.1018 -0.9262
12275SOL    HW249299   6.050   3.002   8.074  0.4124 -0.9017 -0.2492
12276SOL     OW49300   3.647   2.001   5.042 -0.4785  0.2975 -0.2869
12276SOL    HW149301   3.563   2.022   4.992 -0.4818 -0.7187 -0.7294
12276SOL    HW249302   3.719   2.065   5.016 -0.9485  0.8040 -0.3441
12277SOL     OW49303   4.469   6.290   0.540  0.3989 -1.0192 -0.3392
12277SOL    HW149304   4.399   6.340   0.591  2.2472  1.6746 -0.3646
12277SOL    HW249305   4.429   6.254   0.456 -1.3051 -0.8078  0.3580
12278SOL     OW49306   6.305   1.937   8.218 -0.1713 -0.7204  0.0047
12278SOL    HW149307   6.297   1.988   8.131 -0.4614  0.8985  0.9575
12278SOL    HW249308   6.399   1.941   8.250 -0.4017  0.1667  0.6163
12279SOL     OW49309   4.044   3.790   3.539  0.4113  0.0176 -0.0108
12279SOL    HW149310   4.021   3.848   3.616  0.3648  2.8816 -2.0989
12279SOL    HW249311   4.142   3.798   3.519  0.2487  0.0172 -0.8204
12280SOL     OW49312   5.842   1.392   0.702 -0.3566 -0.0360 -0.6620
12280SOL    HW149313   5.760   1.378   0.758  0.1360  1.1689  0.3991
12280SOL    HW249314   5.817   1.438   0.617 -0.9734 -0.9436 -0.9744
12281SOL     OW49315   7.593   8.589   1.749 -0.1300  0.2837  0.7123
12281SOL    HW149316   7.600   8.491   1.769  0.9617  0.4993  1.4065
12281SOL    HW249317   7.499   8.610   1.721 -0.3282 -0.9891  0.3676
12282SOL     OW49318   7.158   2.512   5.530 -0.3416  0.2955  0.1522
12282SOL    HW149319   7.167   2.553   5.439  0.6057  0.8780  0.5080
12282SOL    HW249320   7.102   2.570   5.588 -1.6410 -0.4801 -0.2946
12283SOL     OW49321   3.067   6.602   8.689  0.0817 -0.3435 -0.0905
12283SOL    HW149322   3.036   6.637   8.600 -0.8434 -0.3016  0.2450
12283SOL    HW249323   3.033   6.661   8.762  0.9920 -0.2770  0.2869
12284SOL     OW49324   5.797   3.441   8.788  0.4725  0.1480  0.1273
12284SOL    HW149325   5.773   3.514   8.723  0.8181 -1.7597 -2.2035
12284SOL    HW249326   5.818   3.482   8.876  0.3643  2.8672 -1.0414
12285SOL     OW49327   6.803   3.716   0.963  0.4518  0.0743  0.0314
12285SOL    HW149328   6.782   3.634   0.910 -2.6144  0.8572 -0.0900
12285SOL    HW249329   6.821   3.692   1.058 -1.5077 -0.7073  0.2426
12286SOL     OW49330   2.384   7.263   7.989 -0.0425  0.2273  0.0003
12286SOL    HW149331   2.395   7.171   7.950  1.0410 -0.2050  1.3066
12286SOL    HW249332   2.468   7.314   7.975  0.1073  0.3003  1.1748
12287SOL     OW49333   4.662   2.879   5.924  0.0954  0.4041 -0.3120
12287SOL    HW149334   4.607   2.844   5.849 -0.2753 -0.3149  0.2937
12287SOL    HW249335   4.700   2.803   5.976  0.5290  0.9002  0.1045
12288SOL     OW49336   8.561   2.734   4.898  0.2862 -0.0389  0.0029
12288SOL    HW149337   8.631   2.759   4.965 -1.0400  1.8910  0.6912
12288SOL    HW249338   8.592   2.760   4.807  0.0873  1.6483  0.4062
12289SOL     OW49339   8.418   2.238   0.378 -0.3679 -0.2447  0.3230
12289SOL    HW149340   8.507   2.194   0.373  0.3343  1.1404  0.4254
12289SOL    HW249341   8.397   2.259   0.474  0.0425  1.1210  0.1194
12290SOL     OW49342   3.096   6.394   4.649 -0.5140 -0.2195 -0.5038
12290SOL    HW149343   3.016   6.403   4.708 -0.4363  1.4512 -0.6256
12290SOL    HW249344   3.079   6.438   4.561 -0.0693 -1.3488 -1.1695
12291SOL     OW49345   1.018   0.262   4.688 -0.5500 -0.4118 -0.5522
12291SOL    HW149346   0.986   0.178   4.644 -0.4435 -0.7483  0.0221
12291SOL    HW249347   1.017   0.336   4.621 -1.3116 -0.7086 -0.8741
12292SOL     OW49348   8.320   0.760   6.458  0.2252 -0.0450  0.5758
12292SOL    HW149349   8.363   0.830   6.402  0.1357 -0.6570 -0.2573
12292SOL    HW249350   8.286   0.801   6.543  1.8412  0.5650  0.9407
12293SOL     OW49351   6.244   0.223   3.715 -0.2105  0.0705  0.1552
12293SOL    HW149352   6.240   0.245   3.812 -1.1131  0.1945  0.0987
12293SOL    HW249353   6.323   0.268   3.674  0.8181 -0.9111  1.0566
12294SOL     OW49354   2.948   4.122   5.540 -0.2356 -0.1374  0.5974
12294SOL    HW149355   2.870   4.148   5.482 -2.4249  2.3661  4.4300
12294SOL    HW249356   3.022   4.187   5.525 -1.1388  1.0662  1.2305
12295SOL     OW49357   0.545   6.813   0.758 -0.1532  0.2460 -0.1248
12295SOL    HW149358   0.471   6.812   0.825 -0.0162 -1.2547  0.0188
12295SOL    HW249359   0.525   6.747   0.685 -0.0814  1.5223 -1.3292
12296SOL     OW49360   5.053   3.860   8.451 -0.4712 -0.5669  0.4151
12296SOL    HW149361   4.957   3.883   8.434 -1.0083 -1.0389  2.6963
12296SOL    HW249362   5.066   3.762   8.435 -0.4289 -0.5539  0.3698
12297SOL     OW49363   0.461   6.651   1.961  0.2075  0.3978 -0.1436
12297SOL    HW149364   0.539   6.664   1.900  1.2604  0.2959  1.1585
12297SOL    HW249365   0.492   6.652   2.056 -0.8877 -2.8169  0.3125
12298SOL     OW49366   3.084   6.432   8.255 -0.2814 -0.0966 -0.2198
12298SOL    HW149367   3.013   6.387   8.308 -0.5331 -0.6080 -0.9833
12298SOL    HW249368   3.082   6.399   8.161 -0.2280  1.2370 -0.7060
12299SOL     OW49369   6.151   6.863   0.247  0.3009  0.3023  0.0341
12299SOL    HW149370   6.229   6.875   0.309 -0.3096 -0.2487  0.9189
12299SOL    HW249371   6.067   6.894   0.292 -0.3298 -1.1988 -0.0528
12300SOL     OW49372   2.145   6.423   2.126 -0.1142 -0.0793  0.0126
12300SOL    HW149373   2.140   6.470   2.214  0.4400 -0.9214  0.4975
12300SOL    HW249374   2.062   6.442   2.073 -0.4166  0.4801  0.6807
12301SOL     OW49375   2.671   6.942   3.840 -0.1918 -0.3039  0.5933
12301SOL    HW149376   2.761   6.986   3.839  0.3595 -1.3864  1.4821
12301SOL    HW249377   2.606   7.001   3.889  1.0211 -1.2959  3.5488
12302SOL     OW49378   7.435   5.527   1.426  0.0696 -0.5690 -0.1687
12302SOL    HW149379   7.535   5.532   1.425  0.0062  1.0247 -0.5510
12302SOL    HW249380   7.406   5.433   1.441  1.6235 -0.8599  1.1107
12303SOL     OW49381   0.625   8.026   1.397 -0.0715 -0.1087  0.1818
12303SOL    HW149382   0.550   7.980   1.350 -0.2183  0.4615 -0.1420
12303SOL    HW249383   0.597   8.050   1.490  0.0674 -0.8309  0.4173
12304SOL     OW49384   4.182   1.074   5.492 -0.3447 -0.3689 -0.5607
12304SOL    HW149385   4.181   1.139   5.415  0.9173 -1.4077 -1.4720
12304SOL    HW249386   4.096   1.024   5.494 -1.9222  2.2630  0.9941
12305SOL     OW49387   2.715   3.926   6.535 -0.1132  0.6728  0.0123
12305SOL    HW149388   2.652   4.004   6.539  0.2973  1.0597 -1.0711
12305SOL    HW249389   2.795   3.950   6.481 -0.4871 -0.8478 -1.2469
12306SOL     OW49390   7.376   3.994   7.858  0.2200  0.3247  0.3329
12306SOL    HW149391   7.398   4.083   7.898 -0.7100 -0.4906  2.7434
12306SOL    HW249392   7.280   3.992   7.831 -0.2010 -0.4982  1.8489
12307SOL     OW49393   1.374   7.032   4.706  0.0863 -0.1021  0.0841
12307SOL    HW149394   1.396   7.129   4.712 -2.2087  0.3964  1.2291
12307SOL    HW249395   1.454   6.981   4.674  1.2335  2.1787 -0.7906
12308SOL     OW49396   3.400   2.316   8.457 -0.0732 -0.4641 -0.3035
12308SOL    HW149397   3.442   2.264   8.531  2.2370  0.4300 -0.9563
12308SOL    HW249398   3.353   2.396   8.494 -0.4378 -0.9616  0.3287
12309SOL     OW49399   5.659   3.141   8.447  0.3550  0.1768  0.0555
12309SOL    HW149400   5.584   3.089   8.406 -0.9729  0.9137  1.4983
12309SOL    HW249401   5.745   3.092   8.433 -0.4007 -0.7672 -1.4735
12310SOL     OW49402   4.034   0.053   5.948  0.0655 -0.1775  0.1588
12310SOL    HW149403   4.127   0.078   5.973  0.3158 -0.7041 -0.2361
12310SOL    HW249404   3.993  -0.003   6.021  0.5290 -1.0729 -0.2589
12311SOL     OW49405   8.022   0.927   2.189  0.0073  0.5048 -0.1316
12311SOL    HW149406   7.969   0.856   2.236  1.6208 -0.1174  0.7939
12311SOL    HW249407   7.968   0.963   2.113 -2.3522  0.9527  1.6610
12312SOL     OW49408   2.379   2.924   3.219 -0.5824  0.1567 -0.2026
12312SOL    HW149409   2.444   2.942   3.145  0.0990  0.4874  0.4741
12312SOL    HW249410   2.333   3.009   3.245 -0.7433  0.0584 -0.1616
12313SOL     OW49411   0.285   5.361   3.940  0.3148 -0.2229  0.5935
12313SOL    HW149412   0.247   5.388   4.029  0.3256  0.8773  0.2719
12313SOL    HW249413   0.324   5.442   3.895 -0.8498 -0.5304 -0.9776
12314SOL     OW49414   3.768   1.548   8.219 -0.3131  0.2499  0.4998
12314SOL    HW149415   3.787   1.593   8.132 -2.0417  0.1357  0.0459
12314SOL    HW249416   3.807   1.456   8.218  1.2330  0.8837  0.5548
12315SOL     OW49417   5.573   8.787   7.676  0.2403  0.4953  0.5377
12315SOL    HW149418   5.487   8.775   7.726 -0.8622 -1.3872 -1.7241
12315SOL    HW249419   5.567   8.742   7.587  2.8505  2.1078 -0.5324
12316SOL     OW49420   3.808   0.235   5.859 -0.3386  0.0601 -0.1777
12316SOL    HW149421   3.876   0.168   5.889  0.5863  0.8765 -0.4587
12316SOL    HW249422   3.832   0.325   5.893 -1.1539  0.4017 -0.4844
12317SOL     OW49423   2.661   6.660   2.703  0.0256 -0.0151 -0.0251
12317SOL    HW149424   2.664   6.660   2.603  1.7138  0.3102  0.0173
12317SOL    HW249425   2.712   6.582   2.738  0.0961  0.3003  0.5859
12318SOL     OW49426   8.163   8.234   4.382 -0.0943 -0.1450  0.8954
12318SOL    HW149427   8.181   8.236   4.481 -0.0448  0.4043  0.8767
12318SOL    HW249428   8.066   8.214   4.366 -0.1330 -0.0908  1.0582
12319SOL     OW49429   1.825   7.150   6.262 -0.4994 -0.6152 -0.2216
12319SOL    HW149430   1.905   7.108   6.219 -0.4974  1.9733 -2.9406
12319SOL    HW249431   1.742   7.105   6.230 -0.2566 -2.3535  1.4847
12320SOL     OW49432   7.209   2.850   5.576  0.3383  0.6966  0.1805
12320SOL    HW149433   7.152   2.773   5.606 -0.7433  1.3802 -0.0692
12320SOL    HW249434   7.296   2.848   5.624  0.1405 -0.4359  0.5022
12321SOL     OW49435   1.164   0.372   6.367 -0.6841 -0.3265  0.2016
12321SOL    HW149436   1.124   0.389   6.456  0.3172 -1.9552  0.9804
12321SOL    HW249437   1.095   0.331   6.306 -1.1720  0.1493  0.4338
12322SOL     OW49438   0.720   2.034   7.937 -0.2904 -0.2904 -0.3381
12322SOL    HW149439   0.671   2.034   8.025 -2.2179  1.2739 -1.3573
12322SOL    HW249440   0.659   1.998   7.866 -0.0412  1.8536 -1.6627
12323SOL     OW49441   0.402   4.001   8.599  0.3161 -0.6755  0.4113
12323SOL    HW149442   0.462   3.992   8.520  1.3954 -1.2231  1.2625
12323SOL    HW249443   0.310   3.971   8.575  0.9561 -2.1528 -0.2768
12324SOL     OW49444   4.458   7.261   4.755 -0.3593  0.7283 -0.0875
12324SOL    HW149445   4.376   7.206   4.739  0.5947 -0.8764  0.4377
12324SOL    HW249446   4.470   7.274   4.854  0.2891  0.5165 -0.1341
12325SOL     OW49447   1.868   6.270   3.328  0.3658 -0.5568 -0.1453
12325SOL    HW149448   1.959   6.303   3.304 -0.7755  2.0461 -1.0711
12325SOL    HW249449   1.800   6.318   3.274 -1.4740 -3.9760 -1.0131
12326SOL     OW49450   4.605   0.459   1.675  0.0570  0.0413 -0.5183
12326SOL    HW149451   4.613   0.490   1.581 -1.8748  2.1828 -0.0172
12326SOL    HW249452   4.539   0.384   1.680  0.1341 -0.0492 -0.8519
12327SOL     OW49453   0.531   4.922   4.431  0.0305 -0.4352 -0.6861
12327SOL    HW149454   0.543   4.835   4.478  1.4621 -0.3049 -0.7798
12327SOL    HW249455   0.617   4.949   4.387 -0.4743  0.8719 -0.9159
12328SOL     OW49456   0.004   5.689   6.250 -0.2342 -0.0693  0.1721
12328SOL    HW149457   0.050   5.696   6.161 -0.8805 -0.1623 -0.1687
12328SOL    HW249458   0.039   5.760   6.310 -0.1339  0.2899 -0.3073
12329SOL     OW49459   4.522   0.971   3.038  0.6202  0.0935 -0.4086
12329SOL    HW149460   4.548   1.022   3.120 -0.0152  0.5581 -0.4938
12329SOL    HW249461   4.437   0.922   3.054  0.1771  0.6579 -0.9756
12330SOL     OW49462   5.722   4.307   4.108 -0.0734  0.5467  0.0983
12330SOL    HW149463   5.679   4.223   4.141 -1.0213 -0.6099 -3.8824
12330SOL    HW249464   5.822   4.297   4.114 -0.2042 -0.1246  1.3443
12331SOL     OW49465   0.958   8.227   8.862  0.5797  0.7576  0.1634
12331SOL    HW149466   0.988   8.323   8.864 -2.5411  1.8007 -0.6203
12331SOL    HW249467   0.858   8.223   8.868  0.7163 -2.5113  1.0389
12332SOL     OW49468   7.974   4.239   8.159  0.6117  0.1322  0.7016
12332SOL    HW149469   7.986   4.240   8.258  0.5574  2.0134  0.7003
12332SOL    HW249470   7.884   4.202   8.137  0.3032  0.4837  1.3796
12333SOL     OW49471   1.037   7.820   5.905 -0.4406 -0.3938  0.4626
12333SOL    HW149472   1.057   7.735   5.857  2.4253  1.1993 -1.3251
12333SOL    HW249473   1.111   7.842   5.968 -1.6028  0.3019  1.6227
12334SOL     OW49474   7.359   0.719   8.679 -0.0664  0.1575  0.1792
12334SOL    HW149475   7.427   0.675   8.738  0.4467 -1.3795 -1.5207
12334SOL    HW249476   7.328   0.804   8.722  0.0174 -1.0967  2.8376
12335SOL     OW49477   5.701   1.359   2.386  0.1562 -0.4499 -0.4577
12335SOL    HW149478   5.787   1.379   2.339  0.8051  1.0692  1.3044
12335SOL    HW249479   5.716   1.358   2.485 -1.8643  0.0092 -0.1129
12336SOL     OW49480   3.714   3.511   7.833 -0.0224  0.9155 -0.1731
12336SOL    HW149481   3.618   3.538   7.827 -0.5952 -0.6568  1.6314
12336SOL    HW249482   3.752   3.543   7.919  0.4585 -0.3892  0.1012
12337SOL     OW49483   3.746   5.129   1.463  0.3064 -0.2000  0.4005
12337SOL    HW149484   3.841   5.157   1.451  0.6423 -0.3915  2.4611
12337SOL    HW249485   3.722   5.061   1.394  2.5931 -2.4239  1.7105
12338SOL     OW49486   3.079   2.528   8.256  0.3112  0.4286  0.3069
12338SOL    HW149487   2.999   2.468   8.264  0.3070  0.4131  0.1493
12338SOL    HW249488   3.140   2.493   8.185  0.3909  0.5197  0.3300
12339SOL     OW49489   8.748   5.515   4.473  0.1293 -0.3310 -0.2563
12339SOL    HW149490   8.823   5.454   4.497  0.7738  1.2569  1.9716
12339SOL    HW249491   8.779   5.610   4.481 -1.9722  0.3401  0.2435
12340SOL     OW49492   8.998   5.984   5.758  0.0679  0.3612  0.1994
12340SOL    HW149493   9.098   5.995   5.757  0.0849  0.2111  0.1200
12340SOL    HW249494   8.964   5.985   5.664  0.2092 -1.4437  0.1054
12341SOL     OW49495   7.106   5.548   5.171 -0.1384  0.3747 -0.1385
12341SOL    HW149496   7.126   5.496   5.254 -0.9095 -0.6832 -0.6095
12341SOL    HW249497   7.008   5.566   5.166 -0.1638  0.0059 -1.0664
12342SOL     OW49498   4.585   2.998   4.933 -0.1407  0.0476 -0.2645
12342SOL    HW149499   4.556   3.094   4.939  0.2933  0.1113  0.9069
12342SOL    HW249500   4.509   2.939   4.960  0.6993  0.2052  2.5550
12343SOL     OW49501   7.495   6.268   5.487  0.3009 -0.1641 -0.2629
12343SOL    HW149502   7.430   6.219   5.428  0.5335  1.6298 -2.0521
12343SOL    HW249503   7.465   6.363   5.497  0.8519 -0.1846  1.6725
12344SOL     OW49504   5.104   7.480   6.184 -0.2370  0.9033  0.9978
12344SOL    HW149505   5.178   7.433   6.231 -0.0589  2.0049  1.8391
12344SOL    HW249506   5.102   7.452   6.088 -0.9679 -1.7849  1.7629
12345SOL     OW49507   4.729   1.854   7.928  0.5035  0.0632 -0.4841
12345SOL    HW149508   4.733   1.953   7.911  1.2062 -0.1660 -1.7591
12345SOL    HW249509   4.821   1.819   7.945  0.3437 -0.4787 -0.7210
12346SOL     OW49510   8.044   7.931   8.136 -0.3558  0.3343  0.3717
12346SOL    HW149511   8.079   7.883   8.056  0.0784  1.6147 -0.2104
12346SOL    HW249512   8.112   7.996   8.169 -1.2816  1.1938  0.6067
12347SOL     OW49513   0.878   2.356   5.544  0.1540 -0.3046 -0.5233
12347SOL    HW149514   0.914   2.416   5.614  0.0865  0.4324 -1.1098
12347SOL    HW249515   0.953   2.310   5.497  0.1883 -0.9756  0.1812
12348SOL     OW49516   2.477   6.532   7.354  0.3809 -0.4970 -0.0410
12348SOL    HW149517   2.518   6.449   7.315 -0.6167 -1.8409  1.6853
12348SOL    HW249518   2.547   6.584   7.403  0.5557 -1.5685  0.8839
12349SOL     OW49519   5.234   4.942   8.053  0.0841  0.0448 -0.2137
12349SOL    HW149520   5.321   4.989   8.040 -0.9160  2.3470  1.1674
12349SOL    HW249521   5.216   4.882   7.974  3.0937 -0.8299 -0.3132
12350SOL     OW49522   7.942   4.805   2.788  0.4890  0.3358  0.0993
12350SOL    HW149523   8.038   4.828   2.777  0.4509  0.6212  0.3665
12350SOL    HW249524   7.923   4.784   2.884  0.1804  0.7435  0.1274
12351SOL     OW49525   5.819   8.746   3.816 -0.0817 -0.8592  0.7060
12351SOL    HW149526   5.740   8.775   3.762  1.3526 -1.0796 -1.5914
12351SOL    HW249527   5.859   8.825   3.863  0.1481 -0.1836 -0.6031
12352SOL     OW49528   4.127   0.693   3.749  0.2232 -0.8036  0.3925
12352SOL    HW149529   4.102   0.605   3.708 -2.0872 -0.5448  1.1696
12352SOL    HW249530   4.084   0.767   3.696  0.4948 -0.2663  0.9272
12353SOL     OW49531   3.671   3.950   6.208  0.3608  0.1035  0.3975
12353SOL    HW149532   3.669   3.999   6.122  0.1544  0.3268  0.5303
12353SOL    HW249533   3.610   3.994   6.274 -0.7753 -1.0380  0.1327
12354SOL     OW49534   4.065   1.081   6.222 -0.1426 -0.1006  0.1147
12354SOL    HW149535   4.039   1.043   6.311 -0.1900 -0.0283  0.1318
12354SOL    HW249536   4.018   1.031   6.149 -1.8751  1.2964  0.2296
12355SOL     OW49537   8.157   7.229   5.204  0.0284  0.2443  0.2443
12355SOL    HW149538   8.191   7.135   5.196 -1.7771 -0.2840 -1.6662
12355SOL    HW249539   8.224   7.292   5.168  0.8925 -0.3893  0.7228
12356SOL     OW49540   5.783   7.077   0.966 -0.5472 -0.1043 -0.1459
12356SOL    HW149541   5.710   7.145   0.962 -1.3955 -1.0631 -0.9965
12356SOL    HW249542   5.793   7.046   1.061  0.2274  1.5960  0.3544
12357SOL     OW49543   6.467   6.634   8.866 -0.8954 -0.0186 -0.2193
12357SOL    HW149544   6.561   6.600   8.879 -1.2635 -1.4919 -1.3297
12357SOL    HW249545   6.463   6.688   8.782 -0.9452  0.3830  0.0434
12358SOL     OW49546   4.587   2.261   1.266  0.4515  0.6364  0.5426
12358SOL    HW149547   4.554   2.337   1.322 -0.5526  1.4195 -1.0763
12358SOL    HW249548   4.518   2.189   1.262  0.5513  0.5487  0.3626
12359SOL     OW49549   2.977   0.821   2.490 -1.0794 -0.4144 -0.5743
12359SOL    HW149550   2.897   0.805   2.432 -2.5053  1.9489  0.6838
12359SOL    HW249551   2.998   0.919   2.492  0.5154 -0.7588  0.8692
12360SOL     OW49552   0.575   3.315   0.351 -0.0522  0.2053  0.1632
12360SOL    HW149553   0.619   3.374   0.419 -2.0003 -1.1293  2.6657
12360SOL    HW249554   0.641   3.248   0.317  1.9036  3.0699 -1.9432
12361SOL     OW49555   3.377   2.025   4.944 -0.0257  0.6359 -0.1937
12361SOL    HW149556   3.297   1.972   4.972  0.3599 -1.7104 -3.2583
12361SOL    HW249557   3.359   2.069   4.856  1.7834  0.6797 -0.5600
12362SOL     OW49558   6.318   3.354   1.002  0.3608  0.2055  0.0304
12362SOL    HW149559   6.248   3.394   0.944  0.3182 -1.3737 -1.0392
12362SOL    HW249560   6.355   3.424   1.063  0.0088  1.7631 -1.5007
12363SOL     OW49561   2.138   6.762   2.209  0.7749 -0.0798 -0.2011
12363SOL    HW149562   2.072   6.804   2.147  2.1053  0.4727 -1.2642
12363SOL    HW249563   2.099   6.678   2.247 -0.1303 -0.3147 -1.6162
12364SOL     OW49564   4.950   8.400   2.540 -0.2592  0.6060  0.7648
12364SOL    HW149565   4.911   8.349   2.617 -0.1636  1.1994  1.2116
12364SOL    HW249566   4.921   8.358   2.454 -0.1318 -0.2372  1.1245
12365SOL     OW49567   5.891   1.644   2.199 -0.0838 -0.4464  0.4289
12365SOL    HW149568   5.899   1.559   2.251  0.8319 -3.3668 -4.1356
12365SOL    HW249569   5.981   1.671   2.165 -1.0229 -0.3886 -2.1400
12366SOL     OW49570   7.654   4.642   7.119  0.2250 -0.3036  1.0781
12366SOL    HW149571   7.676   4.556   7.167 -0.7381 -1.5472 -0.6832
12366SOL    HW249572   7.738   4.695   7.107  1.4935 -2.6823 -1.0445
12367SOL     OW49573   6.431   4.928   8.653  0.1417 -0.2179  0.3474
12367SOL    HW149574   6.342   4.971   8.636  1.2970  1.6447 -1.0864
12367SOL    HW249575   6.495   4.952   8.580  1.4478 -2.6873  0.6106
12368SOL     OW49576   3.811   4.847   6.593  0.0323  0.3738  0.0611
12368SOL    HW149577   3.892   4.842   6.534 -0.6646  1.3033 -0.9993
12368SOL    HW249578   3.837   4.824   6.687  1.5172  0.6070 -0.2746
12369SOL     OW49579   0.298   2.555   0.697 -0.3580  0.1219 -0.0518
12369SOL    HW149580   0.331   2.461   0.688 -0.2615  0.1237  0.2743
12369SOL    HW249581   0.335   2.610   0.622 -1.0380 -0.2709 -0.6895
12370SOL     OW49582   7.286   8.161   1.637 -0.2952 -0.2361 -0.3616
12370SOL    HW149583   7.192   8.128   1.641 -0.1391 -0.5307  2.6074
12370SOL    HW249584   7.291   8.239   1.575 -2.2642 -0.9289 -1.4297
12371SOL     OW49585   8.075   6.017   4.877  0.1417  0.4925 -0.1971
12371SOL    HW149586   8.098   6.113   4.863  0.8977  0.3070 -0.2439
12371SOL    HW249587   8.157   5.961   4.867 -0.0444 -0.0339  1.1174
12372SOL     OW49588   7.707   6.457   5.623 -0.0642 -0.7432  0.0087
12372SOL    HW149589   7.620   6.423   5.586 -0.5609  0.3580  0.1674
12372SOL    HW249590   7.696   6.550   5.656  0.9553 -0.9137  0.8661
12373SOL     OW49591   3.809   4.095   8.006  0.3093 -0.0885  0.4160
12373SOL    HW149592   3.871   4.136   7.939  0.3177 -1.2878 -0.3165
12373SOL    HW249593   3.780   4.165   8.071  1.4096  0.7694 -0.0039
12374SOL     OW49594   7.090   8.608   7.670 -0.1937  0.0162  0.0074
12374SOL    HW149595   7.145   8.688   7.649  1.4878 -1.1746 -0.2399
12374SOL    HW249596   7.009   8.636   7.722 -1.1235  2.2015 -2.5417
12375SOL     OW49597   7.497   5.229   3.214  0.2628  0.9983  0.3897
12375SOL    HW149598   7.580   5.211   3.265  0.5624 -0.5287 -0.6096
12375SOL    HW249599   7.429   5.159   3.235  0.3944  0.3423 -1.2844
12376SOL     OW49600   4.746   1.429   7.881 -0.0839 -0.2672 -0.2564
12376SOL    HW149601   4.737   1.376   7.797 -0.6951  0.0965 -0.4244
12376SOL    HW249602   4.711   1.376   7.958 -0.2654 -0.2925 -0.3561
12377SOL     OW49603   7.457   6.987   6.311 -0.3653  0.3018  0.2691
12377SOL    HW149604   7.522   7.001   6.236  2.0355 -0.0729  2.2116
12377SOL    HW249605   7.417   7.074   6.338  0.2635  0.7107 -0.1194
12378SOL     OW49606   0.008   5.327   8.376  0.6369  0.4855  0.0521
12378SOL    HW149607  -0.079   5.329   8.328  1.6943  0.3134 -1.9149
12378SOL    HW249608   0.049   5.236   8.369  0.4495  0.2189  1.9838
12379SOL     OW49609   7.724   0.022   8.540 -0.3584  0.1343  0.1639
12379SOL    HW149610   7.758  -0.057   8.490 -2.4281  0.7891 -2.3637
12379SOL    HW249611   7.796   0.092   8.546  0.4333 -0.6271 -0.4333
12380SOL     OW49612   0.933   1.557   8.518  0.5130 -0.3005 -0.2939
12380SOL    HW149613   1.026   1.524   8.499  0.4066 -1.4789  1.0663
12380SOL    HW249614   0.917   1.553   8.617  0.2922  3.3961 -0.1285
12381SOL     OW49615   4.276   8.240   2.747  0.6393  0.4826 -0.4180
12381SOL    HW149616   4.360   8.244   2.801 -0.3812 -0.9351  1.3118
12381SOL    HW249617   4.222   8.323   2.764  0.6009  0.3175  0.2595
12382SOL     OW49618   2.206   3.934   6.907 -0.3868 -0.3487  0.2564
12382SOL    HW149619   2.246   4.026   6.908 -0.7849 -0.1731  0.1471
12382SOL    HW249620   2.266   3.873   6.857  0.3406 -0.3589  1.1263
12383SOL     OW49621   0.506   3.929   4.302 -0.2147  0.3110 -0.3334
12383SOL    HW149622   0.575   3.883   4.247 -0.0397  0.6701 -0.4127
12383SOL    HW249623   0.432   3.963   4.243 -0.2971  0.2157 -0.2859
12384SOL     OW49624   0.991   8.070   1.100  0.6767  0.1376  0.4156
12384SOL    HW149625   0.903   8.036   1.132  1.5383 -1.8584  0.7244
12384SOL    HW249626   1.019   8.148   1.157  0.7089 -1.3617  2.5225
12385SOL     OW49627   3.034   3.460   7.132 -0.6588 -0.0848  0.0258
12385SOL    HW149628   3.030   3.515   7.215 -0.1524  0.1095 -0.0775
12385SOL    HW249629   3.035   3.363   7.156 -0.3687 -0.0261  0.2474
12386SOL     OW49630   5.478   1.272   2.628  0.1186 -0.1028 -0.1231
12386SOL    HW149631   5.572   1.302   2.642  0.1464  0.0354 -0.6087
12386SOL    HW249632   5.437   1.325   2.553  0.7685 -2.5451 -2.2800
12387SOL     OW49633   6.320   2.460   0.571 -0.3416 -0.0138  0.1131
12387SOL    HW149634   6.287   2.400   0.498  0.2751  0.3452 -0.4625
12387SOL    HW249635   6.303   2.555   0.546 -0.1028  0.1090  0.4219
12388SOL     OW49636   5.590   6.060   7.014 -0.1089 -0.3040  0.0036
12388SOL    HW149637   5.663   6.029   6.953 -0.1992  1.5907 -1.0847
12388SOL    HW249638   5.506   6.073   6.962 -1.5144 -3.2739  1.3912
12389SOL     OW49639   3.516   8.150   4.642  0.0215 -0.2388  0.7123
12389SOL    HW149640   3.605   8.151   4.687  0.2499 -2.5554  0.3827
12389SOL    HW249641   3.530   8.145   4.543 -0.4485 -2.0265  0.7215
12390SOL     OW49642   1.250   0.163   7.047 -0.0691 -0.2896  0.0221
12390SOL    HW149643   1.340   0.120   7.053  0.6113  1.0578 -0.4509
12390SOL    HW249644   1.253   0.252   7.092 -0.4883  0.8459 -2.1305
12391SOL     OW49645   1.432   8.316   4.460  0.2329 -0.8144  0.8469
12391SOL    HW149646   1.346   8.277   4.492  0.5269 -2.5438 -0.3375
12391SOL    HW249647   1.498   8.242   4.443  1.7813  0.4385  1.2531
12392SOL     OW49648   0.515   1.634   0.855 -0.1790 -0.2071 -0.4675
12392SOL    HW149649   0.610   1.663   0.855 -0.4505  0.7954  1.4681
12392SOL    HW249650   0.501   1.564   0.785  1.4731  1.1983 -2.2547
12393SOL     OW49651   4.179   1.098   4.185 -0.6491  0.0000  0.1061
12393SOL    HW149652   4.204   1.002   4.174  0.7472  0.2128  1.2591
12393SOL    HW249653   4.201   1.128   4.278 -0.2181  1.6887 -0.5176
12394SOL     OW49654   4.482   7.819   0.884  0.4192 -0.1768  0.2174
12394SOL    HW149655   4.491   7.796   0.787 -1.2107 -0.9635  0.2390
12394SOL    HW249656   4.547   7.891   0.907  2.4304 -1.5731 -0.9253
12395SOL     OW49657   1.086   4.485   5.103 -0.1813  0.3317  0.3501
12395SOL    HW149658   1.061   4.494   5.007  0.5574  0.7627  0.1965
12395SOL    HW249659   1.126   4.395   5.119  0.7805  0.6972  0.0096
12396SOL     OW49660   1.083   5.354   2.323 -0.4865  0.0316 -0.3824
12396SOL    HW149661   1.023   5.322   2.396 -1.3546  1.2792 -0.5237
12396SOL    HW249662   1.028   5.371   2.241 -0.0243  1.5985 -0.3811
12397SOL     OW49663   7.808   5.598   3.886  0.4244  0.0794  0.1753
12397SOL    HW149664   7.712   5.613   3.863 -0.1886 -2.4403  0.9323
12397SOL    HW249665   7.816   5.581   3.984  1.6102  0.0021  0.0695
12398SOL     OW49666   0.054   4.948   6.513 -0.0506  0.4065  0.6860
12398SOL    HW149667   0.151   4.962   6.531  0.2786  0.0224 -0.7017
12398SOL    HW249668   0.027   5.006   6.436 -0.7865  0.1094  0.7216
12399SOL     OW49669   8.138   7.685   3.259  0.0231  0.6804  0.3146
12399SOL    HW149670   8.175   7.620   3.192  0.1130  0.7287  0.3177
12399SOL    HW249671   8.041   7.665   3.274  0.0892  0.4405  0.4409
12400SOL     OW49672   2.119   7.799   6.202 -0.4259 -0.3325 -0.6747
12400SOL    HW149673   2.109   7.894   6.234  0.0508 -0.1112 -1.1752
12400SOL    HW249674   2.049   7.780   6.133 -1.4005 -0.7829  0.4103
12401SOL     OW49675   7.788   7.942   5.530 -0.5095 -0.1080 -0.4784
12401SOL    HW149676   7.695   7.976   5.534 -0.1034  0.9427  0.3583
12401SOL    HW249677   7.848   8.012   5.491  0.0360 -0.5300 -0.4054
12402SOL     OW49678   2.166   8.640   6.867 -0.2475 -0.5460  0.5819
12402SOL    HW149679   2.237   8.614   6.931  1.6146  0.8040 -0.8680
12402SOL    HW249680   2.182   8.595   6.779 -0.6115  0.5051 -0.0417
12403SOL     OW49681   3.986   5.391   0.007 -0.0448 -0.7512  0.6204
12403SOL    HW149682   4.074   5.415  -0.034 -0.9460 -1.3738 -1.7245
12403SOL    HW249683   3.989   5.412   0.105  1.6708  2.1085  0.0179
12404SOL     OW49684   8.786   6.398   5.737 -0.1510  0.3903 -0.0346
12404SOL    HW149685   8.741   6.350   5.812 -0.9230  0.4043 -0.4879
12404SOL    HW249686   8.861   6.454   5.774 -2.5422  2.9281  1.1398
12405SOL     OW49687   3.096   8.826   2.546 -0.1213 -0.1267  0.1725
12405SOL    HW149688   3.189   8.791   2.548  0.0065  0.2344  0.9630
12405SOL    HW249689   3.083   8.885   2.466  0.3613 -0.0823  0.1292
12406SOL     OW49690   1.383   0.415   7.559 -0.4310 -0.3951  0.4427
12406SOL    HW149691   1.297   0.453   7.526 -0.6293  0.4629  1.9484
12406SOL    HW249692   1.365   0.349   7.632  0.1600 -0.5533  0.4484
12407SOL     OW49693   5.613   8.379   2.149 -0.0266 -0.6969 -0.3100
12407SOL    HW149694   5.687   8.360   2.213 -0.4210  0.3703  0.4828
12407SOL    HW249695   5.533   8.324   2.173  0.4557 -1.7423 -1.0784
12408SOL     OW49696   6.844   1.571   0.548  0.4443  0.3614  0.0820
12408SOL    HW149697   6.772   1.540   0.610 -0.1560 -0.1537 -0.8741
12408SOL    HW249698   6.911   1.498   0.536 -0.3534 -0.1633 -1.2426
12409SOL     OW49699   4.581   4.136   8.531  0.3405 -0.0882  0.0667
12409SOL    HW149700   4.637   4.210   8.495 -0.3767 -0.5007 -1.9880
12409SOL    HW249701   4.558   4.155   8.627  2.6594  0.8306  0.4689
12410SOL     OW49702   4.671   5.883   0.602 -0.4536  0.2527  0.2672
12410SOL    HW149703   4.695   5.864   0.507  0.1057 -1.6855  0.7682
12410SOL    HW249704   4.587   5.835   0.626 -0.6949  0.8835  0.7113
12411SOL     OW49705   8.357   7.731   4.831  0.3175  0.2740  0.4261
12411SOL    HW149706   8.268   7.711   4.873  0.7779 -0.0152  1.2863
12411SOL    HW249707   8.344   7.790   4.751 -0.6665  0.0447  0.4105
12412SOL     OW49708   1.854   3.993   1.095  0.2342  0.3638 -0.3856
12412SOL    HW149709   1.905   4.023   1.175 -1.9102  0.7536  0.8664
12412SOL    HW249710   1.914   3.941   1.035  2.6194  2.4934  0.0554
12413SOL     OW49711   3.024   3.370   1.895 -0.2298  0.9376  0.0986
12413SOL    HW149712   3.004   3.284   1.847  3.2696  0.1646 -0.1249
12413SOL    HW249713   2.957   3.383   1.968 -1.8240 -1.1196 -0.9254
12414SOL     OW49714   1.810   1.217   6.440  0.3245 -0.2365  0.2657
12414SOL    HW149715   1.790   1.216   6.342 -1.2729 -3.7383  0.5415
12414SOL    HW249716   1.801   1.310   6.475  1.9872  1.2542 -3.0807
12415SOL     OW49717   6.007   4.027   2.228  0.6562  0.7602 -0.1283
12415SOL    HW149718   6.056   4.113   2.242 -1.3739  1.2718  4.5526
12415SOL    HW249719   6.030   3.963   2.301 -0.0864 -1.6632 -1.9409
12416SOL     OW49720   5.643   0.882   3.582 -0.0815  0.0644  0.4020
12416SOL    HW149721   5.553   0.855   3.616  0.5287 -0.3388  1.7491
12416SOL    HW249722   5.681   0.952   3.642  1.1123 -0.8135  0.6890
12417SOL     OW49723   3.449   7.969   6.281 -0.0318  0.0941  0.6547
12417SOL    HW149724   3.474   8.033   6.208 -0.2002 -0.0056  0.5087
12417SOL    HW249725   3.429   7.880   6.241  0.9467 -0.2587  0.9394
12418SOL     OW49726   1.624   8.495   7.871 -0.6869  0.0775  0.1999
12418SOL    HW149727   1.589   8.463   7.783 -0.4317 -2.0150  0.8344
12418SOL    HW249728   1.549   8.501   7.936 -0.5733 -0.1135  0.3463
12419SOL     OW49729   1.955   7.829   4.405 -0.5519 -0.2611  0.1926
12419SOL    HW149730   2.042   7.798   4.367 -0.2994  0.1998  0.3851
12419SOL    HW249731   1.891   7.849   4.331 -0.2392  0.1208  0.0181
12420SOL     OW49732   5.160   1.146   1.870  0.1732  0.1114 -0.4225
12420SOL    HW149733   5.240   1.110   1.822  0.6976  0.9890 -0.2220
12420SOL    HW249734   5.102   1.195   1.806 -0.6962 -1.3327 -0.7559
12421SOL     OW49735   2.878   6.256   0.770 -0.1626 -0.0868  0.0556
12421SOL    HW149736   2.966   6.209   0.759 -1.5927 -3.0460  0.6914
12421SOL    HW249737   2.878   6.340   0.716  2.4440 -0.8640 -1.2477
12422SOL     OW49738   5.568   3.810   4.400  0.2382  0.0458 -0.2865
12422SOL    HW149739   5.615   3.849   4.321  2.6058  1.5394  1.7538
12422SOL    HW249740   5.584   3.869   4.480  2.0564 -3.8731  2.4238
12423SOL     OW49741   7.352   4.530   3.845  0.3272  0.8049 -0.1809
12423SOL    HW149742   7.336   4.619   3.803  1.9606  0.6068 -1.2962
12423SOL    HW249743   7.419   4.540   3.919  0.4404  0.5221 -0.2455
12424SOL     OW49744   3.770   8.138   4.704  0.4002  0.4723  0.1463
12424SOL    HW149745   3.835   8.195   4.753 -0.8244  2.5667 -0.6002
12424SOL    HW249746   3.781   8.151   4.606  0.7237 -1.2947 -0.0664
12425SOL     OW49747   4.497   8.280   4.589  0.0955 -0.1403  0.0521
12425SOL    HW149748   4.413   8.256   4.541 -0.7235  1.3730  0.6834
12425SOL    HW249749   4.484   8.267   4.688  0.5768  0.1576  0.1585
12426SOL     OW49750   5.987   5.192   4.969 -0.1236 -0.2009 -1.1895
12426SOL    HW149751   6.065   5.167   4.911 -0.1979  0.9716 -1.8163
12426SOL    HW249752   6.010   5.174   5.064  0.0726 -1.9721 -1.5538
12427SOL     OW49753   2.696   1.370   5.472  0.4291 -0.1459  0.6371
12427SOL    HW149754   2.598   1.385   5.475  0.3648 -0.3026 -0.4050
12427SOL    HW249755   2.715   1.278   5.438  0.9496  0.3734 -0.5184
12428SOL     OW49756   0.773   5.535   0.829  0.2787  0.0111 -0.4919
12428SOL    HW149757   0.784   5.574   0.921  0.5472  0.5414 -0.7450
12428SOL    HW249758   0.696   5.471   0.830 -0.8371  1.3062 -0.2890
12429SOL     OW49759   8.796   0.052   8.763  0.9378  0.7340  0.0063
12429SOL    HW149760   8.820   0.063   8.667  1.2148 -0.2348 -0.0374
12429SOL    HW249761   8.796  -0.045   8.787  0.4952  0.9440  0.8876
12430SOL     OW49762   7.089   1.085   8.010  0.0703  0.5174  0.1923
12430SOL    HW149763   7.007   1.033   7.990  2.5837 -3.2709 -0.7604
12430SOL    HW249764   7.132   1.050   8.093  2.1109  0.6166 -0.7832
12431SOL     OW49765   2.485   8.795   5.226  0.0540 -0.3903 -0.4288
12431SOL    HW149766   2.478   8.787   5.325 -1.1283 -0.6971 -0.5208
12431SOL    HW249767   2.435   8.876   5.195  0.3048 -0.3681 -0.7864
12432SOL     OW49768   8.801   7.432   0.069 -0.0122 -0.9348  0.8799
12432SOL    HW149769   8.717   7.453   0.020  1.1647  0.1287 -0.7150
12432SOL    HW249770   8.864   7.385   0.008  0.8022 -1.1664  1.8913
12433SOL     OW49771   5.113   8.506   0.610 -0.0346  0.0458 -0.9278
12433SOL    HW149772   5.147   8.555   0.691  0.0925  1.3507 -1.7458
12433SOL    HW249773   5.178   8.435   0.585  1.2775  1.3829 -1.4351
12434SOL     OW49774   6.635   2.652   3.223  0.2818 -0.1885  0.1114
12434SOL    HW149775   6.696   2.576   3.242  1.2397  0.4682 -0.2954
12434SOL    HW249776   6.684   2.722   3.170 -1.2798 -0.3980 -1.6909
12435SOL     OW49777   1.164   4.647   8.826 -0.4367 -0.5144  0.2495
12435SOL    HW149778   1.212   4.716   8.881  0.6913 -0.0014 -1.3563
12435SOL    HW249779   1.199   4.648   8.733 -2.3101 -1.4272 -0.4856
12436SOL     OW49780   3.657   2.093   7.094  0.2650 -0.2543  0.3529
12436SOL    HW149781   3.582   2.159   7.085 -0.2092 -0.6775  1.1362
12436SOL    HW249782   3.738   2.139   7.130 -0.9827 -0.6903  3.9049
12437SOL     OW49783   1.536   2.556   0.546  0.6074  0.4710 -0.3506
12437SOL    HW149784   1.554   2.653   0.532  0.5951  0.3886 -0.9434
12437SOL    HW249785   1.589   2.502   0.480 -0.7190  0.1586 -1.1698
12438SOL     OW49786   2.375   8.174   8.532  0.0426 -0.0253 -0.1854
12438SOL    HW149787   2.436   8.244   8.494 -0.2705  0.6744  0.5640
12438SOL    HW249788   2.368   8.097   8.469 -0.2712  0.9915 -1.4121
12439SOL     OW49789   5.880   4.948   2.885  0.0721  0.2789  0.5493
12439SOL    HW149790   5.884   4.853   2.855  1.4780  0.0699  1.3470
12439SOL    HW249791   5.886   4.952   2.985  2.3914  1.3020  0.4013
12440SOL     OW49792   1.586   5.779   7.164  0.6378  0.0627  0.0901
12440SOL    HW149793   1.518   5.806   7.232  0.1785 -1.1897  0.1372
12440SOL    HW249794   1.543   5.720   7.096  1.9296 -1.7191  0.7784
12441SOL     OW49795   8.234   5.310   5.516 -0.4921  0.2406  0.0807
12441SOL    HW149796   8.168   5.311   5.441 -0.4464 -0.3374  0.0281
12441SOL    HW249797   8.284   5.224   5.514  0.5513  0.8404 -0.1266
12442SOL     OW49798   4.586   1.172   6.896  0.4069  0.0396  0.5787
12442SOL    HW149799   4.617   1.234   6.968 -1.1205 -2.1413  3.1809
12442SOL    HW249800   4.586   1.078   6.929  2.0844 -1.3581 -3.1176
12443SOL     OW49801   6.605   2.131   8.849 -0.3957 -0.5386 -0.2269
12443SOL    HW149802   6.703   2.115   8.856 -0.3582  0.7247  2.8506
12443SOL    HW249803   6.589   2.216   8.799  0.0311 -1.2275 -1.5488
12444SOL     OW49804   0.787   1.290   6.121  0.2745 -0.1108  0.0698
12444SOL    HW149805   0.696   1.315   6.154  0.2987 -0.8281  0.7014
12444SOL    HW249806   0.856   1.330   6.182  0.3888  0.6981 -0.5929
12445SOL     OW49807   1.896   6.614   3.383 -0.3051 -0.6147 -0.1275
12445SOL    HW149808   1.839   6.659   3.450  1.0624  1.7486 -0.5039
12445SOL    HW249809   1.963   6.555   3.429  0.6241  0.9943  0.6060
12446SOL     OW49810   3.586   1.739   7.434  0.3887  0.4127 -0.0211
12446SOL    HW149811   3.583   1.769   7.530 -0.2415 -0.3743  0.2085
12446SOL    HW249812   3.667   1.681   7.421  0.8399  1.0544 -0.1333
12447SOL     OW49813   7.470   1.171   7.777  0.0990 -0.1108  0.2875
12447SOL    HW149814   7.480   1.254   7.831  0.7389 -0.0402  0.0743
12447SOL    HW249815   7.522   1.182   7.691 -0.4825 -0.4125 -0.1035
12448SOL     OW49816   8.766   2.913   7.977 -0.1433  0.2290  0.2689
12448SOL    HW149817   8.832   2.888   7.906 -0.6522  1.0501 -0.5010
12448SOL    HW249818   8.812   2.963   8.050  0.7323 -2.1937  1.4224
12449SOL     OW49819   3.718   7.522   7.837  0.1253 -0.9263 -0.0936
12449SOL    HW149820   3.632   7.508   7.887  0.8134  1.3752  1.8131
12449SOL    HW249821   3.700   7.575   7.754 -0.0929  1.0465  1.1787
12450SOL     OW49822   7.526   6.645   8.745 -0.2140  0.6390  0.6178
12450SOL    HW149823   7.595   6.655   8.673 -1.3148  0.6501 -0.4614
12450SOL    HW249824   7.537   6.719   8.812  1.4535  0.0582  1.0283
12451SOL     OW49825   7.503   4.943   5.483  0.1321  0.2458 -0.3656
12451SOL    HW149826   7.565   4.869   5.457 -0.3157  0.0930 -1.0089
12451SOL    HW249827   7.446   4.912   5.559 -1.0822 -0.6136 -1.5964
12452SOL     OW49828   2.619   6.913   8.746  0.1672 -0.0191  0.5546
12452SOL    HW149829   2.528   6.927   8.709  0.4643 -1.3982 -0.7205
12452SOL    HW249830   2.660   6.831   8.706  1.4959 -0.1057  2.0158
12453SOL     OW49831   8.640   5.166   2.784  0.3820  0.3347  0.0982
12453SOL    HW149832   8.671   5.134   2.874  0.1940  0.1954  0.1131
12453SOL    HW249833   8.663   5.263   2.774 -0.3690  0.5681  0.6431
12454SOL     OW49834   8.470   6.503   2.464 -0.0894 -0.1649  0.5832
12454SOL    HW149835   8.548   6.444   2.443  0.4137  0.7824 -0.2954
12454SOL    HW249836   8.432   6.540   2.379 -1.1844 -0.2200  1.0377
12455SOL     OW49837   2.228   3.961   3.689  0.1287 -0.2136 -0.5624
12455SOL    HW149838   2.162   4.014   3.742 -0.2432  1.6816 -2.8452
12455SOL    HW249839   2.321   3.982   3.721 -0.1448  0.0626  0.0625
12456SOL     OW49840   8.627   2.573   7.854 -0.2517  0.3888  0.1575
12456SOL    HW149841   8.588   2.523   7.932 -0.3645  1.0157  0.5051
12456SOL    HW249842   8.726   2.575   7.862 -0.2634  0.4626  0.2900
12457SOL     OW49843   7.346   5.469   1.738  0.0166  0.0264  0.3227
12457SOL    HW149844   7.363   5.565   1.713 -1.8869  0.7111  1.4898
12457SOL    HW249845   7.301   5.423   1.662  0.2841  0.2642  0.0173
12458SOL     OW49846   3.853   6.958   0.425  0.1269  0.7741  0.4187
12458SOL    HW149847   3.806   7.047   0.422 -0.6495  0.3506 -0.3154
12458SOL    HW249848   3.834   6.913   0.512 -0.6784  0.6930  0.2080
12459SOL     OW49849   7.878   7.124   2.126  0.4265 -0.0461  0.4222
12459SOL    HW149850   7.926   7.211   2.136  0.6180 -0.0450 -0.4480
12459SOL    HW249851   7.790   7.140   2.080  0.1385 -0.2088  0.9221
12460SOL     OW49852   0.744   4.447   8.716 -0.1250  0.2067  0.2308
12460SOL    HW149853   0.751   4.502   8.633 -0.1718  0.2700  0.2685
12460SOL    HW249854   0.689   4.366   8.699 -2.1548  1.4322  0.8167
12461SOL     OW49855   6.500   6.148   3.445  0.3084 -0.9751  0.4206
12461SOL    HW149856   6.563   6.187   3.378  1.7728 -0.3656  2.1059
12461SOL    HW249857   6.487   6.050   3.425  1.2684 -0.9585 -0.3343
12462SOL     OW49858   3.748   0.997   0.956  0.0314 -0.6533 -0.0492
12462SOL    HW149859   3.725   0.908   0.996 -0.6272 -0.0592  0.8933
12462SOL    HW249860   3.768   1.062   1.028  1.9192 -0.4000 -0.7765
12463SOL     OW49861   4.570   0.275   0.791  0.1957  0.1562 -0.5388
12463SOL    HW149862   4.540   0.214   0.865 -2.2843  1.0388 -0.7698
12463SOL    HW249863   4.493   0.293   0.729  1.4294  1.8969 -1.6153
12464SOL     OW49864   2.346   3.884   4.565  0.5409 -0.3687  0.0482
12464SOL    HW149865   2.302   3.834   4.639  1.6199  2.3134  2.6345
12464SOL    HW249866   2.443   3.859   4.562  0.3453 -1.0028 -0.9294
12465SOL     OW49867   3.705   8.417   3.126  0.3598  0.0875  0.5428
12465SOL    HW149868   3.715   8.479   3.048 -1.6521  2.1662  1.8356
12465SOL    HW249869   3.736   8.326   3.101  2.1462  1.2996 -1.8636
12466SOL     OW49870   2.847   6.304   5.061  0.1116  0.0060 -0.2859
12466SOL    HW149871   2.842   6.355   4.975  1.7833 -1.5616 -1.3318
12466SOL    HW249872   2.831   6.366   5.138  0.8089  1.8465 -1.6071
12467SOL     OW49873   5.733   0.013   7.685  0.7897  0.0274 -0.0371
12467SOL    HW149874   5.656  -0.050   7.672 -0.5666  1.7177 -0.3473
12467SOL    HW249875   5.772  -0.001   7.776  0.0943 -0.8177  0.1405
12468SOL     OW49876   4.948   4.482   2.681  0.4517  0.1666 -0.0678
12468SOL    HW149877   4.985   4.408   2.624 -1.0292 -1.2160  0.7191
12468SOL    HW249878   4.896   4.442   2.757 -0.5484  2.0252  0.2369
12469SOL     OW49879   2.697   1.045   3.559 -0.2999 -0.2242 -0.2842
12469SOL    HW149880   2.610   1.081   3.527  1.2297  3.5075 -0.5854
12469SOL    HW249881   2.763   1.046   3.484  1.3394  1.8758  1.0930
12470SOL     OW49882   3.447   2.156   1.663  0.2339 -0.3042 -0.0978
12470SOL    HW149883   3.383   2.222   1.624  1.9824  0.9606 -0.8955
12470SOL    HW249884   3.453   2.170   1.762  1.0011  1.1276 -0.3291
12471SOL     OW49885   7.269   6.394   7.211 -0.2929 -0.0637 -0.0584
12471SOL    HW149886   7.316   6.429   7.130  1.3400 -1.7780  0.0968
12471SOL    HW249887   7.178   6.361   7.185  0.8610 -2.2155 -1.6044
12472SOL     OW49888   6.337   4.694   4.240 -0.4759  0.3453  0.1844
12472SOL    HW149889   6.359   4.597   4.251  1.2756  0.5238 -1.4905
12472SOL    HW249890   6.422   4.746   4.227 -1.5365  1.8226 -1.0145
12473SOL     OW49891   7.758   2.659   5.645 -0.0883 -0.5277 -0.7800
12473SOL    HW149892   7.836   2.700   5.694 -0.9109  1.8001 -1.3599
12473SOL    HW249893   7.792   2.589   5.582  1.1592 -2.2737  1.7128
12474SOL     OW49894   3.786   7.080   5.264 -0.1022 -0.6200  0.1892
12474SOL    HW149895   3.786   7.125   5.175  2.3631 -1.5279 -0.3312
12474SOL    HW249896   3.720   7.005   5.265 -0.8498  0.0317 -0.5357
12475SOL     OW49897   0.798   4.111   4.332 -0.1755 -0.0302 -0.2232
12475SOL    HW149898   0.741   4.186   4.366 -0.8387 -0.8317  0.4606
12475SOL    HW249899   0.747   4.058   4.264  0.3457  0.2221 -0.8172
12476SOL     OW49900   7.563   2.083   4.228  1.0140  0.3275 -0.5150
12476SOL    HW149901   7.584   2.179   4.210  0.2244  0.9437  1.7849
12476SOL    HW249902   7.485   2.055   4.172  0.9535  1.1375 -0.8413
12477SOL     OW49903   4.207   0.205   2.515  0.5446  0.6064  0.5187
12477SOL    HW149904   4.186   0.264   2.593  0.7015  0.0216  1.0083
12477SOL    HW249905   4.306   0.191   2.511  0.4140 -0.4703  1.0253
12478SOL     OW49906   3.374   2.327   0.788  0.3510  0.2882  0.1377
12478SOL    HW149907   3.305   2.400   0.787 -0.0166 -0.0723 -1.1871
12478SOL    HW249908   3.434   2.340   0.867 -2.5278 -0.6462  2.5432
12479SOL     OW49909   5.176   2.002   6.613  0.3120 -0.4684 -0.2278
12479SOL    HW149910   5.252   2.004   6.549  0.4455  0.1437 -0.0565
12479SOL    HW249911   5.211   2.016   6.706  0.2192 -2.1743  0.0816
12480SOL     OW49912   8.065   8.966   8.006 -0.5007 -0.6456  0.0854
12480SOL    HW149913   7.988   8.903   7.998  0.0896 -1.4007  0.2603
12480SOL    HW249914   8.043   9.052   7.959 -2.1592 -0.1557  1.6696
12481SOL     OW49915   0.378   0.646   6.188 -0.2836 -0.3526 -0.3134
12481SOL    HW149916   0.444   0.720   6.186 -1.4429  0.7105  0.1618
12481SOL    HW249917   0.394   0.584   6.110  0.9275  0.1755 -0.4787
12482SOL     OW49918   8.906   0.576   7.538  0.3156  0.9376  0.1586
12482SOL    HW149919   8.838   0.510   7.506 -0.4224  1.7282  0.1065
12482SOL    HW249920   8.935   0.635   7.463  0.0624  1.4855  0.4855
12483SOL     OW49921   2.969   7.856   0.201  0.2582  0.3502  0.5396
12483SOL    HW149922   2.997   7.944   0.239  1.7129 -0.7070  1.9736
12483SOL    HW249923   2.869   7.853   0.193  0.1548  1.8546  1.1464
12484SOL     OW49924   5.389   8.484   7.272 -0.3686  0.4301 -0.1044
12484SOL    HW149925   5.464   8.546   7.253  2.2298 -1.7292  2.6723
12484SOL    HW249926   5.391   8.409   7.205 -1.1139  1.2172 -1.0348
12485SOL     OW49927   2.587   8.615   7.433  0.3052 -0.0429 -0.3266
12485SOL    HW149928   2.682   8.632   7.459 -0.0429  1.9084 -0.2761
12485SOL    HW249929   2.526   8.658   7.499 -0.6744 -3.0794  0.8507
12486SOL     OW49930   8.179   8.420   8.262  0.4841 -0.5125  0.5592
12486SOL    HW149931   8.190   8.467   8.174  0.8985 -0.9926  0.3527
12486SOL    HW249932   8.221   8.475   8.335 -0.1028  0.0199  0.5044
12487SOL     OW49933   7.940   2.268   0.053  0.0444  0.3598  0.2310
12487SOL    HW149934   7.975   2.199   0.115  0.3549 -0.5734 -0.9703
12487SOL    HW249935   7.933   2.230  -0.039 -2.2405  1.1229  0.0537
12488SOL     OW49936   3.969   0.929   5.450  0.5567  0.3106 -0.3892
12488SOL    HW149937   3.893   0.931   5.515  1.2145  0.7643  0.3696
12488SOL    HW249938   3.938   0.890   5.363 -0.8146  1.4177 -0.4149
12489SOL     OW49939   5.840   0.100   6.445 -0.4946  0.6072 -0.3174
12489SOL    HW149940   5.760   0.159   6.438 -0.6673  0.1860 -2.5414
12489SOL    HW249941   5.923   0.157   6.453 -0.8503  1.0963 -0.0997
12490SOL     OW49942   3.745   1.402   2.869 -0.3876  0.2798  0.5224
12490SOL    HW149943   3.754   1.452   2.955 -0.9543  0.2311  0.6105
12490SOL    HW249944   3.836   1.370   2.840  0.3394  3.3818 -0.7856
12491SOL     OW49945   7.930   7.733   0.133  0.7631  0.2755  0.4011
12491SOL    HW149946   7.857   7.693   0.078  3.0160 -0.8095 -1.8816
12491SOL    HW249947   7.901   7.823   0.166 -2.0785 -0.6658  0.6356
12492SOL     OW49948   2.911   3.421   3.924 -0.3616 -0.1567 -0.1643
12492SOL    HW149949   2.825   3.469   3.939 -0.3671  0.4857 -2.1008
12492SOL    HW249950   2.893   3.327   3.898 -0.3895 -0.7660  1.9410
12493SOL     OW49951   1.845   6.034   3.466  0.3962  0.0928 -0.2854
12493SOL    HW149952   1.931   6.009   3.512  0.3825  1.3125  0.4408
12493SOL    HW249953   1.863   6.107   3.400  0.2287 -0.9315 -1.4718
12494SOL     OW49954   2.023   7.690   0.207  0.4173  0.2381 -0.2259
12494SOL    HW149955   2.008   7.646   0.296 -1.2316 -0.3536 -0.7880
12494SOL    HW249956   2.085   7.633   0.153 -0.0163 -0.3272 -0.1378
12495SOL     OW49957   1.398   6.955   3.550 -0.7463 -0.1432 -0.1661
12495SOL    HW149958   1.390   6.876   3.610 -0.9039 -0.5032 -0.6495
12495SOL    HW249959   1.308   6.995   3.534 -0.8234 -0.5813 -0.8580
12496SOL     OW49960   2.931   3.714   0.674  0.2604 -0.0638 -0.3485
12496SOL    HW149961   2.848   3.660   0.670  0.3076 -0.1100 -0.7437
12496SOL    HW249962   3.009   3.659   0.643  0.3301  0.1843 -0.6223
12497SOL     OW49963   2.349   0.658   6.628 -0.4162  0.4817 -0.1301
12497SOL    HW149964   2.344   0.616   6.538 -0.6774 -0.9853  0.5578
12497SOL    HW249965   2.289   0.738   6.631 -2.2142 -0.8226 -0.5396
12498SOL     OW49966   1.517   1.275   1.092  0.5647 -0.4443  0.4830
12498SOL    HW149967   1.455   1.217   1.039 -1.4714  0.8540  1.3899
12498SOL    HW249968   1.563   1.338   1.030 -0.5110 -0.0899  0.0188
12499SOL     OW49969   5.757   4.800   5.646 -0.1394  0.2314 -0.0931
12499SOL    HW149970   5.678   4.805   5.707 -0.1437  0.3106 -0.1062
12499SOL    HW249971   5.728   4.770   5.555  0.1258 -1.7183  0.4362
12500SOL     OW49972   4.442   2.121   5.829 -0.2813  0.2974  0.5686
12500SOL    HW149973   4.377   2.157   5.896 -2.0080 -1.2406 -0.2321
12500SOL    HW249974   4.485   2.038   5.866  0.0967  0.4569  0.4891
12501SOL     OW49975   5.242   2.612   6.639  0.5821  0.0329 -0.6960
12501SOL    HW149976   5.230   2.697   6.587  0.5973  0.3646 -0.1569
12501SOL    HW249977   5.166   2.550   6.619  0.8518 -0.0437 -1.5046
12502SOL     OW49978   2.753   6.058   2.496 -0.1168  0.2369  0.3145
12502SOL    HW149979   2.700   5.974   2.479 -1.1365  1.2939 -1.9110
12502SOL    HW249980   2.703   6.117   2.559 -0.6026  0.2773 -0.1026
12503SOL     OW49981   8.945   3.219   4.265  0.3647 -0.5153 -0.1266
12503SOL    HW149982   8.881   3.171   4.204 -0.2176  2.1078 -1.6750
12503SOL    HW249983   9.034   3.224   4.221 -0.6247  3.3536 -1.8778
12504SOL     OW49984   2.895   2.517   1.516  0.4393 -0.8269  0.3298
12504SOL    HW149985   2.989   2.551   1.520  0.3753 -0.4936 -0.8831
12504SOL    HW249986   2.883   2.460   1.435 -0.6225 -0.2061  0.0458
12505SOL     OW49987   5.075   8.420   5.774 -0.0111  0.9776  0.1651
12505SOL    HW149988   5.061   8.369   5.690  1.6984  2.6896 -1.2163
12505SOL    HW249989   5.100   8.357   5.848  2.8021 -0.1504 -1.6639
12506SOL     OW49990   6.832   3.075   6.907  0.2399 -0.5227  0.0020
12506SOL    HW149991   6.804   2.995   6.854  1.1239 -2.1519  1.9118
12506SOL    HW249992   6.925   3.101   6.881  0.0111 -0.2046 -0.5077
12507SOL     OW49993   7.715   5.988   1.140  0.3652  0.6051  0.1595
12507SOL    HW149994   7.631   6.008   1.191  0.1806 -0.7973  0.4272
12507SOL    HW249995   7.701   5.907   1.083  0.6321  2.0365 -1.9947
12508SOL     OW49996   4.611   2.860   8.189  0.4514 -0.0803 -0.6496
12508SOL    HW149997   4.646   2.775   8.149 -0.3004 -0.4722 -0.4945
12508SOL    HW249998   4.519   2.844   8.226 -0.0405  1.0177 -1.3792
12509SOL     OW49999   1.381   3.437   3.655  0.2840  0.4439 -0.1145
12509SOL    HW150000   1.443   3.414   3.731 -0.5975 -0.9624  0.1876
12509SOL    HW250001   1.314   3.504   3.686 -1.0613 -1.3102  0.8172
12510SOL     OW50002   5.312   0.172   3.592  0.1948  0.4807  0.2065
12510SOL    HW150003   5.258   0.139   3.515 -0.4331 -0.0277  0.8582
12510SOL    HW250004   5.408   0.153   3.576  0.0766  0.4555 -0.4920
12511SOL     OW50005   8.617   6.382   5.231  0.5551  0.4821  0.5523
12511SOL    HW150006   8.582   6.292   5.254 -0.5874  0.5402 -0.8963
12511SOL    HW250007   8.716   6.378   5.222  0.3636 -1.0221 -1.1558
12512SOL     OW50008   3.982   5.729   5.218 -0.2098 -0.6236  0.2338
12512SOL    HW150009   3.971   5.816   5.266  0.9084 -0.0683 -0.4878
12512SOL    HW250010   3.982   5.745   5.119 -1.9508 -1.6896  0.0462
12513SOL     OW50011   6.147   4.366   8.528  0.1860 -0.2131  0.2532
12513SOL    HW150012   6.189   4.456   8.542 -0.0015 -0.1330  0.2967
12513SOL    HW250013   6.190   4.300   8.590  0.0626 -0.0738  0.4889
12514SOL     OW50014   0.214   1.066   7.100 -0.2323 -0.1934  0.0883
12514SOL    HW150015   0.244   0.971   7.102  0.6712  0.1192  1.6021
12514SOL    HW250016   0.114   1.069   7.098 -0.2693 -1.1599  0.2805
12515SOL     OW50017   3.432   8.991   0.499 -0.4478  0.0077 -0.6976
12515SOL    HW150018   3.340   9.006   0.536  0.6966  2.5450  1.3238
12515SOL    HW250019   3.434   9.015   0.402 -1.9214 -0.1019 -0.7577
12516SOL     OW50020   2.002   4.995   1.380 -0.3865  0.1345  1.1329
12516SOL    HW150021   1.998   4.903   1.417 -0.5533 -0.3018  0.0416
12516SOL    HW250022   1.909   5.034   1.378 -0.4220  0.0335  0.8553
12517SOL     OW50023   4.251   1.677   1.608  0.2459 -0.4442  0.5270
12517SOL    HW150024   4.152   1.696   1.604  0.5219  0.9291 -0.2228
12517SOL    HW250025   4.286   1.704   1.698  0.1652  0.2940  0.3442
12518SOL     OW50026   5.270   7.887   2.776  0.1799  0.3644 -0.2680
12518SOL    HW150027   5.173   7.884   2.754  0.0748  0.1965  0.2175
12518SOL    HW250028   5.308   7.795   2.771  0.6514  0.6342 -1.9551
12519SOL     OW50029   2.764   3.585   1.811  0.0661 -0.1617 -0.0382
12519SOL    HW150030   2.713   3.499   1.807  0.8552 -0.6359 -0.0637
12519SOL    HW250031   2.768   3.625   1.719  0.4138 -0.5237 -0.1835
12520SOL     OW50032   5.714   8.664   0.460  0.5933 -0.0499 -0.5424
12520SOL    HW150033   5.635   8.683   0.518  1.7403 -1.3160  1.5118
12520SOL    HW250034   5.698   8.580   0.408 -0.3798  1.0034 -1.9395
12521SOL     OW50035   4.873   5.159   3.647  0.6076 -0.2845 -0.2021
12521SOL    HW150036   4.877   5.078   3.589 -0.1880 -0.0442 -0.5966
12521SOL    HW250037   4.807   5.224   3.610  1.9435  0.9845 -0.4422
12522SOL     OW50038   1.733   5.892   3.846  0.4256  0.5458 -0.0395
12522SOL    HW150039   1.675   5.932   3.775  1.5944  1.4287 -0.5183
12522SOL    HW250040   1.695   5.913   3.936 -0.6558  0.0680 -0.3749
12523SOL     OW50041   0.036   5.752   2.839  0.1397 -0.4774 -0.0290
12523SOL    HW150042   0.072   5.717   2.753  0.7643  0.2794 -0.0824
12523SOL    HW250043   0.048   5.683   2.911  1.0760 -0.4961 -0.1983
12524SOL     OW50044   0.650   3.420   5.768  0.0450  0.1046 -0.4462
12524SOL    HW150045   0.708   3.340   5.783  0.4085  0.7370  1.6553
12524SOL    HW250046   0.562   3.405   5.814  1.1153  2.0285  2.3283
12525SOL     OW50047   6.201   7.369   0.257  0.0725 -0.3210 -0.2702
12525SOL    HW150048   6.109   7.337   0.282  0.9452 -2.5422  0.1661
12525SOL    HW250049   6.246   7.406   0.338  0.1703 -0.7508 -0.1266
12526SOL     OW50050   3.151   4.852   3.451 -0.2360  0.1836  0.2101
12526SOL    HW150051   3.095   4.902   3.517  1.2553 -1.4032  2.7821
12526SOL    HW250052   3.232   4.905   3.429  0.9319 -0.6912  2.2913
12527SOL     OW50053   8.751   1.102   5.914 -0.0071  0.1092  0.0463
12527SOL    HW150054   8.679   1.034   5.929 -1.2100  1.1179 -0.9136
12527SOL    HW250055   8.708   1.192   5.898  1.5654  1.2898  2.2696
12528SOL     OW50056   7.515   8.717   8.861  1.0607  0.3642 -0.4566
12528SOL    HW150057   7.518   8.617   8.865 -1.0265  0.2349 -1.5650
12528SOL    HW250058   7.500   8.753   8.953  1.2162 -0.3758 -0.1365
12529SOL     OW50059   7.990   3.144   2.030  0.2542 -0.0897 -0.0024
12529SOL    HW150060   8.050   3.080   2.078  0.7495  0.2601 -0.1602
12529SOL    HW250061   7.900   3.145   2.074  1.1395  1.3035  1.7842
12530SOL     OW50062   1.700   0.143   6.180  0.2755 -0.1061  0.8794
12530SOL    HW150063   1.722   0.085   6.102  0.6042  0.6680  0.3826
12530SOL    HW250064   1.748   0.109   6.262 -1.8885 -2.2875  1.3017
12531SOL     OW50065   5.814   5.108   4.782  0.0530 -0.2174 -0.1040
12531SOL    HW150066   5.886   5.098   4.851 -0.8660 -0.6545  0.8023
12531SOL    HW250067   5.734   5.055   4.810 -0.2060 -0.6997 -1.6854
12532SOL     OW50068   6.459   4.003   5.206 -0.1542  0.2513  0.3345
12532SOL    HW150069   6.528   3.988   5.277  0.3654  0.1557 -0.1878
12532SOL    HW250070   6.499   3.987   5.116 -0.9935 -0.2843  0.0483
12533SOL     OW50071   3.428   4.060   5.677  0.0769 -0.1644 -0.2632
12533SOL    HW150072   3.508   4.121   5.673 -0.8348  1.0717 -0.1262
12533SOL    HW250073   3.409   4.025   5.586  1.5134 -1.4542 -0.0828
12534SOL     OW50074   1.775   1.758   0.639  0.3964 -0.4001 -0.7001
12534SOL    HW150075   1.748   1.774   0.734 -0.9065 -0.6900 -1.0103
12534SOL    HW250076   1.746   1.667   0.611  1.2179 -0.5075 -1.2362
12535SOL     OW50077   8.338   4.947   7.886  0.2738 -0.4346  0.3853
12535SOL    HW150078   8.334   4.847   7.890 -0.7049 -0.3420  2.5535
12535SOL    HW250079   8.433   4.976   7.898  0.6303 -1.1048 -0.7088
12536SOL     OW50080   0.103   5.088   3.175 -0.0447 -0.2032 -0.2408
12536SOL    HW150081   0.054   5.173   3.156  0.0287 -0.0160  0.3987
12536SOL    HW250082   0.040   5.022   3.215 -0.0545 -0.3864 -0.5524
12537SOL     OW50083   4.299   0.711   1.523 -0.1359  0.1972  0.0936
12537SOL    HW150084   4.229   0.705   1.451  0.4759 -1.8099 -0.3755
12537SOL    HW250085   4.389   0.696   1.482  0.3150  0.1248  1.1007
12538SOL     OW50086   6.602   3.469   4.386  0.6970  0.3510  0.2845
12538SOL    HW150087   6.536   3.502   4.452  0.5757 -0.2080  0.4447
12538SOL    HW250088   6.691   3.456   4.431  0.0974 -2.0472  0.8493
12539SOL     OW50089   0.967   4.501   2.088  0.3297 -0.0338  0.2460
12539SOL    HW150090   1.065   4.483   2.102  0.3822 -1.1783 -1.5663
12539SOL    HW250091   0.954   4.544   1.999 -0.8523 -0.0514  0.4112
12540SOL     OW50092   2.692   0.750   7.565 -0.4185 -0.0628 -0.2421
12540SOL    HW150093   2.728   0.666   7.604  0.2327 -0.2434 -1.2333
12540SOL    HW250094   2.710   0.752   7.467 -0.0274  1.4396 -0.1490
12541SOL     OW50095   7.062   3.644   1.268  0.0881 -0.2097 -0.5156
12541SOL    HW150096   7.086   3.590   1.349  2.0686  0.4406 -0.6360
12541SOL    HW250097   6.964   3.637   1.251 -0.3584 -0.3315  1.9552
12542SOL     OW50098   2.317   3.936   1.228  0.7205  0.2702  0.1749
12542SOL    HW150099   2.290   3.895   1.315  2.1617  2.2532  1.6045
12542SOL    HW250100   2.240   3.931   1.164  0.1407 -2.5838  1.0077
12543SOL     OW50101   2.438   6.866   7.295 -0.2645 -0.4316 -0.1841
12543SOL    HW150102   2.433   6.952   7.245  0.6010 -0.1704  0.1606
12543SOL    HW250103   2.377   6.799   7.253 -2.4905  0.9502  0.7804
12544SOL     OW50104   0.998   8.721   8.095  0.1164 -0.0467 -0.1787
12544SOL    HW150105   0.936   8.670   8.156 -1.2082 -0.5250 -1.8959
12544SOL    HW250106   0.954   8.806   8.067  0.8661  0.3286 -0.2187
12545SOL     OW50107   6.494   4.730   0.818  0.4650 -0.6886  0.1487
12545SOL    HW150108   6.476   4.727   0.917  2.0036 -2.0058  0.4266
12545SOL    HW250109   6.593   4.728   0.803  0.2701  0.8864 -1.4015
12546SOL     OW50110   6.746   4.822   5.258 -0.4842 -0.2917 -0.3273
12546SOL    HW150111   6.796   4.849   5.176 -2.1075  0.8873 -0.9498
12546SOL    HW250112   6.795   4.856   5.339  0.0022  0.3891 -0.9021
12547SOL     OW50113   6.271   4.623   8.545  0.2756  0.2702 -0.2869
12547SOL    HW150114   6.351   4.673   8.514  0.9138 -0.7409 -0.2969
12547SOL    HW250115   6.189   4.662   8.503  0.7622  1.2615 -0.3293
12548SOL     OW50116   8.058   7.255   8.306  0.3195  0.1510 -0.1417
12548SOL    HW150117   8.117   7.252   8.225  0.1619  0.7994 -0.2836
12548SOL    HW250118   7.966   7.281   8.279  0.3562  0.7386  0.2995
12549SOL     OW50119   6.603   3.875   1.093 -0.0297 -0.2806  0.1505
12549SOL    HW150120   6.647   3.939   1.156  0.2184  1.0877 -1.3912
12549SOL    HW250121   6.670   3.837   1.030 -0.5604 -0.3552 -0.3787
12550SOL     OW50122   2.561   1.009   7.548 -0.1096  0.7470  0.5853
12550SOL    HW150123   2.519   1.062   7.622  2.0165 -0.2366  2.5414
12550SOL    HW250124   2.602   0.926   7.585 -1.2841 -1.1115 -2.1038
12551SOL     OW50125   2.391   6.535   0.145  0.3116  0.4192  0.7962
12551SOL    HW150126   2.436   6.607   0.198 -0.8525  0.7025  1.4152
12551SOL    HW250127   2.374   6.456   0.204 -2.0698  1.1899  1.1692
12552SOL     OW50128   3.726   2.791   6.923 -0.1489  0.0611 -0.6646
12552SOL    HW150129   3.753   2.704   6.964  0.8209  0.7916  0.2868
12552SOL    HW250130   3.657   2.835   6.981 -0.7545 -0.1537 -1.2257
12553SOL     OW50131   6.783   4.529   5.346  0.2378 -0.0866 -0.0048
12553SOL    HW150132   6.852   4.525   5.418  1.9515  0.0007 -1.5976
12553SOL    HW250133   6.762   4.624   5.324 -1.9358 -0.0783  1.8608
12554SOL     OW50134   8.067   5.810   5.950 -0.6296 -0.3149 -0.1683
12554SOL    HW150135   8.149   5.818   6.007 -0.2570 -1.1886 -0.5630
12554SOL    HW250136   8.082   5.738   5.882 -1.1630  0.5430 -1.1985
12555SOL     OW50137   5.177   5.546   7.254  0.0471 -0.1527  0.3684
12555SOL    HW150138   5.168   5.637   7.295  1.0062 -0.0101  0.2660
12555SOL    HW250139   5.225   5.554   7.166  0.0744 -0.7535  0.3295
12556SOL     OW50140   3.808   7.264   7.008 -0.2916 -0.0135 -0.6053
12556SOL    HW150141   3.904   7.240   6.993 -0.3966  0.4988 -2.1445
12556SOL    HW250142   3.756   7.181   7.031  0.3071 -0.4517 -0.8170
12557SOL     OW50143   4.610   7.362   7.455 -0.2542 -0.0443 -0.5280
12557SOL    HW150144   4.524   7.380   7.407  0.2497  2.5765 -0.5045
12557SOL    HW250145   4.660   7.290   7.407 -2.2152 -1.2502 -0.8234
12558SOL     OW50146   2.450   3.301   2.724  0.8993  0.1636  0.0387
12558SOL    HW150147   2.545   3.330   2.712  0.6732  0.4146 -1.1977
12558SOL    HW250148   2.422   3.316   2.819  0.9746  3.4996 -0.4115
12559SOL     OW50149   7.244   4.321   1.409 -0.1237 -0.0805  0.4556
12559SOL    HW150150   7.239   4.274   1.497 -2.5367 -1.1115 -0.1951
12559SOL    HW250151   7.298   4.266   1.345  0.2238 -0.1336  0.7895
12560SOL     OW50152   3.229   6.130   4.549 -0.2001  0.3563 -0.1101
12560SOL    HW150153   3.211   6.201   4.617  0.9172  0.8434 -0.3081
12560SOL    HW250154   3.177   6.047   4.572 -0.2099  0.6817  1.0590
12561SOL     OW50155   7.466   4.026   8.759  0.1878  0.1210  1.3661
12561SOL    HW150156   7.377   4.067   8.743 -0.6568 -1.5452  1.6463
12561SOL    HW250157   7.469   3.988   8.852  1.3708  0.6346  1.5411
12562SOL     OW50158   3.121   6.269   7.732 -0.0008  0.1025  0.2345
12562SOL    HW150159   3.026   6.256   7.704  0.0163  0.9751 -0.2610
12562SOL    HW250160   3.180   6.202   7.686 -0.0522  1.1444 -1.3928
12563SOL     OW50161   6.853   3.540   7.568 -0.1644 -0.1898 -0.0731
12563SOL    HW150162   6.895   3.528   7.658 -0.0187  1.3994  0.0857
12563SOL    HW250163   6.754   3.551   7.580 -0.4552 -2.3700 -0.3176
12564SOL     OW50164   1.948   2.403   5.036 -0.6874 -0.4248 -0.6277
12564SOL    HW150165   1.957   2.334   4.964  1.3505  0.4687 -1.2645
12564SOL    HW250166   1.961   2.360   5.125  1.6396 -0.7339 -1.0707
12565SOL     OW50167   8.219   4.884   6.584 -0.1364  0.1556  0.0107
12565SOL    HW150168   8.284   4.956   6.560  0.8127 -0.1617  1.5912
12565SOL    HW250169   8.129   4.926   6.602  0.7426  1.1567  2.3220
12566SOL     OW50170   7.367   1.260   0.838  0.3581  0.1222 -0.1181
12566SOL    HW150171   7.283   1.206   0.846  0.8878 -1.0915 -2.2439
12566SOL    HW250172   7.431   1.234   0.910 -1.0071  0.9229  1.3987
12567SOL     OW50173   0.185   4.582   6.139 -0.0719  0.2336  0.1494
12567SOL    HW150174   0.208   4.514   6.209 -1.7412 -1.4058 -0.8263
12567SOL    HW250175   0.267   4.631   6.111  1.0517 -0.9033  1.3854
12568SOL     OW50176   7.294   6.125   5.345  0.3934 -0.2283  0.5108
12568SOL    HW150177   7.301   6.047   5.283  1.0252  2.6514 -3.2651
12568SOL    HW250178   7.257   6.204   5.295  1.6356  2.4585  3.6218
12569SOL     OW50179   7.110   3.686   8.148 -0.1822 -0.3202  0.1350
12569SOL    HW150180   7.205   3.716   8.150 -0.3224  0.1844 -0.5399
12569SOL    HW250181   7.050   3.761   8.175 -0.3854 -0.6677  0.6576
12570SOL     OW50182   1.272   7.367   7.350 -0.3877 -0.3400  0.3424
12570SOL    HW150183   1.202   7.299   7.370 -1.7765  1.1935  0.8489
12570SOL    HW250184   1.247   7.417   7.267 -1.8834  2.7173  2.5268
12571SOL     OW50185   0.607   2.269   7.507  0.4759 -0.1128  0.4551
12571SOL    HW150186   0.605   2.293   7.604  1.6441  0.4622  0.3343
12571SOL    HW250187   0.518   2.293   7.466 -1.7132 -4.4641  2.3268
12572SOL     OW50188   6.701   4.969   0.540 -0.2444 -0.0033 -0.0999
12572SOL    HW150189   6.638   4.891   0.536  1.4284 -1.3199 -1.6682
12572SOL    HW250190   6.787   4.940   0.583  1.2074  0.3697 -2.6694
12573SOL     OW50191   1.942   6.159   0.951  0.2017 -0.3050 -0.3189
12573SOL    HW150192   1.960   6.073   0.999  0.3454  0.7610  1.5878
12573SOL    HW250193   1.902   6.224   1.015 -2.4077  0.1927 -2.3789
12574SOL     OW50194   2.290   6.296   0.274 -0.4779 -0.0767  0.0590
12574SOL    HW150195   2.306   6.246   0.359  3.4261  0.0947 -0.4980
12574SOL    HW250196   2.266   6.232   0.201 -0.5468 -0.5808  0.5285
12575SOL     OW50197   1.994   8.970   8.859  0.2316 -0.1862 -0.6220
12575SOL    HW150198   2.062   8.897   8.865 -0.7646 -0.9746  1.8075
12575SOL    HW250199   2.023   9.048   8.915 -0.2051  0.0217 -0.6797
12576SOL     OW50200   4.674   3.816   8.696 -0.1575  0.8283  0.3540
12576SOL    HW150201   4.687   3.745   8.766 -0.7342  0.2233 -0.1491
12576SOL    HW250202   4.661   3.773   8.607  2.3615  1.6536 -0.4394
12577SOL     OW50203   4.104   6.799   2.589  0.0511 -0.3124  0.0933
12577SOL    HW150204   4.163   6.772   2.666  0.3929  2.1171  0.7347
12577SOL    HW250205   4.009   6.801   2.619 -0.1465 -2.1081 -0.3477
12578SOL     OW50206   6.124   6.462   3.496 -0.1007 -0.1810  0.0957
12578SOL    HW150207   6.129   6.543   3.554  0.6133 -0.1830  0.0403
12578SOL    HW250208   6.031   6.426   3.497  0.1710 -0.8796  2.1968
12579SOL     OW50209   6.584   8.512   1.262  0.3454 -0.4859 -0.5951
12579SOL    HW150210   6.599   8.504   1.360  0.8091  0.9046 -0.5398
12579SOL    HW250211   6.668   8.489   1.213  0.1428 -1.0847 -0.6629
12580SOL     OW50212   2.953   6.185   7.070 -0.0446 -0.3265 -0.0906
12580SOL    HW150213   2.902   6.258   7.116 -0.6831 -1.3631  0.8667
12580SOL    HW250214   3.009   6.136   7.137  1.1206 -0.1109 -0.8959
12581SOL     OW50215   4.682   1.652   5.174  0.5558 -0.1803  0.0779
12581SOL    HW150216   4.706   1.654   5.077 -0.0380 -0.3766 -0.0739
12581SOL    HW250217   4.588   1.621   5.185  0.5464  0.0586  0.7060
12582SOL     OW50218   7.777   7.694   3.761 -0.5011  0.2387 -0.0572
12582SOL    HW150219   7.812   7.728   3.674 -2.2202  0.0033 -0.8568
12582SOL    HW250220   7.747   7.772   3.817  1.1020  0.4304  0.5699
12583SOL     OW50221   5.796   0.900   8.265 -0.2073 -0.1649  0.1563
12583SOL    HW150222   5.783   0.993   8.301  2.4518  0.0114  0.7674
12583SOL    HW250223   5.775   0.834   8.337  0.0260  0.0374  0.4153
12584SOL     OW50224   1.740   8.752   1.352 -0.3495  0.0357  0.1205
12584SOL    HW150225   1.736   8.676   1.287  2.5808  1.1869 -1.5266
12584SOL    HW250226   1.735   8.839   1.303  0.6651  0.9327  1.5353
12585SOL     OW50227   4.371   8.035   5.034  0.0463  0.2448 -0.4552
12585SOL    HW150228   4.396   8.128   5.062  0.4716  0.2429 -0.8116
12585SOL    HW250229   4.362   8.032   4.935 -1.2359  0.2057 -0.3486
12586SOL     OW50230   3.985   5.839   5.760 -0.0972  0.1600  0.5824
12586SOL    HW150231   4.020   5.890   5.682  0.3415 -0.8319  0.1260
12586SOL    HW250232   4.058   5.785   5.801 -0.9462 -1.4540 -0.0071
12587SOL     OW50233   2.241   8.849   2.716 -0.4370 -0.6025  0.4731
12587SOL    HW150234   2.148   8.883   2.707 -0.3929 -0.7338 -0.6232
12587SOL    HW250235   2.280   8.835   2.625  0.2339 -1.7025  0.9150
12588SOL     OW50236   7.208   7.124   4.214  0.3089 -0.9355  0.1400
12588SOL    HW150237   7.301   7.107   4.181  0.2277 -0.6247 -0.2539
12588SOL    HW250238   7.211   7.197   4.283  0.1056  0.5664 -1.3962
12589SOL     OW50239   4.344   8.861   5.904  0.4000  0.1755  0.0956
12589SOL    HW150240   4.376   8.853   5.810 -1.5779 -0.2069 -0.5496
12589SOL    HW250241   4.337   8.958   5.928  1.2432  0.2719 -0.0242
12590SOL     OW50242   3.723   2.014   4.180 -0.6593 -0.5817  0.0668
12590SOL    HW150243   3.746   1.965   4.264  0.5706  1.0585  0.7165
12590SOL    HW250244   3.687   2.105   4.204 -1.6653 -0.6538 -1.1436
12591SOL     OW50245   8.323   1.562   1.570 -0.4222  0.2994  0.3744
12591SOL    HW150246   8.278   1.583   1.483  2.4287  0.2855 -1.1594
12591SOL    HW250247   8.384   1.637   1.595  1.0074 -0.9858  0.8358
12592SOL     OW50248   1.952   3.115   5.044 -0.7255  0.2261 -0.2109
12592SOL    HW150249   1.997   3.028   5.064 -1.1359 -0.1674 -0.9803
12592SOL    HW250250   1.853   3.101   5.036 -1.0501  1.1362  1.7714
12593SOL     OW50251   7.081   3.506   4.593  0.1065 -0.2384 -0.3028
12593SOL    HW150252   7.093   3.598   4.556 -0.8881  1.1504  2.6018
12593SOL    HW250253   7.147   3.491   4.666 -0.2400 -1.5387 -0.2486
12594SOL     OW50254   2.662   1.329   5.805 -0.6199  0.1975 -0.6216
12594SOL    HW150255   2.694   1.243   5.846 -0.1233  0.2112 -0.9651
12594SOL    HW250256   2.689   1.405   5.863 -2.8627 -0.0128  0.7445
12595SOL     OW50257   6.895   3.395   3.102  0.5526 -0.4733 -0.3612
12595SOL    HW150258   6.815   3.451   3.076  0.8448 -0.1661 -0.6056
12595SOL    HW250259   6.871   3.298   3.097 -0.0031 -0.3695  0.2002
12596SOL     OW50260   3.529   6.439   6.709  0.1937  0.0315 -0.3556
12596SOL    HW150261   3.528   6.356   6.766  2.4903 -0.5948 -1.1802
12596SOL    HW250262   3.621   6.455   6.675 -0.0044  3.5556  0.6111
12597SOL     OW50263   3.106   4.881   7.161 -0.0503  0.1510  0.2563
12597SOL    HW150264   3.115   4.972   7.121 -2.5180  0.2029 -0.2327
12597SOL    HW250265   3.064   4.819   7.096 -1.8662 -0.3769  1.8713
12598SOL     OW50266   0.093   2.709   8.184  0.6302  0.1472  0.1001
12598SOL    HW150267  -0.007   2.716   8.181  0.5656 -0.0001  1.4532
12598SOL    HW250268   0.124   2.645   8.113 -0.2414  0.1055 -0.2486
12599SOL     OW50269   4.590   6.287   1.204 -0.7096  0.0807  0.0541
12599SOL    HW150270   4.648   6.248   1.275 -0.5088  2.2227  1.1124
12599SOL    HW250271   4.531   6.216   1.166  1.2406 -1.7128  0.2998
12600SOL     OW50272   0.268   5.606   2.631  0.0545 -0.2996  0.3738
12600SOL    HW150273   0.207   5.549   2.575  0.8626  0.1596 -0.9905
12600SOL    HW250274   0.296   5.686   2.579  0.9547  0.0497  1.3829
12601SOL     OW50275   7.309   2.865   5.314 -0.3097 -0.5420 -0.0796
12601SOL    HW150276   7.254   2.877   5.396  0.3375 -0.2093  0.3083
12601SOL    HW250277   7.296   2.773   5.277 -1.6293 -0.2468 -0.3615
12602SOL     OW50278   1.674   3.726   2.845 -0.4177  0.2007 -0.8975
12602SOL    HW150279   1.582   3.697   2.818 -1.0730  2.5070 -1.2653
12602SOL    HW250280   1.671   3.822   2.875  1.3982 -0.4837  1.5722
12603SOL     OW50281   7.157   5.706   5.635  0.1286  0.0117 -0.0515
12603SOL    HW150282   7.168   5.747   5.544  0.8443 -1.9317 -0.8589
12603SOL    HW250283   7.077   5.646   5.636  1.0743 -1.2666  0.1083
12604SOL     OW50284   2.368   7.280   8.442 -0.7951  0.5683 -0.1167
12604SOL    HW150285   2.441   7.216   8.463 -1.7148 -0.4384  0.0676
12604SOL    HW250286   2.396   7.372   8.469 -0.3743 -0.0913  1.8157
12605SOL     OW50287   1.737   8.326   8.843 -0.1880  0.2710  0.8492
12605SOL    HW150288   1.777   8.250   8.791  0.0909  1.1816 -0.2727
12605SOL    HW250289   1.715   8.294   8.936 -0.0381 -1.1700  0.4090
12606SOL     OW50290   8.421   4.477   4.662 -0.0557  0.2380  0.1533
12606SOL    HW150291   8.476   4.512   4.586 -0.8449 -0.1480 -0.6044
12606SOL    HW250292   8.422   4.377   4.661 -1.4189  0.2255 -0.3402
12607SOL     OW50293   4.009   5.655   4.517  0.2575 -0.2531 -0.4366
12607SOL    HW150294   4.069   5.577   4.497 -1.7556 -1.8996 -0.3170
12607SOL    HW250295   4.053   5.716   4.581  2.5903 -0.3958 -1.8568
12608SOL     OW50296   4.881   2.625   0.135  0.1319  0.0889  0.5812
12608SOL    HW150297   4.910   2.533   0.164 -1.0984 -0.1913  0.9653
12608SOL    HW250298   4.833   2.618   0.048 -2.0540  0.0295  1.7544
12609SOL     OW50299   8.803   4.904   5.211 -0.3378 -0.4298 -0.3701
12609SOL    HW150300   8.725   4.962   5.235  1.5681  1.8083  0.5637
12609SOL    HW250301   8.856   4.947   5.137 -0.3242 -2.2566 -1.4729
12610SOL     OW50302   6.724   8.766   1.475  0.0629  0.4521  0.0796
12610SOL    HW150303   6.662   8.838   1.507 -3.0333 -1.2405 -1.8889
12610SOL    HW250304   6.772   8.797   1.393 -0.4340  0.6805 -0.1246
12611SOL     OW50305   7.689   8.736   5.644 -0.4859 -0.1028  0.0848
12611SOL    HW150306   7.595   8.713   5.619 -0.7268  0.2659  0.6547
12611SOL    HW250307   7.726   8.664   5.702  1.0005 -2.3500 -3.5059
12612SOL     OW50308   1.260   7.742   1.623 -0.9945  0.2961  0.1522
12612SOL    HW150309   1.285   7.667   1.562  0.6370  1.9000 -1.2329
12612SOL    HW250310   1.178   7.787   1.589 -1.4739 -0.3206  0.4945
12613SOL     OW50311   6.103   4.747   8.324 -0.5365 -0.1090  0.1795
12613SOL    HW150312   6.038   4.794   8.385 -0.8704  1.1113 -1.0968
12613SOL    HW250313   6.056   4.671   8.278 -0.4576 -0.6195  0.9280
12614SOL     OW50314   1.813   6.715   6.214  0.3064 -0.2419 -0.1089
12614SOL    HW150315   1.746   6.698   6.142  0.5189 -1.2688 -0.0693
12614SOL    HW250316   1.790   6.800   6.262  1.6160  1.8942 -3.0538
12615SOL     OW50317   5.876   3.030   3.110 -0.1327  0.4544  0.4324
12615SOL    HW150318   5.902   2.964   3.041  1.2189  1.4080  0.0087
12615SOL    HW250319   5.933   3.018   3.192  0.9307  1.8277 -0.0851
12616SOL     OW50320   3.330   4.234   5.054  0.3296  0.3805 -0.1862
12616SOL    HW150321   3.300   4.324   5.085  0.6534  0.0790  0.9941
12616SOL    HW250322   3.409   4.244   4.993  0.0550  0.9216 -0.4553
12617SOL     OW50323   0.220   0.234   7.125 -0.5952  0.3334  0.6023
12617SOL    HW150324   0.285   0.271   7.191  0.6797  1.4158 -1.2222
12617SOL    HW250325   0.251   0.144   7.094 -1.3205 -0.2850  1.6122
12618SOL     OW50326   8.499   2.248   4.870 -0.5196  0.2207  0.2948
12618SOL    HW150327   8.570   2.208   4.812 -2.1481 -0.8016 -1.0731
12618SOL    HW250328   8.465   2.179   4.934 -0.1400  0.7571  1.0748
12619SOL     OW50329   0.614   3.234   6.499 -0.2894 -0.1809 -0.2657
12619SOL    HW150330   0.538   3.279   6.451  1.6985  0.7705 -2.5980
12619SOL    HW250331   0.651   3.296   6.568  0.8579  0.8458 -1.7914
12620SOL     OW50332   4.046   4.900   6.463 -0.0499  0.0571  0.1019
12620SOL    HW150333   4.028   4.994   6.436  0.4225 -0.0258 -0.5132
12620SOL    HW250334   4.126   4.897   6.523 -0.1589  0.0642  0.2478
12621SOL     OW50335   8.939   0.259   7.644 -0.3096  0.2281 -0.4272
12621SOL    HW150336   8.993   0.268   7.560  0.4668  0.4337  0.0844
12621SOL    HW250337   8.941   0.345   7.695 -0.6285  0.0518 -0.1106
12622SOL     OW50338   7.688   8.011   1.814  0.3980  0.3597 -0.0261
12622SOL    HW150339   7.723   8.012   1.908 -0.0775 -1.8348  0.2100
12622SOL    HW250340   7.588   8.003   1.817  0.3028  1.3398 -0.7121
12623SOL     OW50341   7.716   2.684   2.740 -0.1121 -0.0053 -0.3886
12623SOL    HW150342   7.774   2.755   2.698 -1.5369  1.0100 -0.6992
12623SOL    HW250343   7.745   2.594   2.708  0.5399  0.5767 -1.4706
12624SOL     OW50344   7.748   1.200   0.079 -0.1549 -0.1611 -0.2279
12624SOL    HW150345   7.752   1.236   0.172 -1.1596  0.4162 -0.4005
12624SOL    HW250346   7.670   1.240   0.031  0.8467  0.1851 -1.5919
12625SOL     OW50347   3.599   8.809   1.116  0.4625 -0.0004 -0.1166
12625SOL    HW150348   3.604   8.725   1.170  0.1670 -1.8932 -2.9311
12625SOL    HW250349   3.672   8.872   1.144 -0.1318 -0.6277  2.9269
12626SOL     OW50350   2.601   3.826   4.605  0.1779  0.2126 -0.3119
12626SOL    HW150351   2.630   3.787   4.693 -0.9162 -2.0063 -0.8869
12626SOL    HW250352   2.636   3.919   4.596  0.3990  0.4362  2.4391
12627SOL     OW50353   0.962   6.360   6.011  0.3560 -0.3532  0.2426
12627SOL    HW150354   0.989   6.442   5.960  0.6635  0.5470  1.8173
12627SOL    HW250355   0.937   6.386   6.105  0.5045 -2.0783  0.7697
12628SOL     OW50356   7.210   4.519   0.840  0.3397  0.9780 -0.2199
12628SOL    HW150357   7.254   4.498   0.927  0.1782  1.9900  0.1133
12628SOL    HW250358   7.262   4.477   0.765 -0.3378 -1.1039  0.4642
12629SOL     OW50359   4.409   8.683   7.379  0.7243 -0.8021  0.3029
12629SOL    HW150360   4.441   8.761   7.326  1.2930 -0.9250  0.4653
12629SOL    HW250361   4.486   8.622   7.399  0.4126 -1.0332  0.8028
12630SOL     OW50362   6.888   2.658   5.933  0.0634  0.2840 -0.1630
12630SOL    HW150363   6.859   2.591   6.001 -1.7171 -0.4571 -1.6093
12630SOL    HW250364   6.810   2.714   5.906  1.1896  1.8815 -0.1561
12631SOL     OW50365   5.346   6.476   7.349  0.2595  0.3273 -0.0673
12631SOL    HW150366   5.306   6.392   7.386  1.3613  0.1036  0.6340
12631SOL    HW250367   5.405   6.518   7.418  0.2481  1.3268 -0.6536
12632SOL     OW50368   7.483   4.953   5.915 -0.3275 -0.0010 -0.7152
12632SOL    HW150369   7.507   5.044   5.950 -0.1636 -0.3342  0.0460
12632SOL    HW250370   7.566   4.903   5.892 -0.3383 -0.5934  0.4938
12633SOL     OW50371   2.192   2.013   4.423  0.2293  0.1079 -1.1613
12633SOL    HW150372   2.188   1.934   4.484 -1.5015  1.5618  0.6694
12633SOL    HW250373   2.135   1.995   4.342 -1.0997 -0.0673 -0.1984
12634SOL     OW50374   0.124   6.609   8.446 -0.3060 -0.4531 -0.6526
12634SOL    HW150375   0.175   6.569   8.523 -1.5217 -1.3932 -0.3197
12634SOL    HW250376   0.177   6.684   8.407  0.6389 -0.4109  0.6624
12635SOL     OW50377   2.308   8.160   1.884 -0.2073 -0.1068 -0.3264
12635SOL    HW150378   2.286   8.085   1.946 -1.4366 -0.1934 -0.8453
12635SOL    HW250379   2.228   8.219   1.875  0.0546  0.0552 -1.6090
12636SOL     OW50380   8.478   2.477   0.837  0.3203 -0.3424 -0.0520
12636SOL    HW150381   8.431   2.541   0.776 -1.4629  0.2106  1.8506
12636SOL    HW250382   8.543   2.527   0.894  1.6620 -0.7947 -1.1632
12637SOL     OW50383   5.882   1.613   1.541  0.6447 -0.4245  0.3859
12637SOL    HW150384   5.797   1.642   1.585 -0.3929  0.6976 -2.2277
12637SOL    HW250385   5.932   1.694   1.510  1.7807 -1.1589  0.2999
12638SOL     OW50386   1.112   1.347   1.871 -0.2545 -0.2213  0.0681
12638SOL    HW150387   1.208   1.321   1.858 -0.8843 -2.1284 -0.9811
12638SOL    HW250388   1.068   1.280   1.931 -0.9007  0.7281  0.6583
12639SOL     OW50389   7.246   3.639   6.130 -0.2582  0.2116 -0.2702
12639SOL    HW150390   7.261   3.691   6.046  0.3032 -2.0757 -1.6526
12639SOL    HW250391   7.185   3.562   6.110  0.5699 -0.8528  1.2282
12640SOL     OW50392   3.237   1.251   4.657  0.6857 -0.7302 -0.2841
12640SOL    HW150393   3.232   1.268   4.559  0.3914 -0.3060 -0.1958
12640SOL    HW250394   3.263   1.155   4.673  2.6084 -0.2980 -0.7744
12641SOL     OW50395   5.553   6.504   4.344 -0.1687  0.0201 -0.1749
12641SOL    HW150396   5.592   6.463   4.427  1.2203 -0.2055 -0.9165
12641SOL    HW250397   5.559   6.603   4.349  0.3609 -0.0096 -0.2105
12642SOL     OW50398   1.977   8.927   2.733 -0.0148 -0.3329 -0.1711
12642SOL    HW150399   1.951   9.021   2.756  2.9753  1.1287 -2.2851
12642SOL    HW250400   1.924   8.896   2.654 -0.1686  0.0390 -0.2164
12643SOL     OW50401   2.153   4.487   6.802 -0.3004  0.6721  0.3303
12643SOL    HW150402   2.126   4.532   6.887  0.4530  0.1546  0.8511
12643SOL    HW250403   2.100   4.402   6.791  0.0291  0.4288  0.5940
12644SOL     OW50404   7.156   3.154   5.469  0.4750 -0.2985  0.0011
12644SOL    HW150405   7.166   3.061   5.504 -1.9369 -0.9051 -0.7668
12644SOL    HW250406   7.129   3.215   5.543  1.3679 -0.3446  0.3683
12645SOL     OW50407   7.071   4.734   2.713  0.4646 -0.7453 -0.1239
12645SOL    HW150408   7.006   4.754   2.786  0.9503  2.2689 -0.4251
12645SOL    HW250409   7.050   4.791   2.633  1.3473 -2.2989 -1.4993
12646SOL     OW50410   5.446   8.025   3.356 -0.7430 -0.4245  0.5294
12646SOL    HW150411   5.389   8.048   3.435 -1.6574  0.0186 -0.2436
12646SOL    HW250412   5.516   8.095   3.344 -0.5443 -0.5421  1.0109
12647SOL     OW50413   8.947   4.567   4.237  0.3137  0.3063 -0.0366
12647SOL    HW150414   8.983   4.655   4.270 -0.5405  0.7747 -0.3261
12647SOL    HW250415   8.924   4.575   4.140 -0.9181  0.1390  0.2300
12648SOL     OW50416   8.985   0.032   4.779 -0.7675 -0.5154 -0.0849
12648SOL    HW150417   9.053  -0.041   4.786  0.8770  0.7807 -2.1606
12648SOL    HW250418   9.031   0.119   4.764 -2.7901  0.7607  0.8645
12649SOL     OW50419   4.235   4.218   5.876  0.1323 -0.4695  0.1036
12649SOL    HW150420   4.288   4.146   5.921  0.7152  0.7919  1.4675
12649SOL    HW250421   4.207   4.286   5.943 -0.7577  0.3805 -1.1015
12650SOL     OW50422   5.574   2.480   8.207 -0.0570 -0.6459  0.8152
12650SOL    HW150423   5.545   2.443   8.296  0.6309  0.0348  1.3274
12650SOL    HW250424   5.555   2.578   8.205  1.7471 -0.2833  0.9664
12651SOL     OW50425   4.515   5.826   1.370  0.2153  0.4532 -0.1217
12651SOL    HW150426   4.581   5.842   1.296  0.0354  0.6119 -0.2496
12651SOL    HW250427   4.507   5.909   1.425  0.5838  0.2319  0.2661
12652SOL     OW50428   3.446   5.655   2.105  0.4703  0.5558 -0.6180
12652SOL    HW150429   3.404   5.568   2.132  1.0630  0.9023  1.4770
12652SOL    HW250430   3.499   5.691   2.181  1.2695  2.1354 -1.9107
12653SOL     OW50431   0.098   2.544   8.464  0.0083 -0.7025 -0.8981
12653SOL    HW150432   0.176   2.573   8.409 -1.0904  0.6402 -1.7837
12653SOL    HW250433   0.040   2.623   8.484 -0.0428 -1.3294  1.4924
12654SOL     OW50434   8.492   4.749   0.257 -0.8562  0.1596 -0.1344
12654SOL    HW150435   8.465   4.840   0.226 -3.2170 -0.7038 -0.7277
12654SOL    HW250436   8.412   4.689   0.257  0.3530 -1.5116  1.7369
12655SOL     OW50437   1.563   1.815   4.169  0.6903 -0.4082 -0.2451
12655SOL    HW150438   1.479   1.762   4.158 -0.7781  1.8799 -0.2543
12655SOL    HW250439   1.616   1.811   4.084 -0.8503  0.5876 -1.2723
12656SOL     OW50440   8.475   5.164   2.548 -0.0350  0.0102 -0.5574
12656SOL    HW150441   8.423   5.249   2.557 -0.9125 -0.7631  1.9259
12656SOL    HW250442   8.565   5.175   2.591 -0.2939 -0.4278  0.1015
12657SOL     OW50443   4.274   6.668   2.787  0.2542 -0.3227  0.4043
12657SOL    HW150444   4.308   6.575   2.803 -0.0335 -0.3560  0.8559
12657SOL    HW250445   4.328   6.733   2.841 -1.1016 -0.4987  2.0365
12658SOL     OW50446   4.961   6.754   1.902  0.4101  0.2998  0.4834
12658SOL    HW150447   4.875   6.704   1.913  1.0174 -0.7456  0.5572
12658SOL    HW250448   5.030   6.716   1.963  1.3935  0.0528 -0.7533
12659SOL     OW50449   3.162   0.931   5.517 -0.3292 -0.1789 -0.3837
12659SOL    HW150450   3.120   0.971   5.436 -0.0449  1.1870  0.1318
12659SOL    HW250451   3.091   0.914   5.586 -0.5430 -1.1729 -0.8332
12660SOL     OW50452   6.044   3.325   5.483  0.7908  0.0876  0.0370
12660SOL    HW150453   5.947   3.330   5.461  1.0994 -0.3505 -1.4647
12660SOL    HW250454   6.056   3.288   5.576 -0.4724  0.4993  0.3700
12661SOL     OW50455   3.448   2.275   7.047  0.3188  0.0665 -0.4777
12661SOL    HW150456   3.393   2.221   6.983 -1.8611  1.4853  0.0980
12661SOL    HW250457   3.478   2.359   7.001  0.2654  0.2497 -0.1785
12662SOL     OW50458   7.518   5.483   6.463  0.0276 -0.2014 -0.0736
12662SOL    HW150459   7.466   5.553   6.412  1.4901  0.5971 -0.5140
12662SOL    HW250460   7.535   5.405   6.403 -0.8210 -0.5529  0.1335
12663SOL     OW50461   8.682   5.786   6.326 -0.0086 -0.8791  0.0130
12663SOL    HW150462   8.592   5.806   6.366 -0.6330 -1.7576 -0.9243
12663SOL    HW250463   8.736   5.869   6.323 -1.0271 -0.2015  0.0134
12664SOL     OW50464   4.562   3.010   8.765  0.0459 -0.1107  0.3560
12664SOL    HW150465   4.629   3.004   8.839 -0.9682 -0.9069  1.2179
12664SOL    HW250466   4.487   2.947   8.783 -0.8247  0.6098 -0.7272
12665SOL     OW50467   5.820   6.956   6.437  0.9124 -0.1056  0.2144
12665SOL    HW150468   5.808   6.947   6.536  0.4188 -0.2047  0.1422
12665SOL    HW250469   5.905   6.910   6.410 -0.1455 -2.0805  0.2523
12666SOL     OW50470   3.531   6.216   4.687  0.2567  0.7657  0.3758
12666SOL    HW150471   3.458   6.274   4.723 -0.0559  0.9430 -0.5267
12666SOL    HW250472   3.492   6.128   4.657  0.3825  0.9239 -0.2606
12667SOL     OW50473   4.111   4.785   6.213 -0.1491 -0.0065  0.3911
12667SOL    HW150474   4.059   4.839   6.147  1.8148  2.6971  0.9793
12667SOL    HW250475   4.082   4.809   6.306 -0.6842 -1.5069  0.6381
12668SOL     OW50476   0.526   2.007   8.186 -0.0534  0.2647  0.2016
12668SOL    HW150477   0.538   2.026   8.283 -1.3043 -1.1350  0.6507
12668SOL    HW250478   0.456   2.068   8.148  0.1020  0.5007  0.2975
12669SOL     OW50479   3.271   6.027   7.974  0.8032  1.3171  0.2740
12669SOL    HW150480   3.312   6.073   8.053 -0.6115  0.4334  1.5230
12669SOL    HW250481   3.313   6.063   7.890  1.4146  3.1758  1.3413
12670SOL     OW50482   3.440   1.989   0.480  0.3005  0.4294  0.2471
12670SOL    HW150483   3.440   1.916   0.549 -0.1856  0.1271 -0.0726
12670SOL    HW250484   3.441   1.948   0.389 -0.3500  0.8226  0.0634
12671SOL     OW50485   6.463   1.764   5.432  0.2882  0.1215 -0.5996
12671SOL    HW150486   6.526   1.693   5.463 -1.5344 -1.0524  0.4387
12671SOL    HW250487   6.514   1.849   5.416  2.4872 -1.4011 -1.8711
12672SOL     OW50488   3.906   5.395   3.151 -0.0269  0.0252  0.3806
12672SOL    HW150489   3.882   5.326   3.083  2.4017 -0.6198  0.1104
12672SOL    HW250490   3.989   5.443   3.122  0.3988  0.5271  2.3323
12673SOL     OW50491   7.412   0.671   0.476 -0.5418 -0.8387 -0.3296
12673SOL    HW150492   7.425   0.581   0.518 -0.3907  0.1545  1.8212
12673SOL    HW250493   7.395   0.739   0.547  0.8872  1.1265 -1.8132
12674SOL     OW50494   8.326   4.294   7.224  0.4022 -0.4403  0.6585
12674SOL    HW150495   8.393   4.325   7.156 -1.0103  1.1479 -0.0594
12674SOL    HW250496   8.327   4.357   7.303  0.1826 -0.7532  0.9139
12675SOL     OW50497   8.398   8.076   3.574  0.2120  0.1469 -0.5738
12675SOL    HW150498   8.379   8.009   3.644  1.2175 -0.3121 -0.7254
12675SOL    HW250499   8.417   8.165   3.616  0.0551  0.0555 -0.3149
12676SOL     OW50500   2.142   3.529   5.133  0.0582 -0.0314 -0.4738
12676SOL    HW150501   2.217   3.556   5.074  0.0250  0.1420 -0.4391
12676SOL    HW250502   2.063   3.502   5.078  0.3405 -0.7835 -0.5147
12677SOL     OW50503   1.970   2.184   1.115 -0.5641 -0.2595  0.0325
12677SOL    HW150504   2.069   2.176   1.112 -0.4276  0.6522  1.3989
12677SOL    HW250505   1.929   2.120   1.051  0.8435 -2.2391  1.0668
12678SOL     OW50506   4.473   2.753   3.012 -0.3232  0.3042  0.2024
12678SOL    HW150507   4.534   2.829   2.990  0.5661 -0.3358  0.4106
12678SOL    HW250508   4.457   2.752   3.111  1.1149 -0.8401  0.4381
12679SOL     OW50509   2.841   4.629   6.581 -0.0398  0.2530 -0.0562
12679SOL    HW150510   2.936   4.602   6.595  0.3089  1.2260 -0.5563
12679SOL    HW250511   2.836   4.704   6.515 -1.1104  0.5511  0.3451
12680SOL     OW50512   5.587   8.472   2.687  0.9104 -0.1020 -0.4303
12680SOL    HW150513   5.686   8.472   2.675  0.8334 -1.8267 -1.2347
12680SOL    HW250514   5.563   8.416   2.766  0.5544 -0.0729 -0.5170
12681SOL     OW50515   4.167   5.490   4.265 -0.0083 -0.6779  0.0348
12681SOL    HW150516   4.133   5.575   4.225  0.5700 -0.6408 -0.3999
12681SOL    HW250517   4.221   5.510   4.346 -0.0693 -0.6425  0.0665
12682SOL     OW50518   1.724   0.537   6.118  0.7983 -0.4553 -0.2553
12682SOL    HW150519   1.666   0.456   6.106 -0.3438  0.5720 -1.8093
12682SOL    HW250520   1.675   0.606   6.171  1.2025 -0.1682 -0.2473
12683SOL     OW50521   7.994   0.786   6.379  0.1785  0.2794 -0.2079
12683SOL    HW150522   7.929   0.743   6.316 -1.4207  0.4962  1.2855
12683SOL    HW250523   7.979   0.751   6.471  1.3661  1.2647  0.3637
12684SOL     OW50524   5.819   2.438   0.311  0.0774  0.3354 -0.0404
12684SOL    HW150525   5.728   2.471   0.286  0.2032 -0.8513 -2.1460
12684SOL    HW250526   5.820   2.414   0.408 -1.7301  0.7285  0.0931
12685SOL     OW50527   0.189   2.846   8.676 -0.1971  0.1070 -0.6277
12685SOL    HW150528   0.102   2.841   8.627 -0.8587  1.8175  0.3529
12685SOL    HW250529   0.264   2.836   8.610 -1.1174 -1.1003 -1.5101
12686SOL     OW50530   8.154   1.820   3.551  0.6967 -0.5479  0.5495
12686SOL    HW150531   8.161   1.824   3.452  0.1586  0.9535  0.5712
12686SOL    HW250532   8.184   1.730   3.582  2.1838 -0.5689 -0.8599
12687SOL     OW50533   2.490   1.608   2.300  0.4607 -0.2233 -0.4256
12687SOL    HW150534   2.551   1.607   2.221  0.9722 -0.1209 -0.0362
12687SOL    HW250535   2.458   1.701   2.316  1.3021 -0.0381  0.2044
12688SOL     OW50536   0.459   2.422   7.866 -0.0784  0.4602  0.0225
12688SOL    HW150537   0.544   2.375   7.840  0.6570  1.3811  0.7090
12688SOL    HW250538   0.411   2.451   7.783 -0.9263 -2.1538 -0.4193
12689SOL     OW50539   4.149   0.535   7.170 -0.2825  0.4034 -0.0836
12689SOL    HW150540   4.086   0.585   7.110 -1.2498 -0.1266  0.4700
12689SOL    HW250541   4.210   0.599   7.215 -1.8454  1.1735  1.0096
12690SOL     OW50542   1.715   6.330   1.862  0.4398  0.1969  0.2064
12690SOL    HW150543   1.616   6.319   1.870  0.3408  0.6869 -0.3170
12690SOL    HW250544   1.758   6.240   1.857  0.0902 -0.0347  1.2303
12691SOL     OW50545   3.168   2.485   1.409 -0.0191  0.1948  0.4106
12691SOL    HW150546   3.203   2.557   1.349 -2.2999  1.6175  0.7393
12691SOL    HW250547   3.152   2.523   1.500 -2.2291 -0.4499  0.3110
12692SOL     OW50548   4.764   4.784   4.196 -0.2284 -0.0743 -0.3083
12692SOL    HW150549   4.844   4.729   4.218  0.9896  1.3415 -1.0284
12692SOL    HW250550   4.794   4.871   4.156 -2.1510  0.1469 -1.3534
12693SOL     OW50551   5.980   3.909   1.010  0.3757 -0.9131  0.1291
12693SOL    HW150552   5.997   3.919   1.108  1.6753 -1.6385 -0.0022
12693SOL    HW250553   6.063   3.934   0.960 -1.3054  2.7848 -1.0034
12694SOL     OW50554   4.516   1.000   7.124 -0.1711 -0.9299 -0.3830
12694SOL    HW150555   4.576   1.003   7.204 -1.1964  0.9796  0.3335
12694SOL    HW250556   4.427   0.964   7.151 -1.2323  1.7924 -0.1705
12695SOL     OW50557   7.857   3.781   2.121 -0.2694 -0.3572  0.0363
12695SOL    HW150558   7.918   3.806   2.196  1.1274  1.8404 -1.7595
12695SOL    HW250559   7.873   3.685   2.095 -0.1811 -0.8734  1.9482
12696SOL     OW50560   0.407   5.567   3.819  0.1693  0.4792 -0.6253
12696SOL    HW150561   0.475   5.500   3.846  1.1237  1.2360 -1.1075
12696SOL    HW250562   0.405   5.574   3.719  0.1508  1.2184 -0.5818
12697SOL     OW50563   3.404   8.838   2.156 -0.3494 -0.5144 -0.6309
12697SOL    HW150564   3.320   8.812   2.108  0.6021 -1.4692 -1.8139
12697SOL    HW250565   3.457   8.902   2.099  0.3414 -0.9318 -0.4672
12698SOL     OW50566   3.816   7.954   2.071 -0.3511  0.1260 -0.1997
12698SOL    HW150567   3.855   7.862   2.066  1.1636  0.7826 -0.9036
12698SOL    HW250568   3.718   7.948   2.090 -0.2283 -1.6184 -0.0205
12699SOL     OW50569   3.653   1.492   6.708  0.7299 -0.1963 -0.2045
12699SOL    HW150570   3.627   1.488   6.804 -0.1901  3.7595 -0.1904
12699SOL    HW250571   3.582   1.450   6.652 -0.2246  0.2287  0.6678
12700SOL     OW50572   6.615   4.257   1.243  0.5313  0.0082 -0.1493
12700SOL    HW150573   6.711   4.274   1.224  0.2765 -0.1428 -1.6326
12700SOL    HW250574   6.566   4.240   1.157 -0.9697  0.8702  0.5117
12701SOL     OW50575   4.185   0.881   2.291  0.1397 -0.1174  0.7481
12701SOL    HW150576   4.169   0.957   2.229  1.7429  0.0242  0.4924
12701SOL    HW250577   4.124   0.889   2.370 -1.7921 -0.2073 -0.6888
12702SOL     OW50578   0.926   3.673   6.368 -0.7878 -0.2648 -0.7418
12702SOL    HW150579   0.967   3.595   6.320  0.3629 -0.0542 -0.1382
12702SOL    HW250580   0.987   3.701   6.443 -3.0506 -1.2935  1.5533
12703SOL     OW50581   8.030   3.634   5.186  0.6281  0.7172  0.2070
12703SOL    HW150582   8.054   3.626   5.090  2.1079  0.0448  0.6203
12703SOL    HW250583   7.949   3.692   5.196  0.3458  0.6185 -1.4442
12704SOL     OW50584   7.775   8.280   8.380 -0.0203 -0.4845  0.4425
12704SOL    HW150585   7.835   8.201   8.377 -2.3405 -2.2414 -2.4541
12704SOL    HW250586   7.794   8.339   8.301 -1.8109 -0.8550 -0.2743
12705SOL     OW50587   0.453   5.821   4.334  0.4583 -0.0280  0.3369
12705SOL    HW150588   0.539   5.840   4.382  0.6911  0.5137 -0.2902
12705SOL    HW250589   0.435   5.723   4.336  1.5079 -0.2409 -0.2237
12706SOL     OW50590   8.083   4.581   4.874  0.6642  0.0913  0.2804
12706SOL    HW150591   8.129   4.606   4.788  1.8483 -0.5241  0.7265
12706SOL    HW250592   8.126   4.629   4.950 -0.3624  0.6056  0.5534
12707SOL     OW50593   2.891   6.110   4.094 -0.2802 -0.2461 -0.3957
12707SOL    HW150594   2.865   6.204   4.073 -0.2878  0.5507  2.9280
12707SOL    HW250595   2.809   6.057   4.117  0.1192  0.1013  1.9529
12708SOL     OW50596   0.303   6.103   5.420 -0.1029  0.2944 -0.1855
12708SOL    HW150597   0.362   6.157   5.361  2.1238  0.3971  2.0526
12708SOL    HW250598   0.343   6.011   5.431 -1.6639 -0.4506 -0.5989
12709SOL     OW50599   2.628   4.596   1.120 -0.5551  0.1460  0.4666
12709SOL    HW150600   2.683   4.572   1.040 -2.1830 -2.6223  0.1313
12709SOL    HW250601   2.677   4.567   1.203 -0.1671  0.4381  0.3454
12710SOL     OW50602   1.543   1.281   7.934  0.0672 -0.1634  0.1359
12710SOL    HW150603   1.578   1.310   7.845 -1.0383  1.0060  0.0636
12710SOL    HW250604   1.614   1.232   7.984  0.5873 -1.1616 -1.5424
12711SOL     OW50605   8.146   1.309   4.771  0.2066 -0.4751  0.1878
12711SOL    HW150606   8.126   1.233   4.833 -0.7585  0.7887  1.4391
12711SOL    HW250607   8.130   1.396   4.818  0.3203  0.5066 -1.5563
12712SOL     OW50608   3.365   1.746   7.274  0.0784 -0.2597 -0.0424
12712SOL    HW150609   3.286   1.801   7.300  0.5751  0.9487 -1.0004
12712SOL    HW250610   3.436   1.755   7.344 -0.1522 -0.3362  0.2014
12713SOL     OW50611   8.558   2.195   7.112  0.1104  0.0480 -0.1243
12713SOL    HW150612   8.553   2.097   7.091  3.2780 -0.4556  1.2124
12713SOL    HW250613   8.646   2.231   7.081 -0.3921  2.1529  0.8202
12714SOL     OW50614   2.872   6.290   1.366  0.7301 -0.4123  0.0123
12714SOL    HW150615   2.925   6.276   1.282 -0.0722  2.9553 -1.0986
12714SOL    HW250616   2.929   6.334   1.435  0.5101 -0.4430  0.2156
12715SOL     OW50617   6.905   5.698   0.355  0.8021 -0.4876 -0.1407
12715SOL    HW150618   6.899   5.677   0.452  0.7962  0.1084 -0.0115
12715SOL    HW250619   6.909   5.613   0.303 -0.7335 -0.8272  0.2758
12716SOL     OW50620   5.491   5.746   5.834 -0.0126  0.6635  0.2366
12716SOL    HW150621   5.568   5.784   5.782 -1.2073  0.3194 -1.8535
12716SOL    HW250622   5.517   5.657   5.873  1.3585  1.5761  1.4588
12717SOL     OW50623   3.863   2.407   8.222 -0.4318  0.3387 -0.4501
12717SOL    HW150624   3.930   2.337   8.199 -1.1566 -1.1312  1.7540
12717SOL    HW250625   3.911   2.490   8.252  0.4154  0.4031 -1.9348
12718SOL     OW50626   3.318   7.651   0.869  0.5557 -0.4612 -0.5910
12718SOL    HW150627   3.244   7.589   0.895 -0.0802 -0.0510 -1.4023
12718SOL    HW250628   3.280   7.732   0.825  1.2745  1.1698  1.6825
12719SOL     OW50629   8.178   3.002   6.288 -0.2776 -0.0310  0.2577
12719SOL    HW150630   8.124   3.086   6.300 -0.0929  0.1643 -0.2707
12719SOL    HW250631   8.144   2.952   6.209 -1.0637 -0.9867  1.1843
12720SOL     OW50632   0.516   3.102   5.941 -0.0213 -0.5833  0.2003
12720SOL    HW150633   0.496   3.111   6.039  0.0000  1.7646  0.0249
12720SOL    HW250634   0.456   3.033   5.901  0.6318 -2.2803  2.0456
12721SOL     OW50635   2.050   4.268   7.733  0.0666 -0.1329 -0.1135
12721SOL    HW150636   2.133   4.215   7.750  1.3098  2.5218  2.5627
12721SOL    HW250637   1.977   4.235   7.794  0.2139 -0.1266  0.0650
12722SOL     OW50638   8.874   6.863   8.638  0.1492 -0.4053 -0.2876
12722SOL    HW150639   8.962   6.911   8.636 -0.0552  0.0965  1.4790
12722SOL    HW250640   8.846   6.849   8.733 -0.6565 -2.4751 -0.8096
12723SOL     OW50641   8.196   6.691   4.661  0.8192  0.5509 -0.3322
12723SOL    HW150642   8.279   6.640   4.680  0.6174  0.2683 -0.2079
12723SOL    HW250643   8.160   6.666   4.571  0.5004  0.1751 -0.1019
12724SOL     OW50644   0.362   0.852   5.925 -0.8347  0.0124 -0.0459
12724SOL    HW150645   0.427   0.914   5.880 -1.9849  1.1299 -0.2076
12724SOL    HW250646   0.337   0.890   6.014  0.2936 -1.4473  0.9184
12725SOL     OW50647   2.441   7.066   7.786 -0.0446  0.5108  0.5927
12725SOL    HW150648   2.415   7.079   7.691 -1.4047 -0.3569  0.8265
12725SOL    HW250649   2.541   7.075   7.795  0.0243  1.2491 -0.7833
12726SOL     OW50650   3.368   5.344   3.107 -0.4678  0.2779  0.0768
12726SOL    HW150651   3.322   5.422   3.065  0.3088  0.8630  0.3001
12726SOL    HW250652   3.389   5.366   3.203 -0.4140 -0.2727  0.1916
12727SOL     OW50653   2.162   6.841   1.899 -0.7050 -0.3407 -0.4371
12727SOL    HW150654   2.071   6.802   1.910 -0.4527 -0.8872 -0.2914
12727SOL    HW250655   2.193   6.880   1.986 -1.1177  0.5471 -0.6766
12728SOL     OW50656   1.173   6.807   2.157  0.5344 -0.0291  0.5150
12728SOL    HW150657   1.187   6.722   2.208  0.1677 -0.6179 -0.3641
12728SOL    HW250658   1.244   6.817   2.088  0.9127  0.6727  0.9919
12729SOL     OW50659   2.062   8.534   3.000  0.3174 -0.1595  0.1020
12729SOL    HW150660   2.060   8.475   2.919 -1.3471 -0.2151  0.1680
12729SOL    HW250661   2.153   8.574   3.009  0.8850 -1.1262 -1.0914
12730SOL     OW50662   1.157   6.975   5.739 -0.0927 -0.2156 -0.3723
12730SOL    HW150663   1.173   7.007   5.645 -0.1531  2.9915  0.6465
12730SOL    HW250664   1.073   6.921   5.742  1.0822 -2.2874 -2.5288
12731SOL     OW50665   8.088   0.380   0.453 -0.2062  0.3130  0.5017
12731SOL    HW150666   8.146   0.299   0.454  0.1201  0.5258 -0.3174
12731SOL    HW250667   8.106   0.432   0.369 -0.0507  1.4870  1.2555
12732SOL     OW50668   5.988   0.183   0.761 -0.1611  0.0968  0.0263
12732SOL    HW150669   5.908   0.230   0.723 -0.3301  0.3162  0.6443
12732SOL    HW250670   6.021   0.114   0.696  0.2875  1.2918 -1.0204
12733SOL     OW50671   0.244   6.648   1.615 -0.4393  0.2104  0.1571
12733SOL    HW150672   0.307   6.589   1.566 -0.1139  1.3112 -0.7719
12733SOL    HW250673   0.240   6.620   1.711  0.7043 -0.4808  0.0131
12734SOL     OW50674   3.248   4.147   2.971  0.0168  0.1158 -0.3424
12734SOL    HW150675   3.191   4.227   2.954 -1.5741 -0.8193  0.4812
12734SOL    HW250676   3.335   4.176   3.010  0.1932  1.5728 -1.7670
12735SOL     OW50677   1.233   5.503   0.964 -0.2731  0.6132 -0.3431
12735SOL    HW150678   1.190   5.416   0.988  1.5917 -0.0636  0.6922
12735SOL    HW250679   1.330   5.487   0.943  0.0040  2.3892 -0.4724
12736SOL     OW50680   3.526   0.206   5.196 -0.1709 -0.1559 -0.5281
12736SOL    HW150681   3.547   0.271   5.122  1.5554  1.1140  1.0327
12736SOL    HW250682   3.596   0.135   5.199  1.4918  1.5324  1.8119
12737SOL     OW50683   4.718   2.537   8.831 -0.1082  0.1157  0.8085
12737SOL    HW150684   4.663   2.582   8.762  0.6796  1.3375  0.9634
12737SOL    HW250685   4.683   2.444   8.847  0.4505 -0.6340 -2.0994
12738SOL     OW50686   8.480   1.454   0.020  0.2642  0.4665  0.0034
12738SOL    HW150687   8.416   1.502   0.079  0.6077  1.6947 -0.6066
12738SOL    HW250688   8.433   1.381  -0.029 -1.0777  2.4696 -1.7577
12739SOL     OW50689   5.206   2.205   7.863  0.3009  0.0748  0.1058
12739SOL    HW150690   5.161   2.126   7.905  0.0144  0.1606 -0.0361
12739SOL    HW250691   5.233   2.181   7.770 -1.4104  0.7094 -0.5830
12740SOL     OW50692   1.409   8.359   1.596 -0.3822 -0.3007 -0.2028
12740SOL    HW150693   1.372   8.298   1.525  0.4934  1.4328 -2.1784
12740SOL    HW250694   1.508   8.349   1.599 -0.3238  0.3806  0.0688
12741SOL     OW50695   3.945   1.564   0.593 -0.1091 -0.1032 -0.1254
12741SOL    HW150696   3.996   1.507   0.658 -0.6947 -1.8368 -1.1456
12741SOL    HW250697   3.992   1.651   0.581  0.2240  0.0866  2.3152
12742SOL     OW50698   6.993   1.342   8.167 -0.5974 -0.5508  0.4611
12742SOL    HW150699   6.901   1.382   8.156  0.0083  0.5437 -0.8855
12742SOL    HW250700   7.011   1.278   8.092 -0.0546 -0.3443  0.4113
12743SOL     OW50701   6.070   6.304   8.119 -0.4531 -0.3326  0.0593
12743SOL    HW150702   6.030   6.373   8.059 -0.8648  0.4782  1.2284
12743SOL    HW250703   6.031   6.215   8.098 -1.5373  0.1548 -0.0353
12744SOL     OW50704   8.832   1.664   1.200 -0.3636  0.5059  0.0041
12744SOL    HW150705   8.843   1.756   1.164 -0.2514  0.4377 -0.1352
12744SOL    HW250706   8.829   1.598   1.125 -0.0978  0.3615  0.1197
12745SOL     OW50707   8.038   8.654   3.871  0.5160 -0.7469  0.3102
12745SOL    HW150708   8.136   8.635   3.881  0.9040  0.7017 -0.6133
12745SOL    HW250709   8.021   8.751   3.882 -0.9028 -1.0557  0.9723
12746SOL     OW50710   0.969   3.907   2.217 -0.4099  0.1770  0.3722
12746SOL    HW150711   0.878   3.910   2.257 -0.0568 -2.0399  1.4289
12746SOL    HW250712   0.973   3.834   2.149  0.7982 -0.2702  0.9125
12747SOL     OW50713   5.651   0.381   7.977 -0.1057 -0.2471  0.1659
12747SOL    HW150714   5.648   0.457   7.913  1.4712 -0.7502 -0.5442
12747SOL    HW250715   5.582   0.394   8.049 -0.7971  1.1168 -0.7361
12748SOL     OW50716   7.293   7.266   2.777 -0.1018  0.3558  0.4665
12748SOL    HW150717   7.245   7.229   2.857  1.2665  1.7286  1.9796
12748SOL    HW250718   7.238   7.339   2.736 -0.2788  0.4603  0.8836
12749SOL     OW50719   7.948   4.004   4.249  0.4906 -0.5396 -0.6658
12749SOL    HW150720   7.850   3.995   4.233 -0.0584  0.0413  2.1777
12749SOL    HW250721   7.992   3.915   4.237 -0.2586 -0.6637 -2.6227
12750SOL     OW50722   3.430   8.547   4.284 -0.7475 -0.4941  0.0797
12750SOL    HW150723   3.469   8.502   4.364  0.2670 -1.8072 -1.1323
12750SOL    HW250724   3.491   8.536   4.206 -1.4146  1.3333 -0.7256
12751SOL     OW50725   8.184   8.042   6.153  0.1633  0.2906  0.8558
12751SOL    HW150726   8.191   8.080   6.061 -2.9747  2.1893  1.2980
12751SOL    HW250727   8.185   7.942   6.149 -1.0161  0.3404 -1.3728
12752SOL     OW50728   7.786   5.748   0.233 -0.4435 -0.3132 -0.4171
12752SOL    HW150729   7.782   5.817   0.161  0.2410 -0.2131 -0.3590
12752SOL    HW250730   7.867   5.691   0.220 -0.4621 -0.4660  0.1191
12753SOL     OW50731   2.687   6.412   6.592 -0.3141 -0.4528  0.2108
12753SOL    HW150732   2.691   6.391   6.495  0.5318  0.6042  0.0070
12753SOL    HW250733   2.733   6.340   6.644  3.2662  1.1778 -0.5454
12754SOL     OW50734   0.446   3.699   3.387 -0.5902  0.5069  0.3701
12754SOL    HW150735   0.395   3.680   3.304  0.1782  0.5016 -0.1123
12754SOL    HW250736   0.481   3.793   3.385  0.1041  0.2547  0.3140
12755SOL     OW50737   7.879   0.215   5.546 -0.1317 -0.0543  0.6599
12755SOL    HW150738   7.945   0.249   5.480 -1.4338  0.6152 -0.3203
12755SOL    HW250739   7.797   0.182   5.499 -1.4416  1.2409  1.9580
12756SOL     OW50740   7.751   8.781   8.420  0.4122  0.0158 -0.0843
12756SOL    HW150741   7.690   8.755   8.345  0.0119  0.2660  0.1490
12756SOL    HW250742   7.844   8.752   8.399  0.0866 -1.0481 -0.1018
12757SOL     OW50743   2.391   6.886   0.686 -0.4093 -0.1970  0.2454
12757SOL    HW150744   2.453   6.839   0.623 -0.0293  0.8033 -0.1413
12757SOL    HW250745   2.422   6.873   0.780 -0.8749 -1.5506  0.2205
12758SOL     OW50746   3.504   4.524   8.083  0.2485  0.1053 -0.5085
12758SOL    HW150747   3.467   4.433   8.100  0.0400 -0.1039 -1.9509
12758SOL    HW250748   3.595   4.532   8.121  0.2345 -0.6860 -0.3106
12759SOL     OW50749   3.529   3.062   8.291  0.7632  0.3080 -0.1313
12759SOL    HW150750   3.606   3.039   8.351  0.9882 -0.2226 -0.6159
12759SOL    HW250751   3.472   2.981   8.278 -2.3657  1.7557  3.7729
12760SOL     OW50752   2.767   6.571   5.961  0.3753 -0.5198 -0.2572
12760SOL    HW150753   2.752   6.668   5.943 -1.8823 -0.7760  0.1413
12760SOL    HW250754   2.850   6.561   6.017  1.2170  1.0814 -1.1774
12761SOL     OW50755   3.274   6.367   5.233 -0.2633  0.0935  0.7205
12761SOL    HW150756   3.320   6.316   5.160  1.5216  1.5349  0.7931
12761SOL    HW250757   3.251   6.305   5.308  1.4627 -0.7062  0.6112
12762SOL     OW50758   3.332   3.995   2.601  0.2295  0.2192  0.6936
12762SOL    HW150759   3.265   3.954   2.663  0.2902  2.2889  2.2013
12762SOL    HW250760   3.421   3.998   2.646  0.5361  0.7025  0.0597
12763SOL     OW50761   5.401   6.406   5.000 -0.0081  0.2988 -0.4086
12763SOL    HW150762   5.322   6.444   4.951 -0.9113  0.0474  0.8243
12763SOL    HW250763   5.449   6.480   5.047  0.6698  0.4935 -1.3989
12764SOL     OW50764   6.913   7.340   7.309  0.0402  0.4579 -0.4243
12764SOL    HW150765   6.950   7.417   7.258  0.9125  0.9667  0.9574
12764SOL    HW250766   6.814   7.348   7.315  0.1102  1.3467 -0.4595
12765SOL     OW50767   7.907   1.526   5.653  0.3320  0.3179 -0.5072
12765SOL    HW150768   7.963   1.543   5.572  1.9738  0.5421  0.6445
12765SOL    HW250769   7.962   1.540   5.735 -1.8316  2.0951  0.7104
12766SOL     OW50770   2.221   6.243   4.991  0.0208  0.0678  0.0173
12766SOL    HW150771   2.293   6.177   5.014  0.5631  0.6031 -0.1595
12766SOL    HW250772   2.163   6.257   5.072 -0.9554 -1.6946 -0.3354
12767SOL     OW50773   6.101   7.412   8.173 -0.0730 -0.1313  1.1994
12767SOL    HW150774   6.102   7.340   8.104 -1.7663  0.3949  0.5938
12767SOL    HW250775   6.018   7.405   8.228  0.3349  0.6195  1.9243
12768SOL     OW50776   1.909   6.755   4.808 -0.2209 -0.5107 -0.2905
12768SOL    HW150777   1.882   6.834   4.863 -2.1887 -0.5168 -1.2118
12768SOL    HW250778   1.865   6.673   4.844  0.0884 -0.8367 -0.6559
12769SOL     OW50779   4.967   4.635   3.026  0.4892 -0.1509 -0.2619
12769SOL    HW150780   4.909   4.652   3.106  1.1740 -3.0186  0.9072
12769SOL    HW250781   5.035   4.707   3.018 -0.9131  1.2839  0.5195
12770SOL     OW50782   8.765   3.424   5.276  0.1348  0.1493  0.4040
12770SOL    HW150783   8.722   3.502   5.231 -0.2373 -0.7401 -0.8136
12770SOL    HW250784   8.865   3.430   5.266  0.0050 -0.5770 -1.4713
12771SOL     OW50785   2.347   8.347   2.730  0.4709 -0.2214 -0.0804
12771SOL    HW150786   2.424   8.406   2.755  1.0553 -1.5971  1.4257
12771SOL    HW250787   2.263   8.384   2.770  0.6933  0.0782  0.1138
12772SOL     OW50788   3.607   2.090   8.519  0.9084  0.3671  0.4506
12772SOL    HW150789   3.604   2.013   8.583 -0.4487  0.1713  0.1608
12772SOL    HW250790   3.589   2.057   8.427 -2.8306  1.4669  0.7306
12773SOL     OW50791   2.251   1.594   5.724  0.2671  0.3078  0.7617
12773SOL    HW150792   2.230   1.626   5.632  1.3109 -1.3044 -0.0631
12773SOL    HW250793   2.323   1.525   5.719  1.4606  1.3649  2.9427
12774SOL     OW50794   4.285   2.050   0.423  0.8474 -0.0632  0.1701
12774SOL    HW150795   4.270   2.098   0.509 -0.2026 -0.7374  0.3712
12774SOL    HW250796   4.229   1.967   0.420  2.0661 -0.8802 -0.4962
12775SOL     OW50797   5.411   2.190   2.560 -0.9089 -0.3647  0.2135
12775SOL    HW150798   5.344   2.146   2.619 -2.2205  0.7466 -0.3946
12775SOL    HW250799   5.437   2.128   2.486 -1.6012 -0.6579  0.2150
12776SOL     OW50800   5.671   2.139   1.469  0.3048 -0.5430  0.1870
12776SOL    HW150801   5.713   2.184   1.547  0.1543 -0.2874  0.1209
12776SOL    HW250802   5.611   2.203   1.421 -0.6625 -1.0822  0.6482
12777SOL     OW50803   4.511   1.153   6.078  0.1177  0.2889  0.0979
12777SOL    HW150804   4.534   1.251   6.076 -1.1471  0.5839 -0.6457
12777SOL    HW250805   4.427   1.138   6.025 -0.7556 -0.9144  1.7802
12778SOL     OW50806   8.208   7.541   0.379 -0.0911 -0.1938 -0.1536
12778SOL    HW150807   8.149   7.530   0.459  1.5824 -0.0011  1.1496
12778SOL    HW250808   8.285   7.477   0.385  0.5309  0.4376 -1.1536
12779SOL     OW50809   3.953   6.393   5.439 -0.2982  0.0139 -0.7820
12779SOL    HW150810   3.922   6.358   5.527 -0.6571  0.4452 -0.7344
12779SOL    HW250811   3.880   6.447   5.397  0.4644  1.1896 -0.5921
12780SOL     OW50812   0.741   8.652   4.676 -0.4351  0.3905  0.5326
12780SOL    HW150813   0.668   8.584   4.668  2.0634 -2.6035  1.9487
12780SOL    HW250814   0.761   8.691   4.586 -2.3234 -0.3076 -0.2081
12781SOL     OW50815   3.017   8.556   5.711  0.0887 -0.2525 -0.7447
12781SOL    HW150816   2.985   8.585   5.801  0.6812  0.3507 -0.7292
12781SOL    HW250817   2.993   8.460   5.697 -0.8938 -0.0748 -0.3495
12782SOL     OW50818   4.285   1.386   5.883 -0.5301  0.2843  0.0054
12782SOL    HW150819   4.249   1.401   5.792  0.6578 -1.9170 -0.8628
12782SOL    HW250820   4.224   1.325   5.934 -0.2767  0.0805  0.0659
12783SOL     OW50821   3.062   0.279   7.655 -0.5434 -0.2435 -0.2930
12783SOL    HW150822   3.025   0.304   7.744 -1.3891 -1.3775 -0.3211
12783SOL    HW250823   3.074   0.361   7.600 -2.2654  0.2273  0.0042
12784SOL     OW50824   5.623   1.391   0.841 -0.1466 -0.3652  0.6294
12784SOL    HW150825   5.577   1.411   0.927 -0.2958  0.3378  0.3900
12784SOL    HW250826   5.557   1.393   0.766  0.2459  0.5723  0.2942
12785SOL     OW50827   2.994   3.115   3.348 -0.4050  0.1932  0.3311
12785SOL    HW150828   3.056   3.039   3.325 -0.4908  0.4776 -0.8857
12785SOL    HW250829   3.048   3.197   3.364 -0.3130 -0.1231  1.6364
12786SOL     OW50830   4.711   1.345   8.797 -0.3502 -0.2793  0.1245
12786SOL    HW150831   4.667   1.422   8.843  1.2888  0.2682  0.8137
12786SOL    HW250832   4.672   1.335   8.705 -1.5958  0.4480  0.5558
12787SOL     OW50833   7.896   1.646   6.093  0.4056 -0.1664  0.0057
12787SOL    HW150834   7.823   1.641   6.162 -0.1055 -2.4089 -0.6550
12787SOL    HW250835   7.856   1.669   6.004  0.5258 -1.2535 -0.3297
12788SOL     OW50836   8.250   5.564   2.335 -0.3756  0.0154 -0.4228
12788SOL    HW150837   8.336   5.586   2.289 -1.1878  0.2147 -1.8812
12788SOL    HW250838   8.206   5.487   2.287 -2.2083  1.5305 -1.2405
12789SOL     OW50839   7.397   0.259   1.090  0.3345 -0.4259  1.0348
12789SOL    HW150840   7.340   0.180   1.068 -0.0948  0.1740 -0.0088
12789SOL    HW250841   7.482   0.227   1.133  2.0162 -1.7630 -3.0205
12790SOL     OW50842   1.174   2.479   3.317 -0.4597  0.7020 -0.6084
12790SOL    HW150843   1.092   2.527   3.346  0.3307 -0.9469  4.9930
12790SOL    HW250844   1.255   2.524   3.356  0.7900 -1.2569 -0.8680
12791SOL     OW50845   8.232   1.988   7.438 -0.5277 -0.4443 -0.4288
12791SOL    HW150846   8.194   2.020   7.525  0.6954 -1.3379  0.4586
12791SOL    HW250847   8.318   1.939   7.455  0.7457  1.0664 -2.3508
12792SOL     OW50848   6.004   7.251   3.816 -0.0607 -0.1177  0.0744
12792SOL    HW150849   5.929   7.253   3.882 -0.2502  0.3576 -0.1544
12792SOL    HW250850   5.974   7.292   3.730 -0.0109 -1.2866 -0.5128
12793SOL     OW50851   8.860   4.445   0.295 -0.6516  0.7561  0.1352
12793SOL    HW150852   8.862   4.445   0.195 -0.7347  1.3297  0.1313
12793SOL    HW250853   8.910   4.365   0.329 -1.0257  0.2971 -0.3683
12794SOL     OW50854   2.288   3.385   0.346 -0.6211 -0.1110 -0.3698
12794SOL    HW150855   2.279   3.434   0.433 -0.7145 -1.3712  0.3532
12794SOL    HW250856   2.368   3.419   0.296  0.2297 -0.2902  0.8363
12795SOL     OW50857   1.825   4.352   2.801 -0.1337 -0.2459  0.5135
12795SOL    HW150858   1.877   4.367   2.716  0.1888 -0.3053  0.6984
12795SOL    HW250859   1.888   4.320   2.872  0.0069  1.9526  1.4089
12796SOL     OW50860   0.588   7.367   6.749  0.2830  0.1256  0.4601
12796SOL    HW150861   0.644   7.449   6.744  0.8797 -0.2782  0.4416
12796SOL    HW250862   0.569   7.335   6.656 -0.1794  0.3970  0.4599
12797SOL     OW50863   8.625   5.544   7.145 -0.0458  0.3554 -0.2950
12797SOL    HW150864   8.574   5.625   7.173 -0.5412  0.2153 -0.7653
12797SOL    HW250865   8.673   5.563   7.059  1.0227  0.6139  0.3652
12798SOL     OW50866   1.419   6.864   0.610  0.3651 -0.1048  0.3604
12798SOL    HW150867   1.339   6.924   0.619  1.3919  1.3389  0.1419
12798SOL    HW250868   1.476   6.872   0.692  0.0572 -1.4972  0.7265
12799SOL     OW50869   1.452   2.676   5.584 -0.0932 -0.6358  0.1777
12799SOL    HW150870   1.529   2.740   5.584  2.1773 -3.2497  1.9363
12799SOL    HW250871   1.418   2.665   5.491  2.5660 -0.4423 -0.8665
12800SOL     OW50872   0.112   3.823   7.977 -0.2737 -0.5676  0.5767
12800SOL    HW150873   0.072   3.913   7.996 -0.4363 -0.1561 -1.6340
12800SOL    HW250874   0.114   3.807   7.879  1.6224 -2.1440  0.8335
12801SOL     OW50875   7.305   4.314   0.086 -0.4282  0.1671  0.0193
12801SOL    HW150876   7.246   4.382   0.130  0.7253  1.4761 -0.4192
12801SOL    HW250877   7.385   4.298   0.143  0.7182  1.3317 -1.2385
12802SOL     OW50878   3.254   7.167   7.663 -0.2194 -0.6701  0.7710
12802SOL    HW150879   3.339   7.220   7.674 -0.4802  0.1283 -0.9206
12802SOL    HW250880   3.183   7.226   7.624 -0.5621 -2.2248 -1.0115
12803SOL     OW50881   7.886   8.289   8.814 -0.6860 -0.0940 -0.8996
12803SOL    HW150882   7.880   8.356   8.741  0.1504 -1.3227 -2.1215
12803SOL    HW250883   7.885   8.197   8.775 -0.0839 -0.7616  0.6134
12804SOL     OW50884   4.056   1.925   5.508  0.1994 -0.7523 -0.1440
12804SOL    HW150885   4.057   1.940   5.409  0.9464 -0.2463 -0.0563
12804SOL    HW250886   4.073   1.828   5.527 -1.6340 -1.1820 -0.5740
12805SOL     OW50887   0.424   1.043   0.025  0.4734  0.9886  0.5896
12805SOL    HW150888   0.515   1.011  -0.001 -0.0842 -1.4505  1.4935
12805SOL    HW250889   0.432   1.115   0.095  1.7039  1.1098  0.3249
12806SOL     OW50890   1.466   4.128   6.183  0.2712 -0.2897  0.3212
12806SOL    HW150891   1.507   4.139   6.274 -3.4896 -1.7741  2.3166
12806SOL    HW250892   1.398   4.201   6.169 -0.1343 -0.8674 -0.7184
12807SOL     OW50893   4.635   3.407   0.932  0.0498  0.0289  0.5513
12807SOL    HW150894   4.695   3.329   0.949 -1.9666 -1.5213  0.7484
12807SOL    HW250895   4.633   3.466   1.013  0.7994 -0.2495  0.7794
12808SOL     OW50896   5.631   3.639   1.110 -0.6955  0.2030  0.0234
12808SOL    HW150897   5.606   3.561   1.167 -1.2802 -1.1693 -2.0298
12808SOL    HW250898   5.573   3.640   1.028  0.8826  1.4195 -1.1155
12809SOL     OW50899   6.783   7.283   6.411 -0.3406 -0.1415  0.3274
12809SOL    HW150900   6.714   7.255   6.478 -1.2639 -0.2421 -0.6478
12809SOL    HW250901   6.859   7.219   6.412 -0.0008  0.2680  1.7978
12810SOL     OW50902   5.493   2.930   5.895 -0.1259 -0.0658 -0.1803
12810SOL    HW150903   5.412   2.872   5.897 -0.5142  0.4860  0.8528
12810SOL    HW250904   5.570   2.881   5.937 -0.2509 -0.1277 -0.0221
12811SOL     OW50905   4.360   3.544   8.012 -0.5341  0.0885  0.0684
12811SOL    HW150906   4.423   3.621   8.019  1.0970 -1.0108 -1.9958
12811SOL    HW250907   4.284   3.567   7.951 -1.0768  0.7194  0.9779
12812SOL     OW50908   1.288   6.208   7.026 -0.2757 -0.0631 -0.1658
12812SOL    HW150909   1.194   6.205   7.060 -0.1216  0.5171  0.3235
12812SOL    HW250910   1.329   6.297   7.047  0.3024 -0.2225 -0.5898
12813SOL     OW50911   0.530   5.889   2.120  0.1296 -0.6225 -0.3199
12813SOL    HW150912   0.432   5.877   2.101 -0.0242 -0.7160  0.5188
12813SOL    HW250913   0.558   5.825   2.191  0.5715  0.1095  0.1704
12814SOL     OW50914   7.665   1.756   4.850 -0.3519 -0.3638 -0.5157
12814SOL    HW150915   7.647   1.701   4.769  0.6345 -0.7757 -0.4720
12814SOL    HW250916   7.587   1.815   4.870 -1.3735 -1.6651 -0.6394
12815SOL     OW50917   2.299   5.297   0.073 -0.3496 -0.2280  0.0825
12815SOL    HW150918   2.225   5.364   0.069 -0.6943 -0.5951  0.2627
12815SOL    HW250919   2.266   5.209   0.039  0.5114  0.0543 -1.5186
12816SOL     OW50920   7.703   3.360   3.422  0.2527  0.0220  0.0309
12816SOL    HW150921   7.710   3.300   3.502  0.3928  2.2044  1.6866
12816SOL    HW250922   7.612   3.403   3.421  0.1053 -0.2974 -1.2180
12817SOL     OW50923   8.815   7.919   5.420  0.1100  0.7019  0.2974
12817SOL    HW150924   8.781   7.993   5.361 -0.1719  0.2986 -0.0544
12817SOL    HW250925   8.784   7.934   5.513 -0.3218  0.7899  0.1409
12818SOL     OW50926   3.092   7.826   7.323  0.3338 -0.6389  0.3235
12818SOL    HW150927   3.136   7.865   7.243  0.9292 -1.0499  0.4499
12818SOL    HW250928   3.127   7.734   7.340  0.2276 -0.5520  1.0657
12819SOL     OW50929   1.011   2.611   8.059 -0.2979 -0.1159  0.2437
12819SOL    HW150930   1.013   2.684   8.127 -1.7263 -2.5368  2.9590
12819SOL    HW250931   0.976   2.647   7.972 -0.8857  2.4206  1.4938
12820SOL     OW50932   3.691   5.405   2.890  0.0187  0.0691 -0.0589
12820SOL    HW150933   3.663   5.348   2.813  1.7662  2.1149 -2.3030
12820SOL    HW250934   3.661   5.363   2.975 -0.8291 -2.9366 -1.7532
12821SOL     OW50935   7.442   6.028   7.194 -0.0450  0.0728  0.4894
12821SOL    HW150936   7.444   6.070   7.103 -0.8628 -0.9703 -0.0300
12821SOL    HW250937   7.419   6.097   7.263  0.9379  0.9421 -0.0501
12822SOL     OW50938   7.863   1.972   7.224  0.5119  0.2089 -0.3169
12822SOL    HW150939   7.867   2.008   7.131 -1.0477 -0.9938 -0.8759
12822SOL    HW250940   7.769   1.980   7.258  0.7382 -0.7920  0.5551
12823SOL     OW50941   4.130   6.565   6.836 -0.1254 -0.6207 -0.6869
12823SOL    HW150942   4.171   6.480   6.870  2.6946  0.2672 -1.7549
12823SOL    HW250943   4.156   6.641   6.896 -2.1274 -0.3713 -0.0877
12824SOL     OW50944   2.435   8.532   3.385 -0.5457 -0.0987  0.0408
12824SOL    HW150945   2.447   8.505   3.289 -0.4811 -1.1045  0.3296
12824SOL    HW250946   2.424   8.450   3.442 -2.4883  0.5511  0.6432
12825SOL     OW50947   6.606   5.932   8.484 -0.4505  0.5615  0.8438
12825SOL    HW150948   6.591   6.009   8.545  1.8459  1.3903  0.4168
12825SOL    HW250949   6.674   5.870   8.524 -1.0523 -0.3849  0.4273
12826SOL     OW50950   1.406   5.415   3.488  0.6723 -0.6227  0.2040
12826SOL    HW150951   1.498   5.432   3.525  0.2773  2.1880  0.0174
12826SOL    HW250952   1.382   5.488   3.425 -1.1617 -2.0950 -0.8419
12827SOL     OW50953   2.198   5.343   7.166 -0.4098 -0.1335  0.4071
12827SOL    HW150954   2.236   5.290   7.091 -3.8997 -2.5263  0.1865
12827SOL    HW250955   2.235   5.309   7.253  1.2412  0.5222 -0.0302
12828SOL     OW50956   1.777   2.952   4.544  0.3898  0.3932  0.0512
12828SOL    HW150957   1.696   2.958   4.602 -0.9416  0.5903 -1.7734
12828SOL    HW250958   1.859   2.943   4.601 -1.1091 -2.4144  1.9004
12829SOL     OW50959   1.029   0.501   0.608  0.4718  0.0087  0.2596
12829SOL    HW150960   1.087   0.474   0.685  0.8740 -1.0571 -0.4029
12829SOL    HW250961   0.940   0.456   0.615  0.5554 -0.1944  0.0373
12830SOL     OW50962   6.103   4.319   7.645 -0.0336  0.0570  0.9618
12830SOL    HW150963   6.159   4.265   7.707  0.6664  0.1345  0.4037
12830SOL    HW250964   6.007   4.315   7.674 -0.4512 -3.8028 -0.6876
12831SOL     OW50965   1.008   1.244   8.147 -0.6269 -0.4921 -0.2535
12831SOL    HW150966   0.915   1.234   8.182 -0.7476 -0.2864 -0.5184
12831SOL    HW250967   1.064   1.168   8.181 -0.8404 -0.5108  0.0643
12832SOL     OW50968   3.241   6.006   1.011  0.0113  0.3336  0.2018
12832SOL    HW150969   3.162   5.957   1.049 -0.7406  1.4349  0.0723
12832SOL    HW250970   3.323   5.951   1.025 -0.5601 -0.2102  1.5713
12833SOL     OW50971   4.359   6.053   6.756  0.1651 -0.4884 -0.2002
12833SOL    HW150972   4.313   5.965   6.742 -1.0962  0.0367  0.5564
12833SOL    HW250973   4.379   6.065   6.853  0.0073  0.2063 -0.2521
12834SOL     OW50974   1.801   2.425   7.281  0.1455 -0.4496  0.0175
12834SOL    HW150975   1.759   2.488   7.216 -0.0987 -0.5098  0.1172
12834SOL    HW250976   1.819   2.338   7.236  2.2172  0.2999 -0.6541
12835SOL     OW50977   6.159   0.184   8.565  0.2689  0.4511  0.2915
12835SOL    HW150978   6.257   0.179   8.546  0.1593  0.2918 -0.2254
12835SOL    HW250979   6.108   0.190   8.479 -0.1222  1.4232  0.5734
12836SOL     OW50980   0.642   0.252   8.527 -0.2113  0.4588  0.5027
12836SOL    HW150981   0.604   0.288   8.612  1.7468  1.7281  0.8894
12836SOL    HW250982   0.730   0.208   8.545  0.6515  1.5142 -0.9516
12837SOL     OW50983   5.368   7.835   1.277  0.1432 -0.3349  0.3183
12837SOL    HW150984   5.281   7.800   1.242 -0.4638 -0.7507  2.2142
12837SOL    HW250985   5.367   7.935   1.274  0.2645 -0.3667 -1.2169
12838SOL     OW50986   7.353   4.540   8.585 -0.1262  0.3808 -0.1488
12838SOL    HW150987   7.299   4.567   8.505  1.5265  2.2725 -0.6819
12838SOL    HW250988   7.402   4.455   8.565 -0.2922  0.4589 -0.8946
12839SOL     OW50989   4.186   3.149   0.636 -0.2393  0.1187 -0.3520
12839SOL    HW150990   4.152   3.235   0.597  0.3974  0.7505  0.4416
12839SOL    HW250991   4.125   3.119   0.709  0.0849  0.4508  0.0600
12840SOL     OW50992   0.820   0.485   7.040 -0.0886 -0.6573  0.0019
12840SOL    HW150993   0.736   0.515   7.085  1.0048  1.6574  0.6014
12840SOL    HW250994   0.798   0.431   6.959 -2.1930  1.4965 -0.9249
12841SOL     OW50995   7.651   7.951   7.911 -0.0858 -0.0153 -0.4454
12841SOL    HW150996   7.711   8.004   7.970  1.8759 -1.3705 -1.1852
12841SOL    HW250997   7.563   7.998   7.901  0.8366  1.9677  0.6675
12842SOL     OW50998   2.092   8.219   7.326 -0.0507 -0.1347  0.3596
12842SOL    HW150999   2.077   8.304   7.274 -0.0527 -1.3900 -1.7264
12842SOL    HW251000   2.189   8.209   7.347 -0.3932  1.8515  3.2409
12843SOL     OW51001   0.170   6.918   1.801 -0.2973  0.0314 -0.2263
12843SOL    HW151002   0.224   6.851   1.751 -1.6069 -1.5691  0.4642
12843SOL    HW251003   0.156   6.886   1.895 -1.0169  1.2348  0.0895
12844SOL     OW51004   4.280   1.033   8.443  0.0707  0.0026 -0.4029
12844SOL    HW151005   4.297   1.081   8.357 -0.0190  0.2544 -0.2813
12844SOL    HW251006   4.227   0.950   8.426  0.6251 -0.2995 -0.6721
12845SOL     OW51007   8.387   4.362   7.719 -0.0078 -0.6722  0.2028
12845SOL    HW151008   8.485   4.356   7.739 -0.0075  0.3700  0.5446
12845SOL    HW251009   8.342   4.278   7.748  0.8294 -1.2553 -0.1816
12846SOL     OW51010   0.118   2.584   0.291  0.2594 -0.0872 -0.3182
12846SOL    HW151011   0.143   2.636   0.209  2.6395 -0.1241  0.3543
12846SOL    HW251012   0.155   2.630   0.372  1.2999 -2.1320  0.3909
12847SOL     OW51013   5.674   0.556   8.708 -0.4895  0.5551  0.1396
12847SOL    HW151014   5.761   0.516   8.735 -1.0805 -0.3803  0.6956
12847SOL    HW251015   5.650   0.526   8.616 -1.4050 -1.1861  0.9303
12848SOL     OW51016   4.983   1.946   1.637 -0.6513  0.7033 -0.3415
12848SOL    HW151017   4.979   1.880   1.713 -0.9684  0.8231 -0.2514
12848SOL    HW251018   5.031   2.028   1.667  1.2772 -0.1532 -0.9732
12849SOL     OW51019   6.342   7.192   6.619 -0.1935 -0.1231  0.4040
12849SOL    HW151020   6.425   7.235   6.654  1.1656 -2.8488  0.7370
12849SOL    HW251021   6.366   7.127   6.547 -2.3985  1.3144 -1.6722
12850SOL     OW51022   7.784   5.768   5.811 -0.5799  0.4831 -0.5733
12850SOL    HW151023   7.780   5.797   5.715 -0.4102  0.9894 -0.4315
12850SOL    HW251024   7.844   5.830   5.861 -0.1200 -0.1884 -0.2803
12851SOL     OW51025   0.173   1.662   1.391 -0.0970 -0.5585 -0.0428
12851SOL    HW151026   0.221   1.743   1.423 -2.3814  1.0121 -0.4664
12851SOL    HW251027   0.235   1.606   1.337  1.3383  1.2481 -0.3137
12852SOL     OW51028   7.396   5.204   7.677 -0.3038  0.6501  0.1237
12852SOL    HW151029   7.384   5.107   7.658 -0.5732  0.5742  0.6739
12852SOL    HW251030   7.333   5.232   7.750  0.1036  1.1317  0.2922
12853SOL     OW51031   8.108   6.160   6.265 -0.3421  0.1423 -0.7117
12853SOL    HW151032   8.091   6.126   6.172  0.9607  2.6103 -1.8827
12853SOL    HW251033   8.055   6.243   6.280  0.8592  0.7525  0.1363
12854SOL     OW51034   0.946   1.925   8.249 -0.1120  0.0372 -0.2940
12854SOL    HW151035   0.876   1.855   8.262  0.5742 -1.0630 -2.2662
12854SOL    HW251036   1.029   1.882   8.214  0.7538  1.6773 -0.2803
12855SOL     OW51037   7.201   4.098   3.349 -0.0179  0.4325 -0.3260
12855SOL    HW151038   7.252   4.153   3.283 -0.8736  2.7534  0.8791
12855SOL    HW251039   7.118   4.064   3.307  0.9758 -0.7361 -1.3669
12856SOL     OW51040   8.007   3.719   5.474  0.4984  0.1297 -0.0303
12856SOL    HW151041   8.036   3.691   5.382 -0.6620 -0.8893 -0.1059
12856SOL    HW251042   7.923   3.671   5.498  1.3971 -0.4793  2.0358
12857SOL     OW51043   8.646   0.210   6.094  0.5768  0.0928 -0.3626
12857SOL    HW151044   8.638   0.195   5.995 -1.1257  0.6604 -0.3384
12857SOL    HW251045   8.672   0.124   6.138  2.3914  0.0830 -1.3909
12858SOL     OW51046   0.898   0.125   1.960  0.4472 -0.1523 -0.4785
12858SOL    HW151047   0.869   0.032   1.938  0.6330 -0.1918 -0.5616
12858SOL    HW251048   0.917   0.175   1.875  0.1665  0.0208 -0.4394
12859SOL     OW51049   1.801   8.821   7.243 -0.4084 -0.5459  0.0523
12859SOL    HW151050   1.889   8.777   7.260  1.7183  3.1582 -0.7216
12859SOL    HW251051   1.765   8.859   7.329  0.8369  1.5214 -0.3140
12860SOL     OW51052   3.987   7.328   2.265  0.4132  0.1480  0.0474
12860SOL    HW151053   4.015   7.251   2.322 -0.3738 -0.2803 -0.1559
12860SOL    HW251054   4.061   7.350   2.201  0.2533 -1.0461 -0.5478
12861SOL     OW51055   5.095   2.474   7.493 -0.1075 -0.6675 -0.2268
12861SOL    HW151056   5.129   2.397   7.438 -1.4178 -1.7628  0.4446
12861SOL    HW251057   5.169   2.508   7.552  0.9211 -0.3684 -1.6629
12862SOL     OW51058   6.194   6.873   8.538  0.3364 -0.2687  0.6185
12862SOL    HW151059   6.220   6.776   8.532  0.8421 -0.0630 -0.6422
12862SOL    HW251060   6.142   6.898   8.457 -0.1006  0.4302  1.1140
12863SOL     OW51061   3.642   5.724   1.912  0.3613  0.1388 -0.2259
12863SOL    HW151062   3.571   5.721   1.982  1.8387  1.0503  1.3358
12863SOL    HW251063   3.627   5.650   1.847 -1.9967  0.2990  0.0940
12864SOL     OW51064   3.175   8.150   1.623  0.4557  0.1308 -0.8756
12864SOL    HW151065   3.269   8.183   1.636  1.0807 -1.1112 -2.1294
12864SOL    HW251066   3.172   8.089   1.544 -1.4933  0.4406 -1.0454
12865SOL     OW51067   1.118   8.072   0.110 -0.7332  0.4130 -0.9464
12865SOL    HW151068   1.205   8.120   0.095 -0.3291 -0.2148 -0.6172
12865SOL    HW251069   1.046   8.116   0.056 -0.2879  1.1630 -0.9341
12866SOL     OW51070   0.370   4.155   4.917 -0.0465 -0.1012  0.3540
12866SOL    HW151071   0.377   4.248   4.954  0.7732 -0.4054  0.9836
12866SOL    HW251072   0.276   4.123   4.928  0.3151 -0.4122  2.7949
12867SOL     OW51073   4.383   4.659   4.701 -0.9803 -0.4254 -0.3482
12867SOL    HW151074   4.447   4.607   4.758  0.8314  2.3475  0.2166
12867SOL    HW251075   4.290   4.644   4.733 -0.4500 -2.8546  0.1550
12868SOL     OW51076   2.464   0.402   8.402  0.4167 -0.2311 -0.3660
12868SOL    HW151077   2.466   0.467   8.326  1.9322 -0.6587 -0.7066
12868SOL    HW251078   2.373   0.403   8.445 -0.8003 -0.7906 -2.8592
12869SOL     OW51079   3.961   2.527   5.073 -0.1363  0.0550  0.4567
12869SOL    HW151080   4.002   2.503   5.160 -1.4677 -1.7916  0.6044
12869SOL    HW251081   3.861   2.523   5.080 -0.2513 -1.2766 -1.4539
12870SOL     OW51082   2.845   0.619   0.757 -0.1882 -0.1677 -0.4654
12870SOL    HW151083   2.883   0.710   0.743 -2.2712  0.7336 -0.4510
12870SOL    HW251084   2.760   0.610   0.706 -0.4522 -1.8121  0.2250
12871SOL     OW51085   0.228   5.536   1.070 -0.2644  0.2253  0.0420
12871SOL    HW151086   0.250   5.450   1.116  0.1299  0.1008 -0.3776
12871SOL    HW251087   0.248   5.613   1.131 -2.5551 -0.0615  1.1767
12872SOL     OW51088   1.652   5.089   1.066 -0.3133  0.1508  0.0095
12872SOL    HW151089   1.581   5.139   1.115 -0.4432  0.0187 -0.0425
12872SOL    HW251090   1.633   5.091   0.968 -0.8580 -0.8242  0.0830
12873SOL     OW51091   1.792   1.506   7.350 -0.1079 -0.1398 -0.3557
12873SOL    HW151092   1.823   1.516   7.445  1.9302  0.7952 -1.0865
12873SOL    HW251093   1.773   1.410   7.331  0.7461 -0.5167  0.6293
12874SOL     OW51094   4.820   2.432   6.934 -0.3803 -0.3781 -0.7800
12874SOL    HW151095   4.784   2.374   6.861 -1.1061  0.7837 -1.3449
12874SOL    HW251096   4.753   2.502   6.958 -0.5785 -1.3509  1.7013
12875SOL     OW51097   7.974   3.463   3.398  0.2603 -0.1017 -0.8041
12875SOL    HW151098   7.884   3.423   3.377 -0.2113  0.3987  0.2083
12875SOL    HW251099   7.983   3.473   3.497  2.1791 -1.8362 -0.7699
12876SOL     OW51100   3.402   2.431   7.398  0.0282 -0.2632  0.3411
12876SOL    HW151101   3.329   2.488   7.358 -0.4610 -0.2117  1.2954
12876SOL    HW251102   3.362   2.345   7.431  0.3035  0.0215  1.4160
12877SOL     OW51103   8.493   2.792   8.670  0.0302 -0.1987  0.0116
12877SOL    HW151104   8.456   2.735   8.597  0.2011 -1.0373  0.5813
12877SOL    HW251105   8.535   2.735   8.740  2.4257  0.7047 -0.6071
12878SOL     OW51106   0.463   7.788   4.964 -0.4319 -0.6041 -0.1458
12878SOL    HW151107   0.450   7.869   4.907  0.5424  0.0314  0.5259
12878SOL    HW251108   0.383   7.775   5.023  0.0269  0.7229  0.7898
12879SOL     OW51109   0.068   0.101   7.440  0.0272 -0.4731  0.8798
12879SOL    HW151110   0.088   0.157   7.360 -0.2401 -0.8647  0.5324
12879SOL    HW251111   0.154   0.076   7.485  0.0245  2.0324  2.3118
12880SOL     OW51112   3.811   1.060   0.166  0.3733  0.4095  0.4359
12880SOL    HW151113   3.849   1.129   0.103  1.8559 -0.5336  0.2689
12880SOL    HW251114   3.778   0.982   0.114 -1.1545  0.9164  0.6400
12881SOL     OW51115   6.472   8.771   1.148 -0.2438  0.3198  0.1482
12881SOL    HW151116   6.486   8.690   1.203 -2.4326  1.1749  2.0429
12881SOL    HW251117   6.382   8.767   1.104 -0.2088  1.4992 -0.0666
12882SOL     OW51118   5.144   4.865   7.780  0.1416 -0.1613  0.6585
12882SOL    HW151119   5.209   4.887   7.707 -1.0195  0.0583 -0.3288
12882SOL    HW251120   5.066   4.928   7.776 -0.9315 -1.4548  0.7658
12883SOL     OW51121   3.343   5.768   8.263  0.0704 -0.0204 -0.6103
12883SOL    HW151122   3.351   5.750   8.361 -1.9504  2.1977  0.0196
12883SOL    HW251123   3.426   5.811   8.230  0.0266  0.9898  0.5732
12884SOL     OW51124   8.373   7.658   3.617 -0.7083 -0.2279  0.6504
12884SOL    HW151125   8.371   7.563   3.585  0.5780 -0.2269  0.5372
12884SOL    HW251126   8.365   7.719   3.539  0.3224 -0.2445  0.5149
12885SOL     OW51127   0.833   4.287   5.010  0.1828 -0.7320 -0.3168
12885SOL    HW151128   0.769   4.256   5.080  0.8897 -1.5354 -0.0134
12885SOL    HW251129   0.923   4.303   5.051  0.2811  0.0220 -0.8039
12886SOL     OW51130   5.786   3.788   4.860  0.2707  0.4313 -0.4204
12886SOL    HW151131   5.700   3.763   4.904 -0.0631  0.8642 -0.8350
12886SOL    HW251132   5.861   3.739   4.905 -0.2136 -0.1304 -0.2184
12887SOL     OW51133   7.295   4.608   2.851 -0.0071 -1.1501  0.0662
12887SOL    HW151134   7.226   4.648   2.790 -2.1877 -3.2414  1.0741
12887SOL    HW251135   7.280   4.642   2.944  3.8414  2.7063 -0.5999
12888SOL     OW51136   1.946   1.037   0.505  0.5206  0.1993 -0.5114
12888SOL    HW151137   2.005   1.117   0.512  0.4598  0.1457  0.7121
12888SOL    HW251138   1.983   0.963   0.561  1.0890 -0.9661 -2.3828
12889SOL     OW51139   0.342   0.977   3.712  0.6597  0.0988  0.5575
12889SOL    HW151140   0.346   0.884   3.676  3.1407  0.7521 -1.0308
12889SOL    HW251141   0.410   0.987   3.785  2.8822  1.5414 -1.6283
12890SOL     OW51142   7.457   2.937   1.284 -0.2626  0.0205  0.1224
12890SOL    HW151143   7.485   2.854   1.331 -0.9237 -0.3715 -0.1664
12890SOL    HW251144   7.504   3.016   1.324  0.5924 -0.5252  0.1912
12891SOL     OW51145   6.751   1.179   0.653  0.3829  0.6372  0.1062
12891SOL    HW151146   6.736   1.086   0.619  2.3070  0.2858  0.1813
12891SOL    HW251147   6.756   1.177   0.753 -0.5720  0.9825  0.1675
12892SOL     OW51148   0.699   8.669   6.030 -0.0767  0.2445 -0.4884
12892SOL    HW151149   0.770   8.733   6.059 -1.3432  2.1344 -1.4594
12892SOL    HW251150   0.736   8.605   5.963  1.3664 -0.4475  0.9590
12893SOL     OW51151   3.402   8.299   1.390 -0.5943  0.1755  0.8942
12893SOL    HW151152   3.440   8.253   1.471  0.9760 -0.8484 -0.3850
12893SOL    HW251153   3.358   8.230   1.331 -1.9875  0.9575  1.0097
12894SOL     OW51154   4.723   3.938   2.223 -0.4663  0.0958 -0.1100
12894SOL    HW151155   4.662   3.895   2.156 -2.2577  0.3944  1.2918
12894SOL    HW251156   4.681   4.021   2.258  0.2714 -0.2407  1.6441
12895SOL     OW51157   2.870   4.797   3.247  0.4392  0.0936 -0.6013
12895SOL    HW151158   2.960   4.810   3.289  0.7473  0.2486 -1.3040
12895SOL    HW251159   2.805   4.858   3.291 -0.0702 -2.3130  2.1532
12896SOL     OW51160   1.891   4.509   0.824 -0.3901  0.2429 -0.3155
12896SOL    HW151161   1.825   4.568   0.870  1.5172  1.3928  1.0160
12896SOL    HW251162   1.981   4.521   0.865 -0.1026 -4.3248  0.6416
12897SOL     OW51163   2.812   3.366   2.729  0.3989  0.3361  0.2139
12897SOL    HW151164   2.798   3.282   2.677 -2.2330  0.4797  0.6319
12897SOL    HW251165   2.909   3.393   2.724  1.4868 -3.2280  0.9387
12898SOL     OW51166   7.753   5.922   6.989  0.4403 -0.2414 -0.7104
12898SOL    HW151167   7.674   5.864   6.966  0.1823  0.0498 -0.5575
12898SOL    HW251168   7.721   6.013   7.016  0.7492 -0.5335  0.6713
12899SOL     OW51169   2.347   1.127   2.530  0.0795 -0.2610 -0.0964
12899SOL    HW151170   2.394   1.176   2.457 -3.2301 -0.5172 -2.4974
12899SOL    HW251171   2.360   1.028   2.516  1.4616 -0.2723  1.1145
12900SOL     OW51172   6.661   4.847   1.759 -0.2315 -0.3180  0.2323
12900SOL    HW151173   6.598   4.860   1.836 -0.4869 -3.2899  0.5896
12900SOL    HW251174   6.609   4.822   1.677  0.2876 -0.3732 -0.0827
12901SOL     OW51175   2.013   5.368   7.434 -0.3699 -0.4850  0.0384
12901SOL    HW151176   2.096   5.330   7.393 -0.7250 -2.1496  0.8096
12901SOL    HW251177   2.037   5.442   7.497  0.4384 -0.2730 -0.5124
12902SOL     OW51178   7.799   7.188   5.445  0.1320 -0.1560 -0.1823
12902SOL    HW151179   7.887   7.236   5.439 -0.0766  0.2933  0.3172
12902SOL    HW251180   7.764   7.172   5.353 -0.0620  1.1548 -0.3555
12903SOL     OW51181   3.239   8.683   4.386  0.0107 -0.0371 -0.1456
12903SOL    HW151182   3.311   8.634   4.337 -0.0826 -0.5068  0.1847
12903SOL    HW251183   3.244   8.780   4.363  1.3864  0.0916  0.6563
12904SOL     OW51184   4.996   4.485   6.369 -0.2919  0.1323 -0.8642
12904SOL    HW151185   4.974   4.519   6.460 -1.5251 -1.6747 -0.4550
12904SOL    HW251186   5.095   4.476   6.360 -0.1229  0.9318  0.0543
12905SOL     OW51187   4.483   4.487   6.525  0.7468 -0.5323  0.3470
12905SOL    HW151188   4.471   4.575   6.480  0.7907 -0.3093  0.7606
12905SOL    HW251189   4.489   4.501   6.624 -0.7784 -1.1473  0.5344
12906SOL     OW51190   6.870   6.924   0.923 -0.4246 -0.4389 -0.1955
12906SOL    HW151191   6.878   6.886   1.015 -0.2260  1.0562  0.4276
12906SOL    HW251192   6.906   7.017   0.923 -1.1061 -0.1687 -1.6185
12907SOL     OW51193   7.499   5.407   4.607  0.1516 -0.3084 -0.3247
12907SOL    HW151194   7.552   5.468   4.666 -0.4495  0.0711 -0.1734
12907SOL    HW251195   7.425   5.458   4.563  0.4316 -0.6494 -1.2044
12908SOL     OW51196   2.526   2.231   5.278  0.2521  0.1343  0.2403
12908SOL    HW151197   2.582   2.269   5.205 -2.2718 -1.9508 -2.9276
12908SOL    HW251198   2.566   2.144   5.309  0.5012  0.2634  0.2820
12909SOL     OW51199   0.260   4.187   0.843 -0.0810 -0.2303  0.2497
12909SOL    HW151200   0.163   4.177   0.821 -0.4669  0.5163  1.5435
12909SOL    HW251201   0.310   4.216   0.762 -0.7840 -1.5012 -0.6638
12910SOL     OW51202   8.821   5.222   3.562  0.0323 -0.2298 -0.0201
12910SOL    HW151203   8.860   5.311   3.542 -0.0479 -0.4383 -1.1564
12910SOL    HW251204   8.724   5.221   3.536 -0.5447  0.0225  2.0040
12911SOL     OW51205   7.956   2.188   7.365  0.2969  0.0136 -0.2620
12911SOL    HW151206   7.915   2.103   7.331  0.6105 -0.8430  1.4492
12911SOL    HW251207   8.043   2.204   7.317 -0.1836 -0.1468 -1.2143
12912SOL     OW51208   0.042   1.126   6.688 -0.0166 -0.1182 -0.0976
12912SOL    HW151209  -0.036   1.173   6.730 -0.5024  0.1263 -1.2698
12912SOL    HW251210   0.069   1.049   6.746 -1.3453 -0.4078  0.1472
12913SOL     OW51211   0.235   2.970   3.883 -0.1420 -0.1152 -0.7762
12913SOL    HW151212   0.287   3.054   3.867  1.5761 -0.7004  1.5895
12913SOL    HW251213   0.163   2.988   3.950  1.6783 -1.0101  1.4987
12914SOL     OW51214   1.353   6.669   4.493  0.3337 -0.1073  0.3822
12914SOL    HW151215   1.355   6.583   4.442  1.4348  0.5915 -0.7631
12914SOL    HW251216   1.385   6.652   4.587  1.0366 -0.8679  0.0183
12915SOL     OW51217   0.666   8.491   0.034 -0.1370 -0.4388  0.1382
12915SOL    HW151218   0.753   8.465   0.076  0.1718 -0.2365 -0.3666
12915SOL    HW251219   0.604   8.527   0.103  0.8401  1.1328  0.2190
12916SOL     OW51220   4.294   5.766   3.367  0.0209  0.2323 -0.5881
12916SOL    HW151221   4.353   5.795   3.292  0.2315 -0.6008 -0.7489
12916SOL    HW251222   4.203   5.804   3.354  0.5003  1.4663 -0.3778
12917SOL     OW51223   4.678   5.489   5.611 -0.3648 -0.1093 -0.0298
12917SOL    HW151224   4.697   5.403   5.659  0.9370 -0.1270 -0.5524
12917SOL    HW251225   4.630   5.470   5.526  0.7022 -0.4152 -0.5802
12918SOL     OW51226   1.220   7.159   1.018  0.2784 -0.1865 -0.0619
12918SOL    HW151227   1.298   7.218   0.996  0.0743  0.6539  1.3695
12918SOL    HW251228   1.168   7.200   1.093 -1.8437 -0.4897 -1.3505
12919SOL     OW51229   4.662   3.737   4.259  0.3002 -0.3040 -0.0012
12919SOL    HW151230   4.574   3.729   4.213  0.2700 -0.1729  0.0337
12919SOL    HW251231   4.735   3.734   4.191  0.2525 -0.0263 -0.0665
12920SOL     OW51232   5.388   5.810   6.193 -0.2210  0.2150 -0.1075
12920SOL    HW151233   5.290   5.819   6.178 -0.2566  0.2858  0.1655
12920SOL    HW251234   5.436   5.814   6.105 -0.5211 -0.6126 -0.3090
12921SOL     OW51235   3.865   6.440   5.813  0.0487 -0.2093 -0.5358
12921SOL    HW151236   3.820   6.385   5.743 -3.2151  0.4693  0.9314
12921SOL    HW251237   3.871   6.535   5.783  2.5223 -0.6664 -1.6113
12922SOL     OW51238   2.769   4.273   3.287  0.2203  0.2761  0.8000
12922SOL    HW151239   2.832   4.346   3.260  0.9497 -0.6002  0.0936
12922SOL    HW251240   2.770   4.263   3.387  1.2025  0.2653  0.7902
12923SOL     OW51241   6.899   2.113   8.810  0.0082  0.0862 -0.0177
12923SOL    HW151242   6.929   2.091   8.718 -1.4706  0.8876 -0.7060
12923SOL    HW251243   6.926   2.207   8.832  0.3037 -0.0831  0.3505
12924SOL     OW51244   0.667   5.134   3.862  0.2303  0.8262  0.0859
12924SOL    HW151245   0.761   5.119   3.891 -0.1095  0.0111  0.8174
12924SOL    HW251246   0.606   5.080   3.921 -0.6298  0.7967 -0.8308
12925SOL     OW51247   0.015   3.132   7.498 -0.3213  0.3488  0.0144
12925SOL    HW151248   0.000   3.223   7.461 -0.4160  1.9305  3.7224
12925SOL    HW251249   0.103   3.130   7.546 -0.9575 -1.0885  1.1423
12926SOL     OW51250   5.963   2.183   0.386  0.3339  0.1933 -0.0243
12926SOL    HW151251   5.909   2.234   0.453 -1.3789 -1.1579 -0.3301
12926SOL    HW251252   5.985   2.093   0.423  1.1241  0.1993 -0.4801
12927SOL     OW51253   0.552   0.639   0.027 -0.2528  0.2572  0.3301
12927SOL    HW151254   0.641   0.655   0.070 -0.2338  1.8343 -0.2816
12927SOL    HW251255   0.481   0.636   0.096  0.0687  0.5504  0.6738
12928SOL     OW51256   2.116   5.810   4.091 -0.2751 -0.2756  0.1756
12928SOL    HW151257   2.092   5.880   4.158  1.3174  0.4681  0.0014
12928SOL    HW251258   2.093   5.841   3.999  1.0954  0.3677  0.0246
12929SOL     OW51259   1.400   5.089   4.684 -0.5033 -0.0485 -0.2005
12929SOL    HW151260   1.324   5.099   4.619 -1.5939  1.2140  1.2550
12929SOL    HW251261   1.471   5.156   4.662 -1.1419  0.7907  0.2762
12930SOL     OW51262   3.259   5.105   5.077 -0.0576 -0.3063  0.0735
12930SOL    HW151263   3.249   5.123   4.979 -2.4031  0.7783  0.4881
12930SOL    HW251264   3.305   5.017   5.090 -1.3828 -1.3491 -2.0134
12931SOL     OW51265   8.638   2.305   2.040  0.5735 -0.4099  0.6284
12931SOL    HW151266   8.733   2.334   2.048  0.5623 -0.0987 -0.2908
12931SOL    HW251267   8.579   2.385   2.033  0.1308 -0.5802  2.2830
12932SOL     OW51268   7.567   7.735   8.119 -0.0224  0.0385  0.3028
12932SOL    HW151269   7.600   7.656   8.067 -3.2949 -1.3707  0.2405
12932SOL    HW251270   7.588   7.818   8.068  0.8087 -1.0044 -1.1160
12933SOL     OW51271   3.272   2.072   2.118  0.2281 -0.0983  0.2229
12933SOL    HW151272   3.196   2.105   2.061 -0.5712 -0.2056  1.2131
12933SOL    HW251273   3.306   2.147   2.175  0.4775 -0.1946  0.1989
12934SOL     OW51274   8.890   5.422   6.077 -0.0010 -0.4813 -0.1694
12934SOL    HW151275   8.838   5.442   5.993 -3.5854 -0.1936  2.0049
12934SOL    HW251276   8.894   5.504   6.134  3.2257 -0.4194 -0.4297
12935SOL     OW51277   2.716   3.631   7.991 -0.5839 -1.0369  1.0176
12935SOL    HW151278   2.753   3.615   7.899 -1.8584  2.2228 -0.1464
12935SOL    HW251279   2.787   3.670   8.049 -0.2708 -1.3797  0.8688
12936SOL     OW51280   1.616   4.911   3.763 -0.6482  0.0309  0.1449
12936SOL    HW151281   1.617   4.873   3.855  0.9267 -0.9919 -0.2817
12936SOL    HW251282   1.524   4.900   3.723 -0.2542 -3.3079  0.0424
12937SOL     OW51283   6.078   7.894   7.784  0.3698  0.7456 -0.6363
12937SOL    HW151284   5.992   7.917   7.738 -0.2514  0.4997  0.3896
12937SOL    HW251285   6.147   7.869   7.716 -0.2379  1.3750 -1.4896
12938SOL     OW51286   4.871   4.468   3.575  0.2532  0.3088  0.3090
12938SOL    HW151287   4.938   4.542   3.586  0.9842 -0.4742  1.1309
12938SOL    HW251288   4.917   4.385   3.543 -0.4865  0.0476 -0.0931
12939SOL     OW51289   2.887   8.883   1.211  0.2364 -0.1554 -0.2753
12939SOL    HW151290   2.923   8.927   1.128 -2.4813  0.4140 -1.1813
12939SOL    HW251291   2.880   8.784   1.195 -2.6173  0.2206 -1.6745
12940SOL     OW51292   7.481   6.285   3.620  0.6284  0.2022 -0.3302
12940SOL    HW151293   7.457   6.323   3.709 -0.6120 -0.0762 -0.5343
12940SOL    HW251294   7.404   6.296   3.557  0.8315 -1.2005 -0.8515
12941SOL     OW51295   4.002   0.827   1.858 -1.1401 -0.5591 -0.5143
12941SOL    HW151296   3.993   0.924   1.833 -0.9413 -0.8780 -1.8516
12941SOL    HW251297   4.097   0.799   1.850 -1.0626 -0.6569  0.6883
12942SOL     OW51298   0.485   1.314   7.742 -0.5102  0.0024  0.2758
12942SOL    HW151299   0.474   1.273   7.651 -0.2508  0.5034  0.0130
12942SOL    HW251300   0.442   1.405   7.742  0.5851  0.5305  0.2694
12943SOL     OW51301   1.808   1.609   5.602  0.0199 -0.5773 -0.2178
12943SOL    HW151302   1.811   1.540   5.530  1.0491 -0.9635  0.1804
12943SOL    HW251303   1.875   1.587   5.673 -1.7157 -0.7874  1.4073
12944SOL     OW51304   4.912   5.724   0.862  0.2382 -0.2129  0.1039
12944SOL    HW151305   5.011   5.711   0.860  0.5564  1.9302 -0.3015
12944SOL    HW251306   4.892   5.821   0.878 -1.7934 -0.6224  0.1654
12945SOL     OW51307   6.280   0.901   2.653  0.0564  0.0125 -0.1291
12945SOL    HW151308   6.249   0.894   2.558  0.8779 -0.7097 -0.3478
12945SOL    HW251309   6.345   0.976   2.661 -0.7085  0.6597  0.0525
12946SOL     OW51310   3.819   4.271   6.278 -0.3123  0.0632  0.1729
12946SOL    HW151311   3.861   4.358   6.251 -0.3278  0.2291  0.6709
12946SOL    HW251312   3.726   4.266   6.244 -0.2045  0.1023 -0.1310
12947SOL     OW51313   5.327   6.089   8.670  0.2217  0.3891 -0.0152
12947SOL    HW151314   5.246   6.103   8.727 -0.6101  0.5239 -1.2263
12947SOL    HW251315   5.363   5.998   8.687  1.6984  1.4257  2.8749
12948SOL     OW51316   8.239   1.103   0.037 -0.4932  0.5686  0.0652
12948SOL    HW151317   8.330   1.065   0.054 -1.0836 -0.1584  1.7469
12948SOL    HW251318   8.245   1.202   0.030  0.7402  0.3736 -2.0469
12949SOL     OW51319   2.586   1.307   1.833 -0.0783 -0.5902 -0.4730
12949SOL    HW151320   2.610   1.275   1.742  1.4588  3.3943 -1.6042
12949SOL    HW251321   2.516   1.378   1.826 -0.2904 -0.5788  1.5046
12950SOL     OW51322   8.859   6.714   7.920  0.2145 -0.3140  0.3044
12950SOL    HW151323   8.794   6.724   7.996 -1.7376 -2.0037 -1.0938
12950SOL    HW251324   8.819   6.751   7.836  1.3514 -0.7274 -0.4323
12951SOL     OW51325   8.161   5.805   3.433  0.9548  0.9045  0.2471
12951SOL    HW151326   8.242   5.784   3.378  1.6618  3.1846  0.3656
12951SOL    HW251327   8.189   5.830   3.526  0.0159  0.4629  0.6568
12952SOL     OW51328   5.050   0.152   5.364  0.5480 -0.1388  0.4363
12952SOL    HW151329   5.010   0.232   5.409  0.4520  0.2281 -0.2998
12952SOL    HW251330   4.981   0.106   5.308  0.6653 -0.5987  0.6644
12953SOL     OW51331   4.742   2.629   5.962 -0.3667 -0.3833  0.2991
12953SOL    HW151332   4.753   2.612   6.060  1.1301 -1.2290 -0.0033
12953SOL    HW251333   4.741   2.541   5.913  0.9993  0.1178 -0.6490
12954SOL     OW51334   8.478   0.648   1.000 -0.5124  0.1969  0.2467
12954SOL    HW151335   8.491   0.683   1.092 -1.1923  2.0758 -0.3427
12954SOL    HW251336   8.439   0.720   0.942 -0.2362 -0.9975 -1.4680
12955SOL     OW51337   4.189   0.585   3.202 -0.2269 -0.7108  0.9627
12955SOL    HW151338   4.130   0.662   3.226 -3.0958 -2.6303  0.2280
12955SOL    HW251339   4.144   0.499   3.226  1.6401 -2.2821 -0.9933
12956SOL     OW51340   8.104   7.805   8.703  0.0300  0.1544  0.3409
12956SOL    HW151341   8.122   7.863   8.783 -0.5159  2.6447 -1.2862
12956SOL    HW251342   8.138   7.713   8.721  0.8742  0.9328  3.0333
12957SOL     OW51343   1.731   8.278   3.811 -0.1934 -0.1585  0.1771
12957SOL    HW151344   1.660   8.242   3.870 -1.2777 -1.1547 -1.7047
12957SOL    HW251345   1.779   8.203   3.766  0.0084  0.6008 -0.9050
12958SOL     OW51346   7.937   8.519   7.913 -0.0490  0.1251  0.5753
12958SOL    HW151347   7.855   8.476   7.877  0.5948 -1.8423  1.3812
12958SOL    HW251348   8.001   8.538   7.839 -1.5725  2.5047 -0.1788
12959SOL     OW51349   6.003   3.852   2.440 -0.5532 -0.3969  0.3186
12959SOL    HW151350   5.906   3.842   2.464 -0.4858 -1.2389  0.2466
12959SOL    HW251351   6.044   3.923   2.497 -1.3272  0.2965  0.0274
12960SOL     OW51352   6.250   2.250   0.421 -0.7150  0.1876 -0.0991
12960SOL    HW151353   6.155   2.233   0.396 -0.8506  0.5260  0.1891
12960SOL    HW251354   6.309   2.187   0.371 -0.8465  1.9294 -2.5447
12961SOL     OW51355   7.892   6.434   3.183  0.4062  0.2842 -0.1435
12961SOL    HW151356   7.939   6.449   3.096 -0.6285  0.3567 -0.6993
12961SOL    HW251357   7.959   6.417   3.255  1.2498 -0.2477 -1.0478
12962SOL     OW51358   5.845   6.432   2.005  0.3962 -0.0524  0.7371
12962SOL    HW151359   5.768   6.403   1.948 -0.1999  1.9326  0.4833
12962SOL    HW251360   5.864   6.528   1.988  3.2851 -0.6308  0.4322
12963SOL     OW51361   3.646   7.527   1.176 -0.3370  0.3144 -0.4099
12963SOL    HW151362   3.641   7.566   1.084  0.0246  0.6174 -0.3029
12963SOL    HW251363   3.738   7.542   1.214 -0.1845 -0.6515 -0.3762
12964SOL     OW51364   0.553   0.151   6.277  0.2166 -0.2530  0.0274
12964SOL    HW151365   0.472   0.195   6.238  0.6526  1.1161  0.6067
12964SOL    HW251366   0.635   0.192   6.237  0.6602  0.7111  1.8787
12965SOL     OW51367   1.383   7.501   2.082 -0.4243  0.2989 -0.1893
12965SOL    HW151368   1.349   7.559   2.156 -0.7862  0.5249 -0.5310
12965SOL    HW251369   1.371   7.548   1.995 -0.0587  0.0042 -0.3966
12966SOL     OW51370   8.395   0.974   4.410 -0.6457 -0.2718 -0.0162
12966SOL    HW151371   8.468   1.000   4.348 -0.0051 -1.0523  0.4065
12966SOL    HW251372   8.352   1.057   4.447 -0.7097  0.1937 -1.1064
12967SOL     OW51373   2.624   6.045   4.100 -0.3181 -0.1517  0.2040
12967SOL    HW151374   2.601   6.141   4.084 -0.0410 -0.1356 -0.1045
12967SOL    HW251375   2.572   5.988   4.036  0.7272 -0.0934 -0.7064
12968SOL     OW51376   0.546   2.062   4.423 -0.9209  0.2763 -0.3291
12968SOL    HW151377   0.606   2.117   4.365  0.1692 -0.2746  0.2549
12968SOL    HW251378   0.554   2.092   4.518  0.1819 -1.2783  0.1001
12969SOL     OW51379   4.150   5.520   3.075  0.4698 -0.1237  0.0133
12969SOL    HW151380   4.123   5.580   2.999  1.0994 -0.3819 -0.4199
12969SOL    HW251381   4.211   5.569   3.137 -0.1735  0.1379  0.4435
12970SOL     OW51382   8.487   4.183   6.844  1.0823  0.5612 -0.4045
12970SOL    HW151383   8.534   4.225   6.766 -0.2364  1.5639 -0.6790
12970SOL    HW251384   8.521   4.090   6.857  1.5919  0.5147 -1.9443
12971SOL     OW51385   4.449   6.633   2.023 -0.0935 -0.1987  0.2505
12971SOL    HW151386   4.358   6.672   2.009 -0.1210 -0.3954 -0.1128
12971SOL    HW251387   4.517   6.707   2.026  0.0983 -0.2248 -2.3303
12972SOL     OW51388   0.936   4.700   8.668  0.0693  0.4599 -0.1646
12972SOL    HW151389   1.008   4.703   8.737  0.0897 -0.1719 -0.1549
12972SOL    HW251390   0.859   4.756   8.697 -0.0235 -0.0049  0.4774
12973SOL     OW51391   4.896   6.975   1.517 -0.0546 -0.1377 -0.2545
12973SOL    HW151392   4.933   7.068   1.515  2.0926 -0.9619 -0.3001
12973SOL    HW251393   4.959   6.916   1.568 -0.9011 -1.7763 -1.0766
12974SOL     OW51394   4.169   6.588   6.311  0.1190  0.0086 -0.4037
12974SOL    HW151395   4.179   6.572   6.213 -3.3733  0.6657 -0.9258
12974SOL    HW251396   4.109   6.667   6.326  0.3635 -0.2777  2.2504
12975SOL     OW51397   1.541   4.738   4.922 -0.4768 -0.1853 -0.0219
12975SOL    HW151398   1.491   4.825   4.927 -1.1011 -0.5559  0.0920
12975SOL    HW251399   1.549   4.711   4.826 -0.8505 -0.3322 -0.0139
12976SOL     OW51400   5.922   4.185   1.719  0.3300 -0.3331  0.1453
12976SOL    HW151401   5.948   4.110   1.779  1.1436  0.9143  1.4035
12976SOL    HW251402   5.893   4.149   1.630  1.3481 -2.0716  0.4946
12977SOL     OW51403   2.553   3.223   8.259  0.5624  0.0799 -0.0622
12977SOL    HW151404   2.475   3.202   8.317  0.6875 -0.7717 -0.1874
12977SOL    HW251405   2.543   3.314   8.220 -1.1066 -0.5922 -1.2582
12978SOL     OW51406   2.367   1.215   8.038 -0.4475  0.2708  0.1578
12978SOL    HW151407   2.372   1.313   8.059 -1.8025  0.6062 -0.9932
12978SOL    HW251408   2.384   1.163   8.121  1.0630  1.4646  0.6329
12979SOL     OW51409   5.066   2.718   1.047  0.3855  0.2538 -0.1193
12979SOL    HW151410   5.116   2.802   1.068  1.1771 -0.4730  0.9185
12979SOL    HW251411   4.997   2.737   0.977  0.5657  1.7634  0.1026
12980SOL     OW51412   8.862   2.580   8.765 -0.5013  0.3490 -0.2509
12980SOL    HW151413   8.900   2.490   8.744 -0.6294  0.1717  0.2636
12980SOL    HW251414   8.846   2.587   8.863 -0.9603  0.7497 -0.3534
12981SOL     OW51415   6.431   4.670   6.958 -0.4777  0.4148 -0.3628
12981SOL    HW151416   6.332   4.666   6.948 -0.7456  0.9216  1.8579
12981SOL    HW251417   6.455   4.733   7.032  1.3045 -2.6292  1.7958
12982SOL     OW51418   3.909   7.909   6.121  0.3086  0.3715 -0.5697
12982SOL    HW151419   3.883   7.901   6.217 -0.9465 -0.1157 -0.9381
12982SOL    HW251420   3.969   7.989   6.109 -2.2465  2.4557  0.0944
12983SOL     OW51421   3.951   8.320   4.812 -0.1578  0.1545  0.0853
12983SOL    HW151422   4.008   8.320   4.894 -1.4782  0.5270  1.0149
12983SOL    HW251423   3.995   8.376   4.741  1.2245 -0.5602  0.3524
12984SOL     OW51424   8.550   4.900   7.388  0.1303 -0.3136  0.5532
12984SOL    HW151425   8.609   4.821   7.405 -1.0777 -1.4683 -0.5193
12984SOL    HW251426   8.597   4.963   7.326  0.6445 -0.7286  0.5095
12985SOL     OW51427   6.467   3.839   6.543  0.3656 -0.2637  0.2232
12985SOL    HW151428   6.540   3.781   6.578  1.7965  1.5362  0.2795
12985SOL    HW251429   6.480   3.854   6.445 -1.0915 -1.5892 -0.1995
12986SOL     OW51430   4.684   4.881   4.433  0.0929  0.3154  0.0441
12986SOL    HW151431   4.695   4.819   4.355 -0.9888 -0.8807  0.8418
12986SOL    HW251432   4.773   4.893   4.478  0.0324 -1.9323  0.8354
12987SOL     OW51433   0.046   2.846   7.810 -0.2461  0.0658 -0.3525
12987SOL    HW151434  -0.026   2.813   7.750  1.0948 -2.2379 -0.7580
12987SOL    HW251435   0.134   2.843   7.761  0.3262  1.6354  0.5385
12988SOL     OW51436   4.487   4.372   3.388  0.0489  0.2274  0.2671
12988SOL    HW151437   4.570   4.364   3.333  1.5405 -0.2925  2.5563
12988SOL    HW251438   4.508   4.353   3.484 -2.8149 -0.3961  0.8083
12989SOL     OW51439   1.669   6.400   3.175 -0.9340  0.4470 -0.0867
12989SOL    HW151440   1.647   6.459   3.097 -0.5176 -1.6273 -1.7947
12989SOL    HW251441   1.587   6.352   3.205 -1.1454  1.4166  0.9408
12990SOL     OW51442   8.791   7.484   8.002  0.3377  0.1909  0.1780
12990SOL    HW151443   8.846   7.506   7.921  0.3148  2.3977  0.7126
12990SOL    HW251444   8.848   7.494   8.084  0.1617 -1.3079  0.4939
12991SOL     OW51445   7.903   0.291   1.807  0.2833  0.6588 -0.1891
12991SOL    HW151446   7.807   0.267   1.821 -0.0835  0.9453 -2.0867
12991SOL    HW251447   7.910   0.388   1.781  1.0703  0.6268 -0.1002
12992SOL     OW51448   4.251   7.561   0.258 -0.3994 -0.0010 -0.2907
12992SOL    HW151449   4.166   7.571   0.206 -0.5075 -0.1333 -0.1414
12992SOL    HW251450   4.244   7.482   0.319 -0.6965  0.7909  0.7192
12993SOL     OW51451   1.271   5.121   4.361  0.4675  0.5961  0.0666
12993SOL    HW151452   1.321   5.035   4.350  0.7742  0.8807 -0.7833
12993SOL    HW251453   1.299   5.186   4.289  0.2634  1.4155  0.7129
12994SOL     OW51454   8.680   4.321   5.946 -0.0463 -0.5772 -0.0522
12994SOL    HW151455   8.679   4.223   5.969 -0.4627 -0.5039  0.2553
12994SOL    HW251456   8.590   4.348   5.913  0.3455 -0.5086 -1.0763
12995SOL     OW51457   3.214   6.564   2.731  0.0264  0.1986  0.7426
12995SOL    HW151458   3.130   6.513   2.746 -1.9117  2.4956 -1.7763
12995SOL    HW251459   3.238   6.615   2.813 -1.6849  0.4278  1.1124
12996SOL     OW51460   3.794   6.869   3.237  0.3702  0.8844  0.1881
12996SOL    HW151461   3.820   6.852   3.332  1.4549  0.6087 -0.1486
12996SOL    HW251462   3.723   6.939   3.233 -0.5304  0.0625  1.2780
12997SOL     OW51463   2.501   5.513   3.431  0.0904 -0.0686  0.2413
12997SOL    HW151464   2.558   5.594   3.443  0.4194 -0.2382 -0.1746
12997SOL    HW251465   2.406   5.537   3.451 -0.0959  0.8992 -1.6848
12998SOL     OW51466   0.490   8.968   2.027 -0.0802 -0.3115 -0.1427
12998SOL    HW151467   0.538   9.052   2.051  1.5375 -1.3647  0.4140
12998SOL    HW251468   0.423   8.987   1.955  0.2927  1.4395 -0.0446
12999SOL     OW51469   4.759   8.001   2.664 -0.8879 -0.8755 -0.1691
12999SOL    HW151470   4.681   8.063   2.671 -0.4341 -0.1998 -0.8880
12999SOL    HW251471   4.811   8.023   2.581 -0.8357 -2.3680 -0.5562
13000SOL     OW51472   0.058   0.495   7.735 -0.1628  0.2315 -0.1987
13000SOL    HW151473   0.141   0.546   7.761 -0.1824  0.2770 -0.2244
13000SOL    HW251474   0.008   0.547   7.667 -0.4804  0.4517  0.2018
13001SOL     OW51475   6.015   5.743   7.091  0.0054  0.2125 -0.0985
13001SOL    HW151476   6.091   5.682   7.111  0.5482  1.0884  0.5614
13001SOL    HW251477   5.941   5.727   7.156 -0.8515 -1.4246 -1.4374
13002SOL     OW51478   6.217   1.559   0.351  0.1513  0.0534 -0.3906
13002SOL    HW151479   6.131   1.594   0.387 -0.3256 -0.5867 -0.8904
13002SOL    HW251480   6.230   1.591   0.257 -0.2350 -1.0076 -0.8107
13003SOL     OW51481   1.784   0.742   1.698  0.3576 -0.3773  0.0389
13003SOL    HW151482   1.759   0.802   1.622  1.0166 -0.3766 -0.1868
13003SOL    HW251483   1.705   0.728   1.757  0.0968  0.4053 -0.1170
13004SOL     OW51484   7.586   7.735   0.546 -0.7073  0.5630  0.9579
13004SOL    HW151485   7.617   7.663   0.484 -0.1196 -1.5079  3.5241
13004SOL    HW251486   7.641   7.817   0.532  1.1865 -0.7334  0.5284
13005SOL     OW51487   8.937   3.810   3.738 -0.4653 -0.1850  0.4663
13005SOL    HW151488   9.019   3.763   3.705 -0.4534 -0.3686  0.7519
13005SOL    HW251489   8.898   3.758   3.814  0.1618  0.8282  1.4936
13006SOL     OW51490   1.860   4.004   8.607 -0.1209 -0.8021 -0.3648
13006SOL    HW151491   1.812   3.961   8.684  0.8289 -0.4010  0.4626
13006SOL    HW251492   1.958   3.993   8.618  0.0235 -0.7091 -1.5187
13007SOL     OW51493   7.362   4.739   6.593  0.0976 -0.7793  0.2416
13007SOL    HW151494   7.359   4.738   6.493 -0.2414  0.1380  0.2395
13007SOL    HW251495   7.272   4.764   6.628  0.1804 -1.2387  0.7818
13008SOL     OW51496   4.134   4.486   2.206 -0.3063 -0.1872  0.0713
13008SOL    HW151497   4.074   4.407   2.197  0.7816 -1.2164  1.4884
13008SOL    HW251498   4.086   4.560   2.253 -1.0398 -0.3384 -0.4385
13009SOL     OW51499   3.672   4.863   6.038 -0.1619  0.1567  0.4685
13009SOL    HW151500   3.620   4.887   6.120 -1.2549  0.2999 -0.2536
13009SOL    HW251501   3.674   4.764   6.027 -2.8385  0.2380 -1.0977
13010SOL     OW51502   7.465   7.967   1.105  0.2081 -0.2510 -0.2878
13010SOL    HW151503   7.408   8.033   1.154 -1.3205 -2.9833  1.7663
13010SOL    HW251504   7.556   7.965   1.145  1.0759  2.3893 -2.0134
13011SOL     OW51505   6.963   5.253   1.835 -0.0140 -0.3864  0.2361
13011SOL    HW151506   6.887   5.188   1.843  0.8294 -1.7791 -2.3329
13011SOL    HW251507   7.035   5.229   1.900 -1.1402  0.0529  1.6650
13012SOL     OW51508   2.389   4.384   7.545  0.2032 -0.2811 -0.0058
13012SOL    HW151509   2.455   4.399   7.471 -0.0607  0.9661  0.0081
13012SOL    HW251510   2.356   4.472   7.578 -1.8949 -0.8984 -0.3998
13013SOL     OW51511   1.289   7.242   2.088  0.3740  0.2369  0.5576
13013SOL    HW151512   1.338   7.173   2.035 -0.2583  0.2115 -0.0002
13013SOL    HW251513   1.326   7.333   2.068  0.6654  0.1438  0.6754
13014SOL     OW51514   2.088   5.174   3.406 -0.3794 -0.2594  0.3540
13014SOL    HW151515   2.168   5.233   3.392 -0.5450 -0.2410 -0.5936
13014SOL    HW251516   2.009   5.230   3.431 -0.6046 -0.0359 -0.8279
13015SOL     OW51517   3.297   1.703   2.407  0.4234  0.0963 -0.2358
13015SOL    HW151518   3.206   1.740   2.425  0.7662  0.4777  0.7104
13015SOL    HW251519   3.322   1.721   2.312 -0.6301 -0.3162 -0.5997
13016SOL     OW51520   4.781   6.080   0.308  0.4651 -0.4206 -0.2684
13016SOL    HW151521   4.867   6.063   0.261  0.8664 -2.7631  1.1943
13016SOL    HW251522   4.706   6.038   0.258  0.0261  2.1956 -1.9006
13017SOL     OW51523   6.624   6.803   8.505  0.5876 -0.1266  0.2417
13017SOL    HW151524   6.628   6.892   8.459  0.6080 -0.0487  0.3940
13017SOL    HW251525   6.556   6.807   8.578  0.8675 -0.1217  0.4985
13018SOL     OW51526   5.371   8.794   3.497 -0.0068  0.2933  0.2959
13018SOL    HW151527   5.303   8.722   3.508  0.0780  0.1868  0.1179
13018SOL    HW251528   5.328   8.883   3.509  0.0818  0.1760  1.5489
13019SOL     OW51529   1.296   2.573   6.655  0.0165  0.2053  0.1707
13019SOL    HW151530   1.223   2.549   6.720  2.0315  0.2266  2.5187
13019SOL    HW251531   1.320   2.492   6.601 -3.1106  0.7004 -2.1209
13020SOL     OW51532   6.325   6.954   4.421  0.1555  0.4525 -0.6347
13020SOL    HW151533   6.375   7.035   4.390 -0.8070  1.3097  0.0077
13020SOL    HW251534   6.228   6.977   4.432 -0.0476 -0.6709 -0.0233
13021SOL     OW51535   1.868   2.590   6.248  0.1517  0.1787  0.1010
13021SOL    HW151536   1.813   2.671   6.228  0.5765  1.1887  2.8328
13021SOL    HW251537   1.820   2.534   6.316  0.4451 -1.2589 -0.8457
13022SOL     OW51538   4.826   8.131   7.814 -0.2283 -0.7251 -0.1064
13022SOL    HW151539   4.762   8.142   7.890 -1.7031  0.0851 -1.4232
13022SOL    HW251540   4.843   8.033   7.799 -2.1665 -1.0209 -0.5267
13023SOL     OW51541   0.733   5.015   5.238  0.1493 -0.0846 -0.3893
13023SOL    HW151542   0.796   5.055   5.306  0.8317  0.7864 -1.5238
13023SOL    HW251543   0.759   4.920   5.220  0.5710 -0.0100 -0.1755
13024SOL     OW51544   7.289   5.480   0.780 -0.1728  0.1203 -0.0482
13024SOL    HW151545   7.215   5.417   0.758 -1.6204  1.9845 -0.6453
13024SOL    HW251546   7.347   5.494   0.700 -0.6382  0.5798 -0.3061
13025SOL     OW51547   1.082   1.678   6.829  0.0444 -0.5231 -0.0010
13025SOL    HW151548   1.131   1.671   6.743 -1.4701  0.6808 -0.9983
13025SOL    HW251549   1.011   1.608   6.834  0.0413 -0.5071  0.2167
13026SOL     OW51550   3.193   1.363   7.267  0.3691  0.6003 -0.4241
13026SOL    HW151551   3.105   1.409   7.253  0.6154  1.3703  0.5430
13026SOL    HW251552   3.217   1.313   7.184 -1.9083 -1.2134 -0.0433
13027SOL     OW51553   0.057   4.736   6.980  0.3737  0.3901 -0.2142
13027SOL    HW151554   0.096   4.680   7.053  0.5237 -1.0275 -1.3746
13027SOL    HW251555   0.099   4.711   6.892 -0.3353  1.5626 -0.8999
13028SOL     OW51556   8.179   6.254   3.087 -0.4750  0.6000  0.6921
13028SOL    HW151557   8.102   6.209   3.131 -0.6237  0.5672  0.4028
13028SOL    HW251558   8.147   6.335   3.038 -0.0939  1.4342  1.8096
13029SOL     OW51559   4.434   5.854   8.320 -0.1546 -0.7895  0.2564
13029SOL    HW151560   4.381   5.790   8.265  0.3723 -0.6520 -0.4068
13029SOL    HW251561   4.523   5.869   8.278  0.1767 -0.5313  1.0366
13030SOL     OW51562   1.459   5.728   0.298  0.3132 -0.0913 -0.3987
13030SOL    HW151563   1.471   5.784   0.216 -1.3119  1.6889  0.5650
13030SOL    HW251564   1.460   5.786   0.379 -1.9605 -1.3806  0.5866
13031SOL     OW51565   1.236   4.696   1.127  0.2455 -0.0855  0.1975
13031SOL    HW151566   1.261   4.599   1.123  0.9009  0.0488  0.8574
13031SOL    HW251567   1.144   4.706   1.165  0.2993 -0.4320  0.4165
13032SOL     OW51568   0.024   7.441   7.113  0.1824 -0.5361  0.4049
13032SOL    HW151569  -0.003   7.345   7.107 -2.2368  0.2309 -2.1119
13032SOL    HW251570  -0.056   7.497   7.132  0.9708  1.2788 -1.3977
13033SOL     OW51571   0.571   4.496   4.167 -0.4123  0.2598 -0.4321
13033SOL    HW151572   0.499   4.449   4.219  0.2595  0.4225  0.6554
13033SOL    HW251573   0.568   4.465   4.072 -2.1023  0.4702 -0.4735
13034SOL     OW51574   0.126   4.991   0.665  0.6334 -0.8953 -0.4515
13034SOL    HW151575   0.108   4.935   0.746  0.0961 -2.9062 -1.9090
13034SOL    HW251576   0.053   4.976   0.598  1.0416  0.7761 -1.2825
13035SOL     OW51577   6.830   1.955   7.418 -0.0523  1.0446 -0.0305
13035SOL    HW151578   6.789   2.040   7.450  0.2166  0.2829  2.4277
13035SOL    HW251579   6.909   1.976   7.360 -1.5284  2.4643 -1.5755
13036SOL     OW51580   3.130   2.415   2.691  0.4888  0.8485  0.9466
13036SOL    HW151581   3.113   2.320   2.665  1.6980  0.7996  0.2939
13036SOL    HW251582   3.099   2.430   2.785  0.1244 -0.1420  0.9926
13037SOL     OW51583   3.133   6.002   6.180 -0.6604 -0.5128 -0.0348
13037SOL    HW151584   3.130   6.022   6.082 -2.7005  1.2398  0.3459
13037SOL    HW251585   3.151   5.905   6.194  0.8175 -0.5579 -2.1147
13038SOL     OW51586   8.663   6.360   6.235 -0.6526 -0.3157  0.1482
13038SOL    HW151587   8.590   6.327   6.294 -0.0139  0.0981  1.1792
13038SOL    HW251588   8.631   6.442   6.186 -0.9567 -0.2696  0.4233
13039SOL     OW51589   6.076   4.640   4.179  0.1493  0.1848 -0.1869
13039SOL    HW151590   6.153   4.693   4.214 -0.2376  0.9329 -0.4710
13039SOL    HW251591   6.069   4.651   4.079 -0.2402  0.0079 -0.1835
13040SOL     OW51592   6.884   5.512   7.487  0.2757 -0.0136  0.0270
13040SOL    HW151593   6.959   5.537   7.548  1.3405 -2.1456 -0.3777
13040SOL    HW251594   6.888   5.569   7.404  1.3907 -0.0659  0.0446
13041SOL     OW51595   1.226   6.688   7.813  0.1094 -0.8083 -0.3041
13041SOL    HW151596   1.152   6.653   7.871 -0.7258 -0.1437 -0.9508
13041SOL    HW251597   1.303   6.717   7.870 -0.9064  0.3280  0.4923
13042SOL     OW51598   5.234   2.783   7.545  0.0207  0.5957 -0.1780
13042SOL    HW151599   5.214   2.767   7.449  1.0512  2.3885 -0.7321
13042SOL    HW251600   5.300   2.715   7.578  0.3881  0.5458 -1.0114
13043SOL     OW51601   3.066   5.571   5.868  0.3222 -0.5372 -0.4752
13043SOL    HW151602   2.994   5.586   5.935  0.3976 -1.5576 -0.1684
13043SOL    HW251603   3.106   5.659   5.842 -1.4110  0.0774 -1.0794
13044SOL     OW51604   7.519   8.208   3.910  0.0490  0.3438  0.3224
13044SOL    HW151605   7.615   8.233   3.926  0.4369 -1.2944  0.5921
13044SOL    HW251606   7.483   8.263   3.836  1.6531 -0.0834 -0.8076
13045SOL     OW51607   3.301   1.900   3.987 -0.0536  0.9431  0.3972
13045SOL    HW151608   3.219   1.851   3.958 -0.7539  2.6329 -0.5206
13045SOL    HW251609   3.339   1.855   4.068 -2.8305  1.1318  1.8606
13046SOL     OW51610   6.672   1.323   8.255  0.5370 -0.1778  0.0102
13046SOL    HW151611   6.582   1.329   8.299 -0.3393 -1.2173 -1.6144
13046SOL    HW251612   6.689   1.407   8.203 -0.2036 -0.6328 -0.9874
13047SOL     OW51613   3.382   0.274   1.751  0.0951 -0.1313  0.0017
13047SOL    HW151614   3.332   0.259   1.666  1.6709 -1.7089 -0.6633
13047SOL    HW251615   3.355   0.205   1.818 -0.8399  0.8620  0.6778
13048SOL     OW51616   4.394   8.642   4.155  0.0321  0.1689  0.3249
13048SOL    HW151617   4.439   8.725   4.185  1.6405 -1.2230  1.8751
13048SOL    HW251618   4.462   8.579   4.116 -0.7473 -1.4692  1.5647
13049SOL     OW51619   3.280   0.719   5.715 -0.4956  0.2267 -0.1738
13049SOL    HW151620   3.218   0.780   5.664 -0.3803  0.7574  0.3195
13049SOL    HW251621   3.316   0.650   5.653  0.6818  1.6771 -1.1414
13050SOL     OW51622   6.109   5.090   8.627 -0.0803  0.5712  0.0663
13050SOL    HW151623   6.035   5.156   8.635 -1.9318 -1.5219  0.9426
13050SOL    HW251624   6.085   5.007   8.677  2.2209 -0.7378 -0.8959
13051SOL     OW51625   1.015   1.450   7.832  0.4443  0.7060  0.6121
13051SOL    HW151626   0.950   1.448   7.908 -1.3419  0.5331 -0.8717
13051SOL    HW251627   1.065   1.363   7.829 -0.7104  0.0357  0.5527
13052SOL     OW51628   6.231   7.317   2.094 -0.3523  0.0952 -0.0250
13052SOL    HW151629   6.174   7.241   2.125 -0.8003 -0.0113 -1.0744
13052SOL    HW251630   6.316   7.282   2.054 -1.2590  0.0449 -1.9601
13053SOL     OW51631   2.477   5.479   7.334  0.0381 -0.2002  0.3063
13053SOL    HW151632   2.500   5.528   7.251 -3.2110 -0.2230 -0.6956
13053SOL    HW251633   2.397   5.522   7.377  0.1935 -1.6277  2.0879
13054SOL     OW51634   0.720   1.282   7.875  0.1934  0.0152 -0.1103
13054SOL    HW151635   0.701   1.248   7.967  1.0636 -1.3293 -0.4097
13054SOL    HW251636   0.634   1.289   7.823  0.0032 -2.1283 -0.1568
13055SOL     OW51637   7.526   4.235   0.803 -0.0417  0.0826 -0.3370
13055SOL    HW151638   7.522   4.290   0.887 -0.0378  0.6196 -0.6862
13055SOL    HW251639   7.433   4.210   0.775  0.0443 -1.6324  0.8210
13056SOL     OW51640   0.340   3.572   7.054 -0.0917 -0.0847  0.1992
13056SOL    HW151641   0.410   3.629   7.010 -1.2061  0.6349 -0.6687
13056SOL    HW251642   0.325   3.603   7.147  0.8621 -0.3547  0.4525
13057SOL     OW51643   5.557   6.102   0.423 -0.4054 -0.0066 -0.2648
13057SOL    HW151644   5.596   6.011   0.437  0.2935  0.0928 -1.5076
13057SOL    HW251645   5.509   6.105   0.336 -0.5546  0.7805 -0.1619
13058SOL     OW51646   7.234   1.519   2.661  0.0819  0.3422  0.1126
13058SOL    HW151647   7.247   1.593   2.727 -0.6509  0.5997 -0.0250
13058SOL    HW251648   7.143   1.526   2.621 -1.3077 -2.6217  2.5679
13059SOL     OW51649   5.769   5.998   7.690  0.3643  0.3455  0.1246
13059SOL    HW151650   5.779   6.040   7.600 -3.2225  2.2413  0.5332
13059SOL    HW251651   5.847   6.024   7.747  2.0156  0.1865 -1.9976
13060SOL     OW51652   2.225   8.270   7.988  0.0138  0.0922 -0.0259
13060SOL    HW151653   2.280   8.204   8.039 -1.7626 -0.5074  1.1471
13060SOL    HW251654   2.166   8.222   7.923 -3.2717  0.2407  2.7298
13061SOL     OW51655   8.477   0.298   0.234 -0.4033  0.4899  0.0061
13061SOL    HW151656   8.385   0.260   0.249  0.5129 -1.4002  0.9806
13061SOL    HW251657   8.501   0.292   0.138 -0.7767 -0.2736 -0.0440
13062SOL     OW51658   3.081   2.020   4.168  0.0277  0.5514 -0.3662
13062SOL    HW151659   3.167   2.061   4.138  0.2843  2.2842  2.4742
13062SOL    HW251660   3.095   1.923   4.188  1.4887  0.9400  0.5865
13063SOL     OW51661   4.746   7.693   8.792 -0.4478  0.1947 -0.3703
13063SOL    HW151662   4.800   7.740   8.721 -1.1535  1.3682 -0.1488
13063SOL    HW251663   4.649   7.704   8.772 -0.6474  0.3024  0.6392
13064SOL     OW51664   4.380   0.748   8.149 -0.3060  0.1572 -0.1666
13064SOL    HW151665   4.377   0.711   8.241  0.3256 -1.3168 -0.7136
13064SOL    HW251666   4.409   0.676   8.085 -1.8921  0.8214 -1.6869
13065SOL     OW51667   7.841   6.108   8.819 -0.5273  0.5593 -0.0115
13065SOL    HW151668   7.836   6.084   8.722  0.0329 -0.8291  0.2908
13065SOL    HW251669   7.937   6.112   8.847 -0.6905  0.9355  0.4883
13066SOL     OW51670   2.572   7.144   4.001  0.3266 -0.6682  0.6902
13066SOL    HW151671   2.658   7.177   4.040 -0.1093  0.4396  0.7291
13066SOL    HW251672   2.510   7.119   4.075 -0.1632  0.5582  0.6969
13067SOL     OW51673   8.558   2.786   6.163 -0.2508 -0.3004  0.0185
13067SOL    HW151674   8.572   2.715   6.232  0.6688  1.6854  1.9402
13067SOL    HW251675   8.629   2.777   6.092  0.1161 -1.0182  0.4652
13068SOL     OW51676   8.570   5.824   5.821  0.1726 -0.1685 -0.0619
13068SOL    HW151677   8.583   5.736   5.866  1.4187 -0.4050 -0.8630
13068SOL    HW251678   8.532   5.889   5.886  0.7812 -0.8498  0.9884
13069SOL     OW51679   6.106   6.919   7.030 -0.2633 -0.2912 -0.3353
13069SOL    HW151680   6.119   6.887   6.936 -0.6185  1.5044 -1.0182
13069SOL    HW251681   6.118   6.843   7.094  1.6843 -1.1692 -1.7159
13070SOL     OW51682   0.553   3.873   2.925 -0.2823 -0.2028  0.2043
13070SOL    HW151683   0.558   3.779   2.891  1.9842  0.2754 -0.9057
13070SOL    HW251684   0.467   3.915   2.895 -0.9198 -1.6380 -0.0094
13071SOL     OW51685   4.547   1.524   8.609  0.1455 -0.5664 -0.0147
13071SOL    HW151686   4.631   1.567   8.576  0.1275 -1.0624 -0.7234
13071SOL    HW251687   4.499   1.588   8.669  1.5744 -0.6902  1.2957
13072SOL     OW51688   3.501   5.503   0.761 -0.2452 -0.4113  0.0296
13072SOL    HW151689   3.488   5.437   0.688  1.8541  1.5411 -2.2034
13072SOL    HW251690   3.510   5.455   0.849 -1.8427 -2.8448 -1.0991
13073SOL     OW51691   0.806   4.058   5.512  0.5205  0.1588 -0.3529
13073SOL    HW151692   0.708   4.039   5.504  1.0693 -2.6728 -0.8751
13073SOL    HW251693   0.821   4.157   5.510 -2.2802  0.6207 -0.6719
13074SOL     OW51694   2.450   7.041   3.167  0.1288 -0.1462  0.1236
13074SOL    HW151695   2.454   6.942   3.152 -1.2475 -0.2161  0.1208
13074SOL    HW251696   2.485   7.088   3.086  0.3153 -0.6261 -0.0776
13075SOL     OW51697   1.583   4.270   3.058  0.5241 -0.5056 -0.9239
13075SOL    HW151698   1.550   4.300   3.147 -1.4329 -1.0346 -1.4431
13075SOL    HW251699   1.557   4.336   2.988 -0.3556 -1.4290 -1.4917
13076SOL     OW51700   1.387   7.782   7.570 -0.4647 -0.3262  0.2804
13076SOL    HW151701   1.336   7.813   7.651 -1.7463  0.8322 -0.9479
13076SOL    HW251702   1.456   7.851   7.547  2.5439 -2.4175  2.6307
13077SOL     OW51703   3.618   2.978   7.402 -0.2068  0.9054  0.1066
13077SOL    HW151704   3.573   2.911   7.343 -0.3504  1.6811 -0.6857
13077SOL    HW251705   3.699   2.936   7.443  0.0975  0.4458 -0.9276
13078SOL     OW51706   6.586   3.020   7.460 -0.4489 -0.1687 -0.7001
13078SOL    HW151707   6.571   3.109   7.418 -0.3647 -1.1020 -2.8132
13078SOL    HW251708   6.683   2.999   7.459 -0.2989  0.4087  1.2890
13079SOL     OW51709   4.251   0.721   1.790 -0.1464 -0.8370 -0.6128
13079SOL    HW151710   4.273   0.717   1.692  0.9918 -1.0668 -0.3499
13079SOL    HW251711   4.329   0.690   1.843  0.5485  2.6129  0.5339
13080SOL     OW51712   5.564   4.908   4.715  0.3189 -0.5601 -0.2750
13080SOL    HW151713   5.581   4.981   4.649 -0.6238 -1.3085 -1.3771
13080SOL    HW251714   5.633   4.836   4.704  0.4985 -0.4203 -0.0579
13081SOL     OW51715   7.617   8.319   1.877  0.0163  0.6143 -0.3534
13081SOL    HW151716   7.532   8.312   1.929  0.8940 -0.3803  0.9768
13081SOL    HW251717   7.668   8.234   1.886  1.7864  1.6949 -0.0444
13082SOL     OW51718   2.391   2.465   4.322  0.0452 -0.4603 -0.9011
13082SOL    HW151719   2.408   2.372   4.289 -1.2454 -0.8960 -0.3936
13082SOL    HW251720   2.348   2.460   4.412 -1.6000  0.5911 -1.6176
13083SOL     OW51721   1.315   3.159   5.774  0.0317 -0.0700 -0.5558
13083SOL    HW151722   1.365   3.197   5.697  1.5205 -1.9730 -0.5548
13083SOL    HW251723   1.273   3.072   5.747 -2.1858  0.8314 -0.1581
13084SOL     OW51724   3.262   6.371   5.564  0.1629  0.7628  0.2602
13084SOL    HW151725   3.218   6.458   5.544 -1.6706 -0.2845 -0.4228
13084SOL    HW251726   3.330   6.383   5.636 -2.1834  2.2128  2.3048
13085SOL     OW51727   3.241   3.490   1.281  0.1769  0.0841 -0.1125
13085SOL    HW151728   3.229   3.481   1.182 -0.8109 -1.6523  0.1424
13085SOL    HW251729   3.249   3.400   1.322  2.7649  0.8600  1.1623
13086SOL     OW51730   8.943   8.823   0.059 -0.2652 -0.3351 -0.2104
13086SOL    HW151731   9.031   8.775   0.053  0.1650  0.2868  0.9192
13086SOL    HW251732   8.869   8.759   0.039  0.1613 -2.0539  3.3112
13087SOL     OW51733   3.682   7.327   4.360 -0.2427 -0.2499  0.4214
13087SOL    HW151734   3.612   7.317   4.431 -1.5894 -2.1400 -1.0877
13087SOL    HW251735   3.644   7.381   4.285  0.4918  0.1183  0.3180
13088SOL     OW51736   1.224   1.774   3.640 -0.3451 -0.5722 -0.3948
13088SOL    HW151737   1.193   1.688   3.682 -4.9860  1.9281  1.6697
13088SOL    HW251738   1.189   1.780   3.547  0.3649 -1.0712 -0.7011
13089SOL     OW51739   0.678   4.779   3.627  0.1109 -0.3077  0.3647
13089SOL    HW151740   0.601   4.764   3.689  1.3166 -1.3412  1.6570
13089SOL    HW251741   0.736   4.853   3.663 -0.1276  0.2734 -0.4477
13090SOL     OW51742   8.213   7.805   3.989  0.3020 -0.0572 -0.3030
13090SOL    HW151743   8.225   7.899   3.957 -3.0948  0.3296 -0.6033
13090SOL    HW251744   8.146   7.759   3.931 -0.8569 -1.4656  2.0827
13091SOL     OW51745   2.137   2.026   5.790 -0.2730 -0.0682  0.2170
13091SOL    HW151746   2.073   1.960   5.752 -0.2912  0.5473 -0.8213
13091SOL    HW251747   2.100   2.118   5.782  0.8126  0.3113 -0.5467
13092SOL     OW51748   3.663   0.479   5.649  0.4303  0.3240 -0.0337
13092SOL    HW151749   3.605   0.447   5.574  1.6076 -1.3605 -0.2445
13092SOL    HW251750   3.724   0.551   5.615  1.2990 -0.7746 -0.8322
13093SOL     OW51751   3.619   1.970   8.257  0.6214  0.4769 -0.2396
13093SOL    HW151752   3.673   2.029   8.198 -0.5430  0.0850 -1.7348
13093SOL    HW251753   3.525   1.964   8.221  0.1338 -0.4694  1.1552
13094SOL     OW51754   1.726   5.240   7.051  0.6949  0.3482  0.0408
13094SOL    HW151755   1.785   5.213   6.975  1.3769  1.5267  0.1291
13094SOL    HW251756   1.706   5.338   7.043 -1.8508 -0.1699 -0.3961
13095SOL     OW51757   1.353   1.244   1.794 -0.2244 -0.3773  0.5415
13095SOL    HW151758   1.438   1.257   1.743 -0.4752  1.4150  0.5372
13095SOL    HW251759   1.373   1.235   1.891  0.1114 -1.9949  0.3398
13096SOL     OW51760   5.210   2.228   7.438  0.2816  0.3881  0.2516
13096SOL    HW151761   5.127   2.173   7.438 -0.0282  0.8028 -1.9472
13096SOL    HW251762   5.289   2.171   7.459 -0.3600 -0.3363  0.6942
13097SOL     OW51763   3.841   2.937   7.601 -0.0221  0.6621  0.6113
13097SOL    HW151764   3.907   2.896   7.537 -0.6877  1.7986 -0.8207
13097SOL    HW251765   3.890   2.998   7.664  0.5880 -0.1849  0.9717
13098SOL     OW51766   8.526   4.198   8.133  0.2148 -0.5765 -0.3260
13098SOL    HW151767   8.491   4.255   8.207  0.3300 -0.7167 -0.1644
13098SOL    HW251768   8.621   4.222   8.114  0.0846 -0.3110 -0.6538
13099SOL     OW51769   1.990   0.763   5.667  0.1012 -0.1158 -0.2078
13099SOL    HW151770   1.982   0.678   5.615  2.0633 -0.3617 -0.1282
13099SOL    HW251771   2.043   0.748   5.750 -2.4945  0.4237  1.6213
13100SOL     OW51772   1.197   3.435   1.497  0.1337 -0.2297 -0.6818
13100SOL    HW151773   1.201   3.397   1.405  1.4840 -0.2048 -0.6422
13100SOL    HW251774   1.289   3.438   1.536 -0.4733 -0.5756  0.8030
13101SOL     OW51775   6.729   6.194   8.305  0.3371 -0.4333 -0.0438
13101SOL    HW151776   6.636   6.192   8.343  0.3907 -0.2315  0.1005
13101SOL    HW251777   6.765   6.287   8.312  0.0758 -0.2257 -1.2504
13102SOL     OW51778   1.151   8.367   8.460 -0.4289  0.7430 -0.0629
13102SOL    HW151779   1.099   8.286   8.486  0.2746  0.3131  0.0410
13102SOL    HW251780   1.091   8.446   8.452 -1.4456 -0.1832 -1.9903
13103SOL     OW51781   5.205   6.894   7.140 -0.6158 -0.1022  0.3148
13103SOL    HW151782   5.224   6.804   7.179  0.9602  0.2657  0.4245
13103SOL    HW251783   5.237   6.897   7.046 -1.9997 -0.1196 -0.1704
13104SOL     OW51784   2.831   4.179   1.996  0.3262 -0.4241 -0.9353
13104SOL    HW151785   2.794   4.126   2.073  0.6955  1.7662  0.7933
13104SOL    HW251786   2.905   4.127   1.953  0.5010 -1.4477  0.5430
13105SOL     OW51787   7.268   8.312   8.878  0.1734  0.1063  0.0964
13105SOL    HW151788   7.326   8.300   8.958  0.1526 -1.3904 -0.0869
13105SOL    HW251789   7.209   8.391   8.890  2.2178  1.6498  0.2956
13106SOL     OW51790   4.902   7.044   1.836  0.3772  0.9634 -0.2947
13106SOL    HW151791   4.984   7.037   1.778 -0.6499 -1.5350 -1.5108
13106SOL    HW251792   4.904   6.972   1.905 -0.7633  0.8987 -0.3247
13107SOL     OW51793   5.827   6.444   6.061  0.0475  0.2797 -0.5791
13107SOL    HW151794   5.871   6.424   5.973  0.9809  1.6506 -0.4413
13107SOL    HW251795   5.838   6.365   6.122 -1.0109 -0.8653 -1.8208
13108SOL     OW51796   4.759   7.867   4.058  0.1099 -0.0418  0.9506
13108SOL    HW151797   4.800   7.854   4.148 -1.7815 -1.4371  1.6398
13108SOL    HW251798   4.667   7.830   4.057  0.2482 -0.4480 -1.7029
13109SOL     OW51799   0.934   1.242   8.799 -0.2008 -0.4947 -0.4111
13109SOL    HW151800   0.992   1.311   8.843  0.6122 -2.5640  1.8288
13109SOL    HW251801   0.841   1.277   8.791  0.0092  0.5343  1.4649
13110SOL     OW51802   2.882   8.068   6.425 -0.1717  0.1783  0.2820
13110SOL    HW151803   2.898   8.005   6.349  0.6685  0.6048  0.1059
13110SOL    HW251804   2.929   8.035   6.506 -2.0372 -0.9088  0.9497
13111SOL     OW51805   8.368   1.590   4.340  0.5613  0.2097  0.3437
13111SOL    HW151806   8.292   1.575   4.278 -1.4021  4.0533  1.6840
13111SOL    HW251807   8.342   1.559   4.432  1.6003 -0.8356  0.2958
13112SOL     OW51808   5.392   2.914   8.709 -0.2072  0.4207  0.3708
13112SOL    HW151809   5.357   2.855   8.781 -0.1515  1.0379  0.9065
13112SOL    HW251810   5.484   2.944   8.733  0.0702  0.0934 -0.2733
13113SOL     OW51811   1.127   8.920   0.539  0.0528  0.8472  0.2015
13113SOL    HW151812   1.218   8.942   0.503 -0.3139  0.0853 -1.2223
13113SOL    HW251813   1.098   8.992   0.602  1.1810  1.6427 -0.1674
13114SOL     OW51814   2.662   8.664   0.832 -0.0310  0.2330 -0.0987
13114SOL    HW151815   2.587   8.622   0.882 -1.4086  0.6242 -1.7861
13114SOL    HW251816   2.630   8.695   0.743  1.7623  1.8030 -0.2483
13115SOL     OW51817   0.433   5.724   1.807 -0.5226 -0.3059 -0.1368
13115SOL    HW151818   0.358   5.749   1.745  0.8405 -1.1797 -2.1895
13115SOL    HW251819   0.518   5.768   1.776 -0.4220  1.8270  2.9756
13116SOL     OW51820   0.177   3.372   3.678 -0.0296 -0.4541 -0.2728
13116SOL    HW151821   0.249   3.312   3.715  0.1958 -0.5581 -0.8651
13116SOL    HW251822   0.153   3.341   3.586  0.9999  1.1307 -1.0939
13117SOL     OW51823   8.524   8.388   0.863  0.0227  0.2848 -0.2835
13117SOL    HW151824   8.581   8.377   0.782  0.9317 -2.5405  0.7061
13117SOL    HW251825   8.572   8.443   0.931  0.7362 -0.3801 -0.2524
13118SOL     OW51826   5.562   5.997   5.613 -0.2630  0.4645 -0.4939
13118SOL    HW151827   5.536   5.977   5.519  0.3577  0.5014 -0.6691
13118SOL    HW251828   5.636   5.937   5.642 -1.0437 -0.1422  0.2614
13119SOL     OW51829   0.432   2.525   5.362 -0.2585  0.4286  0.6263
13119SOL    HW151830   0.510   2.494   5.417 -1.4714 -0.5060  1.8261
13119SOL    HW251831   0.371   2.448   5.343 -2.4652  1.7082  2.2707
13120SOL     OW51832   4.452   8.057   0.020  0.0045 -0.6210 -0.3928
13120SOL    HW151833   4.369   8.031  -0.030 -0.4000 -0.0878 -0.0045
13120SOL    HW251834   4.444   8.028   0.115  0.4285 -0.9094 -0.4467
13121SOL     OW51835   4.137   8.097   2.535  0.4050  0.5549 -0.6951
13121SOL    HW151836   4.177   8.011   2.504  1.3925  0.7796 -0.0780
13121SOL    HW251837   4.199   8.141   2.600  0.6337  2.4578 -2.1162
13122SOL     OW51838   1.858   1.123   7.408 -0.9027  0.0437  0.0164
13122SOL    HW151839   1.894   1.031   7.388 -0.5311  0.1587  0.1547
13122SOL    HW251840   1.819   1.162   7.325  1.6420  0.9789 -0.7617
13123SOL     OW51841   3.606   5.179   5.573  0.5524  0.2113  0.0967
13123SOL    HW151842   3.542   5.179   5.496 -1.4398  0.4562  1.6868
13123SOL    HW251843   3.699   5.193   5.540 -0.4279  1.7812 -2.1162
13124SOL     OW51844   5.254   4.560   3.209 -0.0803 -0.1717 -0.5300
13124SOL    HW151845   5.318   4.628   3.245  0.9593 -1.0593 -0.6566
13124SOL    HW251846   5.236   4.491   3.280 -2.3001  1.0313  0.1035
13125SOL     OW51847   5.413   4.167   7.629 -0.4362  0.7297 -0.6898
13125SOL    HW151848   5.321   4.130   7.624 -1.6774  3.4906  0.9186
13125SOL    HW251849   5.439   4.205   7.540 -0.2320 -1.3783 -1.5566
13126SOL     OW51850   1.059   3.717   2.395 -0.1240  0.4030 -0.4304
13126SOL    HW151851   1.026   3.800   2.351  2.0943  0.9406 -1.1612
13126SOL    HW251852   1.057   3.641   2.330  1.3957  0.7680 -0.9191
13127SOL     OW51853   7.120   4.575   7.008  0.2333  0.2649  0.1366
13127SOL    HW151854   7.190   4.646   7.016  0.3144  0.1974  0.0256
13127SOL    HW251855   7.136   4.504   7.076 -1.4032  1.6864  2.0535
13128SOL     OW51856   8.476   8.529   8.425  0.0107 -0.1378 -0.3628
13128SOL    HW151857   8.384   8.568   8.431 -0.1409 -0.5851  0.2434
13128SOL    HW251858   8.511   8.511   8.517  0.3016 -0.9035 -0.6139
13129SOL     OW51859   6.829   0.055   1.538  0.2761  0.6297  0.3575
13129SOL    HW151860   6.731   0.043   1.519  0.7109 -2.4717 -0.1849
13129SOL    HW251861   6.862   0.138   1.492 -1.6839  0.7014 -0.9860
13130SOL     OW51862   1.376   5.576   8.851  0.0898  0.3482  0.1854
13130SOL    HW151863   1.279   5.597   8.834  0.5644  0.3941 -2.8020
13130SOL    HW251864   1.392   5.570   8.949 -3.2480 -1.0881  0.7178
13131SOL     OW51865   7.793   5.876   0.732 -0.6286 -0.5841 -0.2606
13131SOL    HW151866   7.744   5.839   0.811 -1.5380 -2.0449 -1.4743
13131SOL    HW251867   7.747   5.847   0.648 -0.6758  2.3490 -1.3197
13132SOL     OW51868   4.992   1.358   2.478  0.6119 -0.1252  0.0550
13132SOL    HW151869   4.998   1.289   2.406  0.6714  1.1939 -1.2276
13132SOL    HW251870   4.973   1.313   2.565  0.2496 -1.7179 -0.8176
13133SOL     OW51871   1.843   0.320   3.953 -0.4173  0.4329 -0.2307
13133SOL    HW151872   1.913   0.256   3.986 -0.3046  0.6241 -0.0959
13133SOL    HW251873   1.866   0.413   3.982 -1.2825  0.3602  0.7087
13134SOL     OW51874   4.428   5.615   8.124 -0.1055  0.3189  0.5602
13134SOL    HW151875   4.372   5.539   8.158 -0.6774 -0.0741 -1.2128
13134SOL    HW251876   4.524   5.587   8.122 -0.4298 -0.7889 -1.1399
13135SOL     OW51877   0.612   0.465   7.901  0.2902  0.3198  0.2569
13135SOL    HW151878   0.574   0.557   7.892 -1.6657 -0.5181 -0.3978
13135SOL    HW251879   0.652   0.437   7.814 -0.2798  0.0711  0.0693
13136SOL     OW51880   5.584   1.146   8.204 -0.2965  0.7691  0.1943
13136SOL    HW151881   5.568   1.230   8.255 -3.9444  1.1845 -1.4837
13136SOL    HW251882   5.542   1.069   8.253 -0.2922  0.5318 -0.1719
13137SOL     OW51883   4.596   8.927   7.237  0.0055 -0.7435  0.1459
13137SOL    HW151884   4.586   8.977   7.323  0.9522  2.3899 -1.4989
13137SOL    HW251885   4.693   8.913   7.217 -0.1479  0.2074 -1.3145
13138SOL     OW51886   2.767   6.831   8.494  0.2457 -0.0599  0.4110
13138SOL    HW151887   2.865   6.835   8.476  0.2448  2.0965  0.7356
13138SOL    HW251888   2.728   6.748   8.453  1.9378 -0.1944 -0.9392
13139SOL     OW51889   1.183   0.566   1.366 -0.5903  0.5573  0.3256
13139SOL    HW151890   1.095   0.541   1.406 -1.3480  1.2237 -0.8974
13139SOL    HW251891   1.174   0.652   1.317  0.4656  0.0641 -0.7511
13140SOL     OW51892   2.642   5.752   3.477  0.9790  0.5332  0.0147
13140SOL    HW151893   2.678   5.736   3.569 -2.1170  2.1327  1.5667
13140SOL    HW251894   2.706   5.809   3.426  2.9091 -0.6753  1.0146
13141SOL     OW51895   1.837   3.511   7.969 -0.1591  0.4567  0.6266
13141SOL    HW151896   1.922   3.549   7.934  0.1725 -0.0015  0.9325
13141SOL    HW251897   1.778   3.484   7.893  1.5237 -2.7331  0.3901
13142SOL     OW51898   8.877   1.490   8.706  0.6787  0.1040  0.5301
13142SOL    HW151899   8.815   1.505   8.783  0.9445  2.1105  0.3914
13142SOL    HW251900   8.826   1.502   8.621  1.2352  1.8082  0.4155
13143SOL     OW51901   6.696   2.115   6.505 -0.5004 -0.0967 -0.3609
13143SOL    HW151902   6.770   2.064   6.462  1.1983  1.8388  0.1226
13143SOL    HW251903   6.672   2.194   6.448  0.3169  1.2937  1.1677
13144SOL     OW51904   0.757   7.829   6.681 -0.2024  0.5082 -0.9511
13144SOL    HW151905   0.810   7.832   6.597 -0.0370 -0.3822 -0.8832
13144SOL    HW251906   0.805   7.879   6.753  0.9195 -0.9253 -0.6876
13145SOL     OW51907   2.635   7.478   8.806 -0.8487  0.5054  1.2730
13145SOL    HW151908   2.707   7.418   8.771 -1.7690  0.5158 -0.6660
13145SOL    HW251909   2.677   7.563   8.838 -0.2077  1.7802 -2.6517
13146SOL     OW51910   5.120   4.001   5.257 -0.9140  0.0421 -0.4865
13146SOL    HW151911   5.117   3.988   5.356 -0.5538  0.0884 -0.4703
13146SOL    HW251912   5.214   4.017   5.228 -0.8200 -1.4080 -1.0135
13147SOL     OW51913   6.636   3.911   1.643  0.5855  0.4008 -0.9473
13147SOL    HW151914   6.630   3.882   1.739  1.1665  1.7359 -0.5028
13147SOL    HW251915   6.711   3.976   1.632 -0.1655  1.0891 -2.1085
13148SOL     OW51916   6.159   0.085   8.293 -0.8187 -0.3445 -0.0264
13148SOL    HW151917   6.079   0.146   8.299  0.0301  0.7796  0.0308
13148SOL    HW251918   6.155   0.034   8.208  0.0731  2.1129 -1.6048
13149SOL     OW51919   1.965   0.620   8.637  0.1086  0.4328  0.1140
13149SOL    HW151920   2.059   0.630   8.604  0.7089 -1.2454  1.2921
13149SOL    HW251921   1.951   0.677   8.718  0.7296 -0.8784  1.1592
13150SOL     OW51922   2.060   8.010   0.175 -0.2932  0.0158  0.1113
13150SOL    HW151923   2.130   7.992   0.107 -0.8218 -0.2315 -0.3774
13150SOL    HW251924   1.981   7.951   0.158 -0.8389  0.6806  0.3160
13151SOL     OW51925   5.962   6.352   0.554  0.3569 -0.5818  0.4269
13151SOL    HW151926   5.995   6.388   0.467  0.3203  0.8810  1.0083
13151SOL    HW251927   5.913   6.266   0.538  1.5743 -1.0577 -0.8158
13152SOL     OW51928   6.424   7.688   8.329  0.2723  0.7908  0.0211
13152SOL    HW151929   6.469   7.636   8.401  1.7135 -1.3338 -2.3398
13152SOL    HW251930   6.464   7.780   8.325  1.6408  0.2307  0.5266
13153SOL     OW51931   0.511   1.638   6.022 -0.1587 -0.2003  0.6143
13153SOL    HW151932   0.610   1.645   6.014 -0.4486  1.9729 -1.9282
13153SOL    HW251933   0.475   1.590   5.942 -1.1928 -0.6743  1.3585
13154SOL     OW51934   4.033   8.090   3.469 -0.3199 -0.1952  0.3288
13154SOL    HW151935   4.050   8.123   3.562  0.6941 -1.9460  0.7982
13154SOL    HW251936   3.964   8.018   3.472 -0.3434 -0.1956 -0.2828
13155SOL     OW51937   1.888   6.440   3.936 -0.0178  0.2510 -0.6527
13155SOL    HW151938   1.810   6.476   3.884  1.0062  1.0740 -1.6379
13155SOL    HW251939   1.923   6.358   3.890 -1.4820 -1.2651  0.8411
13156SOL     OW51940   3.043   5.278   7.524 -0.6602  0.3019  0.2293
13156SOL    HW151941   3.039   5.267   7.623 -0.3443 -0.0821  0.2050
13156SOL    HW251942   3.100   5.205   7.485 -2.5215 -0.8405 -0.4514
13157SOL     OW51943   6.506   0.461   8.475  0.3124 -0.2805  0.1013
13157SOL    HW151944   6.493   0.362   8.479 -0.8072 -0.0581  3.0644
13157SOL    HW251945   6.419   0.507   8.490  1.1454  1.1486  0.6525
13158SOL     OW51946   7.162   6.391   1.458  0.0703  0.4594  0.0678
13158SOL    HW151947   7.256   6.411   1.430  0.4232  0.1833  1.0379
13158SOL    HW251948   7.123   6.321   1.398  0.2523  1.0493 -0.7467
13159SOL     OW51949   5.000   1.155   0.035  0.3227  0.3795 -0.9476
13159SOL    HW151950   4.955   1.129   0.120  2.6695 -0.3736  0.1200
13159SOL    HW251951   5.021   1.252   0.037  0.6541  0.3020 -0.5138
13160SOL     OW51952   5.530   1.646   0.543  0.5237  0.2703  0.5854
13160SOL    HW151953   5.503   1.559   0.583 -1.8460  1.0625  0.8121
13160SOL    HW251954   5.457   1.680   0.483  1.8509  1.5920 -0.3348
13161SOL     OW51955   2.813   7.682   3.915 -0.0728  0.0699 -0.3135
13161SOL    HW151956   2.900   7.722   3.888 -0.0965 -0.2782 -0.9255
13161SOL    HW251957   2.743   7.753   3.916  0.1941  0.3290  0.0683
13162SOL     OW51958   5.551   2.173   6.376  0.1625 -0.1130  0.3507
13162SOL    HW151959   5.629   2.149   6.434  1.6021  2.0814 -0.6147
13162SOL    HW251960   5.474   2.201   6.433  1.2953  1.2330  1.2399
13163SOL     OW51961   1.485   3.200   6.249 -0.4565 -0.0161  0.2441
13163SOL    HW151962   1.584   3.201   6.263 -0.2861  0.5939 -0.9597
13163SOL    HW251963   1.464   3.158   6.161 -1.2106  0.6756  0.0860
13164SOL     OW51964   4.657   2.946   7.793 -0.6319  0.1667 -0.5115
13164SOL    HW151965   4.680   2.859   7.837 -1.8933 -0.0125 -0.1847
13164SOL    HW251966   4.636   3.014   7.862 -1.0948  0.3195 -0.7992
13165SOL     OW51967   2.974   1.763   5.761  0.3112  0.5725  0.4846
13165SOL    HW151968   3.020   1.721   5.683  0.3203  2.1075 -0.3633
13165SOL    HW251969   2.887   1.802   5.732  1.1324  2.7653  0.7963
13166SOL     OW51970   1.696   2.908   7.388 -0.2567 -0.6180 -0.0624
13166SOL    HW151971   1.776   2.852   7.408 -0.5432 -1.2512 -0.6770
13166SOL    HW251972   1.726   2.995   7.346  0.0107 -1.7748 -2.3834
13167SOL     OW51973   2.022   7.375   8.449 -0.4310  0.5139 -0.3566
13167SOL    HW151974   2.102   7.317   8.430 -0.4411  0.0972  0.7828
13167SOL    HW251975   1.943   7.341   8.398  0.0475  0.7576 -1.2712
13168SOL     OW51976   5.106   3.148   7.932  0.4704 -0.4139  0.0373
13168SOL    HW151977   5.032   3.103   7.982  1.6962 -0.5354  1.8160
13168SOL    HW251978   5.071   3.231   7.889 -0.5076  0.0746  1.6963
13169SOL     OW51979   1.409   1.447   7.243 -0.0076  0.2669 -0.8185
13169SOL    HW151980   1.465   1.529   7.233 -0.7894  0.9415  0.1617
13169SOL    HW251981   1.384   1.412   7.152  1.6314  0.1988 -1.2517
13170SOL     OW51982   3.490   4.926   6.231 -0.4425  0.2835  0.6974
13170SOL    HW151983   3.527   4.926   6.324  1.2055 -0.4745  0.0568
13170SOL    HW251984   3.430   4.847   6.219  1.7693 -1.3818  0.2080
13171SOL     OW51985   1.608   5.118   0.814  0.1889  0.3400 -0.0098
13171SOL    HW151986   1.515   5.128   0.778  0.5471  1.5061 -0.6671
13171SOL    HW251987   1.670   5.095   0.739  0.1426 -2.4320  0.7433
13172SOL     OW51988   4.672   5.475   4.783 -0.6822 -0.0600 -0.6889
13172SOL    HW151989   4.617   5.449   4.862  2.6938 -1.3658  1.3806
13172SOL    HW251990   4.687   5.395   4.725  0.3985 -0.1338 -0.3236
13173SOL     OW51991   4.931   8.784   6.366 -0.2165 -0.2864 -0.6920
13173SOL    HW151992   4.919   8.686   6.353  1.5523 -0.7085  0.7625
13173SOL    HW251993   5.024   8.810   6.337  0.6063  0.3070  2.3609
13174SOL     OW51994   7.594   5.823   7.291 -0.0162  0.7146 -0.4353
13174SOL    HW151995   7.677   5.860   7.334  0.3599  0.9336 -1.3486
13174SOL    HW251996   7.539   5.898   7.254 -0.2590  0.5089 -0.4928
13175SOL     OW51997   5.091   6.245   1.049 -0.2242 -0.5398 -0.5130
13175SOL    HW151998   5.141   6.311   1.104 -1.4196 -1.2572  1.5139
13175SOL    HW251999   5.107   6.262   0.952  0.2614  2.0809  0.0043
13176SOL     OW52000   5.183   4.975   4.646 -0.5500 -0.7160  0.1250
13176SOL    HW152001   5.217   5.067   4.668 -3.5815  0.4821  0.0617
13176SOL    HW252002   5.260   4.911   4.642  1.9898  2.3231 -2.5058
13177SOL     OW52003   8.637   6.192   0.474 -0.3472 -0.3543 -0.4085
13177SOL    HW152004   8.674   6.225   0.561  0.7342 -0.3154 -0.8737
13177SOL    HW252005   8.683   6.106   0.449 -2.7886 -1.9991  0.5487
13178SOL     OW52006   3.335   6.311   2.769  0.2757 -0.0199 -0.1359
13178SOL    HW152007   3.286   6.399   2.763  0.0843 -0.0620  0.8386
13178SOL    HW252008   3.292   6.246   2.706 -2.1537 -0.6292  2.0590
13179SOL     OW52009   7.370   3.761   0.274 -0.1326  0.1315 -0.8972
13179SOL    HW152010   7.345   3.834   0.338  1.0020  0.1028 -0.3958
13179SOL    HW252011   7.419   3.689   0.324  0.5483 -0.0055 -1.7596
13180SOL     OW52012   3.729   0.079   7.983 -0.4078 -0.1986 -0.4227
13180SOL    HW152013   3.659   0.009   7.999  0.1161 -0.8261 -0.8352
13180SOL    HW252014   3.819   0.039   8.000 -0.2451  1.2831  2.5517
13181SOL     OW52015   7.627   7.834   8.639  0.3826 -0.3419 -0.6075
13181SOL    HW152016   7.572   7.751   8.626 -1.3198  0.8689 -1.2373
13181SOL    HW252017   7.572   7.904   8.685  1.8290  0.4171 -0.0199
13182SOL     OW52018   1.435   8.116   6.690  0.3158 -0.5282  0.3965
13182SOL    HW152019   1.468   8.055   6.762  0.5117 -1.5845 -0.5899
13182SOL    HW252020   1.443   8.071   6.601 -1.4085  0.1670 -0.1254
13183SOL     OW52021   5.703   6.944   7.047 -0.0256 -0.5840  0.1779
13183SOL    HW152022   5.671   7.026   7.000 -1.1536 -0.0425  1.8568
13183SOL    HW252023   5.655   6.864   7.011  1.8414 -0.6819 -2.2145
13184SOL     OW52024   6.177   5.564   5.234 -0.2803 -0.1293  0.1462
13184SOL    HW152025   6.143   5.540   5.143  0.1590  0.1117 -0.0834
13184SOL    HW252026   6.135   5.505   5.303  0.4551 -1.2371 -0.3627
13185SOL     OW52027   2.550   4.519   7.376  0.3428 -0.4930  0.9468
13185SOL    HW152028   2.496   4.593   7.338  0.2430 -1.3927 -0.6987
13185SOL    HW252029   2.618   4.556   7.440  0.5802  1.0438 -0.1694
13186SOL     OW52030   3.415   4.435   0.551  0.4553 -0.1800 -0.4655
13186SOL    HW152031   3.368   4.447   0.639  0.2004 -0.3403 -0.5815
13186SOL    HW252032   3.502   4.485   0.554  0.0486  0.5358 -0.4320
13187SOL     OW52033   4.028   2.933   5.016  0.2704 -0.0805  0.1207
13187SOL    HW152034   4.075   2.894   5.095 -0.6511  0.8141  1.1352
13187SOL    HW252035   3.930   2.913   5.022  0.0514  0.8372 -0.2880
13188SOL     OW52036   3.623   0.909   0.046  0.3541 -0.1416  0.5136
13188SOL    HW152037   3.633   0.972  -0.030 -0.2745 -0.6635 -0.0093
13188SOL    HW252038   3.552   0.943   0.108  0.6168  0.1031  0.6790
13189SOL     OW52039   8.852   7.916   5.096 -0.0469  0.4526  0.1657
13189SOL    HW152040   8.861   8.010   5.130  1.3670  0.3425  0.1321
13189SOL    HW252041   8.755   7.890   5.096 -0.5019  2.0481 -0.1996
13190SOL     OW52042   6.313   7.577   2.034  0.2652  0.2679  0.3584
13190SOL    HW152043   6.260   7.493   2.044  0.5655 -0.1083 -1.1032
13190SOL    HW252044   6.410   7.556   2.047  0.3583  0.3497 -0.1980
13191SOL     OW52045   3.884   0.850   6.379 -0.2138 -0.7055  0.7871
13191SOL    HW152046   3.885   0.850   6.279  0.4604 -2.0592  0.7806
13191SOL    HW252047   3.789   0.849   6.412 -0.4294 -1.1629  0.1553
13192SOL     OW52048   2.480   0.759   2.142 -0.4119  0.0703 -0.1972
13192SOL    HW152049   2.508   0.737   2.049  2.8641  1.2310  0.4631
13192SOL    HW252050   2.521   0.695   2.206 -0.0188  1.2159  0.7296
13193SOL     OW52051   1.964   2.893   3.067 -0.6334  0.3344 -0.2227
13193SOL    HW152052   1.994   2.918   2.975  1.0415 -1.4232 -0.1779
13193SOL    HW252053   1.873   2.852   3.062  0.8937 -3.0697 -1.6009
13194SOL     OW52054   0.801   8.765   4.434 -0.0054  0.0379 -0.2500
13194SOL    HW152055   0.789   8.828   4.357  0.1739 -0.4510 -0.6772
13194SOL    HW252056   0.853   8.685   4.404  0.5094  0.0835  0.5014
13195SOL     OW52057   3.981   1.731   1.597 -0.1250  0.2217  0.0076
13195SOL    HW152058   3.891   1.731   1.641 -0.5133 -3.0185 -0.7202
13195SOL    HW252059   3.977   1.788   1.515 -0.9676  1.6378  0.9949
13196SOL     OW52060   1.575   0.477   5.824 -0.8051  0.7015 -0.4570
13196SOL    HW152061   1.575   0.424   5.909 -2.7762  1.3371 -0.0221
13196SOL    HW252062   1.508   0.437   5.760 -0.5796  1.2549 -1.0459
13197SOL     OW52063   3.581   0.711   7.289 -0.0234 -0.2849  0.4559
13197SOL    HW152064   3.634   0.786   7.328 -0.1885 -0.1688  0.4566
13197SOL    HW252065   3.508   0.748   7.231 -0.1219 -0.4430  0.4784
13198SOL     OW52066   7.448   8.842   6.150 -0.3794  0.2534  0.1402
13198SOL    HW152067   7.542   8.841   6.117 -0.0363 -0.2807  1.1303
13198SOL    HW252068   7.387   8.807   6.078  0.2476  0.0182 -0.2786
13199SOL     OW52069   1.707   3.378   7.052 -0.3113 -0.2540  0.1437
13199SOL    HW152070   1.618   3.378   7.008 -0.2889  0.4679  0.0752
13199SOL    HW252071   1.772   3.326   6.997  0.0621  1.8263 -1.4436
13200SOL     OW52072   5.006   6.017   1.223  0.1457 -0.0216  0.3592
13200SOL    HW152073   5.077   5.947   1.230  0.9354  0.7764  0.5550
13200SOL    HW252074   5.049   6.105   1.203 -0.6289  0.8050  2.1988
13201SOL     OW52075   2.951   7.038   5.848 -0.2215 -0.3170 -0.5361
13201SOL    HW152076   2.959   7.049   5.749  1.3347 -0.0430 -0.3864
13201SOL    HW252077   2.950   6.940   5.871  1.2482 -0.3677 -0.6803
13202SOL     OW52078   7.085   5.120   8.152 -0.1053  0.2997 -0.4758
13202SOL    HW152079   7.183   5.104   8.161 -0.2380 -0.1362  0.3020
13202SOL    HW252080   7.037   5.064   8.220 -0.6568  3.4954  1.9052
13203SOL     OW52081   3.106   5.193   7.197 -0.3551  0.2433 -0.1374
13203SOL    HW152082   3.006   5.195   7.185 -0.5949 -1.4175  1.2534
13203SOL    HW252083   3.127   5.186   7.295  1.1000 -1.0442 -0.5311
13204SOL     OW52084   1.249   0.296   0.265  1.2480  0.4140  0.5681
13204SOL    HW152085   1.294   0.322   0.350  0.1098  2.4693  0.5630
13204SOL    HW252086   1.315   0.250   0.204  1.9571 -1.5204  2.7108
13205SOL     OW52087   6.307   2.825   7.698 -0.1930  0.0878 -0.0559
13205SOL    HW152088   6.268   2.748   7.747  0.1011 -0.3933 -0.5690
13205SOL    HW252089   6.365   2.791   7.624 -0.4795  0.7951 -0.6127
13206SOL     OW52090   4.633   4.207   3.946  0.5120 -0.7678  0.5017
13206SOL    HW152091   4.553   4.225   4.003  1.1306  1.4692  0.6952
13206SOL    HW252092   4.603   4.178   3.855 -0.4745 -3.0762  1.5147
13207SOL     OW52093   0.929   2.303   7.125 -0.7080 -0.5064  0.4744
13207SOL    HW152094   0.863   2.246   7.175 -1.2552 -1.7991 -1.6718
13207SOL    HW252095   0.903   2.399   7.133 -3.1253 -1.0304 -0.7124
13208SOL     OW52096   6.244   3.544   4.797 -0.0723 -0.7385 -0.2507
13208SOL    HW152097   6.341   3.568   4.792 -0.5422  1.0363 -1.0329
13208SOL    HW252098   6.231   3.452   4.759  1.1183 -0.4551 -1.3785
13209SOL     OW52099   8.883   3.564   5.820 -0.2011 -0.3442 -0.2281
13209SOL    HW152100   8.980   3.557   5.841  0.0912 -1.4496 -1.8691
13209SOL    HW252101   8.861   3.503   5.744 -1.9592  0.7452 -0.6144
13210SOL     OW52102   5.147   4.056   7.599  0.4688 -0.5066 -0.7692
13210SOL    HW152103   5.061   4.077   7.553  0.2678  1.0037  0.2807
13210SOL    HW252104   5.128   4.010   7.686  0.7375 -0.4862 -0.6985
13211SOL     OW52105   7.112   7.274   0.681  0.5299 -0.0827  0.2041
13211SOL    HW152106   7.191   7.297   0.738  0.2938  0.3231  0.3693
13211SOL    HW252107   7.059   7.357   0.662 -0.1443 -0.4276  0.5364
13212SOL     OW52108   7.571   6.752   2.261  0.1012  0.5586 -0.5687
13212SOL    HW152109   7.573   6.659   2.223  1.2838 -0.1986  1.3265
13212SOL    HW252110   7.664   6.786   2.273 -0.3058  1.6003 -0.2724
13213SOL     OW52111   2.579   3.383   0.552 -0.4580  0.4385  0.2714
13213SOL    HW152112   2.587   3.447   0.628  0.0909  1.3014 -0.4989
13213SOL    HW252113   2.528   3.302   0.581 -1.0082  1.1505  1.3030
13214SOL     OW52114   4.884   1.716   8.237  0.4383  1.3278  0.0051
13214SOL    HW152115   4.879   1.689   8.141 -1.1925  0.0840  0.4198
13214SOL    HW252116   4.979   1.714   8.267  0.7166 -0.7310 -0.9150
13215SOL     OW52117   6.344   2.054   7.313  0.1333  0.2234 -0.2097
13215SOL    HW152118   6.408   2.117   7.356 -0.7107  0.4501  0.7392
13215SOL    HW252119   6.394   1.978   7.272  0.9543 -0.1323  1.4109
13216SOL     OW52120   0.594   3.242   5.506 -0.0208  0.0056 -0.2315
13216SOL    HW152121   0.671   3.187   5.535 -0.5469 -1.1855 -1.0580
13216SOL    HW252122   0.626   3.332   5.476  0.7939  0.2930  1.4801
13217SOL     OW52123   3.482   0.960   5.189  0.8038  0.6867 -0.3580
13217SOL    HW152124   3.389   0.956   5.225  1.6236 -1.6365  1.5894
13217SOL    HW252125   3.536   1.024   5.243  0.8649  0.5533 -0.2622
13218SOL     OW52126   0.074   5.434   5.122  0.8050 -0.3955  0.7082
13218SOL    HW152127   0.163   5.416   5.165  0.5942 -1.3722  0.7474
13218SOL    HW252128   0.086   5.497   5.045  1.5463 -0.6603  0.6049
13219SOL     OW52129   7.172   0.674   6.461 -0.2937 -0.3035 -1.0150
13219SOL    HW152130   7.125   0.756   6.426 -0.1432  0.6122  0.8713
13219SOL    HW252131   7.115   0.594   6.444 -0.5134  0.1975 -2.7541
13220SOL     OW52132   5.053   7.862   8.836  0.4938 -0.3252 -0.4067
13220SOL    HW152133   5.006   7.917   8.906 -0.5326  0.3263 -1.5792
13220SOL    HW252134   4.999   7.862   8.752  2.6317  0.5155 -1.8345
13221SOL     OW52135   1.411   6.941   8.302  0.1617  0.2455  0.3863
13221SOL    HW152136   1.362   7.028   8.301 -0.8392 -0.3161 -0.8382
13221SOL    HW252137   1.347   6.867   8.284  1.2863 -0.6098 -0.1314
13222SOL     OW52138   0.960   8.638   4.837 -0.6740 -0.2450  0.0951
13222SOL    HW152139   0.889   8.665   4.771  0.4018  0.6941 -0.7045
13222SOL    HW252140   0.983   8.717   4.894  0.4168 -0.2536 -0.3134
13223SOL     OW52141   1.015   4.861   2.560 -0.2050  0.2068  0.1237
13223SOL    HW152142   1.108   4.895   2.556 -0.6912  1.4385 -0.7471
13223SOL    HW252143   0.993   4.812   2.475 -1.1084  1.9059 -0.6327
13224SOL     OW52144   0.955   6.373   8.749  0.1681 -0.2167 -0.2042
13224SOL    HW152145   0.874   6.337   8.703  0.8318 -0.9055 -0.8643
13224SOL    HW252146   1.000   6.300   8.800 -0.6744  0.5948  1.7193
13225SOL     OW52147   3.549   0.872   5.492  0.1883 -0.2764 -0.1427
13225SOL    HW152148   3.483   0.811   5.449 -0.5313  1.5631 -1.7185
13225SOL    HW252149   3.509   0.963   5.501  2.5506  0.9257 -1.2739
13226SOL     OW52150   3.193   0.762   6.908 -0.0735 -0.4171  0.0053
13226SOL    HW152151   3.130   0.840   6.913 -0.5824 -0.7574 -0.8656
13226SOL    HW252152   3.161   0.698   6.837  0.1000 -1.6218  0.9901
13227SOL     OW52153   0.601   7.377   4.466  0.4382 -0.1940  0.7409
13227SOL    HW152154   0.615   7.334   4.377 -2.0304 -1.1825  0.7991
13227SOL    HW252155   0.654   7.462   4.470 -0.4806  0.5885 -2.1908
13228SOL     OW52156   6.098   6.511   1.466 -0.7944 -0.4704 -0.3283
13228SOL    HW152157   6.147   6.482   1.383  0.8141  1.2273 -0.0018
13228SOL    HW252158   6.009   6.465   1.470 -0.3730 -1.5153 -2.3588
13229SOL     OW52159   0.419   8.036   0.336 -0.1428  0.5628  0.0420
13229SOL    HW152160   0.345   7.982   0.377 -0.5670  1.7921  0.9014
13229SOL    HW252161   0.507   8.002   0.369 -0.3613 -0.1712 -0.1100
13230SOL     OW52162   7.538   6.902   0.441  0.1210 -0.1685 -0.4673
13230SOL    HW152163   7.587   6.822   0.407 -0.3828 -0.7559  0.1781
13230SOL    HW252164   7.529   6.970   0.367  3.2181  0.6043 -0.1923
13231SOL     OW52165   7.791   7.690   1.154 -0.3660  0.1032 -0.1059
13231SOL    HW152166   7.861   7.746   1.198 -1.3138  1.7880 -0.6544
13231SOL    HW252167   7.800   7.697   1.055  1.8723 -3.8153 -0.2525
13232SOL     OW52168   1.020   0.395   7.612 -0.0173 -0.2180 -0.1201
13232SOL    HW152169   0.966   0.311   7.613  0.1249 -0.3194 -0.7372
13232SOL    HW252170   0.963   0.473   7.639 -0.7979 -0.1292 -1.9580
13233SOL     OW52171   5.983   5.811   5.501 -0.0630  0.4473 -0.4128
13233SOL    HW152172   5.890   5.825   5.535  0.4006  0.3356  0.9291
13233SOL    HW252173   6.032   5.899   5.500  0.6159  0.0959  1.2987
13234SOL     OW52174   6.304   6.025   2.925 -0.0230  0.3084 -0.2547
13234SOL    HW152175   6.362   6.088   2.874 -0.1091 -1.7432 -3.0175
13234SOL    HW252176   6.211   6.028   2.888 -0.5385  0.1092  1.0077
13235SOL     OW52177   2.792   4.405   8.721  0.0988 -0.0433  0.3502
13235SOL    HW152178   2.701   4.440   8.746  0.5420 -0.2186  2.2852
13235SOL    HW252179   2.860   4.476   8.734  0.5043 -0.5057  0.7657
13236SOL     OW52180   5.727   3.548   0.751 -0.0262  0.0538 -0.1963
13236SOL    HW152181   5.655   3.536   0.820  1.2200 -0.4888  1.0334
13236SOL    HW252182   5.804   3.597   0.791  0.9781 -0.8231 -1.0091
13237SOL     OW52183   4.165   3.147   1.222 -0.9947 -0.3529 -0.5675
13237SOL    HW152184   4.220   3.214   1.273  0.3411 -3.1194  1.8265
13237SOL    HW252185   4.069   3.157   1.247 -0.7832  0.5959 -0.1094
13238SOL     OW52186   3.755   2.701   0.960  0.6993  0.5159  0.2956
13238SOL    HW152187   3.789   2.793   0.940 -1.9602  1.7110  1.0856
13238SOL    HW252188   3.724   2.658   0.876  1.9215  0.3456 -0.0722
13239SOL     OW52189   4.190   6.264   2.413  0.1276 -0.4586  0.0723
13239SOL    HW152190   4.204   6.347   2.466 -0.8801 -0.1227 -0.1802
13239SOL    HW252191   4.249   6.265   2.332 -1.3069  0.9288 -0.9721
13240SOL     OW52192   8.344   1.462   2.159  0.1227 -0.4920  0.7108
13240SOL    HW152193   8.390   1.428   2.241 -2.2810 -2.2575  1.3628
13240SOL    HW252194   8.321   1.386   2.099  0.6326  0.6632 -0.9923
13241SOL     OW52195   2.304   6.992   6.104 -0.1788 -0.3961  0.7702
13241SOL    HW152196   2.248   7.074   6.118  2.3776  1.3764  0.9206
13241SOL    HW252197   2.330   6.987   6.008 -0.0230 -0.8513  0.8377
13242SOL     OW52198   7.518   5.265   6.290  0.5428  0.1665  0.3206
13242SOL    HW152199   7.563   5.286   6.203  1.8864 -0.0893  0.9276
13242SOL    HW252200   7.486   5.171   6.290 -0.5123  0.5224 -0.3343
13243SOL     OW52201   5.116   1.517   1.871 -0.5942  0.2233  0.5509
13243SOL    HW152202   5.088   1.467   1.953 -1.5724  0.7329  0.5421
13243SOL    HW252203   5.051   1.499   1.797 -0.1745  0.4167  0.1307
13244SOL     OW52204   3.141   2.124   8.752 -0.8214 -0.3041 -1.0225
13244SOL    HW152205   3.077   2.114   8.675 -1.0596  1.5672 -1.0793
13244SOL    HW252206   3.114   2.202   8.808  0.7686 -0.1917 -0.3972
13245SOL     OW52207   3.685   6.966   1.970 -0.6089 -0.1848 -0.0944
13245SOL    HW152208   3.655   6.994   1.879 -1.9667  1.0107  0.7025
13245SOL    HW252209   3.707   7.047   2.024  0.7301 -0.9046  0.4751
13246SOL     OW52210   2.923   4.281   6.776  0.0944  0.6143  0.6163
13246SOL    HW152211   2.999   4.280   6.840 -1.0825 -1.1982  2.0426
13246SOL    HW252212   2.857   4.210   6.801 -0.3180 -0.2575 -2.6974
13247SOL     OW52213   4.565   6.801   8.187 -0.2631 -0.5032  0.5369
13247SOL    HW152214   4.629   6.725   8.196  0.6209  0.2934  1.0990
13247SOL    HW252215   4.614   6.883   8.156 -1.0912 -0.0049  0.5179
13248SOL     OW52216   1.349   0.652   4.987 -0.5965  0.3578  0.5511
13248SOL    HW152217   1.274   0.650   4.920 -0.3013 -1.4451  0.2468
13248SOL    HW252218   1.363   0.746   5.019 -2.2873  0.8700 -0.1720
13249SOL     OW52219   4.398   6.961   5.961 -0.2307  0.3778  0.0923
13249SOL    HW152220   4.401   6.862   5.974  0.4584  0.4482  0.4816
13249SOL    HW252221   4.422   6.983   5.867  0.7460  0.2436  0.3069
13250SOL     OW52222   1.370   1.082   2.602  0.1777  0.0769  0.6778
13250SOL    HW152223   1.303   1.118   2.667 -0.4799  2.5532 -1.3007
13250SOL    HW252224   1.461   1.083   2.643 -0.0172  2.9106  1.0996
13251SOL     OW52225   6.450   3.300   2.099 -0.0287 -0.0658  0.2697
13251SOL    HW152226   6.545   3.308   2.070 -0.6134  0.7627 -1.4638
13251SOL    HW252227   6.422   3.384   2.146 -0.1973  0.0876 -0.1031
13252SOL     OW52228   8.655   7.010   2.783  0.6491  0.1680  0.1342
13252SOL    HW152229   8.569   6.960   2.791  0.2980  0.8763  0.9340
13252SOL    HW252230   8.713   6.968   2.713  0.1651 -1.0635  0.4693
13253SOL     OW52231   0.389   6.512   8.186 -0.0427 -0.3801  0.8397
13253SOL    HW152232   0.290   6.499   8.197  0.0921  0.9007  4.2273
13253SOL    HW252233   0.408   6.610   8.173  0.6804 -0.8155 -1.7113
13254SOL     OW52234   6.678   7.040   8.360  0.6287 -0.1353  0.2171
13254SOL    HW152235   6.755   7.071   8.416  1.4782 -0.0959 -0.9486
13254SOL    HW252236   6.631   7.119   8.321 -1.1212 -0.0704  2.3458
13255SOL     OW52237   1.602   4.703   5.645  0.6384 -0.5854  0.3913
13255SOL    HW152238   1.542   4.783   5.649  1.1187 -0.2393  0.7882
13255SOL    HW252239   1.626   4.684   5.550  0.9419  0.0623  0.3339
13256SOL     OW52240   3.497   2.919   1.669  0.1293  0.3045 -0.5562
13256SOL    HW152241   3.462   3.012   1.662  1.8094  1.0768  1.1052
13256SOL    HW252242   3.597   2.919   1.661  0.0748 -1.4783 -1.6448
13257SOL     OW52243   5.203   7.736   8.069 -0.4299 -0.0797  0.1548
13257SOL    HW152244   5.113   7.779   8.077  0.1194  1.2328 -0.5215
13257SOL    HW252245   5.273   7.797   8.108  0.7573  1.0827 -3.5871
13258SOL     OW52246   1.067   5.757   2.122 -0.5100 -0.0625 -0.3994
13258SOL    HW152247   1.015   5.680   2.159  2.9173 -2.3217  0.0164
13258SOL    HW252248   1.148   5.772   2.178  1.5899  0.4364 -3.4039
13259SOL     OW52249   5.262   8.121   7.631 -0.0122  0.2050  0.2086
13259SOL    HW152250   5.173   8.153   7.664  0.0708  0.6761 -0.0170
13259SOL    HW252251   5.295   8.048   7.691 -1.0277 -0.7017 -0.3082
13260SOL     OW52252   4.357   5.757   2.760  0.2850  0.3570  0.2322
13260SOL    HW152253   4.409   5.685   2.807  0.3639 -0.1942 -0.7032
13260SOL    HW252254   4.260   5.749   2.784  0.1072 -0.8349 -0.8531
13261SOL     OW52255   1.133   1.807   3.387 -0.2272 -0.1813 -0.3490
13261SOL    HW152256   1.101   1.888   3.338  1.3641  1.3538  1.0522
13261SOL    HW252257   1.145   1.731   3.323 -2.0261  0.5698 -1.6405
13262SOL     OW52258   4.869   3.424   7.426  0.2597 -0.0564 -0.1596
13262SOL    HW152259   4.958   3.460   7.397  0.0238  0.0869 -0.7040
13262SOL    HW252260   4.855   3.333   7.387  0.5499 -0.4555  0.6502
13263SOL     OW52261   6.985   8.598   7.017 -0.3660 -0.1483  0.3800
13263SOL    HW152262   7.051   8.579   7.089  0.8999  2.3200 -0.0720
13263SOL    HW252263   7.021   8.669   6.956 -2.2154 -0.8191 -1.5799
13264SOL     OW52264   7.145   6.361   3.116 -0.3135  0.3738 -0.1613
13264SOL    HW152265   7.056   6.400   3.142  0.4256  1.4645  0.7812
13264SOL    HW252266   7.216   6.398   3.176  0.4585 -2.2331  0.5805
13265SOL     OW52267   0.049   2.943   5.343 -0.4373 -0.4178  0.0461
13265SOL    HW152268   0.126   2.949   5.407  0.2399  0.3482 -0.8355
13265SOL    HW252269   0.070   2.876   5.272 -1.8434 -2.4623  1.4783
13266SOL     OW52270   8.773   6.058   2.653 -0.7209 -0.6505  0.4068
13266SOL    HW152271   8.687   6.109   2.653 -1.7549 -2.3232  0.1000
13266SOL    HW252272   8.777   6.000   2.734 -0.9371 -2.2534 -0.7028
13267SOL     OW52273   2.284   6.536   3.738  0.5043  0.8880  0.3270
13267SOL    HW152274   2.215   6.596   3.778  0.5435  0.6178  0.8055
13267SOL    HW252275   2.374   6.558   3.775  0.6884  1.2910 -0.3551
13268SOL     OW52276   8.645   8.132   3.829 -0.9159  0.8021 -0.5115
13268SOL    HW152277   8.596   8.084   3.901  0.6925  0.0316  0.0846
13268SOL    HW252278   8.739   8.099   3.824 -0.7668  1.4382 -2.4046
13269SOL     OW52279   4.021   6.608   7.224  0.5415 -0.0180  0.6361
13269SOL    HW152280   4.037   6.579   7.319  0.5804 -0.0721  0.6126
13269SOL    HW252281   4.105   6.645   7.186  0.0198  1.8960  1.2836
13270SOL     OW52282   0.625   3.640   3.713 -0.5014  0.3959  0.2297
13270SOL    HW152283   0.683   3.589   3.650  0.2570 -0.1326  1.3404
13270SOL    HW252284   0.596   3.726   3.670  0.3008  0.2178 -0.6886
13271SOL     OW52285   4.081   4.802   1.788 -0.2655  0.7034  0.2839
13271SOL    HW152286   4.129   4.787   1.702  1.1457  2.5677  0.7219
13271SOL    HW252287   4.079   4.717   1.840 -1.5970 -0.5873 -1.7862
13272SOL     OW52288   8.639   8.578   1.002 -0.1625  0.1682 -0.2153
13272SOL    HW152289   8.717   8.636   1.026 -0.9829  0.4751  1.8382
13272SOL    HW252290   8.557   8.613   1.047 -0.7972 -2.1845  0.5020
13273SOL     OW52291   3.927   2.430   5.430  0.1734  0.1274  0.8523
13273SOL    HW152292   3.901   2.430   5.527  1.5718 -0.9504  1.2453
13273SOL    HW252293   4.012   2.482   5.418  0.9574 -1.2330  0.4772
13274SOL     OW52294   2.135   2.376   4.598  0.1477  0.1631  0.2492
13274SOL    HW152295   2.164   2.472   4.598 -3.6220  1.4053 -1.0412
13274SOL    HW252296   2.159   2.333   4.511 -0.5808  0.7824 -0.2687
13275SOL     OW52297   5.321   8.236   6.454  0.1400 -0.1432  0.4645
13275SOL    HW152298   5.362   8.327   6.465 -0.1778  0.0777 -0.0967
13275SOL    HW252299   5.309   8.193   6.543 -1.3082  1.0908  0.8911
13276SOL     OW52300   6.174   8.646   2.933 -0.1128  0.3542  0.6663
13276SOL    HW152301   6.182   8.577   3.005 -0.2887 -0.1246  0.2308
13276SOL    HW252302   6.104   8.713   2.958 -0.4236 -0.0142  0.7648
13277SOL     OW52303   0.111   5.882   3.604  0.1661  0.5020  0.3892
13277SOL    HW152304   0.163   5.878   3.518 -1.9998  2.9280 -1.1024
13277SOL    HW252305   0.167   5.925   3.674  0.7194  1.7507 -0.7849
13278SOL     OW52306   5.741   7.220   6.384  0.5275  0.3992 -0.1888
13278SOL    HW152307   5.820   7.266   6.425 -0.0550  0.2800  1.1102
13278SOL    HW252308   5.734   7.127   6.420 -0.2356  0.4326 -0.2398
13279SOL     OW52309   2.633   1.082   5.939  0.3211  0.0359  0.5985
13279SOL    HW152310   2.585   1.079   5.852 -0.5225  1.9070  0.9665
13279SOL    HW252311   2.578   1.039   6.010  0.1659  0.2290  0.5930
13280SOL     OW52312   8.080   5.477   1.963 -0.2021 -0.0604  0.9703
13280SOL    HW152313   8.069   5.402   2.028 -0.4263  1.6747  3.0085
13280SOL    HW252314   8.044   5.561   2.003  0.4857  1.2410 -1.0618
13281SOL     OW52315   6.481   8.033   1.328 -0.2837 -0.1099  0.2106
13281SOL    HW152316   6.498   7.938   1.354 -0.7813 -0.0205  0.8859
13281SOL    HW252317   6.391   8.061   1.362  0.1616  0.8165  0.6320
13282SOL     OW52318   4.689   5.370   6.990  0.0859  0.5143  0.3292
13282SOL    HW152319   4.699   5.324   7.078  0.7750  0.2038  0.0924
13282SOL    HW252320   4.752   5.447   6.985 -1.0372  1.4834  0.7114
13283SOL     OW52321   7.508   6.593   6.718 -0.7110  0.3282  0.5030
13283SOL    HW152322   7.585   6.643   6.759 -0.8693 -0.1628  1.4140
13283SOL    HW252323   7.474   6.644   6.639  0.5313  0.5621  0.1021
13284SOL     OW52324   0.831   3.745   4.399  0.3825 -0.2161  0.1973
13284SOL    HW152325   0.852   3.834   4.359 -0.2519  0.7070  1.8724
13284SOL    HW252326   0.732   3.736   4.409  0.3217 -1.8875 -1.6716
13285SOL     OW52327   8.792   5.785   6.065 -0.7606 -0.3632 -0.1649
13285SOL    HW152328   8.864   5.778   6.135  0.1901 -0.1042 -1.1089
13285SOL    HW252329   8.710   5.737   6.097  1.0437 -3.8993 -0.5989
13286SOL     OW52330   5.780   6.715   3.602  0.2308  0.0506 -0.5596
13286SOL    HW152331   5.822   6.685   3.516 -0.4489 -2.9648  0.1391
13286SOL    HW252332   5.683   6.733   3.587  0.3487  0.6632 -0.6454
13287SOL     OW52333   7.501   1.964   4.706 -0.4319 -0.0932 -0.2507
13287SOL    HW152334   7.406   1.978   4.676 -0.4618 -0.5928 -0.3875
13287SOL    HW252335   7.524   2.033   4.775 -0.5010  0.8078 -1.1078
13288SOL     OW52336   4.248   3.761   2.892  0.1684  0.0253 -0.1065
13288SOL    HW152337   4.347   3.747   2.899  0.5005  2.4738  0.7371
13288SOL    HW252338   4.229   3.827   2.819 -0.6834  1.0300  1.0070
13289SOL     OW52339   3.961   8.535   4.268  0.0854 -0.0766  0.6230
13289SOL    HW152340   3.896   8.585   4.326 -0.9450 -1.4433  0.6530
13289SOL    HW252341   4.016   8.601   4.217 -0.8553  1.1128  1.0984
13290SOL     OW52342   8.430   4.376   1.554 -0.2754  0.3110  0.4267
13290SOL    HW152343   8.508   4.325   1.517 -0.2793  0.0041  0.8338
13290SOL    HW252344   8.445   4.474   1.543 -0.6906  0.1977 -1.2156
13291SOL     OW52345   5.691   8.050   0.177  0.3557  0.1316 -0.0046
13291SOL    HW152346   5.750   8.037   0.257 -1.6840 -0.3962  1.4604
13291SOL    HW252347   5.657   8.144   0.176  0.7874  0.2866 -0.5586
13292SOL     OW52348   0.969   6.277   5.067  0.3296  0.3025 -0.3703
13292SOL    HW152349   0.911   6.315   5.138 -0.7482 -0.5968 -0.7440
13292SOL    HW252350   0.993   6.348   5.001  0.7778  0.9838  0.5284
13293SOL     OW52351   5.525   8.407   6.891 -0.2287 -0.2050  0.1756
13293SOL    HW152352   5.463   8.454   6.828  0.5134 -1.7857 -1.7681
13293SOL    HW252353   5.604   8.465   6.911 -0.4082  0.2507 -0.4356
13294SOL     OW52354   1.705   1.905   3.915 -0.0876 -0.0092 -0.0804
13294SOL    HW152355   1.798   1.938   3.899 -0.6830  2.2274  0.8918
13294SOL    HW252356   1.655   1.901   3.828  1.0981 -1.9102 -0.7089
13295SOL     OW52357   7.028   1.617   8.334  0.1588 -0.6840  0.3601
13295SOL    HW152358   7.113   1.566   8.321  0.5656  0.4824 -1.7392
13295SOL    HW252359   6.957   1.578   8.275 -0.0247  0.0255  0.1104
13296SOL     OW52360   2.174   4.410   3.122  0.2073 -0.3125 -0.6415
13296SOL    HW152361   2.094   4.430   3.178 -0.3456 -1.9957 -0.7774
13296SOL    HW252362   2.240   4.356   3.175  0.9391  0.4661 -0.7488
13297SOL     OW52363   6.619   5.044   5.120 -0.3846  0.2513  0.1532
13297SOL    HW152364   6.588   4.951   5.139  1.5931 -0.4019  0.3396
13297SOL    HW252365   6.692   5.068   5.185  0.3254  1.2850 -1.0132
13298SOL     OW52366   6.754   3.158   7.241 -0.3112  0.1170 -0.1148
13298SOL    HW152367   6.698   3.087   7.199 -0.6596  0.3713 -0.0917
13298SOL    HW252368   6.831   3.181   7.181  0.8273 -1.5356  0.6852
13299SOL     OW52369   7.421   5.160   0.023 -0.0484 -0.6229 -0.1898
13299SOL    HW152370   7.448   5.211   0.105 -0.5453  0.7493 -0.8666
13299SOL    HW252371   7.354   5.090   0.048  1.1773 -1.4214  0.8637
13300SOL     OW52372   5.872   8.495   0.684  0.3604  0.9883 -0.4962
13300SOL    HW152373   5.935   8.461   0.754  0.4615  2.4641  0.1557
13300SOL    HW252374   5.798   8.547   0.727 -0.1003  1.1200 -1.4151
13301SOL     OW52375   3.590   3.609   1.535 -0.5318 -0.2451  0.2103
13301SOL    HW152376   3.637   3.665   1.467  1.2088 -0.9522  0.7861
13301SOL    HW252377   3.499   3.646   1.552  0.4997  2.2997  0.4294
13302SOL     OW52378   4.492   1.540   5.592  0.2178 -0.2673  0.5629
13302SOL    HW152379   4.501   1.442   5.576  0.5877  0.0241 -1.0988
13302SOL    HW252380   4.562   1.589   5.539 -0.7678  0.9656  0.3852
13303SOL     OW52381   0.073   0.265   1.363  0.4152 -0.3196 -0.7952
13303SOL    HW152382   0.079   0.307   1.273  1.5707  0.1317 -0.5075
13303SOL    HW252383   0.148   0.200   1.375 -1.3287 -2.4803 -1.2314
13304SOL     OW52384   3.082   1.751   1.152  0.2479 -0.4725 -0.4912
13304SOL    HW152385   3.033   1.761   1.065  1.1720  1.9337 -0.7784
13304SOL    HW252386   3.180   1.746   1.135  0.2904 -2.4404  0.2650
13305SOL     OW52387   0.939   1.123   1.255 -0.4626  0.1342 -0.7025
13305SOL    HW152388   0.875   1.196   1.233 -1.1680 -0.4493 -0.5916
13305SOL    HW252389   1.010   1.158   1.317 -1.1033  0.5864 -0.2256
13306SOL     OW52390   5.933   6.207   2.988 -0.4143  0.0077 -0.2965
13306SOL    HW152391   5.975   6.143   2.923  0.6154  0.4823 -0.1023
13306SOL    HW252392   5.988   6.211   3.071 -0.4226  1.2203 -0.3441
13307SOL     OW52393   6.109   1.555   8.808  0.2030  0.3106  0.5834
13307SOL    HW152394   6.109   1.455   8.800  1.5901  0.3664 -0.3049
13307SOL    HW252395   6.200   1.590   8.785 -0.5165  1.8483  0.0309
13308SOL     OW52396   1.371   4.007   4.066 -0.1999  0.2944 -0.7353
13308SOL    HW152397   1.363   3.982   3.969 -0.3334 -3.8355  0.2256
13308SOL    HW252398   1.284   3.990   4.112  0.3684  0.4865  0.4332
13309SOL     OW52399   1.844   3.626   4.762  0.0172  0.0775 -0.6061
13309SOL    HW152400   1.787   3.639   4.681 -0.8765  1.4233  0.2156
13309SOL    HW252401   1.787   3.632   4.844  0.8484 -1.6685  0.1105
13310SOL     OW52402   5.336   8.284   1.784 -0.4337 -0.3795 -0.1453
13310SOL    HW152403   5.293   8.341   1.714  1.8045  0.3740 -0.9456
13310SOL    HW252404   5.391   8.342   1.845 -0.9944 -1.2498  1.2153
13311SOL     OW52405   0.610   4.926   7.911 -0.2256 -0.7022  0.2490
13311SOL    HW152406   0.647   4.939   8.003  0.2402 -2.2468  0.2869
13311SOL    HW252407   0.669   4.972   7.844 -1.0983  1.2646  0.7982
13312SOL     OW52408   1.855   4.816   5.529  0.3282  0.1363 -0.5544
13312SOL    HW152409   1.944   4.837   5.570 -1.1511  2.3853  1.6856
13312SOL    HW252410   1.820   4.896   5.482 -1.7627  0.2425  1.0765
13313SOL     OW52411   3.266   4.743   6.862  0.6937 -0.1875  0.0371
13313SOL    HW152412   3.357   4.705   6.880  1.4876  2.3079  1.4096
13313SOL    HW252413   3.219   4.759   6.948 -0.6806 -0.4900 -0.6402
13314SOL     OW52414   8.838   0.728   5.434 -0.0194  0.8029  0.1783
13314SOL    HW152415   8.806   0.635   5.450  1.5759 -0.0987 -1.5822
13314SOL    HW252416   8.813   0.787   5.511 -0.6056 -1.1887  1.5255
13315SOL     OW52417   7.158   0.560   7.811 -0.3475  0.1388 -0.4411
13315SOL    HW152418   7.220   0.633   7.782  0.7325 -0.3983  0.4963
13315SOL    HW252419   7.206   0.497   7.871 -1.9222 -0.0454  0.6648
13316SOL     OW52420   2.599   2.470   2.723 -0.4019  0.9824  0.6828
13316SOL    HW152421   2.517   2.458   2.779  0.3184  0.0567  1.5530
13316SOL    HW252422   2.597   2.406   2.647 -0.7115  1.2892  0.4299
13317SOL     OW52423   1.497   4.359   3.753 -0.4829 -0.7156 -0.0181
13317SOL    HW152424   1.582   4.356   3.806 -0.3415  2.0698  0.0131
13317SOL    HW252425   1.483   4.271   3.707  2.8456 -0.9866 -0.6768
13318SOL     OW52426   1.169   5.946   7.302 -0.1293 -0.5543 -0.7342
13318SOL    HW152427   1.113   6.021   7.268 -0.9429  0.2250  2.1500
13318SOL    HW252428   1.110   5.868   7.322  0.0781 -0.4396  0.3646
13319SOL     OW52429   6.964   5.969   3.242  0.4508 -0.4272  0.2318
13319SOL    HW152430   6.931   6.019   3.322  1.5501 -1.7001  1.5015
13319SOL    HW252431   7.058   5.941   3.257  0.6771 -0.6685 -1.5337
13320SOL     OW52432   0.749   1.937   1.716 -0.3171  0.1915  0.0685
13320SOL    HW152433   0.660   1.939   1.671  0.3898  3.1742 -1.2909
13320SOL    HW252434   0.770   2.028   1.752  1.6209 -0.7937  1.4979
13321SOL     OW52435   8.265   5.398   5.765  0.0754 -0.1750  0.1364
13321SOL    HW152436   8.345   5.458   5.771  0.1482 -0.3398  0.8273
13321SOL    HW252437   8.244   5.381   5.669 -0.0063  1.0329 -0.0722
13322SOL     OW52438   8.058   4.908   1.081 -0.7217  0.0745  0.0440
13322SOL    HW152439   8.017   4.966   1.011 -0.8341  0.8226  0.7272
13322SOL    HW252440   8.041   4.947   1.171  1.2240  0.2219  0.3669
13323SOL     OW52441   5.004   5.797   7.098 -0.1002 -0.1507  0.2387
13323SOL    HW152442   5.063   5.832   7.170 -0.4238 -0.6839  0.7639
13323SOL    HW252443   4.910   5.789   7.132  0.3772 -3.6481  0.8371
13324SOL     OW52444   8.850   4.982   8.832  0.3866  0.1483 -0.3669
13324SOL    HW152445   8.769   5.024   8.789 -0.6021 -0.3848  0.9356
13324SOL    HW252446   8.895   5.050   8.889 -0.1123 -0.0224  0.2319
13325SOL     OW52447   8.839   8.748   1.683 -0.2180 -0.0794 -0.2870
13325SOL    HW152448   8.781   8.720   1.606 -1.2922  1.0316  0.0987
13325SOL    HW252449   8.796   8.824   1.731  1.1910  0.2373  0.5011
13326SOL     OW52450   1.548   7.575   6.015  0.3684  0.5234  0.0676
13326SOL    HW152451   1.511   7.490   5.976 -0.2693  0.5332  0.6513
13326SOL    HW252452   1.617   7.553   6.083  0.1728  0.4635  0.2492
13327SOL     OW52453   1.306   5.473   4.191  0.4782 -0.3619 -0.6607
13327SOL    HW152454   1.368   5.427   4.254 -0.0210 -1.0356 -0.6623
13327SOL    HW252455   1.344   5.468   4.098  0.7887 -0.1181 -0.5476
13328SOL     OW52456   7.880   4.803   7.085  0.2558  0.1629  0.1221
13328SOL    HW152457   7.897   4.885   7.031 -2.8854  0.3583 -0.6475
13328SOL    HW252458   7.898   4.822   7.182 -1.2155  2.0023  0.0529
13329SOL     OW52459   4.188   7.207   8.190 -0.4696 -0.0815  1.0383
13329SOL    HW152460   4.196   7.135   8.258 -2.1311 -1.4263 -0.1474
13329SOL    HW252461   4.262   7.198   8.122 -0.3607 -0.3402  1.1925
13330SOL     OW52462   0.568   1.642   7.727  0.1266  0.4367  0.1867
13330SOL    HW152463   0.643   1.652   7.792  2.1158  1.4056 -2.1746
13330SOL    HW252464   0.485   1.613   7.776  2.5099 -2.7852  2.5353
13331SOL     OW52465   7.118   6.149   3.432 -0.4423  0.1682  0.3393
13331SOL    HW152466   7.019   6.139   3.428 -0.3868 -0.7245  0.9590
13331SOL    HW252467   7.160   6.061   3.458  0.6343  0.0978 -1.5162
13332SOL     OW52468   6.673   7.773   7.935  0.1236 -0.5360 -0.3178
13332SOL    HW152469   6.702   7.865   7.960 -0.4326 -0.8928  1.6820
13332SOL    HW252470   6.576   7.761   7.960  0.1915 -1.6478 -0.5954
13333SOL     OW52471   0.081   6.673   5.613 -0.0062  0.3188 -0.3026
13333SOL    HW152472   0.134   6.756   5.628 -2.0239  1.3909  0.9740
13333SOL    HW252473   0.089   6.614   5.693  0.2801 -0.1006 -0.6366
13334SOL     OW52474   7.785   2.567   8.015  0.6131 -0.5812  0.1907
13334SOL    HW152475   7.788   2.632   7.938 -2.4204 -0.5407  0.0382
13334SOL    HW252476   7.806   2.475   7.982  1.3795 -0.2439 -0.2805
13335SOL     OW52477   7.927   6.020   8.562  0.1796 -0.1555 -0.1619
13335SOL    HW152478   7.904   5.927   8.534 -0.6683  0.3089 -0.9974
13335SOL    HW252479   8.026   6.026   8.577 -0.1314 -2.0635  3.1460
13336SOL     OW52480   6.867   2.467   3.302 -0.4765 -0.0710 -0.0805
13336SOL    HW152481   6.877   2.382   3.354  1.0976  0.5349  0.6256
13336SOL    HW252482   6.887   2.545   3.362 -2.2593  0.8341 -0.6250
13337SOL     OW52483   5.240   6.833   2.601  0.1180  0.3287 -0.0909
13337SOL    HW152484   5.276   6.922   2.572 -1.3822  1.1564  0.5052
13337SOL    HW252485   5.206   6.783   2.521 -0.1339  0.8067 -0.2839
13338SOL     OW52486   6.457   8.883   5.727 -0.2504 -0.1667 -0.1607
13338SOL    HW152487   6.373   8.932   5.705 -1.8529 -2.2965  1.0687
13338SOL    HW252488   6.506   8.861   5.642 -2.2795 -1.2320 -1.0942
13339SOL     OW52489   5.288   3.930   1.060  0.6199 -0.4602 -0.4512
13339SOL    HW152490   5.369   3.986   1.044  0.5284 -0.5551 -1.2458
13339SOL    HW252491   5.218   3.985   1.106 -0.1007  0.5750 -2.7351
13340SOL     OW52492   0.429   3.654   7.703  0.3505  0.5092 -0.4306
13340SOL    HW152493   0.400   3.741   7.742 -0.1703  0.7007 -1.2364
13340SOL    HW252494   0.468   3.596   7.775 -0.6412  0.8342  0.3658
13341SOL     OW52495   0.847   5.187   8.412 -0.0751  0.5267 -0.2205
13341SOL    HW152496   0.911   5.139   8.472  1.6699  2.5222 -0.3860
13341SOL    HW252497   0.788   5.246   8.467 -0.0516  0.5828 -0.2549
13342SOL     OW52498   0.671   2.002   0.117  0.3509 -0.0777 -0.6066
13342SOL    HW152499   0.619   2.086   0.130 -0.0132 -0.2312 -1.0480
13342SOL    HW252500   0.609   1.924   0.117  0.6246 -0.2966 -0.7769
13343SOL     OW52501   7.637   6.968   6.092 -0.1931 -0.2501 -0.1830
13343SOL    HW152502   7.686   7.016   6.019  0.0400  1.4058  1.0258
13343SOL    HW252503   7.696   6.898   6.131  1.0393  1.3938  0.9210
13344SOL     OW52504   2.693   1.558   3.599  0.5226  0.0008  0.5370
13344SOL    HW152505   2.720   1.582   3.693  2.8096  0.8313 -0.2976
13344SOL    HW252506   2.667   1.640   3.549 -0.8102 -0.4557  0.4501
13345SOL     OW52507   5.030   1.816   5.685 -0.4613 -0.1798  0.1225
13345SOL    HW152508   5.028   1.789   5.588  1.0824 -1.6902  0.4850
13345SOL    HW252509   4.966   1.760   5.736 -1.7591  1.0636 -0.1108
13346SOL     OW52510   6.987   4.259   0.635  0.2434  0.0158 -0.2924
13346SOL    HW152511   7.025   4.232   0.546  0.8843 -0.0569 -0.0050
13346SOL    HW252512   6.903   4.208   0.653  0.3343 -0.2683 -0.6771
13347SOL     OW52513   0.784   7.514   7.600  0.4440 -0.1064  0.3111
13347SOL    HW152514   0.883   7.512   7.588  0.3805 -0.4658 -0.1519
13347SOL    HW252515   0.741   7.552   7.519  0.1329 -0.9189  0.0868
13348SOL     OW52516   4.304   7.191   3.625  0.1525  0.4863  0.4632
13348SOL    HW152517   4.338   7.101   3.600  0.4341  1.0937 -1.4174
13348SOL    HW252518   4.371   7.260   3.598 -1.3473  1.4890 -0.7541
13349SOL     OW52519   5.257   4.477   1.987 -0.3760 -0.0330 -0.1595
13349SOL    HW152520   5.351   4.500   1.962 -0.2573  0.3474  0.6371
13349SOL    HW252521   5.194   4.530   1.931 -0.1093  1.5321  1.0141
13350SOL     OW52522   7.025   5.668   3.170  0.1339 -0.3652 -0.5105
13350SOL    HW152523   7.092   5.595   3.162 -1.1442 -1.6587  0.4136
13350SOL    HW252524   6.970   5.655   3.252  1.1234  2.7026  0.7176
13351SOL     OW52525   1.934   5.487   7.740 -0.3930 -0.5373 -0.3739
13351SOL    HW152526   1.919   5.502   7.838 -0.3476 -1.2457 -0.2501
13351SOL    HW252527   1.877   5.411   7.709 -0.8803  0.0906 -1.0436
13352SOL     OW52528   8.882   2.622   2.980  0.0280 -0.0139  0.3972
13352SOL    HW152529   8.807   2.629   2.914 -0.1580  1.1171  0.7220
13352SOL    HW252530   8.844   2.613   3.072  0.2953 -0.2537  0.4840
13353SOL     OW52531   4.954   8.636   1.588  0.0486 -0.1082  0.3184
13353SOL    HW152532   4.986   8.565   1.650  1.1226 -0.2758 -0.4148
13353SOL    HW252533   4.884   8.599   1.528 -0.5426 -0.1107  0.9949
13354SOL     OW52534   1.827   4.473   8.423  0.0140  0.3536 -0.3652
13354SOL    HW152535   1.890   4.495   8.499  1.8552 -0.0436 -1.7420
13354SOL    HW252536   1.739   4.443   8.461  1.4334 -1.4571  1.6736
13355SOL     OW52537   0.703   7.483   5.832 -1.0042  0.1265 -0.2147
13355SOL    HW152538   0.638   7.411   5.809 -0.3348 -0.2405 -0.9742
13355SOL    HW252539   0.655   7.571   5.835 -1.7416 -0.2906  0.2972
13356SOL     OW52540   0.184   4.801   8.776 -0.1044 -0.1185 -0.0707
13356SOL    HW152541   0.173   4.845   8.865 -2.4188  0.0323 -0.3948
13356SOL    HW252542   0.185   4.871   8.704  0.4142 -0.3315 -0.2781
13357SOL     OW52543   3.487   8.939   5.729  0.8002  0.0299  0.3049
13357SOL    HW152544   3.423   8.983   5.792  0.6806  1.6289 -0.9156
13357SOL    HW252545   3.555   9.005   5.699  0.1361 -0.3557 -2.1819
13358SOL     OW52546   1.785   8.602   5.068 -0.5149  0.3876  0.2622
13358SOL    HW152547   1.738   8.516   5.086 -0.4467  0.5730  1.3224
13358SOL    HW252548   1.881   8.583   5.047 -0.2997  0.2720  1.3434
13359SOL     OW52549   0.052   5.860   6.474  0.5678 -0.6292  0.3019
13359SOL    HW152550   0.151   5.872   6.468  0.1515  4.1267  0.8390
13359SOL    HW252551   0.027   5.834   6.567  1.2081 -0.4410  0.5291
13360SOL     OW52552   3.680   0.156   4.548 -0.0792  0.1636 -0.1789
13360SOL    HW152553   3.605   0.091   4.542  0.2532 -0.0657 -2.4699
13360SOL    HW252554   3.644   0.249   4.542 -0.3432  0.1341  0.8072
13361SOL     OW52555   7.514   5.303   2.555 -0.0058  0.2284  0.1238
13361SOL    HW152556   7.484   5.353   2.636 -2.3845  1.0595 -1.2108
13361SOL    HW252557   7.521   5.367   2.478 -0.4113 -1.0293 -0.9670
13362SOL     OW52558   5.014   2.730   7.708  0.0149  0.2307  0.0769
13362SOL    HW152559   5.095   2.741   7.651 -1.0401  0.4750 -1.4174
13362SOL    HW252560   4.959   2.653   7.675 -0.2579 -0.0702  1.2027
13363SOL     OW52561   4.311   4.783   2.565  0.2785  0.0778  0.2895
13363SOL    HW152562   4.244   4.716   2.597 -0.2748  0.1497 -0.7225
13363SOL    HW252563   4.363   4.818   2.644 -1.1420  0.3265  1.1354
13364SOL     OW52564   2.406   5.888   1.223 -0.2233 -0.7535  0.3442
13364SOL    HW152565   2.402   5.797   1.263  0.7311 -0.0248  2.1730
13364SOL    HW252566   2.455   5.949   1.286 -0.0580  0.7900 -1.2636
13365SOL     OW52567   4.116   2.664   0.308  0.7011 -0.1690  0.0842
13365SOL    HW152568   4.154   2.744   0.263  0.1920  0.8586  1.4327
13365SOL    HW252569   4.177   2.635   0.382 -0.2186  0.3982  1.0899
13366SOL     OW52570   8.796   8.514   8.492 -0.0783 -0.0754 -0.4847
13366SOL    HW152571   8.736   8.590   8.466 -0.2303  0.6733  1.9121
13366SOL    HW252572   8.752   8.460   8.563  0.9737 -1.1065 -0.6003
13367SOL     OW52573   7.805   8.120   8.056  0.1084 -0.1020  0.1080
13367SOL    HW152574   7.805   8.214   8.091 -0.1408  0.2737 -0.8697
13367SOL    HW252575   7.880   8.069   8.097 -0.1539  0.3402  1.1441
13368SOL     OW52576   4.355   1.588   3.997  0.4926  0.5164 -0.1564
13368SOL    HW152577   4.387   1.676   3.962  0.7785  0.3285 -0.3694
13368SOL    HW252578   4.336   1.596   4.095 -1.6701  1.4232 -0.6316
13369SOL     OW52579   0.022   2.187   4.074 -0.2727  0.0210 -0.7386
13369SOL    HW152580  -0.031   2.107   4.103  3.2644 -2.3854 -0.6223
13369SOL    HW252581   0.043   2.179   3.976  1.0259  0.2336 -0.4875
13370SOL     OW52582   1.196   5.585   7.782  0.3811 -0.2055  0.1395
13370SOL    HW152583   1.204   5.682   7.757  1.2698 -0.0364  1.0549
13370SOL    HW252584   1.287   5.546   7.793  0.0290 -1.1750 -0.2834
13371SOL     OW52585   2.211   7.152   0.410  0.7186 -0.1344 -0.0755
13371SOL    HW152586   2.310   7.160   0.394  0.8335  0.3188  0.8445
13371SOL    HW252587   2.162   7.196   0.335  1.2256  0.3727 -0.1155
13372SOL     OW52588   6.413   6.880   0.412  0.0660 -0.3185  0.6595
13372SOL    HW152589   6.499   6.866   0.460  1.8496  0.8998 -2.0458
13372SOL    HW252590   6.431   6.891   0.314 -3.1969 -0.2837  0.0060
13373SOL     OW52591   7.930   0.996   6.040 -0.8443  0.0788 -0.0330
13373SOL    HW152592   8.008   0.955   6.087  0.3813  2.1075 -0.2276
13373SOL    HW252593   7.850   0.996   6.101  0.6032  2.2850  1.9201
13374SOL     OW52594   5.770   7.760   1.933 -0.3908  0.6448  0.0125
13374SOL    HW152595   5.837   7.687   1.947  0.2528  1.5610  1.8416
13374SOL    HW252596   5.727   7.748   1.844  1.2514 -0.7268 -0.6363
13375SOL     OW52597   7.531   2.096   6.181 -0.1079 -0.1170 -0.0775
13375SOL    HW152598   7.484   2.151   6.250  0.2256 -0.7013  0.6263
13375SOL    HW252599   7.479   2.097   6.096  0.7107  2.6124 -0.5988
13376SOL     OW52600   8.302   3.469   4.780 -0.7618  0.0028  0.2038
13376SOL    HW152601   8.301   3.567   4.759 -1.1456  0.0449  0.4181
13376SOL    HW252602   8.394   3.441   4.805 -0.1836 -0.1270 -1.9392
13377SOL     OW52603   6.403   5.579   6.994  0.2628 -0.5002  0.2874
13377SOL    HW152604   6.440   5.498   7.039  1.2832  0.0292  0.4199
13377SOL    HW252605   6.466   5.656   7.007  0.2307 -0.1626 -1.4248
13378SOL     OW52606   6.115   2.498   2.385 -0.1992 -0.3270  0.3781
13378SOL    HW152607   6.034   2.518   2.440 -0.9137  0.6937 -1.0261
13378SOL    HW252608   6.165   2.421   2.426 -2.3251 -1.5291  0.8058
13379SOL     OW52609   3.916   5.796   4.290  0.0029  0.5233  0.2447
13379SOL    HW152610   3.973   5.876   4.272  0.7088 -0.0872 -0.2585
13379SOL    HW252611   3.939   5.758   4.380 -0.9871  1.4181  0.9055
13380SOL     OW52612   1.054   4.996   8.588 -0.3372  0.2438 -0.0628
13380SOL    HW152613   1.087   4.920   8.532 -2.1552 -2.2713  2.1191
13380SOL    HW252614   1.130   5.037   8.638  0.4874 -0.9620 -0.3119
13381SOL     OW52615   8.756   4.094   4.013  0.1586 -0.0315 -0.5305
13381SOL    HW152616   8.770   4.000   4.045 -0.5678  0.1052  0.1862
13381SOL    HW252617   8.792   4.102   3.920  0.5959 -0.9116 -0.4522
13382SOL     OW52618   8.481   6.119   8.795 -0.9569 -0.6142  0.2745
13382SOL    HW152619   8.480   6.115   8.895 -0.5901  1.2521  0.3654
13382SOL    HW252620   8.408   6.060   8.759 -2.4024  0.2347  1.7118
13383SOL     OW52621   5.991   2.429   0.112  0.1846  0.1388 -0.1089
13383SOL    HW152622   5.922   2.427   0.185  1.6432  3.6011  1.4574
13383SOL    HW252623   5.952   2.472   0.031  0.5307  2.3452  0.8665
13384SOL     OW52624   3.224   2.404   8.060  0.5217  0.3403  0.0586
13384SOL    HW152625   3.313   2.366   8.083  0.4369  0.2112  0.1738
13384SOL    HW252626   3.182   2.350   7.987  0.6425  0.5444 -0.1616
13385SOL     OW52627   7.518   1.316   8.784  0.0307 -0.4876 -0.6159
13385SOL    HW152628   7.547   1.319   8.688  3.1907 -0.9886  0.2653
13385SOL    HW252629   7.509   1.409   8.819  1.7093 -0.3057 -0.6190
13386SOL     OW52630   4.065   1.270   6.010  0.3013 -0.2383  0.6570
13386SOL    HW152631   4.089   1.229   6.097 -0.1957 -0.9240  0.4770
13386SOL    HW252632   4.060   1.199   5.939  1.0585  0.3594 -0.0068
13387SOL     OW52633   7.352   7.946   2.755 -0.0686  0.2526  0.9508
13387SOL    HW152634   7.369   7.862   2.704  1.5821  1.0268  0.1794
13387SOL    HW252635   7.308   8.013   2.695  2.1599  1.2748  0.4048
13388SOL     OW52636   6.130   5.074   0.338  0.0273 -0.1035 -0.4500
13388SOL    HW152637   6.183   5.096   0.256  1.2140  1.9990  0.8231
13388SOL    HW252638   6.185   5.017   0.399 -1.1507 -2.3442 -1.4421
13389SOL     OW52639   2.790   2.483   6.374  0.3057 -0.0365 -0.3348
13389SOL    HW152640   2.836   2.565   6.340  1.0554 -0.6134 -0.7236
13389SOL    HW252641   2.781   2.489   6.474  1.0536  0.1711 -0.2736
13390SOL     OW52642   4.169   3.937   8.619 -0.4280  0.3350  0.5790
13390SOL    HW152643   4.230   3.896   8.686  0.3878  0.3539 -0.1362
13390SOL    HW252644   4.091   3.877   8.602  0.2087 -0.4134  0.3282
13391SOL     OW52645   6.202   7.206   6.859  0.1585  0.5542  0.5269
13391SOL    HW152646   6.216   7.226   6.762  0.1274  2.3394  0.8772
13391SOL    HW252647   6.221   7.109   6.876 -1.1956 -0.1070 -1.5116
13392SOL     OW52648   5.510   7.363   1.774 -0.2188  0.7017  0.2175
13392SOL    HW152649   5.413   7.364   1.799 -0.3175  0.9179 -0.1694
13392SOL    HW252650   5.561   7.305   1.838 -1.2577 -2.7977 -2.0280
13393SOL     OW52651   4.702   4.136   5.951  0.9188  0.1975 -0.3472
13393SOL    HW152652   4.653   4.049   5.943  0.0651  0.7279 -0.9907
13393SOL    HW252653   4.639   4.211   5.932  1.6080  0.9706  0.3860
13394SOL     OW52654   6.588   5.206   1.328  0.1194 -0.0484 -0.0849
13394SOL    HW152655   6.664   5.271   1.324 -0.1190  0.3489  1.5708
13394SOL    HW252656   6.613   5.128   1.386 -1.4400  1.0346  2.0764
13395SOL     OW52657   0.411   1.071   6.530 -0.2276  0.2824 -0.2966
13395SOL    HW152658   0.500   1.097   6.495 -0.4964  0.8539 -0.5576
13395SOL    HW252659   0.387   1.128   6.609  0.3258 -0.9220  0.7609
13396SOL     OW52660   0.572   4.290   1.964 -0.0193  0.3141  0.4063
13396SOL    HW152661   0.477   4.317   1.952 -0.5788 -0.8954  1.9355
13396SOL    HW252662   0.584   4.194   1.936  0.2514 -0.2183  2.2696
13397SOL     OW52663   5.220   3.235   1.459  0.2365 -0.8043  0.1003
13397SOL    HW152664   5.146   3.235   1.392  0.0141 -0.2800  0.3405
13397SOL    HW252665   5.232   3.327   1.495  1.2924 -0.7985 -0.2467
13398SOL     OW52666   5.576   4.679   3.501  0.4157 -0.2651  0.2687
13398SOL    HW152667   5.591   4.580   3.500  0.6556 -0.2208 -0.4190
13398SOL    HW252668   5.501   4.700   3.565 -0.4103 -0.9973 -0.4455
13399SOL     OW52669   7.553   5.288   1.548  0.6027 -0.4698  0.7490
13399SOL    HW152670   7.629   5.336   1.504 -0.0619  1.8169  2.0160
13399SOL    HW252671   7.585   5.246   1.633  0.7897 -0.8467  0.4958
13400SOL     OW52672   0.217   4.811   7.635 -0.7921 -0.4178  0.2298
13400SOL    HW152673   0.151   4.853   7.698  0.3138  2.9402 -0.7236
13400SOL    HW252674   0.280   4.754   7.687 -1.6409  0.0016  1.7702
13401SOL     OW52675   7.555   4.678   1.191 -0.0898 -0.1014 -0.1180
13401SOL    HW152676   7.645   4.716   1.168  0.0523 -0.7141 -0.6100
13401SOL    HW252677   7.566   4.602   1.256 -0.0591 -1.4208 -1.6186
13402SOL     OW52678   8.953   5.723   4.031 -0.1414 -0.7668 -0.0209
13402SOL    HW152679   9.004   5.746   4.114 -0.9326  1.1360 -0.0403
13402SOL    HW252680   8.856   5.711   4.054 -0.6239  1.3430 -0.9190
13403SOL     OW52681   2.278   4.181   7.206 -0.6445  0.2369  0.2437
13403SOL    HW152682   2.363   4.176   7.258  0.2317 -1.0657 -1.2809
13403SOL    HW252683   2.201   4.193   7.269  0.3549 -1.5874  1.8622
13404SOL     OW52684   7.835   2.910   2.636  0.0837 -0.0262  0.4190
13404SOL    HW152685   7.934   2.920   2.641 -0.1219  2.0604  0.7179
13404SOL    HW252686   7.791   2.995   2.666 -1.7931 -0.8663  0.1308
13405SOL     OW52687   1.067   3.223   0.343 -0.0078 -0.6860 -0.3574
13405SOL    HW152688   1.137   3.246   0.276 -0.3027  3.1824  0.5213
13405SOL    HW252689   1.109   3.181   0.423  0.7549 -2.1476 -1.5070
13406SOL     OW52690   1.806   8.157   8.449  0.3901  0.5090 -0.3687
13406SOL    HW152691   1.819   8.127   8.544 -1.6105  0.4248 -0.1023
13406SOL    HW252692   1.772   8.252   8.449  0.5312  0.5598 -1.0122
13407SOL     OW52693   4.327   6.394   5.588 -0.0116  0.4734 -0.0772
13407SOL    HW152694   4.388   6.412   5.665  1.0188 -1.1397 -0.4985
13407SOL    HW252695   4.266   6.319   5.611  1.4058 -1.1167 -1.4172
13408SOL     OW52696   6.212   6.640   3.692  0.0162  0.3242  0.5422
13408SOL    HW152697   6.258   6.724   3.665  0.6692 -0.6713 -1.5328
13408SOL    HW252698   6.245   6.611   3.782  1.0465  1.3574  0.5074
13409SOL     OW52699   8.236   6.495   8.295  0.3030  0.9558  0.4090
13409SOL    HW152700   8.194   6.544   8.372  0.5859  0.7451  0.6984
13409SOL    HW252701   8.230   6.397   8.311  0.4402  0.9131  0.1990
13410SOL     OW52702   6.968   8.107   1.555  0.0274  0.2284 -0.0936
13410SOL    HW152703   6.907   8.037   1.594 -0.9250  0.6434 -0.8166
13410SOL    HW252704   6.913   8.178   1.511  1.0914 -0.8048 -3.2269
13411SOL     OW52705   7.147   4.786   0.836 -0.4666  0.0922 -0.0198
13411SOL    HW152706   7.093   4.799   0.919 -1.6958 -0.2950 -0.7600
13411SOL    HW252707   7.191   4.696   0.838 -2.0035 -0.6851 -0.6430
13412SOL     OW52708   6.409   4.980   7.486 -0.1338  0.0933 -0.3078
13412SOL    HW152709   6.453   4.924   7.557 -0.0176  0.5312 -0.0335
13412SOL    HW252710   6.472   5.051   7.456 -0.2144 -0.0358 -0.7933
13413SOL     OW52711   1.576   4.493   2.200 -0.3165  0.1967 -0.1151
13413SOL    HW152712   1.556   4.442   2.116 -0.2194  1.6669 -1.0426
13413SOL    HW252713   1.577   4.429   2.277 -0.7364 -1.1271 -1.1675
13414SOL     OW52714   8.959   1.733   5.776  0.3309 -0.2673  0.3456
13414SOL    HW152715   9.015   1.815   5.769  0.5213 -0.4666 -0.5375
13414SOL    HW252716   9.008   1.663   5.828 -0.0624  0.3622  1.5863
13415SOL     OW52717   5.467   8.798   1.012 -0.0636 -0.0209 -0.0390
13415SOL    HW152718   5.401   8.787   0.937  0.7324  1.6152 -1.0087
13415SOL    HW252719   5.426   8.855   1.084  0.6029  1.7612 -1.0541
13416SOL     OW52720   8.734   0.473   5.461  0.2051 -1.3162  0.3169
13416SOL    HW152721   8.781   0.421   5.532  1.1576 -0.2996  0.4465
13416SOL    HW252722   8.650   0.512   5.498 -1.8401 -4.8080 -0.4585
13417SOL     OW52723   5.406   6.082   0.154 -0.1620  0.0260 -0.0635
13417SOL    HW152724   5.353   5.997   0.146 -0.2779  0.1245 -0.3389
13417SOL    HW252725   5.365   6.153   0.097  1.3601 -0.4475 -1.8065
13418SOL     OW52726   4.245   8.902   0.269 -0.1436  0.3161  0.0277
13418SOL    HW152727   4.190   8.818   0.274 -2.3977  1.8605  2.2624
13418SOL    HW252728   4.234   8.944   0.179  0.3364 -1.3160 -0.8177
13419SOL     OW52729   7.168   6.284   8.137  0.4124 -0.2962 -0.7025
13419SOL    HW152730   7.100   6.212   8.151 -1.1429  0.9006 -1.8979
13419SOL    HW252731   7.144   6.337   8.056  2.3127  0.6982 -0.6410
13420SOL     OW52732   4.764   4.896   3.884 -0.2992 -0.0541 -0.3681
13420SOL    HW152733   4.788   4.955   3.807 -1.5061 -0.7074 -1.2656
13420SOL    HW252734   4.777   4.800   3.859 -2.1817 -0.3476 -0.3140
13421SOL     OW52735   4.367   6.786   4.423  0.4164 -0.2740 -0.1415
13421SOL    HW152736   4.458   6.751   4.402  0.9798  0.8349  0.3805
13421SOL    HW252737   4.357   6.878   4.384 -0.9221 -0.8655 -1.2385
13422SOL     OW52738   3.881   0.298   8.497  0.1518  0.1612  0.1908
13422SOL    HW152739   3.851   0.275   8.590 -0.2295  0.3462  0.1170
13422SOL    HW252740   3.800   0.315   8.440  0.4072  1.1441  0.1099
13423SOL     OW52741   8.178   6.001   8.273  0.2595 -1.0084  0.7720
13423SOL    HW152742   8.083   5.970   8.268  0.1892 -0.8062  0.8551
13423SOL    HW252743   8.204   6.044   8.187 -1.0829  2.8810  2.2178
13424SOL     OW52744   1.925   4.698   2.105 -0.5800 -0.0703  0.2761
13424SOL    HW152745   1.894   4.604   2.089  0.2274 -0.6181  1.8549
13424SOL    HW252746   2.025   4.701   2.101 -0.6685  1.0893 -1.6135
13425SOL     OW52747   0.919   1.950   5.649  0.3279  0.1346  0.0619
13425SOL    HW152748   1.016   1.959   5.628  0.7913 -0.0365  2.0079
13425SOL    HW252749   0.895   2.013   5.723 -1.4337  1.3844 -1.5233
13426SOL     OW52750   2.719   6.182   6.748  0.0975  0.5681 -0.0198
13426SOL    HW152751   2.678   6.262   6.792 -2.0571 -1.0717  1.0445
13426SOL    HW252752   2.791   6.145   6.807 -0.9110  0.0024  0.8770
13427SOL     OW52753   6.061   6.910   6.738 -0.0522 -0.5247  0.3259
13427SOL    HW152754   5.971   6.953   6.738  0.0806 -0.2155  1.8886
13427SOL    HW252755   6.052   6.814   6.763 -0.3415 -1.4586 -3.1105
13428SOL     OW52756   3.175   7.039   6.079  0.3862  0.0828  0.3983
13428SOL    HW152757   3.145   7.009   6.169  0.4444  0.9706  0.7188
13428SOL    HW252758   3.095   7.058   6.021  0.3511 -0.9449  0.1044
13429SOL     OW52759   8.131   2.861   5.479  0.4035  0.3665  0.1244
13429SOL    HW152760   8.075   2.879   5.398  1.5173  3.3656 -0.0507
13429SOL    HW252761   8.129   2.763   5.500 -0.6046 -0.3432 -2.9893
13430SOL     OW52762   6.979   2.057   7.837 -0.0193  0.2963  0.3755
13430SOL    HW152763   6.963   2.074   7.740 -0.1073  0.0702  0.3516
13430SOL    HW252764   7.075   2.034   7.852  0.1558  1.0406  0.4369
13431SOL     OW52765   5.751   4.519   0.395  0.6394 -0.2340  0.3795
13431SOL    HW152766   5.696   4.544   0.316  1.6235  0.6513 -0.0350
13431SOL    HW252767   5.715   4.435   0.435 -0.6764  0.0391 -0.2052
13432SOL     OW52768   1.540   5.277   7.582  0.0197  0.1816  0.2138
13432SOL    HW152769   1.610   5.318   7.640 -0.5785  1.2668  0.1920
13432SOL    HW252770   1.574   5.270   7.488  0.4663 -0.2468  0.4066
13433SOL     OW52771   3.777   2.636   4.170  0.3445  0.5870 -0.3083
13433SOL    HW152772   3.791   2.644   4.268  1.1624  1.3364 -0.4808
13433SOL    HW252773   3.865   2.648   4.123  0.2063 -1.1243 -1.0504
13434SOL     OW52774   1.485   8.722   0.177  0.0024  0.0024  0.0669
13434SOL    HW152775   1.479   8.683   0.269  2.4678 -0.7477 -0.0392
13434SOL    HW252776   1.518   8.816   0.184 -3.5887  1.3207  0.1615
13435SOL     OW52777   4.506   7.907   0.265 -0.2484 -0.2613  0.5688
13435SOL    HW152778   4.551   7.961   0.336 -1.2192  2.3222 -0.7237
13435SOL    HW252779   4.576   7.857   0.213  0.8951  1.4969  0.3772
13436SOL     OW52780   2.293   4.990   0.677  0.4313 -0.4923  0.1135
13436SOL    HW152781   2.251   4.987   0.586  0.8692 -1.1349 -0.0713
13436SOL    HW252782   2.393   4.989   0.667  0.4801 -1.4727  0.6202
13437SOL     OW52783   4.614   5.159   6.010  0.0431 -0.4147  0.0301
13437SOL    HW152784   4.555   5.084   5.980 -0.8691  0.5149 -0.5341
13437SOL    HW252785   4.568   5.210   6.083  0.0629  0.4347 -0.5451
13438SOL     OW52786   3.606   1.135   5.369  0.0857  0.6283  0.3354
13438SOL    HW152787   3.519   1.149   5.414  0.5041  3.0141  0.4479
13438SOL    HW252788   3.678   1.121   5.437 -0.0617 -0.5236  0.2631
13439SOL     OW52789   6.164   3.807   7.802 -0.5535  0.1815 -0.3312
13439SOL    HW152790   6.163   3.901   7.768 -0.7425  0.0943 -0.5668
13439SOL    HW252791   6.142   3.807   7.900  1.6676  0.5917  0.2036
13440SOL     OW52792   7.558   1.026   0.754  0.2063 -0.4765 -0.1205
13440SOL    HW152793   7.580   1.025   0.657 -0.2726  0.9037 -0.2452
13440SOL    HW252794   7.492   0.953   0.773  0.2447 -0.7022 -0.8404
13441SOL     OW52795   0.870   0.094   8.551 -0.5364  0.2372  0.2117
13441SOL    HW152796   0.883   0.074   8.453 -0.7043  0.1733  0.2027
13441SOL    HW252797   0.943   0.051   8.604 -2.2135 -2.5078  0.4409
13442SOL     OW52798   2.823   5.910   3.299 -0.1968 -0.1565  0.3109
13442SOL    HW152799   2.870   5.997   3.283 -0.0567 -0.4426 -0.8932
13442SOL    HW252800   2.891   5.837   3.308 -0.2678  0.0285  2.4628
13443SOL     OW52801   6.995   7.720   1.035 -0.3636  0.3920  0.2185
13443SOL    HW152802   6.928   7.719   1.110 -0.1418 -0.3196  0.4067
13443SOL    HW252803   7.086   7.703   1.072 -0.1096  1.0994 -0.0736
13444SOL     OW52804   2.866   4.878   7.311  0.0887  0.5942  0.4228
13444SOL    HW152805   2.943   4.906   7.253 -0.5294  0.0239 -0.6931
13444SOL    HW252806   2.879   4.783   7.340  0.3075  0.8229  1.0693
13445SOL     OW52807   8.862   8.334   8.302 -0.5782 -0.1676 -0.1380
13445SOL    HW152808   8.784   8.274   8.281 -0.6116  0.1838 -1.0572
13445SOL    HW252809   8.833   8.405   8.367 -1.6060  1.2271 -2.0656
13446SOL     OW52810   8.115   3.615   8.574  0.7880  0.5775 -0.5621
13446SOL    HW152811   8.136   3.707   8.542  1.8270  0.9272  1.0807
13446SOL    HW252812   8.034   3.618   8.632 -0.8111  0.0143 -2.6772
13447SOL     OW52813   4.227   7.296   1.765  0.3133  0.0907  0.0449
13447SOL    HW152814   4.151   7.257   1.816  0.5892 -1.1469 -0.4838
13447SOL    HW252815   4.198   7.319   1.673  1.4456 -3.7179 -1.3488
13448SOL     OW52816   1.525   3.111   7.928 -0.2825  0.3295 -0.2345
13448SOL    HW152817   1.589   3.105   8.004 -0.3424 -0.4938 -0.2523
13448SOL    HW252818   1.434   3.084   7.959 -0.2787 -0.1378 -0.6291
13449SOL     OW52819   5.766   1.504   0.475  0.1593  0.0678 -0.0491
13449SOL    HW152820   5.731   1.593   0.504  1.7427  1.4639 -2.3348
13449SOL    HW252821   5.689   1.443   0.456 -0.9446  1.2492  0.5250
13450SOL     OW52822   5.182   4.108   2.776  0.5005  0.1445  0.4406
13450SOL    HW152823   5.280   4.112   2.798  0.3393 -0.0037  1.2137
13450SOL    HW252824   5.166   4.152   2.688  1.4202 -0.8871 -0.2410
13451SOL     OW52825   2.343   0.772   5.028  0.4308 -0.2306 -0.0290
13451SOL    HW152826   2.438   0.779   5.060 -0.0892  0.3160  1.4668
13451SOL    HW252827   2.308   0.681   5.049 -0.0700  0.2885  1.4840
13452SOL     OW52828   8.240   0.172   0.771 -0.3622 -0.3592  0.2273
13452SOL    HW152829   8.174   0.247   0.773  2.2025  1.9267  0.7191
13452SOL    HW252830   8.273   0.154   0.864  2.4815  1.0517 -0.4746
13453SOL     OW52831   1.340   7.133   2.366  0.0932  0.3087  0.3836
13453SOL    HW152832   1.263   7.118   2.305  0.7965 -0.5408 -0.3130
13453SOL    HW252833   1.409   7.189   2.320  1.6317 -2.2148 -0.4530
13454SOL     OW52834   0.736   4.830   8.800  0.0730  0.3047  0.6735
13454SOL    HW152835   0.637   4.842   8.807 -0.2817 -2.2663  0.5497
13454SOL    HW252836   0.782   4.915   8.826 -2.1165  1.0622  2.1897
13455SOL     OW52837   2.019   4.944   6.604  0.0374 -0.2672 -0.5256
13455SOL    HW152838   2.066   4.871   6.655 -1.3732 -0.0496  1.1478
13455SOL    HW252839   1.947   4.905   6.548 -1.5569 -0.0848  1.3408
13456SOL     OW52840   5.046   3.678   1.467  0.0599  0.3760  0.0586
13456SOL    HW152841   4.965   3.640   1.423  0.0086 -0.1337  0.5992
13456SOL    HW252842   5.054   3.775   1.443 -0.1300  0.1754 -0.8369
13457SOL     OW52843   1.474   8.417   6.660 -0.2244  0.1122  0.3824
13457SOL    HW152844   1.569   8.390   6.641 -0.0469  0.9056  0.1223
13457SOL    HW252845   1.416   8.335   6.660  0.2624 -0.2535 -0.6356
13458SOL     OW52846   1.689   0.970   4.045 -0.2100 -0.4708 -0.6537
13458SOL    HW152847   1.760   0.990   3.976  0.2086 -1.3682 -0.4867
13458SOL    HW252848   1.699   1.034   4.122  0.5874 -0.7617 -0.5101
13459SOL     OW52849   1.038   6.862   3.534  0.7581 -0.3344 -0.3306
13459SOL    HW152850   1.005   6.954   3.557 -2.6067 -1.4972 -0.2424
13459SOL    HW252851   1.005   6.797   3.603  2.4285 -1.7374 -0.8257
13460SOL     OW52852   1.546   4.256   5.278 -0.0673 -0.3554  0.5656
13460SOL    HW152853   1.507   4.346   5.294 -0.8361 -0.8199  1.3712
13460SOL    HW252854   1.591   4.254   5.189  0.8801  1.1313  0.9999
13461SOL     OW52855   8.172   8.162   5.461  0.5217 -0.0111  0.3174
13461SOL    HW152856   8.167   8.062   5.464 -1.8129  0.0153 -1.1964
13461SOL    HW252857   8.177   8.192   5.365  1.7569  1.3040  0.7865
13462SOL     OW52858   1.796   4.127   5.888  0.2623 -0.6419  0.7275
13462SOL    HW152859   1.844   4.059   5.943  0.6497 -1.5199 -0.6858
13462SOL    HW252860   1.846   4.144   5.803 -2.6609 -2.7675 -1.5547
13463SOL     OW52861   4.122   0.601   1.322  0.2101 -0.1321 -1.1044
13463SOL    HW152862   4.201   0.643   1.277 -0.1457  0.9660 -0.7282
13463SOL    HW252863   4.149   0.514   1.363  2.1016  1.7472  1.9019
13464SOL     OW52864   0.793   8.807   8.719 -0.4417  0.5189  0.3013
13464SOL    HW152865   0.806   8.823   8.621  1.2121 -2.2072  0.0326
13464SOL    HW252866   0.852   8.868   8.771 -0.5762  1.2709 -0.4222
13465SOL     OW52867   3.603   2.087   4.570 -0.6049  0.1695  0.5687
13465SOL    HW152868   3.689   2.045   4.541 -0.7652  0.6367 -0.5741
13465SOL    HW252869   3.623   2.167   4.627 -0.2540  1.5139 -1.4139
13466SOL     OW52870   1.069   8.738   1.871  0.0196  0.4891  0.2980
13466SOL    HW152871   1.004   8.695   1.807  0.6471  0.2466 -0.1773
13466SOL    HW252872   1.115   8.667   1.924  0.3557  0.6281  0.1912
13467SOL     OW52873   1.928   8.616   6.577 -0.5427  0.3813 -0.3689
13467SOL    HW152874   1.921   8.642   6.481 -1.6388 -0.0076 -0.3953
13467SOL    HW252875   1.920   8.698   6.634  0.7272  0.6945 -0.6149
13468SOL     OW52876   1.286   0.648   1.099  0.3445 -0.0450 -0.1267
13468SOL    HW152877   1.353   0.574   1.095 -0.0325 -0.3808 -0.2303
13468SOL    HW252878   1.329   0.730   1.137  0.4612 -0.6403  1.0271
13469SOL     OW52879   6.255   5.543   8.834 -0.4426 -0.1294  0.0220
13469SOL    HW152880   6.267   5.447   8.812  0.7143  0.3724 -1.6111
13469SOL    HW252881   6.336   5.577   8.882  0.3272  0.7038 -1.8435
13470SOL     OW52882   2.599   5.439   7.570 -0.6746  0.0372  0.3049
13470SOL    HW152883   2.526   5.412   7.632 -3.2747 -0.3955 -2.8308
13470SOL    HW252884   2.561   5.461   7.480  3.1649 -1.8182 -1.9294
13471SOL     OW52885   1.650   1.058   1.211 -0.1840 -0.5523 -0.5665
13471SOL    HW152886   1.625   1.145   1.167  1.3145  0.1627 -0.0302
13471SOL    HW252887   1.749   1.050   1.215 -0.2838 -0.9392  2.0516
13472SOL     OW52888   3.680   4.772   1.970 -0.0541  0.4947  0.0769
13472SOL    HW152889   3.713   4.707   1.902 -1.2490 -0.6334  0.5671
13472SOL    HW252890   3.676   4.727   2.060 -0.7823  1.2774  0.4374
13473SOL     OW52891   1.152   1.004   0.511  0.5908 -0.1225 -0.1123
13473SOL    HW152892   1.225   0.949   0.551  0.5581 -1.7202 -2.1673
13473SOL    HW252893   1.070   0.948   0.500  0.4883  0.3648 -2.0434
13474SOL     OW52894   3.439   6.997   2.269  0.4875 -0.1811 -0.9878
13474SOL    HW152895   3.372   7.067   2.296  1.4969  0.4850 -0.1718
13474SOL    HW252896   3.475   7.018   2.178 -1.2837 -1.2024 -1.9474
13475SOL     OW52897   7.669   7.621   0.306 -0.1032  0.1749 -0.4021
13475SOL    HW152898   7.754   7.653   0.263 -0.4945  1.4661 -0.2393
13475SOL    HW252899   7.617   7.566   0.241  2.1917 -3.1040  0.3828
13476SOL     OW52900   1.139   2.363   6.828  0.2753 -0.0006 -0.1341
13476SOL    HW152901   1.042   2.341   6.816  0.4106  0.5222 -2.3972
13476SOL    HW252902   1.192   2.279   6.832  0.1282 -0.2295 -2.6735
13477SOL     OW52903   0.529   2.016   7.179 -0.4288  0.4900 -0.0115
13477SOL    HW152904   0.572   1.944   7.234  1.2203  2.4981  1.3909
13477SOL    HW252905   0.432   2.021   7.202 -0.0766  0.2759  1.5871
13478SOL     OW52906   4.437   3.703   6.916  0.2379 -0.5943  0.0882
13478SOL    HW152907   4.525   3.698   6.869  0.4744 -0.3915  0.5085
13478SOL    HW252908   4.420   3.618   6.965  1.7913  0.6254  2.8363
13479SOL     OW52909   8.385   2.346   3.999 -0.3823  0.0890 -0.2010
13479SOL    HW152910   8.314   2.304   4.055 -0.2623  2.5380  1.8711
13479SOL    HW252911   8.347   2.370   3.910 -1.4194 -1.0511 -0.0844
13480SOL     OW52912   0.224   7.639   7.327  0.4091  0.0116 -0.2705
13480SOL    HW152913   0.138   7.689   7.322 -0.2906 -1.1113  0.4301
13480SOL    HW252914   0.246   7.601   7.237  1.1819  1.9275 -0.9255
13481SOL     OW52915   0.096   3.274   6.747 -0.5804 -0.2964 -0.2455
13481SOL    HW152916   0.133   3.300   6.837  0.0486 -2.6687  0.2047
13481SOL    HW252917   0.168   3.279   6.679 -0.8336  0.5872 -0.4586
13482SOL     OW52918   1.390   8.814   1.282  0.4427 -0.1176 -0.2891
13482SOL    HW152919   1.362   8.911   1.279  1.1899  0.0530 -3.3115
13482SOL    HW252920   1.343   8.769   1.358 -0.3209  2.4932  0.8648
13483SOL     OW52921   0.782   4.914   4.283  0.2231  0.5827  0.0383
13483SOL    HW152922   0.781   4.815   4.297  1.2439  0.3265 -1.5711
13483SOL    HW252923   0.877   4.945   4.273 -0.1703  1.4903 -0.9956
13484SOL     OW52924   6.398   8.732   7.623  0.4471 -0.3033  0.1604
13484SOL    HW152925   6.329   8.728   7.551  0.2260 -0.0547  0.3563
13484SOL    HW252926   6.365   8.790   7.697  1.8016  1.6167 -0.7185
13485SOL     OW52927   5.031   7.659   5.181  0.8122  0.2108  0.2686
13485SOL    HW152928   4.942   7.673   5.137  1.0693  2.5486  0.4438
13485SOL    HW252929   5.022   7.590   5.254 -0.5844 -0.4045 -0.4736
13486SOL     OW52930   3.972   4.274   4.606  0.1381 -0.4419 -0.3759
13486SOL    HW152931   4.044   4.337   4.633  1.3207 -2.3923  1.1191
13486SOL    HW252932   3.990   4.238   4.514  0.4531 -0.0380 -0.4691
13487SOL     OW52933   5.295   4.534   8.485 -0.1836 -0.4874  0.2784
13487SOL    HW152934   5.250   4.459   8.534 -0.4655  0.7739  1.9938
13487SOL    HW252935   5.394   4.519   8.485 -0.3032 -1.2826 -0.1173
13488SOL     OW52936   2.446   2.890   8.500  0.4123 -0.0529 -0.6338
13488SOL    HW152937   2.425   2.808   8.553  0.3803  0.2530 -0.1762
13488SOL    HW252938   2.545   2.905   8.498  0.3974  0.0579 -0.4850
13489SOL     OW52939   2.418   5.403   4.223 -0.4980  0.2576  0.2371
13489SOL    HW152940   2.328   5.429   4.188  0.1832  1.9668 -0.2531
13489SOL    HW252941   2.462   5.482   4.266  0.4300 -0.7752  1.2224
13490SOL     OW52942   2.393   7.048   7.096  0.3857 -0.0946  0.2401
13490SOL    HW152943   2.319   7.006   7.043 -0.8563  0.9805  1.0805
13490SOL    HW252944   2.460   7.089   7.033 -0.8830  0.8421 -0.5273
13491SOL     OW52945   4.806   7.478   0.055 -0.0118  0.0856 -0.0098
13491SOL    HW152946   4.764   7.486   0.145  0.6038 -0.1290  0.2991
13491SOL    HW252947   4.775   7.553  -0.004 -2.1826 -1.0311 -0.3329
13492SOL     OW52948   2.229   4.300   6.365 -0.3806 -0.4672 -0.2902
13492SOL    HW152949   2.319   4.257   6.359 -0.4367 -0.3124 -2.2919
13492SOL    HW252950   2.240   4.399   6.367 -0.5237 -0.4367 -0.9640
13493SOL     OW52951   4.948   8.278   0.074  0.3514 -0.4365  0.4327
13493SOL    HW152952   4.880   8.209   0.049 -0.8625  0.0952  2.1339
13493SOL    HW252953   4.902   8.355   0.119  2.0507 -0.0124  1.4854
13494SOL     OW52954   0.645   4.436   5.301 -0.4562  0.5403  0.3943
13494SOL    HW152955   0.614   4.444   5.206 -0.6201  2.1598  0.5709
13494SOL    HW252956   0.646   4.527   5.343  0.5337 -0.0462  1.6516
13495SOL     OW52957   1.377   3.960   2.710  0.4031 -1.1249 -1.1061
13495SOL    HW152958   1.424   3.873   2.721 -1.2004 -1.8425  0.3769
13495SOL    HW252959   1.289   3.945   2.664  0.2239 -0.2806 -1.0494
13496SOL     OW52960   5.265   6.761   4.458  0.1618  0.0417 -0.9084
13496SOL    HW152961   5.346   6.777   4.403  1.0618  0.0510  0.3954
13496SOL    HW252962   5.244   6.843   4.511  0.0524 -0.3872 -0.2812
13497SOL     OW52963   8.275   4.479   8.552  0.1273 -0.0952 -0.3053
13497SOL    HW152964   8.320   4.453   8.637 -0.1063 -3.2382 -1.0944
13497SOL    HW252965   8.217   4.404   8.520 -2.9928  2.5572 -1.1336
13498SOL     OW52966   0.350   6.445   0.610 -0.0066 -0.1573  0.1614
13498SOL    HW152967   0.367   6.404   0.700 -2.1450 -0.8217  0.2912
13498SOL    HW252968   0.314   6.376   0.548  0.0698  0.6387 -0.7839
13499SOL     OW52969   4.065   7.299   1.274 -0.0583 -0.1086 -0.0105
13499SOL    HW152970   4.080   7.325   1.370  0.8924 -0.7541  0.0273
13499SOL    HW252971   4.136   7.341   1.218 -1.0483  0.8811 -0.5504
13500SOL     OW52972   4.079   2.217   7.366 -0.6964  0.1811 -0.2951
13500SOL    HW152973   4.078   2.314   7.390 -1.7735 -0.4800  2.5040
13500SOL    HW252974   4.151   2.170   7.417 -1.5846 -0.8793  0.0140
13501SOL     OW52975   0.710   8.901   1.878  0.6194 -0.1617  0.2855
13501SOL    HW152976   0.629   8.909   1.937  0.7934 -2.1316  0.8001
13501SOL    HW252977   0.684   8.921   1.784 -0.3708 -0.3490  0.5131
13502SOL     OW52978   6.523   0.090   2.599  0.1342  0.3187 -0.2559
13502SOL    HW152979   6.505   0.147   2.678 -0.6187 -1.1391  0.6488
13502SOL    HW252980   6.437   0.053   2.563  0.6814 -1.2828 -0.0011
13503SOL     OW52981   2.313   3.681   0.256  0.2674 -0.3577  0.2739
13503SOL    HW152982   2.398   3.639   0.225 -0.4058 -1.2447 -0.4108
13503SOL    HW252983   2.296   3.656   0.351  0.5558 -0.5442  0.2755
13504SOL     OW52984   0.990   6.839   8.131  0.4565  0.6470 -0.2992
13504SOL    HW152985   0.980   6.916   8.068 -0.2122  1.0224  0.2614
13504SOL    HW252986   0.918   6.843   8.200  1.6010  0.6542  0.9236
13505SOL     OW52987   1.389   4.770   4.153 -0.1091 -0.0993 -0.5112
13505SOL    HW152988   1.294   4.743   4.142  0.0063 -0.7341  0.0175
13505SOL    HW252989   1.396   4.839   4.225  0.0503 -1.3818  0.7115
13506SOL     OW52990   7.194   6.059   7.467  0.4053  0.5668  0.2421
13506SOL    HW152991   7.286   6.094   7.452  0.4515 -0.2894 -1.4911
13506SOL    HW252992   7.128   6.134   7.455  0.7169  0.7115 -0.5684
13507SOL     OW52993   6.643   4.566   4.225  0.7564  0.4987 -0.1854
13507SOL    HW152994   6.655   4.654   4.180 -3.1580  1.0899 -0.2179
13507SOL    HW252995   6.641   4.579   4.324  3.0716  0.0052 -0.0347
13508SOL     OW52996   8.920   3.461   3.171 -0.0492 -0.3974 -0.0147
13508SOL    HW152997   8.959   3.454   3.079  1.5967  0.0276  0.6246
13508SOL    HW252998   8.855   3.386   3.186  1.5828 -1.9923 -0.6382
13509SOL     OW52999   1.211   6.363   6.478  0.5447 -0.3839 -0.5184
13509SOL    HW153000   1.178   6.353   6.572  0.8714  2.2939 -0.0697
13509SOL    HW253001   1.310   6.345   6.476  1.1102  2.4061  0.2465
13510SOL     OW53002   3.205   4.334   5.781  0.8325 -0.4470  0.1434
13510SOL    HW153003   3.184   4.287   5.867 -2.4995  0.0109 -0.3298
13510SOL    HW253004   3.221   4.266   5.709 -0.6985 -0.8804  0.1879
13511SOL     OW53005   8.972   0.941   5.994 -0.3213 -0.7856  0.1508
13511SOL    HW153006   8.902   1.012   5.984 -0.2514 -0.8453 -0.8054
13511SOL    HW253007   8.938   0.870   6.056 -0.6515 -0.2487  0.5957
13512SOL     OW53008   8.459   1.066   1.628  0.4667  0.2176 -0.0036
13512SOL    HW153009   8.364   1.067   1.594  0.9065 -1.2888 -1.3269
13512SOL    HW253010   8.465   1.125   1.708 -1.8783 -0.6215  0.8469
13513SOL     OW53011   8.063   5.639   5.749 -1.0809 -0.4162  0.1133
13513SOL    HW153012   7.968   5.653   5.720 -1.0324  1.2443  0.7159
13513SOL    HW253013   8.120   5.623   5.669 -1.5917  0.2217 -0.3822
13514SOL     OW53014   1.736   8.955   8.792 -0.3564 -0.1545  0.0477
13514SOL    HW153015   1.720   8.857   8.806  0.0159 -0.6605 -2.7095
13514SOL    HW253016   1.835   8.971   8.785 -0.4509  0.3294 -0.1747
13515SOL     OW53017   0.105   2.894   4.515 -0.5044 -0.0211  0.0627
13515SOL    HW153018   0.028   2.956   4.529 -0.8565 -0.8700  2.0861
13515SOL    HW253019   0.073   2.800   4.521  0.7686 -0.3789  1.4842
13516SOL     OW53020   8.977   3.373   6.260 -0.2769 -0.0369  0.2785
13516SOL    HW153021   8.910   3.381   6.334  0.1482 -2.5084  0.9852
13516SOL    HW253022   8.967   3.284   6.216 -0.2686  1.2599 -2.4352
13517SOL     OW53023   8.330   5.478   1.558  0.1532  0.3437 -0.0491
13517SOL    HW153024   8.317   5.383   1.585  1.2934  0.3421  0.4942
13517SOL    HW253025   8.247   5.530   1.581 -0.9488 -0.7352 -1.4504
13518SOL     OW53026   8.252   8.519   6.476  0.4442  0.0514  0.3821
13518SOL    HW153027   8.297   8.430   6.478  0.2801 -0.0290  0.5326
13518SOL    HW253028   8.248   8.556   6.569  0.1336  0.0245  0.3800
13519SOL     OW53029   6.446   2.364   0.141  0.1996 -0.1783 -0.5548
13519SOL    HW153030   6.489   2.287   0.187 -0.2698 -0.2803 -0.2923
13519SOL    HW253031   6.353   2.340   0.114 -0.3438  0.6738  0.5353
13520SOL     OW53032   3.113   5.655   5.412 -0.1047 -0.1484  0.1968
13520SOL    HW153033   3.179   5.627   5.343  2.1325  0.6841  1.9261
13520SOL    HW253034   3.076   5.574   5.457  0.2732 -0.6073 -0.3100
13521SOL     OW53035   2.019   5.896   2.824 -0.3684 -0.1718 -0.5399
13521SOL    HW153036   2.032   5.974   2.885  0.6560 -1.5610  1.0754
13521SOL    HW253037   2.055   5.918   2.733  1.2729  0.7390  0.2948
13522SOL     OW53038   4.243   7.918   6.684 -0.1147 -0.4161 -0.3637
13522SOL    HW153039   4.187   7.999   6.666 -1.3084 -1.1176  0.1172
13522SOL    HW253040   4.228   7.887   6.778  3.8586  1.5143  1.0163
13523SOL     OW53041   4.021   5.869   3.181 -0.0920  0.4673 -0.1372
13523SOL    HW153042   3.957   5.825   3.118  0.1521 -1.3672  0.8532
13523SOL    HW253043   4.114   5.863   3.143  0.1576 -1.2867  0.6934
13524SOL     OW53044   3.409   6.672   6.825  0.1319 -0.3316  0.0891
13524SOL    HW153045   3.329   6.706   6.777  0.3505 -0.6213 -0.4856
13524SOL    HW253046   3.445   6.591   6.778  1.5242  0.5616 -0.4116
13525SOL     OW53047   5.755   7.154   3.034 -0.0030  0.6684  0.6605
13525SOL    HW153048   5.699   7.116   2.961  0.7619 -0.1088  0.4727
13525SOL    HW253049   5.773   7.083   3.103 -0.6853  1.3797  1.5843
13526SOL     OW53050   8.733   1.556   5.741 -0.2852 -0.2184  0.4773
13526SOL    HW153051   8.657   1.598   5.691  0.0678 -1.1819 -0.8920
13526SOL    HW253052   8.811   1.619   5.741 -0.4476 -0.0126  0.2416
13527SOL     OW53053   0.225   6.413   5.468 -0.2540  0.0706  0.3263
13527SOL    HW153054   0.127   6.406   5.490 -0.6001  1.5062 -0.6355
13527SOL    HW253055   0.279   6.374   5.542 -1.5698 -0.9707  0.7518
13528SOL     OW53056   8.984   5.049   5.048 -0.0750  0.2884  0.5105
13528SOL    HW153057   9.051   5.102   5.101  0.8799  0.4141 -0.7873
13528SOL    HW253058   9.030   4.973   5.003 -0.5401  1.0850 -1.3811
13529SOL     OW53059   2.243   7.405   4.153 -0.0122 -0.4093 -0.1708
13529SOL    HW153060   2.308   7.362   4.091  0.9104  0.4764  0.1728
13529SOL    HW253061   2.150   7.378   4.128  0.6022 -3.5230  0.7668
13530SOL     OW53062   0.961   6.097   6.101 -0.4477 -0.1576  0.3238
13530SOL    HW153063   0.956   6.185   6.053 -0.5892 -0.4051 -0.1143
13530SOL    HW253064   1.056   6.065   6.101 -0.1178  0.7670  1.8784
13531SOL     OW53065   2.401   5.352   6.287  0.4734 -0.1381  0.1582
13531SOL    HW153066   2.440   5.278   6.341  1.0484 -1.7093 -2.3423
13531SOL    HW253067   2.301   5.344   6.287  0.6019 -2.0221 -1.5875
13532SOL     OW53068   4.603   4.389   5.860  0.3704  0.0815 -0.1065
13532SOL    HW153069   4.653   4.411   5.944 -0.1634  1.3295 -0.1170
13532SOL    HW253070   4.658   4.416   5.781 -0.2841  1.3622 -0.1200
13533SOL     OW53071   2.754   6.698   5.420  1.0620 -0.4392 -0.1545
13533SOL    HW153072   2.715   6.691   5.512  1.8253 -2.1656  0.0573
13533SOL    HW253073   2.787   6.791   5.405 -0.9692  0.4314  0.5222
13534SOL     OW53074   5.537   6.473   7.140  0.1121 -0.1837  0.0970
13534SOL    HW153075   5.467   6.508   7.202  0.7335  0.2432  0.5584
13534SOL    HW253076   5.493   6.428   7.062 -0.6689 -0.3954  0.6602
13535SOL     OW53077   2.596   7.844   3.133 -0.2987 -0.3100 -0.1057
13535SOL    HW153078   2.510   7.888   3.158 -0.4614 -0.1957 -0.8521
13535SOL    HW253079   2.669   7.913   3.131 -0.3955 -0.2182 -0.4907
13536SOL     OW53080   1.052   6.899   1.267  0.4934 -0.4556  0.0098
13536SOL    HW153081   1.144   6.915   1.232  1.3259 -1.7970  1.5295
13536SOL    HW253082   1.030   6.802   1.261 -0.7475 -0.1788 -0.1354
13537SOL     OW53083   4.894   0.616   2.349 -0.4174 -0.0017  0.3078
13537SOL    HW153084   4.929   0.709   2.341  0.6374 -0.2289  1.9937
13537SOL    HW253085   4.968   0.551   2.332 -1.0595 -0.5372 -0.4763
13538SOL     OW53086   3.166   2.163   8.317  0.0983 -0.3756  0.6991
13538SOL    HW153087   3.234   2.203   8.378  0.1314  1.2626 -0.3889
13538SOL    HW253088   3.077   2.203   8.336  0.6332  2.4657 -2.3347
13539SOL     OW53089   4.209   8.378   3.865 -0.3332 -0.3395 -0.0925
13539SOL    HW153090   4.210   8.373   3.964  1.2490  2.2081  0.0633
13539SOL    HW253091   4.294   8.420   3.833 -1.4857  0.2995 -2.4229
13540SOL     OW53092   7.937   5.271   4.995  0.2523 -0.7709  0.1133
13540SOL    HW153093   7.889   5.352   5.030  1.0928 -0.3776  0.3848
13540SOL    HW253094   7.897   5.243   4.909 -0.5248 -0.4998  0.3842
13541SOL     OW53095   8.684   6.230   1.850  0.1837  0.7500  0.3576
13541SOL    HW153096   8.782   6.214   1.863  0.3076  1.4592  0.3018
13541SOL    HW253097   8.663   6.326   1.866 -0.3498  0.7933 -0.5529
13542SOL     OW53098   4.905   4.439   7.274 -0.6376  0.3511  0.8066
13542SOL    HW153099   4.896   4.527   7.227  0.6228  0.8710  1.5096
13542SOL    HW253100   4.815   4.397   7.282 -1.2972  1.6802  0.6697
13543SOL     OW53101   1.779   2.813   3.410  0.2263  0.2065  0.0118
13543SOL    HW153102   1.839   2.887   3.439 -0.5710  0.6225  0.5948
13543SOL    HW253103   1.734   2.772   3.490 -2.4300  1.7411 -0.6356
13544SOL     OW53104   5.208   8.803   8.572 -0.1027 -0.0192  0.1699
13544SOL    HW153105   5.216   8.901   8.593 -0.1617  0.2913 -1.2444
13544SOL    HW253106   5.226   8.750   8.655 -1.2649  1.2261  1.2385
13545SOL     OW53107   3.153   4.277   5.478 -0.4443 -0.1648 -0.0271
13545SOL    HW153108   3.247   4.248   5.457 -0.1803  1.0889 -0.6421
13545SOL    HW253109   3.113   4.320   5.398 -1.8584 -1.4356 -0.0152
13546SOL     OW53110   0.824   6.619   6.470 -0.3721  0.1665  0.4838
13546SOL    HW153111   0.806   6.521   6.484 -0.6651  0.2487  0.6762
13546SOL    HW253112   0.740   6.671   6.486 -0.1612  0.4714  0.6004
13547SOL     OW53113   1.676   6.297   6.802  0.1700  0.2766  0.6950
13547SOL    HW153114   1.677   6.386   6.848  2.6362 -0.4226  2.1399
13547SOL    HW253115   1.678   6.224   6.870  0.6883 -0.8355 -0.4745
13548SOL     OW53116   0.873   7.332   2.640 -0.0375  0.6654  0.1398
13548SOL    HW153117   0.965   7.355   2.673  0.8027 -1.9058 -0.2895
13548SOL    HW253118   0.878   7.298   2.546 -0.8195 -3.4059  1.4686
13549SOL     OW53119   5.824   8.575   5.105  0.3849 -0.1024  0.2236
13549SOL    HW153120   5.796   8.547   5.013 -1.6287  0.0914  0.7718
13549SOL    HW253121   5.910   8.626   5.099  0.9901 -1.2614 -1.4025
13550SOL     OW53122   3.745   4.056   3.751 -0.2334  0.1520  0.2441
13550SOL    HW153123   3.694   3.971   3.768  1.7292 -1.1455 -0.1951
13550SOL    HW253124   3.775   4.059   3.656 -2.1683  2.4351 -0.3569
13551SOL     OW53125   3.787   2.972   3.999  0.5257  0.2812 -0.1834
13551SOL    HW153126   3.831   2.947   4.085  0.5210  1.5788  0.2076
13551SOL    HW253127   3.813   3.066   3.974  0.6420 -0.1284 -1.6698
13552SOL     OW53128   5.958   0.674   1.835 -0.3961 -0.2943 -0.0367
13552SOL    HW153129   5.963   0.579   1.804 -0.2767 -0.5368  0.7081
13552SOL    HW253130   6.029   0.727   1.790 -0.4046 -0.5733 -0.3889
13553SOL     OW53131   4.734   5.364   6.491  0.3633 -0.3539  0.4346
13553SOL    HW153132   4.713   5.432   6.420  1.9142 -0.1397  0.1583
13553SOL    HW253133   4.649   5.332   6.533 -0.5303  0.0240 -1.0512
13554SOL     OW53134   8.457   4.601   0.626 -0.3390  0.3269  0.1146
13554SOL    HW153135   8.522   4.631   0.557 -0.4803  0.3086 -0.0253
13554SOL    HW253136   8.506   4.552   0.699 -0.0207  1.4677  0.6760
13555SOL     OW53137   2.986   7.752   3.393 -0.1113  0.3983 -0.2215
13555SOL    HW153138   2.953   7.843   3.367 -0.0546  0.3670 -0.4017
13555SOL    HW253139   2.951   7.729   3.484 -1.4929 -0.0764 -0.8602
13556SOL     OW53140   1.131   4.094   0.917 -0.0899  0.5396  0.0916
13556SOL    HW153141   1.176   4.180   0.895 -1.2334  1.1357  0.0424
13556SOL    HW253142   1.034   4.111   0.935 -0.1671 -0.6271  0.8320
13557SOL     OW53143   2.165   7.813   7.577  0.7740  0.3398 -0.2662
13557SOL    HW153144   2.206   7.898   7.611 -2.7359  2.2055 -0.5466
13557SOL    HW253145   2.134   7.758   7.654 -3.8853  2.9117 -0.1453
13558SOL     OW53146   3.506   3.990   5.070 -0.8964 -0.1122 -0.1482
13558SOL    HW153147   3.500   3.952   4.978  1.3069  2.2358 -1.3488
13558SOL    HW253148   3.420   4.037   5.093 -1.4822 -0.7791 -0.9568
13559SOL     OW53149   1.450   7.092   3.801  0.2211 -1.0522  0.1518
13559SOL    HW153150   1.357   7.071   3.771 -0.5769  0.4094  1.4959
13559SOL    HW253151   1.514   7.076   3.726 -1.2190 -1.2639 -1.0476
13560SOL     OW53152   7.586   5.424   2.981 -0.0440  0.4666  0.0465
13560SOL    HW153153   7.653   5.495   3.002 -0.4547  0.6911  0.6134
13560SOL    HW253154   7.573   5.366   3.062 -1.1904  0.9601  0.2135
13561SOL     OW53155   1.263   1.991   7.425  0.4543 -0.0951 -0.7300
13561SOL    HW153156   1.291   1.921   7.490  0.4660  2.3274  1.9589
13561SOL    HW253157   1.338   2.007   7.360  0.6050 -2.2325 -1.1196
13562SOL     OW53158   3.480   7.746   6.672 -0.2815 -0.0167  0.1974
13562SOL    HW153159   3.442   7.729   6.581  1.3093 -3.3547  0.0683
13562SOL    HW253160   3.430   7.691   6.739 -0.0868  0.8072  1.0125
13563SOL     OW53161   4.310   7.969   0.515  0.1748 -0.2805 -0.1364
13563SOL    HW153162   4.394   8.020   0.497 -0.8223  1.6450  0.5486
13563SOL    HW253163   4.273   7.934   0.429 -0.3023  2.0603 -0.9186
13564SOL     OW53164   6.354   4.359   2.031  0.4367 -0.3889 -0.1736
13564SOL    HW153165   6.355   4.430   2.101  1.4502  0.3545 -0.9145
13564SOL    HW253166   6.330   4.401   1.943  0.5661 -1.0595 -0.5285
13565SOL     OW53167   6.615   3.615   3.163  0.5594  0.7447 -0.0818
13565SOL    HW153168   6.610   3.516   3.149  0.9350  0.7890 -0.5455
13565SOL    HW253169   6.575   3.662   3.084 -0.6748  0.9467  0.6624
13566SOL     OW53170   6.482   3.720   4.972 -0.2573  0.0675 -0.1154
13566SOL    HW153171   6.400   3.725   5.030 -1.0691 -0.0695 -1.2334
13566SOL    HW253172   6.526   3.810   4.969 -0.3654  0.1436  0.4840
13567SOL     OW53173   2.765   3.985   2.202 -0.0565  0.3405  0.2762
13567SOL    HW153174   2.738   4.037   2.283 -0.9370 -0.0851  0.2640
13567SOL    HW253175   2.743   3.889   2.216 -2.5004  0.6001 -1.4199
13568SOL     OW53176   4.853   2.602   5.029 -0.4122  0.2023 -0.3167
13568SOL    HW153177   4.838   2.503   5.033  2.4040 -0.4010 -3.0132
13568SOL    HW253178   4.819   2.637   4.941  0.8137  1.2268 -0.3920
13569SOL     OW53179   0.166   0.802   6.324 -0.0311  0.4626  0.1681
13569SOL    HW153180   0.081   0.782   6.276  0.1559  0.3284 -0.1097
13569SOL    HW253181   0.240   0.746   6.286  0.0603  0.1506  0.8017
13570SOL     OW53182   1.869   3.111   3.958  0.1201 -0.0553 -0.0318
13570SOL    HW153183   1.877   3.174   3.881 -0.5239 -0.2174 -0.2317
13570SOL    HW253184   1.943   3.043   3.953  0.3073  0.1675 -0.2904
13571SOL     OW53185   4.308   3.536   7.437 -0.4542 -0.1115 -0.1387
13571SOL    HW153186   4.349   3.627   7.442 -0.2855 -0.0558 -2.1397
13571SOL    HW253187   4.215   3.543   7.401 -0.4844 -0.7140 -0.1880
13572SOL     OW53188   1.574   6.095   7.012  0.6267  0.3380 -0.0411
13572SOL    HW153189   1.617   6.051   7.090  0.6230 -0.2357 -0.3655
13572SOL    HW253190   1.475   6.098   7.026  0.6292  0.2677 -0.0114
13573SOL     OW53191   7.691   2.226   0.149  0.8301  0.1821  0.4729
13573SOL    HW153192   7.784   2.225   0.112  0.2548  0.7275 -0.9998
13573SOL    HW253193   7.629   2.181   0.085  0.0413 -0.0709  1.3952
13574SOL     OW53194   2.235   1.853   6.006  0.2320  0.9622 -0.1244
13574SOL    HW153195   2.209   1.903   5.923 -0.8564 -1.8651 -1.5506
13574SOL    HW253196   2.306   1.787   5.984  0.2067  0.4410  1.3049
13575SOL     OW53197   0.567   2.836   5.616 -0.1617  0.3353  0.4069
13575SOL    HW153198   0.542   2.867   5.524 -1.7923  0.2329  0.7986
13575SOL    HW253199   0.665   2.848   5.630  0.0230  0.7626 -1.1899
13576SOL     OW53200   2.963   8.865   6.582  0.1621  0.4744 -0.1748
13576SOL    HW153201   2.916   8.779   6.600  0.4890  0.3784  0.2286
13576SOL    HW253202   2.994   8.904   6.669 -4.2475  3.4437  0.2286
13577SOL     OW53203   3.733   3.670   3.812 -0.2488  0.0467  0.4274
13577SOL    HW153204   3.652   3.724   3.835 -0.8353  0.5623 -2.7119
13577SOL    HW253205   3.813   3.710   3.857 -1.3893  0.7615  1.8748
13578SOL     OW53206   0.634   1.463   7.467 -0.0671 -0.0284  0.0962
13578SOL    HW153207   0.733   1.466   7.452 -0.5004  3.2767 -2.7566
13578SOL    HW253208   0.608   1.534   7.532 -0.7592  0.1526 -0.3784
13579SOL     OW53209   6.900   2.112   3.288  0.2007  0.0238 -0.3804
13579SOL    HW153210   6.879   2.155   3.376 -1.0141  1.2177 -1.2387
13579SOL    HW253211   6.992   2.139   3.259 -0.4096  1.8164 -0.7390
13580SOL     OW53212   8.541   5.682   8.111 -0.1850 -0.3570 -0.3682
13580SOL    HW153213   8.482   5.743   8.164 -1.3977 -1.5045 -0.3732
13580SOL    HW253214   8.497   5.660   8.024 -0.6917 -2.8201  0.4790
13581SOL     OW53215   0.800   3.746   7.259 -0.1930  0.5788 -0.7179
13581SOL    HW153216   0.723   3.735   7.322  0.2990  2.2265  0.1915
13581SOL    HW253217   0.780   3.698   7.173 -1.5635 -0.3069  0.0766
13582SOL     OW53218   3.961   0.892   0.732  0.1327  0.1674  0.0661
13582SOL    HW153219   4.005   0.972   0.690 -0.5219  0.9478  0.8553
13582SOL    HW253220   3.875   0.919   0.775  1.2806 -0.3805  2.8372
13583SOL     OW53221   6.033   4.670   3.865 -0.0975  0.0796  0.0030
13583SOL    HW153222   5.935   4.663   3.846  0.2775 -1.2096 -1.5588
13583SOL    HW253223   6.080   4.708   3.785  0.6617  0.8146  0.7913
13584SOL     OW53224   3.227   1.848   5.826 -0.6544 -0.3956 -0.3266
13584SOL    HW153225   3.295   1.799   5.880  0.3622  1.2471 -0.0725
13584SOL    HW253226   3.145   1.792   5.817  0.1652 -1.7882  0.6437
13585SOL     OW53227   2.784   0.040   0.936  0.1639  0.2404  0.0081
13585SOL    HW153228   2.692   0.041   0.897 -0.4633 -0.3449  1.4318
13585SOL    HW253229   2.835  -0.038   0.901  0.3315  0.9067 -1.2507
13586SOL     OW53230   2.529   2.058   4.918  0.1910  0.2722 -0.9611
13586SOL    HW153231   2.568   1.982   4.867 -1.2726 -0.9201 -0.3378
13586SOL    HW253232   2.465   2.108   4.859 -1.7144 -1.2732 -0.2913
13587SOL     OW53233   3.642   5.815   5.303 -0.0175  0.0222 -0.1583
13587SOL    HW153234   3.671   5.821   5.208 -1.4153 -1.3177 -0.6996
13587SOL    HW253235   3.711   5.856   5.362 -0.6343  4.0048 -1.9858
13588SOL     OW53236   3.240   7.861   6.006 -0.0825  0.7376  0.3158
13588SOL    HW153237   3.235   7.951   6.048 -0.5865  0.2135  1.4064
13588SOL    HW253238   3.316   7.858   5.941  1.2721  1.3135  1.8337
13589SOL     OW53239   8.325   7.308   2.346  0.0995  0.7241  0.1876
13589SOL    HW153240   8.325   7.238   2.417  1.3871  0.0156 -0.5027
13589SOL    HW253241   8.394   7.287   2.277  1.7158  3.5380  0.8471
13590SOL     OW53242   8.765   3.774   6.843 -0.1717 -0.5117 -0.2811
13590SOL    HW153243   8.830   3.714   6.888 -0.8393 -0.6206  0.5626
13590SOL    HW253244   8.806   3.812   6.760  1.2185  0.0025  0.6218
13591SOL     OW53245   8.503   7.233   7.998  0.3035  0.2376 -0.2605
13591SOL    HW153246   8.545   7.299   7.936  2.0309  0.7712  1.4255
13591SOL    HW253247   8.568   7.159   8.016 -0.5604 -0.4327  0.1178
13592SOL     OW53248   4.917   1.452   6.278  0.0473 -0.3467 -0.2871
13592SOL    HW153249   4.922   1.353   6.267 -0.4517 -0.3538 -0.4794
13592SOL    HW253250   4.927   1.476   6.374 -1.3535 -0.6852 -0.0537
13593SOL     OW53251   3.570   8.668   3.365  0.5013  0.4870  0.6945
13593SOL    HW153252   3.654   8.615   3.356  0.0445 -0.2339  0.7121
13593SOL    HW253253   3.496   8.609   3.394  0.0737  1.2086  1.0834
13594SOL     OW53254   3.469   7.351   2.592  0.3140  0.6832  0.0312
13594SOL    HW153255   3.504   7.443   2.577 -1.4391  1.2364 -0.8326
13594SOL    HW253256   3.480   7.297   2.508  1.7173 -0.0330  0.6645
13595SOL     OW53257   4.056   0.868   8.392  0.0359 -0.1265 -0.1678
13595SOL    HW153258   3.980   0.877   8.455 -0.0855  1.1907 -0.4815
13595SOL    HW253259   4.057   0.946   8.329  1.9158  0.1330  0.1399
13596SOL     OW53260   5.139   3.668   1.073  0.1513  0.1793  0.2848
13596SOL    HW153261   5.208   3.740   1.075 -0.9668  1.2561  0.0350
13596SOL    HW253262   5.144   3.618   0.987 -1.5997  2.4455 -1.1883
13597SOL     OW53263   8.641   8.313   2.896 -0.1319 -0.0155 -0.2099
13597SOL    HW153264   8.737   8.286   2.885  0.5575  1.6806  1.3054
13597SOL    HW253265   8.600   8.326   2.806  1.0585 -0.7605 -0.8760
13598SOL     OW53266   6.491   5.590   6.441  0.1460  0.4017  0.7728
13598SOL    HW153267   6.578   5.631   6.413 -0.0096 -0.2910 -0.7701
13598SOL    HW253268   6.422   5.662   6.452  0.9462  0.9643  2.1226
13599SOL     OW53269   3.485   0.811   1.063  0.6486 -0.6245  0.0378
13599SOL    HW153270   3.581   0.783   1.066  0.9693  0.5945  2.3813
13599SOL    HW253271   3.478   0.899   1.016  0.7575 -0.4106  0.4220
13600SOL     OW53272   2.307   2.281   8.008  0.0756  0.4314  0.6236
13600SOL    HW153273   2.369   2.342   7.959  1.5500 -1.5034  0.0371
13600SOL    HW253274   2.338   2.270   8.103 -0.5628  1.0764  0.9183
13601SOL     OW53275   0.488   4.096   1.783  0.5988 -0.3401  0.0737
13601SOL    HW153276   0.582   4.076   1.756  0.8800  2.0696 -0.9087
13601SOL    HW253277   0.424   4.044   1.726  1.3052  0.2660 -1.2955
13602SOL     OW53278   1.908   4.923   6.937  0.1234 -0.5849  0.0646
13602SOL    HW153279   1.997   4.890   6.906  1.4130  2.0464  0.7774
13602SOL    HW253280   1.878   4.999   6.879 -0.4099  0.2582  1.4192
13603SOL     OW53281   8.782   6.153   6.628  0.4734 -0.8543 -0.3076
13603SOL    HW153282   8.794   6.057   6.604 -0.0763 -0.9544 -0.1864
13603SOL    HW253283   8.870   6.199   6.625  1.0616 -1.8128  1.6075
13604SOL     OW53284   2.614   3.176   2.552 -0.0268 -0.2737 -0.8421
13604SOL    HW153285   2.532   3.163   2.607  0.2711 -1.7625 -0.7446
13604SOL    HW253286   2.660   3.088   2.537  1.3484  0.4841 -1.2163
13605SOL     OW53287   1.153   3.614   5.555  0.1452  0.3976 -0.3708
13605SOL    HW153288   1.069   3.664   5.536 -0.6075 -0.1515  1.3555
13605SOL    HW253289   1.217   3.674   5.603  0.0737  0.3466 -0.2078
13606SOL     OW53290   7.738   3.716   0.856 -0.1589 -0.4103 -0.2130
13606SOL    HW153291   7.728   3.752   0.763  0.1073 -0.3476 -0.2189
13606SOL    HW253292   7.660   3.744   0.911 -0.2351 -0.3045 -0.3734
13607SOL     OW53293   8.531   7.573   7.913  0.7605 -0.2876 -0.2111
13607SOL    HW153294   8.612   7.515   7.906  0.3799 -0.9939  1.0876
13607SOL    HW253295   8.546   7.644   7.982  0.8155  0.4942 -1.0188
13608SOL     OW53296   2.034   1.149   3.366  0.1073 -0.0334  0.1906
13608SOL    HW153297   2.061   1.242   3.391  0.9586  0.1292 -1.3118
13608SOL    HW253298   1.935   1.145   3.357 -0.0249  0.4636  1.2662
13609SOL     OW53299   8.052   7.544   2.039  0.4439 -0.4095  0.1380
13609SOL    HW153300   8.147   7.574   2.032  0.0012  0.6587 -1.9185
13609SOL    HW253301   7.999   7.585   1.964 -0.9176 -3.6984 -0.7777
13610SOL     OW53302   4.308   2.743   3.495  0.1673  0.5711 -0.1984
13610SOL    HW153303   4.321   2.705   3.586  1.8820 -0.3170 -0.8010
13610SOL    HW253304   4.397   2.756   3.451 -0.5660  2.3092 -1.2115
13611SOL     OW53305   8.074   5.690   6.334  0.1416  0.4843 -0.1900
13611SOL    HW153306   8.021   5.764   6.291  0.0665 -0.3960 -1.6452
13611SOL    HW253307   8.017   5.645   6.403 -0.1930  1.0491 -0.0885
13612SOL     OW53308   6.478   8.555   7.968  0.1202 -0.1694  0.3624
13612SOL    HW153309   6.572   8.550   7.935  0.2800 -0.0733  0.8068
13612SOL    HW253310   6.447   8.465   7.997 -0.4066 -0.4732 -1.1206
13613SOL     OW53311   6.785   7.507   6.249  0.8969  0.4488  0.3907
13613SOL    HW153312   6.748   7.568   6.319 -1.6120  0.6755 -1.0707
13613SOL    HW253313   6.787   7.413   6.285 -1.2665  0.4134  0.4716
13614SOL     OW53314   6.972   0.033   7.271  0.3156 -0.4315 -0.8134
13614SOL    HW153315   7.057   0.061   7.314  1.0734 -1.3182 -1.6899
13614SOL    HW253316   6.904   0.105   7.280  0.4579 -0.5574  1.7935
13615SOL     OW53317   6.485   3.254   4.930 -0.1267 -0.5514  0.2604
13615SOL    HW153318   6.500   3.350   4.906  0.1857 -0.3991  1.0376
13615SOL    HW253319   6.552   3.226   4.999  0.6876 -1.7383 -0.9713
13616SOL     OW53320   3.502   6.821   0.087 -0.4228  0.0953  0.3347
13616SOL    HW153321   3.515   6.897   0.150 -0.2768 -0.9626  1.6094
13616SOL    HW253322   3.512   6.735   0.137 -0.9517 -0.7589 -1.0121
13617SOL     OW53323   4.208   5.748   6.995 -0.6210 -0.6059 -0.1323
13617SOL    HW153324   4.203   5.783   6.902  2.5794 -0.4948 -0.2994
13617SOL    HW253325   4.173   5.817   7.059  0.9260  0.9217 -0.9099
13618SOL     OW53326   0.700   3.995   7.108  0.2699 -0.9404  0.4535
13618SOL    HW153327   0.623   4.053   7.083  1.5466  0.8661  0.6057
13618SOL    HW253328   0.736   3.949   7.027  0.9754  0.6334 -0.1328
13619SOL     OW53329   7.180   3.596   4.198  0.2250  0.3590 -0.9367
13619SOL    HW153330   7.249   3.668   4.191  0.2270  0.9160  3.4439
13619SOL    HW253331   7.089   3.636   4.186  0.3364  0.8074 -0.3521
13620SOL     OW53332   7.233   0.123   7.336 -0.2451 -0.2059 -0.4429
13620SOL    HW153333   7.308   0.116   7.270 -1.2028 -1.2017 -1.4436
13620SOL    HW253334   7.269   0.109   7.429  1.2453  2.0594 -0.6473
13621SOL     OW53335   7.422   5.541   4.087 -0.1379  0.0818 -0.4307
13621SOL    HW153336   7.381   5.512   4.000  0.5770  1.0634 -1.1171
13621SOL    HW253337   7.434   5.641   4.085 -0.1177  0.1017  0.7997
13622SOL     OW53338   7.563   5.111   2.955 -0.5724 -0.2897 -0.0300
13622SOL    HW153339   7.573   5.162   3.041  0.0449 -2.4606  1.2350
13622SOL    HW253340   7.538   5.016   2.976  1.4348 -1.3260 -2.1571
13623SOL     OW53341   2.632   0.990   2.491  0.0240 -0.3494 -0.4169
13623SOL    HW153342   2.621   0.965   2.587 -0.2045  1.2538 -0.0022
13623SOL    HW253343   2.708   0.938   2.452 -0.3217 -1.5157  0.4353
13624SOL     OW53344   0.102   8.834   7.603 -0.0838 -1.2259  0.5964
13624SOL    HW153345   0.183   8.879   7.565 -2.5945  2.5841 -0.5718
13624SOL    HW253346   0.058   8.780   7.532 -0.2949 -0.6972  0.3203
13625SOL     OW53347   0.391   2.746   5.211 -0.4490  0.3848 -0.3559
13625SOL    HW153348   0.477   2.797   5.212  0.7871 -1.6095 -0.8519
13625SOL    HW253349   0.403   2.660   5.261 -1.9466 -0.2418 -1.0359
13626SOL     OW53350   7.971   0.393   6.127  0.9096  0.1343  0.1935
13626SOL    HW153351   7.945   0.317   6.068  1.8243 -0.2779  0.3184
13626SOL    HW253352   7.913   0.472   6.106  0.0422 -0.5498 -0.0239
13627SOL     OW53353   8.141   4.057   1.594 -0.1849  0.0074 -0.0166
13627SOL    HW153354   8.210   4.030   1.528 -0.3606 -0.8658  0.1405
13627SOL    HW253355   8.060   3.998   1.584 -1.2901  1.6551 -0.8492
13628SOL     OW53356   7.792   1.336   0.965 -0.6909  0.0712 -0.2940
13628SOL    HW153357   7.874   1.393   0.969  0.0140 -0.9963  2.4259
13628SOL    HW253358   7.711   1.392   0.982 -0.1159  0.5148  1.1267
13629SOL     OW53359   8.058   2.669   5.229  0.5418 -0.2171 -0.1117
13629SOL    HW153360   8.005   2.750   5.253  0.6818 -0.1693  0.0435
13629SOL    HW253361   8.052   2.652   5.131  0.4579 -0.0585 -0.1326
13630SOL     OW53362   4.284   6.933   7.297  0.5403  0.2349  0.4016
13630SOL    HW153363   4.312   6.853   7.349 -0.0299 -0.0481  0.2811
13630SOL    HW253364   4.361   6.968   7.244  1.3264  0.9646  2.0038
13631SOL     OW53365   7.238   2.502   6.520  0.0585  0.5043 -0.5799
13631SOL    HW153366   7.220   2.600   6.522  1.0405  0.6884 -0.5768
13631SOL    HW253367   7.333   2.486   6.495  1.2651 -0.2790  4.0140
13632SOL     OW53368   3.622   6.886   8.098 -0.7532  0.2638  0.4806
13632SOL    HW153369   3.642   6.984   8.096 -1.4275  0.3926  0.1145
13632SOL    HW253370   3.524   6.871   8.083 -0.3379 -0.5764 -1.5662
13633SOL     OW53371   8.519   6.574   3.876 -0.3989 -0.1779  0.6430
13633SOL    HW153372   8.543   6.654   3.821  0.1387  0.4216  1.7452
13633SOL    HW253373   8.547   6.588   3.971  0.9790 -2.2263  0.5923
13634SOL     OW53374   6.301   1.866   5.927  0.6069 -0.1731  0.5086
13634SOL    HW153375   6.278   1.805   5.852 -0.2467  0.2055  0.4560
13634SOL    HW253376   6.273   1.960   5.904  0.3269 -0.0581  1.2992
13635SOL     OW53377   3.425   4.736   3.584 -0.1654  0.3345  0.1048
13635SOL    HW153378   3.370   4.653   3.576 -2.6712  2.0597 -1.2734
13635SOL    HW253379   3.373   4.807   3.631  1.2558  1.7125 -0.3181
13636SOL     OW53380   3.417   1.443   5.273 -0.2834  0.6086  0.8404
13636SOL    HW153381   3.386   1.524   5.224 -0.2284  0.5413  0.6937
13636SOL    HW253382   3.510   1.458   5.307  0.0937  0.2481 -0.0182
13637SOL     OW53383   0.691   5.662   8.369 -0.3195  0.1798  0.0034
13637SOL    HW153384   0.742   5.617   8.295 -0.6541  1.0972 -0.8046
13637SOL    HW253385   0.756   5.706   8.431  0.0863 -2.5407  1.5812
13638SOL     OW53386   4.070   6.324   3.232 -0.6170  0.6047 -0.1690
13638SOL    HW153387   4.025   6.404   3.192  1.3060  2.2842  0.9504
13638SOL    HW253388   4.012   6.243   3.218 -1.7470  1.8205 -2.9336
13639SOL     OW53389   0.541   1.476   8.157  0.1148  0.1984 -0.6080
13639SOL    HW153390   0.613   1.469   8.226  1.0173  1.3957 -1.4010
13639SOL    HW253391   0.514   1.572   8.147 -0.5923 -0.0695 -1.3274
13640SOL     OW53392   5.057   1.389   4.071 -0.0040 -0.4441 -0.3093
13640SOL    HW153393   5.050   1.488   4.070 -0.7657 -0.4973 -0.1364
13640SOL    HW253394   5.101   1.359   4.156  1.9613 -0.1485 -1.1832
13641SOL     OW53395   7.443   6.432   7.566 -0.2913 -0.2171 -0.1335
13641SOL    HW153396   7.421   6.526   7.593  0.5565 -0.0186 -0.1223
13641SOL    HW253397   7.529   6.404   7.609  0.8338 -0.0650 -2.2303
13642SOL     OW53398   4.924   1.317   3.449 -0.5839  0.8144 -0.1824
13642SOL    HW153399   4.844   1.257   3.453  1.3702 -1.8834  0.1544
13642SOL    HW253400   4.933   1.368   3.534 -1.3829  0.3562  0.1749
13643SOL     OW53401   4.258   1.508   0.585  0.3258  0.1068 -0.1959
13643SOL    HW153402   4.224   1.522   0.492  0.6168  2.0651 -0.0189
13643SOL    HW253403   4.356   1.526   0.588  0.7499 -2.1067  0.0433
13644SOL     OW53404   8.424   2.569   8.470  0.4607 -0.1806 -0.4053
13644SOL    HW153405   8.332   2.602   8.489  0.0308 -1.8179  0.4676
13644SOL    HW253406   8.446   2.584   8.373 -1.9900 -2.6985 -1.4196
13645SOL     OW53407   4.980   5.807   7.886 -0.1116  0.1105  0.4554
13645SOL    HW153408   5.073   5.795   7.851  0.2447 -0.3005  1.5224
13645SOL    HW253409   4.916   5.817   7.810  0.9379  1.3531 -0.2798
13646SOL     OW53410   1.907   7.462   0.375  0.0653 -0.1237  0.6166
13646SOL    HW153411   1.832   7.412   0.420 -0.0812 -1.5268 -1.1289
13646SOL    HW253412   1.952   7.402   0.309 -0.2222  2.1335 -1.6933
13647SOL     OW53413   6.556   3.107   4.620  0.4871 -0.3267  0.3679
13647SOL    HW153414   6.500   3.143   4.694  0.0623 -0.3683  0.0698
13647SOL    HW253415   6.540   3.162   4.537  1.3901  0.0802  0.4642
13648SOL     OW53416   1.139   1.218   0.826  0.0788 -0.0552 -0.0450
13648SOL    HW153417   1.233   1.236   0.799 -0.2643 -0.3691 -1.4494
13648SOL    HW253418   1.139   1.150   0.900  0.9345 -0.1216 -0.0987
13649SOL     OW53419   7.967   6.396   6.228  0.4924  0.1058  0.4408
13649SOL    HW153420   7.954   6.481   6.279 -0.9381  0.4620 -0.4959
13649SOL    HW253421   7.948   6.412   6.131  0.2823 -1.2587  0.2451
13650SOL     OW53422   3.198   0.005   5.432 -0.1763 -0.0684  0.2689
13650SOL    HW153423   3.216   0.066   5.354  1.4986  0.9522  1.4133
13650SOL    HW253424   3.196   0.059   5.516 -1.0848 -1.2865  1.0382
13651SOL     OW53425   8.116   6.553   0.636  0.0846  0.3727 -0.7505
13651SOL    HW153426   8.016   6.554   0.640  0.1429  0.1561  1.6033
13651SOL    HW253427   8.148   6.465   0.603 -0.4686 -0.8454  1.7986
13652SOL     OW53428   7.153   3.485   0.314 -0.0524 -0.3413 -0.5533
13652SOL    HW153429   7.198   3.507   0.401 -1.0622 -0.4781  0.0100
13652SOL    HW253430   7.090   3.559   0.289  0.0829 -0.3966 -1.0692
13653SOL     OW53431   6.248   4.083   5.379 -0.1948 -0.0158  0.4300
13653SOL    HW153432   6.204   4.004   5.421 -3.4087  0.6049 -1.5980
13653SOL    HW253433   6.315   4.051   5.311  0.3584 -0.9915  1.4258
13654SOL     OW53434   7.049   6.180   6.021 -0.3059  0.0503 -0.3142
13654SOL    HW153435   7.100   6.099   6.049 -0.4300  0.5889  1.5412
13654SOL    HW253436   7.109   6.240   5.968  0.1122 -0.7034 -0.7089
13655SOL     OW53437   1.403   7.417   3.378 -0.3423  1.0575  0.0996
13655SOL    HW153438   1.382   7.486   3.447 -1.0088  1.7507 -0.7890
13655SOL    HW253439   1.406   7.459   3.287 -1.3984 -0.1971 -0.5340
13656SOL     OW53440   3.114   2.151   2.626  0.2162  0.2687  0.2514
13656SOL    HW153441   3.017   2.128   2.618  0.0288  1.1981 -0.1971
13656SOL    HW253442   3.164   2.108   2.551  0.0758  0.1924  0.2003
13657SOL     OW53443   3.919   3.790   6.234  0.1928 -0.4537  0.3404
13657SOL    HW153444   3.832   3.839   6.233  0.6326  0.3381  0.4347
13657SOL    HW253445   3.928   3.737   6.150 -0.7508 -1.1975  0.7029
13658SOL     OW53446   3.804   8.140   3.014 -0.3758 -0.0100 -0.1929
13658SOL    HW153447   3.884   8.143   2.954 -0.3156 -1.9924 -0.2606
13658SOL    HW253448   3.725   8.177   2.967 -0.1177 -0.6834 -1.1645
13659SOL     OW53449   0.467   6.687   0.523 -0.0713  0.1154  0.4095
13659SOL    HW153450   0.551   6.683   0.470  0.5770 -1.1975  1.4841
13659SOL    HW253451   0.436   6.594   0.541 -1.8297  0.5904 -0.0754
13660SOL     OW53452   4.712   3.402   1.860  0.0735  0.7735 -0.3211
13660SOL    HW153453   4.679   3.455   1.939  1.7134  0.6996  0.4284
13660SOL    HW253454   4.694   3.305   1.875 -0.7540  0.8721 -0.6209
13661SOL     OW53455   4.495   5.648   5.338 -0.2310  0.1502 -0.2108
13661SOL    HW153456   4.581   5.681   5.375 -0.0565 -1.5382  0.9344
13661SOL    HW253457   4.419   5.683   5.393 -0.0015 -1.9264  1.4928
13662SOL     OW53458   7.304   4.707   3.369  0.0172 -0.1152 -0.2208
13662SOL    HW153459   7.296   4.688   3.271 -0.6270 -0.3445 -0.1268
13662SOL    HW253460   7.368   4.643   3.411  2.1136  1.4656 -0.9124
13663SOL     OW53461   4.138   5.297   6.858  0.3038  0.4068  0.1905
13663SOL    HW153462   4.115   5.202   6.837 -2.5561  0.8446  1.1783
13663SOL    HW253463   4.231   5.301   6.895 -0.1632 -2.2587  1.8255
13664SOL     OW53464   3.137   5.928   5.085  0.3573  0.2986  0.2179
13664SOL    HW153465   3.064   5.906   5.150  2.0327 -0.0768  2.0209
13664SOL    HW253466   3.135   6.026   5.065 -0.7614  0.2598  0.0878
13665SOL     OW53467   3.432   6.274   7.858  0.3130  0.1153  0.1184
13665SOL    HW153468   3.377   6.352   7.830  0.2990  0.3875  0.8995
13665SOL    HW253469   3.483   6.297   7.941  1.6035 -0.1287 -0.6008
13666SOL     OW53470   5.214   5.721   0.890  0.1744 -0.1227  0.1415
13666SOL    HW153471   5.283   5.690   0.955  0.8630  0.3782 -0.3471
13666SOL    HW253472   5.251   5.717   0.797 -0.8467 -0.9513 -0.2456
13667SOL     OW53473   8.094   4.799   1.900  0.7679 -0.4449  0.0045
13667SOL    HW153474   8.113   4.878   1.959  0.2047 -0.9840  0.9015
13667SOL    HW253475   8.117   4.715   1.948 -1.5031 -0.9870  0.1621
13668SOL     OW53476   6.477   8.338   7.102  0.7077  0.2120 -0.2285
13668SOL    HW153477   6.411   8.331   7.177  0.8464 -0.6488 -0.1892
13668SOL    HW253478   6.543   8.264   7.109 -0.3624 -0.9669 -2.2673
13669SOL     OW53479   0.309   8.486   7.552 -0.9664 -0.1623 -0.0654
13669SOL    HW153480   0.287   8.566   7.497 -0.0973 -1.9619 -3.2055
13669SOL    HW253481   0.389   8.505   7.609 -1.3166  1.4816 -0.1175
13670SOL     OW53482   3.423   5.762   0.786 -0.1898 -0.6106 -0.2230
13670SOL    HW153483   3.370   5.786   0.705  0.8848  1.1719 -0.4336
13670SOL    HW253484   3.461   5.670   0.775 -0.9312 -0.7963 -1.2745
13671SOL     OW53485   6.034   8.925   7.525  0.0961  0.3148 -0.2909
13671SOL    HW153486   6.053   8.873   7.608 -1.9572  0.1607  0.1301
13671SOL    HW253487   5.939   8.957   7.528  0.5006  1.7027 -1.8313
13672SOL     OW53488   7.526   4.422   8.183 -0.2061 -0.1218  0.0751
13672SOL    HW153489   7.455   4.486   8.152  0.2727  1.4907  2.1597
13672SOL    HW253490   7.614   4.469   8.184  0.3939 -1.2447  0.2711
13673SOL     OW53491   7.891   6.691   4.626  0.1457  0.4204 -0.4821
13673SOL    HW153492   7.935   6.764   4.573  2.4511 -1.2794 -0.9776
13673SOL    HW253493   7.927   6.692   4.719 -2.7157  2.3680  0.6760
13674SOL     OW53494   6.848   3.328   1.366 -0.4682 -0.3739 -0.0253
13674SOL    HW153495   6.946   3.330   1.350 -0.8398  1.1478 -2.3772
13674SOL    HW253496   6.800   3.319   1.279 -2.4396  0.1365  0.9743
13675SOL     OW53497   1.017   3.449   6.236  0.2536  0.0228 -0.0675
13675SOL    HW153498   0.946   3.391   6.198 -2.4757  1.8210  2.1490
13675SOL    HW253499   1.048   3.412   6.323  3.6510 -1.8874 -1.9314
13676SOL     OW53500   7.045   8.825   8.451 -0.1744 -0.5219  0.0465
13676SOL    HW153501   7.118   8.845   8.386 -1.0909 -0.6645 -1.0356
13676SOL    HW253502   7.020   8.908   8.500  1.6400 -0.7490  1.3976
13677SOL     OW53503   4.025   5.738   0.155 -0.1947 -0.4413 -0.2545
13677SOL    HW153504   3.977   5.819   0.123  0.0826  0.1315  0.7693
13677SOL    HW253505   4.031   5.740   0.255  2.9660  0.0929 -0.4125
13678SOL     OW53506   3.454   8.032   6.698 -0.2579 -0.4864 -0.2777
13678SOL    HW153507   3.403   8.028   6.784  1.0543  0.3709  0.5488
13678SOL    HW253508   3.518   7.955   6.694  1.3184  0.7682  0.5650
13679SOL     OW53509   4.820   3.483   3.261  0.2136 -0.1523  0.0953
13679SOL    HW153510   4.756   3.427   3.315  1.6277 -1.6305  0.2694
13679SOL    HW253511   4.892   3.425   3.224 -1.0793  0.6889 -4.0078
13680SOL     OW53512   4.708   7.704   7.212  0.1062 -0.1009 -0.8112
13680SOL    HW153513   4.765   7.685   7.132  0.3517 -2.6531 -0.0699
13680SOL    HW253514   4.764   7.700   7.294 -0.5349  0.5211 -0.3418
13681SOL     OW53515   1.080   7.320   1.214 -0.6571  0.3636  0.0598
13681SOL    HW153516   1.023   7.343   1.293 -1.5254 -0.4895 -0.2990
13681SOL    HW253517   1.050   7.372   1.134  0.9917  2.1052  0.5708
13682SOL     OW53518   1.035   2.971   4.501  0.5572 -0.0818  0.7461
13682SOL    HW153519   0.975   2.897   4.533  1.4094 -0.6789  0.9887
13682SOL    HW253520   0.993   3.016   4.422 -0.3290 -0.3254  1.0712
13683SOL     OW53521   8.969   3.819   4.480  0.4679 -0.3654  0.0203
13683SOL    HW153522   8.998   3.723   4.486  0.6245 -0.3501 -0.4761
13683SOL    HW253523   9.009   3.870   4.556  0.4260 -0.6820  0.2588
13684SOL     OW53524   1.290   3.171   2.892 -0.0024  0.3915 -0.2713
13684SOL    HW153525   1.369   3.150   2.835 -0.6023  1.9875 -1.7184
13684SOL    HW253526   1.302   3.259   2.937  0.8663 -1.2428  2.8668
13685SOL     OW53527   8.698   6.836   8.191  0.4032 -0.4291  0.0769
13685SOL    HW153528   8.618   6.779   8.205  0.8021 -0.9209  0.3797
13685SOL    HW253529   8.773   6.803   8.249  0.5706  0.5262  0.4198
13686SOL     OW53530   1.428   3.976   5.924  0.4820  0.0659  0.2301
13686SOL    HW153531   1.447   4.008   6.017  1.8413 -0.0807  0.0099
13686SOL    HW253532   1.451   3.879   5.917 -2.2135 -0.6380  0.4806
13687SOL     OW53533   5.281   1.824   1.647  0.7073 -0.3455  0.1203
13687SOL    HW153534   5.326   1.893   1.590  1.0279  0.6303  1.5332
13687SOL    HW253535   5.204   1.785   1.597 -1.1275  2.9325  0.2196
13688SOL     OW53536   2.164   1.797   3.336  0.2480  0.5296 -0.1366
13688SOL    HW153537   2.071   1.812   3.369  0.6968  2.1607  0.4002
13688SOL    HW253538   2.186   1.700   3.345 -1.3401  0.1406 -0.1411
13689SOL     OW53539   8.739   1.481   8.462  0.1050 -0.6557 -0.2539
13689SOL    HW153540   8.725   1.441   8.371  0.5735  1.5328 -1.3071
13689SOL    HW253541   8.651   1.484   8.510 -0.7370  1.1114 -1.8755
13690SOL     OW53542   0.404   7.531   7.513 -0.2413 -0.0972 -0.3121
13690SOL    HW153543   0.345   7.570   7.442  2.0502  1.5376 -1.3888
13690SOL    HW253544   0.485   7.491   7.471  1.7054  1.9236  1.4188
13691SOL     OW53545   8.366   3.294   0.429 -0.5215 -0.3314 -0.6762
13691SOL    HW153546   8.377   3.202   0.466 -1.3364 -0.0747  0.2336
13691SOL    HW253547   8.360   3.360   0.504  0.5189  0.5257 -1.3269
13692SOL     OW53548   3.611   0.847   6.488  0.2418  0.2640 -0.5837
13692SOL    HW153549   3.531   0.836   6.546 -0.2227  0.1866 -1.2282
13692SOL    HW253550   3.583   0.886   6.400  0.4465 -2.5022 -1.9420
13693SOL     OW53551   1.426   1.106   6.199 -0.2376  0.0573  0.1850
13693SOL    HW153552   1.356   1.037   6.180 -0.5561  0.3520  0.2830
13693SOL    HW253553   1.477   1.124   6.115  1.3045 -1.8950  0.6703
13694SOL     OW53554   4.632   1.840   3.090 -0.6729 -0.2519 -0.4163
13694SOL    HW153555   4.646   1.858   3.188 -1.0707  0.9787 -0.5833
13694SOL    HW253556   4.589   1.750   3.079 -1.0671 -0.1907  0.5690
13695SOL     OW53557   8.330   3.461   0.632 -0.4150  0.2567  0.3237
13695SOL    HW153558   8.406   3.440   0.693 -1.1045 -0.0544  1.0958
13695SOL    HW253559   8.281   3.541   0.667 -0.6307  0.2623  0.0092
13696SOL     OW53560   5.841   4.210   3.277 -0.4187  0.6091  0.5313
13696SOL    HW153561   5.755   4.165   3.256 -0.0280 -0.0636  0.3588
13696SOL    HW253562   5.828   4.310   3.277 -1.4596  0.4764  1.7422
13697SOL     OW53563   5.493   8.173   0.401  0.4028 -0.1328  0.9805
13697SOL    HW153564   5.519   8.112   0.476 -0.0034 -0.7539  0.6197
13697SOL    HW253565   5.569   8.234   0.381  0.8276 -0.5393  1.3235
13698SOL     OW53566   2.243   3.078   4.199 -0.0041  0.2538 -0.3768
13698SOL    HW153567   2.282   2.994   4.162 -0.6209 -1.2999  2.3316
13698SOL    HW253568   2.294   3.106   4.280 -1.7486  0.6997  0.6014
13699SOL     OW53569   6.487   3.219   4.361  0.6023  0.0080 -0.2228
13699SOL    HW153570   6.539   3.301   4.338  1.5212 -0.5248 -0.0760
13699SOL    HW253571   6.390   3.234   4.340  0.9105  0.7695 -1.1408
13700SOL     OW53572   7.436   0.719   8.053 -0.7880  0.0272 -0.2604
13700SOL    HW153573   7.373   0.712   8.131 -0.4714 -0.3986 -0.0435
13700SOL    HW253574   7.409   0.797   7.996 -0.2763  1.0922  0.9361
13701SOL     OW53575   4.066   6.672   0.171  0.1041 -0.0256 -0.5610
13701SOL    HW153576   4.093   6.614   0.095  0.4146  0.0215 -0.4841
13701SOL    HW253577   3.968   6.693   0.163 -0.6225 -2.6615  0.8074
13702SOL     OW53578   1.411   7.731   8.865 -0.3339 -0.6735  0.1628
13702SOL    HW153579   1.431   7.816   8.815 -3.5679 -0.2026 -0.4238
13702SOL    HW253580   1.398   7.753   8.962  0.3808 -0.7683  0.2877
13703SOL     OW53581   8.910   4.191   0.447 -0.5162  0.2976 -0.1864
13703SOL    HW153582   8.913   4.141   0.361 -1.3624 -0.2055  0.0765
13703SOL    HW253583   8.815   4.205   0.475 -0.2164 -1.8280  1.9986
13704SOL     OW53584   6.502   3.766   7.443  0.0809  0.1427  0.4327
13704SOL    HW153585   6.433   3.779   7.372  0.0724  0.3956  0.4887
13704SOL    HW253586   6.593   3.766   7.401 -0.0187 -1.4243  0.1923
13705SOL     OW53587   5.163   3.465   2.801  0.1292 -0.1388 -0.7960
13705SOL    HW153588   5.181   3.519   2.883 -1.6749  1.9051 -1.6802
13705SOL    HW253589   5.247   3.456   2.748  1.3094 -1.4846  1.2477
13706SOL     OW53590   1.699   8.389   4.157  0.4769 -0.7391  0.2571
13706SOL    HW153591   1.755   8.471   4.158 -0.0847 -0.3267 -1.0875
13706SOL    HW253592   1.699   8.350   4.065 -1.0779 -0.9954  0.3650
13707SOL     OW53593   3.413   0.842   7.070 -0.5132 -0.1249 -0.6289
13707SOL    HW153594   3.344   0.792   7.017 -0.2857  1.3844 -2.3890
13707SOL    HW253595   3.385   0.937   7.080  0.8057  0.2537 -0.4341
13708SOL     OW53596   6.016   7.017   4.697  0.2509 -0.0175 -0.2613
13708SOL    HW153597   6.004   6.998   4.600 -1.2083 -0.4417 -0.0138
13708SOL    HW253598   6.060   7.106   4.709 -0.2022  0.3523 -1.2907
13709SOL     OW53599   5.410   5.114   8.495  0.5713  0.0980 -0.6318
13709SOL    HW153600   5.430   5.212   8.497  0.0001  0.1895  1.7739
13709SOL    HW253601   5.330   5.097   8.438 -1.0178  1.3780  1.1545
13710SOL     OW53602   1.114   5.005   7.465 -0.0992 -0.2000  0.5204
13710SOL    HW153603   1.054   5.079   7.495 -2.7450 -2.7262  1.6677
13710SOL    HW253604   1.132   4.943   7.541  2.2684 -0.6532 -0.3620
13711SOL     OW53605   8.832   2.368   0.437  0.2932 -0.4381 -0.4765
13711SOL    HW153606   8.895   2.439   0.468  0.3159  0.5187 -2.6604
13711SOL    HW253607   8.740   2.406   0.428  0.0587 -1.0034 -0.5307
13712SOL     OW53608   5.330   5.379   8.282 -0.3417  0.1114  0.2768
13712SOL    HW153609   5.396   5.407   8.352 -0.4828  1.1171  0.0154
13712SOL    HW253610   5.371   5.311   8.222 -0.3710 -1.1145  1.6205
13713SOL     OW53611   7.154   5.726   3.938 -0.4156 -0.0554 -0.1187
13713SOL    HW153612   7.201   5.648   3.897  0.7192  0.0365  0.9851
13713SOL    HW253613   7.057   5.705   3.949 -0.7036 -0.1721 -2.6041
13714SOL     OW53614   7.671   8.412   0.389  0.8024 -0.2327  0.2313
13714SOL    HW153615   7.653   8.479   0.461  0.9386  0.4583 -0.3694
13714SOL    HW253616   7.757   8.365   0.407 -0.4540 -1.9749  1.9447
13715SOL     OW53617   1.834   6.973   5.008 -0.4290 -0.0372 -0.1565
13715SOL    HW153618   1.771   7.047   5.032  0.5321  0.2740  1.5024
13715SOL    HW253619   1.925   6.993   5.045  0.3324 -1.1121 -1.3861
13716SOL     OW53620   5.329   0.273   6.849  0.0996  0.2983  0.5057
13716SOL    HW153621   5.283   0.251   6.762  1.4370  1.1106 -0.4204
13716SOL    HW253622   5.352   0.188   6.896  2.2325 -0.2757 -1.4759
13717SOL     OW53623   3.242   2.663   7.398  0.9502 -0.5616 -0.0481
13717SOL    HW153624   3.179   2.731   7.435  1.4690 -1.0630  1.8227
13717SOL    HW253625   3.303   2.706   7.331 -0.6116  0.1629 -1.0062
13718SOL     OW53626   1.741   2.856   6.200 -0.7666  0.6204 -0.2673
13718SOL    HW153627   1.777   2.946   6.223 -0.7471  1.0707 -1.9862
13718SOL    HW253628   1.642   2.855   6.213 -0.7001  0.7344  0.2422
13719SOL     OW53629   3.749   3.472   0.584 -0.1767  0.5839  0.4852
13719SOL    HW153630   3.815   3.417   0.532 -0.7623  0.2349  0.0936
13719SOL    HW253631   3.764   3.569   0.564  0.9241  0.5733  1.2534
13720SOL     OW53632   7.608   0.348   0.131  0.7481  0.1563  0.0074
13720SOL    HW153633   7.563   0.303   0.053 -1.1807  0.3649  0.9661
13720SOL    HW253634   7.622   0.281   0.204  1.9540  0.1150 -0.2502
13721SOL     OW53635   3.535   4.170   0.330 -0.0851  0.2972 -0.3083
13721SOL    HW153636   3.522   4.111   0.410  0.0826 -0.0508 -0.5394
13721SOL    HW253637   3.494   4.260   0.348 -1.6081 -0.3396 -0.4818
13722SOL     OW53638   3.727   6.491   6.040  0.4590  0.2312  0.0530
13722SOL    HW153639   3.641   6.439   6.040  0.3224  0.4497  1.4660
13722SOL    HW253640   3.782   6.463   5.961 -0.7178 -0.2204 -0.6270
13723SOL     OW53641   2.013   1.782   0.529 -0.3677 -0.1398  0.2410
13723SOL    HW153642   2.005   1.754   0.433  0.2047 -0.3817  0.2589
13723SOL    HW253643   1.923   1.801   0.566 -0.5675  0.2403 -0.4337
13724SOL     OW53644   2.016   3.880   0.585  0.7052  0.1346  0.3345
13724SOL    HW153645   1.994   3.789   0.551  1.8795 -0.1323  0.2972
13724SOL    HW253646   1.944   3.944   0.556 -0.2591 -0.8167  0.5891
13725SOL     OW53647   0.351   0.628   8.132  0.5105 -0.3184 -0.0747
13725SOL    HW153648   0.419   0.573   8.181 -0.0978  0.0489  1.1850
13725SOL    HW253649   0.279   0.568   8.096 -0.4334 -0.3036  1.7537
13726SOL     OW53650   4.846   3.272   7.708 -0.5482 -0.5336 -0.0756
13726SOL    HW153651   4.887   3.185   7.679 -0.7058 -0.3621 -0.8261
13726SOL    HW253652   4.896   3.348   7.666  0.7625 -0.1836  2.0463
13727SOL     OW53653   7.013   2.758   1.636  0.0908  0.0182 -0.4924
13727SOL    HW153654   6.961   2.762   1.721  0.2027  2.3733 -0.5061
13727SOL    HW253655   7.036   2.663   1.616 -4.5685 -1.2234 -0.7238
13728SOL     OW53656   1.553   1.730   5.618  0.7782  0.0021 -0.2725
13728SOL    HW153657   1.517   1.706   5.708  2.1519  0.9816  0.5504
13728SOL    HW253658   1.648   1.699   5.611  0.5151 -0.5478 -1.5910
13729SOL     OW53659   0.301   4.387   2.018  0.6308  0.2938 -0.5669
13729SOL    HW153660   0.224   4.399   1.955 -0.1285  1.3000  0.5290
13729SOL    HW253661   0.291   4.299   2.065  0.9544 -0.2505 -1.4957
13730SOL     OW53662   3.652   6.251   8.327  0.0354 -0.0337  0.8524
13730SOL    HW153663   3.719   6.309   8.280  0.2087  0.3100  1.5316
13730SOL    HW253664   3.693   6.211   8.409 -0.4847 -0.0991  1.0821
13731SOL     OW53665   1.807   3.643   3.447 -0.0053 -0.3424  0.4684
13731SOL    HW153666   1.731   3.685   3.397  0.5897 -2.1316 -2.0703
13731SOL    HW253667   1.879   3.711   3.461 -2.0723  1.3951  2.9903
13732SOL     OW53668   3.330   6.049   5.474  0.0239 -0.0179  0.2578
13732SOL    HW153669   3.342   6.015   5.380  2.2964 -0.2358  0.5858
13732SOL    HW253670   3.301   5.974   5.533 -0.8166 -0.0187 -0.1447
13733SOL     OW53671   1.339   0.444   8.349  0.6935  0.3898 -0.1583
13733SOL    HW153672   1.420   0.475   8.400  0.9148  0.1642 -0.3691
13733SOL    HW253673   1.306   0.519   8.292  0.1756  0.7843  0.6524
13734SOL     OW53674   1.156   0.423   5.454  0.4078  0.5561 -0.4539
13734SOL    HW153675   1.253   0.402   5.439  0.2985  0.2462 -0.7206
13734SOL    HW253676   1.121   0.475   5.375 -0.4230 -1.9191 -1.7625
13735SOL     OW53677   3.404   1.687   1.515  0.9510  0.2848  0.0447
13735SOL    HW153678   3.419   1.590   1.533  0.9621  0.3891  0.6308
13735SOL    HW253679   3.380   1.733   1.601 -0.0780  0.6131 -0.4117
13736SOL     OW53680   3.851   1.921   3.029 -0.3909  0.3863 -0.0432
13736SOL    HW153681   3.773   1.865   3.002 -1.9932  2.0366  1.0654
13736SOL    HW253682   3.870   1.906   3.126  1.1507 -0.5469 -0.4722
13737SOL     OW53683   3.989   0.487   8.782 -0.6961 -0.0493  0.0521
13737SOL    HW153684   4.080   0.528   8.770 -0.9881  1.0244  1.4004
13737SOL    HW253685   3.926   0.524   8.714 -0.7076  1.0298  0.6307
13738SOL     OW53686   7.584   7.180   0.528  0.5050 -0.2685  0.1336
13738SOL    HW153687   7.577   7.081   0.546 -0.9441  0.1923  2.2994
13738SOL    HW253688   7.492   7.219   0.521  1.0722  0.8318 -1.3421
13739SOL     OW53689   3.966   5.593   7.915 -0.2851 -0.3762 -0.3928
13739SOL    HW153690   3.958   5.692   7.918 -1.0854 -0.4696  0.7726
13739SOL    HW253691   3.952   5.562   7.821 -0.9585  0.5391 -0.6029
13740SOL     OW53692   0.483   1.137   5.498  0.0279  0.0835  0.2100
13740SOL    HW153693   0.393   1.114   5.533 -0.2087 -0.8078 -0.9553
13740SOL    HW253694   0.473   1.195   5.417  0.4833 -0.4484 -0.2294
13741SOL     OW53695   1.106   4.049   8.157 -0.5138 -0.3288  0.0543
13741SOL    HW153696   1.158   4.091   8.232 -1.3625  0.8146  0.0210
13741SOL    HW253697   1.030   4.109   8.132 -0.9062 -1.2381 -0.9681
13742SOL     OW53698   2.958   1.814   3.594  0.8494  0.1084  0.2084
13742SOL    HW153699   2.921   1.886   3.535  1.3552  0.1733 -0.0408
13742SOL    HW253700   2.977   1.732   3.539 -0.6359 -0.5516  0.6746
13743SOL     OW53701   7.643   4.090   5.316  0.1755  0.1901  0.2642
13743SOL    HW153702   7.614   3.994   5.307  0.6408  0.0092  0.6731
13743SOL    HW253703   7.739   4.093   5.341  1.0725  0.8136 -2.9943
13744SOL     OW53704   2.236   7.446   6.186 -0.0065 -0.2085 -0.2408
13744SOL    HW153705   2.316   7.414   6.135 -0.1447  2.1811 -2.0235
13744SOL    HW253706   2.258   7.529   6.236 -1.3798  0.5198 -0.8073
13745SOL     OW53707   8.510   3.067   5.641 -0.5037  0.1279  0.1180
13745SOL    HW153708   8.542   3.151   5.598  0.3133  0.0806  0.6304
13745SOL    HW253709   8.410   3.067   5.644 -0.5271  0.7612 -0.5108
13746SOL     OW53710   5.073   1.773   1.408 -0.2424 -0.3376 -0.5646
13746SOL    HW153711   5.031   1.864   1.416 -1.5568 -1.0676  0.9987
13746SOL    HW253712   5.009   1.704   1.440  1.3208 -1.6855 -0.3031
13747SOL     OW53713   0.902   3.715   1.970  0.0927  0.1076 -0.2522
13747SOL    HW153714   0.963   3.638   1.987 -1.1313 -0.8415 -0.0630
13747SOL    HW253715   0.817   3.682   1.927 -1.5948  0.9377  2.3073
13748SOL     OW53716   0.727   6.782   3.135 -0.1335  0.0260 -0.1131
13748SOL    HW153717   0.640   6.832   3.132  0.0673  0.4038  0.3113
13748SOL    HW253718   0.719   6.705   3.198 -0.1069  0.1648  0.0603
13749SOL     OW53719   6.293   3.082   6.357 -0.1944  0.3513  0.2857
13749SOL    HW153720   6.236   3.009   6.395 -1.2673 -0.5070 -2.8250
13749SOL    HW253721   6.383   3.045   6.336 -1.0417 -0.3710 -2.1893
13750SOL     OW53722   2.309   8.626   7.297  0.3379 -0.3462 -0.1798
13750SOL    HW153723   2.392   8.671   7.330  0.0403  1.5684 -1.9346
13750SOL    HW253724   2.330   8.569   7.218  0.0880 -0.2383 -0.3268
13751SOL     OW53725   8.260   7.316   6.741  0.7503 -0.0238  0.0765
13751SOL    HW153726   8.193   7.242   6.753  0.5019  0.2839  0.6495
13751SOL    HW253727   8.313   7.301   6.658  1.5338 -1.4985  0.8180
13752SOL     OW53728   7.187   1.625   5.994 -0.1015 -0.6327 -0.3050
13752SOL    HW153729   7.283   1.599   5.998 -0.3152 -1.8350 -2.3403
13752SOL    HW253730   7.153   1.615   5.900 -1.8145  1.2584  0.0713
13753SOL     OW53731   5.853   6.065   8.023 -0.3633  0.4044 -0.1687
13753SOL    HW153732   5.763   6.024   8.012 -0.5374  0.9901 -0.9505
13753SOL    HW253733   5.891   6.039   8.112 -0.7664 -0.8650 -0.3647
13754SOL     OW53734   7.744   3.752   7.783 -0.0999 -0.4341  0.0855
13754SOL    HW153735   7.711   3.662   7.811  0.0216 -0.5721 -0.2090
13754SOL    HW253736   7.694   3.823   7.833 -1.1016 -0.6278 -0.6330
13755SOL     OW53737   4.243   7.951   8.796  0.3029 -0.3139 -0.3006
13755SOL    HW153738   4.253   7.868   8.740 -0.5817 -0.9663  0.4884
13755SOL    HW253739   4.151   7.954   8.834  0.7974  0.2746  0.8681
13756SOL     OW53740   1.578   5.400   5.709  0.0500  0.3417  0.1865
13756SOL    HW153741   1.669   5.435   5.731 -0.2118  0.0905  1.7205
13756SOL    HW253742   1.526   5.384   5.793 -0.6712 -1.5156 -0.5574
13757SOL     OW53743   2.092   0.541   0.918  0.3386  0.4410 -1.1067
13757SOL    HW153744   2.061   0.448   0.900  0.1520  0.4487 -0.8327
13757SOL    HW253745   2.015   0.604   0.907  0.3619  0.5114 -0.8720
13758SOL     OW53746   0.123   7.792   4.705  0.3865  0.0254  0.1772
13758SOL    HW153747   0.091   7.798   4.799 -1.2421 -0.0606 -0.3550
13758SOL    HW253748   0.165   7.879   4.679 -0.0979  0.4046  0.6528
13759SOL     OW53749   6.307   4.484   1.770 -0.2453  0.6182  0.0664
13759SOL    HW153750   6.267   4.566   1.729  0.9033  2.2584  2.1423
13759SOL    HW253751   6.404   4.479   1.746 -0.6505 -1.0686 -1.4165
13760SOL     OW53752   2.563   6.733   0.336 -0.2770 -0.2675  0.1395
13760SOL    HW153753   2.567   6.697   0.429 -0.2383  2.4129  1.2322
13760SOL    HW253754   2.654   6.763   0.308 -0.7366  1.3928  0.3103
13761SOL     OW53755   3.761   4.689   7.787 -0.0064 -0.0716  0.4002
13761SOL    HW153756   3.765   4.604   7.840  2.2118  0.9961  2.0149
13761SOL    HW253757   3.679   4.741   7.814  0.1808 -0.3543  1.5361
13762SOL     OW53758   4.998   3.887   6.888  0.4293 -0.4343 -0.0823
13762SOL    HW153759   5.039   3.825   6.821 -2.9351 -1.5096 -1.2572
13762SOL    HW253760   4.944   3.956   6.840  0.0844  0.3591  1.4325
13763SOL     OW53761   8.887   0.884   4.081 -0.0569 -0.0040  0.3913
13763SOL    HW153762   8.964   0.854   4.024 -0.5017 -1.4751  0.5418
13763SOL    HW253763   8.899   0.980   4.104  0.9162  0.2158 -0.9184
13764SOL     OW53764   6.810   3.934   7.530  0.4964  0.4030  0.2968
13764SOL    HW153765   6.803   3.925   7.431 -0.4612  1.7036  0.2303
13764SOL    HW253766   6.903   3.912   7.559  1.2140  1.5383 -1.0758
13765SOL     OW53767   4.743   6.505   1.961  0.0989  0.3688 -0.1480
13765SOL    HW153768   4.706   6.567   2.030 -0.7979  1.0047 -1.2021
13765SOL    HW253769   4.672   6.440   1.932  0.2830  0.5177 -0.9438
13766SOL     OW53770   8.494   6.621   2.978  0.3341  0.1691 -0.2361
13766SOL    HW153771   8.460   6.606   2.885  0.9257  1.3297 -0.6691
13766SOL    HW253772   8.587   6.584   2.985  0.0564 -0.4655  0.0800
13767SOL     OW53773   3.026   5.972   1.202 -0.3422  0.3287 -0.4742
13767SOL    HW153774   3.047   5.973   1.300 -0.1286  0.7850 -0.5226
13767SOL    HW253775   2.932   5.941   1.188 -0.0357 -0.7461 -0.1899
13768SOL     OW53776   3.077   1.837   3.146 -0.1216  0.5964  0.2513
13768SOL    HW153777   3.108   1.919   3.096 -1.0024  0.8521  0.1110
13768SOL    HW253778   3.100   1.755   3.093 -2.1508  0.9177 -1.2385
13769SOL     OW53779   4.591   5.623   3.682  0.8498  0.1749 -0.1053
13769SOL    HW153780   4.669   5.571   3.717  0.4046  1.0584  2.3232
13769SOL    HW253781   4.510   5.565   3.680  0.8905  0.1040  0.3022
13770SOL     OW53782   4.602   2.962   6.684 -0.1316  0.1990  0.1986
13770SOL    HW153783   4.540   3.014   6.626 -1.1231 -0.5693  0.5488
13770SOL    HW253784   4.571   2.967   6.779 -1.2892 -2.4985 -0.0083
13771SOL     OW53785   2.314   8.532   2.427  0.2996  0.9249 -0.6410
13771SOL    HW153786   2.412   8.516   2.441 -0.3659 -2.4275  0.4677
13771SOL    HW253787   2.264   8.514   2.512 -1.4367  1.4233 -1.5280
13772SOL     OW53788   2.829   6.070   1.545  0.3370  0.1938 -0.0442
13772SOL    HW153789   2.837   6.134   1.469 -0.0218 -0.1758 -0.3979
13772SOL    HW253790   2.776   6.113   1.619  1.3343  0.8257  0.3068
13773SOL     OW53791   2.306   5.217   7.390 -0.2375  0.0676 -0.0588
13773SOL    HW153792   2.328   5.241   7.484 -1.6693 -0.3117  0.3922
13773SOL    HW253793   2.335   5.124   7.371  0.6295  0.3662 -0.1894
13774SOL     OW53794   5.979   0.393   0.389 -0.2946 -0.2251 -0.7110
13774SOL    HW153795   6.076   0.400   0.367  0.0134 -0.5964  0.4869
13774SOL    HW253796   5.928   0.371   0.306  0.5876  0.4074 -1.4347
13775SOL     OW53797   8.984   4.063   1.178  0.1817  0.4468 -0.6403
13775SOL    HW153798   8.937   4.037   1.094  0.4125  1.0610 -0.9653
13775SOL    HW253799   9.064   4.120   1.155  0.3785  0.4240 -0.0230
13776SOL     OW53800   2.566   2.767   6.158  0.0203 -0.2627  0.0336
13776SOL    HW153801   2.583   2.863   6.136  1.0886 -0.4072  0.1995
13776SOL    HW253802   2.549   2.757   6.256 -2.7856  0.1119 -0.3746
13777SOL     OW53803   4.331   0.083   3.591 -0.5512  0.1423 -0.3917
13777SOL    HW153804   4.309   0.173   3.553 -0.7325 -0.2941 -1.3496
13777SOL    HW253805   4.418   0.052   3.554  0.1494  0.4942  0.9605
13778SOL     OW53806   0.585   2.974   4.419  0.4661  0.2797  0.1712
13778SOL    HW153807   0.595   3.069   4.446  1.1490  0.0157  0.8935
13778SOL    HW253808   0.634   2.957   4.334 -1.8169  1.1555 -1.3617
13779SOL     OW53809   2.549   3.532   1.424  0.1729  0.4026  0.2504
13779SOL    HW153810   2.454   3.512   1.445  0.2204  0.0755  0.1445
13779SOL    HW253811   2.608   3.487   1.491  0.2566  0.5773  0.2954
13780SOL     OW53812   1.930   0.827   2.585  0.6192 -0.1594  0.5295
13780SOL    HW153813   1.860   0.844   2.655  0.0163 -0.4018 -0.0050
13780SOL    HW253814   1.939   0.908   2.527  1.2173  0.0915  0.9658
13781SOL     OW53815   3.098   4.073   0.303  0.0198 -0.2995  0.1176
13781SOL    HW153816   3.050   3.996   0.262  1.4925 -1.1607 -0.0323
13781SOL    HW253817   3.146   4.124   0.233  0.6150 -0.3823  0.4608
13782SOL     OW53818   3.717   6.153   3.975  0.8631  0.1869 -0.2797
13782SOL    HW153819   3.810   6.114   3.972  0.8288  0.1820 -1.2309
13782SOL    HW253820   3.719   6.237   4.029  1.7770  1.1365 -1.7508
13783SOL     OW53821   4.907   2.997   7.698 -0.0432 -0.2375 -0.7575
13783SOL    HW153822   4.811   2.987   7.723 -0.1115 -0.0087 -0.9342
13783SOL    HW253823   4.954   2.910   7.712 -0.2374 -0.3029 -0.5051
13784SOL     OW53824   8.171   7.517   5.030  0.0760  0.0894 -0.0726
13784SOL    HW153825   8.241   7.462   5.076 -1.0825  0.7578  2.5791
13784SOL    HW253826   8.200   7.613   5.026  0.0657  0.0766 -0.5572
13785SOL     OW53827   3.537   8.941   8.736  0.2100  0.6412 -0.2237
13785SOL    HW153828   3.459   8.903   8.787  0.2435  0.5399 -0.2453
13785SOL    HW253829   3.553   8.884   8.655 -0.2908  1.2055 -0.7267
13786SOL     OW53830   4.251   7.744   8.253  0.0063  0.0822 -0.3086
13786SOL    HW153831   4.154   7.759   8.270 -0.1179  0.6626 -1.4762
13786SOL    HW253832   4.263   7.703   8.163  0.7132 -1.9761  0.6767
13787SOL     OW53833   0.556   1.618   1.702 -0.0996 -0.6422 -0.0871
13787SOL    HW153834   0.530   1.712   1.680 -0.9908 -0.6963  0.7003
13787SOL    HW253835   0.486   1.577   1.760  0.6472 -1.5490  0.1856
13788SOL     OW53836   3.637   0.509   5.078 -0.2362  0.5575  0.4215
13788SOL    HW153837   3.722   0.457   5.080 -0.3879  0.1809 -1.7150
13788SOL    HW253838   3.656   0.606   5.095  0.5088  0.3662  0.6766
13789SOL     OW53839   7.773   3.592   5.526  0.4613 -0.4513  0.4806
13789SOL    HW153840   7.683   3.565   5.491  0.6788 -1.0725  0.3942
13789SOL    HW253841   7.763   3.625   5.620 -0.1069  1.1437 -0.1296
13790SOL     OW53842   4.766   6.757   7.859 -0.3911  0.0365  0.5661
13790SOL    HW153843   4.675   6.776   7.896  0.0544  1.4224  0.9823
13790SOL    HW253844   4.764   6.669   7.812 -2.4730  0.9922 -1.2211
13791SOL     OW53845   7.657   1.870   4.364  0.1001  0.1792 -0.1101
13791SOL    HW153846   7.627   1.952   4.316 -2.3991 -1.9261 -2.3470
13791SOL    HW253847   7.688   1.802   4.297  1.6471 -0.8731  1.6523
13792SOL     OW53848   7.840   4.462   2.421  0.3954  0.3391  0.5466
13792SOL    HW153849   7.861   4.371   2.458 -1.1595 -0.2395  0.0690
13792SOL    HW253850   7.779   4.453   2.342 -0.3928  1.8238  0.9552
13793SOL     OW53851   8.211   5.203   2.775 -0.1942 -0.0749 -0.1560
13793SOL    HW153852   8.261   5.241   2.697 -0.7598  0.4506 -0.2675
13793SOL    HW253853   8.225   5.104   2.779 -2.2387 -0.4957 -2.4588
13794SOL     OW53854   8.340   5.883   0.490 -0.1098 -0.5588  0.0786
13794SOL    HW153855   8.426   5.882   0.438  0.4148  0.2854  0.8968
13794SOL    HW253856   8.293   5.970   0.474  0.8331  0.3739  2.2269
13795SOL     OW53857   3.935   3.644   7.693 -0.0133  0.1356 -0.0947
13795SOL    HW153858   3.924   3.651   7.594 -0.9211  1.2147  0.0704
13795SOL    HW253859   3.849   3.616   7.735 -0.2385  1.7398  0.5714
13796SOL     OW53860   5.184   7.689   8.545  0.1053  0.5568 -0.1927
13796SOL    HW153861   5.242   7.770   8.539 -0.8460  1.2985  0.4967
13796SOL    HW253862   5.110   7.697   8.478 -0.9724  1.0638  1.0540
13797SOL     OW53863   0.110   7.007   7.295 -0.4151  0.0943  0.3854
13797SOL    HW153864   0.138   7.021   7.390 -0.6365  0.0069  0.4637
13797SOL    HW253865   0.085   7.096   7.255  1.6954  0.4387 -0.2370
13798SOL     OW53866   7.203   4.830   8.238  0.0939  0.0594  0.2899
13798SOL    HW153867   7.190   4.785   8.150 -2.1323  1.6936 -0.2561
13798SOL    HW253868   7.284   4.888   8.234 -0.2913  0.5336 -0.8775
13799SOL     OW53869   2.222   7.968   2.088  0.4888 -0.0658 -0.0075
13799SOL    HW153870   2.270   7.949   2.173 -1.8686  0.0477  1.3638
13799SOL    HW253871   2.186   7.883   2.049  0.1816  0.0890 -0.0638
13800SOL     OW53872   7.235   3.284   4.936 -0.4380  0.0365  0.0383
13800SOL    HW153873   7.136   3.268   4.928 -0.4657 -0.0428  0.5514
13800SOL    HW253874   7.257   3.314   5.029 -0.5975  4.4504 -1.2308
13801SOL     OW53875   3.997   5.950   2.891  0.0980  0.0977  0.0682
13801SOL    HW153876   3.910   5.981   2.931  0.2259 -0.8013  1.0609
13801SOL    HW253877   4.012   5.997   2.804 -1.4222  0.1993 -0.1476
13802SOL     OW53878   7.176   4.051   7.466 -0.9493 -0.8832 -0.0742
13802SOL    HW153879   7.249   4.087   7.407 -2.4232  0.6646 -0.9767
13802SOL    HW253880   7.217   4.006   7.546  1.0600 -2.3799 -1.8904
13803SOL     OW53881   0.123   6.804   2.059 -0.0442 -0.6318  0.3455
13803SOL    HW153882   0.196   6.762   2.113 -1.8681 -0.1955  3.2458
13803SOL    HW253883   0.039   6.750   2.068 -0.6049 -0.0927 -1.4057
13804SOL     OW53884   2.402   1.300   3.650 -0.1512  0.0740 -0.2699
13804SOL    HW153885   2.305   1.315   3.630  0.2232  1.3790 -1.2201
13804SOL    HW253886   2.426   1.346   3.735 -1.3697 -4.0825  2.4517
13805SOL     OW53887   5.435   4.597   6.897 -0.8356  0.2537  0.0831
13805SOL    HW153888   5.408   4.560   6.808 -0.6329  1.5493 -0.5203
13805SOL    HW253889   5.419   4.528   6.968 -0.8762 -0.8341 -0.9699
13806SOL     OW53890   2.777   5.120   6.293  0.2950  0.4432  0.6163
13806SOL    HW153891   2.833   5.199   6.266  1.6289 -0.3747  0.9570
13806SOL    HW253892   2.793   5.045   6.229 -2.0214  0.8862 -0.5234
13807SOL     OW53893   2.644   8.828   5.993  0.1607  0.4327  0.5795
13807SOL    HW153894   2.696   8.790   6.070 -0.1405  0.2853  0.7095
13807SOL    HW253895   2.638   8.760   5.920 -0.6941  0.0940  0.9601
13808SOL     OW53896   1.225   2.556   8.283  0.1338 -0.2252 -0.3246
13808SOL    HW153897   1.315   2.598   8.287  0.1057 -0.3158  2.0817
13808SOL    HW253898   1.183   2.574   8.194  2.4113  0.0198 -1.3653
13809SOL     OW53899   5.901   6.274   7.142  0.2111  0.6030  0.4730
13809SOL    HW153900   5.957   6.191   7.139 -0.3177  0.2532  0.3800
13809SOL    HW253901   5.930   6.336   7.068 -2.2567 -1.3223 -2.1777
13810SOL     OW53902   1.330   4.059   6.865  0.2479  0.0059 -0.1899
13810SOL    HW153903   1.421   4.090   6.892 -0.3898  0.4032  1.5941
13810SOL    HW253904   1.262   4.123   6.899 -0.7604 -0.8112 -0.6583
13811SOL     OW53905   3.826   4.379   3.582 -1.0170  0.1366 -0.6560
13811SOL    HW153906   3.808   4.358   3.678 -0.6801  0.5273 -0.5063
13811SOL    HW253907   3.907   4.437   3.575 -0.3873 -0.8284 -1.2680
13812SOL     OW53908   1.922   1.078   1.302  0.1146  0.0260  0.5376
13812SOL    HW153909   1.970   0.999   1.340 -0.9853 -0.0886  1.6933
13812SOL    HW253910   1.878   1.129   1.376 -2.6360 -0.5939 -0.6342
13813SOL     OW53911   6.450   2.748   8.067  0.1685  0.0683 -0.0931
13813SOL    HW153912   6.388   2.786   8.135  2.8248 -1.2773  3.2117
13813SOL    HW253913   6.491   2.822   8.014 -1.3091  1.1809  0.2847
13814SOL     OW53914   0.944   5.930   6.316 -0.0610  0.6116  0.0831
13814SOL    HW153915   0.968   5.857   6.252  1.2558  0.4794  0.6968
13814SOL    HW253916   0.907   6.008   6.266  2.0485  0.9687 -1.0009
13815SOL     OW53917   2.853   7.643   0.025 -0.4693  0.4862  0.2265
13815SOL    HW153918   2.903   7.701   0.089 -1.5116  0.4345  1.1087
13815SOL    HW253919   2.873   7.670  -0.069  0.7602  0.8342  0.5869
13816SOL     OW53920   4.438   6.299   7.634 -0.4415 -0.1838  0.1246
13816SOL    HW153921   4.503   6.223   7.632 -2.4183 -1.8666 -1.3536
13816SOL    HW253922   4.401   6.310   7.727  0.7524 -0.2164  0.6113
13817SOL     OW53923   5.419   8.471   0.206 -0.6015 -0.4189 -0.4541
13817SOL    HW153924   5.385   8.467   0.300  0.4716  0.7760 -0.0046
13817SOL    HW253925   5.473   8.389   0.186 -1.6680 -1.1479 -0.3629
13818SOL     OW53926   4.633   0.442   3.897  0.6570 -0.5491  0.1415
13818SOL    HW153927   4.682   0.465   3.982 -2.2444  0.2752  1.6315
13818SOL    HW253928   4.615   0.526   3.846 -0.0610 -0.7490  0.0751
13819SOL     OW53929   0.691   6.954   2.557  0.3235 -0.4736  0.4219
13819SOL    HW153930   0.774   7.004   2.535 -0.0302  0.3658  0.9812
13819SOL    HW253931   0.700   6.859   2.527  1.6860 -0.5215  0.9648
13820SOL     OW53932   0.433   5.716   1.469 -0.5626  0.0201 -0.1659
13820SOL    HW153933   0.509   5.761   1.515 -0.2746 -2.0340  1.4142
13820SOL    HW253934   0.347   5.753   1.502 -0.2979  0.6572 -0.1884
13821SOL     OW53935   7.132   6.501   7.951 -0.1742 -0.0910 -0.0576
13821SOL    HW153936   7.214   6.522   7.898 -0.7196  0.0866 -0.8389
13821SOL    HW253937   7.126   6.564   8.029  1.1022 -0.9337  0.7495
13822SOL     OW53938   7.667   6.294   8.892 -0.0484 -0.7241  0.1305
13822SOL    HW153939   7.733   6.225   8.864  1.3566  0.6699 -0.0509
13822SOL    HW253940   7.646   6.354   8.814 -0.3320 -0.1935  0.6092
13823SOL     OW53941   1.686   1.472   0.941 -0.2690  0.1139 -0.7704
13823SOL    HW153942   1.784   1.486   0.957 -0.0814 -0.5219 -1.3400
13823SOL    HW253943   1.634   1.530   1.003  0.4491 -0.9824  0.9066
13824SOL     OW53944   0.480   6.360   1.802 -0.0188  0.2474  0.5704
13824SOL    HW153945   0.563   6.306   1.812 -0.0907  0.1021  0.3799
13824SOL    HW253946   0.435   6.369   1.891  1.2798  2.0620  1.0718
13825SOL     OW53947   5.197   0.018   3.398  0.2456 -0.0961  0.1667
13825SOL    HW153948   5.153   0.054   3.315  0.9528  0.1222 -0.1163
13825SOL    HW253949   5.177  -0.080   3.406  1.0044 -0.3396 -0.8102
13826SOL     OW53950   4.548   1.681   0.035 -0.7126  0.0305 -0.0369
13826SOL    HW153951   4.469   1.620   0.029 -0.0743 -0.8640  0.5825
13826SOL    HW253952   4.545   1.731   0.122 -0.3919 -0.2907  0.1597
13827SOL     OW53953   7.912   2.073   3.792  0.1608 -0.1672 -0.1767
13827SOL    HW153954   7.917   1.975   3.772  4.7960  0.2449 -1.5765
13827SOL    HW253955   7.904   2.085   3.891  3.5839 -1.9722  0.3860
13828SOL     OW53956   8.725   1.569   0.006 -1.0325 -0.1659  0.3485
13828SOL    HW153957   8.764   1.594   0.094 -0.1977 -2.0505  0.5420
13828SOL    HW253958   8.660   1.494   0.018  0.6438 -1.8568 -0.8696
13829SOL     OW53959   8.795   5.506   8.813  0.3939  0.0574  0.1768
13829SOL    HW153960   8.788   5.559   8.729 -1.5835  2.0028  1.4998
13829SOL    HW253961   8.721   5.439   8.817  0.3338  0.1401  0.4644
13830SOL     OW53962   1.961   4.747   7.610  0.3596  0.0563  0.4805
13830SOL    HW153963   1.872   4.729   7.568 -0.8950  2.5870  1.9082
13830SOL    HW253964   1.949   4.757   7.709  1.8597  2.4912  0.4606
13831SOL     OW53965   4.741   7.893   2.280 -0.0201 -0.7426  0.2290
13831SOL    HW153966   4.656   7.937   2.308  0.3930  0.6137 -0.5649
13831SOL    HW253967   4.743   7.887   2.180  1.3730  0.4513  0.1564
13832SOL     OW53968   5.612   4.278   8.532 -0.2181 -0.4784  0.1173
13832SOL    HW153969   5.593   4.272   8.630 -0.8761  0.0588  0.0252
13832SOL    HW253970   5.588   4.370   8.499  1.4392 -0.1518 -0.2388
13833SOL     OW53971   6.866   5.918   2.236 -0.2579  0.1717  0.2326
13833SOL    HW153972   6.823   5.882   2.154 -2.0792  0.3613  1.0785
13833SOL    HW253973   6.806   5.986   2.278  0.3645 -0.3768  2.0616
13834SOL     OW53974   5.514   3.665   6.219  0.0048 -0.2928 -0.9932
13834SOL    HW153975   5.560   3.707   6.297 -1.8986  0.3998 -0.2248
13834SOL    HW253976   5.560   3.579   6.196  0.0572 -0.9552  1.4656
13835SOL     OW53977   4.169   0.760   6.118 -0.2568  0.0673 -0.1814
13835SOL    HW153978   4.263   0.759   6.153 -0.7738 -2.3071  1.1720
13835SOL    HW253979   4.156   0.684   6.055 -1.3601  0.2156 -0.1375
13836SOL     OW53980   2.612   3.033   5.762 -0.0731  0.3971 -0.8360
13836SOL    HW153981   2.535   2.985   5.719  0.7281 -0.4064 -1.3916
13836SOL    HW253982   2.624   3.000   5.855 -1.9590  2.3030  0.1110
13837SOL     OW53983   5.867   3.850   0.655  0.0610  0.0537 -0.4644
13837SOL    HW153984   5.877   3.788   0.732 -0.2398 -2.5074 -2.4202
13837SOL    HW253985   5.772   3.879   0.648  0.1871  0.7055  0.4110
13838SOL     OW53986   4.401   2.815   8.850 -0.3850  0.3402  0.2988
13838SOL    HW153987   4.417   2.825   8.948  0.5112  0.5251  0.1306
13838SOL    HW253988   4.428   2.723   8.820 -0.5900  0.3080  0.2075
13839SOL     OW53989   1.897   0.649   0.231  0.1618  0.2161  0.3711
13839SOL    HW153990   1.824   0.652   0.299 -0.3440 -0.2720 -0.1469
13839SOL    HW253991   1.903   0.558   0.191  0.4159  0.5102 -0.2784
13840SOL     OW53992   0.347   5.092   6.776 -0.1656  0.1191 -0.4079
13840SOL    HW153993   0.446   5.100   6.771 -0.0292 -2.1408 -1.9818
13840SOL    HW253994   0.322   5.049   6.863  0.3315 -0.6363 -0.6333
13841SOL     OW53995   3.101   8.550   0.220 -0.2211 -0.2175  0.2497
13841SOL    HW153996   3.011   8.533   0.262 -0.1336  1.2715  1.0985
13841SOL    HW253997   3.160   8.595   0.287  0.2048  1.4283 -1.2162
13842SOL     OW53998   4.344   6.717   3.203 -0.1009  0.1677 -0.0362
13842SOL    HW153999   4.246   6.699   3.206  0.0893 -1.2443 -1.7044
13842SOL    HW254000   4.369   6.756   3.115  0.8722  0.3112  0.2923
13843SOL     OW54001   1.947   0.691   6.033  0.3966 -0.6188 -0.3971
13843SOL    HW154002   1.997   0.723   6.113 -3.0769  0.1518  1.5446
13843SOL    HW254003   1.872   0.631   6.061  0.7443 -2.5191 -3.2976
13844SOL     OW54004   2.987   8.568   6.230 -0.0326 -0.1438 -0.0555
13844SOL    HW154005   3.077   8.587   6.268 -2.4180  3.1560  4.4139
13844SOL    HW254006   2.951   8.483   6.270  0.2935 -0.4386 -0.3835
13845SOL     OW54007   6.484   8.775   2.643 -0.0172 -0.3917  0.4927
13845SOL    HW154008   6.397   8.806   2.603 -0.0906 -0.4027  0.6419
13845SOL    HW254009   6.539   8.855   2.668  0.4614 -0.3924 -0.5644
13846SOL     OW54010   1.891   4.574   0.537 -0.1391  0.0272  0.8114
13846SOL    HW154011   1.977   4.626   0.531  0.5575 -1.2894 -1.0398
13846SOL    HW254012   1.865   4.565   0.633  1.4606  0.9963  1.3656
13847SOL     OW54013   8.738   6.976   7.060 -0.1484 -0.3523 -0.2185
13847SOL    HW154014   8.736   6.976   6.960  0.0651  0.5534 -0.2193
13847SOL    HW254015   8.652   6.936   7.094  0.0684 -1.3008 -0.7616
13848SOL     OW54016   3.158   2.932   4.858 -0.1839  0.2270 -0.3846
13848SOL    HW154017   3.152   3.018   4.808  0.5823  1.2578  1.2286
13848SOL    HW254018   3.067   2.908   4.894 -0.2956  0.6751 -0.3588
13849SOL     OW54019   5.154   4.053   6.190 -0.8299  0.2777  0.1939
13849SOL    HW154020   5.200   3.975   6.147 -2.4520 -1.1391  0.9980
13849SOL    HW254021   5.057   4.053   6.165 -1.0416  1.4842  0.9697
13850SOL     OW54022   7.789   3.996   0.013  0.1429 -0.1529  0.4472
13850SOL    HW154023   7.792   4.093   0.037 -1.8268 -0.0833  0.4786
13850SOL    HW254024   7.709   3.954   0.056 -0.3806 -1.2436 -1.5266
13851SOL     OW54025   7.241   4.019   0.986  0.0641  0.6829  0.0598
13851SOL    HW154026   7.211   3.926   1.009  1.8504  0.0888  0.0693
13851SOL    HW254027   7.226   4.079   1.065  1.8079 -0.2999  1.1595
13852SOL     OW54028   6.853   2.737   8.667 -0.1769  0.2274  0.2366
13852SOL    HW154029   6.841   2.643   8.637 -0.5521  0.3714 -0.0775
13852SOL    HW254030   6.785   2.795   8.622  0.3166  0.7123  0.1035
13853SOL     OW54031   4.520   3.619   5.953 -0.0673 -0.4885 -0.1132
13853SOL    HW154032   4.444   3.624   6.018  0.9241 -0.3343  1.0433
13853SOL    HW254033   4.603   3.588   6.000  1.1580  1.5171 -0.8874
13854SOL     OW54034   8.746   6.118   2.259 -0.6751 -0.6038  0.1925
13854SOL    HW154035   8.682   6.043   2.243 -2.1437  0.7452 -0.4717
13854SOL    HW254036   8.697   6.205   2.249  1.5648  0.4878 -1.8127
13855SOL     OW54037   3.822   1.369   7.560 -0.5563  0.2484 -0.1680
13855SOL    HW154038   3.824   1.273   7.588 -1.0363 -0.3278 -2.0407
13855SOL    HW254039   3.895   1.387   7.495  0.2011  1.4399  0.9709
13856SOL     OW54040   6.822   5.002   6.138 -0.4017  0.4432 -0.0115
13856SOL    HW154041   6.871   5.053   6.208  0.5356  0.0774 -0.3969
13856SOL    HW254042   6.762   4.935   6.181  0.2929  0.1089  0.4314
13857SOL     OW54043   7.572   6.803   6.511 -0.3729  0.0595  0.0222
13857SOL    HW154044   7.505   6.872   6.482  1.2937  1.7774  0.1270
13857SOL    HW254045   7.623   6.838   6.590  0.2893 -1.4330  0.2626
13858SOL     OW54046   8.076   1.184   5.887 -0.2940 -0.3588  0.3822
13858SOL    HW154047   8.140   1.125   5.838 -0.4306 -0.0868 -0.1210
13858SOL    HW254048   8.042   1.136   5.968  1.7103  0.0438  1.4970
13859SOL     OW54049   4.995   7.668   2.157  0.6432 -0.5226 -0.2844
13859SOL    HW154050   5.087   7.670   2.115 -0.1876 -1.2788 -2.2161
13859SOL    HW254051   4.993   7.730   2.235  2.5079  0.3383 -0.8781
13860SOL     OW54052   0.650   5.266   2.338 -0.2680  0.4452  0.3027
13860SOL    HW154053   0.707   5.209   2.278  0.3584  1.6961 -0.3105
13860SOL    HW254054   0.654   5.231   2.431 -0.8953 -1.2616 -0.2910
13861SOL     OW54055   3.972   4.210   6.491 -0.8148  0.4225 -0.2832
13861SOL    HW154056   4.046   4.203   6.425  0.7335 -2.7474  1.6986
13861SOL    HW254057   3.887   4.233   6.444  1.0976  2.5930 -2.7658
13862SOL     OW54058   8.139   4.183   4.386 -0.0928  0.0234  0.4959
13862SOL    HW154059   8.110   4.188   4.482  0.2350 -2.2494  0.7579
13862SOL    HW254060   8.075   4.126   4.335  0.8121 -0.3879 -0.1980
13863SOL     OW54061   4.617   2.516   2.972  0.4865 -0.2681 -0.0566
13863SOL    HW154062   4.697   2.508   2.913  0.5321  1.6533 -0.2961
13863SOL    HW254063   4.574   2.605   2.958 -1.2474 -0.9671  0.6399
13864SOL     OW54064   5.123   2.165   3.174  0.1769  0.0729 -0.4221
13864SOL    HW154065   5.062   2.121   3.240 -1.1083 -0.0189 -1.6480
13864SOL    HW254066   5.215   2.128   3.185  0.5322  1.7509  2.8854
13865SOL     OW54067   2.154   3.343   8.566  0.3604 -0.0493  0.2175
13865SOL    HW154068   2.165   3.412   8.638  2.3655 -0.5506  0.4169
13865SOL    HW254069   2.059   3.342   8.535 -0.1085  1.4719  1.5509
13866SOL     OW54070   7.979   7.721   5.502  0.4055 -0.5652  0.5557
13866SOL    HW154071   7.952   7.671   5.585 -0.8170  0.3375  0.7351
13866SOL    HW254072   7.927   7.807   5.498  2.5276  0.7389  0.3219
13867SOL     OW54073   0.604   6.616   1.731  0.2089 -0.2362 -0.0037
13867SOL    HW154074   0.671   6.555   1.690 -1.2135 -2.2639  0.6081
13867SOL    HW254075   0.514   6.573   1.729 -1.2800  2.7634 -1.5492
13868SOL     OW54076   1.598   0.494   1.520 -0.7598 -0.3285  1.0709
13868SOL    HW154077   1.654   0.561   1.569 -1.6814  0.3370  1.2116
13868SOL    HW254078   1.503   0.523   1.519 -0.8006 -0.4634 -0.9239
13869SOL     OW54079   2.277   5.203   0.846 -0.6675 -0.0946 -0.3115
13869SOL    HW154080   2.204   5.258   0.806 -0.8214  0.0451  0.1498
13869SOL    HW254081   2.289   5.119   0.794 -1.3595 -0.2533 -0.2135
13870SOL     OW54082   6.863   6.032   0.014  0.3535 -0.8690 -0.1503
13870SOL    HW154083   6.917   6.098   0.067 -0.2859  0.4064 -1.0533
13870SOL    HW254084   6.862   6.060  -0.082 -0.4113 -1.8826 -0.4418
13871SOL     OW54085   0.188   1.341   6.751 -0.2090  0.3277  0.3510
13871SOL    HW154086   0.198   1.366   6.848 -0.8231  0.0233  0.4958
13871SOL    HW254087   0.107   1.283   6.740  1.6139 -2.2549  0.1317
13872SOL     OW54088   2.410   6.719   8.368 -0.2476  0.3254 -0.0843
13872SOL    HW154089   2.349   6.795   8.345 -1.3925 -0.2513  0.9647
13872SOL    HW254090   2.364   6.632   8.347 -0.3888 -0.1557  2.0723
13873SOL     OW54091   7.322   5.929   8.420 -0.4931  0.5971 -0.0099
13873SOL    HW154092   7.408   5.889   8.453 -0.4754  1.2197  0.7018
13873SOL    HW254093   7.312   5.909   8.322  1.2844  1.9389 -0.4939
13874SOL     OW54094   8.614   1.600   6.536 -0.0991  0.0098  0.2792
13874SOL    HW154095   8.712   1.620   6.535 -0.0880 -0.0414 -0.8341
13874SOL    HW254096   8.564   1.682   6.563  0.1660  0.5316 -0.7528
13875SOL     OW54097   5.846   5.808   5.117  0.5652  0.5835 -0.2043
13875SOL    HW154098   5.826   5.728   5.173  1.1918 -1.3971 -2.7040
13875SOL    HW254099   5.761   5.855   5.095  0.0094 -0.3273 -0.0372
13876SOL     OW54100   0.481   3.463   6.086 -0.2050  0.1738  0.6105
13876SOL    HW154101   0.503   3.558   6.105 -0.8172  0.4292  0.0624
13876SOL    HW254102   0.382   3.453   6.072  0.0532 -0.2418 -0.9944
13877SOL     OW54103   0.588   3.954   7.514 -0.4984 -0.6683  0.3529
13877SOL    HW154104   0.632   3.937   7.425  1.6223  1.6244  0.9053
13877SOL    HW254105   0.495   3.987   7.499 -0.4448 -1.0684 -0.9961
13878SOL     OW54106   6.594   8.751   6.219  0.4132  0.2035 -0.0065
13878SOL    HW154107   6.556   8.784   6.133  0.0374  0.3589  0.2205
13878SOL    HW254108   6.645   8.825   6.263 -0.5804  0.5275  0.5898
13879SOL     OW54109   2.055   5.799   4.582  0.5219  0.0091 -0.4058
13879SOL    HW154110   2.139   5.834   4.540  0.7856 -1.1842 -0.8999
13879SOL    HW254111   2.079   5.741   4.660  0.0829  1.0855  0.5385
13880SOL     OW54112   6.111   7.125   2.449 -0.6294 -0.4894  0.0081
13880SOL    HW154113   6.040   7.192   2.428 -1.4410 -1.4337 -0.2926
13880SOL    HW254114   6.132   7.128   2.547 -0.1250  0.7199 -0.1335
13881SOL     OW54115   2.419   3.090   4.401 -0.4897 -0.1436 -0.3889
13881SOL    HW154116   2.495   3.148   4.371 -0.3001 -0.1442  0.0873
13881SOL    HW254117   2.449   2.996   4.409  0.2822  0.2923  2.6660
13882SOL     OW54118   3.919   2.144   0.270 -0.1469 -0.4346  0.1160
13882SOL    HW154119   3.924   2.101   0.180  2.4074  0.2498 -0.1084
13882SOL    HW254120   3.997   2.205   0.282 -1.6782  1.2380  1.9185
13883SOL     OW54121   2.460   8.604   8.592 -0.1841 -0.8190 -0.3574
13883SOL    HW154122   2.458   8.685   8.532 -1.3568 -1.6027 -1.4153
13883SOL    HW254123   2.467   8.522   8.535 -0.5585 -1.5413  0.6419
13884SOL     OW54124   3.432   7.817   1.634  0.1651 -0.7782 -0.3155
13884SOL    HW154125   3.400   7.912   1.638  3.0210  0.1396  2.0935
13884SOL    HW254126   3.479   7.801   1.547  0.7371  0.3683 -0.2176
13885SOL     OW54127   6.175   1.019   1.045 -0.3521 -0.3318 -0.4014
13885SOL    HW154128   6.170   1.118   1.034  1.0288 -0.1514  0.4233
13885SOL    HW254129   6.145   0.994   1.137  1.4480 -0.4302  0.1968
13886SOL     OW54130   8.191   8.824   1.010 -0.3826 -0.0131  0.1783
13886SOL    HW154131   8.235   8.748   1.057  1.5759  1.1455  0.2678
13886SOL    HW254132   8.235   8.838   0.921  0.7823  2.4350  1.1071
13887SOL     OW54133   7.884   7.325   7.192  0.2234  0.7935 -0.2243
13887SOL    HW154134   7.836   7.309   7.278  1.6227  2.4729  0.8843
13887SOL    HW254135   7.945   7.249   7.172 -0.6748  0.0457 -0.1414
13888SOL     OW54136   5.875   8.236   3.130 -0.4619  0.4099 -0.5493
13888SOL    HW154137   5.869   8.327   3.088 -0.8038  1.6790  2.1159
13888SOL    HW254138   5.879   8.246   3.229 -4.3543 -2.6323  0.0429
13889SOL     OW54139   0.566   6.985   6.544 -0.0091  0.7561  0.0383
13889SOL    HW154140   0.524   6.944   6.625  3.0119 -0.8083  0.8976
13889SOL    HW254141   0.531   6.941   6.462  0.3522 -0.9185  0.7644
13890SOL     OW54142   1.878   2.958   5.610 -0.0550 -0.0845  0.1699
13890SOL    HW154143   1.961   3.012   5.599 -0.8283  1.0112 -0.4079
13890SOL    HW254144   1.855   2.914   5.524  0.0194 -0.5117  0.3708
13891SOL     OW54145   5.214   1.196   6.730 -0.2494 -0.0350  0.0454
13891SOL    HW154146   5.128   1.199   6.782  0.6817 -0.1727  1.6120
13891SOL    HW254147   5.257   1.286   6.732  0.2662 -0.2869  0.3307
13892SOL     OW54148   0.372   3.578   1.400  0.2417  0.2187  0.4835
13892SOL    HW154149   0.432   3.509   1.361 -0.6940 -0.8595  0.8979
13892SOL    HW254150   0.338   3.638   1.328  1.4563  0.5646  0.1901
13893SOL     OW54151   5.149   6.047   0.669 -0.3023 -0.1308 -0.5911
13893SOL    HW154152   5.122   6.028   0.763 -0.1748  0.6851 -0.3866
13893SOL    HW254153   5.067   6.047   0.611 -0.6307  1.1851 -0.1661
13894SOL     OW54154   1.113   0.638   8.461 -0.1622  0.0826  0.5541
13894SOL    HW154155   1.058   0.712   8.422  0.0038  0.4840  1.0670
13894SOL    HW254156   1.061   0.553   8.458  0.2013 -0.0951 -1.3949
13895SOL     OW54157   5.634   8.928   8.126  0.0404  0.5523  0.2659
13895SOL    HW154158   5.554   8.886   8.083  1.0627  0.5384 -1.6527
13895SOL    HW254159   5.697   8.857   8.157  0.5082  0.6112 -0.5449
13896SOL     OW54160   5.300   0.879   0.100 -0.9019  0.4554  0.7016
13896SOL    HW154161   5.331   0.973   0.111  2.5437 -0.3533 -1.2558
13896SOL    HW254162   5.306   0.831   0.187 -0.2418  1.3731  1.1672
13897SOL     OW54163   0.301   7.756   1.118 -0.3467 -0.3319 -0.1121
13897SOL    HW154164   0.205   7.728   1.118 -0.4729  0.0917 -0.2189
13897SOL    HW254165   0.317   7.817   1.041 -0.4628  1.2084  1.0604
13898SOL     OW54166   4.319   2.768   7.941 -0.1567 -0.0044  0.1013
13898SOL    HW154167   4.238   2.709   7.938 -0.3955  0.3085  0.4212
13898SOL    HW254168   4.293   2.862   7.921 -0.0503  0.2881  1.3050
13899SOL     OW54169   2.950   1.465   5.803  0.3775 -0.1365  0.4558
13899SOL    HW154170   2.918   1.553   5.767 -0.1647  0.4507  2.3236
13899SOL    HW254171   3.050   1.466   5.808  0.4029  0.1700 -0.0165
13900SOL     OW54172   8.097   2.083   3.310 -0.0629 -0.2513  0.8614
13900SOL    HW154173   8.083   2.081   3.409 -0.7344 -0.5581  0.7616
13900SOL    HW254174   8.017   2.121   3.266  0.2889 -0.0013  0.4398
13901SOL     OW54175   2.546   8.336   5.755  0.1573  0.5277 -0.0329
13901SOL    HW154176   2.597   8.271   5.699 -0.0291  0.6738 -0.3736
13901SOL    HW254177   2.514   8.290   5.838  0.5770  0.3569  0.0346
13902SOL     OW54178   7.753   5.486   7.578 -0.0134  0.5121 -0.5774
13902SOL    HW154179   7.796   5.488   7.668  0.8724  0.1529 -0.9943
13902SOL    HW254180   7.654   5.494   7.589  0.2551  3.3768  0.2751
13903SOL     OW54181   8.447   7.181   0.390  0.1915  0.2815 -0.4956
13903SOL    HW154182   8.461   7.271   0.349 -0.8043  0.2115 -1.0067
13903SOL    HW254183   8.434   7.113   0.318  1.4947 -0.3697 -0.1214
13904SOL     OW54184   8.043   4.423   7.813 -0.2400 -0.3427  0.0382
13904SOL    HW154185   8.045   4.344   7.751  0.4146  1.7561 -2.7049
13904SOL    HW254186   7.959   4.476   7.797  1.1373  1.6106 -0.9130
13905SOL     OW54187   2.577   7.840   3.866  0.4215 -0.0730 -0.3171
13905SOL    HW154188   2.549   7.802   3.954 -0.0351  2.0587  0.5065
13905SOL    HW254189   2.554   7.777   3.792  1.1631 -2.0668  1.1112
13906SOL     OW54190   7.987   5.269   5.278  0.3505  0.1989  0.0935
13906SOL    HW154191   7.998   5.260   5.179  0.3528  1.3685 -0.0232
13906SOL    HW254192   7.912   5.332   5.298 -0.5431 -1.0918  0.8497
13907SOL     OW54193   1.995   4.995   3.606 -0.6274  0.0672  0.0704
13907SOL    HW154194   2.012   4.979   3.509 -3.2860  1.6141 -0.7118
13907SOL    HW254195   2.060   5.063   3.641  0.1048 -0.2238 -0.7217
13908SOL     OW54196   7.764   5.859   6.649  0.9443 -0.1462 -0.7487
13908SOL    HW154197   7.751   5.860   6.748 -0.0578  1.8711 -0.8652
13908SOL    HW254198   7.674   5.857   6.604  1.2648  2.0982 -1.5860
13909SOL     OW54199   4.830   0.140   1.568  0.7128  0.3494  0.0989
13909SOL    HW154200   4.872   0.062   1.614 -0.5793  0.0010  0.7019
13909SOL    HW254201   4.860   0.225   1.612  2.2796  0.2335 -0.6859
13910SOL     OW54202   1.007   2.267   5.274  0.3610 -0.3164 -0.4807
13910SOL    HW154203   1.095   2.284   5.320  0.8384 -2.0899 -0.6740
13910SOL    HW254204   1.015   2.184   5.219 -0.9339  0.4872 -1.8925
13911SOL     OW54205   5.460   4.589   8.760 -0.5116  0.1204  0.5908
13911SOL    HW154206   5.433   4.683   8.779  0.6987  0.0936  2.6133
13911SOL    HW254207   5.548   4.588   8.712 -0.4749  0.0205  0.6582
13912SOL     OW54208   3.400   7.105   2.969 -0.3196  0.0701  0.0663
13912SOL    HW154209   3.479   7.145   2.923 -1.4905  0.9389 -1.2309
13912SOL    HW254210   3.431   7.052   3.048  1.4647  1.5445  0.4000
13913SOL     OW54211   5.273   1.385   8.428 -0.5906  0.1234  0.4180
13913SOL    HW154212   5.189   1.437   8.412 -1.2068 -0.9833 -0.0560
13913SOL    HW254213   5.254   1.288   8.417  1.1200 -0.0472 -1.3133
13914SOL     OW54214   1.797   5.453   8.286  0.0106 -0.0918  0.2316
13914SOL    HW154215   1.865   5.383   8.309  0.0899 -0.7500 -1.8497
13914SOL    HW254216   1.706   5.422   8.315  0.1161 -0.8450 -0.2116
13915SOL     OW54217   4.068   0.072   4.566 -0.0938 -0.4740  0.0985
13915SOL    HW154218   4.058   0.083   4.467 -2.0025  2.2169  0.5366
13915SOL    HW254219   4.164   0.053   4.587  0.3167 -1.2432 -2.2624
13916SOL     OW54220   2.826   8.545   0.298  0.5331  0.2371 -0.0085
13916SOL    HW154221   2.778   8.632   0.309  0.1937  0.0817 -0.2614
13916SOL    HW254222   2.771   8.483   0.241  1.4805  0.4272 -1.1580
13917SOL     OW54223   8.080   6.740   7.868  0.7219 -0.4401 -0.0982
13917SOL    HW154224   8.049   6.829   7.834  2.6985  0.1171 -0.5233
13917SOL    HW254225   8.109   6.750   7.963  0.3685 -0.7868  0.0500
13918SOL     OW54226   2.287   3.514   2.933 -0.0226 -0.1457 -0.5652
13918SOL    HW154227   2.311   3.568   2.853 -1.1111  0.1815 -0.6753
13918SOL    HW254228   2.195   3.539   2.965  0.3571 -0.3453  0.7223
13919SOL     OW54229   7.794   8.390   2.375  0.0232  0.1399 -0.1455
13919SOL    HW154230   7.893   8.395   2.360  0.4705  3.5734  3.2217
13919SOL    HW254231   7.772   8.309   2.429  0.9200 -0.9020 -1.3267
13920SOL     OW54232   4.820   0.503   6.964 -0.1115  0.0359 -0.0657
13920SOL    HW154233   4.776   0.555   7.037 -0.4017 -1.1801  0.6376
13920SOL    HW254234   4.915   0.532   6.955 -0.5878  1.5025 -0.4712
13921SOL     OW54235   6.095   5.589   8.604 -0.5889  0.0001 -0.1341
13921SOL    HW154236   6.162   5.604   8.531 -0.7531 -0.9881 -0.4964
13921SOL    HW254237   6.142   5.586   8.692 -0.3962  1.2524 -0.1892
13922SOL     OW54238   7.026   8.603   6.161 -0.6315 -0.8612  0.5544
13922SOL    HW154239   6.959   8.667   6.124 -0.6790 -1.5524 -0.6013
13922SOL    HW254240   7.007   8.586   6.258 -0.4691  1.0405  0.9298
13923SOL     OW54241   7.806   1.317   1.917 -0.1499  0.1092 -0.5149
13923SOL    HW154242   7.883   1.332   1.856  0.7709  0.3844  0.6855
13923SOL    HW254243   7.789   1.400   1.970  0.6963 -0.9072  1.4069
13924SOL     OW54244   5.181   3.959   7.876 -0.2261  0.1270 -0.2255
13924SOL    HW154245   5.234   3.895   7.932 -4.0564 -1.0723  2.2202
13924SOL    HW254246   5.176   4.047   7.921  0.0197  0.3615 -0.6526
13925SOL     OW54247   5.444   2.422   8.886 -0.2716 -0.1355 -0.3313
13925SOL    HW154248   5.472   2.446   8.979  1.2068 -1.1199 -0.5116
13925SOL    HW254249   5.363   2.475   8.861  0.7456  1.9274  0.6192
13926SOL     OW54250   3.666   7.465   7.496  0.0369 -0.3590  0.4017
13926SOL    HW154251   3.663   7.472   7.397 -0.7170  0.4247  0.4698
13926SOL    HW254252   3.720   7.540   7.533 -1.0277  0.2876  0.6689
13927SOL     OW54253   7.107   6.668   2.174 -0.3290  0.0283  0.0995
13927SOL    HW154254   7.156   6.595   2.126 -1.0019  1.3943 -2.7770
13927SOL    HW254255   7.008   6.657   2.159 -0.5028  0.8671  0.6029
13928SOL     OW54256   6.970   5.368   8.264  0.4362 -0.1919 -0.1612
13928SOL    HW154257   6.945   5.278   8.230 -0.5567 -0.0545  0.1838
13928SOL    HW254258   7.069   5.379   8.260  0.7276 -1.9752  1.4455
13929SOL     OW54259   8.540   4.274   0.143 -0.0916  0.6660 -0.2455
13929SOL    HW154260   8.571   4.366   0.119 -1.3230  0.9399 -0.8283
13929SOL    HW254261   8.620   4.214   0.156  0.7020  1.6775 -0.3932
13930SOL     OW54262   2.962   6.584   5.552  0.0470 -0.2077 -0.3361
13930SOL    HW154263   2.880   6.618   5.506 -0.0277  0.8209  0.5381
13930SOL    HW254264   2.954   6.485   5.565 -1.2380 -0.0570  0.0842
13931SOL     OW54265   3.554   6.121   0.340 -0.2582  0.6607  0.1748
13931SOL    HW154266   3.470   6.067   0.339  0.5602 -0.6313  0.0558
13931SOL    HW254267   3.597   6.118   0.250  1.3258 -0.9567  0.9552
13932SOL     OW54268   5.373   6.942   5.108  0.1303 -0.6142  0.0686
13932SOL    HW154269   5.369   6.916   5.205  2.9164 -2.0071 -0.1244
13932SOL    HW254270   5.444   7.011   5.095  1.7313 -2.4552 -1.3356
13933SOL     OW54271   0.364   1.520   2.228 -0.4959 -0.6268  0.5160
13933SOL    HW154272   0.290   1.536   2.293 -0.5348  0.9123  0.1057
13933SOL    HW254273   0.446   1.569   2.257 -0.4537 -0.0884 -0.4823
13934SOL     OW54274   6.422   0.320   6.962  0.0246 -0.1774  0.1080
13934SOL    HW154275   6.406   0.276   7.050 -0.5177  0.2926  0.2438
13934SOL    HW254276   6.516   0.303   6.933 -0.0300 -1.0033  0.3991
13935SOL     OW54277   5.884   4.021   6.974  0.0842 -0.2457 -0.1041
13935SOL    HW154278   5.884   4.111   6.930 -2.8463 -0.8875 -1.4932
13935SOL    HW254279   5.865   3.950   6.906 -0.0807 -1.6873  1.4132
13936SOL     OW54280   6.906   2.333   1.191 -0.1315  0.3613  0.0970
13936SOL    HW154281   6.889   2.235   1.193 -0.9648  0.5135  0.8107
13936SOL    HW254282   6.949   2.361   1.277  1.6098  0.3600 -0.7637
13937SOL     OW54283   3.398   8.958   0.998  0.3245 -0.7309  0.5714
13937SOL    HW154284   3.434   8.974   0.906 -2.7038 -0.8316 -0.7077
13937SOL    HW254285   3.462   8.903   1.050  1.9886 -0.9052 -1.5818
13938SOL     OW54286   2.052   7.896   1.209 -0.1439 -0.4501  0.8225
13938SOL    HW154287   2.135   7.952   1.210  0.1778 -0.9126  0.3626
13938SOL    HW254288   2.056   7.832   1.133 -0.9812 -0.3967  0.7225
13939SOL     OW54289   6.477   4.604   8.170 -0.0049  0.0825 -0.2242
13939SOL    HW154290   6.447   4.695   8.142  1.3914  0.2109 -1.3539
13939SOL    HW254291   6.397   4.545   8.179 -0.8248  1.0849 -0.6986
13940SOL     OW54292   4.001   8.971   8.024  0.7025  0.4461 -0.1835
13940SOL    HW154293   4.005   9.027   8.106  0.1072  0.7447 -0.3519
13940SOL    HW254294   4.065   8.894   8.033  0.2521  0.1695  0.7886
13941SOL     OW54295   2.534   0.039   0.812  0.6340 -0.1116  0.0266
13941SOL    HW154296   2.475  -0.042   0.807  0.4198  0.0360  0.0897
13941SOL    HW254297   2.516   0.099   0.734  1.5231 -0.6099 -0.5554
13942SOL     OW54298   8.372   6.519   5.619 -0.1167  0.1291  0.2622
13942SOL    HW154299   8.337   6.612   5.631 -1.4895 -0.5366  1.6202
13942SOL    HW254300   8.381   6.499   5.521 -2.5587  0.7139 -0.1234
13943SOL     OW54301   2.123   8.156   8.377 -0.1336  0.2374  0.2631
13943SOL    HW154302   2.041   8.128   8.328 -0.3881  1.1786  0.1388
13943SOL    HW254303   2.201   8.103   8.344 -0.3214  0.7915 -1.1060
13944SOL     OW54304   0.492   5.165   6.155  0.2484  0.0593 -0.0401
13944SOL    HW154305   0.415   5.108   6.128  0.5006 -0.0854 -0.4533
13944SOL    HW254306   0.461   5.259   6.167  0.1486  0.1379 -0.8956
13945SOL     OW54307   3.773   1.547   6.211  0.3074  0.3407 -0.0686
13945SOL    HW154308   3.783   1.489   6.292 -0.0714  0.9730  0.4389
13945SOL    HW254309   3.856   1.603   6.200 -0.6448  2.0759  1.3444
13946SOL     OW54310   2.884   1.743   7.214 -0.1463  0.4608 -0.6733
13946SOL    HW154311   2.874   1.776   7.308 -1.9769 -0.0565 -0.6491
13946SOL    HW254312   2.968   1.779   7.174  0.0673  1.6248  0.7782
13947SOL     OW54313   3.766   5.734   7.390 -0.5843  0.4632 -0.4988
13947SOL    HW154314   3.693   5.669   7.370  1.0073 -1.0805 -1.3662
13947SOL    HW254315   3.747   5.821   7.344 -2.3008  0.3905  0.0115
13948SOL     OW54316   2.956   7.623   8.266  0.6094  0.4978 -0.5342
13948SOL    HW154317   3.031   7.633   8.200 -0.5040  2.0084 -1.5888
13948SOL    HW254318   2.896   7.549   8.237  1.7290 -0.7791  0.3632
13949SOL     OW54319   8.762   8.965   6.201  0.7664  0.0964 -0.4613
13949SOL    HW154320   8.801   8.984   6.292 -0.0547 -0.4376  0.0127
13949SOL    HW254321   8.684   8.904   6.211  2.4641 -2.4042 -1.8060
13950SOL     OW54322   3.703   6.891   8.360 -0.0507 -0.2056  0.3629
13950SOL    HW154323   3.792   6.845   8.366 -0.8395 -1.8965 -0.6229
13950SOL    HW254324   3.674   6.894   8.264 -2.6138 -2.6964  1.0208
13951SOL     OW54325   2.333   2.384   5.388 -0.3445  0.5088  0.0972
13951SOL    HW154326   2.315   2.386   5.486 -0.8748  0.3252  0.0060
13951SOL    HW254327   2.420   2.339   5.371  0.3602  1.6511  0.5643
13952SOL     OW54328   4.245   5.487   4.525  0.4188 -0.3451 -0.4253
13952SOL    HW154329   4.308   5.410   4.526 -0.0617 -0.7822  2.2975
13952SOL    HW254330   4.273   5.554   4.595  0.5543  1.7249 -2.4081
13953SOL     OW54331   7.561   1.400   6.363 -0.8235 -0.0591  0.4728
13953SOL    HW154332   7.469   1.431   6.388 -1.7906 -2.7646  0.4663
13953SOL    HW254333   7.554   1.323   6.299  1.4260 -0.3807  0.5757
13954SOL     OW54334   6.694   6.231   7.751 -0.0110 -0.4280 -0.1643
13954SOL    HW154335   6.644   6.278   7.823  2.1502  1.2182  0.2879
13954SOL    HW254336   6.771   6.181   7.790  0.3335 -0.7002 -1.1727
13955SOL     OW54337   1.572   1.589   5.318 -0.3472  0.3517 -0.1055
13955SOL    HW154338   1.541   1.545   5.403 -0.9423  1.4464  0.2639
13955SOL    HW254339   1.520   1.553   5.241 -0.7136  0.2704  0.1736
13956SOL     OW54340   1.300   1.211   2.078  0.2236  0.2565 -0.5427
13956SOL    HW154341   1.360   1.205   2.158  0.9022 -0.5148 -1.1038
13956SOL    HW254342   1.238   1.132   2.077 -1.3173  1.4144  0.4268
13957SOL     OW54343   5.277   1.722   1.903 -0.3081  0.1602  0.2297
13957SOL    HW154344   5.295   1.768   1.817  1.4242 -0.3680  0.2952
13957SOL    HW254345   5.233   1.634   1.886  1.5091 -0.6840 -0.2370
13958SOL     OW54346   5.655   3.740   6.449 -0.0470  0.0059  0.1794
13958SOL    HW154347   5.729   3.714   6.510 -0.6398  0.7279  1.2089
13958SOL    HW254348   5.685   3.816   6.391  0.9280 -1.4572 -1.3068
13959SOL     OW54349   6.672   4.033   6.140  0.1457 -0.3393 -0.2838
13959SOL    HW154350   6.590   3.992   6.179 -1.2380  1.1604 -1.5234
13959SOL    HW254351   6.740   4.049   6.212 -0.4496 -2.0421  0.6664
13960SOL     OW54352   2.102   4.873   8.223 -0.1634  0.6553  0.2262
13960SOL    HW154353   2.002   4.874   8.221 -0.1487  0.8606 -1.1765
13960SOL    HW254354   2.137   4.851   8.132  1.0685  0.3410  0.7616
13961SOL     OW54355   4.148   2.105   5.197 -0.4053 -0.2990  0.1539
13961SOL    HW154356   4.163   2.146   5.107  0.5729  0.2565  0.5520
13961SOL    HW254357   4.066   2.143   5.238 -0.3933  0.0686 -0.1618
13962SOL     OW54358   0.419   5.518   5.984 -0.3720 -0.0941  0.0179
13962SOL    HW154359   0.514   5.533   5.954 -0.6173 -0.2858 -0.8594
13962SOL    HW254360   0.419   5.479   6.076  0.3779  1.3266  0.6399
13963SOL     OW54361   7.700   6.789   7.738 -0.7649 -0.0473 -0.1410
13963SOL    HW154362   7.635   6.835   7.678  0.2323  1.2941 -0.1982
13963SOL    HW254363   7.764   6.855   7.775 -1.1822 -0.9087  2.1974
13964SOL     OW54364   0.079   5.485   0.575 -0.3168 -0.6080  0.3693
13964SOL    HW154365   0.122   5.419   0.637  1.4795 -0.6743 -0.9267
13964SOL    HW254366   0.032   5.435   0.502  0.0368 -0.4826  0.0541
13965SOL     OW54367   0.214   8.568   0.812  0.4151  0.0009  0.7302
13965SOL    HW154368   0.270   8.647   0.787  0.6294 -0.7181 -1.1004
13965SOL    HW254369   0.194   8.514   0.731 -0.4513 -1.3751  1.8375
13966SOL     OW54370   7.504   2.516   6.468  0.0723 -0.0118 -0.0099
13966SOL    HW154371   7.531   2.529   6.373 -0.6209  0.8613 -0.0881
13966SOL    HW254372   7.486   2.604   6.510 -2.6618 -0.5526  0.0300
13967SOL     OW54373   5.253   3.549   6.069 -0.2606  0.0359 -0.0638
13967SOL    HW154374   5.343   3.590   6.078 -0.3593 -0.2570  2.4963
13967SOL    HW254375   5.256   3.452   6.094 -1.5147  0.3300  1.3236
13968SOL     OW54376   0.766   8.346   6.515  0.0163  0.1592  0.0166
13968SOL    HW154377   0.795   8.298   6.598  0.6639  1.6773  0.6851
13968SOL    HW254378   0.672   8.378   6.526 -0.9454 -2.2097 -1.0088
13969SOL     OW54379   4.578   3.280   0.477 -0.3581 -0.2114 -0.1789
13969SOL    HW154380   4.482   3.268   0.451  0.1463 -2.3505 -1.2084
13969SOL    HW254381   4.634   3.291   0.395  0.4177 -0.0319  0.3642
13970SOL     OW54382   5.138   5.480   6.048  0.0431 -0.4442  0.7426
13970SOL    HW154383   5.154   5.560   5.990  0.0046 -0.3664  0.8396
13970SOL    HW254384   5.202   5.481   6.125 -0.6270  0.0192  1.2900
13971SOL     OW54385   7.504   6.868   3.515 -0.5480  0.2296 -0.0804
13971SOL    HW154386   7.409   6.893   3.497 -0.1749  1.7061 -0.0941
13971SOL    HW254387   7.536   6.805   3.445 -1.5471 -0.3801 -0.0012
13972SOL     OW54388   1.410   6.785   8.010 -0.0650  0.2236 -0.3378
13972SOL    HW154389   1.343   6.772   8.083  1.1168 -1.0586  0.5514
13972SOL    HW254390   1.399   6.876   7.970 -3.2449 -0.4641 -1.1586
13973SOL     OW54391   8.024   7.038   0.597  1.0857  0.4789  0.0697
13973SOL    HW154392   8.118   7.008   0.610  1.4312  0.9414 -1.3013
13973SOL    HW254393   8.007   7.121   0.650  0.6534 -1.0610  2.4413
13974SOL     OW54394   1.004   4.528   0.138 -0.7390  0.6017 -0.1369
13974SOL    HW154395   1.037   4.542   0.044  1.4486  1.4474  0.7256
13974SOL    HW254396   1.014   4.613   0.190  1.0059 -0.6995  1.7162
13975SOL     OW54397   8.241   4.142   7.820  0.3298  0.0997 -0.1418
13975SOL    HW154398   8.174   4.208   7.853  0.9076 -0.1047  1.4848
13975SOL    HW254399   8.270   4.083   7.895  0.1466 -1.7374 -1.4878
13976SOL     OW54400   3.517   3.208   1.968 -0.2897 -0.0683  0.4073
13976SOL    HW154401   3.486   3.113   1.971  0.4015 -0.3372 -0.5145
13976SOL    HW254402   3.490   3.249   1.880  0.2246  0.3005  0.4191
13977SOL     OW54403   2.713   4.227   6.356  0.1506 -0.2939  0.4470
13977SOL    HW154404   2.793   4.233   6.415  0.9171  2.1573 -0.7860
13977SOL    HW254405   2.737   4.178   6.272 -0.2828 -1.5789  1.0541
13978SOL     OW54406   7.229   5.850   0.449  0.1371  0.3273  0.2067
13978SOL    HW154407   7.239   5.914   0.373 -0.8795 -2.4715 -2.3997
13978SOL    HW254408   7.155   5.880   0.509 -1.6206  0.6290 -2.0568
13979SOL     OW54409   7.921   4.866   5.285 -0.4421  0.1948 -0.3417
13979SOL    HW154410   7.923   4.781   5.338 -1.7981 -0.8279 -1.8365
13979SOL    HW254411   7.934   4.944   5.345  0.3491 -1.0503  1.1380
13980SOL     OW54412   7.448   8.527   1.310  0.4245 -0.2974  0.2062
13980SOL    HW154413   7.366   8.501   1.259  0.5480  0.1754 -0.2364
13980SOL    HW254414   7.520   8.554   1.246  0.3548  0.9616  0.6399
13981SOL     OW54415   0.653   8.971   1.575 -0.6883  0.4194  0.2206
13981SOL    HW154416   0.598   9.050   1.602  0.6265  1.1779  0.6841
13981SOL    HW254417   0.611   8.927   1.495 -2.0380  0.9046  0.6490
13982SOL     OW54418   4.018   3.355   3.284  0.3068 -0.1365  0.6110
13982SOL    HW154419   4.004   3.420   3.358 -0.3067  1.7394 -1.0845
13982SOL    HW254420   4.092   3.387   3.224 -0.6884 -0.4564 -0.8232
13983SOL     OW54421   3.635   4.552   5.560  0.6499 -0.2657  0.5945
13983SOL    HW154422   3.709   4.570   5.496  0.8240 -1.3203  0.4982
13983SOL    HW254423   3.547   4.571   5.515  0.8440  0.7713  0.6393
13984SOL     OW54424   3.977   4.819   8.188 -0.2981 -0.1118 -0.4829
13984SOL    HW154425   4.022   4.859   8.108  1.7354  1.2899  1.2949
13984SOL    HW254426   4.031   4.741   8.221 -0.9465 -0.4804 -0.2816
13985SOL     OW54427   6.480   5.714   8.833  0.0782  0.3080 -0.3634
13985SOL    HW154428   6.520   5.625   8.810  0.9013  0.2329  1.3286
13985SOL    HW254429   6.544   5.767   8.887 -1.9116  0.3447  2.0725
13986SOL     OW54430   3.038   4.624   4.051  0.1235 -0.1810  0.5251
13986SOL    HW154431   3.046   4.625   4.151  0.8172  0.0353  0.4737
13986SOL    HW254432   3.030   4.718   4.018 -0.3108 -0.2659  0.3918
13987SOL     OW54433   7.612   1.827   0.183 -0.3111 -0.0872 -0.3062
13987SOL    HW154434   7.547   1.830   0.107 -0.9938  0.2331  0.2866
13987SOL    HW254435   7.562   1.832   0.270  0.5540  1.1606  0.1362
13988SOL     OW54436   5.275   7.652   7.704  0.2242  0.1444  0.1063
13988SOL    HW154437   5.255   7.712   7.782 -1.4950 -0.4891  0.1829
13988SOL    HW254438   5.264   7.704   7.619 -2.2805 -0.2551  0.1264
13989SOL     OW54439   7.110   5.997   4.162 -0.6310  0.4462 -0.8359
13989SOL    HW154440   7.143   5.903   4.157 -1.5798  0.1443 -1.4284
13989SOL    HW254441   7.016   5.998   4.196 -0.1506  1.2856  0.5549
13990SOL     OW54442   3.152   7.349   4.957 -0.8366  0.1125  0.0043
13990SOL    HW154443   3.249   7.349   4.933 -0.5529 -2.6837  0.9758
13990SOL    HW254444   3.129   7.436   5.001  1.1987  0.8477 -0.3259
13991SOL     OW54445   2.608   2.553   4.159  0.1032  0.1356 -0.2363
13991SOL    HW154446   2.527   2.552   4.217  0.2325  0.6725 -0.0491
13991SOL    HW254447   2.583   2.525   4.066 -0.2219 -0.0823 -0.0835
13992SOL     OW54448   6.523   6.135   3.722  0.4582  0.1537  0.1603
13992SOL    HW154449   6.602   6.083   3.753  0.0817  0.0299  0.9358
13992SOL    HW254450   6.534   6.159   3.626  0.4224 -1.7658 -0.3430
13993SOL     OW54451   0.058   2.561   2.444 -0.2796  0.0480  0.4420
13993SOL    HW154452   0.090   2.514   2.527  1.0943 -1.0701 -0.6989
13993SOL    HW254453   0.117   2.638   2.424  0.5341 -0.8140 -0.5386
13994SOL     OW54454   4.069   4.366   7.867  0.3222  0.2009 -0.3435
13994SOL    HW154455   4.121   4.415   7.796  1.4120 -0.8340 -0.2641
13994SOL    HW254456   4.046   4.275   7.834 -0.1902  0.1388  0.1860
13995SOL     OW54457   0.272   2.902   5.489  0.0120 -0.5527  0.4621
13995SOL    HW154458   0.255   2.810   5.524  0.7450 -0.9759 -0.2761
13995SOL    HW254459   0.255   2.969   5.561 -0.9181 -1.2307  0.8904
13996SOL     OW54460   6.635   6.528   8.522 -0.1316 -0.1497 -0.4535
13996SOL    HW154461   6.545   6.490   8.501 -1.2414  0.0417  3.5181
13996SOL    HW254462   6.635   6.626   8.503 -0.6833 -0.1952 -0.7017
13997SOL     OW54463   6.414   2.531   7.020 -0.6811 -0.2650  0.4969
13997SOL    HW154464   6.342   2.502   6.956  1.4599  0.2167 -2.2444
13997SOL    HW254465   6.413   2.631   7.027  0.9710 -0.0827 -1.2074
13998SOL     OW54466   6.308   4.948   1.169 -0.6552  0.1488  0.6888
13998SOL    HW154467   6.215   4.964   1.136 -0.7117  0.5641  1.0435
13998SOL    HW254468   6.313   4.968   1.267 -0.3826 -0.6430  0.8394
13999SOL     OW54469   5.440   1.202   1.046  0.2482  0.7066 -0.8051
13999SOL    HW154470   5.486   1.114   1.057  0.4043  0.5528 -2.6103
13999SOL    HW254471   5.507   1.274   1.028  0.2331  1.4404  1.7884
14000SOL     OW54472   8.457   5.900   2.511  0.0253 -0.0525 -0.2450
14000SOL    HW154473   8.419   5.811   2.537 -3.9513  1.0095 -2.1172
14000SOL    HW254474   8.500   5.893   2.421 -0.0646 -0.1381 -0.2820
14001SOL     OW54475   2.396   5.883   7.395  0.2866 -0.2471 -0.0633
14001SOL    HW154476   2.300   5.906   7.405  0.5507  0.3469  1.1759
14001SOL    HW254477   2.444   5.959   7.351  0.3824 -0.1322  0.2414
14002SOL     OW54478   5.214   7.114   7.692 -0.0838  0.1277  0.1941
14002SOL    HW154479   5.218   7.039   7.757  1.0390 -0.2047 -0.2413
14002SOL    HW254480   5.307   7.137   7.662 -0.3548  2.1146  0.8099
14003SOL     OW54481   0.721   2.251   4.318  0.2031 -0.4795 -0.5160
14003SOL    HW154482   0.813   2.228   4.351 -0.0015 -0.1561  0.2840
14003SOL    HW254483   0.707   2.350   4.324  0.3290 -0.3531 -2.0141
14004SOL     OW54484   3.543   6.974   3.209  0.0690  0.1578 -0.2048
14004SOL    HW154485   3.503   7.034   3.278  2.5009 -0.3852  1.7194
14004SOL    HW254486   3.516   6.879   3.229 -1.5489  0.2631 -1.6937
14005SOL     OW54487   7.074   3.986   7.829  0.4092  0.8055  0.6282
14005SOL    HW154488   7.031   3.896   7.834  1.5331  0.1171 -1.2843
14005SOL    HW254489   7.027   4.042   7.761  0.4802  1.2154  0.9141
14006SOL     OW54490   0.034   8.034   0.782 -0.3965 -0.6018 -0.3637
14006SOL    HW154491   0.059   7.963   0.848 -0.2639  0.9199  1.2584
14006SOL    HW254492  -0.031   8.097   0.824  0.0745  0.6781 -1.5289
14007SOL     OW54493   3.402   5.326   0.554  0.6129 -0.4479  0.2993
14007SOL    HW154494   3.323   5.266   0.543 -0.1997  0.3755  1.5767
14007SOL    HW254495   3.411   5.385   0.473  0.2917 -0.9623 -0.1167
14008SOL     OW54496   8.907   5.284   0.048  0.2146  0.1713  0.0943
14008SOL    HW154497   8.895   5.376   0.010 -0.5812  0.0585  0.0676
14008SOL    HW254498   9.001   5.254   0.031  1.2741  1.9892  2.3616
14009SOL     OW54499   3.293   5.075   2.164  0.1294 -0.2289  0.5310
14009SOL    HW154500   3.276   4.997   2.224  0.2227 -1.6810 -1.2654
14009SOL    HW254501   3.392   5.087   2.151  0.0786 -2.2141 -2.1517
14010SOL     OW54502   2.840   2.415   4.686  0.6291 -0.3346 -0.3882
14010SOL    HW154503   2.783   2.341   4.723 -0.2804  0.3907 -0.3225
14010SOL    HW254504   2.884   2.464   4.762  1.9081 -1.3238 -0.4674
14011SOL     OW54505   5.624   5.965   2.862  0.4098 -0.6321 -0.7858
14011SOL    HW154506   5.668   5.928   2.781 -2.5982 -1.2675 -2.1833
14011SOL    HW254507   5.629   5.899   2.936 -0.5605 -1.8118 -1.7559
14012SOL     OW54508   7.945   3.894   8.352 -0.1523  0.6286 -0.5254
14012SOL    HW154509   7.898   3.837   8.284 -0.5383  0.5363 -0.1803
14012SOL    HW254510   7.878   3.938   8.411  0.2045  0.1959  0.2088
14013SOL     OW54511   8.374   0.803   0.735 -0.2068  0.5768 -0.1615
14013SOL    HW154512   8.275   0.808   0.748 -0.1668 -0.4104  0.5426
14013SOL    HW254513   8.393   0.746   0.654 -0.2595  1.9978 -1.1864
14014SOL     OW54514   1.742   8.444   8.469  0.5006 -0.8391  0.3477
14014SOL    HW154515   1.697   8.483   8.388  2.6728 -1.4487 -1.2260
14014SOL    HW254516   1.682   8.452   8.548 -1.0181  1.3052 -0.9671
14015SOL     OW54517   1.663   2.330   2.735  0.4610  0.1922 -0.0072
14015SOL    HW154518   1.621   2.259   2.791  2.8340 -0.3643  1.1330
14015SOL    HW254519   1.743   2.294   2.688  1.0461  1.8077 -0.3022
14016SOL     OW54520   0.249   8.935   5.190 -0.3256  0.5638 -0.1706
14016SOL    HW154521   0.331   8.970   5.145 -0.3051 -0.9323 -1.3607
14016SOL    HW254522   0.268   8.920   5.287  0.3532  1.6178 -0.1373
14017SOL     OW54523   3.072   4.661   7.881  0.6727  0.1685 -0.9116
14017SOL    HW154524   2.982   4.705   7.878  0.2667 -0.6095 -0.2700
14017SOL    HW254525   3.124   4.687   7.799  0.1724  1.2645 -0.8955
14018SOL     OW54526   7.788   4.898   2.570 -0.0261  0.5425 -0.4018
14018SOL    HW154527   7.760   4.981   2.619  0.3315  0.4399 -0.0286
14018SOL    HW254528   7.836   4.837   2.632 -0.9932 -0.3101 -0.4652
14019SOL     OW54529   3.230   7.844   1.862 -0.0314 -0.6178 -0.2994
14019SOL    HW154530   3.314   7.810   1.821  1.2131 -0.7243  2.2370
14019SOL    HW254531   3.246   7.936   1.900 -0.8282 -0.9318  0.8255
14020SOL     OW54532   1.855   1.615   6.628 -0.0788 -0.1072  0.0250
14020SOL    HW154533   1.937   1.653   6.672 -0.1609 -0.0754  0.1509
14020SOL    HW254534   1.874   1.597   6.531  0.2525 -0.6564  0.1978
14021SOL     OW54535   7.341   2.879   8.772  0.4639  0.3255  0.4574
14021SOL    HW154536   7.314   2.882   8.676  0.3226 -0.7928  0.4598
14021SOL    HW254537   7.406   2.805   8.787  2.0152  1.7465  0.8547
14022SOL     OW54538   1.766   4.795   0.209  0.4550  0.3828  0.2438
14022SOL    HW154539   1.808   4.711   0.175  1.2340  1.2712 -1.0554
14022SOL    HW254540   1.800   4.815   0.300  1.1611 -0.0993  0.0898
14023SOL     OW54541   3.693   4.481   3.358  0.0207 -0.3540 -0.6215
14023SOL    HW154542   3.743   4.568   3.364 -0.9181  0.1900 -0.6715
14023SOL    HW254543   3.719   4.423   3.436  1.0408 -0.2443 -0.8673
14024SOL     OW54544   0.004   1.346   5.410 -0.3520 -0.7342 -0.3546
14024SOL    HW154545   0.089   1.392   5.385 -0.7595 -0.8318 -1.9340
14024SOL    HW254546  -0.071   1.384   5.357 -0.9019 -2.3335 -0.7270
14025SOL     OW54547   4.795   3.241   1.057  0.1969  0.0058 -0.2075
14025SOL    HW154548   4.781   3.173   1.129 -0.8632 -0.1213 -0.5228
14025SOL    HW254549   4.860   3.205   0.990  0.3737 -0.3142  0.1355
14026SOL     OW54550   7.585   5.875   2.969 -0.1264  0.9307  0.3683
14026SOL    HW154551   7.635   5.854   3.053  1.3489  1.1220 -0.4405
14026SOL    HW254552   7.488   5.857   2.983  0.0091  1.5747  2.3210
14027SOL     OW54553   4.912   4.896   7.435  0.1917 -0.4152 -0.7374
14027SOL    HW154554   4.878   4.903   7.341  1.1492 -1.8977 -1.2178
14027SOL    HW254555   5.008   4.925   7.438  0.1901 -0.4544 -0.2380
14028SOL     OW54556   4.343   6.573   2.319 -0.1327 -0.0904 -0.1672
14028SOL    HW154557   4.353   6.535   2.227 -0.9626  0.3989 -0.4641
14028SOL    HW254558   4.265   6.529   2.364  0.6131 -0.7354  0.5139
14029SOL     OW54559   4.827   2.336   8.286  0.5139  0.3633 -0.4707
14029SOL    HW154560   4.773   2.252   8.289 -0.8538  1.2127 -0.9565
14029SOL    HW254561   4.817   2.385   8.373  1.2780  0.0335 -0.2005
14030SOL     OW54562   3.560   1.761   5.296  0.2057 -0.7345 -0.7291
14030SOL    HW154563   3.495   1.803   5.360 -0.7388 -2.2219 -0.6926
14030SOL    HW254564   3.640   1.820   5.286 -0.3219  0.2309  0.6608
14031SOL     OW54565   4.824   0.592   8.251 -0.8512  0.4803 -0.1582
14031SOL    HW154566   4.823   0.502   8.293 -1.1924 -0.2111 -1.6090
14031SOL    HW254567   4.745   0.645   8.281  0.1028  0.8417  1.8131
14032SOL     OW54568   0.986   5.875   0.131 -0.1505  0.3282 -0.3138
14032SOL    HW154569   1.070   5.838   0.171 -0.0623  1.0825  0.2133
14032SOL    HW254570   0.979   5.846   0.036  1.8728  2.0899 -1.0476
14033SOL     OW54571   1.104   4.380   5.387 -0.3515  0.2301 -0.5015
14033SOL    HW154572   1.013   4.362   5.423 -0.1017 -0.7639 -0.3588
14033SOL    HW254573   1.112   4.343   5.295 -0.7400  2.0991 -1.3171
14034SOL     OW54574   1.724   4.632   7.098  0.1036 -0.0757  0.3954
14034SOL    HW154575   1.822   4.617   7.083 -0.3502 -2.3125 -0.4910
14034SOL    HW254576   1.711   4.677   7.186  1.7942 -1.8608  1.6076
14035SOL     OW54577   4.979   8.866   1.418 -0.1905  0.6404 -0.4516
14035SOL    HW154578   4.964   8.781   1.469 -0.2193 -0.5250 -2.3714
14035SOL    HW254579   4.924   8.939   1.459  0.8282  0.0629  2.0134
14036SOL     OW54580   0.446   1.116   4.951 -0.3118  0.1567 -0.6357
14036SOL    HW154581   0.364   1.060   4.938 -0.3042  0.1381 -0.6042
14036SOL    HW254582   0.524   1.057   4.972 -0.6409  0.2898  0.9934
14037SOL     OW54583   2.894   6.454   1.642 -0.3664  0.6458  1.0217
14037SOL    HW154584   2.810   6.463   1.589  0.2320  0.0737 -0.0378
14037SOL    HW254585   2.872   6.416   1.732 -1.3531  1.3769  1.1009
14038SOL     OW54586   1.611   8.677   1.814  0.5143 -0.0376  0.2209
14038SOL    HW154587   1.619   8.770   1.852  1.7598 -0.1040  0.1399
14038SOL    HW254588   1.519   8.664   1.778  0.5650  1.4397 -0.4746
14039SOL     OW54589   1.921   6.347   1.376  0.2797 -0.4970  0.0209
14039SOL    HW154590   1.856   6.387   1.441  0.7977 -0.3089  0.4208
14039SOL    HW254591   1.930   6.249   1.394 -2.4265 -1.1996 -2.1549
14040SOL     OW54592   2.400   2.402   1.457  0.0403  0.7767  0.0875
14040SOL    HW154593   2.346   2.435   1.379 -0.6506  2.1058  1.1160
14040SOL    HW254594   2.468   2.471   1.482  0.0938  0.4557  0.8361
14041SOL     OW54595   7.961   5.272   2.660 -0.4801 -0.0311  0.1684
14041SOL    HW154596   7.886   5.207   2.669  1.1660 -2.2934 -1.8103
14041SOL    HW254597   8.040   5.240   2.710  0.9687 -0.6066 -2.3868
14042SOL     OW54598   4.719   6.743   2.132  0.4358 -0.2561  0.2044
14042SOL    HW154599   4.687   6.835   2.111  0.4827 -0.8122 -2.3730
14042SOL    HW254600   4.808   6.749   2.179  0.5472  0.9935 -0.1488
14043SOL     OW54601   1.783   8.328   2.172 -0.5988 -0.2727 -0.3725
14043SOL    HW154602   1.853   8.257   2.169  0.5541  0.8378 -0.0246
14043SOL    HW254603   1.774   8.369   2.081  0.0764  0.4070 -0.1420
14044SOL     OW54604   4.980   8.809   7.171 -0.0946 -0.3190 -0.4187
14044SOL    HW154605   4.931   8.726   7.199  0.3752 -0.0280  1.3207
14044SOL    HW254606   4.923   8.860   7.106 -1.1472 -1.1066 -0.1336
14045SOL     OW54607   0.882   7.845   4.697  0.4938  0.1984  0.6186
14045SOL    HW154608   0.840   7.756   4.682  2.3786 -0.6098 -0.0213
14045SOL    HW254609   0.851   7.909   4.626 -0.4958 -0.0669  0.8044
14046SOL     OW54610   4.931   7.989   1.906 -0.4825  0.6563  0.2152
14046SOL    HW154611   4.839   7.975   1.943 -1.0641  1.2092 -1.0096
14046SOL    HW254612   4.985   8.043   1.970 -1.0942  0.5679  0.8111
14047SOL     OW54613   7.440   0.154   7.122  0.3437  0.2201 -0.1410
14047SOL    HW154614   7.457   0.251   7.104  1.0864 -0.5060 -3.7850
14047SOL    HW254615   7.524   0.112   7.157  0.1353  0.7859  1.0657
14048SOL     OW54616   7.497   7.058   2.946  0.0398  0.4135 -0.0191
14048SOL    HW154617   7.460   7.004   3.021  0.1553  0.5056  0.1035
14048SOL    HW254618   7.489   7.005   2.861 -1.3349  0.8501 -0.1741
14049SOL     OW54619   2.250   0.729   1.042 -0.0823 -0.5485 -0.1062
14049SOL    HW154620   2.349   0.740   1.030  0.2827 -1.7572  1.5628
14049SOL    HW254621   2.219   0.653   0.986 -0.2007  0.2371 -1.1308
14050SOL     OW54622   4.942   1.090   2.055 -0.1920 -1.0805 -0.0360
14050SOL    HW154623   4.852   1.045   2.053 -0.8695  0.2854 -1.0813
14050SOL    HW254624   4.999   1.053   1.981 -0.8244 -0.0917 -1.0319
14051SOL     OW54625   7.518   6.319   5.855 -0.9508 -0.3264 -0.1517
14051SOL    HW154626   7.561   6.383   5.791 -1.0070  0.0717  0.2049
14051SOL    HW254627   7.583   6.247   5.879  0.0319  1.0589  1.4980
14052SOL     OW54628   4.168   2.589   3.312 -0.7558  0.3168 -0.3092
14052SOL    HW154629   4.187   2.501   3.269 -1.3266  0.5121 -0.9748
14052SOL    HW254630   4.233   2.604   3.386 -0.0718 -0.2516 -0.7764
14053SOL     OW54631   0.592   0.807   6.141 -0.3399  0.2094 -0.2358
14053SOL    HW154632   0.558   0.901   6.132 -0.4759  0.3472  1.5564
14053SOL    HW254633   0.679   0.799   6.092  2.7441  2.9353  4.4330
14054SOL     OW54634   0.659   0.494   2.047 -0.4205  0.7062  0.1875
14054SOL    HW154635   0.686   0.529   2.137  3.4014 -0.0516 -0.5588
14054SOL    HW254636   0.568   0.528   2.024 -0.5294  2.7964  3.3231
14055SOL     OW54637   2.071   0.629   2.478  0.7307  0.1452  0.2101
14055SOL    HW154638   2.006   0.687   2.528  0.1439 -0.2135 -0.1290
14055SOL    HW254639   2.141   0.687   2.436 -0.4813  0.7335 -1.0437
14056SOL     OW54640   5.508   1.472   8.655  0.1461 -0.0793  0.2326
14056SOL    HW154641   5.514   1.490   8.753  1.4909 -1.2598  0.3774
14056SOL    HW254642   5.551   1.384   8.634 -2.1437 -0.9453 -1.1077
14057SOL     OW54643   1.170   0.973   1.757  0.3225 -0.0773 -0.7849
14057SOL    HW154644   1.167   1.073   1.760  0.1237 -0.0984 -0.1970
14057SOL    HW254645   1.195   0.943   1.665  1.2592  0.5390 -0.7424
14058SOL     OW54646   1.302   4.705   4.547 -0.4843  0.5286  0.5168
14058SOL    HW154647   1.310   4.790   4.495 -0.8112 -0.7187 -1.6790
14058SOL    HW254648   1.206   4.679   4.553 -0.3034 -0.1965  0.3064
14059SOL     OW54649   5.386   0.518   5.532 -0.0945 -0.9222  0.0510
14059SOL    HW154650   5.465   0.514   5.592 -0.6062 -2.2897  0.6535
14059SOL    HW254651   5.390   0.443   5.465 -0.0929 -0.0787 -0.9110
14060SOL     OW54652   3.320   1.046   3.909  0.6193  0.3340  0.0288
14060SOL    HW154653   3.263   1.099   3.972  1.6236  0.4619  0.8427
14060SOL    HW254654   3.416   1.056   3.935  0.9246 -0.7806 -0.6484
14061SOL     OW54655   7.321   3.540   0.517  0.0932  0.1764  0.2521
14061SOL    HW154656   7.313   3.572   0.612  0.7758  0.4467  0.2240
14061SOL    HW254657   7.407   3.490   0.507 -0.8219 -1.4150  0.2183
14062SOL     OW54658   3.642   2.195   2.315  0.3831  0.1104  0.3328
14062SOL    HW154659   3.686   2.196   2.225  0.7665  0.7971  0.5277
14062SOL    HW254660   3.692   2.256   2.377 -0.7577  0.7718  0.5983
14063SOL     OW54661   0.375   4.985   0.566 -0.0269  0.2531 -0.0999
14063SOL    HW154662   0.419   4.900   0.596 -0.7458  0.2503  0.9782
14063SOL    HW254663   0.279   4.985   0.595  0.6994  2.7220  2.4947
14064SOL     OW54664   8.362   7.162   4.940 -0.1391 -0.0926 -0.1375
14064SOL    HW154665   8.390   7.210   4.857 -2.0612 -1.3279 -1.5617
14064SOL    HW254666   8.290   7.096   4.918 -0.8425 -0.3103  2.5588
14065SOL     OW54667   5.150   0.333   1.186  0.1121  0.6085  0.0066
14065SOL    HW154668   5.171   0.429   1.206  0.2561  0.6271 -0.2397
14065SOL    HW254669   5.197   0.305   1.103  1.8173 -0.3221  1.2473
14066SOL     OW54670   5.078   8.771   3.360 -0.0905  0.2108 -0.0663
14066SOL    HW154671   5.128   8.712   3.297 -0.3001  1.3064 -1.2728
14066SOL    HW254672   5.036   8.715   3.432  0.4569 -1.0013 -0.6797
14067SOL     OW54673   2.713   5.777   4.182 -0.0783 -0.5765  0.1044
14067SOL    HW154674   2.676   5.870   4.177  0.0572 -0.4380  1.3689
14067SOL    HW254675   2.805   5.776   4.144  0.5904  0.1919  1.6375
14068SOL     OW54676   2.217   4.017   0.745 -0.4445 -0.7365 -0.4386
14068SOL    HW154677   2.252   4.105   0.714 -1.1801  0.9050  3.1493
14068SOL    HW254678   2.159   3.977   0.673  0.5395  1.2752 -2.4197
14069SOL     OW54679   7.386   4.321   4.229  0.8939  1.1125  0.3699
14069SOL    HW154680   7.352   4.394   4.288  1.1182  0.1066  1.7791
14069SOL    HW254681   7.310   4.282   4.177  0.0512 -0.2436  2.5254
14070SOL     OW54682   8.307   6.167   7.850 -0.0591  0.4933 -0.2899
14070SOL    HW154683   8.327   6.225   7.928 -1.9997  1.0962 -0.2091
14070SOL    HW254684   8.289   6.224   7.769 -0.3399 -0.0355 -0.6054
14071SOL     OW54685   3.731   1.240   3.843  0.2417 -0.1651 -0.5387
14071SOL    HW154686   3.759   1.248   3.747  0.1277  1.3166 -0.4542
14071SOL    HW254687   3.810   1.211   3.897  0.6619  0.3213 -0.8811
14072SOL     OW54688   8.982   3.091   6.252  0.5327  0.6307  0.4789
14072SOL    HW154689   8.890   3.116   6.284  0.6337 -0.0472  1.3159
14072SOL    HW254690   9.016   3.014   6.306  1.2642  0.3512 -0.3758
14073SOL     OW54691   5.363   7.892   8.503 -0.2058  0.2948  0.5324
14073SOL    HW154692   5.424   7.821   8.538  0.0831 -0.6809 -1.8618
14073SOL    HW254693   5.413   7.979   8.502  0.1578  0.1095  1.3879
14074SOL     OW54694   0.732   3.414   0.041  0.2621 -0.2614 -0.3137
14074SOL    HW154695   0.640   3.396   0.074 -0.5352 -0.1787 -2.4150
14074SOL    HW254696   0.738   3.509   0.009  1.2952 -0.0436  0.4829
14075SOL     OW54697   4.230   0.828   4.220 -0.5084 -0.2530  0.1884
14075SOL    HW154698   4.160   0.761   4.245  0.2014 -0.9910  0.2142
14075SOL    HW254699   4.320   0.797   4.252 -0.3292  1.2701  1.2451
14076SOL     OW54700   5.873   7.028   3.544 -0.3277 -0.0557 -0.3439
14076SOL    HW154701   5.903   7.119   3.573  2.1640 -0.2592 -2.2132
14076SOL    HW254702   5.917   6.959   3.601 -0.3650 -0.1962 -0.4866
14077SOL     OW54703   3.490   5.923   6.206 -1.1493  0.5487  0.1876
14077SOL    HW154704   3.464   6.004   6.259 -2.8746 -0.7865  1.4162
14077SOL    HW254705   3.490   5.843   6.265 -0.8006 -0.5850 -1.3272
14078SOL     OW54706   5.572   7.127   5.167  0.3388  0.1831 -0.0177
14078SOL    HW154707   5.598   7.223   5.170 -1.9704  0.8328  0.0077
14078SOL    HW254708   5.546   7.096   5.259 -1.5741  0.3243 -0.4871
14079SOL     OW54709   1.177   3.608   4.014 -0.6063 -0.0287 -0.0197
14079SOL    HW154710   1.169   3.638   4.109 -2.1013 -1.3552  0.2850
14079SOL    HW254711   1.259   3.552   4.003 -0.4092  0.1672  0.4551
14080SOL     OW54712   0.600   2.164   6.641 -0.4611 -0.1040  0.0117
14080SOL    HW154713   0.677   2.104   6.665 -0.7541 -1.0307 -1.3074
14080SOL    HW254714   0.542   2.176   6.721  0.0218 -0.9626  0.5051
14081SOL     OW54715   0.328   1.686   6.200  0.3763 -0.3598  0.2873
14081SOL    HW154716   0.391   1.666   6.125 -1.2771 -0.0212 -1.2326
14081SOL    HW254717   0.246   1.630   6.190 -0.2211  0.2925  1.3938
14082SOL     OW54718   8.271   2.455   7.356  0.2324 -0.4161 -0.1551
14082SOL    HW154719   8.258   2.388   7.429  1.0362 -0.4746 -0.0684
14082SOL    HW254720   8.239   2.416   7.269 -1.3619 -0.0991  0.2632
14083SOL     OW54721   7.975   3.948   7.921  0.1497  0.1224 -0.4185
14083SOL    HW154722   7.997   3.874   7.857 -0.8594 -1.4977  1.0635
14083SOL    HW254723   8.047   3.956   7.990  0.3262  0.6294 -0.6579
14084SOL     OW54724   3.573   6.071   7.727  0.2306  0.4694  0.3810
14084SOL    HW154725   3.568   5.999   7.797  0.8247  0.8405  0.8120
14084SOL    HW254726   3.505   6.141   7.747  0.9902  1.0194  1.1061
14085SOL     OW54727   4.703   4.329   6.946 -0.0715 -0.3031 -0.6104
14085SOL    HW154728   4.711   4.264   7.022 -0.8191  0.4635  0.1526
14085SOL    HW254729   4.784   4.324   6.889  0.5995 -0.7697  0.3601
14086SOL     OW54730   5.769   7.070   2.304  0.0258 -0.0102  0.5228
14086SOL    HW154731   5.819   7.153   2.330  0.8095 -0.6763  1.1851
14086SOL    HW254732   5.739   7.023   2.387 -0.2878 -0.4599  0.1501
14087SOL     OW54733   8.642   6.135   1.063 -0.0865  0.8866  0.0208
14087SOL    HW154734   8.718   6.071   1.060 -1.1176 -0.3832  0.7203
14087SOL    HW254735   8.604   6.145   0.971 -0.2533  0.0920  0.0027
14088SOL     OW54736   4.094   4.123   5.439  0.3006  0.1354 -0.1147
14088SOL    HW154737   4.186   4.117   5.402  0.4414  1.5160 -0.0287
14088SOL    HW254738   4.090   4.076   5.527  0.8644 -0.1202 -0.2249
14089SOL     OW54739   6.359   4.850   4.673 -0.0625 -0.4694  0.3029
14089SOL    HW154740   6.354   4.884   4.579 -0.8680 -0.6044  0.2936
14089SOL    HW254741   6.408   4.916   4.729  1.9793 -1.1982 -0.5807
14090SOL     OW54742   6.664   3.805   2.138  0.3278 -0.2126  0.3112
14090SOL    HW154743   6.637   3.834   2.047 -1.0439 -0.2320  0.7037
14090SOL    HW254744   6.600   3.736   2.172  2.6087 -2.5441  0.0331
14091SOL     OW54745   4.238   1.831   7.935  0.3832  0.0687 -0.6661
14091SOL    HW154746   4.306   1.905   7.929  0.6867 -0.3317 -2.5261
14091SOL    HW254747   4.209   1.806   7.843 -1.3708 -0.6361  0.0657
14092SOL     OW54748   6.147   7.180   4.168  0.4321 -0.4619 -0.0771
14092SOL    HW154749   6.097   7.095   4.186  0.7351 -0.2074  2.0418
14092SOL    HW254750   6.139   7.203   4.071  0.3207 -2.8848 -0.6754
14093SOL     OW54751   3.918   6.293   4.945  0.5486 -0.2609 -0.1316
14093SOL    HW154752   3.950   6.380   4.907  0.7486  0.7923  2.3622
14093SOL    HW254753   3.963   6.277   5.033 -2.7653 -0.7122  1.5453
14094SOL     OW54754   8.460   6.558   2.036 -0.0846  0.3969  0.4025
14094SOL    HW154755   8.471   6.642   1.983 -0.1306  0.2391  0.1430
14094SOL    HW254756   8.419   6.580   2.124 -1.3920  0.4885 -0.2084
14095SOL     OW54757   4.982   7.900   8.049  0.2709  0.2417 -0.3451
14095SOL    HW154758   4.988   7.947   7.961 -1.9065  0.3267 -0.4639
14095SOL    HW254759   4.983   7.966   8.124 -2.2639  0.4639 -0.4909
14096SOL     OW54760   1.509   2.861   3.392 -0.1637 -0.1882 -0.0717
14096SOL    HW154761   1.608   2.856   3.385 -0.1497 -0.4687  0.2998
14096SOL    HW254762   1.478   2.951   3.364  0.2365  0.0477  0.2495
14097SOL     OW54763   6.712   3.234   5.093 -0.8323 -0.8181  0.3447
14097SOL    HW154764   6.694   3.332   5.095 -2.4303 -1.1057  0.6312
14097SOL    HW254765   6.800   3.215   5.136  1.0775  0.8045 -2.6914
14098SOL     OW54766   8.700   1.815   5.092 -0.0727 -0.1435  0.0853
14098SOL    HW154767   8.601   1.817   5.078  0.0026  2.2101 -0.2871
14098SOL    HW254768   8.722   1.850   5.183  0.4015 -1.0295  0.3183
14099SOL     OW54769   3.093   0.302   3.952  0.0290  0.2062  0.1441
14099SOL    HW154770   3.073   0.213   3.993 -1.5080  0.3709 -0.2474
14099SOL    HW254771   3.119   0.290   3.857  0.6953  0.1046  0.3332
14100SOL     OW54772   1.351   5.513   2.976 -0.0569  0.1079 -0.2556
14100SOL    HW154773   1.361   5.585   2.907  0.7985 -0.7498 -1.0317
14100SOL    HW254774   1.266   5.464   2.962  0.3509 -0.3890 -1.0162
14101SOL     OW54775   1.658   4.105   8.471  0.2149 -0.2022 -0.0941
14101SOL    HW154776   1.739   4.073   8.522 -1.8803 -1.2936  2.6789
14101SOL    HW254777   1.591   4.031   8.466 -1.8424  1.6070  0.2152
14102SOL     OW54778   6.006   0.710   2.929 -0.3925 -0.3029 -0.1548
14102SOL    HW154779   5.949   0.663   2.861 -0.0430  0.6456 -1.1189
14102SOL    HW254780   5.966   0.697   3.020 -2.9095  1.4354 -0.9467
14103SOL     OW54781   7.972   2.138   4.074  0.2766  0.2299 -0.0537
14103SOL    HW154782   8.057   2.175   4.112 -0.7984  1.6438  1.0118
14103SOL    HW254783   7.894   2.192   4.107 -0.9403 -0.3336 -1.9316
14104SOL     OW54784   2.427   7.131   5.322 -0.1474 -0.6842  0.4068
14104SOL    HW154785   2.510   7.104   5.272  1.2025 -0.0261  2.2514
14104SOL    HW254786   2.376   7.049   5.347  0.2541 -1.1329 -0.2072
14105SOL     OW54787   4.786   1.689   8.487 -0.0128 -0.6774  0.3960
14105SOL    HW154788   4.738   1.759   8.538 -0.7489  0.0106 -1.2060
14105SOL    HW254789   4.809   1.723   8.396 -0.0871 -2.3875 -0.2969
14106SOL     OW54790   1.520   1.911   5.305  0.3813  0.3686  0.0802
14106SOL    HW154791   1.479   1.820   5.307  1.7784 -0.3924 -3.1344
14106SOL    HW254792   1.608   1.908   5.352  0.2931  0.1109  0.2317
14107SOL     OW54793   3.169   3.215   6.678 -0.4545  0.4184  0.0095
14107SOL    HW154794   3.219   3.266   6.608  0.5383 -0.3041  0.1912
14107SOL    HW254795   3.105   3.277   6.724 -1.7738  0.7019 -2.1236
14108SOL     OW54796   7.432   5.727   2.699 -0.1183  0.6104 -0.0673
14108SOL    HW154797   7.443   5.627   2.691 -1.5329  0.4394  0.0123
14108SOL    HW254798   7.494   5.761   2.769  1.1021 -0.0730 -0.7909
14109SOL     OW54799   6.248   3.188   8.428  0.0876 -0.1492  0.6204
14109SOL    HW154800   6.261   3.176   8.527 -2.0235 -0.5503  0.8849
14109SOL    HW254801   6.273   3.281   8.402 -0.9249  0.4913  1.8533
14110SOL     OW54802   2.956   8.613   5.963 -0.4181 -0.4687 -0.3166
14110SOL    HW154803   3.047   8.653   5.979 -0.2217 -0.4419 -1.5017
14110SOL    HW254804   2.916   8.587   6.051  1.8979 -3.0291  0.0670
14111SOL     OW54805   1.467   5.699   6.638  0.2558  0.1863  0.1442
14111SOL    HW154806   1.506   5.784   6.674 -0.8162  0.2786  1.0897
14111SOL    HW254807   1.461   5.631   6.711 -1.9074  0.3667  0.1622
14112SOL     OW54808   4.016   7.703   7.767 -0.0086 -0.1655 -0.8853
14112SOL    HW154809   3.951   7.686   7.693 -0.3935  0.0620 -0.6027
14112SOL    HW254810   4.049   7.615   7.802 -1.2973 -0.3405 -0.0453
14113SOL     OW54811   7.141   8.042   1.346 -0.0568  0.5055 -0.2594
14113SOL    HW154812   7.149   8.090   1.433 -0.3208 -0.5943  0.3828
14113SOL    HW254813   7.044   8.021   1.328  0.1369 -0.5592 -0.0979
14114SOL     OW54814   3.053   3.151   8.379  0.1261 -0.2624 -0.2599
14114SOL    HW154815   2.996   3.203   8.315  0.3456  0.5032  0.1553
14114SOL    HW254816   2.995   3.104   8.445  0.0096  3.0897  2.1586
14115SOL     OW54817   8.895   3.983   1.848  0.2601  0.3275 -0.1795
14115SOL    HW154818   8.851   3.942   1.768  1.4806 -0.2440 -0.5800
14115SOL    HW254819   8.827   4.000   1.919 -0.3925 -1.7680 -0.2672
14116SOL     OW54820   5.619   0.861   6.850 -0.0489  0.4707  0.4686
14116SOL    HW154821   5.574   0.935   6.900 -0.7428  0.5401 -0.2427
14116SOL    HW254822   5.568   0.776   6.862 -0.6629  0.6546 -0.7351
14117SOL     OW54823   8.190   8.498   2.616  0.2837 -0.1606 -0.7344
14117SOL    HW154824   8.166   8.449   2.700 -0.6886 -1.0026 -1.4964
14117SOL    HW254825   8.288   8.488   2.599  0.2080 -1.3055 -0.5340
14118SOL     OW54826   1.372   4.264   1.958 -0.4553 -0.3068 -0.1614
14118SOL    HW154827   1.407   4.183   2.005 -0.1382 -0.1379 -0.1015
14118SOL    HW254828   1.324   4.237   1.875 -0.8446 -0.5955  0.1577
14119SOL     OW54829   5.437   8.477   8.442 -0.1379 -0.1556 -0.4793
14119SOL    HW154830   5.399   8.570   8.433 -0.6530 -0.1286  1.7028
14119SOL    HW254831   5.362   8.411   8.447  0.1009 -0.3082  1.6900
14120SOL     OW54832   5.600   2.717   0.017  0.6645 -0.3913  0.3770
14120SOL    HW154833   5.648   2.645   0.068 -0.2782 -3.2524 -2.5954
14120SOL    HW254834   5.624   2.711  -0.080 -2.5121  0.7444 -0.5423
14121SOL     OW54835   4.042   6.237   5.203 -0.3440  0.4525 -0.0298
14121SOL    HW154836   4.027   6.308   5.271 -0.1381  1.3912 -0.9534
14121SOL    HW254837   4.128   6.189   5.223  0.1766  1.3261 -0.1462
14122SOL     OW54838   8.642   4.741   8.795 -0.4009  0.0590 -0.2230
14122SOL    HW154839   8.721   4.800   8.809 -0.7335 -0.1849  2.9349
14122SOL    HW254840   8.593   4.771   8.713  0.6203  2.8368  0.1144
14123SOL     OW54841   5.682   3.088   1.566  0.5787 -0.0981  0.5205
14123SOL    HW154842   5.589   3.120   1.584  1.2767  3.2444 -1.3760
14123SOL    HW254843   5.699   3.005   1.618 -2.3490  1.0540  3.5295
14124SOL     OW54844   6.473   4.183   1.020 -0.3811  0.0842  0.0429
14124SOL    HW154845   6.411   4.152   1.093 -1.0217 -0.6383 -0.7895
14124SOL    HW254846   6.419   4.214   0.942  0.3001  1.0000 -0.0629
14125SOL     OW54847   8.820   4.992   5.819 -0.0169  0.5804  0.4280
14125SOL    HW154848   8.899   4.986   5.881 -0.9051  0.8707  1.6033
14125SOL    HW254849   8.738   4.962   5.868 -0.8452  1.4919 -0.4077
14126SOL     OW54850   4.139   6.773   8.315  0.0093 -0.5758  0.1618
14126SOL    HW154851   4.189   6.705   8.368 -0.2367 -1.0557 -0.2241
14126SOL    HW254852   4.179   6.780   8.224  0.1957 -0.0179  0.2836
14127SOL     OW54853   7.737   7.408   4.512 -0.4539 -0.2463  0.0064
14127SOL    HW154854   7.705   7.420   4.418 -0.8510 -0.7824  0.0693
14127SOL    HW254855   7.683   7.465   4.574 -1.6263 -1.5121  0.1732
14128SOL     OW54856   2.161   2.558   6.107  0.2275 -0.2264  0.2172
14128SOL    HW154857   2.081   2.617   6.119  0.0613 -0.4392  0.1494
14128SOL    HW254858   2.135   2.463   6.121  0.3775 -0.3334 -0.2419
14129SOL     OW54859   0.515   3.557   4.201 -0.0225  0.0355  0.2909
14129SOL    HW154860   0.561   3.468   4.190 -2.3267 -0.9577 -1.6877
14129SOL    HW254861   0.523   3.609   4.116 -1.0332  0.6027  0.5397
14130SOL     OW54862   7.709   4.581   0.639  0.0332 -0.1137 -0.2355
14130SOL    HW154863   7.710   4.482   0.620  0.2406 -0.0886 -0.3581
14130SOL    HW254864   7.702   4.631   0.553  0.3787 -0.0100 -0.2001
14131SOL     OW54865   0.522   1.902   1.545 -0.2500  0.5776  0.2430
14131SOL    HW154866   0.554   1.856   1.461  0.0532 -1.6841  1.5568
14131SOL    HW254867   0.437   1.951   1.526 -1.6174 -2.0872 -0.8037
14132SOL     OW54868   2.218   2.692   2.688 -0.0055  0.0713  0.3489
14132SOL    HW154869   2.235   2.784   2.722 -3.4764  0.7903  0.3716
14132SOL    HW254870   2.173   2.638   2.759 -4.3714  0.5951 -1.8644
14133SOL     OW54871   6.757   1.933   0.996  0.3230  0.1647  0.4205
14133SOL    HW154872   6.695   1.944   1.073  0.9083 -0.2310  0.9468
14133SOL    HW254873   6.749   1.840   0.960 -1.3013  0.8744 -1.1751
14134SOL     OW54874   0.945   6.631   1.260 -0.5733 -0.4096 -0.1112
14134SOL    HW154875   0.857   6.632   1.309 -0.9725 -1.9901 -0.7533
14134SOL    HW254876   1.009   6.572   1.310 -0.0559  0.3034  0.0611
14135SOL     OW54877   3.273   7.967   5.114 -0.1734  0.1347  0.1247
14135SOL    HW154878   3.280   8.055   5.067 -0.5951 -1.0958 -2.3298
14135SOL    HW254879   3.355   7.913   5.097 -0.3800 -0.3721  0.7159
14136SOL     OW54880   4.966   4.601   6.616  0.2428 -0.2300  0.1213
14136SOL    HW154881   4.911   4.675   6.655 -1.2101 -0.2594 -1.8105
14136SOL    HW254882   5.036   4.573   6.682 -0.7654  1.1884  1.8237
14137SOL     OW54883   2.285   0.817   1.338 -0.4280 -0.5505 -0.1977
14137SOL    HW154884   2.244   0.907   1.343 -0.7704 -0.7305  0.3155
14137SOL    HW254885   2.303   0.793   1.242 -0.0479  0.1834 -0.3140
14138SOL     OW54886   1.132   3.877   4.598 -0.0770  0.1761 -0.1497
14138SOL    HW154887   1.141   3.938   4.677 -1.3690 -1.6509  1.4675
14138SOL    HW254888   1.129   3.782   4.630 -2.4092 -0.5009 -2.2437
14139SOL     OW54889   3.753   4.566   1.800 -0.3195  0.0254  0.6368
14139SOL    HW154890   3.816   4.510   1.853  0.7668  1.2269  0.6306
14139SOL    HW254891   3.661   4.526   1.804  0.6859 -2.4946 -0.4855
14140SOL     OW54892   3.596   2.263   5.771 -0.3308 -0.0287 -0.4793
14140SOL    HW154893   3.551   2.249   5.682 -2.2832 -0.4081  0.5457
14140SOL    HW254894   3.599   2.176   5.820  0.5731  0.2186 -0.0981
14141SOL     OW54895   3.298   4.609   5.778 -0.1569 -0.0443 -0.4288
14141SOL    HW154896   3.326   4.634   5.871 -1.6481  1.8668 -0.4570
14141SOL    HW254897   3.256   4.519   5.779  0.3248 -0.2657  0.6592
14142SOL     OW54898   1.883   1.408   1.714 -0.2574 -0.7599  0.0954
14142SOL    HW154899   1.926   1.352   1.785  0.3479  0.0245  0.3514
14142SOL    HW254900   1.942   1.485   1.692 -0.4525 -0.9820 -1.2512
14143SOL     OW54901   3.729   7.397   1.924  0.6111  0.7060 -0.0501
14143SOL    HW154902   3.651   7.349   1.964  1.9113 -2.8316 -1.5847
14143SOL    HW254903   3.709   7.420   1.829  1.0689  0.6366 -0.1649
14144SOL     OW54904   3.641   5.256   6.723  0.0073  0.3024 -0.1340
14144SOL    HW154905   3.619   5.354   6.725  1.4226  0.6345 -0.2815
14144SOL    HW254906   3.557   5.204   6.710 -1.0152  1.3975  1.7526
14145SOL     OW54907   4.461   0.555   1.051  0.3765  0.0947 -0.2029
14145SOL    HW154908   4.495   0.480   1.107  0.3098  0.8714  0.8773
14145SOL    HW254909   4.518   0.563   0.969  1.0333 -0.4576  0.1915
14146SOL     OW54910   6.690   5.027   7.198  0.0759  0.6499  0.4458
14146SOL    HW154911   6.657   5.086   7.271 -1.0806 -0.0983  0.5439
14146SOL    HW254912   6.790   5.026   7.198  0.0899  0.1432  2.4331
14147SOL     OW54913   0.996   6.966   4.399 -0.5782 -0.1855  0.4359
14147SOL    HW154914   0.956   7.045   4.352  1.0106  0.0881 -0.4988
14147SOL    HW254915   1.076   6.995   4.451  0.7487 -1.3386 -0.9005
14148SOL     OW54916   5.542   3.102   7.514 -0.3842  0.1910  0.0910
14148SOL    HW154917   5.607   3.105   7.437 -1.8251  1.0580 -1.1116
14148SOL    HW254918   5.546   3.189   7.564 -0.8438  0.3620 -0.1715
14149SOL     OW54919   3.969   7.661   3.957  0.1478  0.2555  0.3486
14149SOL    HW154920   4.041   7.606   4.001  1.2421  1.2570 -0.1564
14149SOL    HW254921   4.002   7.693   3.869 -1.5604 -0.6630 -0.6524
14150SOL     OW54922   0.115   4.415   4.682  0.1159  0.0654 -0.3871
14150SOL    HW154923   0.170   4.497   4.665 -0.0269  0.0834 -0.7722
14150SOL    HW254924   0.018   4.439   4.680  0.0197 -0.3734 -1.9897
14151SOL     OW54925   6.849   5.066   8.003  0.2098  0.0085  0.6247
14151SOL    HW154926   6.862   5.162   7.977  0.6661 -0.2355 -0.0637
14151SOL    HW254927   6.937   5.027   8.031  0.2415 -0.5524 -0.2643
14152SOL     OW54928   4.075   4.054   5.717 -0.1705 -0.0024  0.2811
14152SOL    HW154929   4.124   4.121   5.773 -0.2457  0.0402  0.2973
14152SOL    HW254930   4.079   3.964   5.761  1.4112 -0.3772 -0.6258
14153SOL     OW54931   1.468   5.910   2.570  0.1870  0.2170  0.0249
14153SOL    HW154932   1.417   5.892   2.655 -0.2716  0.9628 -0.0892
14153SOL    HW254933   1.525   5.831   2.549  1.8916  0.8106  2.1589
14154SOL     OW54934   2.196   7.014   6.853 -0.6907 -0.1362 -0.3369
14154SOL    HW154935   2.259   7.020   6.775 -0.4647 -2.0846 -0.3236
14154SOL    HW254936   2.119   6.955   6.829 -1.3045  0.3276  0.4797
14155SOL     OW54937   4.673   1.538   1.172 -0.0368  0.1264  0.1627
14155SOL    HW154938   4.685   1.609   1.242 -1.3396 -0.3963  0.9273
14155SOL    HW254939   4.722   1.565   1.089  1.1371  0.9740  1.1090
14156SOL     OW54940   1.037   0.246   0.929  0.2418  0.1787  0.3847
14156SOL    HW154941   0.939   0.249   0.947  0.0374  2.6890 -0.9326
14156SOL    HW254942   1.084   0.312   0.986  1.4650 -2.3449  2.4089
14157SOL     OW54943   2.158   3.574   2.440 -0.0904  0.3640 -0.0756
14157SOL    HW154944   2.141   3.656   2.494  1.5076  0.8585 -0.3039
14157SOL    HW254945   2.150   3.493   2.499 -0.0493  0.7869  0.5156
14158SOL     OW54946   6.123   2.336   8.080 -0.5842 -0.1523  0.1720
14158SOL    HW154947   6.167   2.421   8.108 -0.7080  0.1557 -0.5631
14158SOL    HW254948   6.028   2.354   8.056 -0.4279 -0.3673 -0.6449
14159SOL     OW54949   6.172   6.241   8.688 -0.4224  0.0507 -0.2228
14159SOL    HW154950   6.183   6.306   8.764 -0.8303  0.0547 -0.1678
14159SOL    HW254951   6.234   6.266   8.614  1.9028 -1.4873  1.1318
14160SOL     OW54952   8.119   8.184   0.662  0.1370  0.1379 -0.7953
14160SOL    HW154953   8.158   8.095   0.638 -0.2133 -0.4196  0.6534
14160SOL    HW254954   8.026   8.172   0.697  0.0709  1.0679 -0.6310
14161SOL     OW54955   5.082   0.421   0.002 -0.8100 -0.2881 -0.2190
14161SOL    HW154956   5.038   0.496  -0.049 -0.1277  0.7654  0.7297
14161SOL    HW254957   5.180   0.437   0.007 -0.6073 -1.4554 -0.3347
14162SOL     OW54958   1.013   8.620   8.511  0.4436 -0.7147 -0.1096
14162SOL    HW154959   0.954   8.676   8.452 -0.5430 -1.6024  0.0203
14162SOL    HW254960   1.058   8.679   8.578 -1.6363 -0.2230  0.9038
14163SOL     OW54961   0.356   4.962   5.313 -0.6683 -0.5502 -0.3284
14163SOL    HW154962   0.302   5.031   5.263  0.3429  0.7230  0.3022
14163SOL    HW254963   0.450   4.993   5.320 -0.2871 -1.8316  0.3409
14164SOL     OW54964   4.593   7.931   5.473 -0.2949 -0.0726 -0.4019
14164SOL    HW154965   4.637   7.999   5.414 -1.1431  0.9904  0.1647
14164SOL    HW254966   4.525   7.976   5.530  0.3241 -1.1348  1.2127
14165SOL     OW54967   2.721   7.930   5.502 -0.6902 -0.0749  0.0450
14165SOL    HW154968   2.766   7.897   5.585  0.5578 -3.3906 -1.8221
14165SOL    HW254969   2.623   7.914   5.508 -0.7773  0.9545  1.4214
14166SOL     OW54970   6.987   5.547   6.838  0.2909 -0.1173 -0.3315
14166SOL    HW154971   7.005   5.457   6.877 -1.4441 -0.2929  0.1017
14166SOL    HW254972   6.918   5.539   6.766  0.6688  0.7583 -0.7931
14167SOL     OW54973   2.304   4.300   1.285 -0.0109 -0.4558  0.1490
14167SOL    HW154974   2.290   4.288   1.187 -0.1416 -1.7159  0.3197
14167SOL    HW254975   2.223   4.268   1.335 -0.8054  2.0675  0.5767
14168SOL     OW54976   5.357   6.898   6.260 -0.4644  0.4185  0.1820
14168SOL    HW154977   5.446   6.907   6.216 -1.0810  0.2772 -1.1409
14168SOL    HW254978   5.292   6.961   6.216 -0.8771  0.9503  1.5230
14169SOL     OW54979   0.431   2.914   8.071  0.6341  0.1353 -0.8033
14169SOL    HW154980   0.383   2.961   8.144  1.4135 -1.7768  1.0084
14169SOL    HW254981   0.530   2.919   8.087  0.6950 -3.4818  0.3916
14170SOL     OW54982   1.261   8.212   7.546 -1.0666  0.7468  0.0025
14170SOL    HW154983   1.270   8.121   7.588 -0.7855  0.1347 -1.3527
14170SOL    HW254984   1.202   8.206   7.466  2.0758  0.9371 -2.4308
14171SOL     OW54985   5.062   0.740   8.033  0.0858 -0.2917 -0.6537
14171SOL    HW154986   5.091   0.715   8.125  0.3650 -0.5002 -0.7977
14171SOL    HW254987   4.977   0.692   8.010 -0.5437  0.5561 -0.1155
14172SOL     OW54988   0.903   3.412   8.481 -0.6364  0.4931 -0.3410
14172SOL    HW154989   0.850   3.441   8.402 -1.0499  0.1843 -0.1741
14172SOL    HW254990   0.856   3.338   8.528  0.6352 -0.7519 -1.0146
14173SOL     OW54991   3.353   5.844   0.543 -0.5751 -0.4199 -0.2944
14173SOL    HW154992   3.385   5.795   0.462 -0.5385 -0.4834 -0.2413
14173SOL    HW254993   3.276   5.903   0.518 -0.0387  0.1722 -0.5453
14174SOL     OW54994   1.293   5.817   1.516  0.2454 -0.4145  0.5257
14174SOL    HW154995   1.312   5.899   1.462  0.3486 -0.8259 -0.0722
14174SOL    HW254996   1.291   5.841   1.613 -0.1994  0.3860  0.3263
14175SOL     OW54997   8.041   5.442   8.867 -0.4023  0.3244 -0.0012
14175SOL    HW154998   8.110   5.423   8.797  0.4338  0.0374  0.8873
14175SOL    HW254999   7.955   5.467   8.823  0.1815  0.3864 -1.1270
14176SOL     OW55000   5.342   6.120   4.506 -0.2436 -0.3943  0.4309
14176SOL    HW155001   5.325   6.208   4.549 -1.4693  0.2975 -1.4033
14176SOL    HW255002   5.440   6.103   4.502 -0.0843 -0.3280  3.1423
14177SOL     OW55003   8.809   2.796   1.518  0.0465  0.0132  0.2498
14177SOL    HW155004   8.715   2.762   1.512 -0.4634  0.9028  2.4262
14177SOL    HW255005   8.822   2.870   1.452  0.1223 -2.0533 -2.0954
14178SOL     OW55006   2.137   4.927   5.592 -0.3643 -0.2799 -0.1145
14178SOL    HW155007   2.226   4.962   5.563 -0.7173 -0.0015 -0.8861
14178SOL    HW255008   2.078   5.003   5.620 -0.4801 -0.4279  0.0497
14179SOL     OW55009   1.088   1.507   0.804 -0.0978  0.2768  0.2454
14179SOL    HW155010   1.111   1.410   0.790  0.8555  0.2035  2.1630
14179SOL    HW255011   1.008   1.530   0.749  1.6406 -0.7383 -2.8275
14180SOL     OW55012   4.064   0.806   0.015  0.7878 -0.2938  0.1635
14180SOL    HW155013   3.980   0.771  -0.024  0.6086 -1.5697  1.6481
14180SOL    HW255014   4.142   0.758  -0.023  0.9869  1.8526 -2.2717
14181SOL     OW55015   4.029   8.820   6.938  0.5791  0.7901 -0.6816
14181SOL    HW155016   4.077   8.902   6.969  1.2710 -0.0885  0.6400
14181SOL    HW255017   4.039   8.748   7.007 -0.9613 -0.0475 -1.3096
14182SOL     OW55018   2.105   6.225   2.787 -0.0906 -1.2964  0.1706
14182SOL    HW155019   2.116   6.294   2.859  0.9328 -0.7405 -0.5028
14182SOL    HW255020   2.017   6.239   2.741 -0.8136 -1.7504  1.4084
14183SOL     OW55021   3.772   2.980   3.719  0.6986  0.2702  0.7218
14183SOL    HW155022   3.800   2.962   3.814 -0.0821 -0.1025  0.8859
14183SOL    HW255023   3.774   3.078   3.701 -2.9294  0.6844  2.3175
14184SOL     OW55024   3.218   4.863   5.721 -0.1640 -0.1783  0.0849
14184SOL    HW155025   3.129   4.873   5.765 -0.1879 -0.8424  0.1913
14184SOL    HW255026   3.251   4.769   5.733 -0.3190 -0.4621 -1.5967
14185SOL     OW55027   7.847   6.627   2.422  0.3976  0.1251 -0.0983
14185SOL    HW155028   7.756   6.589   2.438 -0.2063  0.5138 -2.3464
14185SOL    HW255029   7.838   6.717   2.379  1.8348 -0.2474 -1.2246
14186SOL     OW55030   6.306   2.721   8.551 -0.1565  0.3731 -0.0587
14186SOL    HW155031   6.304   2.635   8.602  3.1672  1.6959  2.5120
14186SOL    HW255032   6.243   2.787   8.593  0.8434  0.7061  0.9367
14187SOL     OW55033   8.841   6.140   5.315  0.1804  0.1346 -0.1963
14187SOL    HW155034   8.828   6.072   5.243  0.5297  0.2127 -0.3375
14187SOL    HW255035   8.754   6.158   5.361 -0.6688  2.2628 -2.5304
14188SOL     OW55036   7.630   2.480   0.100 -0.4397 -0.0538  0.0209
14188SOL    HW155037   7.645   2.385   0.126  0.9712  0.0800 -0.2680
14188SOL    HW255038   7.714   2.519   0.063 -0.6563  1.6764  1.2667
14189SOL     OW55039   8.538   7.621   6.494 -0.5607  0.3927  0.3939
14189SOL    HW155040   8.548   7.587   6.400  1.5635  1.0254  0.3575
14189SOL    HW255041   8.478   7.701   6.494 -0.9190  0.1286 -0.3739
14190SOL     OW55042   1.612   4.658   4.336 -0.5506 -0.0091 -0.5348
14190SOL    HW155043   1.564   4.617   4.258 -0.6384 -1.2190  0.1326
14190SOL    HW255044   1.691   4.601   4.360 -0.4407  0.4320  0.1659
14191SOL     OW55045   2.534   1.288   0.093  0.0664 -0.1929  0.1155
14191SOL    HW155046   2.480   1.264   0.174  0.3724 -2.6733 -0.3729
14191SOL    HW255047   2.523   1.216   0.024  1.2141  1.0244 -1.3453
14192SOL     OW55048   6.880   0.667   1.263  0.0530  0.5516  0.2806
14192SOL    HW155049   6.841   0.605   1.331  0.9488  0.6703  0.9200
14192SOL    HW255050   6.821   0.670   1.182  0.0443 -1.2130  0.1984
14193SOL     OW55051   1.372   3.691   2.789  0.0702  0.0788 -0.3543
14193SOL    HW155052   1.311   3.692   2.868 -0.6375 -0.5273 -0.8954
14193SOL    HW255053   1.375   3.599   2.749  0.6377  0.3141 -0.8729
14194SOL     OW55054   7.315   0.197   1.987 -0.2337 -0.1141  1.1190
14194SOL    HW155055   7.221   0.225   1.965  0.3946  0.2958 -1.2005
14194SOL    HW255056   7.329   0.103   1.957 -0.2681 -0.5863  2.5852
14195SOL     OW55057   0.560   0.836   8.289 -0.5890  0.3054 -0.4412
14195SOL    HW155058   0.533   0.802   8.199 -0.4144 -0.4236 -0.2228
14195SOL    HW255059   0.484   0.887   8.330 -0.3836  1.3347 -1.3475
14196SOL     OW55060   2.627   6.667   5.673 -0.2994  0.2450 -0.7048
14196SOL    HW155061   2.531   6.669   5.699 -0.2788 -3.1566 -0.0823
14196SOL    HW255062   2.682   6.711   5.744 -1.1529 -0.1634  0.2173
14197SOL     OW55063   7.446   5.569   5.514 -0.0116 -0.2502 -0.0918
14197SOL    HW155064   7.487   5.549   5.603 -1.2286  0.5434  0.6659
14197SOL    HW255065   7.423   5.666   5.510  0.6321 -0.1592 -1.5248
14198SOL     OW55066   4.600   3.357   7.795  0.2347 -0.0356 -0.0535
14198SOL    HW155067   4.590   3.346   7.894  2.0138  1.5204  0.3265
14198SOL    HW255068   4.696   3.345   7.770 -0.3834 -1.6867 -1.7807
14199SOL     OW55069   1.308   4.309   0.892  0.0111 -0.2914 -0.3059
14199SOL    HW155070   1.391   4.285   0.841 -0.1960 -1.8478  0.0524
14199SOL    HW255071   1.322   4.288   0.989 -0.4600  0.3869 -0.0880
14200SOL     OW55072   1.827   4.113   4.443  0.1199 -0.4889 -0.0313
14200SOL    HW155073   1.907   4.103   4.502  1.9969  0.4201 -2.3167
14200SOL    HW255074   1.808   4.026   4.398  1.1198 -0.1948 -1.0471
14201SOL     OW55075   1.699   2.953   0.870  0.3126 -0.4988 -0.1716
14201SOL    HW155076   1.639   2.878   0.843 -0.9553  1.4702 -3.1513
14201SOL    HW255077   1.741   2.933   0.958 -3.9906 -2.3591  1.5581
14202SOL     OW55078   2.882   3.840   6.877 -0.4362  0.2086 -0.5995
14202SOL    HW155079   2.856   3.781   6.801 -0.6714 -0.8122  0.2636
14202SOL    HW255080   2.979   3.829   6.896 -1.1194 -2.3865  1.6594
14203SOL     OW55081   4.598   1.482   2.349 -0.4636  0.2077  0.0961
14203SOL    HW155082   4.623   1.427   2.269 -3.3333  1.0474 -1.4466
14203SOL    HW255083   4.596   1.423   2.430  3.0724 -0.5454 -0.2540
14204SOL     OW55084   5.930   8.258   5.559 -0.8532  0.3161 -0.7797
14204SOL    HW155085   5.956   8.212   5.474 -2.9812 -0.7090 -0.9042
14204SOL    HW255086   5.880   8.342   5.536 -0.0191  0.8965 -0.5220
14205SOL     OW55087   5.592   6.272   3.398 -0.2056  0.6972 -0.3265
14205SOL    HW155088   5.571   6.310   3.488  1.7490 -2.3710  1.5414
14205SOL    HW255089   5.511   6.274   3.340 -1.5842  2.3743  1.6223
14206SOL     OW55090   1.776   1.468   0.517 -0.3674  0.3472 -0.0161
14206SOL    HW155091   1.824   1.415   0.588 -0.6391 -1.6142 -1.2550
14206SOL    HW255092   1.678   1.449   0.522 -0.4422  0.5762 -0.6147
14207SOL     OW55093   0.928   1.878   6.915 -0.2086 -0.2210 -0.5940
14207SOL    HW155094   0.960   1.922   6.999  0.1867  2.7082 -2.2330
14207SOL    HW255095   0.991   1.805   6.889 -0.2966 -1.1044  1.5936
14208SOL     OW55096   5.802   5.486   8.564  0.0015  0.1539  0.3093
14208SOL    HW155097   5.902   5.480   8.563 -0.0370 -0.5478 -0.8220
14208SOL    HW255098   5.774   5.578   8.592  0.9765  0.6377 -0.2908
14209SOL     OW55099   1.742   5.387   0.409 -0.0744 -0.1993  0.1403
14209SOL    HW155100   1.738   5.462   0.475 -0.5488  0.1238 -0.2492
14209SOL    HW255101   1.650   5.370   0.372  0.1903 -0.3622 -0.4481
14210SOL     OW55102   8.117   7.476   8.103  0.0438 -0.4254  0.1283
14210SOL    HW155103   8.102   7.552   8.167  1.4993 -1.1128  1.2987
14210SOL    HW255104   8.173   7.507   8.027  1.1184 -0.4578  0.8967
14211SOL     OW55105   5.803   3.412   1.350  0.1499 -0.1579  0.2112
14211SOL    HW155106   5.705   3.406   1.332  0.4246 -1.4924 -0.9754
14211SOL    HW255107   5.836   3.504   1.330 -1.0620  0.5996  1.6893
14212SOL     OW55108   6.552   3.379   3.054  0.4177  0.3496  0.1032
14212SOL    HW155109   6.581   3.288   3.085  0.8597  0.3799 -0.2187
14212SOL    HW255110   6.457   3.376   3.024 -0.0209  0.3056  1.4287
14213SOL     OW55111   4.328   0.191   6.268 -0.3378  0.4985  0.0489
14213SOL    HW155112   4.414   0.141   6.280 -0.8200 -0.0767  1.2283
14213SOL    HW255113   4.335   0.280   6.313 -0.2546  0.5797 -0.1236
14214SOL     OW55114   8.109   1.365   0.123  0.3020 -0.2134 -0.3616
14214SOL    HW155115   8.037   1.353   0.191 -0.8439  1.5442 -1.2379
14214SOL    HW255116   8.181   1.424   0.160 -0.3058  0.7186 -0.6661
14215SOL     OW55117   1.836   4.222   6.250 -0.2445 -0.2015  0.3694
14215SOL    HW155118   1.847   4.284   6.172 -1.9721 -0.2312  0.0850
14215SOL    HW255119   1.792   4.138   6.220  2.3672 -1.7458  0.6962
14216SOL     OW55120   8.121   1.815   2.067  0.7170 -0.1482  0.2669
14216SOL    HW155121   8.086   1.909   2.069 -1.9443 -1.0738  0.1788
14216SOL    HW255122   8.097   1.769   2.153 -0.2959 -1.5056 -0.7206
14217SOL     OW55123   1.611   3.725   3.260  0.3814  0.4479 -0.6058
14217SOL    HW155124   1.608   3.668   3.178  2.1373  1.4478 -1.3881
14217SOL    HW255125   1.531   3.785   3.262 -1.3923 -1.8260  0.1247
14218SOL     OW55126   7.925   5.022   6.926 -0.1054  0.1041 -0.2095
14218SOL    HW155127   7.896   5.031   6.830 -0.4952 -0.1937 -0.1195
14218SOL    HW255128   8.002   5.084   6.943  0.1760 -0.0744 -0.8010
14219SOL     OW55129   3.648   8.603   2.649 -0.0630  0.1784 -0.3424
14219SOL    HW155130   3.702   8.524   2.678  0.5508  0.2885 -1.1888
14219SOL    HW255131   3.652   8.613   2.550 -0.7015  0.8704 -0.3107
14220SOL     OW55132   5.642   6.041   6.086 -0.0420 -0.3274  0.2552
14220SOL    HW155133   5.593   6.064   6.001  0.6715 -0.1252 -0.1034
14220SOL    HW255134   5.728   6.092   6.089 -0.2651 -0.0104  1.3107
14221SOL     OW55135   3.472   2.719   2.896 -0.1746 -0.3393 -0.0036
14221SOL    HW155136   3.502   2.624   2.898  0.4124 -0.2251 -2.3750
14221SOL    HW255137   3.376   2.725   2.922  0.0379 -1.4522  1.0794
14222SOL     OW55138   0.184   5.427   3.437 -0.2799  0.4019  0.6818
14222SOL    HW155139   0.212   5.358   3.504  0.3701 -1.6113 -1.5826
14222SOL    HW255140   0.090   5.456   3.457 -0.0684 -0.0630  2.5007
14223SOL     OW55141   6.527   5.336   3.554 -0.6619 -0.0942 -0.1235
14223SOL    HW155142   6.468   5.343   3.635 -2.8208 -0.5817 -1.6335
14223SOL    HW255143   6.614   5.294   3.581 -1.5074 -0.6644  1.8718
14224SOL     OW55144   8.755   2.280   0.060 -0.2748  0.6731 -0.8884
14224SOL    HW155145   8.750   2.375   0.028 -1.5341  1.2685  0.9916
14224SOL    HW255146   8.842   2.266   0.107  0.0017  0.8442 -1.3452
14225SOL     OW55147   6.982   6.993   4.322 -0.4959  0.0202 -0.0057
14225SOL    HW155148   6.970   7.030   4.414  0.4821  0.4849 -0.0586
14225SOL    HW255149   7.043   7.053   4.270 -1.0068 -0.2674 -0.9424
14226SOL     OW55150   0.123   1.603   0.949  0.0421 -0.1393  0.2783
14226SOL    HW155151   0.112   1.701   0.933  0.2120 -0.2110 -0.2687
14226SOL    HW255152   0.059   1.574   1.021  0.2743  0.4482  0.7249
14227SOL     OW55153   4.224   7.073   2.120 -0.0024 -0.3302 -0.0528
14227SOL    HW155154   4.300   7.050   2.058  0.3760 -0.1428  0.3379
14227SOL    HW255155   4.225   7.012   2.198 -0.2775 -0.3486 -0.0654
14228SOL     OW55156   5.142   8.526   1.889  0.1121  0.2183 -0.5784
14228SOL    HW155157   5.194   8.489   1.813  0.2752  0.2494 -0.4826
14228SOL    HW255158   5.196   8.518   1.973  1.2079  2.9564 -0.9609
14229SOL     OW55159   7.518   0.293   2.130  0.0444 -0.3671  0.2627
14229SOL    HW155160   7.572   0.210   2.128 -0.7373 -0.9068  1.0824
14229SOL    HW255161   7.429   0.277   2.088 -0.9274 -0.5559  2.3495
14230SOL     OW55162   5.600   4.275   7.138  0.0009 -0.3567 -0.3157
14230SOL    HW155163   5.663   4.353   7.142 -1.0054  0.4060  1.2481
14230SOL    HW255164   5.652   4.190   7.137  1.0994  0.3158 -1.3740
14231SOL     OW55165   3.556   6.323   2.201 -0.3215  0.1926  0.2078
14231SOL    HW155166   3.533   6.398   2.139 -0.2779  0.6621  0.7521
14231SOL    HW255167   3.623   6.355   2.268  0.0128 -0.4542  0.1837
14232SOL     OW55168   4.879   8.250   2.766  0.6542 -0.1441  0.4179
14232SOL    HW155169   4.866   8.159   2.728  1.5201  0.1247 -0.5419
14232SOL    HW255170   4.924   8.243   2.855  0.1798 -0.6830  0.6145
14233SOL     OW55171   4.197   2.637   2.808 -0.0879  0.0051  0.2817
14233SOL    HW155172   4.249   2.557   2.778  2.4689  2.0133 -0.9017
14233SOL    HW255173   4.129   2.661   2.738  0.3147 -0.1421 -0.1621
14234SOL     OW55174   3.045   4.311   2.889 -0.1228  0.2280  0.2706
14234SOL    HW155175   3.014   4.245   2.820  1.9748 -0.7060  0.1900
14234SOL    HW255176   2.982   4.309   2.967 -1.3881 -0.1552 -0.7274
14235SOL     OW55177   0.362   0.048   1.799 -0.6528  0.3130  0.3200
14235SOL    HW155178   0.437   0.114   1.787 -2.6461  2.6746  0.3644
14235SOL    HW255179   0.336   0.010   1.711 -0.1648  0.3615  0.1562
14236SOL     OW55180   0.560   6.696   2.509  0.2073 -0.5212  0.6894
14236SOL    HW155181   0.474   6.713   2.558 -0.1637  0.4492 -0.2778
14236SOL    HW255182   0.548   6.618   2.448 -0.0402 -0.2986  0.4488
14237SOL     OW55183   6.346   2.146   1.182  0.2862 -0.0549 -0.1881
14237SOL    HW155184   6.336   2.193   1.269 -0.8285 -0.7943  0.0948
14237SOL    HW255185   6.258   2.106   1.154  0.2596  1.4607 -2.4086
14238SOL     OW55186   0.927   1.906   5.083 -0.1314 -0.1305  0.7051
14238SOL    HW155187   0.981   1.957   5.017  1.1205  1.0613  2.5923
14238SOL    HW255188   0.830   1.912   5.060  0.4036 -1.1278 -1.9331
14239SOL     OW55189   7.132   7.359   4.553 -0.0113 -0.2311  0.4698
14239SOL    HW155190   7.122   7.443   4.607  0.4332 -1.2822  2.2408
14239SOL    HW255191   7.224   7.354   4.515 -0.4027  0.6334 -0.6166
14240SOL     OW55192   2.296   4.197   6.928  0.1747  0.0449 -0.2719
14240SOL    HW155193   2.207   4.229   6.896 -0.8428 -1.2147  1.2057
14240SOL    HW255194   2.297   4.198   7.028  1.7716 -0.1027 -0.2824
14241SOL     OW55195   4.668   4.307   7.395 -0.0472 -0.0664 -0.5356
14241SOL    HW155196   4.598   4.253   7.347  0.0602 -1.3340  0.6945
14241SOL    HW255197   4.648   4.308   7.493  0.5460  1.2678 -0.4185
14242SOL     OW55198   1.910   4.722   5.176  0.6446  0.0854 -0.8239
14242SOL    HW155199   1.825   4.725   5.228  0.6609  2.6179 -0.8761
14242SOL    HW255200   1.975   4.661   5.221 -0.4456 -0.2008  0.3836
14243SOL     OW55201   3.174   3.413   1.636 -0.5162  0.3218  0.4102
14243SOL    HW155202   3.145   3.436   1.728 -1.2341  1.5116 -0.1064
14243SOL    HW255203   3.094   3.403   1.577 -0.1011 -1.1810  0.0855
14244SOL     OW55204   1.793   4.868   1.898 -0.6139  0.6519 -0.4644
14244SOL    HW155205   1.807   4.953   1.847 -1.0753  0.6364 -0.6212
14244SOL    HW255206   1.854   4.866   1.977 -0.1311  0.8269 -0.8320
14245SOL     OW55207   1.792   5.328   6.256 -0.5903 -0.5124 -0.2293
14245SOL    HW155208   1.801   5.233   6.285 -0.8035 -0.2123  0.8417
14245SOL    HW255209   1.870   5.354   6.199 -1.1628 -1.6967 -1.5752
14246SOL     OW55210   0.263   1.507   0.332  0.3435 -0.3102  0.1613
14246SOL    HW155211   0.184   1.541   0.382  0.7315 -0.0656  0.6107
14246SOL    HW255212   0.271   1.556   0.245  1.2291  1.1684  1.0528
14247SOL     OW55213   4.991   7.892   3.911 -0.3095  0.5935 -0.1686
14247SOL    HW155214   4.974   7.848   3.823  0.3975  1.3539 -0.6906
14247SOL    HW255215   4.906   7.896   3.963 -0.8137  0.4900 -0.9713
14248SOL     OW55216   8.618   4.884   7.798 -0.1683 -0.3536 -0.4291
14248SOL    HW155217   8.586   4.948   7.728 -1.7478  0.3989  0.9455
14248SOL    HW255218   8.686   4.823   7.758  1.5718  2.3167 -1.7285
14249SOL     OW55219   5.739   6.289   3.932 -0.0100  0.0258  0.3108
14249SOL    HW155220   5.782   6.205   3.897 -2.0815 -0.1096 -2.1445
14249SOL    HW255221   5.787   6.369   3.895 -0.1433 -0.1145 -0.1764
14250SOL     OW55222   8.955   6.528   3.382 -0.3116 -0.7229 -0.0661
14250SOL    HW155223   8.968   6.433   3.412  2.2177 -0.5741 -0.5593
14250SOL    HW255224   8.929   6.530   3.286 -0.0161 -0.9292 -0.1522
14251SOL     OW55225   5.388   4.397   3.598 -0.5126 -0.0251  0.0018
14251SOL    HW155226   5.396   4.408   3.697 -1.1899 -2.4546  0.3810
14251SOL    HW255227   5.479   4.395   3.557 -0.2416  1.4547  0.5011
14252SOL     OW55228   6.211   4.387   2.737 -1.0595  0.5718 -0.7033
14252SOL    HW155229   6.149   4.363   2.662 -1.7957  2.4327 -0.7127
14252SOL    HW255230   6.166   4.370   2.825 -1.0320  0.5316 -0.6970
14253SOL     OW55231   8.464   6.173   0.848 -0.5514 -0.0268 -0.5114
14253SOL    HW155232   8.385   6.148   0.904 -0.7962 -0.5320 -1.0868
14253SOL    HW255233   8.444   6.258   0.799 -0.2154  0.5979  0.4006
14254SOL     OW55234   0.171   5.296   6.127  0.7470 -0.1336 -0.1073
14254SOL    HW155235   0.153   5.216   6.184 -0.0964 -0.5971 -1.0035
14254SOL    HW255236   0.085   5.330   6.089  1.4530 -1.0031 -2.6285
14255SOL     OW55237   4.146   7.728   5.411 -0.5180  0.1963 -0.6715
14255SOL    HW155238   4.215   7.694   5.475  1.1517  2.8871 -0.9717
14255SOL    HW255239   4.120   7.655   5.348  1.3751 -1.1193  0.0357
14256SOL     OW55240   5.001   7.565   0.971 -0.5387  0.4562  0.5356
14256SOL    HW155241   5.002   7.555   0.871  0.9234  0.1707  0.5812
14256SOL    HW255242   4.908   7.589   1.000 -1.1430 -0.1580 -0.8211
14257SOL     OW55243   2.687   6.609   1.226  0.0779 -0.4956 -1.3032
14257SOL    HW155244   2.780   6.582   1.200 -0.2766 -2.7241 -0.4078
14257SOL    HW255245   2.624   6.533   1.208 -1.5835  1.0054 -1.9183
14258SOL     OW55246   1.125   5.932   6.524 -0.2112 -0.1449 -0.0096
14258SOL    HW155247   1.098   5.977   6.609  0.2601  0.1841 -0.0302
14258SOL    HW255248   1.046   5.924   6.464 -0.5897 -0.5593  0.5426
14259SOL     OW55249   5.347   2.371   0.406 -0.2416  0.0430  0.5898
14259SOL    HW155250   5.289   2.439   0.362 -0.7192  0.1471  1.3786
14259SOL    HW255251   5.291   2.296   0.439  0.4228 -1.4104 -1.4765
14260SOL     OW55252   1.262   6.515   6.990  0.5465  0.4772 -0.2946
14260SOL    HW155253   1.181   6.539   7.043  0.1329  1.2327 -1.2526
14260SOL    HW255254   1.341   6.567   7.024  0.8206 -0.8811  1.1822
14261SOL     OW55255   1.963   1.195   7.860 -0.1375  0.1671 -0.0047
14261SOL    HW155256   1.881   1.142   7.840 -0.1507  0.2908 -0.2821
14261SOL    HW255257   1.939   1.292   7.867 -0.6396 -0.1421  3.4683
14262SOL     OW55258   3.686   5.004   1.851 -0.4185  0.2557 -0.3256
14262SOL    HW155259   3.693   4.912   1.889  0.1032  1.3707  2.4383
14262SOL    HW255260   3.778   5.039   1.833 -0.6677 -0.3789 -3.0518
14263SOL     OW55261   6.612   0.132   0.655 -0.0127 -0.1175  0.3204
14263SOL    HW155262   6.644   0.040   0.675  0.8058  0.2482  0.7418
14263SOL    HW255263   6.568   0.171   0.737  1.0191  0.4278  0.6206
14264SOL     OW55264   7.360   3.621   1.496  0.3796  0.3889 -0.5422
14264SOL    HW155265   7.388   3.703   1.445  0.6146 -0.1776 -1.3268
14264SOL    HW255266   7.428   3.549   1.484 -0.2040 -0.1774 -0.4669
14265SOL     OW55267   3.217   4.713   6.029  0.1295 -0.0047 -0.1728
14265SOL    HW155268   3.138   4.653   6.031 -0.6646  1.0617  1.2818
14265SOL    HW255269   3.187   4.807   6.010  1.2476  0.1147 -1.4378
14266SOL     OW55270   3.417   7.678   7.471 -0.4574 -0.2514 -0.2308
14266SOL    HW155271   3.491   7.734   7.433 -1.1737  0.6545 -0.2805
14266SOL    HW255272   3.441   7.651   7.564 -0.5700  0.9765  0.1534
14267SOL     OW55273   0.754   6.822   1.822 -0.3118 -0.1749  0.6507
14267SOL    HW155274   0.685   6.758   1.787  1.6803 -0.7886 -2.2669
14267SOL    HW255275   0.796   6.871   1.746  1.4302  1.3089  2.5163
14268SOL     OW55276   5.145   0.855   3.454  0.0816 -0.0707  0.0089
14268SOL    HW155277   5.072   0.788   3.445  1.5860 -1.9951  1.7500
14268SOL    HW255278   5.206   0.829   3.528  2.5563  1.4887 -1.3843
14269SOL     OW55279   0.827   7.578   8.716  0.2947  0.6336 -0.0534
14269SOL    HW155280   0.883   7.660   8.716  0.1383  0.7442  0.3503
14269SOL    HW255281   0.798   7.556   8.622 -1.2886  2.1589  0.0547
14270SOL     OW55282   6.425   0.279   2.807  0.1275 -0.6411  0.3252
14270SOL    HW155283   6.386   0.367   2.836 -3.0436 -1.9642  0.2683
14270SOL    HW255284   6.512   0.265   2.853  0.7405  2.5709  0.2629
14271SOL     OW55285   4.127   7.867   6.943  0.1852  0.0124  0.1127
14271SOL    HW155286   4.088   7.921   7.018  0.0582 -1.0112  0.8007
14271SOL    HW255287   4.053   7.825   6.890  0.2917  0.1070 -0.1105
14272SOL     OW55288   0.555   1.032   3.925  0.0752 -0.5933 -0.2208
14272SOL    HW155289   0.647   1.059   3.896 -0.1105  0.8432  0.4886
14272SOL    HW255290   0.540   1.062   4.020 -1.0197 -1.0776 -0.2338
14273SOL     OW55291   7.502   5.554   5.864  0.3553  0.1224 -0.5075
14273SOL    HW155292   7.579   5.500   5.830  1.2769  1.0194  0.1439
14273SOL    HW255293   7.536   5.631   5.918 -1.0454 -1.0180  2.1013
14274SOL     OW55294   3.973   3.364   2.620  0.0362 -0.3893  0.1017
14274SOL    HW155295   3.914   3.444   2.635 -1.4693 -1.3817 -0.3770
14274SOL    HW255296   4.026   3.346   2.703 -0.9817  0.0213  0.8611
14275SOL     OW55297   7.927   3.123   6.715 -1.2959 -0.2173 -0.3099
14275SOL    HW155298   7.914   3.133   6.617 -0.5902  0.0287 -0.3809
14275SOL    HW255299   7.841   3.140   6.762 -1.1924  1.6354 -0.7462
14276SOL     OW55300   3.882   2.676   3.036 -0.6430 -0.7655  0.2626
14276SOL    HW155301   3.864   2.676   2.938  0.0845 -1.4592  0.1287
14276SOL    HW255302   3.974   2.711   3.053 -1.0778  0.1713  0.7635
14277SOL     OW55303   0.628   8.016   5.538 -0.1164 -0.0421  0.7897
14277SOL    HW155304   0.637   8.112   5.564  2.1008  0.4704 -1.6870
14277SOL    HW255305   0.556   8.008   5.469 -1.8733 -0.5262  2.6442
14278SOL     OW55306   4.729   7.521   0.311  0.1399  0.2698 -0.5066
14278SOL    HW155307   4.762   7.594   0.371  0.6256 -0.0883 -0.3299
14278SOL    HW255308   4.680   7.453   0.366 -0.6398  0.6516 -0.7270
14279SOL     OW55309   4.425   3.771   1.005 -0.4302  0.1767 -0.2742
14279SOL    HW155310   4.440   3.865   0.977  1.2173 -0.4653 -1.6384
14279SOL    HW255311   4.349   3.732   0.953 -0.2843  0.3676 -0.6272
14280SOL     OW55312   1.084   6.989   6.387 -0.3044  0.0791  0.2456
14280SOL    HW155313   1.139   6.939   6.454  1.8394  0.2459 -1.3302
14280SOL    HW255314   1.025   6.925   6.338 -0.3394 -0.3424  0.8214
14281SOL     OW55315   3.957   7.258   1.845  0.5388 -0.0164  0.0990
14281SOL    HW155316   3.942   7.221   1.753  1.0584 -0.1776  0.0781
14281SOL    HW255317   3.872   7.300   1.878  0.8081  1.5469 -1.1289
14282SOL     OW55318   5.614   7.620   1.700  0.0510  0.2116 -0.0800
14282SOL    HW155319   5.544   7.657   1.639 -0.2963 -0.0453  0.1583
14282SOL    HW255320   5.587   7.529   1.730  1.5262 -0.7944 -1.7105
14283SOL     OW55321   6.944   1.979   6.519 -0.0702  0.4171  0.2245
14283SOL    HW155322   6.958   1.940   6.610  0.8907  1.4142  0.5135
14283SOL    HW255323   6.988   2.068   6.514 -2.2779  1.5158 -0.4028
14284SOL     OW55324   2.471   4.833   1.112 -0.3789  0.0218 -0.1453
14284SOL    HW155325   2.375   4.849   1.089 -1.3369 -1.8467  2.3158
14284SOL    HW255326   2.486   4.735   1.127  2.1755  0.1463 -1.5504
14285SOL     OW55327   3.566   4.250   5.409  0.4566 -0.1691 -0.0433
14285SOL    HW155328   3.649   4.197   5.393  1.0545  0.9688 -0.8068
14285SOL    HW255329   3.576   4.303   5.493  0.3319 -0.3696  0.0967
14286SOL     OW55330   1.456   4.754   7.625  0.1056 -0.1176  0.1554
14286SOL    HW155331   1.538   4.713   7.664 -1.2749 -0.5864  2.6754
14286SOL    HW255332   1.451   4.850   7.651  0.2714  0.1293 -0.7027
14287SOL     OW55333   8.223   6.939   4.811  0.4424 -0.2584 -0.2436
14287SOL    HW155334   8.141   6.990   4.782  0.1703 -0.4301  0.2229
14287SOL    HW255335   8.226   6.851   4.764  0.3946 -0.2260 -0.3080
14288SOL     OW55336   4.604   0.211   8.791 -0.2517 -0.1332 -0.0890
14288SOL    HW155337   4.669   0.226   8.865 -1.0467  1.7721  0.2530
14288SOL    HW255338   4.520   0.170   8.827  0.2571 -1.3728 -0.3160
14289SOL     OW55339   5.169   5.338   4.844 -0.4022  0.3918 -0.1725
14289SOL    HW155340   5.243   5.364   4.782 -0.4086 -0.5750 -0.6001
14289SOL    HW255341   5.082   5.376   4.811 -0.0167  2.0034  0.6427
14290SOL     OW55342   5.639   8.124   2.969  0.2016  0.0301 -0.8437
14290SOL    HW155343   5.641   8.026   2.950 -1.1588  0.0532 -1.1305
14290SOL    HW255344   5.726   8.152   3.011  0.6496 -1.2601 -0.9094
14291SOL     OW55345   3.204   1.341   5.416  0.0520 -0.8736  0.1606
14291SOL    HW155346   3.277   1.393   5.372 -0.1300 -2.0108 -1.5302
14291SOL    HW255347   3.119   1.392   5.409  0.3313 -0.3356  0.5990
14292SOL     OW55348   0.724   3.595   0.920  0.4089  0.1297 -0.2927
14292SOL    HW155349   0.802   3.609   0.982  0.3249 -0.7893  0.0272
14292SOL    HW255350   0.751   3.620   0.827  0.9578  0.2217 -0.1152
14293SOL     OW55351   8.611   1.327   0.776 -0.5301  0.0593  0.2738
14293SOL    HW155352   8.576   1.266   0.848 -0.6296  0.1608  0.3119
14293SOL    HW255353   8.617   1.277   0.690 -0.2618 -0.1054  0.3881
14294SOL     OW55354   2.600   0.026   7.790 -0.1805 -0.0036  0.2132
14294SOL    HW155355   2.547  -0.018   7.717 -0.7170 -0.7491  1.0470
14294SOL    HW255356   2.575   0.123   7.794 -1.2631 -0.2809  0.3854
14295SOL     OW55357   4.147   2.983   3.145 -0.2088  0.2977  0.4265
14295SOL    HW155358   4.147   2.888   3.116  2.1413  0.7585 -1.2251
14295SOL    HW255359   4.071   2.999   3.208 -2.3143 -1.9832 -1.4425
14296SOL     OW55360   4.493   7.994   4.305 -0.1808  0.3025  0.3065
14296SOL    HW155361   4.569   8.058   4.301 -0.7394  0.9057 -0.7463
14296SOL    HW255362   4.411   8.042   4.337 -0.4217 -0.0618  0.2394
14297SOL     OW55363   2.362   4.466   6.588 -0.5953  0.0039 -0.1039
14297SOL    HW155364   2.445   4.512   6.620  0.4219 -0.6815 -1.6927
14297SOL    HW255365   2.294   4.467   6.661  0.7024  0.8081  1.1419
14298SOL     OW55366   4.831   2.301   0.272 -0.0915  0.3258  0.5072
14298SOL    HW155367   4.895   2.313   0.196 -1.3099 -0.5873 -0.6946
14298SOL    HW255368   4.850   2.370   0.343 -1.8786  4.3091 -2.6605
14299SOL     OW55369   3.573   1.994   0.936 -0.0047 -0.1338 -0.0195
14299SOL    HW155370   3.477   2.001   0.911  0.3028  1.4620 -0.8032
14299SOL    HW255371   3.583   2.008   1.035 -0.3717  1.7799 -0.2389
14300SOL     OW55372   6.001   2.658   7.019 -0.1370  0.0902 -0.0452
14300SOL    HW155373   6.095   2.627   7.027 -0.3556 -0.1150  2.2598
14300SOL    HW255374   5.945   2.586   6.979  0.4278 -0.3463 -0.0574
14301SOL     OW55375   1.640   4.502   0.497  0.0680 -0.2058 -0.2272
14301SOL    HW155376   1.628   4.406   0.472  0.1661 -0.9954  2.6308
14301SOL    HW255377   1.737   4.522   0.508 -0.0160 -0.0601  0.2462
14302SOL     OW55378   4.437   2.293   6.980 -0.1769  0.6225  0.7419
14302SOL    HW155379   4.344   2.257   6.971  0.1789 -0.2282  0.4541
14302SOL    HW255380   4.482   2.293   6.891  0.9161 -1.1944  1.2705
14303SOL     OW55381   7.713   5.155   6.508  0.0396  0.1389 -0.2228
14303SOL    HW155382   7.684   5.206   6.427 -0.5150 -0.5361 -0.4563
14303SOL    HW255383   7.632   5.118   6.554  0.2945  1.1044  1.0391
14304SOL     OW55384   0.373   5.148   1.424 -0.2104  0.4808 -0.0503
14304SOL    HW155385   0.378   5.053   1.392 -0.2928  0.3622  0.2921
14304SOL    HW255386   0.277   5.174   1.435 -0.1736 -0.6066  3.4843
14305SOL     OW55387   2.857   4.107   3.080  0.2902  0.4465 -0.0265
14305SOL    HW155388   2.835   4.162   3.161  0.4452  0.2035  0.1801
14305SOL    HW255389   2.833   4.159   2.998 -0.4283  0.4601  0.1847
14306SOL     OW55390   5.746   4.409   5.045 -0.6489  0.1362 -0.6339
14306SOL    HW155391   5.703   4.486   5.093 -2.0206 -1.3385  0.5456
14306SOL    HW255392   5.678   4.337   5.031  1.2592 -1.9457  0.6143
14307SOL     OW55393   5.669   5.346   2.258  0.4959 -0.2285 -0.2715
14307SOL    HW155394   5.591   5.338   2.196 -0.8223 -2.6528  1.6263
14307SOL    HW255395   5.738   5.278   2.232  0.5672 -0.2740  0.0409
14308SOL     OW55396   3.281   6.241   2.253 -0.0675 -0.4367 -0.5888
14308SOL    HW155397   3.271   6.237   2.352  0.0185  0.9648 -0.5165
14308SOL    HW255398   3.378   6.243   2.229 -0.0997  0.0728 -0.6679
14309SOL     OW55399   2.828   8.296   4.006 -0.1747 -0.3874 -0.7143
14309SOL    HW155400   2.805   8.225   4.073  0.9091  0.2847  0.3872
14309SOL    HW255401   2.804   8.386   4.043 -1.7083 -0.1647 -2.1718
14310SOL     OW55402   8.763   5.781   6.917  0.2879  0.1088 -0.4057
14310SOL    HW155403   8.818   5.805   6.996  0.7756 -2.2239  0.0009
14310SOL    HW255404   8.798   5.697   6.876 -0.4870  0.8159 -2.5880
14311SOL     OW55405   0.082   2.790   4.821 -0.0564 -0.1253  0.0226
14311SOL    HW155406   0.028   2.874   4.814  2.4731  1.4032 -1.5777
14311SOL    HW255407   0.049   2.722   4.755  1.5624  1.7390 -2.7826
14312SOL     OW55408   3.113   6.973   6.332 -0.3246  0.3389  0.1896
14312SOL    HW155409   3.029   7.024   6.350 -0.1077  0.5173  0.6904
14312SOL    HW255410   3.107   6.883   6.377 -0.4626  0.1475 -0.2062
14313SOL     OW55411   7.589   7.607   0.822  0.3775  0.3276  0.2179
14313SOL    HW155412   7.593   7.598   0.723 -1.4962  0.3588  0.1296
14313SOL    HW255413   7.526   7.681   0.846  1.4772  0.8966  1.4175
14314SOL     OW55414   1.228   2.070   0.842  0.0478 -0.6632 -0.1040
14314SOL    HW155415   1.154   2.126   0.804  0.3165  1.8246  2.8548
14314SOL    HW255416   1.206   2.043   0.936  2.3386 -0.9377  0.3874
14315SOL     OW55417   8.638   2.007   8.149 -0.3833  0.0764 -0.0173
14315SOL    HW155418   8.697   2.084   8.172  0.3534 -0.5353  0.1712
14315SOL    HW255419   8.573   1.991   8.224 -1.5026  1.3973 -0.6638
14316SOL     OW55420   8.903   3.035   6.683  0.9422  0.3642 -0.0065
14316SOL    HW155421   8.806   3.011   6.679  1.0497 -0.1267  0.2915
14316SOL    HW255422   8.913   3.134   6.695  0.4799  0.3917  0.1572
14317SOL     OW55423   2.635   2.581   6.658  0.3802  0.1195 -0.1247
14317SOL    HW155424   2.536   2.585   6.655  0.1660 -1.5191  2.6827
14317SOL    HW255425   2.674   2.656   6.604 -2.3461  0.5887 -1.4821
14318SOL     OW55426   1.338   4.289   7.219 -0.3786 -0.1820  0.3146
14318SOL    HW155427   1.397   4.241   7.154 -0.5759 -0.9610  0.7098
14318SOL    HW255428   1.250   4.309   7.174  0.2857  1.2685 -0.3779
14319SOL     OW55429   8.651   3.264   4.375 -0.6263  0.3837 -0.0733
14319SOL    HW155430   8.576   3.214   4.333 -0.5244  1.7632 -1.9639
14319SOL    HW255431   8.735   3.248   4.323 -0.1953  0.9994  0.4257
14320SOL     OW55432   2.382   2.885   5.639  0.4143  0.7691  0.2054
14320SOL    HW155433   2.392   2.961   5.575 -2.2212 -0.3592 -1.6257
14320SOL    HW255434   2.305   2.903   5.700 -0.5726 -0.6403 -0.5958
14321SOL     OW55435   5.115   4.196   6.431 -0.2315  0.2452 -0.0502
14321SOL    HW155436   5.125   4.142   6.347  0.4258 -2.5092  1.7381
14321SOL    HW255437   5.179   4.272   6.430  1.0480 -0.8271 -1.2483
14322SOL     OW55438   6.665   5.469   8.892  0.0125  1.0346  0.1192
14322SOL    HW155439   6.636   5.512   8.977  0.3855  1.2572  0.1370
14322SOL    HW255440   6.759   5.497   8.870  0.0373  0.7248 -0.1954
14323SOL     OW55441   3.627   1.528   0.187  0.0336  0.5451 -0.1282
14323SOL    HW155442   3.651   1.446   0.238  0.1868  0.3194 -0.5549
14323SOL    HW255443   3.610   1.603   0.250 -1.6876 -0.2202  0.3506
14324SOL     OW55444   4.937   1.179   6.174  0.0980 -1.1106  0.5344
14324SOL    HW155445   4.884   1.182   6.089  0.8177 -0.2499  0.1102
14324SOL    HW255446   4.935   1.086   6.210 -0.7543 -1.3418 -0.0767
14325SOL     OW55447   3.455   2.432   4.286 -0.5452  0.1595 -0.6653
14325SOL    HW155448   3.513   2.386   4.219  0.0581  0.3357 -0.2696
14325SOL    HW255449   3.428   2.368   4.357  0.2864  0.4053 -0.1198
14326SOL     OW55450   1.726   2.520   4.889  0.3229 -0.3655  0.2842
14326SOL    HW155451   1.736   2.460   4.810 -1.1080  0.3448 -0.4512
14326SOL    HW255452   1.806   2.510   4.949  1.1459 -1.3190 -0.9542
14327SOL     OW55453   1.663   5.427   8.712 -0.2357 -0.1364  0.1624
14327SOL    HW155454   1.659   5.520   8.677  0.1912  0.0571  0.6260
14327SOL    HW255455   1.578   5.405   8.760 -0.8186 -0.3994 -0.9853
14328SOL     OW55456   8.916   6.979   1.700 -0.1426  0.0317  0.2138
14328SOL    HW155457   9.003   6.936   1.725 -0.3921 -0.4779  0.1934
14328SOL    HW255458   8.934   7.070   1.662  0.3837 -0.0750  0.2063
14329SOL     OW55459   0.110   1.149   6.413 -0.3827  0.2200  0.2528
14329SOL    HW155460   0.162   1.233   6.429 -0.2279  0.1342  0.2019
14329SOL    HW255461   0.104   1.098   6.499 -0.4497  0.2675  0.2762
14330SOL     OW55462   0.065   7.163   0.157  0.1354 -0.1723 -0.0358
14330SOL    HW155463   0.097   7.208   0.241  0.4335 -0.7604  0.1675
14330SOL    HW255464   0.121   7.083   0.138 -0.7096 -0.7562 -0.1145
14331SOL     OW55465   1.175   1.667   7.067 -0.7514 -0.4797  0.0872
14331SOL    HW155466   1.105   1.632   7.129 -1.5426 -0.3414 -0.7187
14331SOL    HW255467   1.141   1.663   6.973  0.0155  0.3358 -0.2309
14332SOL     OW55468   3.609   5.841   7.874 -0.6919 -0.1023 -0.1728
14332SOL    HW155469   3.665   5.795   7.805 -0.2345 -0.7940  0.6529
14332SOL    HW255470   3.542   5.777   7.910 -0.8276  0.2144  0.1376
14333SOL     OW55471   6.127   2.920   2.537  0.9084 -0.5941  0.4964
14333SOL    HW155472   6.199   2.856   2.510  1.4209  0.1638  0.0401
14333SOL    HW255473   6.086   2.960   2.455 -0.6504 -1.6685  0.7123
14334SOL     OW55474   7.126   4.496   0.249 -0.0458 -0.5109  0.0296
14334SOL    HW155475   7.120   4.485   0.348  1.1743  0.1250  0.1783
14334SOL    HW255476   7.042   4.540   0.216  0.6072  1.6781  1.1380
14335SOL     OW55477   4.408   5.353   0.475 -0.3012  0.3622 -0.1237
14335SOL    HW155478   4.432   5.450   0.482  1.2509  0.0023 -0.2422
14335SOL    HW255479   4.361   5.336   0.388  1.4926  0.6041 -1.1505
14336SOL     OW55480   6.853   3.079   3.821 -0.0199 -0.0584 -0.3495
14336SOL    HW155481   6.764   3.125   3.819 -0.3671 -0.6751 -3.7071
14336SOL    HW255482   6.919   3.132   3.768  0.4589 -1.6281 -1.3853
14337SOL     OW55483   3.572   3.821   8.702 -0.0587  0.2271 -0.4099
14337SOL    HW155484   3.565   3.814   8.802  0.0953  0.1237 -0.4068
14337SOL    HW255485   3.556   3.732   8.661 -0.4598  0.3368 -0.4948
14338SOL     OW55486   3.655   6.593   3.013 -0.6986  0.1367  0.2621
14338SOL    HW155487   3.635   6.662   3.082 -0.3653 -0.0231  0.5196
14338SOL    HW255488   3.721   6.629   2.947 -2.5127  0.9913 -1.1215
14339SOL     OW55489   3.479   6.986   1.031 -0.2129  0.8492  0.0844
14339SOL    HW155490   3.566   6.985   1.080 -0.3137 -0.6242  0.2658
14339SOL    HW255491   3.418   6.917   1.070 -0.6893  0.4070 -1.3879
14340SOL     OW55492   4.689   2.618   6.672 -0.5043  0.3061 -0.0884
14340SOL    HW155493   4.730   2.708   6.669  1.0140 -0.3085  1.3644
14340SOL    HW255494   4.673   2.592   6.767  0.5029 -1.5852 -0.4137
14341SOL     OW55495   5.871   3.063   7.466  0.5293  0.1412  0.0070
14341SOL    HW155496   5.854   2.980   7.520 -1.4148  0.7045  0.2877
14341SOL    HW255497   5.941   3.118   7.510  0.9606 -0.7674  0.4622
14342SOL     OW55498   7.023   6.906   7.222  0.6835  0.1694  0.4720
14342SOL    HW155499   6.986   6.834   7.281 -0.5063  0.0069 -0.4454
14342SOL    HW255500   7.006   6.882   7.126  1.0778  1.2545  0.1298
14343SOL     OW55501   7.771   3.170   6.454  0.0629  0.1505  0.1941
14343SOL    HW155502   7.790   3.186   6.358 -0.4702  1.4192  0.2887
14343SOL    HW255503   7.722   3.249   6.492 -1.4055 -1.1223  1.0296
14344SOL     OW55504   3.972   5.418   7.533  0.2263 -0.0448 -0.1600
14344SOL    HW155505   3.975   5.496   7.472 -0.9184 -0.0418 -0.2121
14344SOL    HW255506   3.877   5.393   7.552  0.5622 -2.2343 -1.1819
14345SOL     OW55507   3.556   7.469   4.171  0.5966 -0.0430 -0.5165
14345SOL    HW155508   3.504   7.549   4.201 -0.3005 -1.4087  1.7451
14345SOL    HW255509   3.496   7.408   4.118  0.5286 -0.5079  0.0925
14346SOL     OW55510   6.171   8.906   8.101 -0.1155  0.3135  0.1469
14346SOL    HW155511   6.115   8.957   8.035 -0.6879 -0.4260  0.0584
14346SOL    HW255512   6.268   8.926   8.084 -0.3360  1.6790  0.3679
14347SOL     OW55513   2.185   3.685   6.495  0.2393  0.2628 -0.0509
14347SOL    HW155514   2.263   3.623   6.484  0.0418 -0.2613  1.2878
14347SOL    HW255515   2.129   3.684   6.413 -0.9699 -3.0707  0.7273
14348SOL     OW55516   1.597   8.160   0.498  0.4008 -1.0205 -0.1726
14348SOL    HW155517   1.597   8.115   0.588  1.7297  0.6531  0.6930
14348SOL    HW255518   1.689   8.157   0.460  0.5900  1.3136  0.0803
14349SOL     OW55519   8.962   0.131   5.185 -0.1330  0.2580 -0.1240
14349SOL    HW155520   8.884   0.075   5.157  0.5045 -1.3321  1.2062
14349SOL    HW255521   9.042   0.108   5.130  0.2623 -0.5306  0.7576
14350SOL     OW55522   7.889   3.302   3.751 -0.1111  0.8850 -0.0589
14350SOL    HW155523   7.790   3.289   3.758 -0.3884  2.2607 -1.1629
14350SOL    HW255524   7.908   3.393   3.714  1.5595  0.3586 -0.5363
14351SOL     OW55525   4.526   6.690   3.897 -0.5858  0.0937 -0.0182
14351SOL    HW155526   4.443   6.731   3.859 -0.1185  1.7388  0.6869
14351SOL    HW255527   4.539   6.723   3.991  2.2523  1.9310 -0.9866
14352SOL     OW55528   3.488   7.316   7.677 -0.3638 -0.5478  0.4549
14352SOL    HW155529   3.527   7.354   7.592 -0.5480  0.3540  0.7698
14352SOL    HW255530   3.462   7.391   7.738  1.0805 -1.2211  1.9076
14353SOL     OW55531   2.257   8.195   2.503  0.8563  0.0424  0.4599
14353SOL    HW155532   2.185   8.261   2.481  1.0274 -0.5505 -1.9459
14353SOL    HW255533   2.311   8.230   2.579 -1.6566  0.7221  2.0145
14354SOL     OW55534   2.896   2.325   3.448  0.1317 -0.1032 -0.5114
14354SOL    HW155535   2.849   2.363   3.528  0.7954  1.2040 -0.7269
14354SOL    HW255536   2.935   2.236   3.472 -1.0674 -0.4613  0.1377
14355SOL     OW55537   0.204   3.961   3.842  0.0940  0.5464  0.4323
14355SOL    HW155538   0.154   4.041   3.874  0.4918 -0.0412  2.6353
14355SOL    HW255539   0.177   3.880   3.895  1.3598 -0.3227 -0.1941
14356SOL     OW55540   0.835   4.572   4.296 -0.0546 -0.3356 -0.3545
14356SOL    HW155541   0.770   4.577   4.219 -0.1206  1.1313 -0.2259
14356SOL    HW255542   0.922   4.538   4.263  1.4621  4.8019 -2.2270
14357SOL     OW55543   2.970   1.429   5.514  0.2790  0.3537  0.0963
14357SOL    HW155544   2.889   1.431   5.455 -0.2576  0.9770  0.8352
14357SOL    HW255545   2.944   1.400   5.606  0.3735  3.1842  1.0806
14358SOL     OW55546   2.152   6.876   5.628 -0.0921 -0.0748 -0.3899
14358SOL    HW155547   2.060   6.915   5.635 -0.1832 -0.3262 -0.2001
14358SOL    HW255548   2.147   6.784   5.589  0.2639  0.7091 -2.3733
14359SOL     OW55549   8.361   5.168   3.705  0.5051  0.2534  0.3792
14359SOL    HW155550   8.300   5.247   3.700 -1.1785 -1.0265 -0.0855
14359SOL    HW255551   8.436   5.179   3.640 -1.4879  0.0437 -2.0501
14360SOL     OW55552   3.641   5.213   3.097 -0.1349  0.5114  0.5862
14360SOL    HW155553   3.707   5.193   3.169  0.8055  0.8199 -0.1714
14360SOL    HW255554   3.551   5.179   3.123  0.2041  0.5882  1.8823
14361SOL     OW55555   7.131   0.440   0.749 -0.2705  0.2186  0.5453
14361SOL    HW155556   7.136   0.487   0.661  1.2963  0.4422  0.7241
14361SOL    HW255557   7.036   0.417   0.770 -0.6414 -0.0324 -1.2958
14362SOL     OW55558   0.218   8.319   7.725 -0.5710 -0.2166  0.0622
14362SOL    HW155559   0.229   8.377   7.645 -1.0668 -1.5246 -0.9772
14362SOL    HW255560   0.220   8.223   7.698 -0.0468 -0.6999  1.7129
14363SOL     OW55561   0.577   4.166   0.729 -0.1156 -0.0726  0.2012
14363SOL    HW155562   0.529   4.235   0.674  1.0048 -0.7653 -1.6798
14363SOL    HW255563   0.662   4.205   0.764 -0.3213  0.0318  0.5932
14364SOL     OW55564   4.644   3.101   8.053 -0.1517 -0.2670 -0.2250
14364SOL    HW155565   4.644   3.023   8.116  1.2140  0.7558  1.0883
14364SOL    HW255566   4.586   3.174   8.091 -0.6504 -0.2744 -0.9712
14365SOL     OW55567   7.218   1.262   8.756 -0.5992 -0.3694  0.2495
14365SOL    HW155568   7.178   1.340   8.706  0.4056 -0.1852 -0.2803
14365SOL    HW255569   7.318   1.270   8.756 -0.5090 -1.4412  0.5601
14366SOL     OW55570   7.662   8.066   6.890 -0.1555  0.0795  0.7152
14366SOL    HW155571   7.725   8.079   6.813 -2.6403 -0.4024 -1.5089
14366SOL    HW255572   7.638   8.155   6.929  0.5374  0.3979  0.4206
14367SOL     OW55573   7.853   7.790   3.510  0.2004  0.2679  0.3248
14367SOL    HW155574   7.902   7.876   3.494  2.4272 -0.7644  1.5164
14367SOL    HW255575   7.873   7.726   3.436 -0.4619  0.3009  0.1088
14368SOL     OW55576   4.379   3.386   1.018  0.2388  0.0349  0.5207
14368SOL    HW155577   4.470   3.417   0.988  0.7128 -1.0906  0.7803
14368SOL    HW255578   4.389   3.326   1.098 -0.7702  0.2204  0.7959
14369SOL     OW55579   8.081   2.486   6.691 -0.1255  0.1424 -0.7455
14369SOL    HW155580   8.022   2.406   6.706  2.3253 -1.5971  0.0216
14369SOL    HW255581   8.113   2.487   6.597 -0.8341  0.7270 -0.9867
14370SOL     OW55582   4.740   2.948   0.082  0.3275  0.4485  0.0871
14370SOL    HW155583   4.820   2.919   0.030  0.1396  1.4985 -0.8241
14370SOL    HW255584   4.761   2.949   0.180  0.9878 -0.6095 -0.0437
14371SOL     OW55585   2.387   2.832   1.556  0.3979  0.0477  0.4441
14371SOL    HW155586   2.467   2.772   1.560  0.1701 -0.1922  1.4381
14371SOL    HW255587   2.346   2.825   1.465 -1.2277 -3.4544  1.3435
14372SOL     OW55588   4.483   5.280   6.579  0.0183  0.0037 -0.3860
14372SOL    HW155589   4.394   5.297   6.621  0.1173  1.4133 -0.7065
14372SOL    HW255590   4.472   5.233   6.492 -0.3872 -0.1285 -0.2609
14373SOL     OW55591   6.828   0.260   7.775 -0.2043 -0.0224  0.2448
14373SOL    HW155592   6.834   0.316   7.858  0.8082 -0.2049  0.2962
14373SOL    HW255593   6.915   0.265   7.725 -1.2737  1.2505 -1.5518
14374SOL     OW55594   4.382   5.704   4.056 -0.2405 -0.1200 -0.1745
14374SOL    HW155595   4.397   5.741   3.964  1.3370  1.1898  0.5948
14374SOL    HW255596   4.344   5.776   4.115 -0.1319 -0.6214  0.5110
14375SOL     OW55597   2.282   3.485   8.223  0.2262 -0.2239  0.2807
14375SOL    HW155598   2.372   3.467   8.262  1.4082  1.4051 -1.6029
14375SOL    HW255599   2.265   3.583   8.220 -2.3571 -0.5451  2.1411
14376SOL     OW55600   8.170   7.765   7.924 -0.1590 -0.4517 -0.0147
14376SOL    HW155601   8.188   7.671   7.894 -1.9002 -1.2876  1.4844
14376SOL    HW255602   8.234   7.790   7.997  1.3817  0.1343 -1.5325
14377SOL     OW55603   2.666   4.582   2.839  0.1928  1.0409 -0.2159
14377SOL    HW155604   2.739   4.614   2.900  1.7183 -0.9173 -0.9426
14377SOL    HW255605   2.692   4.494   2.800 -2.3699  0.5578 -0.9120
14378SOL     OW55606   4.778   5.827   3.874 -0.5980 -0.0537 -0.0899
14378SOL    HW155607   4.697   5.886   3.867 -0.2774  0.1940 -1.8710
14378SOL    HW255608   4.764   5.745   3.819  0.3898  0.0142 -0.4480
14379SOL     OW55609   4.667   7.207   3.632  1.3224  0.0189 -0.3921
14379SOL    HW155610   4.600   7.136   3.611  0.3912  1.1050 -1.1974
14379SOL    HW255611   4.628   7.297   3.611  2.8363  0.7076 -0.3515
14380SOL     OW55612   0.270   6.545   8.677  0.5616  0.5877  0.6911
14380SOL    HW155613   0.307   6.482   8.746  1.2912  0.7833  0.4886
14380SOL    HW255614   0.207   6.609   8.721  0.2768  0.0994  1.0029
14381SOL     OW55615   1.502   2.589   3.362 -0.4360  0.4517  0.0393
14381SOL    HW155616   1.505   2.686   3.384 -1.2021  0.4891  0.0042
14381SOL    HW255617   1.535   2.536   3.441  2.1315  0.8215 -0.7431
14382SOL     OW55618   0.426   6.332   8.435  0.2000  0.4043 -0.4270
14382SOL    HW155619   0.342   6.378   8.462  0.7570  1.2213 -0.0605
14382SOL    HW255620   0.448   6.355   8.341  0.6712  1.1764 -0.1281
14383SOL     OW55621   2.521   3.463   0.227 -0.8617  0.4267  0.1029
14383SOL    HW155622   2.574   3.543   0.200  1.0578 -1.3216 -1.4926
14383SOL    HW255623   2.572   3.411   0.295 -1.1246 -0.5507 -0.4417
14384SOL     OW55624   2.731   2.800   3.315 -0.2540  0.4137  0.3616
14384SOL    HW155625   2.633   2.793   3.330 -0.2153 -0.1512  0.3565
14384SOL    HW255626   2.780   2.770   3.397 -0.0874  0.9732  0.4701
14385SOL     OW55627   5.931   1.747   0.293 -0.3241 -0.4165  0.5167
14385SOL    HW155628   5.969   1.715   0.380  2.2010  0.4834 -0.2104
14385SOL    HW255629   5.857   1.812   0.311  0.0761 -0.3577  1.9970
14386SOL     OW55630   7.699   4.238   2.388 -0.5914 -0.5880 -0.3440
14386SOL    HW155631   7.755   4.173   2.439  1.9042  1.0219 -0.9824
14386SOL    HW255632   7.604   4.231   2.419  0.3277 -1.7747  2.3402
14387SOL     OW55633   3.485   8.297   0.570 -0.2121 -0.5088 -0.1461
14387SOL    HW155634   3.474   8.291   0.669  0.1559 -1.5583 -0.1634
14387SOL    HW255635   3.486   8.393   0.543 -1.1774 -0.2302  0.7633
14388SOL     OW55636   2.733   0.761   6.886 -0.1466  0.2296  0.3770
14388SOL    HW155637   2.821   0.716   6.897 -0.6729 -0.7557  0.6029
14388SOL    HW255638   2.668   0.725   6.954 -0.7005  0.9925  0.2606
14389SOL     OW55639   0.082   2.275   7.796  0.1371  0.3165 -0.8802
14389SOL    HW155640   0.156   2.229   7.845 -1.4916 -0.5935  0.7568
14389SOL    HW255641   0.094   2.262   7.698 -0.3165 -3.6578 -0.4631
14390SOL     OW55642   6.802   2.463   8.602  0.2688 -0.2834 -0.4098
14390SOL    HW155643   6.747   2.478   8.684  1.1083 -1.8032  0.4315
14390SOL    HW255644   6.757   2.395   8.544  1.1791 -1.4574  0.2332
14391SOL     OW55645   8.973   7.573   7.838  0.2344  0.0703  0.3875
14391SOL    HW155646   8.961   7.650   7.775  2.8231 -1.6452 -2.3159
14391SOL    HW255647   9.058   7.584   7.889  0.3061 -0.7092  0.4470
14392SOL     OW55648   7.089   7.563   5.729  0.2405  0.1264  0.3494
14392SOL    HW155649   7.094   7.474   5.684 -2.1126 -0.8349  1.9010
14392SOL    HW255650   7.172   7.615   5.709  2.2984 -2.9454  0.5758
14393SOL     OW55651   7.641   2.198   7.708  0.0766 -1.0125 -0.2643
14393SOL    HW155652   7.687   2.235   7.628  0.9877 -0.0151  0.6979
14393SOL    HW255653   7.691   2.226   7.791 -1.9025 -0.4146  0.7599
14394SOL     OW55654   3.143   4.185   0.558 -0.2916  0.4129  0.9335
14394SOL    HW155655   3.231   4.230   0.543  0.9247 -1.2526  2.7445
14394SOL    HW255656   3.137   4.103   0.501 -1.2157  1.2088 -0.1241
14395SOL     OW55657   0.663   6.192   2.117  0.1733 -0.4914 -0.2343
14395SOL    HW155658   0.663   6.100   2.156 -1.7681 -1.3899 -2.2352
14395SOL    HW255659   0.616   6.255   2.180  1.5267 -0.8412  1.1512
14396SOL     OW55660   4.838   8.126   0.506  0.6965 -0.8515  0.4463
14396SOL    HW155661   4.859   8.218   0.538 -2.0339  0.0626 -0.2346
14396SOL    HW255662   4.881   8.110   0.418 -0.1475  0.3894 -0.2066
14397SOL     OW55663   0.526   5.286   6.703  0.7295  0.1096  0.0186
14397SOL    HW155664   0.527   5.274   6.604 -0.9401  0.5820 -0.0604
14397SOL    HW255665   0.432   5.291   6.736  1.2732  1.0463  1.5015
14398SOL     OW55666   3.768   2.530   6.452  0.8969 -0.3773 -0.1688
14398SOL    HW155667   3.824   2.613   6.457  0.6873 -0.2424 -0.0788
14398SOL    HW255668   3.672   2.555   6.442  0.7921 -0.6066  0.2455
14399SOL     OW55669   3.307   7.639   5.667  0.5850  0.0450  0.0015
14399SOL    HW155670   3.237   7.707   5.647  0.1667 -0.3541  0.0933
14399SOL    HW255671   3.353   7.661   5.753  0.5318  0.2754 -0.0299
14400SOL     OW55672   5.374   2.454   2.424 -0.0021  0.1032 -0.7442
14400SOL    HW155673   5.308   2.490   2.358  1.6978  1.9000 -1.5095
14400SOL    HW255674   5.351   2.359   2.446 -0.5019 -0.5832 -4.0650
14401SOL     OW55675   3.311   7.280   0.022  0.1895 -0.0392 -0.0363
14401SOL    HW155676   3.281   7.217  -0.050 -2.4559 -0.7046  1.5933
14401SOL    HW255677   3.240   7.349   0.037  1.4575  1.0976  0.7821
14402SOL     OW55678   4.271   5.837   3.069 -0.0317 -0.1097  0.1130
14402SOL    HW155679   4.283   5.816   2.973  0.9539 -2.0022  0.6324
14402SOL    HW255680   4.313   5.925   3.090 -1.4556  0.9621 -1.4443
14403SOL     OW55681   5.185   1.810   2.515  0.5033 -0.1164  0.2389
14403SOL    HW155682   5.152   1.721   2.545 -0.0985 -0.2327 -0.7416
14403SOL    HW255683   5.169   1.820   2.417 -0.6258  1.5977  0.5870
14404SOL     OW55684   7.926   1.804   8.055  0.1284 -0.0829  0.9782
14404SOL    HW155685   8.012   1.818   8.006 -0.2497 -0.9078  0.0709
14404SOL    HW255686   7.929   1.715   8.101  0.3623  0.5513  2.2118
14405SOL     OW55687   3.582   4.023   2.718 -0.4833 -0.1777  0.1499
14405SOL    HW155688   3.616   4.114   2.739  0.7005 -0.3380 -1.0251
14405SOL    HW255689   3.654   3.955   2.731  0.3144 -0.3059 -4.0979
14406SOL     OW55690   0.885   4.493   4.573  0.1834  0.0969  1.0012
14406SOL    HW155691   0.814   4.526   4.636 -0.2413  0.9361  0.0909
14406SOL    HW255692   0.859   4.515   4.479  0.7514 -1.2764  0.5155
14407SOL     OW55693   3.071   7.683   6.727 -0.0274  0.3343  0.0012
14407SOL    HW155694   2.973   7.664   6.731  0.3967 -1.7713  1.6693
14407SOL    HW255695   3.086   7.778   6.701 -2.5335  1.0095  0.9010
14408SOL     OW55696   1.192   8.218   4.536 -0.0013 -0.6436  0.3224
14408SOL    HW155697   1.123   8.221   4.608 -1.7776  1.1608 -1.3943
14408SOL    HW255698   1.150   8.188   4.450  1.8325 -1.6566 -0.2557
14409SOL     OW55699   7.891   5.592   6.512 -0.5002 -0.0609  0.1252
14409SOL    HW155700   7.797   5.610   6.480  0.0016  0.0042 -1.3708
14409SOL    HW255701   7.896   5.606   6.610 -1.5567  2.0596 -0.0937
14410SOL     OW55702   3.668   0.951   4.742  0.6322  0.3775 -0.1486
14410SOL    HW155703   3.584   0.899   4.723 -0.6525  2.4607 -0.4225
14410SOL    HW255704   3.735   0.892   4.787 -0.2547 -1.8444 -1.6465
14411SOL     OW55705   8.844   6.754   1.568 -0.3205  0.2254  0.0461
14411SOL    HW155706   8.759   6.750   1.514  0.6516 -0.3513 -1.4874
14411SOL    HW255707   8.861   6.848   1.597 -0.7141  0.6101 -0.9298
14412SOL     OW55708   3.829   5.944   7.637 -0.2226  0.0021 -0.1489
14412SOL    HW155709   3.747   5.998   7.658  0.4034  1.8636 -2.2702
14412SOL    HW255710   3.811   5.847   7.652 -2.2442  0.5449  1.1002
14413SOL     OW55711   2.590   3.851   6.994  0.3762  0.1742 -0.3734
14413SOL    HW155712   2.537   3.791   6.933  1.8973 -1.1891 -0.3637
14413SOL    HW255713   2.619   3.800   7.074  0.8448  1.2079  0.1207
14414SOL     OW55714   7.820   0.436   6.569  0.4158 -0.1743 -0.0009
14414SOL    HW155715   7.777   0.358   6.615 -3.2191  0.3915 -2.1431
14414SOL    HW255716   7.890   0.403   6.506 -1.2159 -1.8267 -1.0235
14415SOL     OW55717   5.709   1.652   1.281  0.2055 -0.3913 -0.3922
14415SOL    HW155718   5.757   1.672   1.367  1.0370 -0.9706 -0.7153
14415SOL    HW255719   5.649   1.728   1.258  0.7472  0.2135  0.1744
14416SOL     OW55720   4.364   4.535   3.111 -0.3384 -0.0417  0.1306
14416SOL    HW155721   4.390   4.509   3.204 -1.5118 -0.6657  0.2978
14416SOL    HW255722   4.400   4.468   3.046  0.9026  0.6637  0.0793
14417SOL     OW55723   1.299   8.744   1.531 -0.1138  0.2553  0.4983
14417SOL    HW155724   1.311   8.679   1.606 -1.6932 -0.7677 -0.1203
14417SOL    HW255725   1.351   8.827   1.551 -0.1680 -0.1665  2.5283
14418SOL     OW55726   4.679   5.492   8.132 -0.4610 -0.2474  0.1648
14418SOL    HW155727   4.682   5.422   8.204 -0.3971  1.2002  1.5984
14418SOL    HW255728   4.768   5.536   8.125 -1.3357  1.7999  1.4341
14419SOL     OW55729   5.388   7.429   5.031 -0.0987  0.3062  0.6766
14419SOL    HW155730   5.326   7.352   5.046 -0.5602  0.2462 -1.2892
14419SOL    HW255731   5.469   7.398   4.982  0.9312  0.6166  2.1536
14420SOL     OW55732   4.549   2.768   0.895  0.1374 -0.1815 -0.3189
14420SOL    HW155733   4.618   2.720   0.950  0.4367 -0.2790 -0.7800
14420SOL    HW255734   4.469   2.708   0.883 -1.2316  0.9411  2.5819
14421SOL     OW55735   7.693   5.525   1.433  0.3430 -0.3504 -0.0831
14421SOL    HW155736   7.782   5.500   1.396  1.0351  3.8159 -1.5272
14421SOL    HW255737   7.699   5.533   1.532  1.2098 -1.4326 -0.0465
14422SOL     OW55738   8.230   8.776   4.383  0.5155  0.8298 -0.2917
14422SOL    HW155739   8.269   8.783   4.474  0.5926  0.3936 -0.2902
14422SOL    HW255740   8.131   8.788   4.388  0.5928  1.4766 -0.2384
14423SOL     OW55741   4.810   6.211   1.045  0.1077  0.0252 -0.4052
14423SOL    HW155742   4.908   6.229   1.044  0.1272  0.0377 -2.8825
14423SOL    HW255743   4.770   6.245   1.130  2.0679  1.0377  0.1364
14424SOL     OW55744   1.005   0.346   8.423 -0.0302 -0.0469 -0.5189
14424SOL    HW155745   0.973   0.319   8.513 -0.4812  1.1677 -0.3038
14424SOL    HW255746   1.083   0.290   8.397  0.8175  0.3592  1.1027
14425SOL     OW55747   8.055   4.677   4.597  0.0843  0.5401  0.3787
14425SOL    HW155748   8.043   4.734   4.515  2.6948  0.5079 -0.0508
14425SOL    HW255749   7.981   4.610   4.601 -0.2518  0.7327 -1.8051
14426SOL     OW55750   2.298   2.125   0.703  0.6867  0.3263  0.5216
14426SOL    HW155751   2.264   2.054   0.642 -0.5380 -0.3734  1.9976
14426SOL    HW255752   2.395   2.109   0.720  0.7380 -0.2131 -0.2150
14427SOL     OW55753   6.229   3.796   8.356 -0.5058  0.2936 -0.4613
14427SOL    HW155754   6.195   3.732   8.424 -1.9397 -1.2320 -2.5500
14427SOL    HW255755   6.300   3.752   8.301 -0.8797  0.7829 -1.3442
14428SOL     OW55756   0.953   4.542   3.931  0.6115  0.6247 -0.0163
14428SOL    HW155757   0.931   4.446   3.944 -1.6111  1.3638  1.9992
14428SOL    HW255758   0.926   4.571   3.840  2.6572 -0.9896 -1.1764
14429SOL     OW55759   4.603   3.036   2.621 -0.2782  0.2239  0.2822
14429SOL    HW155760   4.521   3.064   2.670  0.0016  0.4350  0.6271
14429SOL    HW255761   4.581   3.026   2.524 -0.8977 -0.4716  0.4872
14430SOL     OW55762   1.559   3.559   4.295  0.3043 -0.0440  0.0001
14430SOL    HW155763   1.473   3.532   4.338 -1.4685  2.4164 -1.8804
14430SOL    HW255764   1.609   3.620   4.357 -2.0290  3.1247 -1.1381
14431SOL     OW55765   4.393   3.011   1.454 -0.0287  0.7460 -0.0367
14431SOL    HW155766   4.327   2.939   1.431  2.3847 -1.6859  0.4694
14431SOL    HW255767   4.377   3.091   1.396 -0.8381 -1.3186 -2.7198
14432SOL     OW55768   6.058   4.636   1.079 -0.5907 -0.0111 -0.0181
14432SOL    HW155769   6.126   4.657   1.149 -1.0409 -0.2345  0.4911
14432SOL    HW255770   6.104   4.616   0.992  0.0387 -0.9188  0.5140
14433SOL     OW55771   7.785   1.651   7.029 -0.0118 -0.0983 -0.1552
14433SOL    HW155772   7.704   1.709   7.023 -0.5773 -0.7882  0.6915
14433SOL    HW255773   7.867   1.708   7.016 -0.4330  1.3570  3.0330
14434SOL     OW55774   1.441   6.626   3.368  0.1304  0.2632 -0.2865
14434SOL    HW155775   1.409   6.577   3.287 -0.8051 -0.9424  0.8055
14434SOL    HW255776   1.480   6.714   3.339  1.1406 -0.7655 -2.1746
14435SOL     OW55777   3.269   5.813   3.363  0.2948 -0.6063  0.4374
14435SOL    HW155778   3.201   5.870   3.409  0.3654 -0.5327  0.4508
14435SOL    HW255779   3.300   5.741   3.424  0.8656 -0.1200  0.7332
14436SOL     OW55780   3.780   3.557   8.451  0.2435  0.3043  0.5819
14436SOL    HW155781   3.701   3.499   8.432  0.9082 -0.4993  0.2686
14436SOL    HW255782   3.776   3.638   8.393  0.2465 -0.2867 -0.2492
14437SOL     OW55783   5.031   3.941   2.152  0.2528  0.3910 -0.2879
14437SOL    HW155784   5.100   3.945   2.224 -0.1175  1.1215  0.0253
14437SOL    HW255785   4.942   3.966   2.189 -0.2615 -0.9425 -0.5965
14438SOL     OW55786   7.292   2.567   1.323 -0.2524  0.5597  0.8724
14438SOL    HW155787   7.316   2.517   1.240 -0.2615 -0.1721  1.3071
14438SOL    HW255788   7.242   2.650   1.299  0.0628  0.5337  0.1282
14439SOL     OW55789   3.465   2.771   7.258 -0.1776 -0.2660 -0.3746
14439SOL    HW155790   3.526   2.692   7.260 -0.9368 -0.8602 -0.6132
14439SOL    HW255791   3.423   2.779   7.168  0.7784  1.0947 -0.7182
14440SOL     OW55792   3.522   1.629   0.532  0.1660 -0.0371  0.3138
14440SOL    HW155793   3.616   1.610   0.560  0.6995  2.0338 -0.0185
14440SOL    HW255794   3.476   1.681   0.604 -1.4088 -2.8599  1.4028
14441SOL     OW55795   4.097   4.262   6.217 -0.0436  0.4654 -0.5982
14441SOL    HW155796   4.059   4.346   6.179  3.0599  1.1227 -2.4245
14441SOL    HW255797   4.170   4.284   6.281 -0.4692 -0.8203  0.3504
14442SOL     OW55798   2.378   3.945   0.303  0.1231  0.0635 -0.6068
14442SOL    HW155799   2.469   3.962   0.265  1.0958 -1.8661  0.7984
14442SOL    HW255800   2.365   3.847   0.316 -1.6951  0.4135  0.3567
14443SOL     OW55801   1.273   0.882   2.213 -0.0059 -0.4766  0.2082
14443SOL    HW155802   1.204   0.809   2.216 -0.2395 -0.3156 -0.8611
14443SOL    HW255803   1.227   0.970   2.200  0.3801 -0.3344 -0.1892
14444SOL     OW55804   5.355   4.043   0.762 -0.2001  0.1494 -0.1959
14444SOL    HW155805   5.268   4.092   0.764 -0.5879 -0.4880 -1.0011
14444SOL    HW255806   5.344   3.952   0.803  0.3469  0.4565  0.6585
14445SOL     OW55807   1.242   3.278   0.136 -0.3076 -0.9822  0.0800
14445SOL    HW155808   1.253   3.360   0.080 -0.9158 -0.5609  0.5673
14445SOL    HW255809   1.331   3.235   0.151  0.0662 -0.1860  0.1486
14446SOL     OW55810   3.208   1.217   8.372  0.8228  0.2410  0.2647
14446SOL    HW155811   3.152   1.229   8.453 -1.0837 -1.4949 -0.7510
14446SOL    HW255812   3.301   1.193   8.398  0.0331 -1.0754  1.9147
14447SOL     OW55813   4.406   8.673   1.210 -0.0484  0.3951  0.1166
14447SOL    HW155814   4.435   8.677   1.306 -0.0373  0.2460  0.1196
14447SOL    HW255815   4.321   8.621   1.202  0.0010  0.3242  0.0349
14448SOL     OW55816   5.840   3.595   2.910  0.1575  0.3019 -0.0283
14448SOL    HW155817   5.767   3.545   2.957 -0.0485  1.3237  0.7502
14448SOL    HW255818   5.904   3.529   2.869  1.4402 -0.7023  3.3625
14449SOL     OW55819   7.811   6.115   8.150  0.1113  0.0483 -0.2977
14449SOL    HW155820   7.899   6.160   8.135 -0.1844  0.7863  0.1400
14449SOL    HW255821   7.826   6.023   8.187  0.6919  0.1667 -0.2354
14450SOL     OW55822   1.070   4.937   1.448 -0.6367  0.1568 -0.2893
14450SOL    HW155823   1.060   5.023   1.497 -0.3149  0.0543 -0.0405
14450SOL    HW255824   1.157   4.936   1.399 -0.0656 -0.5345  0.7251
14451SOL     OW55825   1.644   7.458   6.285  0.4365 -0.4001  0.1961
14451SOL    HW155826   1.741   7.442   6.267  1.2452  3.2536  0.7740
14451SOL    HW255827   1.634   7.493   6.378 -1.5439 -1.4151  0.3811
14452SOL     OW55828   0.212   3.533   0.519  0.0479  0.2749 -0.2215
14452SOL    HW155829   0.118   3.520   0.550  0.5710  1.7666  2.1156
14452SOL    HW255830   0.226   3.628   0.491  0.8043  0.0030 -0.7931
14453SOL     OW55831   0.839   3.417   2.859  0.8428 -0.4496 -0.8342
14453SOL    HW155832   0.880   3.394   2.947  0.8871  1.9238 -0.1844
14453SOL    HW255833   0.908   3.410   2.787  1.1925 -0.9802 -0.4457
14454SOL     OW55834   4.794   4.692   5.278 -0.2286 -0.0488  0.3607
14454SOL    HW155835   4.772   4.614   5.220 -1.6123  1.5890 -1.4008
14454SOL    HW255836   4.746   4.684   5.365  1.4490 -2.2720  1.1229
14455SOL     OW55837   7.018   8.123   1.955  0.4149 -0.3394  0.5521
14455SOL    HW155838   7.017   8.082   2.047 -1.3376 -2.8799 -0.5412
14455SOL    HW255839   6.973   8.061   1.891 -0.4486  2.4376 -1.6093
14456SOL     OW55840   1.556   6.292   7.306 -0.1987  0.2868 -0.0011
14456SOL    HW155841   1.630   6.310   7.241 -0.6395 -0.8089 -0.8411
14456SOL    HW255842   1.593   6.283   7.398  0.7678 -0.4985 -0.4549
14457SOL     OW55843   0.589   0.695   7.488 -0.5488 -0.2765 -0.3057
14457SOL    HW155844   0.513   0.756   7.465 -0.8496 -0.9478 -1.1164
14457SOL    HW255845   0.604   0.697   7.587 -2.1058 -0.6958 -0.0476
14458SOL     OW55846   5.799   4.476   7.556 -0.1506 -0.3679  0.1352
14458SOL    HW155847   5.770   4.480   7.651  1.4543 -0.5165  0.6485
14458SOL    HW255848   5.854   4.557   7.534  2.0628 -1.8025  0.2330
14459SOL     OW55849   6.575   3.903   0.099 -0.5943 -0.3965  0.5128
14459SOL    HW155850   6.496   3.881   0.041  0.1925  0.0008 -0.7406
14459SOL    HW255851   6.571   3.999   0.127 -0.8899 -0.5443  0.9696
14460SOL     OW55852   5.356   4.952   7.593 -0.1200  0.2234 -0.4579
14460SOL    HW155853   5.393   5.044   7.587 -0.3517  0.4703  1.4323
14460SOL    HW255854   5.428   4.889   7.622 -0.3748  0.1310 -0.0109
14461SOL     OW55855   3.071   7.241   1.531 -0.3719  0.4360  0.0311
14461SOL    HW155856   3.013   7.162   1.551  0.8335 -0.3935  0.2913
14461SOL    HW255857   3.036   7.289   1.450  0.0371 -1.5306 -1.3462
14462SOL     OW55858   2.489   4.418   0.341  0.1506 -0.1737  0.0239
14462SOL    HW155859   2.407   4.388   0.390  2.3546 -2.0873  2.7190
14462SOL    HW255860   2.543   4.477   0.400  1.3177  0.0436 -1.2519
14463SOL     OW55861   8.104   1.220   8.589 -0.0699  0.3304 -0.5926
14463SOL    HW155862   8.198   1.245   8.612  0.0615  0.8009 -1.6394
14463SOL    HW255863   8.051   1.210   8.673  0.9861 -0.2185  0.0107
14464SOL     OW55864   4.095   0.942   6.574 -0.4190 -0.1735  0.0555
14464SOL    HW155865   4.157   0.871   6.608  0.0471  0.1572 -0.0915
14464SOL    HW255866   4.044   0.906   6.495  0.7806  0.0804 -0.8547
14465SOL     OW55867   7.301   8.814   7.799 -0.3233 -0.1908 -0.3219
14465SOL    HW155868   7.370   8.743   7.808  1.3238  1.3176 -0.7406
14465SOL    HW255869   7.292   8.840   7.703 -0.1594  0.8900 -0.0530
14466SOL     OW55870   0.972   5.596   0.649  0.0979 -0.4049 -0.3427
14466SOL    HW155871   0.894   5.576   0.708  1.7672 -1.5132  1.5583
14466SOL    HW255872   1.048   5.628   0.704  1.4161 -0.5710 -2.0117
14467SOL     OW55873   7.837   4.474   4.977  0.0387 -0.4544  0.2326
14467SOL    HW155874   7.923   4.509   4.940 -0.6788  1.0484 -0.0826
14467SOL    HW255875   7.761   4.528   4.941 -0.9576 -1.1590  1.2392
14468SOL     OW55876   0.916   4.687   0.882  0.1048  0.2348 -0.3652
14468SOL    HW155877   0.919   4.777   0.926  0.6476 -0.4604  1.0249
14468SOL    HW255878   0.969   4.621   0.935 -0.5882 -1.0065 -1.1814
14469SOL     OW55879   8.993   4.947   5.418  0.4112 -0.5269  0.5304
14469SOL    HW155880   8.950   4.937   5.328  1.5201  0.4301 -0.1075
14469SOL    HW255881   9.001   5.044   5.441  1.2170 -0.7308  1.1360
14470SOL     OW55882   4.173   0.280   8.803  0.8768 -0.4872  0.0111
14470SOL    HW155883   4.150   0.209   8.737  1.2042 -0.9506  0.3935
14470SOL    HW255884   4.095   0.342   8.814 -0.0293 -1.7640  0.9495
14471SOL     OW55885   3.135   5.215   8.424 -0.3903 -0.0761 -0.4081
14471SOL    HW155886   3.037   5.230   8.426 -0.4521 -0.5172 -0.1008
14471SOL    HW255887   3.169   5.230   8.331 -1.0586 -1.8524 -0.9475
14472SOL     OW55888   7.313   0.854   0.027 -0.3398  0.3007 -0.5390
14472SOL    HW155889   7.232   0.893   0.070 -0.1900 -0.8130  0.7811
14472SOL    HW255890   7.307   0.754   0.029 -0.4970  0.2047 -3.4479
14473SOL     OW55891   5.806   5.341   7.750  0.1547 -0.2014  0.5898
14473SOL    HW155892   5.868   5.418   7.732  0.8702 -1.1860 -1.3351
14473SOL    HW255893   5.711   5.372   7.739  0.4089  0.6194  0.6806
14474SOL     OW55894   1.319   6.808   4.896 -0.0566  0.0605 -0.6390
14474SOL    HW155895   1.336   6.895   4.849 -0.8928  0.4475 -0.2264
14474SOL    HW255896   1.221   6.793   4.906  0.1076  0.1418  1.2781
14475SOL     OW55897   7.379   7.520   6.790  0.7986  0.0260 -0.0740
14475SOL    HW155898   7.387   7.607   6.839 -3.0604  0.2738  0.2667
14475SOL    HW255899   7.391   7.536   6.692  1.6545  0.6828  0.1360
14476SOL     OW55900   7.261   7.871   5.433  0.2345  0.1694  0.1873
14476SOL    HW155901   7.286   7.837   5.343 -1.1764 -1.8561  0.5377
14476SOL    HW255902   7.237   7.968   5.426  2.0708  0.5437 -1.2406
14477SOL     OW55903   2.013   4.425   1.617  0.3047 -0.2535 -0.2372
14477SOL    HW155904   2.086   4.436   1.684  0.5868 -0.2704 -0.5416
14477SOL    HW255905   1.932   4.474   1.648  0.3429 -0.4925  0.2539
14478SOL     OW55906   6.192   6.065   6.810  0.7340  0.0283 -0.6547
14478SOL    HW155907   6.132   5.985   6.799  1.5056 -0.9969  2.0683
14478SOL    HW255908   6.287   6.036   6.800  0.9676  0.7955 -0.6225
14479SOL     OW55909   8.275   0.789   5.879 -0.2716 -0.1133 -0.3633
14479SOL    HW155910   8.303   0.733   5.957 -0.2262  0.9042  0.3743
14479SOL    HW255911   8.228   0.733   5.812 -1.2433 -0.8109  0.8917
14480SOL     OW55912   1.701   2.334   1.924  0.4823 -0.1435  0.3629
14480SOL    HW155913   1.731   2.255   1.871  1.1416  1.2411 -1.4073
14480SOL    HW255914   1.757   2.342   2.007 -0.1216 -1.9604  0.9719
14481SOL     OW55915   1.359   0.625   1.572  0.1634  0.3222 -0.3701
14481SOL    HW155916   1.329   0.617   1.477  1.8408  0.1684 -0.8902
14481SOL    HW255917   1.281   0.608   1.633 -1.2395  1.6974 -1.7134
14482SOL     OW55918   8.004   7.045   6.058  0.3337  0.3445 -0.1562
14482SOL    HW155919   8.097   7.051   6.022 -0.6440 -0.3218 -2.8840
14482SOL    HW255920   7.944   7.104   6.005 -1.1613 -0.7144  0.3412
14483SOL     OW55921   7.523   2.694   8.826 -0.1461  0.3072  0.2288
14483SOL    HW155922   7.569   2.616   8.868 -1.3428  0.3221  1.6270
14483SOL    HW255923   7.561   2.711   8.736 -0.2707 -2.2619 -0.3414
14484SOL     OW55924   0.543   1.085   6.141 -0.1617  0.3291 -0.0530
14484SOL    HW155925   0.490   1.169   6.157  1.1570  1.1759 -0.0725
14484SOL    HW255926   0.615   1.078   6.209 -1.3789 -1.7493  1.0714
14485SOL     OW55927   8.604   1.332   3.697  0.4784  0.0047 -0.5539
14485SOL    HW155928   8.554   1.412   3.731  0.3940 -0.4224  0.3198
14485SOL    HW255929   8.626   1.346   3.600  0.7339  1.2231 -0.3282
14486SOL     OW55930   8.929   1.529   1.423 -0.0351 -0.0163 -0.4140
14486SOL    HW155931   9.018   1.574   1.410  0.1585 -0.3354 -0.2305
14486SOL    HW255932   8.875   1.538   1.340  0.1227  0.2920 -0.4825
14487SOL     OW55933   5.094   0.810   7.083 -0.2650  0.8573  0.3147
14487SOL    HW155934   5.004   0.850   7.067  0.1872  0.8484 -2.4258
14487SOL    HW255935   5.100   0.721   7.039  0.6550  0.2417  1.6286
14488SOL     OW55936   4.475   3.583   8.657 -0.0610  0.1297 -0.4026
14488SOL    HW155937   4.552   3.574   8.719  0.1866  0.2836 -0.6852
14488SOL    HW255938   4.508   3.578   8.562 -0.0829  2.5055 -0.5758
14489SOL     OW55939   6.073   3.969   8.781  0.5245  0.3931  0.1478
14489SOL    HW155940   6.024   3.977   8.868  3.6695  0.5342  1.9887
14489SOL    HW255941   6.067   3.874   8.748  0.6491 -0.0240  1.3171
14490SOL     OW55942   3.954   0.549   1.894  0.1565  0.0736 -0.0591
14490SOL    HW155943   4.045   0.518   1.921  0.7852 -0.2747 -2.4260
14490SOL    HW255944   3.954   0.648   1.883 -0.4198  0.3618  2.2697
14491SOL     OW55945   6.973   3.616   2.176  0.0703 -0.0100 -0.1252
14491SOL    HW155946   7.047   3.549   2.174 -0.3598 -0.5147  0.4816
14491SOL    HW255947   6.932   3.624   2.086  1.0226  0.4518 -0.5202
14492SOL     OW55948   6.055   2.415   1.601  0.0799  0.3848 -0.2429
14492SOL    HW155949   6.099   2.448   1.685  1.2189  0.1938 -0.7448
14492SOL    HW255950   6.029   2.493   1.544  0.0217  0.4968 -0.0632
14493SOL     OW55951   8.483   7.978   5.735  0.1196 -0.4287  0.1142
14493SOL    HW155952   8.407   8.041   5.751  0.2929  0.4855 -2.4288
14493SOL    HW255953   8.447   7.884   5.730 -0.4395 -0.3127  1.6738
14494SOL     OW55954   8.249   6.163   6.537  0.1299  0.1921 -0.2232
14494SOL    HW155955   8.277   6.070   6.562  0.6785  0.4522  0.1390
14494SOL    HW255956   8.188   6.159   6.458 -1.0587 -0.5832  0.7332
14495SOL     OW55957   5.196   8.281   5.974  0.3011  0.2360  0.7425
14495SOL    HW155958   5.287   8.271   5.935  0.4773 -0.4760  1.3263
14495SOL    HW255959   5.199   8.346   6.050  0.2181  0.6062  0.4305
14496SOL     OW55960   4.554   4.751   1.050 -0.2273  0.6697  0.0080
14496SOL    HW155961   4.619   4.714   1.117 -0.9058 -0.1216  0.2426
14496SOL    HW255962   4.582   4.844   1.024 -0.1884  1.1665  1.7356
14497SOL     OW55963   3.603   3.502   1.167 -0.2223 -0.1759  0.5878
14497SOL    HW155964   3.590   3.432   1.237  0.4098  0.3824  1.2790
14497SOL    HW255965   3.569   3.590   1.202  1.2065  0.3534  0.6649
14498SOL     OW55966   5.560   2.643   8.503 -0.4449  0.0117  0.0763
14498SOL    HW155967   5.469   2.672   8.533 -0.3263  0.5864 -0.1216
14498SOL    HW255968   5.598   2.579   8.569 -0.9070 -0.0765  0.2644
14499SOL     OW55969   6.179   7.917   7.242  0.4173 -0.8117 -0.0332
14499SOL    HW155970   6.145   8.000   7.198  1.1811  0.0896  1.0575
14499SOL    HW255971   6.153   7.838   7.187 -4.2421 -0.2797  1.1485
14500SOL     OW55972   2.394   4.446   0.870 -0.8442 -0.2697  0.4117
14500SOL    HW155973   2.492   4.440   0.887 -0.7819 -2.4188 -0.5012
14500SOL    HW255974   2.345   4.388   0.934 -1.4050 -0.2030  0.0493
14501SOL     OW55975   0.445   1.835   4.890 -0.3656  0.0690  0.0787
14501SOL    HW155976   0.414   1.816   4.983  0.5589  1.2537  0.6461
14501SOL    HW255977   0.382   1.794   4.824 -3.1263  2.3667  1.1801
14502SOL     OW55978   6.363   4.426   4.198 -0.3380  0.0747 -0.0824
14502SOL    HW155979   6.333   4.338   4.235  2.3425  0.0364  2.1407
14502SOL    HW255980   6.424   4.411   4.120 -2.2177  0.0728 -1.5964
14503SOL     OW55981   6.353   4.931   6.174  0.2601 -0.3260 -0.1952
14503SOL    HW155982   6.315   4.973   6.257  1.0866  0.5130 -0.2313
14503SOL    HW255983   6.371   4.835   6.190 -0.1303 -0.3020  0.4129
14504SOL     OW55984   2.171   4.297   5.422  0.3326 -0.1656 -0.0993
14504SOL    HW155985   2.113   4.362   5.471  2.2053  1.6545 -0.2902
14504SOL    HW255986   2.113   4.240   5.363 -1.4501  0.4901  0.9593
14505SOL     OW55987   4.790   7.660   2.441  0.2974 -0.1728 -0.6719
14505SOL    HW155988   4.772   7.746   2.393  1.5465  0.4931  0.0173
14505SOL    HW255989   4.729   7.589   2.407  0.3682  0.5823 -2.4253
14506SOL     OW55990   3.629   2.475   2.128  0.7149  0.1375  0.2177
14506SOL    HW155991   3.551   2.447   2.184  0.2945 -0.2892 -0.5642
14506SOL    HW255992   3.639   2.574   2.131 -0.4383  0.2768 -0.4364
14507SOL     OW55993   5.630   5.744   2.083  0.7567 -0.4754 -0.4188
14507SOL    HW155994   5.640   5.694   2.170 -0.9074 -0.3247 -0.1303
14507SOL    HW255995   5.719   5.747   2.037  1.5270 -1.1233  0.9669
14508SOL     OW55996   7.992   3.533   1.506 -0.4513 -0.2189 -0.1835
14508SOL    HW155997   7.915   3.538   1.443 -0.8023  0.1781  0.2836
14508SOL    HW255998   8.033   3.442   1.501 -0.6409 -0.2710 -0.7954
14509SOL     OW55999   4.948   1.496   0.093  0.3764  0.4943  0.1381
14509SOL    HW156000   4.901   1.560   0.032  1.4107 -0.0802 -1.2801
14509SOL    HW256001   5.042   1.526   0.108  0.9669 -0.8404 -0.7929
14510SOL     OW56002   6.119   5.583   6.405 -0.1089 -0.1570 -0.1563
14510SOL    HW156003   6.140   5.519   6.479 -0.5558  0.9265  0.9378
14510SOL    HW256004   6.084   5.533   6.326 -0.1245 -1.2879  0.5516
14511SOL     OW56005   4.355   3.368   2.687  0.1629  0.2225 -0.5741
14511SOL    HW156006   4.319   3.451   2.645  1.1687  0.2303 -1.4182
14511SOL    HW256007   4.397   3.310   2.618  0.5791 -0.4179  0.1984
14512SOL     OW56008   2.368   0.208   7.084  0.3447  0.2186 -0.5063
14512SOL    HW156009   2.434   0.262   7.031  2.5401 -0.5044  1.3969
14512SOL    HW256010   2.310   0.269   7.137  0.1203  0.8433 -1.4727
14513SOL     OW56011   8.568   4.667   2.750 -0.5660  0.3843 -0.5239
14513SOL    HW156012   8.551   4.588   2.809 -0.8538 -0.5701 -1.8769
14513SOL    HW256013   8.660   4.702   2.766 -0.3963 -0.2970 -0.0105
14514SOL     OW56014   2.198   3.148   3.771 -0.2986 -0.3543  0.6087
14514SOL    HW156015   2.231   3.105   3.687  0.2484 -1.0593  1.1793
14514SOL    HW256016   2.167   3.078   3.835 -0.6836  0.1794  1.0185
14515SOL     OW56017   2.097   6.259   6.260  0.5836 -0.3989 -0.2591
14515SOL    HW156018   2.123   6.202   6.338 -0.5579 -0.2001  0.2744
14515SOL    HW256019   1.998   6.276   6.262  0.4052 -1.1142 -2.2469
14516SOL     OW56020   8.820   2.907   7.626 -0.0390 -0.7915  0.3529
14516SOL    HW156021   8.766   2.901   7.542  0.5875  0.4830 -0.1534
14516SOL    HW256022   8.862   2.997   7.632 -0.0113 -0.8942  2.0068
14517SOL     OW56023   2.399   3.649   2.738 -0.1545 -0.1848  0.3235
14517SOL    HW156024   2.403   3.738   2.783 -0.2595 -0.6717  1.3228
14517SOL    HW256025   2.491   3.621   2.711 -0.0620  0.0112  0.4331
14518SOL     OW56026   7.509   5.453   0.580  0.2347  0.5794 -0.2869
14518SOL    HW156027   7.598   5.473   0.538 -0.2396  2.0148 -0.6518
14518SOL    HW256028   7.436   5.491   0.523 -0.5963 -0.3543  0.1509
14519SOL     OW56029   5.646   8.896   0.794 -0.1922 -0.8369 -0.3449
14519SOL    HW156030   5.590   8.935   0.721 -1.1747 -0.8500  0.3894
14519SOL    HW256031   5.589   8.882   0.875  1.0228 -0.2943  0.6078
14520SOL     OW56032   5.152   8.801   1.227  0.5205  0.1343  0.4190
14520SOL    HW156033   5.183   8.882   1.176 -2.3066  0.7144 -0.5009
14520SOL    HW256034   5.084   8.829   1.295  0.7193 -1.2802  1.2193
14521SOL     OW56035   3.460   6.127   5.877 -0.0699 -0.5456 -0.2100
14521SOL    HW156036   3.430   6.032   5.868  1.6785 -1.1119 -0.3033
14521SOL    HW256037   3.484   6.163   5.787  0.6744 -0.4924  0.0093
14522SOL     OW56038   2.853   0.682   2.062  0.0158 -0.3695  0.5262
14522SOL    HW156039   2.893   0.591   2.076  0.1650 -0.2592  0.8055
14522SOL    HW256040   2.798   0.681   1.978  2.7227  0.1716 -1.3151
14523SOL     OW56041   4.317   4.124   7.844 -0.5768  0.4186 -0.4164
14523SOL    HW156042   4.303   4.174   7.929 -0.0810 -2.2126  1.2908
14523SOL    HW256043   4.409   4.142   7.809 -1.1129  2.2455 -0.9431
14524SOL     OW56044   3.498   2.315   7.739 -0.7253 -0.1824 -0.2149
14524SOL    HW156045   3.484   2.402   7.785 -1.1381  0.3261 -1.2862
14524SOL    HW256046   3.554   2.329   7.657  1.0435 -1.2642  0.7673
14525SOL     OW56047   2.295   4.912   3.093 -0.2410  0.2541  0.1186
14525SOL    HW156048   2.226   4.912   3.020  0.6260  0.4937 -0.6996
14525SOL    HW256049   2.383   4.884   3.056 -0.1099 -0.9994  1.3765
14526SOL     OW56050   2.866   3.861   3.273  0.0303  0.0154 -0.3994
14526SOL    HW156051   2.800   3.787   3.262 -2.3152  2.3209 -2.5268
14526SOL    HW256052   2.941   3.850   3.207 -0.2135 -0.5423 -0.5825
14527SOL     OW56053   7.236   7.984   8.512 -0.0273 -0.0646  0.0950
14527SOL    HW156054   7.317   7.981   8.453  0.4928  0.6027  0.7666
14527SOL    HW256055   7.227   7.898   8.561  0.7735  0.1846  0.6802
14528SOL     OW56056   8.650   2.543   0.538 -0.3206 -0.4567  0.5885
14528SOL    HW156057   8.556   2.565   0.562 -0.5165 -0.2822 -0.3284
14528SOL    HW256058   8.696   2.502   0.617 -1.4962 -1.6014  0.6795
14529SOL     OW56059   3.957   2.551   1.054  0.0107  0.4756  0.3341
14529SOL    HW156060   3.921   2.466   1.014 -0.5353 -0.5563  2.9115
14529SOL    HW256061   3.889   2.623   1.048 -0.4310  0.0541  0.2817
14530SOL     OW56062   4.928   8.795   5.425  0.5231  0.3023  0.1781
14530SOL    HW156063   4.953   8.874   5.368 -0.6535  0.2870 -0.3640
14530SOL    HW256064   4.896   8.828   5.514  1.6811  0.3559  0.5844
14531SOL     OW56065   6.359   5.122   5.237 -0.8855 -0.1007 -0.3704
14531SOL    HW156066   6.356   5.092   5.333 -0.0630  0.6519 -0.0940
14531SOL    HW256067   6.448   5.096   5.198 -0.6159  0.9433 -0.4612
14532SOL     OW56068   1.319   1.901   0.667  0.0334 -0.0048 -0.2447
14532SOL    HW156069   1.293   1.952   0.749 -0.3144 -0.8369  0.1756
14532SOL    HW256070   1.397   1.946   0.623 -0.9015  1.4425 -0.4550
14533SOL     OW56071   3.778   1.318   1.548  0.3693 -0.1876  0.3181
14533SOL    HW156072   3.791   1.219   1.548 -0.2405 -0.2754 -0.5633
14533SOL    HW256073   3.845   1.361   1.487  0.9874  0.0005  1.1166
14534SOL     OW56074   4.951   6.735   7.009  0.5071  0.0675 -0.2448
14534SOL    HW156075   5.016   6.758   7.081 -0.2996  1.6475 -0.0066
14534SOL    HW256076   4.983   6.772   6.922 -0.6637  1.9231  0.0924
14535SOL     OW56077   6.805   6.174   4.835  0.3197  0.1651 -0.3427
14535SOL    HW156078   6.797   6.263   4.880  1.1132 -0.2372  0.5924
14535SOL    HW256079   6.745   6.173   4.754  1.1164  1.9320 -1.0002
14536SOL     OW56080   1.773   7.012   4.110  0.1139 -0.0208  0.0137
14536SOL    HW156081   1.684   7.057   4.113  0.3423  0.4022  0.3994
14536SOL    HW256082   1.776   6.938   4.178  0.0161 -0.1110 -0.0801
14537SOL     OW56083   2.859   1.154   0.218  0.5725 -0.4936 -0.1251
14537SOL    HW156084   2.785   1.192   0.272  2.6695  1.8717  1.1618
14537SOL    HW256085   2.891   1.068   0.260 -0.4217 -0.7288  0.1506
14538SOL     OW56086   1.549   3.461   6.078 -0.6615 -0.5054  0.0734
14538SOL    HW156087   1.516   3.399   6.150  1.1030 -1.4509  0.0942
14538SOL    HW256088   1.470   3.504   6.033 -1.8724 -1.7072  0.9743
14539SOL     OW56089   7.777   0.537   1.599 -0.5453 -0.4277  0.5029
14539SOL    HW156090   7.825   0.582   1.675 -3.5638  1.5619  1.3026
14539SOL    HW256091   7.770   0.439   1.619  2.7513 -0.7248  0.5458
14540SOL     OW56092   0.122   4.044   4.949  0.2949 -0.1124  0.2154
14540SOL    HW156093   0.125   4.004   4.857  0.7050  0.9394 -0.2430
14540SOL    HW256094   0.030   4.036   4.986  0.5874 -2.3000  0.5076
14541SOL     OW56095   7.335   3.007   6.136 -0.3189 -0.0765  0.2146
14541SOL    HW156096   7.332   3.102   6.168 -2.2512 -0.4359  1.2245
14541SOL    HW256097   7.254   2.989   6.080  0.9091 -0.6596 -1.3633
14542SOL     OW56098   8.417   4.576   4.331 -0.3335 -0.0495  0.2914
14542SOL    HW156099   8.395   4.479   4.320 -0.2971 -0.1472  1.0955
14542SOL    HW256100   8.500   4.597   4.280  1.0124 -0.9725  2.0850
14543SOL     OW56101   0.008   7.778   1.152 -0.5173 -0.0277 -0.5589
14543SOL    HW156102   0.006   7.875   1.174 -0.1694 -0.2514  0.4653
14543SOL    HW256103  -0.035   7.763   1.062 -2.3419  0.8352  0.1418
14544SOL     OW56104   7.576   2.311   1.591 -0.0948  0.6907  0.2588
14544SOL    HW156105   7.486   2.353   1.588 -0.0053  0.8079 -0.9162
14544SOL    HW256106   7.645   2.382   1.607 -0.0493  0.8515 -0.6179
14545SOL     OW56107   4.388   0.242   3.296  0.1310  0.1746  0.0864
14545SOL    HW156108   4.371   0.288   3.382  0.1863  2.5567 -1.1406
14545SOL    HW256109   4.485   0.251   3.271  0.2238 -0.9321  0.0031
14546SOL     OW56110   8.871   2.550   0.131 -0.0180  0.1887 -0.3230
14546SOL    HW156111   8.953   2.570   0.185  0.0387  1.2531 -0.7713
14546SOL    HW256112   8.791   2.585   0.179 -0.3319 -1.7408  0.5881
14547SOL     OW56113   4.274   6.070   0.749 -0.1831  0.2724  0.1627
14547SOL    HW156114   4.368   6.039   0.765  1.1250  1.8008 -3.8663
14547SOL    HW256115   4.259   6.158   0.793  1.4672  1.6855 -1.9908
14548SOL     OW56116   8.009   1.349   7.201 -0.2617  0.0156  0.3392
14548SOL    HW156117   7.992   1.373   7.297 -1.7936  0.7644 -0.1068
14548SOL    HW256118   8.071   1.416   7.161  1.1965 -0.8674  1.0692
14549SOL     OW56119   3.491   2.128   1.928  0.0820  0.0544 -0.2472
14549SOL    HW156120   3.428   2.066   1.975  1.1339 -0.7336  0.1609
14549SOL    HW256121   3.571   2.143   1.986  0.6420  0.3829 -1.1040
14550SOL     OW56122   6.157   6.888   6.460  0.5304 -0.0200  0.2076
14550SOL    HW156123   6.239   6.933   6.423  0.7064 -0.6019 -0.1214
14550SOL    HW256124   6.153   6.902   6.559 -0.2799  2.0913 -0.1119
14551SOL     OW56125   7.941   8.705   1.116 -0.2180  0.3050 -0.2320
14551SOL    HW156126   8.010   8.736   1.051 -1.1223 -0.1107 -1.3986
14551SOL    HW256127   7.956   8.749   1.204  0.4806  1.5416 -0.9636
14552SOL     OW56128   1.365   8.024   6.314 -0.1578 -0.3250 -0.2254
14552SOL    HW156129   1.404   7.969   6.388  0.4965 -0.5637 -0.7408
14552SOL    HW256130   1.391   8.120   6.325 -0.1480 -0.3449 -0.0902
14553SOL     OW56131   5.953   1.384   2.292 -0.3017 -0.0106  0.1306
14553SOL    HW156132   5.972   1.323   2.214 -0.2971 -1.6424  1.3934
14553SOL    HW256133   6.022   1.370   2.363 -1.2665  0.2567  1.1343
14554SOL     OW56134   2.097   0.624   3.676  0.4286 -0.5465  0.1339
14554SOL    HW156135   2.082   0.663   3.767 -1.5918 -0.1673 -0.3355
14554SOL    HW256136   2.174   0.670   3.633 -1.5561  2.6281 -0.1782
14555SOL     OW56137   7.123   4.183   6.684  0.4238  0.5733  0.8029
14555SOL    HW156138   7.055   4.256   6.686  1.4322  1.6013 -1.1388
14555SOL    HW256139   7.152   4.161   6.777 -1.1380  1.4571  1.5075
14556SOL     OW56140   4.724   2.636   0.650 -0.0671 -0.1462  0.4741
14556SOL    HW156141   4.670   2.630   0.733  0.5084 -0.5250  0.8288
14556SOL    HW256142   4.671   2.681   0.578 -1.7126 -2.6436  0.0845
14557SOL     OW56143   0.851   5.160   1.119 -0.5246 -0.2859 -0.5393
14557SOL    HW156144   0.777   5.225   1.138  0.0609 -0.1592  1.3711
14557SOL    HW256145   0.939   5.207   1.123 -0.1850 -0.9151 -0.5193
14558SOL     OW56146   2.546   1.261   2.085  0.4556 -0.6586  0.4681
14558SOL    HW156147   2.510   1.170   2.105  0.6730 -0.6022  1.1091
14558SOL    HW256148   2.568   1.266   1.987 -0.5222 -0.9488  0.2278
14559SOL     OW56149   0.530   8.901   1.332 -0.3081 -0.0160  0.1560
14559SOL    HW156150   0.432   8.893   1.349 -0.3813  0.7010  0.0682
14559SOL    HW256151   0.545   8.927   1.236 -0.0224 -0.4475  0.0835
14560SOL     OW56152   4.343   7.279   4.470  0.5587  0.2654  0.1251
14560SOL    HW156153   4.351   7.275   4.370 -1.3726  0.8512 -0.0718
14560SOL    HW256154   4.429   7.249   4.511  0.7856 -1.7067 -1.6917
14561SOL     OW56155   2.631   1.204   1.561  0.1355 -0.0389 -0.4308
14561SOL    HW156156   2.637   1.107   1.537  0.8013  0.1346 -0.9683
14561SOL    HW256157   2.719   1.248   1.545 -0.1553  0.6518 -0.1519
14562SOL     OW56158   2.842   6.443   1.019  0.8473 -0.5658  0.1308
14562SOL    HW156159   2.912   6.428   1.089  1.3556  0.0664 -0.2385
14562SOL    HW256160   2.853   6.375   0.947 -0.4288 -1.9747  1.2396
14563SOL     OW56161   6.157   4.471   0.610  0.0497  0.6617  0.2117
14563SOL    HW156162   6.090   4.412   0.654 -0.3674  0.7904 -0.2391
14563SOL    HW256163   6.141   4.470   0.511  0.3771  1.1078  0.1555
14564SOL     OW56164   4.057   2.716   8.588 -0.0537 -0.2624 -0.1066
14564SOL    HW156165   4.081   2.767   8.671 -1.4795  1.4766 -0.7412
14564SOL    HW256166   4.058   2.618   8.609 -2.6094  0.2188  2.6003
14565SOL     OW56167   3.893   2.279   8.877 -0.2737  0.1557 -0.0263
14565SOL    HW156168   3.934   2.293   8.967  3.3328  0.2987 -1.6369
14565SOL    HW256169   3.835   2.357   8.854  2.6984  2.5052  0.1238
14566SOL     OW56170   2.967   4.667   2.571 -0.2756 -0.5012 -0.3193
14566SOL    HW156171   3.019   4.685   2.654 -0.3242  2.0541 -0.8129
14566SOL    HW256172   3.028   4.676   2.491  0.2999 -5.0403 -0.5133
14567SOL     OW56173   8.620   1.204   0.545  0.2856 -0.4079  0.1998
14567SOL    HW156174   8.697   1.140   0.543  0.6290 -0.0687  1.6281
14567SOL    HW256175   8.538   1.158   0.511  0.9804 -0.9575 -0.7586
14568SOL     OW56176   4.719   7.433   8.621 -0.0570 -0.2475 -0.0772
14568SOL    HW156177   4.744   7.341   8.651  2.1987  0.6029  0.7901
14568SOL    HW256178   4.759   7.500   8.684 -2.3524  1.3244 -0.2213
14569SOL     OW56179   8.961   4.653   8.757  0.3969 -0.6310  1.1067
14569SOL    HW156180   8.917   4.736   8.791 -1.3225 -0.5774 -1.1643
14569SOL    HW256181   9.059   4.669   8.747  0.7387 -0.1684  4.4328
14570SOL     OW56182   5.392   8.766   8.393 -0.3048 -0.2081 -0.2830
14570SOL    HW156183   5.380   8.851   8.341  0.1032  0.2121  0.2908
14570SOL    HW256184   5.315   8.755   8.456 -0.3116 -0.2110 -0.2918
14571SOL     OW56185   4.437   6.102   1.111  0.3602  0.3463 -0.2115
14571SOL    HW156186   4.341   6.122   1.131  0.8425  0.6010  2.0455
14571SOL    HW256187   4.444   6.046   1.028 -1.6956  0.7571 -0.6690
14572SOL     OW56188   6.081   1.484   1.690  0.7714 -0.1020  0.4863
14572SOL    HW156189   6.126   1.422   1.626 -0.1718 -1.8099  1.4176
14572SOL    HW256190   6.019   1.544   1.641 -0.0544 -1.4920 -0.2128
14573SOL     OW56191   4.959   8.808   6.645  0.0011  0.3102 -0.2111
14573SOL    HW156192   4.886   8.763   6.696  0.0838  0.2625 -0.1335
14573SOL    HW256193   4.935   8.811   6.548  0.2361 -0.3816 -0.2949
14574SOL     OW56194   1.780   2.189   7.114  0.3855  0.6697 -0.4896
14574SOL    HW156195   1.691   2.144   7.105 -0.3095  2.0113 -0.4314
14574SOL    HW256196   1.817   2.210   7.024  2.4564 -3.3068 -0.6842
14575SOL     OW56197   0.175   6.519   7.173  0.3453 -0.1507  0.2478
14575SOL    HW156198   0.112   6.518   7.096 -0.9945  2.0504  1.2501
14575SOL    HW256199   0.231   6.437   7.172 -0.7712 -0.9190 -2.1318
14576SOL     OW56200   5.423   7.247   7.533  0.6805  0.3575 -0.2665
14576SOL    HW156201   5.451   7.217   7.442  2.9357  1.5736 -0.0162
14576SOL    HW256202   5.379   7.337   7.526  0.9673  0.5073 -0.1499
14577SOL     OW56203   6.678   1.107   0.194 -0.3990  1.0128  0.1043
14577SOL    HW156204   6.718   1.195   0.220  0.0010  0.2896  1.9539
14577SOL    HW256205   6.741   1.033   0.217  0.3958  0.3560 -3.7596
14578SOL     OW56206   3.828   7.584   8.075 -0.0054  0.5243 -0.0069
14578SOL    HW156207   3.848   7.495   8.117  0.0335  1.5747  2.2458
14578SOL    HW256208   3.798   7.569   7.980  2.6982 -1.6855 -0.5931
14579SOL     OW56209   0.259   1.985   1.548 -0.2589  0.0239  0.1723
14579SOL    HW156210   0.254   1.961   1.451 -0.7737  0.9803 -0.0505
14579SOL    HW256211   0.191   2.056   1.568 -0.2016 -0.2146  1.2479
14580SOL     OW56212   8.366   4.675   0.994  0.1227 -0.1170  0.5959
14580SOL    HW156213   8.373   4.735   0.914 -0.0531  1.7187  1.9268
14580SOL    HW256214   8.271   4.649   1.008 -0.0578  0.7602  1.0504
14581SOL     OW56215   7.602   4.169   3.911  0.1217 -0.3551 -0.1620
14581SOL    HW156216   7.687   4.132   3.874 -0.7113 -0.7779 -1.7019
14581SOL    HW256217   7.623   4.245   3.973  1.6336 -0.8192 -0.0745
14582SOL     OW56218   1.025   2.761   6.261  0.1214  0.0697  0.4911
14582SOL    HW156219   1.012   2.663   6.276  1.5881 -0.0593  1.0564
14582SOL    HW256220   1.055   2.804   6.347 -1.6707  1.2381  0.5629
14583SOL     OW56221   3.580   3.309   8.443 -0.2619  0.0852 -0.1885
14583SOL    HW156222   3.549   3.253   8.366  0.1915 -0.2089 -0.1605
14583SOL    HW256223   3.614   3.249   8.516 -2.0558  0.2930  0.8424
14584SOL     OW56224   5.614   3.429   6.165  0.0286 -0.2249 -0.4019
14584SOL    HW156225   5.593   3.334   6.189 -0.2408 -0.6864 -2.3660
14584SOL    HW256226   5.687   3.431   6.097 -0.4278  0.9233 -0.8824
14585SOL     OW56227   0.058   4.978   7.882 -0.0063  0.1978 -0.2717
14585SOL    HW156228   0.136   5.023   7.925 -1.4628  3.7049 -1.1143
14585SOL    HW256229  -0.018   4.975   7.945 -0.1432 -0.5285 -0.4609
14586SOL     OW56230   0.902   4.634   1.838 -0.4054  0.9519  0.3636
14586SOL    HW156231   0.983   4.686   1.809 -1.0239  2.0847  0.6327
14586SOL    HW256232   0.849   4.607   1.758 -0.4316  1.3130  0.2594
14587SOL     OW56233   4.227   2.941   1.041 -0.4254  0.3097 -0.5126
14587SOL    HW156234   4.202   3.017   1.101 -1.5009 -0.8818  0.5590
14587SOL    HW256235   4.316   2.960   1.000  0.9866  0.5633  2.4924
14588SOL     OW56236   5.211   5.489   5.066  0.3649  0.5305 -0.2743
14588SOL    HW156237   5.263   5.428   5.127 -1.7102 -1.1525 -0.0963
14588SOL    HW256238   5.201   5.445   4.977 -1.0777  0.6329 -0.1681
14589SOL     OW56239   0.885   8.510   8.751 -0.4969  0.2089 -0.2352
14589SOL    HW156240   0.892   8.561   8.666  1.4242  1.3212  0.5607
14589SOL    HW256241   0.795   8.527   8.793  0.5044  3.9613  0.5993
14590SOL     OW56242   2.286   0.210   5.993  0.5023  0.0252  0.6610
14590SOL    HW156243   2.252   0.153   6.068  1.2605  0.8684  1.6571
14590SOL    HW256244   2.208   0.242   5.939 -0.1224  0.0763  1.5686
14591SOL     OW56245   3.916   7.551   1.234 -0.1769 -0.6197 -0.4448
14591SOL    HW156246   3.982   7.479   1.214  0.0791 -0.6806  0.5733
14591SOL    HW256247   3.945   7.636   1.189  0.7028 -0.6010  0.1420
14592SOL     OW56248   4.967   3.272   2.836  0.6116 -0.0056  0.2653
14592SOL    HW156249   5.053   3.322   2.824 -0.2220  1.4523  0.2527
14592SOL    HW256250   4.917   3.270   2.749 -0.4610  1.2542  0.8211
14593SOL     OW56251   1.139   5.755   1.856  0.2585  0.3162  0.0054
14593SOL    HW156252   1.096   5.731   1.943  0.9405 -1.4574 -0.1201
14593SOL    HW256253   1.219   5.697   1.841  1.9059  2.6261 -0.4215
14594SOL     OW56254   6.807   6.258   3.966 -0.4112 -0.3119  0.0581
14594SOL    HW156255   6.828   6.300   3.879 -0.9714  0.2083  0.1686
14594SOL    HW256256   6.848   6.167   3.971  1.3541  0.4839  0.0907
14595SOL     OW56257   2.111   6.070   4.789 -0.0701 -0.4420 -0.3580
14595SOL    HW156258   2.014   6.054   4.808  0.1344  0.1949  1.2729
14595SOL    HW256259   2.149   6.131   4.858  1.3525 -0.1980 -1.3430
14596SOL     OW56260   4.266   4.093   1.526 -0.0346 -0.0749 -0.5392
14596SOL    HW156261   4.277   4.164   1.456  0.3995 -0.2591 -0.6565
14596SOL    HW256262   4.354   4.052   1.546 -0.0379  0.5242  0.6986
14597SOL     OW56263   1.228   5.504   5.439 -0.1362 -0.7262 -0.1349
14597SOL    HW156264   1.239   5.527   5.536 -0.1453  1.5167 -0.6346
14597SOL    HW256265   1.149   5.443   5.428 -0.7201 -0.2343  1.1533
14598SOL     OW56266   0.704   7.766   7.048 -0.3498 -0.2884 -0.1914
14598SOL    HW156267   0.757   7.731   7.125 -0.8901  1.4074  0.9876
14598SOL    HW256268   0.715   7.866   7.043 -0.0377 -0.4096 -2.5401
14599SOL     OW56269   4.442   7.731   7.216 -0.1877  0.1922 -0.3736
14599SOL    HW156270   4.540   7.733   7.198 -0.6057  2.9366 -2.6222
14599SOL    HW256271   4.420   7.798   7.288 -0.5334  0.1934 -0.4806
14600SOL     OW56272   2.793   3.044   3.570  0.4265  0.6310  0.1399
14600SOL    HW156273   2.860   3.080   3.506  2.1276 -1.4628  0.6730
14600SOL    HW256274   2.796   2.944   3.568 -1.0043  0.5323  1.9016
14601SOL     OW56275   3.353   3.558   3.334  0.6134 -0.3707 -0.1259
14601SOL    HW156276   3.324   3.651   3.353 -1.8510 -0.7541 -1.8276
14601SOL    HW256277   3.409   3.524   3.410  1.9322  2.6121  0.3132
14602SOL     OW56278   2.963   4.436   3.880 -0.2099  0.6320  0.7708
14602SOL    HW156279   2.989   4.517   3.932  2.2651  0.4753 -0.1441
14602SOL    HW256280   2.917   4.371   3.941  1.5406  0.9729  2.5150
14603SOL     OW56281   1.964   8.141   3.300  0.4427  0.0191 -0.1438
14603SOL    HW156282   2.005   8.223   3.261 -1.0245  0.5613 -0.5797
14603SOL    HW256283   2.007   8.060   3.261  0.0311  0.5721 -1.7473
14604SOL     OW56284   4.993   6.955   2.535 -0.3521  0.0859  0.1774
14604SOL    HW156285   5.064   6.903   2.583  0.9265  3.1493  1.7415
14604SOL    HW256286   4.903   6.930   2.571  0.2891 -0.6697  1.2566
14605SOL     OW56287   6.922   7.269   4.843  0.7138 -0.1417 -0.9304
14605SOL    HW156288   6.849   7.204   4.864  1.1173 -0.1047  0.6616
14605SOL    HW256289   6.883   7.358   4.820  0.2587  0.2017  1.0491
14606SOL     OW56290   8.439   2.664   8.200 -0.5380  0.4694 -0.0547
14606SOL    HW156291   8.468   2.717   8.121 -0.3125  0.8106  0.2510
14606SOL    HW256292   8.349   2.696   8.230 -0.1598  1.0604  0.4647
14607SOL     OW56293   0.627   2.786   3.144  0.2356 -0.2491 -0.1674
14607SOL    HW156294   0.665   2.721   3.079 -0.3045 -1.4087  0.6625
14607SOL    HW256295   0.542   2.824   3.108  0.8928  0.5030 -0.9440
14608SOL     OW56296   1.408   8.231   8.589  0.0836  0.1738 -1.0057
14608SOL    HW156297   1.311   8.255   8.581 -0.3405 -0.5996  1.4820
14608SOL    HW256298   1.461   8.314   8.611 -0.2540  0.2722 -0.5667
14609SOL     OW56299   5.547   2.384   1.384 -0.3793 -0.0355 -0.1472
14609SOL    HW156300   5.619   2.441   1.345 -0.7449 -0.5483 -1.6169
14609SOL    HW256301   5.458   2.427   1.370 -0.5331 -0.3242 -0.0714
14610SOL     OW56302   2.762   3.012   8.269 -0.8245 -0.7863  0.7187
14610SOL    HW156303   2.821   3.029   8.190 -3.4937 -3.1391 -1.9219
14610SOL    HW256304   2.704   3.092   8.285 -0.8894 -0.6318 -0.2739
14611SOL     OW56305   2.552   8.714   5.485  0.2019 -0.9014 -0.5225
14611SOL    HW156306   2.508   8.625   5.502 -0.8051 -0.7031 -2.0570
14611SOL    HW256307   2.647   8.710   5.518  0.0743 -2.4307 -0.2663
14612SOL     OW56308   1.396   6.231   3.609  0.0209 -0.2540  0.4552
14612SOL    HW156309   1.302   6.197   3.619 -0.2694  0.8648  1.6478
14612SOL    HW256310   1.449   6.206   3.689  0.5201 -0.1475  0.1608
14613SOL     OW56311   2.856   6.800   6.822  0.1009  0.8076  0.2918
14613SOL    HW156312   2.901   6.845   6.899  0.5784  0.3920  0.2616
14613SOL    HW256313   2.924   6.748   6.770 -0.2945  0.7437 -0.1636
14614SOL     OW56314   0.681   4.353   5.999 -0.1485 -0.5053  0.6385
14614SOL    HW156315   0.650   4.434   5.949  0.8203  0.0076  0.8394
14614SOL    HW256316   0.682   4.274   5.939  2.8467  0.4925 -0.7235
14615SOL     OW56317   5.109   8.511   0.903 -0.9869 -0.0720  0.4417
14615SOL    HW156318   5.082   8.503   0.998 -0.0402 -0.6614  0.6686
14615SOL    HW256319   5.117   8.420   0.862 -0.2401  0.1243  0.1349
14616SOL     OW56320   6.302   8.140   8.737 -0.0541 -0.2010  0.2401
14616SOL    HW156321   6.241   8.074   8.692  2.0501 -1.9000 -0.1839
14616SOL    HW256322   6.311   8.221   8.679 -1.7710  0.0169  0.2402
14617SOL     OW56323   8.624   8.074   0.603 -0.2948 -0.5340  0.0371
14617SOL    HW156324   8.633   7.976   0.586  1.6749 -0.5521  1.0412
14617SOL    HW256325   8.714   8.114   0.617 -1.1038  1.3777 -0.0577
14618SOL     OW56326   6.077   5.492   4.990 -0.3349  0.9408  0.2472
14618SOL    HW156327   6.105   5.397   4.994 -0.1204  0.9951  0.0688
14618SOL    HW256328   6.061   5.518   4.894 -0.6501  1.0099  0.3173
14619SOL     OW56329   0.653   1.937   6.912 -0.3458 -0.3646 -0.2401
14619SOL    HW156330   0.632   1.955   7.008 -1.0334 -1.1505 -0.2381
14619SOL    HW256331   0.740   1.887   6.906  1.2489  2.3413 -0.2156
14620SOL     OW56332   1.626   7.965   6.927  0.3020  0.4858 -0.5243
14620SOL    HW156333   1.599   7.874   6.958 -1.9187  1.3593  0.2035
14620SOL    HW256334   1.710   7.992   6.973 -0.5970 -0.0246  1.5074
14621SOL     OW56335   5.219   5.856   0.107 -0.3279 -0.1715  0.3712
14621SOL    HW156336   5.208   5.829   0.012  0.2830  1.8204 -0.3000
14621SOL    HW256337   5.216   5.776   0.166 -0.9483 -1.3966 -1.3035
14622SOL     OW56338   1.361   1.186   5.800 -0.0916  0.3013  0.1981
14622SOL    HW156339   1.414   1.119   5.748 -0.2723  0.9914 -0.8864
14622SOL    HW256340   1.335   1.147   5.888  0.1409 -0.9096 -0.2623
14623SOL     OW56341   0.100   5.438   6.938  0.0130 -0.0231 -0.4542
14623SOL    HW156342   0.069   5.465   7.029 -1.4285 -0.3481 -0.8357
14623SOL    HW256343   0.200   5.439   6.935  0.0523  1.4788  0.6829
14624SOL     OW56344   5.306   1.745   7.869 -0.3392  0.7439  0.0669
14624SOL    HW156345   5.388   1.705   7.911  0.2764  1.6622 -0.2516
14624SOL    HW256346   5.249   1.672   7.832  0.7475  0.1365 -0.4442
14625SOL     OW56347   1.733   1.170   2.201 -0.7510 -0.7264  0.6642
14625SOL    HW156348   1.638   1.179   2.229 -0.7336 -0.6459  0.6981
14625SOL    HW256349   1.740   1.185   2.102 -0.8751 -1.4455  0.5421
14626SOL     OW56350   5.244   3.083   2.496 -0.8952  0.1765 -0.4862
14626SOL    HW156351   5.341   3.091   2.518 -1.1989  1.0000  0.6556
14626SOL    HW256352   5.205   3.004   2.544 -0.9601  0.3416 -0.2634
14627SOL     OW56353   5.049   3.369   8.305  0.9214  0.2810  0.0405
14627SOL    HW156354   5.143   3.337   8.312  0.6614 -0.2334  1.1743
14627SOL    HW256355   5.047   3.454   8.251  1.7141 -1.0702 -2.2121
14628SOL     OW56356   4.627   5.222   4.903 -0.6026  0.0558  0.2157
14628SOL    HW156357   4.723   5.196   4.913 -0.2508  1.0830 -0.3974
14628SOL    HW256358   4.590   5.183   4.819 -0.5255  0.2420  0.0965
14629SOL     OW56359   0.165   1.792   7.733  0.2581  0.0036 -0.2771
14629SOL    HW156360   0.089   1.846   7.769  1.5589  0.9551  1.1134
14629SOL    HW256361   0.173   1.808   7.635 -1.2585 -0.0117 -0.4173
14630SOL     OW56362   6.746   4.778   5.713  0.7579 -0.8581  0.4997
14630SOL    HW156363   6.845   4.762   5.717  0.6998 -1.4669 -0.3508
14630SOL    HW256364   6.724   4.833   5.633  0.3089 -1.5827  0.1153
14631SOL     OW56365   2.607   0.486   0.540 -0.2457  0.1685  0.8576
14631SOL    HW156366   2.586   0.418   0.470  1.2633  0.2790  0.2953
14631SOL    HW256367   2.623   0.575   0.497 -1.4820  0.7363  1.5327
14632SOL     OW56368   0.841   4.424   2.358 -0.0151  0.7552  0.3491
14632SOL    HW156369   0.768   4.410   2.291 -0.0896 -3.0823  1.1500
14632SOL    HW256370   0.801   4.438   2.449  0.2205  1.1488  0.3980
14633SOL     OW56371   3.644   7.428   0.288  0.1884 -0.3143 -0.1121
14633SOL    HW156372   3.560   7.430   0.342 -0.6892 -0.9218 -1.4321
14633SOL    HW256373   3.627   7.380   0.202  1.7755 -0.0494 -0.5859
14634SOL     OW56374   3.423   2.865   7.963 -0.5248  0.3987 -0.1922
14634SOL    HW156375   3.347   2.887   8.025  1.3277  0.1533  2.2119
14634SOL    HW256376   3.494   2.816   8.013  1.1403  0.4078 -2.4744
14635SOL     OW56377   1.810   3.351   7.517 -0.0090 -0.3170  0.0429
14635SOL    HW156378   1.884   3.363   7.583 -0.0519  0.6528 -0.0846
14635SOL    HW256379   1.837   3.283   7.448  0.7291 -0.0266  0.0422
14636SOL     OW56380   7.728   5.118   7.721 -0.2950 -0.6846  0.1787
14636SOL    HW156381   7.731   5.172   7.636 -0.7652 -1.0406 -0.0684
14636SOL    HW256382   7.792   5.042   7.714  0.6723  0.0726  0.6920
14637SOL     OW56383   8.898   3.636   8.545  0.1565  0.1967  0.6026
14637SOL    HW156384   8.958   3.566   8.508  0.6426  1.2879 -0.7032
14637SOL    HW256385   8.813   3.593   8.578  1.7566 -1.3914  2.7884
14638SOL     OW56386   5.666   1.893   2.729  0.3052  0.8121  0.3130
14638SOL    HW156387   5.740   1.959   2.714  0.4744  0.6438  0.4088
14638SOL    HW256388   5.631   1.904   2.822  1.1193 -0.0218  0.7255
14639SOL     OW56389   5.333   5.906   4.038  0.2675  0.2839 -0.2842
14639SOL    HW156390   5.291   5.822   4.072  0.7581  0.4931  0.8545
14639SOL    HW256391   5.432   5.899   4.042  0.3080  1.2369  0.6188
14640SOL     OW56392   4.804   3.429   5.601  0.1025 -0.2994  0.4121
14640SOL    HW156393   4.875   3.454   5.535 -0.0850 -1.0630 -0.0945
14640SOL    HW256394   4.714   3.439   5.558 -0.0045 -1.1201  0.4376
14641SOL     OW56395   3.612   0.571   7.890 -0.7764  0.2956  0.2810
14641SOL    HW156396   3.647   0.493   7.942 -0.4314  0.2705  0.0129
14641SOL    HW256397   3.688   0.630   7.864 -0.7983 -0.2854 -1.1704
14642SOL     OW56398   1.676   8.052   0.719  0.4751  0.8145  0.6085
14642SOL    HW156399   1.738   7.982   0.683  0.8269  1.1337  0.5902
14642SOL    HW256400   1.668   8.043   0.818 -0.4720 -0.0485  0.4611
14643SOL     OW56401   6.780   7.320   5.729 -0.1211 -0.1688  0.0770
14643SOL    HW156402   6.791   7.305   5.828  0.2687  1.7113  0.3246
14643SOL    HW256403   6.787   7.417   5.709  0.7697 -0.6312 -1.9444
14644SOL     OW56404   1.674   8.976   1.136  0.1403  0.2505 -0.6342
14644SOL    HW156405   1.610   8.902   1.116 -1.3520  0.4394  2.9921
14644SOL    HW256406   1.624   9.063   1.140  0.7555  0.5523  1.1516
14645SOL     OW56407   4.071   2.073   7.960 -1.0769  0.2991  0.2487
14645SOL    HW156408   4.051   2.139   8.032 -1.8394 -0.4700  0.7496
14645SOL    HW256409   4.158   2.027   7.980 -1.5576 -0.3067  0.9759
14646SOL     OW56410   5.019   2.144   8.749 -0.5342 -0.4381 -0.0603
14646SOL    HW156411   5.002   2.237   8.715 -0.1962 -0.5192 -0.4652
14646SOL    HW256412   5.085   2.147   8.824 -1.5512 -0.2222  0.8314
14647SOL     OW56413   8.363   1.966   2.261 -0.1775  0.4305  0.4316
14647SOL    HW156414   8.396   1.872   2.249 -1.1647  0.2208 -0.6800
14647SOL    HW256415   8.271   1.964   2.302  0.5406  0.9739  2.1300
14648SOL     OW56416   6.808   5.792   7.618  0.2454  0.2416 -0.3919
14648SOL    HW156417   6.889   5.801   7.560  0.4018 -0.0633 -0.2227
14648SOL    HW256418   6.756   5.877   7.616  1.0461  0.7553  0.1900
14649SOL     OW56419   2.831   8.670   5.533 -0.1064 -0.0845  0.7349
14649SOL    HW156420   2.867   8.756   5.496 -0.4355  0.3259  1.3436
14649SOL    HW256421   2.901   8.626   5.589  0.0722 -0.2262  0.3990
14650SOL     OW56422   0.661   4.452   6.500  0.6470 -0.0651  0.1136
14650SOL    HW156423   0.571   4.412   6.520  1.0880 -0.2500  1.7927
14650SOL    HW256424   0.649   4.547   6.471 -0.3466 -1.1177 -3.1131
14651SOL     OW56425   7.078   4.867   4.770 -0.4037  0.2825 -0.2430
14651SOL    HW156426   6.990   4.873   4.817 -1.4918  0.8232 -2.2735
14651SOL    HW256427   7.152   4.858   4.837 -1.8474  1.6083  1.5661
14652SOL     OW56428   4.503   1.033   8.625 -0.2122 -0.3563 -0.3438
14652SOL    HW156429   4.429   1.015   8.560 -0.3765  2.4265 -0.9813
14652SOL    HW256430   4.467   1.081   8.705  1.0189  2.0946 -1.1886
14653SOL     OW56431   4.531   0.995   3.363 -0.8114 -0.5019  0.0749
14653SOL    HW156432   4.577   1.014   3.450  0.7101 -2.8831 -0.1599
14653SOL    HW256433   4.474   0.913   3.374 -1.8215  0.0882 -0.7600
14654SOL     OW56434   0.981   6.863   6.062  0.3134  0.7066 -0.4882
14654SOL    HW156435   0.997   6.951   6.017  1.4790  1.4391  1.2755
14654SOL    HW256436   0.906   6.873   6.128  2.1782  1.1365  1.6386
14655SOL     OW56437   2.276   4.481   7.091  0.0487  0.4003  0.0145
14655SOL    HW156438   2.360   4.519   7.054 -0.5062 -0.1797 -1.9334
14655SOL    HW256439   2.291   4.386   7.118  0.0278  0.2892 -0.3576
14656SOL     OW56440   5.335   6.883   5.371  0.1752 -0.1605 -0.4567
14656SOL    HW156441   5.404   6.853   5.436 -0.5219 -0.1652  0.2898
14656SOL    HW256442   5.266   6.938   5.418  0.9155  1.8026 -1.6220
14657SOL     OW56443   1.374   7.774   5.906  0.0861 -0.1032  0.6019
14657SOL    HW156444   1.306   7.723   5.853  2.6438 -0.8798 -2.0420
14657SOL    HW256445   1.432   7.710   5.956  0.8791  0.4011  0.3281
14658SOL     OW56446   8.058   7.356   3.235 -0.4534 -0.1518  0.0620
14658SOL    HW156447   7.988   7.411   3.280 -3.0652 -2.0360 -1.5300
14658SOL    HW256448   8.100   7.409   3.161 -3.3061 -0.3727 -1.7976
14659SOL     OW56449   7.853   4.634   1.904 -0.1857 -0.2006  0.1759
14659SOL    HW156450   7.939   4.686   1.898 -0.7776  0.9288  1.2415
14659SOL    HW256451   7.866   4.556   1.966  1.0590 -2.0828 -2.3745
14660SOL     OW56452   2.333   6.937   4.549  0.2019 -0.7470  0.1599
14660SOL    HW156453   2.332   7.005   4.475  1.5929  0.7918  1.5037
14660SOL    HW256454   2.248   6.886   4.549 -0.8608  0.9786 -0.9084
14661SOL     OW56455   3.526   1.845   6.211  0.4214 -0.0572 -0.0612
14661SOL    HW156456   3.525   1.801   6.301 -0.9137  0.0429 -0.0190
14661SOL    HW256457   3.619   1.847   6.176  0.7162 -1.5958  0.5935
14662SOL     OW56458   2.950   3.314   5.525  0.2694  0.1994 -0.2751
14662SOL    HW156459   2.955   3.409   5.556  1.5354 -0.2886  1.0995
14662SOL    HW256460   2.911   3.257   5.597  0.3857 -0.4697 -0.7337
14663SOL     OW56461   1.932   4.783   7.878 -0.3563 -0.4424 -0.0255
14663SOL    HW156462   1.912   4.693   7.917 -0.1577 -0.3474  0.3013
14663SOL    HW256463   2.027   4.808   7.900 -0.3943 -0.1766 -0.1611
14664SOL     OW56464   6.553   8.049   8.517 -0.7456  0.7870 -0.2916
14664SOL    HW156465   6.510   8.121   8.572  1.0614  1.2903  0.4694
14664SOL    HW256466   6.557   7.964   8.570 -0.2511  0.9029 -0.1422
14665SOL     OW56467   4.066   5.226   4.304 -0.0342  0.0460  0.1315
14665SOL    HW156468   4.150   5.187   4.341  0.8745 -2.3472 -4.1470
14665SOL    HW256469   4.081   5.322   4.280  1.0225  0.0116  0.6489
14666SOL     OW56470   2.443   4.179   6.256 -0.2632 -0.1435  0.2167
14666SOL    HW156471   2.533   4.195   6.297 -0.0674 -0.7571  0.0284
14666SOL    HW256472   2.427   4.248   6.185 -0.5003  0.7664  1.1333
14667SOL     OW56473   3.947   7.576   2.812 -0.1286 -0.1220 -0.0131
14667SOL    HW156474   3.917   7.611   2.901 -0.4952  1.9035 -0.8907
14667SOL    HW256475   4.023   7.632   2.779  1.2501 -2.0389 -0.1372
14668SOL     OW56476   3.188   4.016   5.211 -0.0772  0.1536 -0.1649
14668SOL    HW156477   3.204   4.103   5.163 -0.8650 -0.4581 -1.5667
14668SOL    HW256478   3.091   4.007   5.232 -0.1199 -0.7413 -0.7271
14669SOL     OW56479   0.748   5.394   4.856 -0.0994  0.2518 -0.3688
14669SOL    HW156480   0.725   5.304   4.820  0.6294 -0.0732 -0.0353
14669SOL    HW256481   0.752   5.390   4.956  0.0664  0.6175 -0.3585
14670SOL     OW56482   3.215   0.848   1.126  0.2916  0.7619  0.0704
14670SOL    HW156483   3.145   0.781   1.099  0.6603 -0.1757  1.4320
14670SOL    HW256484   3.303   0.822   1.086 -0.2363  2.3262 -2.2310
14671SOL     OW56485   8.382   1.970   1.927 -0.1783 -0.1830  0.2938
14671SOL    HW156486   8.316   2.019   1.869  1.3985  2.2723  0.5052
14671SOL    HW256487   8.347   1.966   2.020 -0.4367  0.3773  0.2282
14672SOL     OW56488   0.890   1.357   7.366 -0.2345 -0.4422  0.0852
14672SOL    HW156489   0.834   1.309   7.434 -1.2080  0.3688 -0.1334
14672SOL    HW256490   0.977   1.309   7.355 -0.5546 -1.2604  1.0246
14673SOL     OW56491   0.960   0.791   0.410  0.8864 -0.2093  0.1101
14673SOL    HW156492   0.956   0.829   0.318  2.2400 -0.2200  0.0410
14673SOL    HW256493   0.880   0.823   0.462  1.1006  1.3375 -0.4678
14674SOL     OW56494   8.337   4.318   0.643 -0.0440 -0.0252 -0.4247
14674SOL    HW156495   8.357   4.416   0.641  1.5312 -0.3332 -0.3965
14674SOL    HW256496   8.395   4.270   0.578 -0.2984 -1.0350  0.0663
14675SOL     OW56497   5.342   3.003   1.335  0.4821 -0.2475 -0.3385
14675SOL    HW156498   5.342   3.091   1.383  3.3535  0.7497 -2.0547
14675SOL    HW256499   5.416   2.945   1.370  0.8348 -0.5910 -1.6227
14676SOL     OW56500   2.747   3.173   7.419 -0.7193 -0.6606  0.6408
14676SOL    HW156501   2.752   3.073   7.410 -3.0333 -0.7909  0.4278
14676SOL    HW256502   2.672   3.208   7.362  0.6289  1.3070  0.0337
14677SOL     OW56503   5.833   8.349   6.205 -0.2667 -0.0870 -0.3439
14677SOL    HW156504   5.785   8.391   6.129 -1.4310 -0.4826  0.1668
14677SOL    HW256505   5.853   8.418   6.274  0.2155  0.1453 -0.7131
14678SOL     OW56506   8.932   8.041   1.174  0.0772 -0.2338 -0.1240
14678SOL    HW156507   8.901   8.085   1.258 -2.1436 -0.8565 -0.6014
14678SOL    HW256508   8.912   8.100   1.096  0.9318 -0.2490 -0.3611
14679SOL     OW56509   3.511   2.173   6.726 -0.5160  0.7055 -0.0479
14679SOL    HW156510   3.508   2.238   6.651  0.5634  3.0820  1.9010
14679SOL    HW256511   3.418   2.155   6.759 -1.1078 -1.2859 -2.6721
14680SOL     OW56512   8.957   5.533   7.217 -0.0675  0.0630 -0.5084
14680SOL    HW156513   8.899   5.507   7.140  0.9753 -2.1166 -0.6200
14680SOL    HW256514   8.901   5.570   7.291 -1.3803 -0.3498 -1.2939
14681SOL     OW56515   7.923   3.637   2.599 -0.0620  0.3613 -0.5073
14681SOL    HW156516   7.869   3.572   2.652  0.1577  0.0089 -0.7072
14681SOL    HW256517   7.928   3.724   2.647  0.6920 -0.1601  0.3824
14682SOL     OW56518   6.933   0.113   8.478  0.2575  0.3085  0.3510
14682SOL    HW156519   6.887   0.048   8.418  0.8049  2.0585 -2.0781
14682SOL    HW256520   6.872   0.140   8.552 -0.9974 -0.7434 -0.2834
14683SOL     OW56521   5.557   7.724   8.565  0.0373  0.0248  0.0071
14683SOL    HW156522   5.644   7.726   8.615  0.5374 -0.4816 -0.8188
14683SOL    HW256523   5.541   7.632   8.530  0.3132  0.6267 -1.7984
14684SOL     OW56524   2.796   4.929   6.083  0.1659  0.4232  0.1725
14684SOL    HW156525   2.790   4.832   6.107  0.6244  0.1197 -0.9030
14684SOL    HW256526   2.707   4.960   6.049 -0.1182  0.5115  0.9896
14685SOL     OW56527   7.984   5.722   2.097 -0.6241  0.2207  0.0168
14685SOL    HW156528   8.041   5.791   2.141 -1.2247  1.1238 -0.5981
14685SOL    HW256529   7.946   5.660   2.165  1.7149 -0.8685  0.3637
14686SOL     OW56530   0.449   2.725   6.424  0.4769  0.0947  0.1667
14686SOL    HW156531   0.487   2.646   6.473  1.6350  0.3618 -0.2751
14686SOL    HW256532   0.503   2.742   6.342  0.0353  1.1465  0.0860
14687SOL     OW56533   1.593   6.135   3.769 -0.2663  0.0655  0.1241
14687SOL    HW156534   1.603   6.121   3.867  0.2084 -0.8503 -0.0465
14687SOL    HW256535   1.670   6.190   3.735 -0.6517  0.7407  0.3274
14688SOL     OW56536   8.822   8.378   7.406  0.4376  0.4155 -0.4105
14688SOL    HW156537   8.728   8.362   7.377  0.4582 -0.6853  0.1066
14688SOL    HW256538   8.860   8.294   7.446  1.6610  0.8233 -0.6752
14689SOL     OW56539   6.166   0.798   0.124 -0.7330 -0.3956  0.3147
14689SOL    HW156540   6.159   0.895   0.148  0.9808 -0.1621 -0.0325
14689SOL    HW256541   6.252   0.782   0.075 -1.8053 -1.7842 -1.1803
14690SOL     OW56542   5.288   4.450   2.958 -0.3924  0.2781  0.0251
14690SOL    HW156543   5.256   4.506   2.882 -1.7213  0.3447  0.6191
14690SOL    HW256544   5.281   4.502   3.044  2.2152  0.6347  0.0733
14691SOL     OW56545   8.143   6.492   5.831 -0.1322 -0.2698  0.2429
14691SOL    HW156546   8.158   6.397   5.804 -0.6569 -1.0413  2.5844
14691SOL    HW256547   8.120   6.546   5.750 -3.1184 -2.8042 -0.7059
14692SOL     OW56548   5.065   2.387   0.136  0.6918 -0.4659 -0.3443
14692SOL    HW156549   5.125   2.465   0.118  2.0908 -1.6301 -0.8305
14692SOL    HW256550   5.118   2.312   0.176 -0.9621 -0.5695  1.7641
14693SOL     OW56551   6.202   6.415   2.582  0.9186  0.2319  0.1022
14693SOL    HW156552   6.293   6.376   2.567  0.7645 -0.1150  0.0572
14693SOL    HW256553   6.201   6.510   2.550  0.6765 -0.4098 -1.8990
14694SOL     OW56554   2.874   1.244   1.444  0.7194 -0.5385 -0.3877
14694SOL    HW156555   2.920   1.185   1.511  0.8574 -0.2572 -0.2374
14694SOL    HW256556   2.943   1.294   1.392  0.5505  1.1896  1.0021
14695SOL     OW56557   6.584   5.150   2.123 -0.5824  0.2886  0.2059
14695SOL    HW156558   6.514   5.131   2.192 -0.6150 -0.2266  0.0269
14695SOL    HW256559   6.597   5.249   2.117 -1.8080  0.4360 -0.2636
14696SOL     OW56560   4.365   4.024   0.619 -0.1222 -0.4083 -0.5663
14696SOL    HW156561   4.463   4.040   0.607 -0.1059 -0.5772 -0.6484
14696SOL    HW256562   4.315   4.104   0.586  0.0793  0.4706  1.1914
14697SOL     OW56563   7.830   8.538   8.645 -0.2669 -0.2344  0.1861
14697SOL    HW156564   7.792   8.631   8.647  1.4905  0.5187 -0.5440
14697SOL    HW256565   7.759   8.474   8.615 -0.8452  1.2039 -1.5973
14698SOL     OW56566   6.175   6.517   0.905 -0.4837 -0.6112 -0.5853
14698SOL    HW156567   6.261   6.471   0.880  0.5324  1.0035 -0.1531
14698SOL    HW256568   6.130   6.550   0.823  0.9763  1.3948 -0.6372
14699SOL     OW56569   2.161   8.592   5.480  0.3394 -0.1876  0.1130
14699SOL    HW156570   2.134   8.522   5.414 -0.2404  0.1369 -0.0002
14699SOL    HW256571   2.087   8.659   5.490  0.9912  0.5703 -0.0092
14700SOL     OW56572   7.058   3.653   7.263  0.8398  0.0058 -0.3587
14700SOL    HW156573   7.089   3.734   7.212  1.9266  0.1848  0.5488
14700SOL    HW256574   7.006   3.593   7.202 -1.0082  1.9521 -0.7456
14701SOL     OW56575   0.800   0.503   0.142  0.4453 -0.1628  0.3047
14701SOL    HW156576   0.859   0.479   0.219  0.8206  1.4562  0.5480
14701SOL    HW256577   0.846   0.484   0.056  0.8449 -0.0514  0.4948
14702SOL     OW56578   5.357   6.864   8.678  0.2123 -0.6137 -0.2562
14702SOL    HW156579   5.277   6.894   8.730  0.5974 -1.1495  0.6596
14702SOL    HW256580   5.359   6.911   8.590 -0.3785  0.4067  0.2680
14703SOL     OW56581   5.537   2.744   8.240  0.4620  0.5124  0.2515
14703SOL    HW156582   5.573   2.713   8.328 -0.2236 -0.2790  0.2561
14703SOL    HW256583   5.537   2.844   8.238 -1.2525  0.5727  1.8885
14704SOL     OW56584   3.657   8.724   1.421  0.5322  0.4959 -0.1812
14704SOL    HW156585   3.621   8.638   1.385  1.8182 -0.0228 -0.2616
14704SOL    HW256586   3.581   8.782   1.450 -0.4854  0.4619 -2.6446
14705SOL     OW56587   2.038   8.129   1.707  0.2815 -0.1384 -0.1325
14705SOL    HW156588   1.970   8.161   1.773 -0.2406  1.1218 -1.2724
14705SOL    HW256589   2.093   8.206   1.674  1.2535 -0.9174 -0.3775
14706SOL     OW56590   8.546   3.421   0.801  0.7642 -0.0916  0.2154
14706SOL    HW156591   8.600   3.433   0.885  1.6722 -6.2087  0.7496
14706SOL    HW256592   8.601   3.372   0.733 -2.0477 -0.8255 -1.5832
14707SOL     OW56593   7.242   2.927   0.629  0.6183  0.5084 -0.0509
14707SOL    HW156594   7.268   2.962   0.538 -0.3027  1.9591  0.2290
14707SOL    HW256595   7.204   2.835   0.620  1.6774  0.1528 -0.9892
14708SOL     OW56596   1.850   2.907   1.121  0.2359  0.1715 -0.6388
14708SOL    HW156597   1.943   2.884   1.094  0.8064  0.3443  1.1728
14708SOL    HW256598   1.844   2.916   1.220 -1.5453  0.9248 -0.7870
14709SOL     OW56599   8.304   5.904   7.928 -0.7078  0.1465 -0.5025
14709SOL    HW156600   8.297   6.003   7.914 -3.5530 -0.0420 -0.7297
14709SOL    HW256601   8.365   5.865   7.858  2.7833  2.0194  1.3271
14710SOL     OW56602   6.203   5.803   1.960  0.1083 -0.4024 -0.9537
14710SOL    HW156603   6.243   5.888   1.928 -0.3418 -0.4442 -1.6477
14710SOL    HW256604   6.171   5.813   2.054  0.7328 -0.0348 -0.7850
14711SOL     OW56605   4.923   6.017   3.702  0.4993 -0.0885 -0.0874
14711SOL    HW156606   4.999   6.057   3.753  1.0260 -0.6548 -0.4275
14711SOL    HW256607   4.876   5.950   3.759 -1.1824  1.8872  0.9542
14712SOL     OW56608   5.623   0.442   8.441  0.1046  0.0154  0.1667
14712SOL    HW156609   5.583   0.389   8.366  0.4435  0.1741 -0.1263
14712SOL    HW256610   5.709   0.483   8.411 -0.6039  1.4870  0.1049
14713SOL     OW56611   3.528   2.874   3.967 -0.2876  0.8594  0.2242
14713SOL    HW156612   3.606   2.931   3.991  0.2572  1.1029 -1.9859
14713SOL    HW256613   3.507   2.811   4.042  3.3880 -0.7075  0.0477
14714SOL     OW56614   0.542   3.195   3.556  0.5633 -0.3523 -0.0010
14714SOL    HW156615   0.633   3.209   3.517  0.1576  1.6298 -0.2970
14714SOL    HW256616   0.481   3.267   3.524 -1.2728 -1.9929 -0.2572
14715SOL     OW56617   3.715   8.771   7.023  0.0816 -0.5660 -0.5951
14715SOL    HW156618   3.649   8.843   7.043  0.9033 -0.0942  0.4620
14715SOL    HW256619   3.788   8.807   6.965  1.1089 -0.2173  0.8844
14716SOL     OW56620   7.346   0.629   1.194 -0.1934 -0.0079  0.7989
14716SOL    HW156621   7.273   0.562   1.185 -0.3035  0.2213 -0.0188
14716SOL    HW256622   7.381   0.628   1.288  0.6375 -2.0573  0.4978
14717SOL     OW56623   0.404   3.256   5.720 -0.8443  0.6760 -0.1676
14717SOL    HW156624   0.461   3.200   5.780 -0.2972  0.4648 -0.8734
14717SOL    HW256625   0.432   3.241   5.625 -1.8684  0.8097 -0.4940
14718SOL     OW56626   8.765   1.510   0.470  0.5391  0.0050 -0.7350
14718SOL    HW156627   8.701   1.434   0.474  1.0534 -0.4948 -1.7468
14718SOL    HW256628   8.767   1.557   0.558 -0.8785 -0.2427 -0.5571
14719SOL     OW56629   6.108   3.471   0.838  0.4032  0.2884  0.1499
14719SOL    HW156630   6.068   3.379   0.843  1.4848 -0.1294  1.5592
14719SOL    HW256631   6.115   3.499   0.743 -0.9735 -0.6321 -0.2396
14720SOL     OW56632   1.579   4.085   3.674 -0.5628  0.1954  0.9398
14720SOL    HW156633   1.653   4.109   3.611 -0.3270 -1.3768  0.6164
14720SOL    HW256634   1.615   4.081   3.767 -0.4495  0.3575  0.9042
14721SOL     OW56635   3.602   8.941   3.838  0.2957  0.0870  0.1122
14721SOL    HW156636   3.656   8.857   3.848 -0.0977 -0.2372 -0.4190
14721SOL    HW256637   3.631   9.008   3.906  1.3202 -0.1044 -0.1389
14722SOL     OW56638   5.173   5.768   6.485  0.2502 -0.0737 -0.4021
14722SOL    HW156639   5.085   5.726   6.462  0.3953 -0.1773 -0.7710
14722SOL    HW256640   5.170   5.865   6.462 -0.0131  0.0760  0.2549
14723SOL     OW56641   6.043   5.084   7.166 -0.1164 -0.5490 -0.1933
14723SOL    HW156642   5.977   5.083   7.241  1.1733 -2.1979  0.9464
14723SOL    HW256643   6.064   5.179   7.141 -0.2435  0.0191  1.8006
14724SOL     OW56644   4.207   4.089   2.456  0.2436  0.2583 -0.4703
14724SOL    HW156645   4.156   4.169   2.486  1.6549  0.3763  1.7645
14724SOL    HW256646   4.143   4.013   2.439 -0.7732  0.6597  1.4151
14725SOL     OW56647   1.460   6.269   6.415 -0.1494  0.4613  0.1406
14725SOL    HW156648   1.434   6.194   6.355 -0.2141  1.2968 -0.9012
14725SOL    HW256649   1.534   6.240   6.476 -2.5676 -1.5207  2.2230
14726SOL     OW56650   1.919   4.363   6.869 -0.1022  0.4098 -0.2646
14726SOL    HW156651   1.837   4.419   6.873 -0.2558  0.0982  1.4937
14726SOL    HW256652   1.912   4.289   6.936  1.0823 -0.3459 -0.9541
14727SOL     OW56653   7.251   6.335   5.950 -0.1215  0.2428 -0.1179
14727SOL    HW156654   7.253   6.421   6.001  1.0451  1.1648 -1.6596
14727SOL    HW256655   7.342   6.318   5.911 -0.0295 -2.2765  1.1202
14728SOL     OW56656   3.887   7.160   1.591  0.0425 -0.0376 -0.4723
14728SOL    HW156657   3.923   7.089   1.531 -3.6427 -1.6275 -0.9123
14728SOL    HW256658   3.793   7.181   1.565 -0.0786  2.5607  1.8495
14729SOL     OW56659   4.396   6.113   7.028 -0.3096 -0.4955  0.6879
14729SOL    HW156660   4.363   6.204   7.004 -0.1071 -0.1949  1.5218
14729SOL    HW256661   4.325   6.064   7.080 -1.5278 -1.8971 -2.2141
14730SOL     OW56662   1.999   1.448   0.757  0.5852  0.0981  0.1578
14730SOL    HW156663   1.980   1.545   0.742 -0.4509 -0.1039  0.1375
14730SOL    HW256664   1.971   1.422   0.850  1.8668  0.0671  0.5416
14731SOL     OW56665   4.997   5.579   6.910 -0.0416 -0.0902  1.1384
14731SOL    HW156666   5.062   5.597   6.836 -0.2340 -0.1678  0.9497
14731SOL    HW256667   5.015   5.641   6.986  1.2471 -1.1453  1.7113
14732SOL     OW56668   4.206   5.410   6.242 -0.3516 -0.4272 -0.1447
14732SOL    HW156669   4.161   5.488   6.198 -0.4014 -0.0433  0.5781
14732SOL    HW256670   4.148   5.329   6.232 -0.4642 -0.2953 -0.5938
14733SOL     OW56671   2.777   7.794   2.730 -0.5367 -0.2900  0.1497
14733SOL    HW156672   2.845   7.764   2.664  1.1543  1.7056  0.9052
14733SOL    HW256673   2.696   7.828   2.682 -0.6139 -1.7699 -0.7851
14734SOL     OW56674   7.585   5.148   1.781  0.3197 -0.2264 -0.7251
14734SOL    HW156675   7.618   5.214   1.849 -1.1250  1.5164 -1.6603
14734SOL    HW256676   7.521   5.085   1.825  0.0537  0.3479 -0.2836
14735SOL     OW56677   4.846   3.358   4.881 -0.0018  0.2893 -0.7679
14735SOL    HW156678   4.803   3.393   4.963 -1.3483 -0.8266 -0.9744
14735SOL    HW256679   4.938   3.323   4.903 -0.4480 -0.2209  0.3094
14736SOL     OW56680   1.387   8.713   0.896 -0.1456 -0.3357 -0.9497
14736SOL    HW156681   1.382   8.653   0.816 -1.0907  1.1462 -2.0297
14736SOL    HW256682   1.303   8.767   0.902  0.3683  0.3286  0.4472
14737SOL     OW56683   2.743   2.014   3.454  0.2773 -0.2962  0.6597
14737SOL    HW156684   2.808   2.025   3.378 -0.6055 -1.1993 -0.2469
14737SOL    HW256685   2.676   2.088   3.452 -0.7805 -1.2571 -0.5100
14738SOL     OW56686   5.938   3.082   1.786 -0.0226 -0.2100 -0.0317
14738SOL    HW156687   5.852   3.050   1.825  0.3564 -1.2231 -0.0123
14738SOL    HW256688   5.922   3.118   1.695 -0.5304 -0.0291  0.1263
14739SOL     OW56689   0.633   5.279   8.072  0.4263 -0.2423 -0.2112
14739SOL    HW156690   0.710   5.338   8.098 -1.0277  0.3743  2.8447
14739SOL    HW256691   0.665   5.184   8.067  1.2458 -0.0947  1.7763
14740SOL     OW56692   1.032   2.618   8.492  0.2515 -0.4528  0.8189
14740SOL    HW156693   0.978   2.695   8.458 -1.9308 -1.1520  2.5713
14740SOL    HW256694   1.097   2.589   8.422 -1.7927  0.2997 -1.4524
14741SOL     OW56695   8.430   0.470   5.545  0.0635 -0.2137 -0.6476
14741SOL    HW156696   8.396   0.564   5.534  1.5009  0.0581 -3.1960
14741SOL    HW256697   8.380   0.409   5.483 -2.7215 -1.6884  2.8946
14742SOL     OW56698   7.514   2.832   6.059 -0.8760  0.7768  0.4421
14742SOL    HW156699   7.459   2.907   6.094 -1.8847  0.0690  0.4034
14742SOL    HW256700   7.463   2.784   5.986 -0.1935  0.1491  0.3688
14743SOL     OW56701   8.898   6.945   5.453  0.0656  0.1244  0.1460
14743SOL    HW156702   8.904   6.846   5.451  1.5159  0.1100  2.6172
14743SOL    HW256703   8.927   6.983   5.365  0.9251 -1.5868 -0.3182
14744SOL     OW56704   8.719   1.941   4.282  0.5686 -0.3535  0.3487
14744SOL    HW156705   8.633   1.903   4.314  0.4082 -1.0889 -0.9093
14744SOL    HW256706   8.718   2.040   4.292  0.3129 -0.5307  2.0692
14745SOL     OW56707   3.508   6.964   4.940  0.0239  0.3839 -0.0188
14745SOL    HW156708   3.534   6.940   4.847 -0.4236 -0.9067  0.1781
14745SOL    HW256709   3.408   6.959   4.949  0.0097  1.1959  0.3442
14746SOL     OW56710   5.093   6.874   1.680 -0.2731 -0.0631 -0.1015
14746SOL    HW156711   5.068   6.816   1.757 -1.0329 -0.4716 -0.6497
14746SOL    HW256712   5.141   6.820   1.611  0.2520  0.2601  0.0157
14747SOL     OW56713   3.001   7.941   3.623  0.1013  0.0145  0.3803
14747SOL    HW156714   2.941   7.956   3.544  1.2165  1.1203 -0.2780
14747SOL    HW256715   2.988   8.015   3.689  0.1699 -0.1728  0.6045
14748SOL     OW56716   7.132   8.280   8.501 -0.0044  0.2705 -0.4049
14748SOL    HW156717   7.070   8.340   8.449  0.6920  0.8345 -0.5990
14748SOL    HW256718   7.119   8.185   8.471 -0.9004  0.3599 -0.3144
14749SOL     OW56719   1.840   2.537   4.554 -0.3865 -0.5247  0.2573
14749SOL    HW156720   1.829   2.533   4.455 -0.6698 -2.1161  0.3486
14749SOL    HW256721   1.925   2.585   4.576 -0.5596  0.2576 -0.7377
14750SOL     OW56722   2.974   4.170   2.689  0.5046  0.4992  0.2128
14750SOL    HW156723   2.954   4.077   2.719  0.2342  0.7588  0.8299
14750SOL    HW256724   3.005   4.168   2.594  2.1169 -0.4081  0.7333
14751SOL     OW56725   2.892   3.692   3.028  0.0619 -0.1041 -0.1249
14751SOL    HW156726   2.859   3.638   3.105  1.3482  0.2458  0.6980
14751SOL    HW256727   2.992   3.701   3.035  0.0007  1.2863 -0.9549
14752SOL     OW56728   0.835   2.604   7.475 -0.9360  0.3772 -0.4713
14752SOL    HW156729   0.891   2.526   7.501 -1.9559  0.1768  1.2181
14752SOL    HW256730   0.825   2.607   7.375 -0.0762 -1.0698 -0.6015
14753SOL     OW56731   2.832   3.219   4.841 -0.5756 -0.3857  0.2816
14753SOL    HW156732   2.810   3.280   4.765  3.4190 -0.2870 -0.9262
14753SOL    HW256733   2.837   3.271   4.926 -1.4808  0.1642  0.0041
14754SOL     OW56734   3.380   8.603   8.846  0.0555 -0.1298 -0.3841
14754SOL    HW156735   3.436   8.557   8.777  1.6057 -0.9077  1.3702
14754SOL    HW256736   3.336   8.534   8.904  1.3516  0.5517  1.4450
14755SOL     OW56737   1.996   2.872   6.064 -0.6944 -0.0633 -0.0767
14755SOL    HW156738   1.908   2.853   6.108 -0.4145  1.0304  0.9771
14755SOL    HW256739   1.983   2.942   5.993 -0.5789  0.5032  0.4590
14756SOL     OW56740   6.539   0.857   0.873 -0.3634  0.2430  0.1228
14756SOL    HW156741   6.482   0.783   0.837 -0.7542  0.1592  0.9157
14756SOL    HW256742   6.606   0.883   0.804 -0.3476 -0.7242 -0.2371
14757SOL     OW56743   0.968   7.680   0.436 -0.2460  0.2737 -0.2862
14757SOL    HW156744   0.963   7.733   0.351 -0.1742 -0.1301 -0.5446
14757SOL    HW256745   0.953   7.741   0.514 -1.1050  0.5169 -0.6263
14758SOL     OW56746   4.561   4.952   0.754  0.3737 -0.4787  0.5875
14758SOL    HW156747   4.500   5.025   0.721  1.5659  0.5380  0.5980
14758SOL    HW256748   4.586   4.970   0.849 -0.6519 -1.8018  1.1177
14759SOL     OW56749   2.163   3.726   4.705  0.3439  0.0333 -0.1385
14759SOL    HW156750   2.218   3.674   4.770  2.0855 -0.0550 -1.6380
14759SOL    HW256751   2.130   3.665   4.633 -1.0520  0.2457  0.3045
14760SOL     OW56752   8.252   6.769   3.559  0.4229  0.4415 -0.0763
14760SOL    HW156753   8.167   6.787   3.510  1.4129  1.2902 -1.5176
14760SOL    HW256754   8.328   6.766   3.494  1.5874  0.2974  1.2628
14761SOL     OW56755   2.490   0.073   3.451  0.1491  0.0516  0.1814
14761SOL    HW156756   2.542  -0.006   3.483 -0.5132 -0.0387  1.0490
14761SOL    HW256757   2.393   0.049   3.445 -0.3144  1.3312  2.2353
14762SOL     OW56758   8.899   5.365   2.783  0.6756 -0.1843  0.0327
14762SOL    HW156759   8.942   5.383   2.694  2.0489 -0.5888  0.5978
14762SOL    HW256760   8.967   5.328   2.846 -0.1295  0.6834  1.4515
14763SOL     OW56761   7.491   2.756   2.887 -0.8955 -0.1054 -0.3123
14763SOL    HW156762   7.579   2.717   2.858  0.2448  0.6103  2.1044
14763SOL    HW256763   7.442   2.788   2.806  0.9582 -0.7234 -1.7354
14764SOL     OW56764   8.082   0.346   5.437  0.6895  0.0777  0.1423
14764SOL    HW156765   8.094   0.322   5.533 -1.6197  0.6198  0.5857
14764SOL    HW256766   8.167   0.328   5.388  2.3959  1.2103  2.5618
14765SOL     OW56767   1.992   7.716   8.753  0.4400 -0.2216 -0.5794
14765SOL    HW156768   2.088   7.696   8.734  0.2026 -0.1931 -1.8210
14765SOL    HW256769   1.958   7.653   8.823  0.5650 -2.1519 -2.2190
14766SOL     OW56770   6.408   4.109   6.707 -0.1210  0.5136 -0.4560
14766SOL    HW156771   6.394   4.012   6.723  1.0329  0.2384 -1.0697
14766SOL    HW256772   6.371   4.162   6.784 -0.7887 -0.3967 -0.1484
14767SOL     OW56773   3.582   6.937   4.663  0.0335 -0.5632 -0.0764
14767SOL    HW156774   3.526   7.010   4.623 -0.1004 -0.2187  0.7339
14767SOL    HW256775   3.678   6.952   4.639 -0.0856 -0.5695 -0.5790
14768SOL     OW56776   4.724   4.458   4.421  0.4838  0.3140  0.3783
14768SOL    HW156777   4.773   4.480   4.505  0.3587 -0.9419  0.7885
14768SOL    HW256778   4.780   4.396   4.365 -0.5512 -1.0181  0.7888
14769SOL     OW56779   5.480   0.283   8.622 -0.7798  0.0710 -0.0871
14769SOL    HW156780   5.503   0.354   8.556 -1.4782 -2.2017 -2.8522
14769SOL    HW256781   5.563   0.238   8.654 -0.5453  0.0240 -0.7578
14770SOL     OW56782   8.705   3.101   6.366 -0.3050  0.1065  0.4632
14770SOL    HW156783   8.623   3.092   6.309  0.1481  1.5404 -0.4272
14770SOL    HW256784   8.680   3.089   6.462 -2.4265  4.9051  0.6700
14771SOL     OW56785   3.070   6.760   6.531 -0.3483  0.1357 -0.3114
14771SOL    HW156786   3.099   6.819   6.607  0.8105 -1.2588  0.3556
14771SOL    HW256787   3.139   6.690   6.516 -2.5880 -2.2377  0.1711
14772SOL     OW56788   6.229   7.516   7.486 -0.2262  0.7757  0.3338
14772SOL    HW156789   6.279   7.515   7.573  0.6337 -1.9058 -0.1422
14772SOL    HW256790   6.197   7.609   7.467  2.9604  2.2153  1.5787
14773SOL     OW56791   3.071   6.167   5.018 -0.2233 -0.3659  0.0676
14773SOL    HW156792   3.149   6.228   5.032 -0.7727  1.3244 -3.8000
14773SOL    HW256793   2.988   6.221   5.005 -1.0273 -1.9773 -1.6265
14774SOL     OW56794   1.709   3.202   4.358 -0.2279 -0.0602  0.0267
14774SOL    HW156795   1.768   3.276   4.325 -2.2334  1.4472 -0.2746
14774SOL    HW256796   1.698   3.211   4.457  0.1313 -0.4244  0.1027
14775SOL     OW56797   4.373   1.378   7.226  0.0279  0.1164  0.6460
14775SOL    HW156798   4.366   1.465   7.276  1.2751  1.1664 -0.9566
14775SOL    HW256799   4.297   1.370   7.162 -1.0746 -0.8186  2.0402
14776SOL     OW56800   6.927   2.466   0.595 -0.4200  0.1411 -0.0487
14776SOL    HW156801   6.942   2.450   0.497  1.6016 -0.3818  0.3356
14776SOL    HW256802   6.839   2.513   0.607 -1.5819 -1.4174 -1.9667
14777SOL     OW56803   2.333   6.744   6.895  0.0847 -0.0924  0.2563
14777SOL    HW156804   2.421   6.730   6.940  0.8807 -0.2688 -1.3381
14777SOL    HW256805   2.345   6.799   6.813 -1.2118 -0.5875 -0.2829
14778SOL     OW56806   6.206   8.514   0.850  0.2611 -0.8232 -0.0905
14778SOL    HW156807   6.282   8.575   0.872  0.6609 -0.6798 -1.7848
14778SOL    HW256808   6.240   8.421   0.837  0.1560 -0.7424 -0.9364
14779SOL     OW56809   2.429   2.947   2.790 -0.2151 -0.0324  0.8181
14779SOL    HW156810   2.396   2.865   2.838 -1.7709 -0.1503 -0.4108
14779SOL    HW256811   2.486   3.000   2.852 -0.7784 -1.0613  2.2637
14780SOL     OW56812   0.202   6.527   2.161 -0.1651  0.0854  0.2980
14780SOL    HW156813   0.170   6.456   2.223  2.2174 -0.8074  0.5423
14780SOL    HW256814   0.261   6.591   2.211  1.6525 -0.5583 -0.9935
14781SOL     OW56815   2.306   2.979   1.140 -0.4825 -0.0475 -0.0310
14781SOL    HW156816   2.262   3.045   1.201 -0.2403 -1.2289  1.4410
14781SOL    HW256817   2.237   2.916   1.104 -0.4362 -0.1288  0.0212
14782SOL     OW56818   2.847   1.205   6.742  0.2259  0.1329  0.0855
14782SOL    HW156819   2.813   1.299   6.736 -0.0824  0.0149 -0.0207
14782SOL    HW256820   2.828   1.169   6.833  0.5102  0.2378  0.1868
14783SOL     OW56821   1.539   1.010   5.690 -0.1221  0.0470 -0.2135
14783SOL    HW156822   1.635   0.999   5.717 -0.1257  0.2493 -0.1141
14783SOL    HW256823   1.489   0.926   5.709  0.8239 -1.3810 -3.6462
14784SOL     OW56824   2.226   3.145   3.218  0.3782 -0.5908  0.3477
14784SOL    HW156825   2.246   3.243   3.222  0.6768 -0.6475  0.2541
14784SOL    HW256826   2.127   3.131   3.211  0.2868 -0.3117  0.9947
14785SOL     OW56827   1.992   8.809   3.018  0.3095 -0.3106  0.1993
14785SOL    HW156828   2.005   8.838   2.924  3.3872  0.6610  0.8450
14785SOL    HW256829   1.994   8.709   3.023 -0.7319 -0.3784 -0.8736
14786SOL     OW56830   0.628   4.834   0.336  0.3248 -0.0632 -0.5239
14786SOL    HW156831   0.701   4.816   0.401 -1.1765 -0.9802  0.9530
14786SOL    HW256832   0.633   4.769   0.260  1.0223 -0.1154 -0.4356
14787SOL     OW56833   5.538   6.008   7.983  0.0411  0.0435 -0.4679
14787SOL    HW156834   5.465   5.960   7.934 -0.8933 -1.0994  1.9798
14787SOL    HW256835   5.576   5.948   8.053  2.1677  1.2492 -0.5443
14788SOL     OW56836   8.903   5.849   7.442  0.2041 -0.4297  0.6097
14788SOL    HW156837   8.948   5.927   7.487  0.2843  0.3727 -0.8116
14788SOL    HW256838   8.842   5.883   7.370  0.2824 -1.6882 -0.0631
14789SOL     OW56839   2.048   3.342   6.518  0.4859 -0.1329 -0.1574
14789SOL    HW156840   2.138   3.352   6.475  0.9495 -0.4987  0.7199
14789SOL    HW256841   1.998   3.428   6.512  1.7449  0.7183  1.2432
14790SOL     OW56842   2.981   7.685   1.386  0.1430 -0.6577 -0.3175
14790SOL    HW156843   3.000   7.649   1.295 -0.0667  0.2840 -0.7314
14790SOL    HW256844   2.882   7.688   1.401  0.0648  1.9592 -1.1792
14791SOL     OW56845   8.680   2.616   2.792  0.1963 -0.6133  0.5830
14791SOL    HW156846   8.716   2.541   2.736 -1.1328  0.2274 -1.4457
14791SOL    HW256847   8.580   2.619   2.783  0.2014  1.1683  0.9476
14792SOL     OW56848   0.390   7.295   1.137  0.2819 -0.0868  0.0387
14792SOL    HW156849   0.301   7.276   1.095  0.9160  0.4434 -1.5686
14792SOL    HW256850   0.432   7.208   1.165 -0.9261 -0.3113  1.2540
14793SOL     OW56851   6.789   1.527   8.106 -0.2416  0.1907  0.4960
14793SOL    HW156852   6.802   1.625   8.119 -1.9010  0.0232  3.7284
14793SOL    HW256853   6.747   1.511   8.016 -1.2324  2.5544  0.5057
14794SOL     OW56854   8.083   6.573   5.017 -0.2102  0.1226 -0.2343
14794SOL    HW156855   8.010   6.635   4.989 -0.9073  0.7737  2.8489
14794SOL    HW256856   8.171   6.607   4.984 -0.8984  1.2437 -0.9384
14795SOL     OW56857   7.430   2.115   5.898 -0.4852 -0.0567  0.6841
14795SOL    HW156858   7.504   2.088   5.836 -1.3185  0.0855 -0.3868
14795SOL    HW256859   7.345   2.070   5.870 -1.2119  1.2312  0.7750
14796SOL     OW56860   2.950   3.321   0.574  0.6156 -0.4092 -0.1809
14796SOL    HW156861   3.002   3.324   0.488 -0.2713  1.6172 -0.6866
14796SOL    HW256862   2.857   3.290   0.556  0.1110  1.0187 -0.1657
14797SOL     OW56863   4.846   3.424   8.553 -0.3649  0.4989 -0.1681
14797SOL    HW156864   4.945   3.429   8.542 -0.5206  0.6213 -1.5890
14797SOL    HW256865   4.822   3.446   8.647  1.1045 -1.3394  0.6648
14798SOL     OW56866   3.274   5.161   4.801  0.1951 -0.0648  0.4610
14798SOL    HW156867   3.363   5.147   4.758  0.4234 -0.8521  1.1790
14798SOL    HW256868   3.204   5.169   4.730  0.7405 -0.1269 -0.0875
14799SOL     OW56869   6.493   2.759   7.488 -0.2047 -0.3376  0.0697
14799SOL    HW156870   6.509   2.852   7.457 -1.2469 -0.4995 -0.9606
14799SOL    HW256871   6.541   2.744   7.574  0.9010  0.7907 -0.3473
14800SOL     OW56872   0.924   8.783   0.936 -0.3812  0.4410 -0.2491
14800SOL    HW156873   0.984   8.714   0.894  1.1603  0.8418  1.2608
14800SOL    HW256874   0.843   8.737   0.974  2.0763 -1.0453  3.4844
14801SOL     OW56875   4.929   0.264   7.708 -0.5662 -0.2516 -0.0888
14801SOL    HW156876   4.841   0.289   7.747 -0.5311  0.7850 -0.6325
14801SOL    HW256877   4.924   0.268   7.608  0.2866  0.5353 -0.1138
14802SOL     OW56878   3.659   4.286   2.090 -0.1288 -0.0904  0.4389
14802SOL    HW156879   3.653   4.187   2.101 -0.2944  0.1391  2.5985
14802SOL    HW256880   3.622   4.331   2.171 -1.7276  1.7806 -1.2900
14803SOL     OW56881   2.554   0.465   6.677 -0.4008  0.0859  0.0332
14803SOL    HW156882   2.602   0.467   6.590 -2.0223  0.2630 -0.8757
14803SOL    HW256883   2.480   0.531   6.676  0.0027  0.5957  1.8230
14804SOL     OW56884   6.917   7.420   1.130  0.4584  0.7323  0.0596
14804SOL    HW156885   7.003   7.468   1.144  0.2599  0.7457  1.3493
14804SOL    HW256886   6.842   7.485   1.129  0.3043  0.5709  0.6498
14805SOL     OW56887   8.806   4.016   6.377 -0.0468  0.2431 -0.1148
14805SOL    HW156888   8.849   3.926   6.372  1.8240  1.0057  1.5684
14805SOL    HW256889   8.850   4.078   6.312 -0.5138  0.2870 -0.3952
14806SOL     OW56890   0.548   3.624   7.395 -0.0081  0.3993  0.1948
14806SOL    HW156891   0.533   3.595   7.490 -1.1236 -0.2299 -0.1640
14806SOL    HW256892   0.462   3.656   7.356  0.9143  2.8631  0.1046
14807SOL     OW56893   1.294   6.100   6.772  0.3043  0.2162 -0.1408
14807SOL    HW156894   1.313   6.142   6.861  1.4470  1.2634 -0.8520
14807SOL    HW256895   1.196   6.086   6.762  0.2077 -0.2503  1.4352
14808SOL     OW56896   0.172   3.771   6.936  0.6910 -0.1997 -0.3628
14808SOL    HW156897   0.228   3.690   6.951  0.2492 -0.6342 -1.0477
14808SOL    HW256898   0.079   3.744   6.909 -0.4978  0.4567  2.7911
14809SOL     OW56899   7.287   2.424   1.539  0.7174 -0.2374  0.0640
14809SOL    HW156900   7.282   2.473   1.452 -1.5740 -0.6730 -0.0897
14809SOL    HW256901   7.228   2.470   1.606 -0.3071 -1.9205  0.3343
14810SOL     OW56902   3.003   1.168   5.630  0.1428 -0.1143 -0.2852
14810SOL    HW156903   3.012   1.263   5.601 -0.1245  0.3211  1.0150
14810SOL    HW256904   3.005   1.163   5.730 -1.9325 -1.2502 -0.2651
14811SOL     OW56905   8.640   7.618   1.110 -0.0057  0.4536  0.2316
14811SOL    HW156906   8.618   7.684   1.038  1.9165 -0.2454 -1.0307
14811SOL    HW256907   8.684   7.666   1.186 -1.6756  1.1292  0.8096
14812SOL     OW56908   8.032   1.012   5.393 -0.1833  0.6551  0.0975
14812SOL    HW156909   8.022   0.956   5.311  0.3013  0.8293 -0.0854
14812SOL    HW256910   8.115   1.068   5.386  1.4361 -1.4197  1.9500
14813SOL     OW56911   8.341   6.333   2.811 -0.0395 -0.2182  0.1388
14813SOL    HW156912   8.380   6.420   2.781  2.0856 -1.0762  0.3175
14813SOL    HW256913   8.286   6.294   2.738  2.9105 -1.0074 -1.7493
14814SOL     OW56914   5.912   1.680   0.026  0.3149 -0.2412  1.1065
14814SOL    HW156915   5.923   1.689   0.125  1.5516  1.2303  0.8410
14814SOL    HW256916   5.983   1.618  -0.010 -0.6453 -1.4401  1.2383
14815SOL     OW56917   4.138   6.846   0.383 -0.3038  0.8523 -0.6662
14815SOL    HW156918   4.129   6.790   0.300  1.9377  0.2499 -0.5590
14815SOL    HW256919   4.054   6.898   0.398 -1.6764 -0.9506 -1.9032
14816SOL     OW56920   0.018   4.218   0.714 -0.5109 -0.6998 -0.1857
14816SOL    HW156921  -0.065   4.230   0.769 -0.2905 -0.0959  0.0235
14816SOL    HW256922  -0.006   4.219   0.617 -1.0072 -2.6126 -0.1034
14817SOL     OW56923   0.977   6.338   1.803 -0.4273  0.3332  0.1060
14817SOL    HW156924   1.001   6.260   1.860  0.1344  1.6144  1.6588
14817SOL    HW256925   1.059   6.392   1.785 -1.1493  1.6481  0.7151
14818SOL     OW56926   7.572   4.449   1.339  0.3998 -0.7860 -0.4307
14818SOL    HW156927   7.550   4.453   1.436 -1.0866  0.0483 -0.7776
14818SOL    HW256928   7.615   4.362   1.318 -1.4517 -1.9799  0.5478
14819SOL     OW56929   6.314   2.796   1.217  0.0875 -0.1399 -0.2343
14819SOL    HW156930   6.266   2.715   1.251 -0.8374  0.2151 -0.6769
14819SOL    HW256931   6.404   2.769   1.182  0.8637 -0.5964  1.9682
14820SOL     OW56932   7.192   6.352   6.352  0.1299 -0.3661  0.0785
14820SOL    HW156933   7.099   6.326   6.326 -0.1257  0.1638  0.4645
14820SOL    HW256934   7.245   6.269   6.371 -1.2888 -0.5905  3.4109
14821SOL     OW56935   5.843   3.929   7.698  0.6777 -0.5313 -0.4756
14821SOL    HW156936   5.781   3.895   7.627  0.2043  0.4360 -0.5345
14821SOL    HW256937   5.934   3.945   7.658  1.0088 -2.0956 -0.3542
14822SOL     OW56938   2.172   3.771   2.622  0.1284  0.2403 -0.4058
14822SOL    HW156939   2.164   3.871   2.628 -0.1085  0.0600  3.9386
14822SOL    HW256940   2.268   3.745   2.626  0.2435  0.2695 -2.3381
14823SOL     OW56941   3.062   2.202   2.023 -0.2325  0.9134  0.0813
14823SOL    HW156942   2.995   2.209   2.097  0.3363  1.0122  0.6001
14823SOL    HW256943   3.025   2.147   1.949  0.3534 -1.9772  1.8201
14824SOL     OW56944   2.927   3.992   6.379 -0.0378 -0.2065 -0.4992
14824SOL    HW156945   2.936   4.083   6.419  0.2005 -0.4261 -0.0544
14824SOL    HW256946   2.882   3.999   6.289  1.4665  0.5115 -1.2086
14825SOL     OW56947   0.842   4.487   1.553 -0.2811  0.0316  0.3410
14825SOL    HW156948   0.774   4.427   1.597 -0.9694 -0.0636 -0.8443
14825SOL    HW256949   0.797   4.546   1.487  0.7278  0.3118 -0.1072
14826SOL     OW56950   8.224   2.862   6.039  0.7201 -0.3818  0.0736
14826SOL    HW156951   8.309   2.876   5.987  0.8784 -1.0772  0.1409
14826SOL    HW256952   8.227   2.773   6.084 -0.3272 -0.6885 -0.4524
14827SOL     OW56953   3.833   2.228   5.022  0.6786 -0.0114 -0.4790
14827SOL    HW156954   3.775   2.309   5.036  2.3658  1.6388 -2.7284
14827SOL    HW256955   3.921   2.256   4.984  3.5263 -2.3141  3.9527
14828SOL     OW56956   5.858   5.300   2.698  1.0886 -0.5187  0.3303
14828SOL    HW156957   5.865   5.212   2.653 -0.0265 -0.6944  0.5002
14828SOL    HW256958   5.947   5.346   2.695  1.4870 -1.3309 -0.3861
14829SOL     OW56959   0.665   6.910   7.557  0.2886  0.4167 -0.8481
14829SOL    HW156960   0.727   6.888   7.632 -1.1998 -0.2477  0.2200
14829SOL    HW256961   0.705   6.880   7.470  0.9366 -1.0774 -0.0489
14830SOL     OW56962   8.645   1.946   8.570 -1.1234  0.0667 -0.2427
14830SOL    HW156963   8.636   1.900   8.658 -3.1045 -1.3964 -1.1435
14830SOL    HW256964   8.700   2.028   8.580  0.9974 -1.5269  1.8092
14831SOL     OW56965   3.851   0.290   2.910  0.3266  0.3471 -0.3932
14831SOL    HW156966   3.858   0.192   2.930 -1.1430  0.3625  0.2169
14831SOL    HW256967   3.769   0.327   2.953 -0.8365  1.2160 -3.2645
14832SOL     OW56968   7.254   1.911   8.323 -0.8149 -0.2403 -0.1030
14832SOL    HW156969   7.219   1.856   8.400  2.1624 -0.3262  1.2437
14832SOL    HW256970   7.307   1.988   8.359  1.9102 -1.1472 -2.0841
14833SOL     OW56971   0.362   5.639   2.040 -0.2106  0.0898  0.2262
14833SOL    HW156972   0.412   5.562   2.080  1.8393  1.1692 -0.1834
14833SOL    HW256973   0.393   5.653   1.946 -2.4225 -0.1821 -0.5655
14834SOL     OW56974   2.341   7.911   2.329 -0.1005 -0.2754  0.5912
14834SOL    HW156975   2.400   7.981   2.369  0.1218 -0.8815  1.3378
14834SOL    HW256976   2.253   7.911   2.376 -0.7718  0.7691 -0.6612
14835SOL     OW56977   2.511   4.299   3.604  0.2503 -0.3514 -0.6768
14835SOL    HW156978   2.430   4.308   3.547 -0.1933  0.1744  0.0144
14835SOL    HW256979   2.527   4.385   3.653 -0.2577 -1.2426  1.1228
14836SOL     OW56980   2.522   4.193   2.638 -0.4880 -0.6723  0.1510
14836SOL    HW156981   2.490   4.108   2.680 -0.5555 -1.3166 -1.1826
14836SOL    HW256982   2.512   4.268   2.703 -0.7811 -1.6148  1.2094
14837SOL     OW56983   6.223   7.791   2.165 -0.1061 -0.2854 -0.7260
14837SOL    HW156984   6.127   7.803   2.139 -0.5386  0.0166  0.9303
14837SOL    HW256985   6.262   7.715   2.113 -1.3323 -0.5977 -1.2168
14838SOL     OW56986   7.161   5.621   6.496 -0.6927  0.5997 -0.4054
14838SOL    HW156987   7.203   5.531   6.507 -0.2625  0.8642  0.1435
14838SOL    HW256988   7.062   5.613   6.498 -0.6627  0.4017  1.9356
14839SOL     OW56989   3.952   4.577   2.473  0.0338  0.0555 -0.3204
14839SOL    HW156990   3.878   4.517   2.442 -1.4956  2.3426 -1.1701
14839SOL    HW256991   3.929   4.672   2.455  2.5016  0.9424  0.8715
14840SOL     OW56992   2.170   4.013   3.007  1.0679 -0.3798 -0.0436
14840SOL    HW156993   2.247   4.071   3.032 -0.8618  2.1922  0.0536
14840SOL    HW256994   2.093   4.031   3.068 -0.5675 -0.8387 -1.9172
14841SOL     OW56995   6.318   4.572   4.631  0.5943  0.5083  0.0419
14841SOL    HW156996   6.345   4.668   4.637  1.4470  0.2900 -0.2418
14841SOL    HW256997   6.237   4.564   4.573  0.6502  1.0293 -0.1072
14842SOL     OW56998   8.304   0.260   4.701  0.5213 -0.1114  0.2212
14842SOL    HW156999   8.229   0.325   4.690  2.1051  1.5707 -0.9268
14842SOL    HW257000   8.302   0.195   4.625 -0.4353 -0.7801  0.8059
14843SOL     OW57001   2.490   0.885   6.105 -0.9620 -0.2267  0.5721
14843SOL    HW157002   2.458   0.911   6.196  0.9119 -1.4837  1.6349
14843SOL    HW257003   2.587   0.859   6.110 -0.8600 -0.4076 -1.7634
14844SOL     OW57004   5.422   6.359   8.702  0.1993 -0.1445 -0.8282
14844SOL    HW157005   5.429   6.260   8.686  0.1898  0.0233 -1.8983
14844SOL    HW257006   5.514   6.396   8.716  0.2675 -0.1859 -1.1616
14845SOL     OW57007   4.772   5.014   0.137 -0.1712  0.2260 -0.2923
14845SOL    HW157008   4.826   4.932   0.119 -3.1534 -1.5332 -1.7582
14845SOL    HW257009   4.713   4.998   0.217 -1.3879  0.5697 -1.0964
14846SOL     OW57010   1.514   6.028   7.557 -0.2125 -0.1712  0.0727
14846SOL    HW157011   1.469   6.005   7.644 -0.4550 -1.9718 -0.4934
14846SOL    HW257012   1.494   5.956   7.490 -0.1463  1.2771 -1.5200
14847SOL     OW57013   7.101   1.301   0.289 -0.1166 -0.5246 -0.3248
14847SOL    HW157014   7.180   1.346   0.248 -0.5529  0.1801 -0.3921
14847SOL    HW257015   7.100   1.205   0.262  0.7819 -0.5689 -0.2249
14848SOL     OW57016   4.450   8.811   6.810  0.4052  1.0729  0.3130
14848SOL    HW157017   4.421   8.848   6.898  0.4384 -0.6009  1.0375
14848SOL    HW257018   4.383   8.745   6.777  0.6409  1.3139 -0.6811
14849SOL     OW57019   2.158   4.787   5.088  0.6048 -0.4314  0.3081
14849SOL    HW157020   2.201   4.726   5.154  0.8896 -0.1971  0.3360
14849SOL    HW257021   2.062   4.802   5.114 -0.2298 -2.9848 -1.1478
14850SOL     OW57022   7.834   4.553   0.259 -0.3145  0.0637  0.5975
14850SOL    HW157023   7.759   4.598   0.307  1.0530  0.6004  2.2831
14850SOL    HW257024   7.877   4.617   0.196 -0.0619  0.3050  1.0208
14851SOL     OW57025   2.225   4.355   0.424  0.9221  0.2868 -0.2922
14851SOL    HW157026   2.191   4.263   0.406  1.5141  0.2621 -1.3206
14851SOL    HW257027   2.155   4.422   0.397  0.5457  0.1528  0.3302
14852SOL     OW57028   1.525   2.079   4.556 -0.7159  0.0786 -0.0889
14852SOL    HW157029   1.474   2.157   4.521 -1.0579  0.5679  1.4615
14852SOL    HW257030   1.585   2.043   4.484 -1.6377  0.8434 -1.2544
14853SOL     OW57031   1.658   8.076   2.359  0.0808 -0.6493 -0.0765
14853SOL    HW157032   1.580   8.016   2.340  1.2611 -2.4738  0.6765
14853SOL    HW257033   1.627   8.171   2.361 -1.8025 -1.1934 -1.4678
14854SOL     OW57034   5.535   0.597   0.569  0.0602  0.3611 -0.4594
14854SOL    HW157035   5.510   0.691   0.546  1.5302  0.5239 -1.4990
14854SOL    HW257036   5.633   0.592   0.589  0.2931 -1.1837 -1.8357
14855SOL     OW57037   2.884   8.108   3.811 -0.1194 -0.7411  0.5535
14855SOL    HW157038   2.878   8.179   3.882  0.8578  0.4301 -0.5133
14855SOL    HW257039   2.792   8.078   3.787 -0.5427  0.0315  1.1555
14856SOL     OW57040   1.939   1.443   0.286 -0.3901  0.0018  0.0582
14856SOL    HW157041   1.954   1.346   0.265 -0.9495  0.1555 -1.0624
14856SOL    HW257042   1.881   1.451   0.366  0.3431 -0.5916  0.6617
14857SOL     OW57043   7.636   0.545   8.100  0.2755  0.1224  0.1172
14857SOL    HW157044   7.554   0.601   8.093  0.0573 -0.2630 -0.4254
14857SOL    HW257045   7.700   0.569   8.026  0.8535  0.7514  0.8176
14858SOL     OW57046   3.265   7.337   4.130  0.0852 -0.2708 -0.4866
14858SOL    HW157047   3.174   7.362   4.098 -0.1768  0.1876  0.5970
14858SOL    HW257048   3.328   7.333   4.052 -0.1425  2.4871 -0.8382
14859SOL     OW57049   2.798   8.777   6.227  0.2619 -0.1086  0.7339
14859SOL    HW157050   2.817   8.870   6.258 -0.0362  0.7410 -1.5417
14859SOL    HW257051   2.874   8.717   6.251  2.4403  1.6311 -1.4858
14860SOL     OW57052   4.225   0.520   6.768 -0.4614  0.1263 -0.1368
14860SOL    HW157053   4.132   0.482   6.767 -1.1006  1.6725  0.0247
14860SOL    HW257054   4.283   0.462   6.825 -1.6056 -0.2309  0.6992
14861SOL     OW57055   5.795   4.388   8.128  0.2141 -0.1550 -0.0741
14861SOL    HW157056   5.864   4.387   8.199 -2.1698  0.9739  2.3380
14861SOL    HW257057   5.762   4.295   8.111  0.8500 -0.4320  0.2217
14862SOL     OW57058   5.856   8.571   6.359  0.1710 -0.5197 -0.1669
14862SOL    HW157059   5.774   8.616   6.324  0.1680  0.5517  1.2038
14862SOL    HW257060   5.924   8.640   6.382 -0.2711 -1.1130  3.0643
14863SOL     OW57061   6.410   2.309   8.701  0.1007  0.4622  0.1518
14863SOL    HW157062   6.362   2.325   8.787 -0.3372 -2.9621  0.6058
14863SOL    HW257063   6.346   2.321   8.625 -1.0323 -2.1771  0.6461
14864SOL     OW57064   2.169   1.498   1.378 -0.1289 -0.1580 -0.2794
14864SOL    HW157065   2.176   1.504   1.477 -1.1409 -1.9634 -0.0719
14864SOL    HW257066   2.178   1.589   1.338 -1.1564  0.7669  1.5474
14865SOL     OW57067   5.587   4.205   1.474 -0.3270  0.3917  0.0776
14865SOL    HW157068   5.500   4.158   1.457 -0.1937 -0.3328  1.3652
14865SOL    HW257069   5.662   4.153   1.433 -0.5119  1.1807 -1.3125
14866SOL     OW57070   8.615   8.145   6.418 -0.6307  0.4817 -0.7646
14866SOL    HW157071   8.692   8.147   6.482  0.0829  0.7639 -1.6281
14866SOL    HW257072   8.633   8.208   6.343 -1.7916  0.6816 -0.8790
14867SOL     OW57073   4.698   4.306   6.509 -0.4422 -0.0045 -0.3937
14867SOL    HW157074   4.740   4.361   6.436 -0.4143  0.8426  0.2537
14867SOL    HW257075   4.630   4.361   6.558  0.4328 -0.1631  1.0257
14868SOL     OW57076   6.329   5.787   3.751  0.2037  0.0414  0.2441
14868SOL    HW157077   6.300   5.814   3.843  0.3981 -0.8807  0.5785
14868SOL    HW257078   6.254   5.740   3.705 -0.0212  0.8388 -0.2141
14869SOL     OW57079   7.461   1.508   5.963  0.5974 -0.6604  0.4168
14869SOL    HW157080   7.553   1.525   5.929  0.6086 -2.3337 -0.4620
14869SOL    HW257081   7.444   1.410   5.965 -1.5954 -0.3381 -0.6287
14870SOL     OW57082   3.109   2.071   5.793  0.2526  0.0291  0.1038
14870SOL    HW157083   3.156   1.984   5.779  0.8103  0.2585  0.5383
14870SOL    HW257084   3.143   2.114   5.876 -0.5027  0.3493  0.2520
14871SOL     OW57085   0.470   5.913   7.257  0.2591 -0.5050 -0.3763
14871SOL    HW157086   0.460   5.851   7.335  1.7474 -0.1429  0.1221
14871SOL    HW257087   0.387   5.967   7.247 -0.2504 -1.1159  0.4708
14872SOL     OW57088   8.988   6.099   4.588  0.5251  0.0913 -0.2885
14872SOL    HW157089   8.972   6.190   4.626 -1.9165  0.7374 -2.7040
14872SOL    HW257090   9.026   6.107   4.496  0.5260 -1.3201 -0.4233
14873SOL     OW57091   4.154   6.429   2.169  0.1123  0.5257  0.0531
14873SOL    HW157092   4.132   6.444   2.072 -0.4699 -1.1311 -0.0769
14873SOL    HW257093   4.070   6.438   2.223 -0.0141 -1.0369  0.1164
14874SOL     OW57094   5.897   8.491   8.302 -0.0721  0.4695  0.5724
14874SOL    HW157095   5.969   8.529   8.359 -0.6450 -1.0635  2.3729
14874SOL    HW257096   5.824   8.455   8.360 -0.1614 -2.0985 -1.0524
14875SOL     OW57097   6.943   4.686   8.526 -0.1504 -0.2931 -0.4368
14875SOL    HW157098   6.882   4.703   8.604  0.1230 -0.6102 -0.1530
14875SOL    HW257099   6.953   4.588   8.512 -1.2505 -0.2431 -1.7052
14876SOL     OW57100   3.094   1.786   3.831  0.1998 -0.7859  0.5201
14876SOL    HW157101   3.050   1.789   3.741  2.6513  1.8363 -0.6869
14876SOL    HW257102   3.027   1.810   3.901 -0.7880  1.3500 -1.0881
14877SOL     OW57103   8.250   8.266   4.636 -1.1478 -0.2789  0.0536
14877SOL    HW157104   8.237   8.365   4.644 -2.1467 -0.5944  2.8970
14877SOL    HW257105   8.347   8.245   4.627 -1.0700  1.0531 -2.7127
14878SOL     OW57106   8.182   1.507   7.034 -0.5688  0.9483  0.0350
14878SOL    HW157107   8.129   1.441   6.980 -1.7782  1.5393  0.4726
14878SOL    HW257108   8.279   1.488   7.023 -0.8354  0.2981 -1.3847
14879SOL     OW57109   2.569   0.366   6.927 -0.0893 -0.1745  0.1037
14879SOL    HW157110   2.565   0.390   6.830 -2.2353 -1.3062 -0.1155
14879SOL    HW257111   2.663   0.340   6.951  0.6893  1.1263 -1.3867
14880SOL     OW57112   6.065   0.644   3.429  0.4438 -0.0222  0.6129
14880SOL    HW157113   6.068   0.545   3.417 -0.2115 -0.0683  0.8188
14880SOL    HW257114   6.147   0.675   3.477  1.4752 -0.2539 -0.9579
14881SOL     OW57115   4.941   1.550   6.528 -0.3507  0.4530  0.1259
14881SOL    HW157116   5.013   1.502   6.578 -0.3880  0.6784  0.3946
14881SOL    HW257117   4.977   1.636   6.492 -0.8389  1.1646  1.3382
14882SOL     OW57118   6.951   0.775   7.853 -0.5435  0.3290 -0.1453
14882SOL    HW157119   6.884   0.781   7.779 -0.5719  0.3975 -0.1138
14882SOL    HW257120   7.021   0.708   7.829 -0.3112  0.6707 -0.4264
14883SOL     OW57121   3.173   5.686   7.234 -0.1217 -0.2395 -0.1303
14883SOL    HW157122   3.075   5.671   7.246 -0.2497  0.0474 -0.7969
14883SOL    HW257123   3.188   5.765   7.175  0.5270  0.2938  0.7391
14884SOL     OW57124   5.591   0.191   5.463  0.4876 -0.1381 -0.0148
14884SOL    HW157125   5.642   0.105   5.450 -0.4409 -0.5833 -0.7913
14884SOL    HW257126   5.504   0.186   5.414  1.2590  1.9890 -1.7090
14885SOL     OW57127   5.067   0.512   0.269  0.1806  0.5695 -0.3999
14885SOL    HW157128   5.136   0.584   0.269  0.2396  0.5133 -0.7018
14885SOL    HW257129   5.051   0.481   0.175  1.5637 -1.1669 -0.0717
14886SOL     OW57130   4.310   4.829   4.243 -0.4212  0.3347  0.2340
14886SOL    HW157131   4.312   4.735   4.277 -1.2273  0.9001  1.8727
14886SOL    HW257132   4.290   4.891   4.318  0.8264  1.8948 -0.7101
14887SOL     OW57133   6.685   8.366   6.694 -0.0559 -0.0866 -0.2870
14887SOL    HW157134   6.619   8.308   6.647  1.4197 -0.1037 -2.4234
14887SOL    HW257135   6.770   8.369   6.641  1.1624  1.0722  1.6716
14888SOL     OW57136   8.809   5.440   2.014 -0.5401 -0.3752  0.2362
14888SOL    HW157137   8.726   5.442   1.958 -0.7564 -1.1905  0.5168
14888SOL    HW257138   8.816   5.351   2.060  1.0736 -0.7471 -0.6846
14889SOL     OW57139   3.648   2.944   2.711  0.1944  0.5057 -0.0833
14889SOL    HW157140   3.631   2.955   2.809 -2.2709  0.9629 -0.5221
14889SOL    HW257141   3.706   3.019   2.679  0.7375  0.5361  0.9557
14890SOL     OW57142   2.791   8.163   2.037 -0.0050 -0.1212  0.4502
14890SOL    HW157143   2.804   8.069   2.068 -0.2854 -0.1638  0.4376
14890SOL    HW257144   2.709   8.168   1.980 -0.3458  0.2570  0.9723
14891SOL     OW57145   4.220   1.662   1.075 -1.0429 -0.4286 -0.5217
14891SOL    HW157146   4.285   1.591   1.048  0.2552  0.7836 -0.5886
14891SOL    HW257147   4.132   1.643   1.032 -0.4787 -1.5139 -1.2429
14892SOL     OW57148   5.266   1.151   6.015 -0.2346  0.1199 -0.1301
14892SOL    HW157149   5.253   1.189   6.107 -0.7454  0.0026 -0.1559
14892SOL    HW257150   5.358   1.175   5.983  0.3933 -0.8679  0.8950
14893SOL     OW57151   6.267   0.698   7.739 -0.0955  0.5960  0.0894
14893SOL    HW157152   6.210   0.739   7.810  0.8391 -0.3686  1.4195
14893SOL    HW257153   6.244   0.739   7.650 -2.7153  0.3431  0.6097
14894SOL     OW57154   8.415   7.607   2.287  0.0024  0.3053  0.3828
14894SOL    HW157155   8.472   7.638   2.364 -0.0298 -0.7849  0.8481
14894SOL    HW257156   8.337   7.555   2.322 -1.0531  1.4084 -0.2835
14895SOL     OW57157   2.001   7.122   5.806 -0.1555 -0.4649 -0.0046
14895SOL    HW157158   1.988   7.192   5.876 -0.9791 -0.1578 -0.4615
14895SOL    HW257159   2.058   7.158   5.732 -0.1420 -0.4521  0.0119
14896SOL     OW57160   0.461   1.505   1.464 -0.0933  0.1774 -0.0569
14896SOL    HW157161   0.495   1.571   1.398 -1.1465 -0.2116 -1.0195
14896SOL    HW257162   0.506   1.519   1.553  1.4332  0.6226 -0.8799
14897SOL     OW57163   7.798   3.280   2.505 -0.0532  0.2616 -0.2108
14897SOL    HW157164   7.718   3.255   2.559  1.6340  0.3895  2.4807
14897SOL    HW257165   7.846   3.198   2.476 -0.7959  0.1988 -1.2850
14898SOL     OW57166   8.619   7.177   8.861 -0.0437 -0.4002 -0.1754
14898SOL    HW157167   8.676   7.180   8.944 -0.1820  0.1509 -0.1031
14898SOL    HW257168   8.585   7.268   8.841  0.0628 -0.5209 -0.8957
14899SOL     OW57169   8.105   3.511   0.411  0.4021 -0.1049 -0.1052
14899SOL    HW157170   8.171   3.578   0.445 -0.5825  1.0776 -0.4706
14899SOL    HW257171   8.152   3.426   0.387  1.8299  0.8678 -0.7832
14900SOL     OW57172   6.823   0.200   8.754  0.0153 -0.0121  0.1046
14900SOL    HW157173   6.918   0.210   8.783 -0.2562  0.6084  0.7750
14900SOL    HW257174   6.769   0.277   8.788 -0.9112 -0.8175  0.4722
14901SOL     OW57175   2.242   1.381   0.049  0.5237 -0.0057  0.0163
14901SOL    HW157176   2.249   1.289   0.010  1.7550  0.2799 -0.4784
14901SOL    HW257177   2.289   1.382   0.138 -0.2159 -0.0659  0.4057
14902SOL     OW57178   0.630   4.451   0.695 -0.4667 -0.0012 -0.5159
14902SOL    HW157179   0.684   4.534   0.686 -1.0895  0.3414 -1.1536
14902SOL    HW257180   0.543   4.473   0.740  0.2568 -0.6942  1.2708
14903SOL     OW57181   0.228   7.860   4.362 -0.5545 -0.9277  0.4308
14903SOL    HW157182   0.172   7.858   4.279  0.5851 -1.2438 -0.3357
14903SOL    HW257183   0.316   7.815   4.345  1.2721  2.4225  0.6608
14904SOL     OW57184   3.587   3.914   7.860  0.1285  0.0194  0.6015
14904SOL    HW157185   3.570   3.820   7.889  2.1216 -0.2915  0.8921
14904SOL    HW257186   3.668   3.949   7.908  2.1119  0.3175 -2.7556
14905SOL     OW57187   5.992   4.864   5.234 -0.4701 -0.0397 -0.2044
14905SOL    HW157188   5.998   4.842   5.137 -0.1494  0.3310 -0.2715
14905SOL    HW257189   5.955   4.786   5.284 -0.8192 -0.1629 -0.6519
14906SOL     OW57190   0.651   8.289   3.169 -0.2893  0.0056  0.1474
14906SOL    HW157191   0.721   8.357   3.147  1.7037 -2.1178 -0.3260
14906SOL    HW257192   0.579   8.332   3.223  1.6671  2.1548  1.1696
14907SOL     OW57193   0.997   6.445   6.299  0.2204  0.2361 -0.2400
14907SOL    HW157194   1.092   6.448   6.331 -0.5646  0.1317  2.1787
14907SOL    HW257195   0.935   6.450   6.377 -1.7715 -1.1224 -1.6712
14908SOL     OW57196   2.189   6.183   6.913  0.0171 -0.4887 -0.5471
14908SOL    HW157197   2.111   6.246   6.916  1.9253  1.9313  0.0407
14908SOL    HW257198   2.229   6.174   7.004  2.3529  0.8636 -1.3838
14909SOL     OW57199   4.653   7.923   2.006  0.2408 -0.2247  0.7638
14909SOL    HW157200   4.616   7.857   1.940 -0.3763  0.0213  0.8609
14909SOL    HW257201   4.586   7.996   2.021  0.8313  0.3016  0.8304
14910SOL     OW57202   4.874   1.559   5.699 -0.4125 -0.1400  0.3354
14910SOL    HW157203   4.904   1.581   5.606 -0.9271 -0.1413  0.1646
14910SOL    HW257204   4.819   1.475   5.697  0.8208 -0.9675  0.8612
14911SOL     OW57205   4.391   2.289   0.348 -0.1126 -0.2366  0.6227
14911SOL    HW157206   4.350   2.199   0.363  2.6569 -1.2527  2.5338
14911SOL    HW257207   4.413   2.331   0.437 -0.8254  2.0742 -0.2602
14912SOL     OW57208   8.788   0.326   4.694  0.7952 -0.2609  0.5508
14912SOL    HW157209   8.699   0.371   4.693  0.7967 -0.2617 -1.0173
14912SOL    HW257210   8.800   0.277   4.780 -0.0643  1.0267  1.4181
14913SOL     OW57211   7.772   5.503   0.538  0.1533 -0.2090 -0.4707
14913SOL    HW157212   7.732   5.594   0.550  2.7568  0.8310  0.6724
14913SOL    HW257213   7.851   5.510   0.477  0.7963 -1.5760  0.1975
14914SOL     OW57214   2.414   1.489   5.199  0.0373  0.2542 -0.2486
14914SOL    HW157215   2.470   1.546   5.261  1.5409 -0.9770 -0.4472
14914SOL    HW257216   2.321   1.525   5.196 -0.1111  0.2599  2.8626
14915SOL     OW57217   3.771   0.681   0.239 -0.5978 -0.5768  0.1820
14915SOL    HW157218   3.798   0.588   0.213 -2.7723 -1.2293  0.1571
14915SOL    HW257219   3.733   0.729   0.160  1.1360  0.5785  0.0341
14916SOL     OW57220   2.661   5.461   6.299 -0.4783 -0.0513  0.5210
14916SOL    HW157221   2.677   5.393   6.371  1.0654  0.4908  0.7046
14916SOL    HW257222   2.575   5.441   6.253 -1.1823 -0.7683  2.1123
14917SOL     OW57223   7.161   7.183   6.475 -0.1506 -0.1180 -0.4309
14917SOL    HW157224   7.101   7.263   6.464  0.8770  1.0171  1.9694
14917SOL    HW257225   7.106   7.106   6.506 -0.3781  0.9707  1.9658
14918SOL     OW57226   0.870   4.693   2.378  0.7381 -0.6529  0.2377
14918SOL    HW157227   0.874   4.724   2.283  1.5730  0.9854  0.8034
14918SOL    HW257228   0.887   4.594   2.381 -1.8759 -1.2157 -1.5637
14919SOL     OW57229   5.335   2.287   5.511 -0.0936 -0.2841  0.2408
14919SOL    HW157230   5.269   2.294   5.436 -0.2040 -0.8305  0.2806
14919SOL    HW257231   5.297   2.328   5.594 -0.6735 -1.2201  0.4506
14920SOL     OW57232   5.059   1.818   6.458 -0.3829 -0.2089  0.2758
14920SOL    HW157233   5.034   1.860   6.371 -2.1772 -0.1079  0.8171
14920SOL    HW257234   5.079   1.890   6.525  1.6789 -0.2913 -0.2261
14921SOL     OW57235   3.931   2.550   7.873 -0.8377 -0.5533  0.3797
14921SOL    HW157236   3.899   2.633   7.827  1.6709 -0.1688 -0.7374
14921SOL    HW257237   3.958   2.573   7.967  2.2245  0.4443 -0.7075
14922SOL     OW57238   7.579   0.882   2.425  0.4911 -0.3324 -0.4323
14922SOL    HW157239   7.639   0.954   2.463 -0.8539  0.1817  0.7656
14922SOL    HW257240   7.566   0.811   2.494 -1.0925  0.0669 -0.3019
14923SOL     OW57241   1.954   0.392   3.674  0.1116  0.1939  0.0313
14923SOL    HW157242   1.995   0.480   3.696 -2.0546  1.5063 -0.9314
14923SOL    HW257243   1.895   0.364   3.749 -0.7453  0.5643 -0.4912
14924SOL     OW57244   7.357   2.677   8.027 -0.0524 -0.0108  0.2424
14924SOL    HW157245   7.363   2.740   7.950 -0.2187 -0.6241 -0.2812
14924SOL    HW257246   7.281   2.613   8.012 -2.3879  2.0522  2.5567
14925SOL     OW57247   0.820   6.015   0.560  0.1454 -0.1515  0.4230
14925SOL    HW157248   0.797   5.920   0.541 -0.7068 -0.1273  1.3023
14925SOL    HW257249   0.750   6.075   0.519  1.7274  0.2055 -1.8421
14926SOL     OW57250   8.107   7.731   3.748  0.3378  0.8659 -0.2275
14926SOL    HW157251   8.065   7.772   3.667 -3.1124 -2.5824 -0.3261
14926SOL    HW257252   8.183   7.672   3.719 -2.0320 -1.8025 -1.2467
14927SOL     OW57253   7.871   2.768   7.449 -0.3629  0.7795  0.6058
14927SOL    HW157254   7.853   2.795   7.354 -1.8001 -1.7842  0.0900
14927SOL    HW257255   7.945   2.701   7.450 -1.4149 -0.4011  1.0969
14928SOL     OW57256   7.112   8.159   4.839 -0.2999 -0.0909  0.3364
14928SOL    HW157257   7.127   8.230   4.908  0.7761 -0.5508  0.5898
14928SOL    HW257258   7.094   8.201   4.750  1.2964  0.4962  0.2831
14929SOL     OW57259   5.819   4.433   3.846 -0.5420 -0.4563  0.2111
14929SOL    HW157260   5.807   4.531   3.827  1.2905 -0.0593  0.9786
14929SOL    HW257261   5.830   4.420   3.944 -0.3016 -1.3901  0.0596
14930SOL     OW57262   4.437   0.746   8.666 -0.4262  0.1698 -0.2412
14930SOL    HW157263   4.464   0.842   8.656 -0.3688  0.1470 -0.3067
14930SOL    HW257264   4.511   0.696   8.711  0.8464 -0.4927 -2.9332
14931SOL     OW57265   3.182   0.044   3.574 -0.2470  0.9355  0.6901
14931SOL    HW157266   3.260  -0.004   3.614 -0.7196  1.0329  1.7341
14931SOL    HW257267   3.099  -0.008   3.591 -0.4441  0.9260 -0.2604
14932SOL     OW57268   3.869   3.704   0.490 -0.3301 -0.0718  0.2624
14932SOL    HW157269   3.888   3.728   0.585  3.2945 -0.0192 -0.3828
14932SOL    HW257270   3.842   3.786   0.440 -1.7136 -0.0039  1.0852
14933SOL     OW57271   0.123   8.011   8.030  0.1775 -0.1007  0.0306
14933SOL    HW157272   0.034   7.971   8.011 -0.5511  0.1116  2.8353
14933SOL    HW257273   0.111   8.103   8.067  1.6405  0.5163 -0.9490
14934SOL     OW57274   8.304   7.132   8.658 -0.4241  0.0562  0.3061
14934SOL    HW157275   8.267   7.120   8.566 -0.6183 -1.2116  0.5462
14934SOL    HW257276   8.402   7.110   8.657  0.0100  1.9022  0.0021
14935SOL     OW57277   6.855   5.251   1.580  0.4583  0.0803 -0.6642
14935SOL    HW157278   6.906   5.268   1.665  1.2666  1.7381 -1.4543
14935SOL    HW257279   6.757   5.251   1.599  0.6826 -4.2220  1.0801
14936SOL     OW57280   0.054   6.503   7.939  0.1169 -0.0540 -0.1276
14936SOL    HW157281  -0.029   6.559   7.950  1.0024  0.9906  1.3000
14936SOL    HW257282   0.066   6.481   7.842 -1.2306  0.7137 -0.4824
14937SOL     OW57283   7.959   4.213   0.399  0.2485  0.0963 -0.2192
14937SOL    HW157284   7.883   4.272   0.374  0.0932  0.8560  1.9215
14937SOL    HW257285   7.997   4.243   0.487 -0.3708 -3.4626  1.3644
14938SOL     OW57286   6.036   3.276   1.244 -0.1422  0.5291  0.8496
14938SOL    HW157287   5.964   3.331   1.288  0.1009  1.6384 -0.1081
14938SOL    HW257288   6.122   3.288   1.293  0.0343  1.4436  0.3390
14939SOL     OW57289   3.021   3.354   7.408 -0.5387  0.0313  0.0645
14939SOL    HW157290   3.050   3.284   7.342  1.0165 -0.2907  1.0328
14939SOL    HW257291   3.001   3.309   7.496  1.6671  0.8968  1.0503
14940SOL     OW57292   1.816   6.922   5.489 -0.4553 -0.0929  0.0218
14940SOL    HW157293   1.849   7.010   5.455 -1.1586 -0.2297 -1.0454
14940SOL    HW257294   1.878   6.849   5.460 -0.8219 -0.1560 -0.6252
14941SOL     OW57295   1.322   2.753   5.905 -0.1526 -0.0766  0.4483
14941SOL    HW157296   1.401   2.808   5.877 -0.3392 -1.0460 -2.0913
14941SOL    HW257297   1.353   2.668   5.947  0.1738 -1.0573 -1.7589
14942SOL     OW57298   6.042   8.714   6.504 -0.2057 -0.6862  0.1541
14942SOL    HW157299   6.002   8.746   6.590 -2.0603 -0.2613 -0.8296
14942SOL    HW257300   6.122   8.770   6.481 -0.2746 -0.1844  1.1089
14943SOL     OW57301   8.249   0.403   6.098  0.1246 -0.6873  0.4520
14943SOL    HW157302   8.277   0.307   6.091  0.7203 -0.7503  3.2679
14943SOL    HW257303   8.154   0.407   6.129 -0.0604 -0.3404 -0.1417
14944SOL     OW57304   0.759   2.377   8.218  0.0254  0.4149  0.5549
14944SOL    HW157305   0.786   2.373   8.122 -0.7398  1.7772  0.2720
14944SOL    HW257306   0.789   2.294   8.265  3.0327  1.0403 -0.1694
14945SOL     OW57307   5.275   5.661   4.383  0.4029 -0.1962 -0.5201
14945SOL    HW157308   5.233   5.629   4.298  0.5473  0.6682 -0.9232
14945SOL    HW257309   5.298   5.758   4.374 -0.8489  0.2713  0.9931
14946SOL     OW57310   2.154   1.587   4.394 -0.2767 -0.2497 -0.2717
14946SOL    HW157311   2.212   1.587   4.313 -0.8680  3.1620 -0.7517
14946SOL    HW257312   2.058   1.592   4.366 -0.4989  0.5760  0.6030
14947SOL     OW57313   3.932   8.962   6.175 -0.1363  0.0315 -0.3147
14947SOL    HW157314   3.919   8.908   6.258  0.7092  1.1747  0.5827
14947SOL    HW257315   3.854   8.948   6.114 -0.3241 -1.5339  0.2643
14948SOL     OW57316   2.480   0.183   1.396  0.2021 -0.4369 -0.1567
14948SOL    HW157317   2.526   0.271   1.412 -0.5373 -0.1480  0.4177
14948SOL    HW257318   2.531   0.131   1.327  1.0546  0.1266  0.0386
14949SOL     OW57319   3.151   8.160   7.157 -0.0865  0.4850 -0.4918
14949SOL    HW157320   3.063   8.174   7.203  0.3597 -0.6798  0.7168
14949SOL    HW257321   3.190   8.249   7.133 -0.9299  1.0558  0.2230
14950SOL     OW57322   4.382   5.658   1.119 -0.8187 -0.3752 -0.2864
14950SOL    HW157323   4.452   5.717   1.078 -0.3288 -0.4086  0.4956
14950SOL    HW257324   4.348   5.700   1.203 -1.4739 -0.5355 -0.4738
14951SOL     OW57325   7.623   3.987   2.539  0.3388 -0.2376 -0.2846
14951SOL    HW157326   7.581   3.944   2.459  1.3774  0.9047 -1.4404
14951SOL    HW257327   7.584   4.078   2.553  0.4933 -0.2484  0.2491
14952SOL     OW57328   1.809   8.662   1.600 -0.0891  0.1906 -0.5122
14952SOL    HW157329   1.783   8.688   1.508  0.3276 -0.3006 -0.7710
14952SOL    HW257330   1.727   8.649   1.656 -0.3218  1.5910 -0.4953
14953SOL     OW57331   8.725   5.896   6.624 -0.5035  0.7077  0.2628
14953SOL    HW157332   8.695   5.877   6.717 -2.6592 -0.3857 -0.6368
14953SOL    HW257333   8.657   5.863   6.559  0.9789  1.4438 -1.7182
14954SOL     OW57334   8.833   1.158   5.480  0.6958  0.1638  0.0032
14954SOL    HW157335   8.885   1.238   5.448 -0.8605  0.6137 -1.4535
14954SOL    HW257336   8.888   1.076   5.468  1.2375  0.6758 -1.1420
14955SOL     OW57337   1.704   2.430   7.533 -0.1640  0.3298 -0.6761
14955SOL    HW157338   1.640   2.504   7.555 -0.9891 -0.7037  0.4536
14955SOL    HW257339   1.760   2.457   7.455  0.6626  2.8260  0.7030
14956SOL     OW57340   1.885   7.578   2.744 -0.2771  0.0245  0.2933
14956SOL    HW157341   1.920   7.497   2.792 -1.4025 -0.3459  0.5093
14956SOL    HW257342   1.957   7.646   2.737  1.3391 -1.8371 -1.8091
14957SOL     OW57343   7.962   4.130   7.701 -0.3532 -0.2118  0.7479
14957SOL    HW157344   7.983   4.084   7.787  0.7814 -0.9116  0.0997
14957SOL    HW257345   7.896   4.076   7.649  1.0721 -1.1988 -0.0696
14958SOL     OW57346   7.275   6.362   8.433  0.7264  0.2649  0.2065
14958SOL    HW157347   7.229   6.450   8.431  2.2787  1.1422  1.3491
14958SOL    HW257348   7.312   6.341   8.342 -0.3721  0.3809 -0.2705
14959SOL     OW57349   8.457   1.915   7.239 -0.2018 -0.0569  0.1050
14959SOL    HW157350   8.371   1.959   7.214 -0.4270 -0.4249  0.2362
14959SOL    HW257351   8.515   1.906   7.157  0.1485  1.1445  0.2025
14960SOL     OW57352   6.671   3.691   1.479  0.0659  0.1613 -0.0428
14960SOL    HW157353   6.713   3.626   1.542  2.1316  0.1942 -1.3581
14960SOL    HW257354   6.658   3.779   1.524  1.0714  0.0341  0.4878
14961SOL     OW57355   2.427   8.248   3.396  0.7151  0.3450  0.1441
14961SOL    HW157356   2.525   8.228   3.390  0.6515  0.0138  0.2009
14961SOL    HW257357   2.379   8.169   3.433  0.5580  0.8631  1.0811
14962SOL     OW57358   1.280   1.580   1.623  0.0751  0.2699 -0.2210
14962SOL    HW157359   1.209   1.520   1.587  0.1613 -0.6648  1.1100
14962SOL    HW257360   1.240   1.668   1.649 -0.4358  0.0526 -0.2707
14963SOL     OW57361   4.714   4.605   1.931 -0.0183  0.1507 -0.5658
14963SOL    HW157362   4.721   4.573   2.026 -2.2133  0.2074 -0.3546
14963SOL    HW257363   4.741   4.532   1.869  0.0371 -0.3798  0.0722
14964SOL     OW57364   3.947   5.148   1.823  0.1918 -0.0315 -0.5655
14964SOL    HW157365   3.929   5.244   1.801 -2.4333 -0.3027  0.2720
14964SOL    HW257366   3.999   5.106   1.749 -0.5505  1.4602 -1.9493
14965SOL     OW57367   2.999   7.073   5.574 -0.2811 -0.3238  0.7682
14965SOL    HW157368   2.969   7.119   5.491  0.3105  0.2021  0.8449
14965SOL    HW257369   3.040   6.985   5.551  1.1115  0.4128  0.3781
14966SOL     OW57370   6.305   2.128   8.016  0.0743  0.3429 -0.4044
14966SOL    HW157371   6.382   2.175   7.973 -0.1281 -1.2367 -2.5628
14966SOL    HW257372   6.238   2.196   8.046  1.1613  1.5926 -0.7234
14967SOL     OW57373   7.021   6.230   3.693 -0.4451 -0.1597  0.0931
14967SOL    HW157374   6.946   6.250   3.630 -1.5932 -2.5378  0.6683
14967SOL    HW257375   7.103   6.205   3.641 -0.3866  1.2123 -0.5054
14968SOL     OW57376   1.206   6.816   4.263 -0.4373  0.7224  0.2327
14968SOL    HW157377   1.141   6.888   4.287 -0.4482  1.1450 -1.0201
14968SOL    HW257378   1.186   6.734   4.316 -1.5078  1.0956  0.4209
14969SOL     OW57379   3.530   6.130   5.610 -0.7663 -0.5259  0.2825
14969SOL    HW157380   3.438   6.128   5.570 -0.9069 -1.7559  0.6544
14969SOL    HW257381   3.584   6.056   5.572  0.9657  1.7893 -1.9600
14970SOL     OW57382   0.576   6.315   6.792 -0.1024  0.4434 -0.3140
14970SOL    HW157383   0.602   6.406   6.825 -0.6834  0.6221 -0.3289
14970SOL    HW257384   0.499   6.324   6.729 -1.0093 -0.1775  0.6909
14971SOL     OW57385   0.693   5.538   5.972  0.1280 -0.2160  0.3142
14971SOL    HW157386   0.716   5.453   6.019 -0.8370 -0.0611  1.0867
14971SOL    HW257387   0.685   5.612   6.039 -1.1736  0.0277 -0.1102
14972SOL     OW57388   8.150   4.996   3.065  0.1624  0.4509  0.4342
14972SOL    HW157389   8.133   4.917   3.005  0.9913  0.1647  0.5675
14972SOL    HW257390   8.143   4.968   3.160 -1.7067  1.0318  0.4868
14973SOL     OW57391   8.824   2.572   5.631  0.2184 -0.1500 -0.2575
14973SOL    HW157392   8.834   2.509   5.554  0.9108  0.5687 -0.7717
14973SOL    HW257393   8.831   2.666   5.597 -1.5360  0.2287  0.3827
14974SOL     OW57394   0.849   6.787   4.544 -0.0738  0.6259  0.1126
14974SOL    HW157395   0.871   6.871   4.493  0.4766 -1.3942 -3.1521
14974SOL    HW257396   0.933   6.734   4.558 -0.4637  0.4536  1.9110
14975SOL     OW57397   6.697   8.251   7.714 -0.1873  0.5365  0.7893
14975SOL    HW157398   6.655   8.330   7.668  0.3786  0.1063 -0.5051
14975SOL    HW257399   6.631   8.176   7.719 -0.1697  0.4931  0.4193
14976SOL     OW57400   4.694   2.653   7.269  0.4436 -0.4628  0.0114
14976SOL    HW157401   4.764   2.721   7.249 -0.0990 -0.0094 -0.3374
14976SOL    HW257402   4.647   2.677   7.354 -1.1333  0.7053 -1.1849
14977SOL     OW57403   7.465   4.137   5.534  0.4323  0.8254 -0.1202
14977SOL    HW157404   7.377   4.141   5.488  0.6335 -3.8431 -1.1667
14977SOL    HW257405   7.538   4.139   5.466  1.0156  1.1069  0.5058
14978SOL     OW57406   4.651   0.378   0.369 -0.2363  0.0783 -0.2436
14978SOL    HW157407   4.694   0.304   0.420 -1.6933 -1.4454 -1.1893
14978SOL    HW257408   4.579   0.420   0.425 -1.2019 -0.9811 -0.6663
14979SOL     OW57409   1.844   8.395   0.379  0.5283  0.6574  0.6989
14979SOL    HW157410   1.861   8.418   0.474  0.9853 -1.5312  1.1756
14979SOL    HW257411   1.901   8.317   0.352 -0.3808  0.5545 -1.0450
14980SOL     OW57412   8.447   3.047   6.250 -0.0648  0.2627 -0.4264
14980SOL    HW157413   8.354   3.023   6.276  0.3863 -1.0313  0.0675
14980SOL    HW257414   8.501   2.963   6.241  0.9562  0.9794 -1.0517
14981SOL     OW57415   8.873   5.330   1.211  0.1148 -0.2160 -0.1436
14981SOL    HW157416   8.790   5.383   1.193  1.5682  2.2141  0.2224
14981SOL    HW257417   8.906   5.291   1.125  1.3327  2.9254 -1.1657
14982SOL     OW57418   7.117   6.747   4.284 -0.3615  0.3439  0.1257
14982SOL    HW157419   7.213   6.772   4.292 -0.7646  1.3703  2.2282
14982SOL    HW257420   7.060   6.824   4.314 -1.7880 -0.8265  0.4936
14983SOL     OW57421   7.923   2.277   1.929  0.1918 -0.1678 -0.0754
14983SOL    HW157422   7.979   2.325   1.861  0.3523  1.1896  1.0016
14983SOL    HW257423   7.830   2.266   1.893 -0.5980  3.3420  0.6549
14984SOL     OW57424   4.394   2.556   7.590 -0.1575 -0.0788  0.3090
14984SOL    HW157425   4.306   2.528   7.552 -1.2330  3.3116  0.1059
14984SOL    HW257426   4.451   2.596   7.518  0.6766 -0.2543  0.8581
14985SOL     OW57427   4.753   0.110   0.696 -0.7240 -0.1832 -0.4305
14985SOL    HW157428   4.764   0.036   0.763 -2.6182 -2.1221 -2.2042
14985SOL    HW257429   4.693   0.180   0.735  1.4843  0.7270  1.4552
14986SOL     OW57430   5.215   3.906   1.927 -0.6988 -0.2371 -0.0738
14986SOL    HW157431   5.246   3.998   1.904 -1.8285  0.0406 -0.4882
14986SOL    HW257432   5.133   3.912   1.983  1.9894 -0.8631  4.1911
14987SOL     OW57433   3.876   8.935   2.124  0.1882  0.7187 -0.4689
14987SOL    HW157434   3.807   8.965   2.190 -0.0791  0.3457 -0.5790
14987SOL    HW257435   3.967   8.959   2.158  0.0041  1.3060 -0.3713
14988SOL     OW57436   1.310   8.933   4.667  0.0597  0.2193  0.2598
14988SOL    HW157437   1.409   8.915   4.672  0.3810  1.1362 -1.8480
14988SOL    HW257438   1.290   9.020   4.711  0.2280  0.1149  0.5425
14989SOL     OW57439   0.163   2.380   5.390 -0.0222 -0.4145 -0.2863
14989SOL    HW157440   0.161   2.479   5.402 -1.1584 -0.6092  1.3598
14989SOL    HW257441   0.213   2.357   5.306  4.4033  1.3154  1.7365
14990SOL     OW57442   7.818   7.843   7.365 -0.2321 -0.5863 -0.2885
14990SOL    HW157443   7.779   7.868   7.276 -1.1266 -1.1227 -0.0501
14990SOL    HW257444   7.867   7.921   7.403  0.0325 -0.3077 -1.1839
14991SOL     OW57445   8.740   8.446   8.871  0.1074 -0.2610 -0.0716
14991SOL    HW157446   8.814   8.492   8.921 -0.2952 -0.6669  0.9028
14991SOL    HW257447   8.695   8.380   8.931  1.0363 -2.3483 -1.6416
14992SOL     OW57448   6.873   6.765   0.258  0.2288  0.4111  0.3914
14992SOL    HW157449   6.944   6.824   0.219 -0.6814  2.3680  1.5968
14992SOL    HW257450   6.819   6.725   0.185  3.5020 -2.3682 -0.6177
14993SOL     OW57451   7.115   3.777   3.243  1.1636 -0.4691  0.5527
14993SOL    HW157452   7.148   3.846   3.179  1.5557 -2.4513 -1.4261
14993SOL    HW257453   7.040   3.815   3.298  2.8207  2.2098  1.0525
14994SOL     OW57454   5.913   6.086   2.041 -0.4560 -0.1200 -0.0864
14994SOL    HW157455   5.826   6.111   2.084  0.1126 -0.3259  1.2117
14994SOL    HW257456   5.984   6.081   2.111 -0.0538 -3.1232 -0.6474
14995SOL     OW57457   5.197   4.017   8.850 -0.0726 -0.1224 -0.1873
14995SOL    HW157458   5.115   4.061   8.815  0.7181  0.0666 -1.8761
14995SOL    HW257459   5.172   3.944   8.913 -1.6236 -1.4772 -2.3086
14996SOL     OW57460   6.701   0.034   6.588 -0.1043 -0.1747 -0.1939
14996SOL    HW157461   6.619   0.092   6.595  0.4168  0.6480 -0.8049
14996SOL    HW257462   6.737   0.016   6.679 -0.5070  0.1216  0.0259
14997SOL     OW57463   7.495   7.269   0.117  0.3047 -0.2793 -0.0249
14997SOL    HW157464   7.582   7.277   0.166  1.4128 -0.3613 -1.9339
14997SOL    HW257465   7.456   7.361   0.106  0.2319 -0.2216  0.6815
14998SOL     OW57466   5.277   7.732   7.445  0.1022 -0.2306  0.0611
14998SOL    HW157467   5.354   7.720   7.382 -0.4960  0.8854 -0.9148
14998SOL    HW257468   5.224   7.647   7.450  0.3041 -0.4127 -0.7661
14999SOL     OW57469   2.685   2.924   4.580 -0.2604  0.3306 -0.4225
14999SOL    HW157470   2.743   2.993   4.538  0.1745  0.8753  1.0201
14999SOL    HW257471   2.641   2.963   4.661 -1.0537 -0.6843 -0.3556
15000SOL     OW57472   7.067   3.149   2.838  0.0299 -0.0287  0.1851
15000SOL    HW157473   6.979   3.189   2.812 -1.5165 -2.5980  1.3221
15000SOL    HW257474   7.118   3.215   2.894 -1.0766  1.5427 -0.6135
15001SOL     OW57475   5.151   4.237   4.418  0.1264 -0.6761  0.1455
15001SOL    HW157476   5.248   4.260   4.424  0.1759 -0.9905  0.5719
15001SOL    HW257477   5.109   4.244   4.509 -0.6032  0.9835 -0.2954
15002SOL     OW57478   4.753   3.586   6.072  0.1070 -0.2461  0.3007
15002SOL    HW157479   4.831   3.579   6.010  0.4961  1.4386  0.5585
15002SOL    HW257480   4.764   3.522   6.147  1.6316  0.4788  0.7207
15003SOL     OW57481   6.213   5.446   0.842 -0.1626 -0.4490 -0.4159
15003SOL    HW157482   6.283   5.435   0.912 -1.7322 -1.6709  1.0096
15003SOL    HW257483   6.226   5.376   0.771  0.2322 -0.5046 -0.2898
15004SOL     OW57484   4.947   4.750   0.095 -0.0901 -0.0410  0.3112
15004SOL    HW157485   4.859   4.723   0.135 -0.9586  2.4208  0.1662
15004SOL    HW257486   4.955   4.709   0.004 -1.4340  0.2940  0.0234
15005SOL     OW57487   6.476   6.882   0.136  0.4336 -0.5825  0.2696
15005SOL    HW157488   6.548   6.932   0.088  1.3987 -1.6034  0.6272
15005SOL    HW257489   6.473   6.787   0.103 -1.7334 -0.1702 -0.7921
15006SOL     OW57490   7.638   1.024   0.512 -0.2188 -0.3862  0.0180
15006SOL    HW157491   7.731   1.047   0.482  0.8747 -0.4623  3.1546
15006SOL    HW257492   7.596   0.961   0.447  1.8614 -0.1701 -1.5646
15007SOL     OW57493   4.052   4.461   3.948 -0.8051  0.3141  0.1211
15007SOL    HW157494   3.957   4.430   3.936 -0.0036 -1.8186 -1.0988
15007SOL    HW257495   4.066   4.546   3.897 -1.7365 -0.0176 -0.7135
15008SOL     OW57496   5.130   6.702   2.406 -0.0843 -0.0583 -0.0014
15008SOL    HW157497   5.161   6.615   2.367  0.0471  0.2821 -0.6620
15008SOL    HW257498   5.043   6.728   2.364 -0.0660  0.1844  0.1105
15009SOL     OW57499   4.327   4.246   6.743 -0.8333  0.3013  0.0109
15009SOL    HW157500   4.396   4.194   6.691 -1.4851  0.4586 -1.0407
15009SOL    HW257501   4.262   4.182   6.785 -0.8069  0.2015 -0.0967
15010SOL     OW57502   4.946   3.861   1.172  0.1900 -0.0209 -0.6826
15010SOL    HW157503   5.009   3.934   1.199  0.1536  0.3349 -1.5268
15010SOL    HW257504   4.998   3.777   1.156  0.3792  0.1190 -0.8122
15011SOL     OW57505   8.932   5.977   1.574 -0.1427 -0.7196  0.0229
15011SOL    HW157506   8.945   5.931   1.486  0.4955  0.6150 -0.5942
15011SOL    HW257507   8.870   6.054   1.563  1.8228  0.9322  0.2060
15012SOL     OW57508   4.157   7.813   5.789  0.0965 -0.1865  0.2665
15012SOL    HW157509   4.141   7.861   5.703  2.0657  0.2195  0.1106
15012SOL    HW257510   4.125   7.869   5.865  0.8303  0.6304 -0.0282
15013SOL     OW57511   3.056   4.631   1.086  0.2459  0.2501  0.2061
15013SOL    HW157512   3.005   4.560   1.135 -0.5142 -0.3034 -1.3415
15013SOL    HW257513   3.101   4.692   1.152  1.2275 -1.8826  1.5730
15014SOL     OW57514   6.488   1.865   7.145  0.1851  0.3012 -0.2913
15014SOL    HW157515   6.536   1.781   7.120  1.9205  0.9480  0.7692
15014SOL    HW257516   6.504   1.935   7.075 -0.5643  0.0062 -0.7557
15015SOL     OW57517   3.330   3.385   2.543 -0.0770 -0.4618 -0.3388
15015SOL    HW157518   3.426   3.381   2.515  0.0022 -1.2915  0.0359
15015SOL    HW257519   3.278   3.441   2.478  0.8450  0.8262  0.0071
15016SOL     OW57520   0.292   3.278   4.489  0.3030 -0.4542  0.1377
15016SOL    HW157521   0.258   3.207   4.551 -0.7192 -0.4004 -0.3483
15016SOL    HW257522   0.288   3.246   4.395 -1.2118  0.6279 -0.1921
15017SOL     OW57523   0.153   6.654   0.646 -0.3049  0.0197 -0.7191
15017SOL    HW157524   0.206   6.722   0.596  0.7867  0.8857  1.5565
15017SOL    HW257525   0.212   6.577   0.671 -0.8904 -0.5122 -0.9489
15018SOL     OW57526   4.384   1.981   1.004  0.0253 -0.0859 -0.1386
15018SOL    HW157527   4.367   1.939   1.093 -0.3666 -1.3874 -0.8196
15018SOL    HW257528   4.387   1.910   0.933 -0.0268  0.9659 -1.2158
15019SOL     OW57529   8.410   3.366   0.174  0.2669  0.0572  0.1367
15019SOL    HW157530   8.487   3.308   0.150  0.6439  0.5375  0.1834
15019SOL    HW257531   8.375   3.338   0.264 -0.1836 -0.7431 -0.2858
15020SOL     OW57532   6.737   2.986   2.038 -0.2653 -0.1717 -0.2953
15020SOL    HW157533   6.799   3.015   2.112  1.1224 -1.7534 -0.8064
15020SOL    HW257534   6.753   3.043   1.957  1.0708 -1.0487 -0.6675
15021SOL     OW57535   7.864   2.391   7.018  0.6264  0.0776 -0.1076
15021SOL    HW157536   7.847   2.445   6.935  0.0913 -0.6515 -0.4735
15021SOL    HW257537   7.808   2.428   7.093  1.0743  0.7059 -0.0720
15022SOL     OW57538   2.783   3.645   3.630 -0.5600 -0.1365  0.6416
15022SOL    HW157539   2.794   3.644   3.729  0.6157 -1.5134  0.5070
15022SOL    HW257540   2.774   3.552   3.596  1.0072  0.1894 -0.7578
15023SOL     OW57541   3.708   7.872   0.286  0.3861 -0.8888 -0.0529
15023SOL    HW157542   3.775   7.946   0.290  0.2500 -0.7596 -0.1170
15023SOL    HW257543   3.728   7.811   0.209  0.0379 -0.4651 -0.4867
15024SOL     OW57544   4.219   4.432   3.620 -0.5538  0.2630  0.3485
15024SOL    HW157545   4.318   4.418   3.616 -0.5822  0.5745 -2.4595
15024SOL    HW257546   4.181   4.426   3.528 -3.0106  1.2150  1.2648
15025SOL     OW57547   6.773   3.671   5.566  0.0517  0.2486  0.3315
15025SOL    HW157548   6.838   3.610   5.521 -0.5691  0.0880 -0.3731
15025SOL    HW257549   6.682   3.628   5.567 -0.2648  0.9057  0.3653
15026SOL     OW57550   3.540   8.753   5.329  0.2164  0.2296 -0.3308
15026SOL    HW157551   3.531   8.690   5.252  1.1444  0.2380 -0.4611
15026SOL    HW257552   3.453   8.761   5.376  0.1288 -1.3270 -0.1808
15027SOL     OW57553   0.323   0.306   8.587  0.6395  0.7844 -0.6100
15027SOL    HW157554   0.332   0.397   8.547 -0.0245  0.1087 -2.3277
15027SOL    HW257555   0.319   0.238   8.514 -1.7296 -0.3769  0.5758
15028SOL     OW57556   3.539   8.569   0.538 -0.6439  0.0894 -0.0248
15028SOL    HW157557   3.633   8.597   0.516  0.4360 -3.0211  0.3936
15028SOL    HW257558   3.507   8.620   0.618  0.7368  1.0671 -0.0704
15029SOL     OW57559   1.092   4.403   8.250  1.1374 -0.0643 -0.0288
15029SOL    HW157560   1.183   4.395   8.210  0.3492  1.6211 -2.2303
15029SOL    HW257561   1.057   4.496   8.236 -1.7475 -1.2543 -1.0936
15030SOL     OW57562   6.931   0.920   1.005  0.2699 -0.4548 -0.2969
15030SOL    HW157563   6.991   0.852   1.048 -0.4347 -1.1878 -0.4613
15030SOL    HW257564   6.970   0.947   0.917  1.1682  0.2527  0.3113
15031SOL     OW57565   6.680   8.960   8.417 -0.2797  0.0620  0.3307
15031SOL    HW157566   6.718   8.868   8.420 -0.1097  0.1757  2.2401
15031SOL    HW257567   6.580   8.955   8.411 -0.2997 -0.2576  0.8642
15032SOL     OW57568   5.330   3.291   8.647  0.1896  0.2259  0.8466
15032SOL    HW157569   5.279   3.328   8.725 -0.1688 -1.1722  1.2818
15032SOL    HW257570   5.419   3.258   8.678  0.0132 -0.4074  0.6759
15033SOL     OW57571   0.157   6.932   6.879 -0.2289  0.3311 -0.1164
15033SOL    HW157572   0.138   6.841   6.916 -0.9383  0.8784  0.8862
15033SOL    HW257573   0.083   6.960   6.818  0.1112  0.1348 -0.6218
15034SOL     OW57574   2.652   3.716   0.965 -0.0457 -0.3352 -0.0484
15034SOL    HW157575   2.646   3.661   1.048  0.1098  1.6942  1.3172
15034SOL    HW257576   2.605   3.803   0.978  1.1567  0.5876 -1.5943
15035SOL     OW57577   1.045   5.537   1.420 -0.6542  0.5426  0.3908
15035SOL    HW157578   1.014   5.556   1.513 -1.8989  1.7280 -0.2503
15035SOL    HW257579   1.010   5.607   1.358  1.6036  0.7418 -0.7015
15036SOL     OW57580   5.786   5.586   6.122 -0.3007  0.1906 -0.1241
15036SOL    HW157581   5.864   5.530   6.149 -0.5563  1.1244  2.6757
15036SOL    HW257582   5.715   5.527   6.083  0.8389 -0.9601 -0.5057
15037SOL     OW57583   5.298   7.925   7.835 -0.3775 -0.5355 -0.2082
15037SOL    HW157584   5.217   7.884   7.878 -1.0275  2.6423  1.7323
15037SOL    HW257585   5.369   7.938   7.904  0.8883 -1.0472 -1.4113
15038SOL     OW57586   7.286   7.588   8.341  0.2942  0.2013 -0.2205
15038SOL    HW157587   7.335   7.650   8.401  0.9145 -0.6600  0.1716
15038SOL    HW257588   7.331   7.499   8.341 -1.1847 -0.5524  0.0209
15039SOL     OW57589   2.062   4.364   6.145  0.4518  0.2685  0.1041
15039SOL    HW157590   2.082   4.297   6.074  0.4589  0.1988  0.1721
15039SOL    HW257591   2.092   4.329   6.234 -1.7618 -0.6683  0.4942
15040SOL     OW57592   1.620   0.109   2.779  0.0170  0.3404 -0.5555
15040SOL    HW157593   1.712   0.148   2.789 -0.3272  1.1208 -0.4401
15040SOL    HW257594   1.553   0.183   2.774 -0.6799 -0.2456  0.1307
15041SOL     OW57595   4.295   1.318   5.369 -0.1391 -0.5191  0.3208
15041SOL    HW157596   4.233   1.375   5.422 -0.6009 -0.5610 -0.1624
15041SOL    HW257597   4.383   1.310   5.416 -0.1479  0.4139  0.4884
15042SOL     OW57598   5.956   0.909   8.812  0.2296 -0.0462 -0.0554
15042SOL    HW157599   5.982   0.868   8.899 -1.7859 -1.9106 -0.3011
15042SOL    HW257600   6.024   0.885   8.743  1.9188  1.5653  0.9974
15043SOL     OW57601   0.744   2.806   6.234 -0.0189 -0.1206  0.7718
15043SOL    HW157602   0.841   2.795   6.252 -0.4480 -1.0105  2.7719
15043SOL    HW257603   0.710   2.885   6.285 -0.4333 -0.1017  0.4672
15044SOL     OW57604   8.510   7.436   3.307 -0.1074  0.7553 -0.2105
15044SOL    HW157605   8.496   7.492   3.226 -2.2126 -0.6714 -0.8705
15044SOL    HW257606   8.558   7.352   3.282 -0.3281  0.5276  0.1292
15045SOL     OW57607   2.855   1.418   4.395 -0.0820  0.2378 -0.1452
15045SOL    HW157608   2.828   1.323   4.382 -0.6507  0.2836  0.5883
15045SOL    HW257609   2.954   1.426   4.397 -0.0095 -0.7072  2.1290
15046SOL     OW57610   2.130   0.070   3.791 -0.6614  0.2463  0.1822
15046SOL    HW157611   2.093   0.108   3.876  1.3790  0.7574  0.8748
15046SOL    HW257612   2.210   0.014   3.812 -0.4993 -0.1103 -1.3571
15047SOL     OW57613   8.985   4.582   5.632  0.0570 -0.0702  0.2785
15047SOL    HW157614   9.069   4.574   5.578 -1.6799 -1.1152 -2.3879
15047SOL    HW257615   8.939   4.668   5.609  0.2436  0.3781  1.5375
15048SOL     OW57616   0.618   0.422   7.577  0.5911 -0.2208  0.0202
15048SOL    HW157617   0.686   0.394   7.510 -1.1840 -2.2857 -0.9852
15048SOL    HW257618   0.561   0.495   7.539  1.1300  0.2970  0.2044
15049SOL     OW57619   3.336   5.499   7.296 -0.8684  0.1017 -0.4099
15049SOL    HW157620   3.341   5.457   7.206 -2.2432  1.3609 -1.1061
15049SOL    HW257621   3.275   5.578   7.292  1.4120  1.9920  0.9355
15050SOL     OW57622   4.454   1.682   0.320 -0.2664 -0.4933  0.6938
15050SOL    HW157623   4.462   1.777   0.291 -1.4730 -0.2543  1.1297
15050SOL    HW257624   4.362   1.665   0.354 -0.0919 -1.8525  0.5101
15051SOL     OW57625   3.928   2.597   2.377  0.4775 -0.3782 -0.3795
15051SOL    HW157626   3.914   2.667   2.447 -0.7653  0.4966 -1.4847
15051SOL    HW257627   3.855   2.530   2.382  1.3594 -1.2960  0.3064
15052SOL     OW57628   6.489   8.040   7.657  0.4724  0.0529  0.3595
15052SOL    HW157629   6.442   8.007   7.575  1.5382 -0.1517 -0.1800
15052SOL    HW257630   6.450   7.996   7.738  2.5910 -3.4487 -0.4121
15053SOL     OW57631   0.683   6.471   2.866 -0.1544 -0.5425  0.2013
15053SOL    HW157632   0.782   6.484   2.860 -0.2997  0.9379  0.8893
15053SOL    HW257633   0.652   6.418   2.787  0.8145  1.3124 -1.4626
15054SOL     OW57634   4.745   5.922   1.177  0.1692  0.7454 -0.0952
15054SOL    HW157635   4.843   5.926   1.159  0.0783  1.1725 -0.5064
15054SOL    HW257636   4.706   6.014   1.169 -0.4103  0.4442 -0.7835
15055SOL     OW57637   8.646   3.241   3.913 -0.3316  0.1943 -0.0886
15055SOL    HW157638   8.554   3.271   3.942 -0.2842 -1.6010  2.0704
15055SOL    HW257639   8.637   3.176   3.838 -0.7990  0.4401 -0.2501
15056SOL     OW57640   6.717   8.889   0.719 -0.5306 -0.2325  0.1673
15056SOL    HW157641   6.772   8.875   0.637 -0.9349 -1.2780  0.0734
15056SOL    HW257642   6.760   8.844   0.797 -0.6530 -0.0729  0.3287
15057SOL     OW57643   1.889   6.090   5.246  0.9826  0.1695 -0.5536
15057SOL    HW157644   1.914   5.993   5.242  1.4738  0.3065 -0.9393
15057SOL    HW257645   1.971   6.145   5.268  0.8325  0.5473 -0.9295
15058SOL     OW57646   4.420   3.512   7.170 -0.7064  0.1059 -0.1177
15058SOL    HW157647   4.375   3.503   7.259 -0.3310 -0.3442  0.0240
15058SOL    HW257648   4.486   3.587   7.174  1.0551 -1.4793  0.6990
15059SOL     OW57649   5.531   1.361   1.535 -0.2463  0.1249  0.8463
15059SOL    HW157650   5.600   1.290   1.548 -0.9494 -0.3748  1.9323
15059SOL    HW257651   5.558   1.444   1.583 -0.4561 -0.1206  1.4008
15060SOL     OW57652   2.496   3.145   0.642 -0.3294  0.0561 -0.3475
15060SOL    HW157653   2.535   3.108   0.557 -0.4648 -0.5886 -0.1332
15060SOL    HW257654   2.543   3.106   0.720  0.0862  0.9881 -0.1272
15061SOL     OW57655   3.839   2.556   2.795 -0.1370 -0.5777  0.2995
15061SOL    HW157656   3.809   2.605   2.713  0.8496  1.1815  0.9510
15061SOL    HW257657   3.818   2.459   2.786 -0.1179 -0.3984 -2.0048
15062SOL     OW57658   4.733   4.342   8.434  0.3077 -0.0801  0.2015
15062SOL    HW157659   4.830   4.362   8.422  0.3019 -0.8177 -1.0940
15062SOL    HW257660   4.679   4.415   8.392  0.3074 -0.9241 -1.3199
15063SOL     OW57661   8.085   0.739   7.241  0.0736 -0.4110 -0.2798
15063SOL    HW157662   8.056   0.645   7.224  0.5872 -0.4078 -1.2449
15063SOL    HW257663   8.170   0.739   7.293  0.4086 -0.5012 -0.8201
15064SOL     OW57664   4.134   1.480   7.080 -0.3080  0.3913  0.1737
15064SOL    HW157665   4.057   1.494   7.018  0.4800  1.6638 -0.5421
15064SOL    HW257666   4.148   1.564   7.134  0.9900  0.4059 -0.1758
15065SOL     OW57667   0.788   8.691   6.744 -0.0566  0.3023 -0.0819
15065SOL    HW157668   0.846   8.630   6.690  0.0218 -1.0557  1.4577
15065SOL    HW257669   0.739   8.637   6.813 -0.4840  1.9173  0.9087
15066SOL     OW57670   2.831   2.325   7.670 -0.3186  0.6383  0.0492
15066SOL    HW157671   2.817   2.226   7.662 -0.4776  0.6545  0.1283
15066SOL    HW257672   2.911   2.352   7.615 -2.7252  1.1075 -3.3744
15067SOL     OW57673   1.549   4.771   1.821  0.5030  0.1982  0.2600
15067SOL    HW157674   1.625   4.812   1.870 -0.2800  0.7811  1.0047
15067SOL    HW257675   1.515   4.692   1.872  0.2532  0.2750  0.2147
15068SOL     OW57676   0.243   6.209   3.589 -0.0596  0.5613  0.2468
15068SOL    HW157677   0.275   6.198   3.495 -2.1870 -0.5395 -0.3948
15068SOL    HW257678   0.213   6.120   3.625 -2.7580  1.5644  0.6050
15069SOL     OW57679   6.790   8.816   7.303 -0.3672  0.1678  0.2734
15069SOL    HW157680   6.770   8.753   7.227  1.7018 -1.6529  1.2010
15069SOL    HW257681   6.859   8.882   7.274 -0.3405  0.1228  0.2349
15070SOL     OW57682   3.699   6.042   4.470 -0.6051  0.1105  0.3491
15070SOL    HW157683   3.720   5.999   4.382  0.9046 -1.4053  1.4454
15070SOL    HW257684   3.605   6.020   4.496 -0.2839 -1.4017  0.2465
15071SOL     OW57685   1.471   0.566   7.884  0.1483  0.4292  0.4550
15071SOL    HW157686   1.381   0.537   7.916  0.4334 -0.4874  0.4332
15071SOL    HW257687   1.497   0.652   7.929 -1.2030  1.2690 -0.3479
15072SOL     OW57688   0.195   4.092   2.053  0.1595  0.5889  0.0416
15072SOL    HW157689   0.220   4.064   1.960 -1.6181  3.7195 -1.4518
15072SOL    HW257690   0.101   4.063   2.072  0.2684  0.6020  0.6019
15073SOL     OW57691   6.644   1.478   0.693 -0.6594 -0.4142  0.3996
15073SOL    HW157692   6.545   1.494   0.694 -0.8887 -1.7467  0.6465
15073SOL    HW257693   6.661   1.380   0.685  0.6527  0.0541 -3.6141
15074SOL     OW57694   7.559   6.504   6.224 -0.3280  0.5253 -0.2374
15074SOL    HW157695   7.525   6.410   6.213 -1.0977  0.8281 -0.4945
15074SOL    HW257696   7.608   6.531   6.142 -0.4530  0.4848 -0.3265
15075SOL     OW57697   8.035   4.304   5.587 -0.0406  0.2970  0.5160
15075SOL    HW157698   7.946   4.258   5.577 -0.1639  0.3166  1.4677
15075SOL    HW257699   8.033   4.391   5.540 -1.2945  1.3313  2.4014
15076SOL     OW57700   3.737   2.464   8.789 -0.0538  0.1189 -0.2027
15076SOL    HW157701   3.766   2.496   8.698  1.7672 -1.3182 -0.1555
15076SOL    HW257702   3.698   2.540   8.840  0.2469  1.2831 -1.6678
15077SOL     OW57703   3.764   0.661   3.810  0.1803 -0.0840  0.3516
15077SOL    HW157704   3.709   0.691   3.732  0.5458  0.0764  0.1569
15077SOL    HW257705   3.814   0.578   3.785  1.5232  0.8544 -0.1043
15078SOL     OW57706   5.129   6.907   8.850 -0.2265 -0.4031 -0.3003
15078SOL    HW157707   5.031   6.920   8.837 -0.3879  0.7665  1.8777
15078SOL    HW257708   5.145   6.850   8.930  0.8809 -0.9868 -0.9239
15079SOL     OW57709   8.277   3.423   0.931 -0.1478 -0.3572  0.0872
15079SOL    HW157710   8.371   3.436   0.963  0.5817 -3.4040 -0.7355
15079SOL    HW257711   8.215   3.433   1.009  0.9350  0.3362  0.8977
15080SOL     OW57712   4.438   0.122   0.990 -0.6097 -0.3236  0.3786
15080SOL    HW157713   4.470   0.067   1.068  0.4352  0.7441  0.7026
15080SOL    HW257714   4.342   0.147   1.005 -0.0380  0.9913  1.9720
15081SOL     OW57715   2.782   1.098   8.812  0.3940  0.3767 -0.1834
15081SOL    HW157716   2.810   1.119   8.906  1.5324  0.1894 -0.4793
15081SOL    HW257717   2.729   1.014   8.812  1.1154 -0.0849  0.1873
15082SOL     OW57718   1.722   6.746   3.143 -0.2813  0.0748 -0.0899
15082SOL    HW157719   1.776   6.757   3.226  0.1422 -0.7667 -0.2422
15082SOL    HW257720   1.629   6.781   3.158 -0.5443 -1.0914  1.0924
15083SOL     OW57721   8.084   4.406   4.224 -0.2300 -0.0032 -0.2442
15083SOL    HW157722   8.168   4.458   4.237 -0.5474  0.3171  0.4889
15083SOL    HW257723   8.081   4.331   4.290 -0.5367 -0.0006 -0.2559
15084SOL     OW57724   4.932   2.832   6.748 -0.3889  0.2274 -0.1390
15084SOL    HW157725   5.016   2.844   6.800 -0.4149  2.0545 -0.4887
15084SOL    HW257726   4.859   2.886   6.789 -0.5857  1.1401 -1.6286
15085SOL     OW57727   4.091   4.482   8.124 -0.7058 -0.0732 -0.5902
15085SOL    HW157728   4.134   4.456   8.210 -0.1701  1.2278 -0.4521
15085SOL    HW257729   4.102   4.408   8.057  0.4300 -0.3659 -0.0902
15086SOL     OW57730   8.944   8.589   5.180 -0.2292 -0.4094  0.4232
15086SOL    HW157731   8.965   8.677   5.137 -3.4683  0.5363  0.6280
15086SOL    HW257732   8.913   8.524   5.110 -0.6428 -0.4630  0.6553
15087SOL     OW57733   5.854   7.904   8.880 -0.0899 -0.0963  0.4417
15087SOL    HW157734   5.800   7.952   8.948  1.3330  1.9361  0.1889
15087SOL    HW257735   5.950   7.902   8.908  0.4569  0.3977 -1.2887
15088SOL     OW57736   7.936   6.537   8.668  0.6889 -0.3504 -0.2208
15088SOL    HW157737   7.915   6.478   8.589 -0.1569 -1.4668  0.8236
15088SOL    HW257738   7.866   6.608   8.676  0.8775 -0.1206 -0.5818
15089SOL     OW57739   8.745   0.673   5.854  0.3196  0.1725 -0.9053
15089SOL    HW157740   8.682   0.602   5.824  3.6673 -3.8295  0.9845
15089SOL    HW257741   8.708   0.719   5.935 -0.3287 -2.0036  0.0778
15090SOL     OW57742   4.050   1.890   0.350 -0.4219 -1.2329 -0.7563
15090SOL    HW157743   4.031   1.941   0.267 -0.2897 -1.2732 -0.8115
15090SOL    HW257744   4.001   1.932   0.427  3.4394  1.9387  0.1469
15091SOL     OW57745   8.480   1.197   1.852  0.0419 -0.2948  0.0038
15091SOL    HW157746   8.501   1.295   1.851 -0.7977 -0.1056  0.5338
15091SOL    HW257747   8.526   1.154   1.930 -0.9491 -0.0154  0.7410
15092SOL     OW57748   8.884   8.289   4.536 -0.2201 -0.2065 -0.0619
15092SOL    HW157749   8.885   8.210   4.597  0.7195  0.2371  0.5015
15092SOL    HW257750   8.825   8.269   4.457  1.2301 -2.0462 -0.7104
15093SOL     OW57751   1.027   0.504   0.316 -0.0054 -0.4388 -0.1249
15093SOL    HW157752   1.120   0.472   0.300  0.1929 -0.3558  0.8399
15093SOL    HW257753   1.016   0.529   0.413 -0.4456  1.4446 -0.6437
15094SOL     OW57754   7.724   4.562   3.817  0.1775  0.5463 -0.6018
15094SOL    HW157755   7.714   4.474   3.863 -2.1064  0.9931 -0.2018
15094SOL    HW257756   7.819   4.592   3.824  0.9754 -1.8458 -0.7015
15095SOL     OW57757   6.413   1.267   1.766  0.1894 -0.2604 -0.1045
15095SOL    HW157758   6.476   1.221   1.704  1.4262 -0.6648  1.4223
15095SOL    HW257759   6.465   1.315   1.837 -1.2084 -0.1268  0.8468
15096SOL     OW57760   7.050   6.481   0.440  0.0230  0.7917 -0.1320
15096SOL    HW157761   7.121   6.415   0.416  1.2664  1.9946  0.1803
15096SOL    HW257762   7.085   6.574   0.427 -1.7285  1.4056 -0.6553
15097SOL     OW57763   0.537   0.085   7.911  0.6207 -0.1304 -0.3890
15097SOL    HW157764   0.620   0.127   7.949 -0.9139  2.7089  0.0026
15097SOL    HW257765   0.486   0.041   7.985  1.5933 -1.5898 -0.5730
15098SOL     OW57766   1.545   7.112   1.390 -0.2420  0.1224  0.0818
15098SOL    HW157767   1.516   7.150   1.478  2.7604 -3.0110  2.5831
15098SOL    HW257768   1.478   7.045   1.358 -0.5167 -0.0006  0.9054
15099SOL     OW57769   2.147   1.548   5.184 -0.4389  0.3126  0.0156
15099SOL    HW157770   2.055   1.588   5.173 -0.1994  0.6118 -0.9921
15099SOL    HW257771   2.146   1.452   5.156  0.1746  1.0799 -2.8003
15100SOL     OW57772   5.574   7.225   4.738 -0.0449  0.6589  0.5129
15100SOL    HW157773   5.480   7.206   4.713 -0.7662  1.4874  2.5021
15100SOL    HW257774   5.631   7.144   4.723 -0.9704  0.2887 -1.0795
15101SOL     OW57775   8.023   7.562   7.084  0.1540  0.2793 -0.4409
15101SOL    HW157776   8.095   7.528   7.023  0.5004  0.5734 -0.1977
15101SOL    HW257777   7.973   7.485   7.123  1.0005  0.0345  0.1859
15102SOL     OW57778   4.197   8.384   4.153 -0.2766  0.2987 -0.1460
15102SOL    HW157779   4.255   8.460   4.181 -2.1018  1.7155 -0.1341
15102SOL    HW257780   4.106   8.395   4.192 -0.7988 -1.4775 -0.8057
15103SOL     OW57781   7.038   3.402   2.407  0.0930  0.4202  0.6238
15103SOL    HW157782   6.961   3.424   2.466  0.2547  0.4847  0.8094
15103SOL    HW257783   7.013   3.325   2.348  0.6668 -1.0177  2.2229
15104SOL     OW57784   5.837   2.886   1.401 -0.4710  0.0068  0.0361
15104SOL    HW157785   5.899   2.911   1.326 -0.4374 -0.5715 -0.1359
15104SOL    HW257786   5.816   2.967   1.455  0.4120  0.2212  0.0733
15105SOL     OW57787   2.405   8.940   7.049 -0.5905  0.1032  0.2993
15105SOL    HW157788   2.390   9.038   7.036 -0.7346  0.1620  0.9059
15105SOL    HW257789   2.320   8.898   7.080  0.1776  0.2405  2.6290
15106SOL     OW57790   1.831   0.429   5.867  0.1562 -0.6527 -0.7994
15106SOL    HW157791   1.735   0.425   5.839 -0.9491 -0.2244  2.6797
15106SOL    HW257792   1.841   0.495   5.941  3.0481 -1.1542 -0.6930
15107SOL     OW57793   1.633   1.914   6.842  0.8044  0.9282  0.0712
15107SOL    HW157794   1.590   1.996   6.878 -0.7961  0.7054 -1.2609
15107SOL    HW257795   1.595   1.834   6.889  0.5476  0.7919 -0.3729
15108SOL     OW57796   6.474   4.814   5.091  0.3519 -0.5020  0.0789
15108SOL    HW157797   6.523   4.809   5.004 -1.2565 -2.7022 -0.7589
15108SOL    HW257798   6.433   4.725   5.111 -1.9099  0.8194  1.5619
15109SOL     OW57799   0.640   2.533   6.480 -0.0134 -0.3516  0.8283
15109SOL    HW157800   0.710   2.539   6.409  0.1472 -1.0086  0.9358
15109SOL    HW257801   0.676   2.484   6.559 -0.6523 -0.8322  0.8220
15110SOL     OW57802   1.448   4.956   2.155  0.0040  0.2549 -0.1134
15110SOL    HW157803   1.426   5.007   2.238  1.0157 -1.9190  1.5571
15110SOL    HW257804   1.546   4.939   2.150 -0.3064 -1.6287 -0.5214
15111SOL     OW57805   7.863   6.933   5.810 -0.1806  0.1882 -0.4009
15111SOL    HW157806   7.826   7.019   5.844  2.0747  0.0822  2.5268
15111SOL    HW257807   7.935   6.950   5.744  1.0154  0.6023  0.9919
15112SOL     OW57808   2.396   0.026   2.821 -0.5219  0.3471 -1.4733
15112SOL    HW157809   2.327  -0.044   2.807  0.0448 -0.3694 -0.7092
15112SOL    HW257810   2.475   0.008   2.762  0.3430 -0.6329 -0.0406
15113SOL     OW57811   7.862   7.274   7.487 -1.1158 -0.3506  0.1544
15113SOL    HW157812   7.922   7.350   7.513 -2.8942  0.3672  2.2897
15113SOL    HW257813   7.917   7.198   7.453  0.9176  0.6548  1.1330
15114SOL     OW57814   2.360   2.692   5.987  0.4794 -0.6415  0.3314
15114SOL    HW157815   2.276   2.679   6.039 -0.9745 -0.4404 -1.8793
15114SOL    HW257816   2.437   2.702   6.049 -1.0385 -1.4579  2.3905
15115SOL     OW57817   4.412   7.424   6.372  0.4721  0.9418  0.3021
15115SOL    HW157818   4.375   7.333   6.392  0.0911  0.7346 -1.2900
15115SOL    HW257819   4.356   7.468   6.301  1.6397  1.7332 -0.1438
15116SOL     OW57820   6.764   5.956   3.049 -0.2680 -0.2312 -0.2412
15116SOL    HW157821   6.706   5.877   3.066  1.3578 -1.6661 -1.1563
15116SOL    HW257822   6.844   5.953   3.110 -2.3033  3.0369  2.7557
15117SOL     OW57823   5.014   1.533   8.489  0.2013 -0.5321  0.3842
15117SOL    HW157824   4.930   1.587   8.495  0.4831 -0.0426 -0.0160
15117SOL    HW257825   5.020   1.471   8.568 -0.5055 -0.5332  0.4411
15118SOL     OW57826   1.601   6.206   8.759  0.7342  0.7165  0.2973
15118SOL    HW157827   1.614   6.298   8.722 -0.1261  1.1755  1.1094
15118SOL    HW257828   1.671   6.188   8.828  0.5748  0.9814  0.5325
15119SOL     OW57829   6.510   3.385   0.479  0.7121  0.3645 -0.3472
15119SOL    HW157830   6.576   3.427   0.417  2.4953 -1.4331  0.3093
15119SOL    HW257831   6.534   3.406   0.574 -0.2232  0.5115 -0.1360
15120SOL     OW57832   0.631   5.793   6.386  0.4372 -0.0299 -0.1194
15120SOL    HW157833   0.664   5.818   6.477  1.1203  0.3111 -0.4570
15120SOL    HW257834   0.692   5.724   6.347  0.5198  0.3058 -0.5825
15121SOL     OW57835   7.846   1.188   0.456  0.3586  0.0329  0.1784
15121SOL    HW157836   7.942   1.179   0.482  0.1088 -0.3659  0.9677
15121SOL    HW257837   7.794   1.223   0.534 -0.5750 -2.1447  0.5501
15122SOL     OW57838   0.424   0.357   1.219  0.3501  0.3507 -0.5693
15122SOL    HW157839   0.344   0.413   1.242 -0.3396 -0.9909  0.3784
15122SOL    HW257840   0.401   0.297   1.143  0.4636 -0.0150 -0.3153
15123SOL     OW57841   7.742   7.059   3.290 -0.5866  0.7641  0.0447
15123SOL    HW157842   7.835   7.081   3.318 -0.1116 -0.5856 -0.4505
15123SOL    HW257843   7.728   7.087   3.195  0.2118 -1.5946 -0.7813
15124SOL     OW57844   0.282   3.945   3.574  0.7841 -0.4055  0.2112
15124SOL    HW157845   0.254   3.983   3.662  1.0569 -0.4367  0.3134
15124SOL    HW257846   0.201   3.927   3.518  0.4999 -1.7308  1.0065
15125SOL     OW57847   3.931   4.198   7.462  0.0732  0.6173  0.5384
15125SOL    HW157848   3.958   4.293   7.482  0.1188  0.8175 -0.4332
15125SOL    HW257849   3.843   4.179   7.504 -0.1889  1.2685  0.2997
15126SOL     OW57850   7.984   6.439   2.030 -0.8941  0.3620 -1.2360
15126SOL    HW157851   7.986   6.479   1.938 -2.0138 -0.1694 -1.4977
15126SOL    HW257852   7.902   6.383   2.040  0.9617 -2.4967 -1.1570
15127SOL     OW57853   8.833   6.243   1.519 -0.1680  0.1790 -0.4093
15127SOL    HW157854   8.733   6.246   1.520 -0.1640  0.0344  1.2842
15127SOL    HW257855   8.870   6.323   1.567  0.5085 -0.6715  0.4959
15128SOL     OW57856   1.455   6.266   3.254 -0.4472  0.0010  0.1217
15128SOL    HW157857   1.361   6.299   3.268  0.3895  1.4664  2.5226
15128SOL    HW257858   1.465   6.176   3.297 -0.5755  0.1395  0.4463
15129SOL     OW57859   6.993   3.016   4.657 -0.1107 -0.1935  0.2574
15129SOL    HW157860   7.043   2.930   4.669  0.2193 -0.0432 -0.0554
15129SOL    HW257861   6.895   2.997   4.655 -0.0412 -0.5574  0.2394
15130SOL     OW57862   5.005   8.937   1.993  0.3643  0.4711  0.0502
15130SOL    HW157863   4.950   8.854   1.984 -0.1382  0.7573  0.4089
15130SOL    HW257864   5.091   8.916   2.039  0.7434 -0.0630 -0.8989
15131SOL     OW57865   4.176   4.038   6.820  0.2438  0.6159 -0.5582
15131SOL    HW157866   4.223   3.954   6.791 -0.2475  0.3319 -0.5468
15131SOL    HW257867   4.086   4.042   6.776  0.0213  0.8326 -0.0865
15132SOL     OW57868   1.921   0.382   1.247  0.0667 -0.1670  0.4490
15132SOL    HW157869   1.923   0.311   1.178  1.1180 -1.2239  1.5449
15132SOL    HW257870   1.902   0.342   1.337  0.8030  0.9078  1.1043
15133SOL     OW57871   0.541   0.747   5.040 -0.1096  0.3154  0.0501
15133SOL    HW157872   0.635   0.729   5.067  0.4737  0.1606 -2.0043
15133SOL    HW257873   0.537   0.767   4.942 -2.3414 -0.8537 -0.1497
15134SOL     OW57874   1.361   1.121   5.296 -0.7065 -0.0308  0.2802
15134SOL    HW157875   1.302   1.202   5.300 -0.7996 -0.1640  1.8117
15134SOL    HW257876   1.342   1.069   5.213 -0.2296  1.8381 -1.0413
15135SOL     OW57877   7.274   2.821   8.521 -0.0546 -0.1256  0.0837
15135SOL    HW157878   7.224   2.820   8.434 -1.3094 -0.1718  0.7963
15135SOL    HW257879   7.373   2.817   8.503 -0.2132  1.9495 -1.4043
15136SOL     OW57880   8.124   0.246   5.690  0.2390  0.2088  0.2255
15136SOL    HW157881   8.037   0.198   5.700  0.1246  0.6347  1.3167
15136SOL    HW257882   8.194   0.199   5.743  0.2187  0.9981  0.9623
15137SOL     OW57883   0.422   6.450   1.557 -0.1752 -0.4477 -0.9024
15137SOL    HW157884   0.426   6.383   1.631  1.1534  1.9844  1.3125
15137SOL    HW257885   0.468   6.413   1.477 -1.0318 -2.8614 -0.3473
15138SOL     OW57886   6.457   8.979   0.302  0.6214  0.1960  0.2777
15138SOL    HW157887   6.460   8.921   0.383 -1.9741  0.9457  0.9812
15138SOL    HW257888   6.370   8.964   0.254  0.1841  2.9333  0.0960
15139SOL     OW57889   1.029   2.146   7.953 -0.2636 -0.3576 -0.5970
15139SOL    HW157890   0.952   2.112   8.007  1.0495 -0.4017  1.2945
15139SOL    HW257891   1.053   2.080   7.883 -0.1916 -1.6147  0.5959
15140SOL     OW57892   3.914   0.806   4.880 -0.0880  0.0694  0.2558
15140SOL    HW157893   3.867   0.753   4.950 -1.6840  0.0667 -0.7950
15140SOL    HW257894   3.962   0.745   4.817 -0.5276 -0.0505  0.0346
15141SOL     OW57895   7.482   2.159   8.077 -0.7413  0.2022 -0.2042
15141SOL    HW157896   7.560   2.115   8.032 -0.1767  0.1779  0.7874
15141SOL    HW257897   7.514   2.211   8.156 -1.5431  1.5047 -0.7215
15142SOL     OW57898   7.893   5.460   3.209  0.0988  0.1921 -1.0379
15142SOL    HW157899   7.993   5.463   3.207  0.2577  1.0232  3.5891
15142SOL    HW257900   7.863   5.380   3.259 -1.6550 -0.6752 -3.3908
15143SOL     OW57901   4.583   0.046   5.788  0.0700 -0.9205  0.1560
15143SOL    HW157902   4.590   0.143   5.765  1.9356 -1.4709 -1.8196
15143SOL    HW257903   4.509   0.004   5.734  0.6554 -1.0167 -0.5833
15144SOL     OW57904   0.455   8.803   5.989 -0.8542 -0.1988  0.6623
15144SOL    HW157905   0.445   8.844   6.080  0.2268  0.3300  0.5489
15144SOL    HW257906   0.550   8.778   5.974 -1.4681 -2.6899  0.6949
15145SOL     OW57907   4.107   2.257   4.969 -0.0372  0.4550  0.2447
15145SOL    HW157908   4.093   2.254   4.870  1.4115  0.8380  0.0111
15145SOL    HW257909   4.097   2.351   5.001 -0.9609  0.2593  0.5371
15146SOL     OW57910   7.497   8.319   0.775  0.0364  0.0553 -0.7868
15146SOL    HW157911   7.469   8.413   0.755  0.5551  0.2073 -0.8107
15146SOL    HW257912   7.495   8.303   0.873 -1.7561 -0.4531 -0.8892
15147SOL     OW57913   1.669   6.576   0.542  0.3434 -0.4275  0.5200
15147SOL    HW157914   1.722   6.558   0.459 -0.9889  1.3649 -0.7514
15147SOL    HW257915   1.728   6.619   0.611  1.3605 -1.5819  0.3822
15148SOL     OW57916   1.585   0.822   7.907  0.1506 -0.4784  0.4063
15148SOL    HW157917   1.684   0.834   7.899  0.3274 -2.8829 -2.0027
15148SOL    HW257918   1.539   0.876   7.836 -0.0126 -1.7740 -0.5044
15149SOL     OW57919   3.908   2.345   6.595  0.3055 -0.0298 -0.3972
15149SOL    HW157920   3.850   2.409   6.544 -1.1858  0.6693  2.1041
15149SOL    HW257921   3.994   2.390   6.618  0.7657 -0.1664 -1.7858
15150SOL     OW57922   7.380   8.112   2.971  0.2201 -0.0786 -0.0628
15150SOL    HW157923   7.384   8.035   2.908  0.4069  0.9505 -1.3309
15150SOL    HW257924   7.462   8.112   3.028  1.4514  0.6191 -1.7932
15151SOL     OW57925   3.482   0.919   5.888  0.2222  0.1948  0.2524
15151SOL    HW157926   3.400   0.942   5.835  0.6858  0.6105 -0.2849
15151SOL    HW257927   3.476   0.824   5.918  0.9889 -0.7681 -2.4861
15152SOL     OW57928   6.643   0.208   8.239 -0.2991  0.3667  0.6868
15152SOL    HW157929   6.607   0.160   8.319  0.8969 -2.0567 -0.1840
15152SOL    HW257930   6.694   0.289   8.268 -0.5729 -0.0441  2.3214
15153SOL     OW57931   6.496   7.898   2.470  0.0540 -0.7037  0.6952
15153SOL    HW157932   6.507   7.905   2.371 -1.8639  3.3913  0.6702
15153SOL    HW257933   6.401   7.875   2.491 -0.1141  0.7896  1.6122
15154SOL     OW57934   8.147   3.394   4.375 -0.7045  0.1694 -0.6444
15154SOL    HW157935   8.146   3.493   4.359 -2.2632 -0.0163 -1.7433
15154SOL    HW257936   8.086   3.372   4.451  0.2713  0.1284  0.1380
15155SOL     OW57937   1.603   2.784   2.753 -0.0109 -0.2201  0.3496
15155SOL    HW157938   1.583   2.798   2.850 -1.4310 -1.8683  0.3222
15155SOL    HW257939   1.518   2.764   2.704  0.7616  0.1026 -1.1456
15156SOL     OW57940   2.288   6.903   5.389 -0.2188  0.1206 -0.4120
15156SOL    HW157941   2.303   6.811   5.352 -0.7890 -0.7357  1.4758
15156SOL    HW257942   2.222   6.899   5.464  1.1891  1.7937  0.9457
15157SOL     OW57943   4.013   5.190   8.563  0.4330 -0.1253 -0.5188
15157SOL    HW157944   3.954   5.228   8.634  1.0651  0.6944 -0.4150
15157SOL    HW257945   4.100   5.162   8.604  1.1715  1.2429 -1.1131
15158SOL     OW57946   4.748   3.436   6.294  0.0534 -0.2217 -0.5942
15158SOL    HW157947   4.737   3.361   6.229  0.9706 -0.7870 -0.1098
15158SOL    HW257948   4.719   3.406   6.385  0.7579 -0.1127 -0.3268
15159SOL     OW57949   8.683   7.547   6.995 -0.7018 -0.3990  0.0526
15159SOL    HW157950   8.744   7.619   6.961 -1.2911 -0.4918 -1.2170
15159SOL    HW257951   8.603   7.540   6.935 -1.1667 -1.3968  0.7802
15160SOL     OW57952   5.948   5.004   2.601  0.1821  0.3984  0.1436
15160SOL    HW157953   5.880   5.004   2.675 -0.3749  0.3144 -0.3592
15160SOL    HW257954   6.036   5.033   2.637 -0.0282  0.1393  0.8943
15161SOL     OW57955   1.356   8.206   0.062 -0.0157  0.0209 -0.0548
15161SOL    HW157956   1.391   8.299   0.058 -0.0084 -0.0355 -2.3409
15161SOL    HW257957   1.424   8.144   0.022 -0.6951 -0.7333 -0.0510
15162SOL     OW57958   2.729   5.031   7.485  0.1211  0.1557 -0.3881
15162SOL    HW157959   2.792   4.971   7.437  1.9021  1.7699 -0.1352
15162SOL    HW257960   2.698   5.104   7.424  1.5828  1.6139  0.5527
15163SOL     OW57961   1.680   8.167   1.004 -0.2640 -0.0879  0.5150
15163SOL    HW157962   1.778   8.150   1.020  0.0340  2.1051  1.2740
15163SOL    HW257963   1.629   8.083   1.019  1.5093 -1.2784  0.1024
15164SOL     OW57964   8.013   4.397   3.247 -0.4467  0.1397  0.1418
15164SOL    HW157965   8.031   4.466   3.318  1.4216 -1.9281  1.7599
15164SOL    HW257966   8.061   4.312   3.270 -2.3161 -1.5826 -2.0527
15165SOL     OW57967   8.273   1.107   6.860 -0.0430 -0.2664 -0.0577
15165SOL    HW157968   8.202   1.167   6.897  0.3845  0.1497  0.0898
15165SOL    HW257969   8.248   1.011   6.878 -0.2587 -0.1017  0.5477
15166SOL     OW57970   4.656   1.365   2.627  0.3760 -0.0668  0.3924
15166SOL    HW157971   4.580   1.336   2.685  0.2044  1.5210  0.9755
15166SOL    HW257972   4.731   1.400   2.684  0.1236  1.7029 -0.3193
15167SOL     OW57973   2.983   2.918   8.507 -0.1935  0.3320  0.4166
15167SOL    HW157974   3.071   2.879   8.534  0.1566  0.6610 -0.2323
15167SOL    HW257975   2.974   2.914   8.407 -1.0048  0.1165  0.4937
15168SOL     OW57976   2.861   8.089   8.690  0.7997 -0.8349  0.1137
15168SOL    HW157977   2.832   8.184   8.701  1.7599 -0.2726 -1.9828
15168SOL    HW257978   2.926   8.066   8.763  2.9812  1.1292 -1.1249
15169SOL     OW57979   4.126   5.817   3.836 -0.2027  0.1060 -0.2185
15169SOL    HW157980   4.221   5.809   3.807 -0.4723 -2.1907 -0.5549
15169SOL    HW257981   4.107   5.750   3.908 -1.9405 -0.5264 -1.2318
15170SOL     OW57982   6.743   3.625   7.908  0.1547  0.9819  0.2892
15170SOL    HW157983   6.710   3.692   7.975  0.9129  0.4130  1.2437
15170SOL    HW257984   6.673   3.555   7.893  0.0929  0.9602  0.6906
15171SOL     OW57985   0.374   2.468   6.916 -0.0365 -0.4897  0.4730
15171SOL    HW157986   0.397   2.556   6.959 -1.2584  0.5863 -1.0065
15171SOL    HW257987   0.397   2.473   6.819  0.0901 -1.8941  0.4316
15172SOL     OW57988   4.952   1.158   7.941  0.3410 -0.3314  0.2326
15172SOL    HW157989   5.013   1.229   7.906 -0.0846  0.2862  0.7305
15172SOL    HW257990   4.967   1.073   7.891  0.4270  0.2816 -0.7951
15173SOL     OW57991   0.810   5.285   0.163 -0.1524  0.0928  0.1239
15173SOL    HW157992   0.795   5.378   0.196 -0.7962 -0.0738  0.2998
15173SOL    HW257993   0.805   5.221   0.240 -0.7820 -0.2021 -0.1570
15174SOL     OW57994   8.690   0.320   5.247 -0.1435 -0.5210  0.1779
15174SOL    HW157995   8.707   0.377   5.327  0.0149 -1.6088  0.9243
15174SOL    HW257996   8.777   0.292   5.207 -0.2235 -0.1419 -0.2731
15175SOL     OW57997   2.316   6.176   1.058  1.0414  0.8048  0.0089
15175SOL    HW157998   2.252   6.253   1.073  1.9817  1.7483 -0.7701
15175SOL    HW257999   2.268   6.090   1.075 -0.9308  1.4120 -2.1060
15176SOL     OW58000   4.544   1.615   0.633  0.2822 -0.0461  0.0044
15176SOL    HW158001   4.576   1.631   0.540  0.9766  2.4426  0.6462
15176SOL    HW258002   4.618   1.575   0.687  0.3292 -0.1238 -0.1159
15177SOL     OW58003   2.872   1.971   3.200  0.0015  0.1611  0.6148
15177SOL    HW158004   2.948   1.907   3.185  0.6011  1.0175 -0.0332
15177SOL    HW258005   2.795   1.946   3.141  1.3503  1.8675 -1.9296
15178SOL     OW58006   3.437   5.860   5.933  0.5179 -0.0817 -0.4535
15178SOL    HW158007   3.440   5.888   6.029  2.1340  1.8178 -1.0181
15178SOL    HW258008   3.489   5.776   5.921 -0.1096 -0.6015  0.4189
15179SOL     OW58009   4.565   8.648   0.571 -0.9523 -0.0697 -0.6735
15179SOL    HW158010   4.501   8.723   0.554  0.3490  0.8147 -1.7638
15179SOL    HW258011   4.655   8.673   0.537 -0.3818 -1.9345 -0.5749
15180SOL     OW58012   8.012   1.910   4.224 -0.4119 -0.0546  0.3652
15180SOL    HW158013   7.988   1.991   4.171  0.5752 -0.5176 -0.8084
15180SOL    HW258014   8.070   1.937   4.302 -0.1333  0.3788  0.0107
15181SOL     OW58015   3.170   4.528   0.839 -0.3006  0.2891 -0.1258
15181SOL    HW158016   3.114   4.540   0.921 -1.1754 -0.6528 -0.5807
15181SOL    HW258017   3.112   4.499   0.763  0.2662  2.4966 -1.4552
15182SOL     OW58018   5.676   3.614   4.611 -0.2757 -0.3022 -0.0330
15182SOL    HW158019   5.666   3.704   4.652 -1.4373 -0.0561 -0.8203
15182SOL    HW258020   5.725   3.621   4.524 -1.1623 -0.2971 -0.5381
15183SOL     OW58021   8.606   3.119   1.501 -0.2649 -0.2239 -0.3745
15183SOL    HW158022   8.596   3.086   1.595  0.5960 -0.2912 -0.3045
15183SOL    HW258023   8.547   3.199   1.487 -0.5555 -0.3413  0.1519
15184SOL     OW58024   7.470   4.296   8.541 -0.5945 -0.4465 -0.1898
15184SOL    HW158025   7.410   4.247   8.604  0.2752  0.2801  1.2323
15184SOL    HW258026   7.563   4.297   8.578 -0.3428  1.1344 -0.8336
15185SOL     OW58027   4.345   3.707   4.170  0.2327 -0.5999  0.1230
15185SOL    HW158028   4.379   3.614   4.183 -2.2648 -1.6729 -0.9127
15185SOL    HW258029   4.247   3.710   4.187  0.0623  1.6107 -1.0296
15186SOL     OW58030   6.272   1.734   5.670  0.4636  0.0778  0.3972
15186SOL    HW158031   6.355   1.758   5.619  0.7934  1.0481  1.3688
15186SOL    HW258032   6.214   1.675   5.613  1.8156 -0.6179 -0.2914
15187SOL     OW58033   6.274   1.889   6.242 -0.1913  0.2993  0.2352
15187SOL    HW158034   6.363   1.849   6.221 -0.5705 -0.8516  0.7704
15187SOL    HW258035   6.246   1.948   6.167 -0.1248 -1.3142 -1.0951
15188SOL     OW58036   2.169   2.358   5.846 -0.2209  0.1888 -0.2140
15188SOL    HW158037   2.093   2.320   5.793 -1.1449  1.9008 -0.1577
15188SOL    HW258038   2.145   2.362   5.943  1.1234 -2.0921  0.2336
15189SOL     OW58039   2.360   0.010   2.361  0.1216 -0.4682  0.3723
15189SOL    HW158040   2.330   0.054   2.277  0.6744 -1.5334 -0.3796
15189SOL    HW258041   2.298  -0.066   2.384  0.6949 -0.9733  0.2502
15190SOL     OW58042   2.675   5.255   5.258  0.2555  0.5018 -0.6181
15190SOL    HW158043   2.743   5.203   5.310 -0.2902  0.0313 -0.3703
15190SOL    HW258044   2.665   5.214   5.167 -0.9114 -0.4487 -0.0700
15191SOL     OW58045   6.673   4.766   4.615 -0.3149  0.3014  0.5488
15191SOL    HW158046   6.742   4.812   4.559 -0.3446  0.4830  0.6593
15191SOL    HW258047   6.597   4.829   4.632 -0.4972  0.1104  0.4478
15192SOL     OW58048   6.823   6.402   3.016 -0.0570 -0.1211 -0.1074
15192SOL    HW158049   6.798   6.494   2.984  2.5564  0.6753 -0.0221
15192SOL    HW258050   6.919   6.384   2.993 -0.1244 -2.2752  1.1600
15193SOL     OW58051   4.586   5.962   2.803 -0.3118 -0.3226 -0.0563
15193SOL    HW158052   4.523   5.896   2.845 -3.6002  2.3778 -0.4524
15193SOL    HW258053   4.621   5.926   2.717 -2.0469 -1.5814 -0.2629
15194SOL     OW58054   8.298   7.136   6.008  0.3747 -0.0868 -0.1705
15194SOL    HW158055   8.365   7.078   5.962  1.1990  0.1319  0.7440
15194SOL    HW258056   8.329   7.231   6.008 -1.0497  0.4120 -1.8097
15195SOL     OW58057   1.820   4.634   1.654  0.4385  0.4500  0.1212
15195SOL    HW158058   1.730   4.591   1.643  0.7382 -0.4271  0.9564
15195SOL    HW258059   1.814   4.704   1.725  0.3662  0.5294  0.0375
15196SOL     OW58060   0.237   0.201   7.969  0.6108  0.6464 -0.4779
15196SOL    HW158061   0.177   0.156   7.903 -0.1729  0.2288  0.5031
15196SOL    HW258062   0.285   0.131   8.022  0.0101  0.9646  0.4950
15197SOL     OW58063   1.382   1.959   0.279  0.1558  0.5181 -0.3032
15197SOL    HW158064   1.411   2.004   0.363  2.2159 -1.0178 -0.1423
15197SOL    HW258065   1.321   1.883   0.301 -1.9335  2.1333 -0.4506
15198SOL     OW58066   5.044   7.294   8.845 -0.4925 -0.4069  0.2191
15198SOL    HW158067   4.978   7.285   8.919  1.5672  0.2588  2.1908
15198SOL    HW258068   5.045   7.388   8.811  0.3695 -0.0878  1.1049
15199SOL     OW58069   1.592   0.556   6.515  0.0734  0.5719 -0.1040
15199SOL    HW158070   1.547   0.552   6.605 -0.2848  2.1424 -0.2090
15199SOL    HW258071   1.535   0.509   6.448  1.5460 -2.9142  0.9465
15200SOL     OW58072   8.349   3.013   1.163  0.5389  0.1830 -0.5248
15200SOL    HW158073   8.301   2.968   1.239  1.6923 -0.0989  0.0436
15200SOL    HW258074   8.333   2.961   1.079 -0.8984  0.5985 -0.5236
15201SOL     OW58075   5.053   5.587   8.502  0.3280 -0.7324 -0.1709
15201SOL    HW158076   4.966   5.538   8.505 -0.8573  1.4424  3.4435
15201SOL    HW258077   5.113   5.552   8.575  1.1311  0.2482 -0.3533
15202SOL     OW58078   8.791   3.403   6.457  0.7116 -0.5246  0.2579
15202SOL    HW158079   8.823   3.428   6.548  0.9899  0.9067 -0.2309
15202SOL    HW258080   8.735   3.320   6.464  0.4507 -0.2391  1.7684
15203SOL     OW58081   8.892   7.778   0.894 -0.2892 -0.3664 -0.0545
15203SOL    HW158082   8.799   7.800   0.923 -0.3810 -0.7023 -0.0856
15203SOL    HW258083   8.908   7.813   0.802 -0.5015 -0.6001 -0.1815
15204SOL     OW58084   7.718   1.450   6.867  0.1689  0.2619 -0.1410
15204SOL    HW158085   7.752   1.487   6.781 -1.0121 -0.2214 -0.8164
15204SOL    HW258086   7.739   1.514   6.941  1.7388  0.3925 -0.6827
15205SOL     OW58087   6.098   4.322   5.330 -0.2178 -0.0630  0.1837
15205SOL    HW158088   6.167   4.250   5.324 -0.1326 -0.0138  0.5814
15205SOL    HW258089   6.143   4.410   5.343 -0.3338  0.0319 -0.0523
15206SOL     OW58090   7.525   3.858   8.576  0.3891 -0.7201 -0.2570
15206SOL    HW158091   7.434   3.823   8.553 -1.0057  2.0586  0.7606
15206SOL    HW258092   7.516   3.935   8.640  3.6217 -2.1520  2.0845
15207SOL     OW58093   8.004   3.238   3.988  0.2341 -0.3610 -0.2740
15207SOL    HW158094   7.918   3.200   4.022  1.2474 -1.2212  1.3717
15207SOL    HW258095   7.989   3.278   3.897 -2.0063 -0.0464  0.1993
15208SOL     OW58096   0.009   6.780   0.846  0.3561 -0.3806  0.2019
15208SOL    HW158097   0.079   6.743   0.785 -0.7977 -0.7850 -0.8919
15208SOL    HW258098  -0.068   6.814   0.793 -1.3893 -2.2137  1.4491
15209SOL     OW58099   1.500   6.054   2.117  0.2740 -0.2656 -0.3110
15209SOL    HW158100   1.418   6.006   2.148  0.2300 -0.4600 -0.7235
15209SOL    HW258101   1.524   6.023   2.025  0.2082  0.5508 -0.6076
15210SOL     OW58102   0.550   0.318   4.974  0.6660 -0.0207 -0.2229
15210SOL    HW158103   0.595   0.363   5.051  0.9365 -0.5248 -0.0805
15210SOL    HW258104   0.466   0.367   4.951  0.7536  0.3229  0.1816
15211SOL     OW58105   0.495   6.563   6.440  0.0191 -0.2642 -0.3422
15211SOL    HW158106   0.436   6.512   6.503 -0.9634  0.7429 -0.4213
15211SOL    HW258107   0.529   6.502   6.368  0.5104 -1.2460  0.7042
15212SOL     OW58108   7.759   5.683   6.234  0.1350 -0.5321 -0.4486
15212SOL    HW158109   7.766   5.644   6.143  0.6915 -0.2974 -0.5029
15212SOL    HW258110   7.819   5.762   6.242 -1.4495  0.7226 -0.5455
15213SOL     OW58111   8.795   6.924   0.725 -0.2821  0.0580  0.7073
15213SOL    HW158112   8.782   6.981   0.807 -0.2926  0.4422  0.4410
15213SOL    HW258113   8.733   6.846   0.729 -0.8813  0.5245  0.6617
15214SOL     OW58114   1.350   1.876   4.549  0.1508  0.5037 -0.5683
15214SOL    HW158115   1.336   1.842   4.642 -0.3642  0.1965 -0.7569
15214SOL    HW258116   1.408   1.958   4.552  2.2048 -0.9140 -0.1946
15215SOL     OW58117   5.648   0.746   8.439 -0.0577 -0.2867  0.4065
15215SOL    HW158118   5.728   0.692   8.466 -0.3805  0.1814  2.3677
15215SOL    HW258119   5.595   0.769   8.520 -0.9838  1.3127 -0.6399
15216SOL     OW58120   8.166   4.317   2.024 -0.5347 -0.1737 -0.3612
15216SOL    HW158121   8.170   4.307   1.924  0.2712 -1.1742 -0.2415
15216SOL    HW258122   8.073   4.299   2.056 -1.1721  1.7002 -1.0786
15217SOL     OW58123   2.241   2.751   4.051 -0.4393  0.0098  0.1656
15217SOL    HW158124   2.314   2.818   4.037 -1.8484  1.5497 -0.0276
15217SOL    HW258125   2.208   2.757   4.145  0.7948 -1.8454  0.7359
15218SOL     OW58126   4.212   6.091   6.028 -0.3695 -0.0395  0.2969
15218SOL    HW158127   4.299   6.064   6.068 -0.1159  0.0440 -0.1940
15218SOL    HW258128   4.153   6.129   6.099  0.9153  2.2616  0.1971
15219SOL     OW58129   6.804   4.247   7.376 -0.3344 -0.0318 -0.5513
15219SOL    HW158130   6.863   4.187   7.322  1.2628 -0.3241  1.4684
15219SOL    HW258131   6.713   4.207   7.382  0.3918 -1.6815 -0.2322
15220SOL     OW58132   0.552   0.234   7.319  0.3147  0.5546  0.2064
15220SOL    HW158133   0.641   0.273   7.342 -0.2597  1.5466  0.7521
15220SOL    HW258134   0.479   0.296   7.347 -0.5413  0.0093 -0.7409
15221SOL     OW58135   0.463   1.226   5.240 -0.5503  0.0024 -0.4409
15221SOL    HW158136   0.441   1.146   5.183  3.5612 -1.1764 -0.5894
15221SOL    HW258137   0.518   1.290   5.187  1.8524 -0.2826  1.6057
15222SOL     OW58138   3.919   0.251   4.674  0.0019 -0.1313  0.2223
15222SOL    HW158139   3.983   0.182   4.641 -1.4047 -1.0690 -0.5954
15222SOL    HW258140   3.834   0.245   4.622 -0.9263  0.8010  1.5951
15223SOL     OW58141   3.622   2.666   8.355  0.3024  0.0288 -0.2756
15223SOL    HW158142   3.557   2.590   8.355 -1.3094  1.3888  1.1310
15223SOL    HW258143   3.640   2.695   8.261 -0.7807 -0.6391 -0.6854
15224SOL     OW58144   7.156   2.814   7.582 -0.5440 -0.1271  0.4145
15224SOL    HW158145   7.179   2.844   7.674 -1.3104  1.5336  0.0718
15224SOL    HW258146   7.234   2.830   7.521 -0.1438 -0.9577  0.6928
15225SOL     OW58147   1.127   3.928   2.633  0.3372  0.0356 -0.5091
15225SOL    HW158148   1.118   3.848   2.692  3.6799  0.5339  0.7815
15225SOL    HW258149   1.037   3.972   2.623 -0.9792 -2.1352  1.1924
15226SOL     OW58150   3.326   8.249   5.068  0.3265  0.1753 -0.3420
15226SOL    HW158151   3.330   8.343   5.034 -0.7376  0.5858  0.6435
15226SOL    HW258152   3.257   8.243   5.140  1.8996 -0.8890  1.0962
15227SOL     OW58153   1.967   4.302   5.131 -0.4888 -0.2696  0.1445
15227SOL    HW158154   2.000   4.394   5.152  0.5879 -0.9922  1.8112
15227SOL    HW258155   1.988   4.280   5.036  2.9552 -0.2539  0.8088
15228SOL     OW58156   6.670   0.795   8.186 -0.3126  0.3331 -0.1808
15228SOL    HW158157   6.654   0.827   8.280 -1.1320  0.2595 -0.2910
15228SOL    HW258158   6.669   0.695   8.185  0.8694  0.3197 -0.0706
15229SOL     OW58159   0.319   7.352   6.314 -0.1305  0.6024  0.2724
15229SOL    HW158160   0.346   7.427   6.253  1.7280  1.8089  2.4990
15229SOL    HW258161   0.234   7.377   6.362 -1.0287  0.0845 -1.0170
15230SOL     OW58162   1.448   7.030   6.548  0.5313 -0.2927  0.0077
15230SOL    HW158163   1.434   7.096   6.475  0.3582  0.2261  0.5051
15230SOL    HW258164   1.380   6.957   6.541 -1.9477  1.7504  1.8852
15231SOL     OW58165   0.522   1.774   4.473  0.5739  0.1561  0.1619
15231SOL    HW158166   0.606   1.746   4.427 -0.4204 -1.7483 -0.5314
15231SOL    HW258167   0.516   1.874   4.473  3.2936  0.3491  1.1050
15232SOL     OW58168   2.554   4.820   4.835  0.0850  0.3897  0.4953
15232SOL    HW158169   2.512   4.908   4.859 -0.2775  0.0140  1.2749
15232SOL    HW258170   2.482   4.754   4.813  0.3984  0.5631 -1.0548
15233SOL     OW58171   3.784   4.328   3.857  0.7876 -0.1887  0.8872
15233SOL    HW158172   3.761   4.241   3.813  0.0521  0.3496  0.1924
15233SOL    HW258173   3.705   4.362   3.908 -0.4318  2.2309 -2.4250
15234SOL     OW58174   8.042   5.796   7.582 -0.1549 -0.7236 -0.2283
15234SOL    HW158175   8.105   5.870   7.558  1.0232 -0.5862  3.0660
15234SOL    HW258176   8.065   5.714   7.530  3.1572 -0.8488  1.3150
15235SOL     OW58177   5.251   7.991   7.360 -0.0612 -0.1223 -0.3169
15235SOL    HW158178   5.255   8.058   7.434 -0.9747  0.9385 -1.1988
15235SOL    HW258179   5.223   7.902   7.396 -1.1683  0.5531  0.4959
15236SOL     OW58180   8.481   8.903   0.504 -0.4058 -0.3742 -0.6810
15236SOL    HW158181   8.410   8.906   0.433 -1.0862  3.3785  0.0133
15236SOL    HW258182   8.541   8.982   0.493  1.1301 -1.2426  1.2972
15237SOL     OW58183   3.548   5.175   6.063  0.6105  0.1868  0.0240
15237SOL    HW158184   3.462   5.205   6.020  1.0883  0.4271 -0.7739
15237SOL    HW258185   3.536   5.082   6.099 -0.7593  1.1563  2.1592
15238SOL     OW58186   2.930   8.097   7.320 -0.4608  0.2853 -0.1282
15238SOL    HW158187   2.856   8.062   7.263 -0.2956 -0.8766  0.3483
15238SOL    HW258188   2.983   8.020   7.357 -1.0458  0.9710  2.2300
15239SOL     OW58189   8.832   4.649   2.278  0.3545 -0.4308  0.0336
15239SOL    HW158190   8.770   4.646   2.200  0.9937 -1.2689 -0.4634
15239SOL    HW258191   8.927   4.654   2.244  0.6831 -1.7033  0.7351
15240SOL     OW58192   4.846   0.381   1.757 -0.1725 -0.2803 -0.0114
15240SOL    HW158193   4.764   0.433   1.731 -1.0052 -2.1002 -1.1233
15240SOL    HW258194   4.875   0.409   1.849 -3.3898 -1.2001  1.3584
15241SOL     OW58195   0.997   4.720   6.975 -0.3147  0.5333  0.1083
15241SOL    HW158196   1.070   4.705   7.042 -0.1323  2.0550  0.2717
15241SOL    HW258197   0.925   4.776   7.016  1.2259  4.1570 -1.8209
15242SOL     OW58198   1.883   3.265   6.870 -0.1477  0.8807  0.0370
15242SOL    HW158199   1.968   3.305   6.904  0.4650 -1.0691  0.9151
15242SOL    HW258200   1.903   3.209   6.790 -0.2521 -1.0433  1.3027
15243SOL     OW58201   0.299   3.342   7.284 -0.2505 -0.1314  0.6878
15243SOL    HW158202   0.388   3.299   7.299  1.1713  2.4396 -0.1992
15243SOL    HW258203   0.274   3.397   7.364 -0.6767 -0.2098  0.6119
15244SOL     OW58204   3.150   7.405   6.073  0.0494  0.1950 -0.0122
15244SOL    HW158205   3.139   7.398   6.172 -0.2463  1.3129  0.0396
15244SOL    HW258206   3.240   7.443   6.052  1.2505 -2.6505 -0.2640
15245SOL     OW58207   6.366   3.549   0.273 -0.0768  0.4906  0.5340
15245SOL    HW158208   6.387   3.471   0.331 -1.5060  0.5328  1.1146
15245SOL    HW258209   6.437   3.619   0.285 -0.3411  0.4983  2.2197
15246SOL     OW58210   1.903   1.548   7.617  0.0827  0.5065  0.1684
15246SOL    HW158211   1.913   1.647   7.609 -2.8191  0.7512 -0.9397
15246SOL    HW258212   1.914   1.521   7.713  1.3086  1.8271  0.4156
15247SOL     OW58213   1.684   6.297   0.324 -0.0336 -0.7693  0.1065
15247SOL    HW158214   1.753   6.266   0.390 -1.2727 -0.5505  1.5267
15247SOL    HW258215   1.707   6.389   0.292  0.4389 -0.7794  0.4138
15248SOL     OW58216   0.811   0.229   0.381 -0.3633  0.7828 -0.0121
15248SOL    HW158217   0.742   0.164   0.350  1.4574 -0.2669 -2.0878
15248SOL    HW258218   0.880   0.240   0.309  2.1528  1.0055  2.3457
15249SOL     OW58219   4.028   2.615   0.704 -0.0753 -0.2688  0.3596
15249SOL    HW158220   3.983   2.700   0.676  0.4170  0.1811  0.9195
15249SOL    HW258221   4.082   2.631   0.787  1.8463 -0.5854 -0.8052
15250SOL     OW58222   5.216   0.850   8.262  0.1865 -0.1306 -0.0686
15250SOL    HW158223   5.240   0.928   8.205 -0.7120 -0.8110 -1.3972
15250SOL    HW258224   5.117   0.849   8.277  0.0337 -1.6554 -1.0436
15251SOL     OW58225   7.955   1.101   6.608 -0.0990  0.0010 -0.3604
15251SOL    HW158226   8.017   1.128   6.534  0.4951 -0.7816 -0.1549
15251SOL    HW258227   7.907   1.017   6.584  0.3687 -0.4605  0.2812
15252SOL     OW58228   1.588   5.274   7.304 -0.0398 -0.1020 -0.0960
15252SOL    HW158229   1.624   5.248   7.215  0.1675 -0.3900  0.0700
15252SOL    HW258230   1.590   5.374   7.313 -0.3370 -0.0559 -0.5242
15253SOL     OW58231   4.273   8.189   7.020 -0.5103  0.0770 -0.1007
15253SOL    HW158232   4.234   8.156   6.934 -0.9828  0.7225 -0.1349
15253SOL    HW258233   4.367   8.156   7.029 -0.3528  0.2818 -1.0184
15254SOL     OW58234   8.073   2.391   1.724 -0.0227 -0.5565  0.3263
15254SOL    HW158235   8.130   2.318   1.686 -0.3549 -0.3145 -0.6462
15254SOL    HW258236   8.128   2.472   1.741  0.3079 -0.9627  1.2210
15255SOL     OW58237   6.938   4.512   0.717  0.1173 -0.2125  0.0514
15255SOL    HW158238   7.028   4.522   0.760  1.9781 -0.0403 -3.6890
15255SOL    HW258239   6.934   4.424   0.669 -1.9090 -0.4012  0.5282
15256SOL     OW58240   0.558   7.188   3.543  0.1923 -0.2142 -0.5427
15256SOL    HW158241   0.587   7.225   3.455 -0.2630  1.5281  0.0045
15256SOL    HW258242   0.458   7.183   3.545  0.2354 -1.1291 -0.4581
15257SOL     OW58243   1.743   0.495   8.661  0.5114 -0.1035  0.5797
15257SOL    HW158244   1.819   0.550   8.626 -0.3424  1.2498  0.8163
15257SOL    HW258245   1.779   0.408   8.698  1.7379 -0.2402 -0.8774
15258SOL     OW58246   1.622   1.078   5.985  0.4804  0.0451  0.0269
15258SOL    HW158247   1.571   1.072   5.900  1.4237  5.7523 -1.1579
15258SOL    HW258248   1.720   1.077   5.965  0.7118  3.5342  0.7338
15259SOL     OW58249   3.142   6.534   7.868 -0.1495  0.9912  0.2766
15259SOL    HW158250   3.240   6.550   7.874 -0.0960  0.9984 -0.6421
15259SOL    HW258251   3.124   6.450   7.815 -0.6623  1.4344 -0.2606
15260SOL     OW58252   2.978   4.421   3.164 -0.4383 -0.1364  0.0957
15260SOL    HW158253   2.957   4.518   3.154 -0.0132 -0.2337 -1.9585
15260SOL    HW258254   3.077   4.409   3.176 -0.1680 -0.4485 -2.1742
15261SOL     OW58255   1.132   1.520   4.841  0.0684  0.2635  0.0502
15261SOL    HW158256   1.093   1.523   4.933 -0.5249 -1.6893 -0.1272
15261SOL    HW258257   1.062   1.492   4.775  0.8690  0.1791 -0.7781
15262SOL     OW58258   7.709   4.807   5.870 -0.3343  0.5757 -0.1021
15262SOL    HW158259   7.710   4.746   5.950 -1.3526  0.6001 -0.0563
15262SOL    HW258260   7.784   4.873   5.878  0.0259  0.1122  0.4653
15263SOL     OW58261   0.644   4.124   5.820  0.3366 -0.1712 -0.6105
15263SOL    HW158262   0.609   4.036   5.789  0.3559  0.1845 -1.6726
15263SOL    HW258263   0.605   4.197   5.763  0.0588  0.5382  0.4651
15264SOL     OW58264   4.074   5.049   6.791 -0.0521 -0.4602 -0.4638
15264SOL    HW158265   3.978   5.026   6.807 -0.0328 -0.2259  0.0102
15264SOL    HW258266   4.117   4.978   6.736 -0.1853 -1.1614  0.3375
15265SOL     OW58267   6.573   5.770   4.618  0.1205  0.3115 -0.1693
15265SOL    HW158268   6.549   5.778   4.521 -1.8938 -0.0422  0.2699
15265SOL    HW258269   6.492   5.742   4.670  1.3087 -0.0065  1.5498
15266SOL     OW58270   8.812   3.859   3.484 -0.0600  0.1529  0.6348
15266SOL    HW158271   8.787   3.763   3.467 -0.1036  0.0144  1.4849
15266SOL    HW258272   8.877   3.863   3.559  0.9243  0.6900 -0.2321
15267SOL     OW58273   8.270   0.794   1.542 -0.3798  0.3245 -0.6281
15267SOL    HW158274   8.342   0.770   1.478  1.8271  0.8262  1.5999
15267SOL    HW258275   8.269   0.893   1.556  1.4379 -0.0613  2.6372
15268SOL     OW58276   7.958   5.758   3.753  0.4870 -0.3415  0.5398
15268SOL    HW158277   7.909   5.703   3.821 -0.6518  0.2147  0.1688
15268SOL    HW258278   7.960   5.709   3.666  0.1150 -0.1162  0.4063
15269SOL     OW58279   3.004   1.341   0.767  0.5496 -0.2483  0.6854
15269SOL    HW158280   3.041   1.326   0.676 -1.2108  0.9424 -0.2564
15269SOL    HW258281   3.014   1.258   0.822  0.7366 -1.2798 -0.8941
15270SOL     OW58282   3.648   6.076   2.168  1.0042 -0.3030 -0.0475
15270SOL    HW158283   3.569   6.021   2.192  1.0750 -0.3652  0.0410
15270SOL    HW258284   3.624   6.173   2.172  0.9901 -0.3165  0.1776
15271SOL     OW58285   6.936   6.105   8.153  0.0373  0.1324  0.4906
15271SOL    HW158286   6.873   6.092   8.076 -0.8092  0.9478  1.0383
15271SOL    HW258287   6.883   6.119   8.237  0.9554  0.0332  1.0899
15272SOL     OW58288   0.496   1.872   5.589  0.0460  0.1959 -0.1843
15272SOL    HW158289   0.531   1.880   5.496 -0.1775 -3.6378 -0.6600
15272SOL    HW258290   0.568   1.893   5.654  1.5328 -1.5339 -1.2204
15273SOL     OW58291   6.594   5.609   3.497  0.6060  0.2850 -0.1589
15273SOL    HW158292   6.579   5.644   3.590 -1.2726 -0.5545 -0.1222
15273SOL    HW258293   6.591   5.509   3.499  0.0246  0.2779 -1.2099
15274SOL     OW58294   0.907   0.682   0.802  0.2953  0.4088 -0.0696
15274SOL    HW158295   0.987   0.721   0.847  0.0355  1.2957 -0.3549
15274SOL    HW258296   0.924   0.674   0.704  0.2788 -0.0360 -0.0389
15275SOL     OW58297   6.004   8.840   3.611 -0.1185  0.1108  0.3290
15275SOL    HW158298   5.951   8.828   3.527 -0.0739  1.8371  0.0335
15275SOL    HW258299   5.946   8.817   3.690 -1.0497  1.1690 -0.0347
15276SOL     OW58300   0.158   7.294   4.729  0.3017  0.2185  0.1708
15276SOL    HW158301   0.208   7.253   4.653  1.1083  0.5764  0.5011
15276SOL    HW258302   0.184   7.250   4.815 -5.0539 -4.4381 -0.3144
15277SOL     OW58303   3.872   6.012   5.196 -0.3144 -0.3002 -0.0675
15277SOL    HW158304   3.789   6.033   5.248  0.6345 -0.8759  1.7432
15277SOL    HW258305   3.927   6.095   5.187 -0.7699 -0.0629 -0.6913
15278SOL     OW58306   0.441   5.348   1.656  0.1443 -0.0179  0.1586
15278SOL    HW158307   0.411   5.257   1.626  0.7330 -0.3196  0.4760
15278SOL    HW258308   0.364   5.411   1.652 -0.6833 -0.9182  1.4830
15279SOL     OW58309   5.949   2.720   8.675 -0.2752 -0.1516 -0.1353
15279SOL    HW158310   5.945   2.624   8.646  0.3606 -0.6354  1.3034
15279SOL    HW258311   6.040   2.756   8.658 -0.3374  0.0079 -0.1246
15280SOL     OW58312   3.368   5.734   8.550 -0.1562 -0.2599 -0.2569
15280SOL    HW158313   3.305   5.664   8.584 -0.2784  0.0639  0.1881
15280SOL    HW258314   3.342   5.823   8.587  0.6852 -0.1562  0.0878
15281SOL     OW58315   4.322   7.646   6.960  0.4183 -0.0348  0.2597
15281SOL    HW158316   4.261   7.716   6.923  2.0166  0.7633 -0.9325
15281SOL    HW258317   4.349   7.671   7.053 -0.2982  0.0995  0.4320
15282SOL     OW58318   0.525   2.826   0.033  0.4993  0.2450  0.4552
15282SOL    HW158319   0.605   2.819   0.093  1.3938  0.1576 -0.7308
15282SOL    HW258320   0.540   2.771  -0.049  0.0953  1.8634 -0.7367
15283SOL     OW58321   6.685   2.742   7.695  0.1057 -0.1994  0.1079
15283SOL    HW158322   6.763   2.800   7.671  1.6325 -2.4627 -0.5651
15283SOL    HW258323   6.664   2.753   7.792  0.8240  0.9636  0.1399
15284SOL     OW58324   3.924   8.851   6.421  0.0083 -0.0438 -0.3907
15284SOL    HW158325   3.966   8.813   6.503  1.8445  0.5804 -1.0304
15284SOL    HW258326   3.829   8.877   6.441  0.6475  0.7676  1.7252
15285SOL     OW58327   7.280   5.505   3.859  0.5725 -0.3882 -0.1890
15285SOL    HW158328   7.317   5.529   3.769 -0.7365  0.2509 -0.5733
15285SOL    HW258329   7.236   5.415   3.854 -0.0655 -0.0714 -0.3610
15286SOL     OW58330   6.465   3.045   2.040 -0.5569 -0.2622  0.1624
15286SOL    HW158331   6.445   3.143   2.039 -0.8847 -0.3367 -1.2407
15286SOL    HW258332   6.562   3.031   2.060 -0.4547  0.3568  0.1105
15287SOL     OW58333   0.170   6.963   1.279 -1.1127  0.5538 -0.3931
15287SOL    HW158334   0.170   6.876   1.327  0.1272  1.3340  1.0634
15287SOL    HW258335   0.161   7.038   1.345 -1.5607  1.5635 -1.5646
15288SOL     OW58336   2.915   4.725   0.606  0.3098  0.2140  0.4966
15288SOL    HW158337   2.901   4.820   0.632  0.5817  0.4122 -0.0762
15288SOL    HW258338   2.904   4.666   0.687  3.0672  0.9907  1.5151
15289SOL     OW58339   3.082   3.731   8.326  0.5571 -0.4691 -0.2119
15289SOL    HW158340   3.070   3.789   8.407 -0.4734 -0.0203 -0.6851
15289SOL    HW258341   3.145   3.657   8.349  0.0262 -0.5414  1.1183
15290SOL     OW58342   1.012   1.901   0.654 -0.0721  0.4026  0.0485
15290SOL    HW158343   1.110   1.912   0.639  0.0531 -0.5535  0.1397
15290SOL    HW258344   0.990   1.931   0.747  0.3751 -0.7444  0.5330
15291SOL     OW58345   6.951   0.320   1.109  0.2419  0.1454 -0.0232
15291SOL    HW158346   6.877   0.377   1.074 -0.5807  0.2388  1.7916
15291SOL    HW258347   7.037   0.345   1.065 -0.1955  2.4384  0.3792
15292SOL     OW58348   1.189   5.695   4.341 -0.2749  0.2086 -0.0154
15292SOL    HW158349   1.221   5.621   4.282  2.5369  0.4872  1.0541
15292SOL    HW258350   1.193   5.665   4.436 -0.5408  1.2160  0.3137
15293SOL     OW58351   3.813   8.314   3.527  0.3193 -0.1128  0.4580
15293SOL    HW158352   3.886   8.287   3.590  0.5951  0.1140  0.2353
15293SOL    HW258353   3.810   8.250   3.450 -1.5575 -1.7986  1.8698
15294SOL     OW58354   2.039   6.581   1.681 -0.4298 -0.4750  0.8301
15294SOL    HW158355   1.977   6.657   1.663 -1.0386 -1.1309  0.0945
15294SOL    HW258356   2.132   6.608   1.656 -0.6109  0.1091  0.7832
15295SOL     OW58357   7.106   5.715   2.765 -0.1790 -0.0149 -0.2186
15295SOL    HW158358   7.186   5.775   2.776 -0.9816  1.7125 -3.1469
15295SOL    HW258359   7.023   5.768   2.779 -0.8743 -1.3862  0.9911
15296SOL     OW58360   6.065   0.635   6.767  0.1423  0.1795 -0.6316
15296SOL    HW158361   6.112   0.674   6.687  1.6175 -0.2979 -0.0184
15296SOL    HW258362   6.018   0.708   6.816  0.5981  0.7475 -1.0275
15297SOL     OW58363   0.678   6.239   2.696  0.3551 -0.2077 -0.0602
15297SOL    HW158364   0.761   6.213   2.747 -0.8295 -2.1151  0.9253
15297SOL    HW258365   0.599   6.191   2.733 -0.8097 -0.3946 -2.6816
15298SOL     OW58366   3.153   5.771   4.858  0.6770  0.2142  0.0795
15298SOL    HW158367   3.239   5.727   4.833  1.2682  0.8562  0.9551
15298SOL    HW258368   3.169   5.837   4.930 -0.7063 -0.3177  0.9060
15299SOL     OW58369   0.776   1.584   5.946  0.2810 -0.1081 -0.1635
15299SOL    HW158370   0.793   1.490   5.917  0.7809  0.2389 -1.0129
15299SOL    HW258371   0.810   1.648   5.876 -0.5950  0.6911  0.1221
15300SOL     OW58372   0.440   4.259   2.616 -0.0519  0.1032  0.3715
15300SOL    HW158373   0.425   4.275   2.518  0.8048 -1.0243  0.0520
15300SOL    HW258374   0.455   4.347   2.661  0.5912  0.5508 -0.6844
15301SOL     OW58375   7.441   3.697   2.968 -0.0818  0.2584 -0.0627
15301SOL    HW158376   7.366   3.764   2.965  0.1592  0.5069 -0.5473
15301SOL    HW258377   7.497   3.707   2.886  0.9468  0.6007  0.6757
15302SOL     OW58378   8.601   0.486   7.188  0.0766 -0.0798 -0.1269
15302SOL    HW158379   8.512   0.513   7.150  0.7026  0.7576 -1.0040
15302SOL    HW258380   8.625   0.395   7.155 -0.1879 -0.0674 -0.3592
15303SOL     OW58381   5.588   8.083   1.187 -0.4232 -0.4942 -0.1414
15303SOL    HW158382   5.613   8.126   1.274  0.1608  1.8487 -1.4391
15303SOL    HW258383   5.610   7.985   1.192  1.4867 -0.0292  1.6410
15304SOL     OW58384   5.512   8.470   7.959 -0.5217 -0.2535  0.2902
15304SOL    HW158385   5.505   8.424   7.870 -0.0927  0.4048 -0.0894
15304SOL    HW258386   5.593   8.438   8.007  0.5867  1.1563 -0.5994
15305SOL     OW58387   3.947   4.769   0.197  0.1007  0.0332  0.8551
15305SOL    HW158388   3.996   4.790   0.112 -0.3402  1.6643  1.0049
15305SOL    HW258389   3.908   4.852   0.235 -1.4751 -1.0131  1.5760
15306SOL     OW58390   4.399   2.146   5.337  0.1724  0.1263 -0.2636
15306SOL    HW158391   4.310   2.141   5.292 -0.5588 -0.2807  1.1722
15306SOL    HW258392   4.386   2.166   5.434  1.6736  0.4817 -0.1234
15307SOL     OW58393   3.768   6.666   4.098 -0.2541 -0.6935 -0.1105
15307SOL    HW158394   3.817   6.709   4.174 -0.4536  0.7856 -0.7908
15307SOL    HW258395   3.684   6.717   4.080 -0.8632 -1.8118 -0.4927
15308SOL     OW58396   8.418   4.880   5.276  0.0852 -0.1433  0.3494
15308SOL    HW158397   8.480   4.819   5.227 -1.0522 -2.1931  1.3938
15308SOL    HW258398   8.394   4.957   5.216  0.1210 -1.6443 -1.6704
15309SOL     OW58399   8.500   1.007   0.056  0.5034  0.3880  0.4014
15309SOL    HW158400   8.538   0.940  -0.009  1.0104  0.5705  0.5075
15309SOL    HW258401   8.554   1.007   0.140  0.0277  0.3689  0.7067
15310SOL     OW58402   2.269   0.925   5.959  0.0846  0.0752 -0.8402
15310SOL    HW158403   2.226   0.969   6.038  2.0095  1.1555 -0.3466
15310SOL    HW258404   2.353   0.879   5.989 -0.3072 -1.3316 -1.8940
15311SOL     OW58405   4.642   3.591   2.050  0.6220 -0.1962  0.0135
15311SOL    HW158406   4.575   3.664   2.039  0.8795 -0.1542 -1.4313
15311SOL    HW258407   4.734   3.629   2.055  0.6929 -0.3738  0.0812
15312SOL     OW58408   7.524   3.254   5.206  0.0399  0.1361 -0.6534
15312SOL    HW158409   7.606   3.225   5.156 -1.2912 -1.1646 -2.1321
15312SOL    HW258410   7.550   3.283   5.299  2.0789 -0.8144 -0.9023
15313SOL     OW58411   4.144   4.943   7.695 -0.0676  0.5069 -0.6004
15313SOL    HW158412   4.214   4.961   7.626 -1.4865  1.1136 -1.9197
15313SOL    HW258413   4.080   4.874   7.661  0.5401 -0.9236  1.0684
15314SOL     OW58414   7.253   0.308   7.924 -0.0177 -0.0193 -0.0882
15314SOL    HW158415   7.299   0.284   8.009 -0.2797 -0.7770 -0.1486
15314SOL    HW258416   7.187   0.236   7.901  0.6524 -0.2428 -1.3754
15315SOL     OW58417   1.149   7.538   3.923 -0.0827 -0.5347 -0.1345
15315SOL    HW158418   1.194   7.468   3.978 -0.1913 -1.6266 -1.4081
15315SOL    HW258419   1.128   7.500   3.833  1.3279  1.6243 -1.4091
15316SOL     OW58420   0.662   5.918   7.080  0.3327  0.1751  0.2800
15316SOL    HW158421   0.700   5.831   7.047 -1.4693 -0.9533  1.1514
15316SOL    HW258422   0.586   5.901   7.141 -1.8714  2.4046 -1.7263
15317SOL     OW58423   5.641   4.385   3.456 -0.2232  0.0386  0.4432
15317SOL    HW158424   5.688   4.339   3.531  1.5704  2.4597  0.8719
15317SOL    HW258425   5.708   4.416   3.388 -1.5742  0.1687 -0.8739
15318SOL     OW58426   7.510   3.398   6.392 -0.0067 -0.3917  0.3185
15318SOL    HW158427   7.513   3.390   6.491  0.4653  1.5933  0.4831
15318SOL    HW258428   7.494   3.493   6.367  1.2013 -0.6568 -1.5295
15319SOL     OW58429   7.103   1.467   8.604 -0.3870  0.1154  0.5528
15319SOL    HW158430   7.116   1.565   8.590 -1.7082  0.5519  2.2272
15319SOL    HW258431   7.005   1.447   8.604 -0.1087 -1.3955 -0.8852
15320SOL     OW58432   4.080   2.539   1.313  0.2419  0.2516  0.0220
15320SOL    HW158433   4.018   2.529   1.391 -0.1544 -1.5467 -0.5065
15320SOL    HW258434   4.025   2.550   1.230  0.5805 -2.4760 -0.6018
15321SOL     OW58435   3.305   6.524   0.326  0.1140 -0.1867  0.3071
15321SOL    HW158436   3.215   6.548   0.288  0.5498  1.8545  0.4968
15321SOL    HW258437   3.377   6.557   0.264  0.7713  0.6214  1.4871
15322SOL     OW58438   6.535   5.460   3.903 -0.4180 -0.0671  0.3133
15322SOL    HW158439   6.439   5.437   3.888 -0.0805 -0.7385 -0.8504
15322SOL    HW258440   6.562   5.434   3.996 -1.2487 -0.2538  0.5006
15323SOL     OW58441   3.051   1.474   6.957 -0.3880  0.3828 -0.3751
15323SOL    HW158442   2.965   1.505   6.915 -1.0847  0.2137  0.8931
15323SOL    HW258443   3.039   1.468   7.056  0.7808 -0.6375 -0.2827
15324SOL     OW58444   0.562   3.864   2.557 -0.6957 -0.7594 -0.3956
15324SOL    HW158445   0.463   3.875   2.546 -0.6775 -0.2430 -0.0497
15324SOL    HW258446   0.581   3.795   2.626 -0.8343  1.2270  1.7040
15325SOL     OW58447   1.688   1.997   4.344 -0.4493 -0.4341 -0.1687
15325SOL    HW158448   1.663   1.947   4.261  0.8798 -0.5107 -0.5239
15325SOL    HW258449   1.722   2.088   4.319 -1.2779  0.0343  0.3780
15326SOL     OW58450   4.981   7.658   1.569  0.5035  0.2076  0.4498
15326SOL    HW158451   5.002   7.567   1.532  1.4170  1.2825 -1.7903
15326SOL    HW258452   5.063   7.696   1.612  0.5294  0.5266  0.1271
15327SOL     OW58453   3.237   4.931   8.046  0.0159  0.3130  0.3255
15327SOL    HW158454   3.148   4.923   8.091  0.0474 -0.5733  0.2512
15327SOL    HW258455   3.224   4.926   7.946  0.0412  1.2621  0.2789
15328SOL     OW58456   8.601   4.212   1.409  0.0764  0.6253 -0.2508
15328SOL    HW158457   8.618   4.116   1.429  0.0946  0.8895  1.1255
15328SOL    HW258458   8.685   4.255   1.375  0.2172  0.2782 -0.3338
15329SOL     OW58459   0.889   2.289   8.808 -0.4266  0.0854  0.5830
15329SOL    HW158460   0.865   2.305   8.713  0.4273  2.3974  0.7036
15329SOL    HW258461   0.849   2.361   8.865 -1.4577 -1.6364  2.0542
15330SOL     OW58462   8.576   6.688   4.254 -0.0293  0.1926 -0.1911
15330SOL    HW158463   8.602   6.616   4.190  0.3105  0.3454 -0.2279
15330SOL    HW258464   8.543   6.768   4.203  1.7342  0.9109 -0.2653
15331SOL     OW58465   7.297   1.912   0.299  0.5813 -0.3482  0.7095
15331SOL    HW158466   7.278   1.975   0.375  0.7423 -2.4615  2.5714
15331SOL    HW258467   7.231   1.927   0.226  1.5818  3.0434  0.4071
15332SOL     OW58468   3.508   5.492   3.929 -0.5803  0.0448 -0.3576
15332SOL    HW158469   3.431   5.474   3.868 -0.4635  1.5811 -0.9805
15332SOL    HW258470   3.565   5.564   3.890  0.8149 -0.6157  0.4209
15333SOL     OW58471   5.372   6.354   3.235 -0.4413 -0.1210 -0.8109
15333SOL    HW158472   5.355   6.406   3.152  1.4380  0.4894 -0.8506
15333SOL    HW258473   5.317   6.391   3.310 -2.5056 -0.9766 -1.8642
15334SOL     OW58474   6.067   4.548   8.034  0.2300  0.2326 -0.0638
15334SOL    HW158475   6.090   4.625   7.974 -0.3263  0.2092 -0.3097
15334SOL    HW258476   6.007   4.484   7.985 -0.0483  0.1006  0.4421
15335SOL     OW58477   2.215   1.677   2.612  0.5622 -0.2296  0.3116
15335SOL    HW158478   2.220   1.591   2.663 -0.6048  1.0992  2.7278
15335SOL    HW258479   2.146   1.669   2.540  1.6064 -1.8263 -0.5455
15336SOL     OW58480   1.907   2.811   4.123 -0.3860  0.2233  0.1685
15336SOL    HW158481   1.845   2.882   4.154 -0.1487  0.3102  0.4409
15336SOL    HW258482   1.967   2.784   4.198  1.4183  1.7224 -0.6983
15337SOL     OW58483   0.862   5.133   2.188 -0.1275  0.2829 -0.0067
15337SOL    HW158484   0.886   5.212   2.132 -2.4871  0.7536 -0.4085
15337SOL    HW258485   0.888   5.049   2.141 -0.6214  0.7335 -1.0962
15338SOL     OW58486   7.152   7.151   2.995  0.1141 -0.5301  0.2131
15338SOL    HW158487   7.231   7.190   3.041 -0.5057  0.4479  0.4843
15338SOL    HW258488   7.068   7.181   3.042 -0.4480 -0.8327 -0.5805
15339SOL     OW58489   1.558   0.158   8.740  0.0262  0.2843  0.4820
15339SOL    HW158490   1.631   0.226   8.726  1.6145 -1.2926  0.8805
15339SOL    HW258491   1.599   0.067   8.746 -2.1214 -0.7471 -0.3712
15340SOL     OW58492   1.363   6.667   1.271  0.4945 -0.6822 -0.2857
15340SOL    HW158493   1.444   6.636   1.221 -0.6089 -2.3427 -1.0967
15340SOL    HW258494   1.321   6.589   1.318 -3.3657 -0.8641 -3.7954
15341SOL     OW58495   4.399   5.521   2.889  0.0062 -0.1784 -0.4221
15341SOL    HW158496   4.355   5.500   2.976  0.5684  0.8595  0.1100
15341SOL    HW258497   4.387   5.443   2.826 -1.3594 -0.4709  0.1902
15342SOL     OW58498   2.325   5.655   5.544 -0.0923 -0.3617 -0.0505
15342SOL    HW158499   2.423   5.661   5.563 -0.3514 -1.4224  1.7547
15342SOL    HW258500   2.306   5.571   5.493 -0.1054 -0.3193 -0.1156
15343SOL     OW58501   7.307   0.542   7.292 -0.1158  0.0138  0.5330
15343SOL    HW158502   7.218   0.497   7.304  0.3319 -0.3086  2.9875
15343SOL    HW258503   7.379   0.473   7.291  0.1142  0.2625 -1.6288
15344SOL     OW58504   1.568   4.573   1.523  0.1557  0.3191 -0.2120
15344SOL    HW158505   1.579   4.479   1.491 -0.1099 -0.3218  1.5296
15344SOL    HW258506   1.533   4.629   1.448  2.6141 -0.4104 -1.9867
15345SOL     OW58507   8.146   2.699   3.546  0.1514  0.0356  0.5293
15345SOL    HW158508   8.168   2.605   3.521  0.0554  0.6515 -2.0259
15345SOL    HW258509   8.061   2.727   3.501 -0.0867  1.1820  1.6630
15346SOL     OW58510   5.947   6.136   0.054 -0.0987  0.1561  0.0433
15346SOL    HW158511   5.854   6.126   0.090  0.0798  0.9449  0.7394
15346SOL    HW258512   6.013   6.127   0.129  0.4407 -1.1185 -0.5542
15347SOL     OW58513   8.143   8.388   2.904 -0.0347 -0.1447  0.2776
15347SOL    HW158514   8.165   8.415   2.998 -1.0619 -2.4607  1.2483
15347SOL    HW258515   8.161   8.290   2.893 -1.3003 -0.2070 -1.5010
15348SOL     OW58516   8.221   2.188   4.156  0.4480 -0.2680 -0.2827
15348SOL    HW158517   8.281   2.125   4.205  2.0213  1.1290 -0.3890
15348SOL    HW258518   8.206   2.270   4.211 -0.5031 -0.1383 -0.7212
15349SOL     OW58519   7.945   8.457   6.120 -0.1046 -0.3716  0.3628
15349SOL    HW158520   8.041   8.474   6.144  0.2429 -2.9910  0.9920
15349SOL    HW258521   7.887   8.479   6.198 -0.1260  2.0192 -0.2968
15350SOL     OW58522   7.199   7.655   0.805 -0.0352  0.3447 -0.2614
15350SOL    HW158523   7.247   7.735   0.842  0.1453  0.4143 -0.6394
15350SOL    HW258524   7.104   7.655   0.837 -0.2399  1.1093 -0.8466
15351SOL     OW58525   3.505   8.539   1.736 -0.3820  0.2479  0.4680
15351SOL    HW158526   3.604   8.542   1.730 -0.4060  0.6707  0.2748
15351SOL    HW258527   3.466   8.611   1.678 -0.8264 -0.7023 -0.4207
15352SOL     OW58528   6.051   6.347   2.165 -0.3502  0.2185 -0.0583
15352SOL    HW158529   5.961   6.338   2.124 -0.5887  1.2965  0.2235
15352SOL    HW258530   6.045   6.327   2.263  0.1872 -2.1944 -0.4817
15353SOL     OW58531   1.076   6.720   6.401  0.1677  0.0805  0.6051
15353SOL    HW158532   0.987   6.690   6.436  0.3107 -0.9008  0.1312
15353SOL    HW258533   1.089   6.685   6.308  0.1754  1.9208 -0.1040
15354SOL     OW58534   1.647   4.342   2.412 -0.6768  0.1633 -0.2814
15354SOL    HW158535   1.742   4.315   2.397 -0.9097 -0.1737 -1.1272
15354SOL    HW258536   1.587   4.264   2.395 -1.4412  1.4211 -3.6923
15355SOL     OW58537   1.636   5.563   1.648  0.2082 -0.3892 -0.4103
15355SOL    HW158538   1.688   5.621   1.712 -0.8252  0.5763 -0.4334
15355SOL    HW258539   1.690   5.481   1.627  2.4805  1.3891 -1.7779
15356SOL     OW58540   6.363   3.009   3.169 -0.2405 -0.1703  0.0125
15356SOL    HW158541   6.275   3.033   3.209 -0.7728 -2.5457  0.3410
15356SOL    HW258542   6.351   2.988   3.072  0.6364  3.2015 -0.8751
15357SOL     OW58543   8.112   4.644   7.071  0.1559 -0.1070  0.1869
15357SOL    HW158544   8.020   4.683   7.068 -0.0229 -0.5795 -0.6134
15357SOL    HW258545   8.151   4.640   6.979  1.1071  0.3751  0.5594
15358SOL     OW58546   0.591   4.207   8.655 -0.1515 -0.2909  0.2158
15358SOL    HW158547   0.672   4.153   8.677  1.5463  1.6189 -1.0992
15358SOL    HW258548   0.522   4.148   8.613 -0.1025 -2.2570  2.7574
15359SOL     OW58549   3.189   5.617   3.636  0.0039  0.1543  0.1035
15359SOL    HW158550   3.168   5.562   3.717  1.7853 -1.1015 -0.2820
15359SOL    HW258551   3.286   5.639   3.634 -0.4480  2.2211 -0.4452
15360SOL     OW58552   3.385   5.989   5.196 -0.3827  0.0180  0.0462
15360SOL    HW158553   3.313   5.927   5.164  0.0163 -0.2731 -0.2776
15360SOL    HW258554   3.467   5.977   5.140  0.4449 -0.7552  1.4163
15361SOL     OW58555   4.769   4.676   1.214  0.5255 -0.4380  0.2146
15361SOL    HW158556   4.740   4.615   1.288  1.2051 -1.5298 -0.4018
15361SOL    HW258557   4.860   4.649   1.182  0.8288  0.8895 -0.0910
15362SOL     OW58558   0.704   4.328   1.737 -0.4693  0.4490 -0.0448
15362SOL    HW158559   0.653   4.341   1.822 -0.1145  3.1189 -0.1769
15362SOL    HW258560   0.794   4.290   1.758 -0.6104  0.5093  0.7038
15363SOL     OW58561   2.867   4.429   1.157  0.3893  0.2953 -0.1808
15363SOL    HW158562   2.902   4.349   1.108 -1.0538 -0.7426  0.4517
15363SOL    HW258563   2.799   4.400   1.224  0.4621  1.9767  0.6462
15364SOL     OW58564   7.750   2.692   1.235  0.5262  0.1578  0.0579
15364SOL    HW158565   7.689   2.693   1.155  0.4804 -0.6022  0.0726
15364SOL    HW258566   7.828   2.632   1.216 -0.4085 -1.4631  1.2383
15365SOL     OW58567   6.092   5.344   0.354 -0.2006 -0.0232 -0.5438
15365SOL    HW158568   6.080   5.260   0.408 -1.6558  0.8912  0.5852
15365SOL    HW258569   6.061   5.327   0.260 -2.2807 -0.2436  0.1437
15366SOL     OW58570   5.737   5.546   6.640  0.1164 -0.1438  0.2367
15366SOL    HW158571   5.788   5.460   6.638  1.1258  0.4558 -0.3193
15366SOL    HW258572   5.736   5.581   6.734  0.3751 -0.3607  0.3220
15367SOL     OW58573   2.895   8.176   2.494  0.0594  0.5437  0.2756
15367SOL    HW158574   2.945   8.262   2.509  1.1896 -0.2569  1.2372
15367SOL    HW258575   2.960   8.103   2.474 -0.6557 -0.6747  2.2912
15368SOL     OW58576   5.843   0.310   3.617 -0.0072 -0.3283  0.0812
15368SOL    HW158577   5.816   0.391   3.669  0.5201  0.2601 -0.5534
15368SOL    HW258578   5.845   0.231   3.678 -1.6554 -0.0955  0.4585
15369SOL     OW58579   3.583   6.723   2.572  0.3638 -0.2765  0.1053
15369SOL    HW158580   3.500   6.693   2.619  0.1658 -1.6014 -1.0386
15369SOL    HW258581   3.562   6.738   2.475  1.0821  1.0469  0.1393
15370SOL     OW58582   4.227   6.038   7.871 -0.3029 -0.3764 -0.0347
15370SOL    HW158583   4.162   6.061   7.944  0.9751 -0.3168  1.0959
15370SOL    HW258584   4.302   5.984   7.909  0.3468 -0.3902 -1.3253
15371SOL     OW58585   4.024   0.494   4.792 -0.0863 -0.1684 -0.3747
15371SOL    HW158586   3.990   0.402   4.773  2.8008 -1.0779 -1.2456
15371SOL    HW258587   4.018   0.512   4.890 -1.4270 -0.9494 -0.2987
15372SOL     OW58588   0.724   7.960   0.312 -0.1491  0.2343 -0.0897
15372SOL    HW158589   0.762   7.919   0.229  0.8672 -0.1906  0.5835
15372SOL    HW258590   0.793   7.959   0.385 -1.6689 -1.2103  1.3674
15373SOL     OW58591   4.263   6.586   8.468  0.3273  0.3043 -0.0208
15373SOL    HW158592   4.335   6.655   8.474 -0.6096  1.2381  0.3577
15373SOL    HW258593   4.276   6.518   8.540 -0.3580  1.5871  1.3247
15374SOL     OW58594   6.462   3.133   8.269 -0.4984  0.3952  0.4139
15374SOL    HW158595   6.379   3.138   8.324 -0.2416  1.9977  0.6913
15374SOL    HW258596   6.495   3.226   8.251  0.3430 -0.1719 -1.0395
15375SOL     OW58597   3.830   5.620   2.795  0.4451  0.0522  0.1977
15375SOL    HW158598   3.778   5.666   2.723  1.3147  0.0396 -0.4429
15375SOL    HW258599   3.794   5.527   2.808  0.3152  0.0385 -0.2549
15376SOL     OW58600   0.236   6.866   0.486  0.2112 -0.0567 -0.2104
15376SOL    HW158601   0.331   6.836   0.481  0.1656 -0.5900  1.4809
15376SOL    HW258602   0.203   6.890   0.395  2.4263  1.6381 -0.6015
15377SOL     OW58603   7.012   5.272   6.886 -0.0103  0.0094  0.2148
15377SOL    HW158604   7.068   5.190   6.887 -0.3031 -0.2066 -0.7004
15377SOL    HW258605   6.916   5.248   6.902  0.3352  0.5471  3.3976
15378SOL     OW58606   3.028   7.373   6.891  0.0615  0.0390  0.0402
15378SOL    HW158607   3.083   7.316   6.953 -0.4269  0.0064  0.4489
15378SOL    HW258608   3.089   7.432   6.838  0.4363  0.8235  1.3168
15379SOL     OW58609   0.828   8.824   8.443  0.3979 -0.3479 -0.1086
15379SOL    HW158610   0.733   8.821   8.413  0.0535 -2.0557  1.0973
15379SOL    HW258611   0.882   8.877   8.377 -0.8694 -1.5984 -2.2018
15380SOL     OW58612   3.219   2.161   3.948 -0.1316  0.2449 -0.5057
15380SOL    HW158613   3.264   2.194   3.865  1.0565 -0.4637 -0.1557
15380SOL    HW258614   3.210   2.061   3.943 -1.4016  0.3410 -0.4323
15381SOL     OW58615   2.026   1.693   0.257  0.5884 -0.3835  0.0969
15381SOL    HW158616   1.965   1.615   0.242 -0.1890  0.3208 -0.5259
15381SOL    HW258617   2.065   1.722   0.169 -0.3808  0.9089  0.0669
15382SOL     OW58618   3.458   3.721   1.269 -0.0449  0.4923  0.0446
15382SOL    HW158619   3.392   3.650   1.246 -0.5853  0.4987  1.5752
15382SOL    HW258620   3.466   3.784   1.191 -2.2007  0.7759  0.0241
15383SOL     OW58621   4.522   3.474   0.643 -0.8277 -0.1100  0.6191
15383SOL    HW158622   4.546   3.435   0.732 -1.2782  0.0511  0.8124
15383SOL    HW258623   4.541   3.407   0.572  1.8345  0.6263  0.5780
15384SOL     OW58624   7.299   2.126   7.349  0.0666  0.3265 -0.7323
15384SOL    HW158625   7.241   2.196   7.392  0.6060  1.0699 -1.2152
15384SOL    HW258626   7.298   2.043   7.406 -1.2373  0.4260 -0.5836
15385SOL     OW58627   6.844   4.117   3.482  0.0401 -0.2897  0.6699
15385SOL    HW158628   6.851   4.208   3.441 -2.7311 -1.5233 -2.7996
15385SOL    HW258629   6.752   4.103   3.517 -0.0257 -2.3122 -0.2739
15386SOL     OW58630   1.306   4.816   5.328  0.6979 -0.4679 -0.3255
15386SOL    HW158631   1.287   4.900   5.276 -0.4145  0.3109  1.2982
15386SOL    HW258632   1.363   4.838   5.407  1.2151 -1.4119 -0.4315
15387SOL     OW58633   2.400   8.410   6.189 -0.3836  0.0624  0.8820
15387SOL    HW158634   2.352   8.458   6.115 -1.4114 -0.1092  1.4270
15387SOL    HW258635   2.490   8.451   6.202  0.1939 -0.4861 -1.0869
15388SOL     OW58636   1.440   2.745   3.746  0.7214 -0.6407  0.0791
15388SOL    HW158637   1.386   2.817   3.702  1.3691  0.5732  1.2252
15388SOL    HW258638   1.378   2.681   3.792  0.0979 -1.3071 -1.6351
15389SOL     OW58639   5.482   6.216   4.241 -0.0197  0.0717  0.3367
15389SOL    HW158640   5.527   6.128   4.255  0.5244  0.5284  1.4950
15389SOL    HW258641   5.395   6.217   4.291  0.2450  0.3951  0.7952
15390SOL     OW58642   4.827   6.454   1.292 -0.2500 -0.1119  0.4918
15390SOL    HW158643   4.767   6.438   1.213  1.6360  1.1234 -1.2696
15390SOL    HW258644   4.786   6.522   1.352  0.3883  2.5770 -1.9629
15391SOL     OW58645   7.383   3.036   8.276  0.1413  0.5307 -0.4584
15391SOL    HW158646   7.331   2.951   8.281  0.2301  0.5731  1.8364
15391SOL    HW258647   7.455   3.027   8.208 -1.3589 -0.3769 -1.9526
15392SOL     OW58648   3.727   4.914   8.240  0.1093 -0.7541  0.0984
15392SOL    HW158649   3.813   4.883   8.200  1.3528  0.3950  1.8312
15392SOL    HW258650   3.745   4.982   8.310 -2.2897  0.2619 -0.2160
15393SOL     OW58651   7.185   3.770   1.056  0.1104  0.7674 -0.4738
15393SOL    HW158652   7.271   3.722   1.043  1.2856  2.7394 -0.2260
15393SOL    HW258653   7.131   3.724   1.127  1.2874 -0.0511 -0.1054
15394SOL     OW58654   0.512   6.822   6.327  0.1204  0.4161  0.4687
15394SOL    HW158655   0.509   6.732   6.370  0.4129  1.8105  3.5948
15394SOL    HW258656   0.426   6.840   6.281  0.0199 -1.4124 -0.0919
15395SOL     OW58657   5.118   0.011   2.831  0.2747 -0.2832 -0.0100
15395SOL    HW158658   5.131  -0.019   2.736  0.2657  2.9300 -1.0819
15395SOL    HW258659   5.025  -0.011   2.860  0.5775 -2.1526 -0.4005
15396SOL     OW58660   2.015   1.359   4.841  0.1692 -0.0993 -0.1763
15396SOL    HW158661   2.061   1.367   4.753 -2.3318 -2.8167 -1.8597
15396SOL    HW258662   2.049   1.277   4.888  1.4689  1.3234  1.4209
15397SOL     OW58663   4.605   6.229   6.390  0.4436  0.3785 -0.2109
15397SOL    HW158664   4.536   6.296   6.417  0.8416  0.9897 -0.7050
15397SOL    HW258665   4.620   6.235   6.292  0.3352 -0.5789 -0.2900
15398SOL     OW58666   8.719   8.719   7.690 -0.1775 -0.4391  0.1375
15398SOL    HW158667   8.700   8.808   7.732  2.4016  0.5702 -0.7072
15398SOL    HW258668   8.751   8.656   7.761 -1.8446 -0.6645  0.7090
15399SOL     OW58669   3.085   5.571   7.887  0.1848  0.7507  0.1641
15399SOL    HW158670   3.096   5.670   7.881  0.6314  0.6872 -0.0506
15399SOL    HW258671   3.122   5.538   7.974 -0.8347  0.8954  0.6577
15400SOL     OW58672   7.681   3.946   4.732  0.2040  0.5688  0.4696
15400SOL    HW158673   7.639   4.030   4.767 -1.1849  0.5423 -1.0911
15400SOL    HW258674   7.741   3.969   4.656 -0.8312  0.0826 -0.5109
15401SOL     OW58675   4.506   1.880   5.284 -0.3433  0.0006  0.9928
15401SOL    HW158676   4.566   1.923   5.216 -0.5415 -2.4870 -0.8435
15401SOL    HW258677   4.439   1.947   5.316 -0.9177  0.9836 -2.0719
15402SOL     OW58678   8.224   7.235   8.084 -0.6525  0.2184 -0.2294
15402SOL    HW158679   8.204   7.333   8.084 -1.7292  0.0127 -1.0042
15402SOL    HW258680   8.322   7.221   8.097 -0.5949  1.3658  0.7352
15403SOL     OW58681   1.641   3.804   6.018  0.8246  0.4084  0.1852
15403SOL    HW158682   1.712   3.875   6.019  1.5394 -0.2599 -1.2698
15403SOL    HW258683   1.674   3.725   5.966 -0.3988 -0.5494  0.8292
15404SOL     OW58684   3.006   1.949   1.348 -0.2798  0.5251 -0.2858
15404SOL    HW158685   3.094   1.980   1.382 -0.2872  1.2448 -0.9090
15404SOL    HW258686   3.019   1.874   1.284 -0.2662 -0.8582  1.3064
15405SOL     OW58687   1.746   3.397   4.566  0.2462  0.2530  0.1128
15405SOL    HW158688   1.691   3.474   4.598  0.3292  0.7435 -0.9223
15405SOL    HW258689   1.788   3.420   4.478 -1.8267 -1.9200 -1.5176
15406SOL     OW58690   4.485   8.570   1.471  0.1867  1.2805  0.3111
15406SOL    HW158691   4.395   8.563   1.512  0.5252  3.6138  1.5817
15406SOL    HW258692   4.512   8.482   1.432 -2.3095  0.3778  0.5650
15407SOL     OW58693   3.662   0.855   7.619  0.3705 -0.0158  0.3190
15407SOL    HW158694   3.723   0.824   7.692  0.8712 -1.0308 -0.5273
15407SOL    HW258695   3.634   0.777   7.563  0.4468  0.8392 -0.9304
15408SOL     OW58696   2.203   6.307   1.295  0.2151 -0.2930  0.1174
15408SOL    HW158697   2.301   6.301   1.280  0.3488 -0.1993  0.9377
15408SOL    HW258698   2.185   6.356   1.380 -0.4789 -2.3183  1.1627
15409SOL     OW58699   5.514   8.011   1.523 -0.4017  0.6536  0.4556
15409SOL    HW158700   5.541   7.971   1.436 -1.6041  2.2533 -0.6670
15409SOL    HW258701   5.591   8.006   1.587  0.4555 -0.6194 -0.6383
15410SOL     OW58702   8.737   7.477   0.325 -0.5082 -0.3350  0.5067
15410SOL    HW158703   8.771   7.395   0.371 -3.1504 -1.8583 -0.2011
15410SOL    HW258704   8.741   7.464   0.226 -3.6668 -0.7998  0.4025
15411SOL     OW58705   8.037   5.250   3.418  0.2485  0.0455 -0.0410
15411SOL    HW158706   7.998   5.310   3.488 -0.5596  0.1978 -0.6121
15411SOL    HW258707   8.102   5.302   3.362 -0.7886  0.5286 -0.8247
15412SOL     OW58708   2.437   1.257   6.742  0.3238 -0.8118 -0.1128
15412SOL    HW158709   2.416   1.162   6.763  0.3191 -0.5446  1.1227
15412SOL    HW258710   2.470   1.303   6.824  0.0154  0.3420 -0.6208
15413SOL     OW58711   6.381   6.085   5.018 -0.2255  0.0994 -0.5816
15413SOL    HW158712   6.464   6.114   5.066  0.6670  1.5192 -2.9085
15413SOL    HW258713   6.307   6.073   5.084  1.7449 -0.9420  1.5048
15414SOL     OW58714   7.445   3.252   8.603 -0.3471 -0.4906 -0.1344
15414SOL    HW158715   7.444   3.348   8.631  0.0327 -0.5697  0.1580
15414SOL    HW258716   7.355   3.226   8.570 -0.4570 -0.0382 -0.1952
15415SOL     OW58717   8.912   3.031   4.775 -0.8293  0.2677  0.0763
15415SOL    HW158718   8.908   3.076   4.686  1.8519  0.5882  0.0862
15415SOL    HW258719   8.994   3.060   4.824 -0.8516 -1.9723  1.5248
15416SOL     OW58720   8.836   8.563   6.150  0.3173 -0.1439 -0.2193
15416SOL    HW158721   8.899   8.523   6.083  0.7557  1.7036 -0.9144
15416SOL    HW258722   8.751   8.589   6.104  0.5141  0.8912  0.0105
15417SOL     OW58723   6.026   5.070   1.062  0.6454 -0.0493 -0.3754
15417SOL    HW158724   6.000   5.164   1.084 -0.0039 -0.0669 -1.0719
15417SOL    HW258725   6.034   5.060   0.963  1.4928 -0.5268 -0.2703
15418SOL     OW58726   7.266   2.798   6.336 -0.9310  0.2113 -0.3347
15418SOL    HW158727   7.322   2.864   6.286  0.2929  0.6085  1.5189
15418SOL    HW258728   7.267   2.711   6.288 -1.2074  1.0485 -1.9136
15419SOL     OW58729   7.518   1.370   6.650  0.2646 -0.1475  0.3495
15419SOL    HW158730   7.552   1.362   6.557  0.9580 -0.1950  0.5990
15419SOL    HW258731   7.578   1.431   6.702  0.5636 -1.0495  1.0757
15420SOL     OW58732   8.326   1.824   5.777  0.8052  0.2886  0.2956
15420SOL    HW158733   8.320   1.725   5.765 -0.4516  0.3742  0.0799
15420SOL    HW258734   8.312   1.847   5.873 -1.0125  0.3815  0.0288
15421SOL     OW58735   1.373   1.249   8.339 -0.7749 -0.0396 -0.6206
15421SOL    HW158736   1.369   1.198   8.425  0.3954 -3.0701 -2.2640
15421SOL    HW258737   1.444   1.319   8.345 -0.3706 -0.5493  0.7419
15422SOL     OW58738   8.129   5.340   3.858  0.4138  0.9545  0.2296
15422SOL    HW158739   8.102   5.311   3.950 -0.1697 -0.3742 -0.3488
15422SOL    HW258740   8.213   5.395   3.864  0.9015  0.1072  1.4606
15423SOL     OW58741   8.957   4.814   2.026  0.1365 -0.5677  0.3771
15423SOL    HW158742   8.994   4.892   2.078  0.6664 -0.4098 -0.2389
15423SOL    HW258743   8.980   4.729   2.073 -0.6921 -0.3457  1.2094
15424SOL     OW58744   7.668   1.957   0.670  0.0022 -0.0160  0.7404
15424SOL    HW158745   7.605   1.884   0.696 -0.1866 -0.4803 -0.9406
15424SOL    HW258746   7.664   1.970   0.571  0.8627  1.5194  0.8941
15425SOL     OW58747   3.265   7.206   2.312  0.2102  0.1765 -1.3368
15425SOL    HW158748   3.194   7.179   2.247  0.3154 -1.9251 -0.6427
15425SOL    HW258749   3.228   7.200   2.405  0.8713  0.4814 -1.0527
15426SOL     OW58750   3.935   1.859   3.710 -0.3397 -0.2164  0.2318
15426SOL    HW158751   3.851   1.910   3.694 -0.8121 -0.7156  1.0685
15426SOL    HW258752   3.913   1.766   3.741  0.5053 -1.0362 -1.5741
15427SOL     OW58753   8.612   7.267   7.375 -0.0426 -0.0431  0.4530
15427SOL    HW158754   8.559   7.349   7.396  0.6569  0.2675  1.0331
15427SOL    HW258755   8.705   7.277   7.411  0.9430  0.1173 -2.0051
15428SOL     OW58756   3.246   8.629   6.306 -0.0358  0.4865 -0.5291
15428SOL    HW158757   3.246   8.696   6.381 -2.7405 -0.2960  0.2330
15428SOL    HW258758   3.335   8.584   6.301  0.7898  1.9020  0.9891
15429SOL     OW58759   6.474   0.762   8.518 -0.4520 -0.1261  0.5325
15429SOL    HW158760   6.430   0.756   8.428  1.2130  1.0015 -0.3829
15429SOL    HW258761   6.483   0.858   8.545  0.4126 -0.3854  1.2122
15430SOL     OW58762   8.476   5.729   0.905  0.4198  0.1750  0.3739
15430SOL    HW158763   8.568   5.723   0.945 -0.1835 -1.8245  1.5229
15430SOL    HW258764   8.416   5.778   0.967  0.8324  1.9745 -0.6312
15431SOL     OW58765   2.098   7.694   5.779 -0.8661 -0.4400 -0.0777
15431SOL    HW158766   2.160   7.617   5.792 -0.1350  0.1403 -0.1043
15431SOL    HW258767   2.031   7.697   5.853  1.1583  0.8593  1.7342
15432SOL     OW58768   2.149   4.416   2.843 -0.2922  0.0950  0.1388
15432SOL    HW158769   2.107   4.506   2.832  0.3840  0.7127  2.2478
15432SOL    HW258770   2.165   4.398   2.941  1.7380 -1.3035 -0.4011
15433SOL     OW58771   4.075   2.064   0.831  0.4244  0.6336 -0.1780
15433SOL    HW158772   4.086   2.063   0.931  0.6984 -0.9636 -0.2142
15433SOL    HW258773   3.978   2.062   0.809  0.3740 -0.0911  0.0686
15434SOL     OW58774   4.968   0.733   3.097 -0.3423  0.0916  0.6888
15434SOL    HW158775   4.897   0.760   3.032  0.7283 -0.6856 -0.8300
15434SOL    HW258776   5.013   0.814   3.133 -2.7708  0.6706  2.5975
15435SOL     OW58777   4.979   1.240   6.866  0.8541 -0.1705  0.3233
15435SOL    HW158778   4.973   1.337   6.840  1.7709 -0.4621 -1.0670
15435SOL    HW258779   4.990   1.233   6.965 -0.6113  1.0809  0.6103
15436SOL     OW58780   0.428   5.979   8.210 -0.0371 -0.3190  0.3490
15436SOL    HW158781   0.414   6.003   8.306  0.5185  0.2218  0.2982
15436SOL    HW258782   0.458   6.061   8.160  3.1294 -1.3664  0.4128
15437SOL     OW58783   3.698   0.101   2.305  0.1684  0.5011 -0.4186
15437SOL    HW158784   3.789   0.114   2.344 -0.8215  2.3441  1.3578
15437SOL    HW258785   3.660   0.190   2.277 -1.0035 -0.2662 -1.3506
15438SOL     OW58786   6.868   3.513   7.111  0.2677 -0.7687  0.4117
15438SOL    HW158787   6.786   3.535   7.058  0.7611  0.0480 -0.0396
15438SOL    HW258788   6.920   3.442   7.063  1.6436  1.2554 -1.1799
15439SOL     OW58789   1.733   5.272   6.593 -0.3102 -0.0130  0.1273
15439SOL    HW158790   1.755   5.218   6.512  3.2219  0.7931  0.4675
15439SOL    HW258791   1.737   5.369   6.570 -1.8340  0.1846  0.6685
15440SOL     OW58792   6.725   0.697   1.038  0.1617 -0.0085  0.0627
15440SOL    HW158793   6.770   0.765   0.979 -0.7827  0.6037  0.0289
15440SOL    HW258794   6.631   0.727   1.057  0.8881  0.5545  3.0654
15441SOL     OW58795   6.875   3.566   3.470 -0.0687 -0.1372 -0.1876
15441SOL    HW158796   6.884   3.660   3.503  0.4139 -0.5356  0.8636
15441SOL    HW258797   6.943   3.549   3.399 -0.0333  0.2548 -0.2479
15442SOL     OW58798   1.161   7.131   5.995 -0.1483  0.3172  0.1124
15442SOL    HW158799   1.223   7.088   6.060  0.8685  0.3339 -0.8444
15442SOL    HW258800   1.153   7.073   5.913 -2.4647 -0.3767  0.7854
15443SOL     OW58801   2.831   6.783   1.425 -0.0464  0.2197 -0.4081
15443SOL    HW158802   2.852   6.744   1.335 -1.1581  1.7880 -1.3737
15443SOL    HW258803   2.771   6.721   1.475  0.1819 -0.4357 -0.9351
15444SOL     OW58804   1.921   7.974   2.352  0.2073  0.3137  0.3670
15444SOL    HW158805   1.965   8.033   2.284  0.9110  1.1138  1.4975
15444SOL    HW258806   1.831   8.011   2.375  0.6023  0.9092  0.9922
15445SOL     OW58807   1.269   5.288   7.432 -0.4258 -0.1362  0.6086
15445SOL    HW158808   1.239   5.195   7.456  0.1567  0.1603  2.5654
15445SOL    HW258809   1.365   5.299   7.456 -0.0774  0.5126 -1.0270
15446SOL     OW58810   1.849   0.275   8.770 -0.2905  0.6573  0.0599
15446SOL    HW158811   1.912   0.237   8.703 -0.4879  1.4437 -0.5744
15446SOL    HW258812   1.862   0.229   8.858 -0.6488 -0.9864 -0.7363
15447SOL     OW58813   8.518   1.054   2.145  0.1057  0.0133 -0.0285
15447SOL    HW158814   8.419   1.069   2.138 -0.0554 -1.2165 -0.3812
15447SOL    HW258815   8.543   0.970   2.098  1.2479  0.0237  0.5438
15448SOL     OW58816   3.843   5.179   5.921 -0.4031  0.6352  0.3311
15448SOL    HW158817   3.853   5.103   5.857  0.6229  0.7635  0.3434
15448SOL    HW258818   3.749   5.181   5.955 -0.9283  0.4879 -1.0729
15449SOL     OW58819   4.416   4.291   5.644 -0.2502  0.4940 -0.2147
15449SOL    HW158820   4.508   4.311   5.677  0.9423 -1.3544 -2.2427
15449SOL    HW258821   4.362   4.249   5.717  1.3065 -0.6368  0.3005
15450SOL     OW58822   4.407   2.520   0.895 -0.1943 -0.0467  0.0927
15450SOL    HW158823   4.319   2.564   0.907 -0.0978  0.9308 -2.3351
15450SOL    HW258824   4.396   2.421   0.900 -0.9984  0.1238  2.1558
15451SOL     OW58825   8.988   5.458   5.388  0.3616  0.1337 -0.2661
15451SOL    HW158826   8.918   5.521   5.422  1.0292  1.3107 -1.0186
15451SOL    HW258827   9.002   5.474   5.290  2.4310  0.6687  0.0923
15452SOL     OW58828   6.169   3.824   5.529 -0.3703 -0.6847 -0.1287
15452SOL    HW158829   6.176   3.725   5.517  0.3549 -0.5606 -0.8183
15452SOL    HW258830   6.249   3.857   5.580 -1.0529 -0.5665  0.8807
15453SOL     OW58831   5.984   8.459   6.941 -0.4410  0.1917  0.1429
15453SOL    HW158832   6.042   8.505   6.874 -1.8597 -0.2401 -1.4182
15453SOL    HW258833   6.035   8.385   6.985  0.5437  0.5627 -0.3837
15454SOL     OW58834   1.951   5.287   4.582  0.1960  0.0136 -0.0849
15454SOL    HW158835   2.031   5.322   4.631  0.5629 -2.2309  0.9946
15454SOL    HW258836   1.975   5.272   4.486  1.3599 -1.4694  0.4160
15455SOL     OW58837   6.769   2.558   1.337 -0.4607 -0.7403  0.5329
15455SOL    HW158838   6.701   2.623   1.301 -1.7297 -2.0001  0.6246
15455SOL    HW258839   6.778   2.481   1.274  0.0089 -1.1574  1.1098
15456SOL     OW58840   0.767   5.074   7.758 -0.5856  0.1987 -0.0342
15456SOL    HW158841   0.748   5.134   7.680  0.9751  0.0063 -0.5897
15456SOL    HW258842   0.841   5.114   7.812 -0.5787 -0.4762  0.4468
15457SOL     OW58843   8.036   3.106   4.649 -0.1492  0.3884  0.3256
15457SOL    HW158844   8.117   3.135   4.598 -1.4458 -0.4979 -2.3304
15457SOL    HW258845   7.961   3.170   4.632 -1.4333 -1.4693 -1.2344
15458SOL     OW58846   5.644   1.480   2.975  0.0785 -0.6814 -0.3105
15458SOL    HW158847   5.650   1.388   3.012 -1.1258 -0.6191  0.0837
15458SOL    HW258848   5.587   1.537   3.035  1.0930  0.4177 -0.3614
15459SOL     OW58849   7.814   4.156   5.621  0.0273  0.1221 -0.0067
15459SOL    HW158850   7.853   4.064   5.624 -0.4643 -0.0630  1.1727
15459SOL    HW258851   7.740   4.163   5.689 -0.4835  1.1409 -0.6499
15460SOL     OW58852   8.509   6.806   1.892  0.6438 -0.3833  0.0679
15460SOL    HW158853   8.608   6.811   1.903  0.6280  0.1981  0.0025
15460SOL    HW258854   8.485   6.827   1.797  0.2928  2.2653  0.6883
15461SOL     OW58855   7.527   5.755   4.686 -0.0090 -0.3853 -0.1573
15461SOL    HW158856   7.440   5.743   4.734  1.2231 -1.6262  1.8376
15461SOL    HW258857   7.580   5.671   4.692  1.7770  0.7022 -0.4687
15462SOL     OW58858   2.113   4.765   0.019 -0.2010 -0.0475 -0.1229
15462SOL    HW158859   2.210   4.782   0.006 -0.1539 -1.3890 -1.6729
15462SOL    HW258860   2.074   4.726  -0.065 -2.1435  0.7875  0.3611
15463SOL     OW58861   4.819   4.319   6.255  0.3214 -0.6063 -0.0154
15463SOL    HW158862   4.847   4.226   6.231 -0.0861 -0.4512 -1.1199
15463SOL    HW258863   4.900   4.377   6.264  0.5174 -0.8042 -0.4693
15464SOL     OW58864   8.167   7.731   7.283  0.0823  0.3420  0.7534
15464SOL    HW158865   8.212   7.662   7.340  0.9883  0.7219  0.5130
15464SOL    HW258866   8.117   7.686   7.209  2.9941 -0.0094 -1.1074
15465SOL     OW58867   0.558   3.427   2.884  0.6437  0.2630 -0.0266
15465SOL    HW158868   0.545   3.428   2.983  0.2594  2.7998 -0.0840
15465SOL    HW258869   0.654   3.408   2.863  0.6317 -0.7527  0.8132
15466SOL     OW58870   6.048   8.780   7.807  0.0858  0.7099 -0.1584
15466SOL    HW158871   6.087   8.712   7.869  0.4070  0.7238 -0.3440
15466SOL    HW258872   5.949   8.787   7.823  0.2626  1.1466  0.7502
15467SOL     OW58873   8.150   6.279   4.826 -0.4764 -0.3288 -0.8659
15467SOL    HW158874   8.225   6.334   4.789  0.4654 -0.9257  0.1143
15467SOL    HW258875   8.070   6.336   4.840 -0.0643  0.4149 -1.5133
15468SOL     OW58876   3.915   1.203   7.904  0.3200 -0.0886 -0.7292
15468SOL    HW158877   3.829   1.255   7.902  1.2263  1.4111 -0.9538
15468SOL    HW258878   3.985   1.255   7.952  1.0526 -1.4291 -0.3094
15469SOL     OW58879   5.189   7.394   1.442 -0.3072 -0.0634 -1.1640
15469SOL    HW158880   5.229   7.426   1.356  0.5490  0.5658 -0.5458
15469SOL    HW258881   5.260   7.354   1.499 -0.7880 -0.0902 -0.5780
15470SOL     OW58882   0.386   3.897   0.973  0.4705  0.3115 -0.4546
15470SOL    HW158883   0.411   3.815   0.921 -1.1790  0.7072 -1.9302
15470SOL    HW258884   0.397   3.978   0.916  1.5803  1.0989  0.8299
15471SOL     OW58885   5.643   3.679   2.217 -0.0230 -0.2860 -0.2141
15471SOL    HW158886   5.687   3.638   2.297 -3.5297 -1.7722  1.0222
15471SOL    HW258887   5.589   3.758   2.245 -1.4194 -0.9288 -1.0544
15472SOL     OW58888   8.701   1.917   6.326  0.1767 -0.2065 -0.0558
15472SOL    HW158889   8.742   1.867   6.403  0.3282 -1.0608 -0.6782
15472SOL    HW258890   8.764   1.987   6.294  1.8613 -2.5545 -2.0350
15473SOL     OW58891   4.721   8.585   0.773  0.0523 -0.4746  0.3918
15473SOL    HW158892   4.679   8.617   0.858  0.8373  1.4875  0.0638
15473SOL    HW258893   4.654   8.591   0.699  0.0414 -0.0930  0.4347
15474SOL     OW58894   3.189   5.189   0.216 -0.1045  0.2155 -0.6846
15474SOL    HW158895   3.229   5.271   0.176  0.1817  0.8931  0.9628
15474SOL    HW258896   3.178   5.202   0.314 -2.3735 -0.7806 -0.7857
15475SOL     OW58897   3.981   7.988   8.862 -0.3983  0.4891  0.2573
15475SOL    HW158898   3.926   7.908   8.886  0.8317 -0.8001 -1.0770
15475SOL    HW258899   3.932   8.071   8.888 -1.8211 -0.6827  1.4319
15476SOL     OW58900   0.243   1.767   1.722 -0.0923 -0.3265 -0.1096
15476SOL    HW158901   0.277   1.804   1.809  0.6468 -1.5018  0.1174
15476SOL    HW258902   0.236   1.840   1.655 -0.8928  0.6355  1.0155
15477SOL     OW58903   5.065   3.375   5.780 -0.1058 -0.6566  0.5138
15477SOL    HW158904   5.020   3.422   5.705 -2.2504 -0.5041  1.8448
15477SOL    HW258905   5.163   3.365   5.760 -0.6371 -0.6423 -2.2584
15478SOL     OW58906   2.855   5.579   6.072 -0.3311  0.1256  0.2506
15478SOL    HW158907   2.868   5.617   6.163 -1.2569  3.0529 -0.7621
15478SOL    HW258908   2.757   5.577   6.051  0.0147  2.5403 -1.8508
15479SOL     OW58909   5.608   7.804   3.387 -0.0234 -0.2323  0.4145
15479SOL    HW158910   5.692   7.840   3.345  1.1423 -0.2845  2.6587
15479SOL    HW258911   5.540   7.877   3.393  0.6203  0.3583  0.5549
15480SOL     OW58912   6.680   5.880   4.135 -0.2297  0.4327  0.0101
15480SOL    HW158913   6.747   5.852   4.065 -0.6139 -1.7912  0.4866
15480SOL    HW258914   6.605   5.929   4.091  1.1371  1.9643 -0.6832
15481SOL     OW58915   6.861   8.655   6.666 -0.4324  0.3976  0.2118
15481SOL    HW158916   6.947   8.671   6.714 -0.3808  0.3977  0.1176
15481SOL    HW258917   6.789   8.635   6.734 -0.1205 -0.6954  0.2344
15482SOL     OW58918   1.496   8.814   5.957 -0.3548  0.3134 -0.5614
15482SOL    HW158919   1.410   8.782   5.917 -0.2717 -0.8114  0.1545
15482SOL    HW258920   1.487   8.820   6.056  0.3685  0.2984 -0.4918
15483SOL     OW58921   3.001   2.328   0.878 -0.1295  0.0716  0.0973
15483SOL    HW158922   3.065   2.356   0.807  1.4040  0.7544  1.7108
15483SOL    HW258923   3.037   2.249   0.927 -1.3164 -0.5822 -0.0548
15484SOL     OW58924   4.049   2.320   2.674 -0.1323 -0.2360  0.1648
15484SOL    HW158925   4.095   2.394   2.724  2.2879 -1.2842 -0.4083
15484SOL    HW258926   4.006   2.257   2.739  2.7004 -1.4053  0.9935
15485SOL     OW58927   4.492   1.963   0.245 -0.0827 -0.3028  0.1947
15485SOL    HW158928   4.417   2.013   0.287 -1.8278 -2.1840 -0.5783
15485SOL    HW258929   4.505   1.995   0.151 -1.0253 -1.0375 -0.2093
15486SOL     OW58930   7.051   6.811   6.124 -0.3187 -0.6319 -0.1619
15486SOL    HW158931   7.137   6.838   6.080 -0.5074  1.0738  0.5007
15486SOL    HW258932   6.974   6.855   6.077 -0.5163  1.3861  1.9745
15487SOL     OW58933   3.069   0.978   7.269 -0.2159 -0.2402  0.2916
15487SOL    HW158934   3.094   0.885   7.296 -1.4110 -0.0445  2.1395
15487SOL    HW258935   3.008   1.018   7.337 -0.5132  1.5576 -0.9768
15488SOL     OW58936   3.888   1.312   8.530  0.3231  0.4210  0.6052
15488SOL    HW158937   3.830   1.384   8.566  0.0525  0.4293  0.1663
15488SOL    HW258938   3.932   1.343   8.446 -0.8070 -0.3508 -0.3025
15489SOL     OW58939   3.822   6.379   6.300  0.0863 -0.3543 -0.6697
15489SOL    HW158940   3.826   6.425   6.211 -2.9642  0.5688 -0.3810
15489SOL    HW258941   3.791   6.285   6.287 -1.6981  0.1863 -0.4994
15490SOL     OW58942   0.941   3.784   8.591  0.0717  0.2816 -0.0637
15490SOL    HW158943   0.921   3.738   8.505  0.1821  1.1277 -0.5560
15490SOL    HW258944   1.033   3.825   8.587 -0.4623  1.5120 -0.0845
15491SOL     OW58945   8.324   7.812   3.409  0.0703 -0.3018  0.4175
15491SOL    HW158946   8.258   7.753   3.362  0.7167 -0.6327 -0.0802
15491SOL    HW258947   8.380   7.859   3.341  0.5470 -0.2467  0.8475
15492SOL     OW58948   1.187   7.005   3.774  0.5258  0.1356 -0.3261
15492SOL    HW158949   1.173   6.911   3.803  2.2382  0.7904  2.8746
15492SOL    HW258950   1.101   7.044   3.742 -0.7054 -1.7615  0.6509
15493SOL     OW58951   4.883   1.612   2.438  0.1119  0.0959 -0.3557
15493SOL    HW158952   4.786   1.600   2.415 -0.1082  1.2346 -0.0742
15493SOL    HW258953   4.931   1.525   2.427 -0.5633 -0.0606 -2.2769
15494SOL     OW58954   8.864   7.944   0.309 -0.4549 -0.1904 -0.0288
15494SOL    HW158955   8.849   8.005   0.388 -1.7829  0.0887 -0.4766
15494SOL    HW258956   8.826   7.854   0.330 -1.4205  0.0753 -0.5843
15495SOL     OW58957   8.539   6.076   4.335  0.7330  0.0289  0.0245
15495SOL    HW158958   8.444   6.046   4.334  0.2302  1.5752 -0.0231
15495SOL    HW258959   8.570   6.094   4.241  1.1693 -0.7773  0.0145
15496SOL     OW58960   0.531   0.730   0.643 -0.9617  0.1567 -0.2069
15496SOL    HW158961   0.554   0.723   0.740 -1.9704 -0.6563 -0.0129
15496SOL    HW258962   0.586   0.666   0.591 -1.8834 -0.9026  0.1007
15497SOL     OW58963   6.673   7.570   6.492 -0.6632  0.4576 -0.2324
15497SOL    HW158964   6.653   7.480   6.532  0.8357  0.5921  0.8894
15497SOL    HW258965   6.670   7.639   6.564 -0.9980  1.1845 -0.9433
15498SOL     OW58966   3.804   4.312   6.879 -0.4838  0.1485 -0.0759
15498SOL    HW158967   3.763   4.230   6.839 -0.1281 -0.1963  0.2528
15498SOL    HW258968   3.793   4.390   6.817 -0.3214 -0.2787 -0.6446
15499SOL     OW58969   8.906   0.177   0.428 -0.7032  0.3948  0.2413
15499SOL    HW158970   8.943   0.269   0.426  1.1663 -0.3306  0.9090
15499SOL    HW258971   8.932   0.129   0.345 -0.4569  0.0019  0.5448
15500SOL     OW58972   6.036   2.431   7.745 -0.1083 -0.2219 -0.5574
15500SOL    HW158973   6.022   2.340   7.785 -0.9648  0.4935  0.8544
15500SOL    HW258974   6.128   2.462   7.766  0.0240 -0.5746 -0.6110
15501SOL     OW58975   8.425   3.942   8.121 -0.1196 -0.5275  0.0414
15501SOL    HW158976   8.325   3.946   8.130 -0.1547 -0.0591 -0.5515
15501SOL    HW258977   8.462   4.034   8.112  0.3562 -0.7113  0.0802
15502SOL     OW58978   4.542   3.086   7.405 -0.1963  0.0008 -0.2406
15502SOL    HW158979   4.628   3.036   7.399  0.4299  0.8940  1.1681
15502SOL    HW258980   4.537   3.153   7.331  0.2260 -0.2060 -0.4565
15503SOL     OW58981   0.469   3.393   1.223 -0.1097  0.4027  0.0812
15503SOL    HW158982   0.545   3.349   1.175 -1.0861 -1.0294 -0.1829
15503SOL    HW258983   0.400   3.422   1.157 -0.4201  0.4539  0.4300
15504SOL     OW58984   6.782   4.021   4.589  0.1148 -0.0213  0.0051
15504SOL    HW158985   6.741   4.110   4.570  1.8786  0.3704 -2.2460
15504SOL    HW258986   6.714   3.949   4.573 -0.7082  0.8006 -0.2249
15505SOL     OW58987   8.778   2.506   5.882  0.0874 -0.8107 -0.0249
15505SOL    HW158988   8.787   2.407   5.885  0.1198 -0.8058  0.0500
15505SOL    HW258989   8.783   2.538   5.787 -0.7356 -0.9533 -0.1214
15506SOL     OW58990   0.207   3.128   4.700 -0.2082  0.0980 -0.6351
15506SOL    HW158991   0.208   3.051   4.636 -1.3918 -0.4667  0.0126
15506SOL    HW258992   0.282   3.117   4.766  0.1838 -0.0182 -1.0941
15507SOL     OW58993   4.465   1.111   5.710 -0.3891  0.1204  0.6706
15507SOL    HW158994   4.441   1.045   5.781  0.4183 -0.7508  0.1508
15507SOL    HW258995   4.387   1.125   5.650  0.2070 -2.3859 -0.7755
15508SOL     OW58996   3.916   7.237   4.597  0.2905  0.4934 -0.2320
15508SOL    HW158997   3.877   7.148   4.573  0.8155 -0.4619  2.3042
15508SOL    HW258998   3.861   7.279   4.668 -0.0819  2.3472 -1.5788
15509SOL     OW58999   7.860   4.726   7.602 -0.2848 -0.3086 -0.1503
15509SOL    HW159000   7.887   4.755   7.511  2.6614  0.6924  0.9907
15509SOL    HW259001   7.878   4.799   7.668  1.9150 -2.5917  1.8876
15510SOL     OW59002   1.367   0.333   1.336  0.4367 -0.2350 -0.6350
15510SOL    HW159003   1.328   0.241   1.335 -0.4707  0.1459 -2.0761
15510SOL    HW259004   1.296   0.399   1.359  1.0669  0.1316  0.3007
15511SOL     OW59005   7.065   3.517   3.273 -0.4880 -0.2069 -0.6880
15511SOL    HW159006   7.096   3.601   3.228  0.1805  0.1263  0.3810
15511SOL    HW259007   7.016   3.460   3.207  0.2786  0.3851 -1.7785
15512SOL     OW59008   6.884   2.920   7.564  0.1979  0.5706 -0.1151
15512SOL    HW159009   6.877   3.020   7.569  2.3420  0.6817  1.0758
15512SOL    HW259010   6.980   2.893   7.559 -0.2583 -1.5329  1.6738
15513SOL     OW59011   4.928   2.150   5.243  0.7930 -0.1752  0.1075
15513SOL    HW159012   4.857   2.146   5.313  0.2134  0.6931 -0.4278
15513SOL    HW259013   4.962   2.057   5.225 -1.2139 -0.7809 -0.6495
15514SOL     OW59014   4.444   0.593   7.573 -0.2259 -0.5754  0.5791
15514SOL    HW159015   4.416   0.507   7.615  0.2299 -1.1733 -0.3267
15514SOL    HW259016   4.428   0.590   7.475  0.6346  0.0267  0.4071
15515SOL     OW59017   8.538   6.287   6.584  0.1580  0.4263 -0.1340
15515SOL    HW159018   8.632   6.253   6.584 -0.0195 -0.0599 -1.2584
15515SOL    HW259019   8.475   6.211   6.571 -0.4415  0.6472  1.3672
15516SOL     OW59020   0.750   1.733   7.546  0.1143 -0.2124 -0.0117
15516SOL    HW159021   0.839   1.698   7.576  0.4310  1.3912  1.0016
15516SOL    HW259022   0.681   1.707   7.613  0.4119  1.3669  0.9275
15517SOL     OW59023   1.790   7.482   4.278  0.2577  0.5200 -0.0099
15517SOL    HW159024   1.828   7.486   4.371 -1.2359  1.4007  0.6036
15517SOL    HW259025   1.707   7.426   4.279 -0.3087  1.3390 -0.6013
15518SOL     OW59026   6.351   7.807   1.819 -0.1522  0.4871 -0.3337
15518SOL    HW159027   6.308   7.733   1.871  1.6495  0.0719  0.6018
15518SOL    HW259028   6.392   7.770   1.736  0.0172  0.5642 -0.2850
15519SOL     OW59029   6.418   7.696   8.023  0.1272  0.4846 -0.3568
15519SOL    HW159030   6.449   7.602   8.042  1.4714  0.6593 -1.5898
15519SOL    HW259031   6.319   7.700   8.031  0.2153 -0.5703  1.7300
15520SOL     OW59032   2.070   6.061   6.484 -0.1144  0.5951  0.0975
15520SOL    HW159033   2.133   6.060   6.561  0.9406  1.2402 -0.7421
15520SOL    HW259034   2.034   5.969   6.469  2.6525 -0.3587 -1.0531
15521SOL     OW59035   7.507   8.446   5.436 -0.7308  0.6154 -0.0512
15521SOL    HW159036   7.546   8.415   5.523 -1.8196 -1.3359 -0.2439
15521SOL    HW259037   7.469   8.538   5.448 -0.6561  0.4587  1.4700
15522SOL     OW59038   5.793   0.293   0.180  0.1465  0.0958 -0.3040
15522SOL    HW159039   5.768   0.361   0.110 -0.4302  1.3817  1.1234
15522SOL    HW259040   5.720   0.286   0.247  1.2932 -0.1034  0.9418
15523SOL     OW59041   3.360   6.543   8.284  0.3635 -0.1221 -0.2707
15523SOL    HW159042   3.382   6.607   8.357  1.0284  1.4060 -1.7967
15523SOL    HW259043   3.261   6.540   8.271  0.3456  0.8263 -0.3869
15524SOL     OW59044   2.050   0.610   1.765 -0.1043 -0.4171  0.1650
15524SOL    HW159045   1.967   0.640   1.719 -0.2164 -0.1230  0.5566
15524SOL    HW259046   2.057   0.654   1.855 -0.2391 -1.5175  0.7295
15525SOL     OW59047   1.099   6.047   1.341  0.1045 -0.0763  0.0184
15525SOL    HW159048   1.048   6.097   1.271  0.2745  0.0779  0.0023
15525SOL    HW259049   1.070   6.077   1.431 -1.6432 -1.8064  0.0548
15526SOL     OW59050   0.699   4.919   3.387  0.2833  0.2074  0.3696
15526SOL    HW159051   0.663   4.877   3.470 -1.4527  2.0914  0.6160
15526SOL    HW259052   0.624   4.938   3.323  1.2675  1.0322 -0.5722
15527SOL     OW59053   3.629   2.113   3.076 -0.0691  0.1279  0.3550
15527SOL    HW159054   3.703   2.051   3.051  0.2466  0.6266  0.0228
15527SOL    HW259055   3.562   2.065   3.132  0.8345 -0.1651  1.1993
15528SOL     OW59056   1.672   7.472   1.099 -0.2231  0.4871 -0.3437
15528SOL    HW159057   1.705   7.427   1.182  2.3083  2.6854 -0.1053
15528SOL    HW259058   1.720   7.436   1.019 -1.6556 -0.6268 -0.7260
15529SOL     OW59059   0.537   2.030   5.320 -0.7139  0.6529 -0.5607
15529SOL    HW159060   0.511   1.964   5.249 -1.2765  0.7484 -0.4407
15529SOL    HW259061   0.637   2.035   5.325 -0.6711  0.3728 -1.0942
15530SOL     OW59062   8.080   7.166   2.466  0.0089 -0.0308  0.0255
15530SOL    HW159063   8.049   7.224   2.390  2.2526  0.4342 -0.5805
15530SOL    HW259064   8.076   7.070   2.438 -0.4286  0.0600 -0.2192
15531SOL     OW59065   3.164   0.313   8.278  0.7316 -0.6485  0.5649
15531SOL    HW159066   3.134   0.394   8.228 -0.9410  0.0074  2.5302
15531SOL    HW259067   3.084   0.259   8.305  1.6583 -1.5707  1.5439
15532SOL     OW59068   8.414   4.408   8.775  0.4207  0.4367  0.1853
15532SOL    HW159069   8.417   4.471   8.853 -0.1880  1.1912 -0.3860
15532SOL    HW259070   8.508   4.383   8.749  0.6050 -0.2475  1.4907
15533SOL     OW59071   8.556   6.560   5.820 -0.4544 -0.0601  0.4592
15533SOL    HW159072   8.608   6.488   5.775  1.9439  1.8672  0.0812
15533SOL    HW259073   8.471   6.576   5.770 -0.9626 -2.5042  0.4725
15534SOL     OW59074   0.047   7.040   0.625 -0.1639  0.0454  0.3927
15534SOL    HW159075  -0.022   6.997   0.683 -1.5558  1.1851 -0.3803
15534SOL    HW259076   0.098   6.969   0.575  0.1628 -0.8701  1.9875
15535SOL     OW59077   3.883   1.418   5.106  0.2895 -0.1546 -0.0782
15535SOL    HW159078   3.896   1.453   5.199  0.7733  0.3700 -0.3472
15535SOL    HW259079   3.801   1.459   5.066 -0.4250 -1.0533  0.4395
15536SOL     OW59080   5.150   6.579   1.537 -0.2468  0.3489 -0.1257
15536SOL    HW159081   5.141   6.588   1.438  0.8874  1.3846 -0.1501
15536SOL    HW259082   5.117   6.489   1.566 -1.6243  0.4679 -1.2954
15537SOL     OW59083   4.478   4.165   2.537 -0.4710  0.6998 -0.2999
15537SOL    HW159084   4.396   4.108   2.527 -0.7886  1.1686 -0.3475
15537SOL    HW259085   4.452   4.259   2.555  0.0736  0.4609  1.8352
15538SOL     OW59086   2.403   5.753   7.667  0.6012  0.3687 -0.4265
15538SOL    HW159087   2.386   5.823   7.737  0.9620  1.7266 -1.6764
15538SOL    HW259088   2.428   5.797   7.581  0.8088 -1.3105 -1.2466
15539SOL     OW59089   5.577   6.656   1.356  0.6144 -1.3099  0.3805
15539SOL    HW159090   5.549   6.749   1.333  0.6498 -1.8901 -2.1079
15539SOL    HW259091   5.505   6.592   1.330  1.1044 -2.1086  0.9680
15540SOL     OW59092   4.029   0.791   3.272  0.2853  0.0444 -0.2910
15540SOL    HW159093   4.068   0.879   3.247  1.3579 -0.4245 -0.3014
15540SOL    HW259094   3.948   0.773   3.216  0.4884  0.6892 -0.7923
15541SOL     OW59095   0.253   3.086   7.617 -0.0691  0.1075 -0.4111
15541SOL    HW159096   0.249   3.050   7.710  0.0739 -1.1145 -0.8694
15541SOL    HW259097   0.320   3.035   7.564 -0.3259  0.6356 -1.2564
15542SOL     OW59098   8.177   0.129   6.964  0.3369  0.3299  0.1340
15542SOL    HW159099   8.091   0.174   6.938 -0.3292 -1.0517 -0.0798
15542SOL    HW259100   8.232   0.112   6.883  0.6081  0.7709  0.2204
15543SOL     OW59101   3.756   7.708   0.699  0.0301 -0.1116 -0.6510
15543SOL    HW159102   3.843   7.677   0.662 -0.2802 -0.5854 -0.9909
15543SOL    HW259103   3.768   7.798   0.741  0.4746  0.2591 -1.5581
15544SOL     OW59104   4.961   1.114   2.982  0.3309 -0.4067  0.1528
15544SOL    HW159105   4.954   1.205   3.023 -0.1404 -0.9491  1.3254
15544SOL    HW259106   4.870   1.082   2.957  0.3561 -1.0258  0.8295
15545SOL     OW59107   5.416   3.891   8.750  0.0820 -0.2344 -1.1031
15545SOL    HW159108   5.367   3.815   8.707 -0.9065  1.1611 -2.5126
15545SOL    HW259109   5.350   3.956   8.788  0.9193 -0.0897  0.1292
15546SOL     OW59110   2.488   0.422   5.242 -0.8649  0.3668 -0.1607
15546SOL    HW159111   2.482   0.334   5.289 -1.9875  0.1145 -0.7601
15546SOL    HW259112   2.412   0.480   5.269 -0.1563  1.1364  0.1855
15547SOL     OW59113   5.872   1.199   2.809  0.3198 -0.8080  0.0526
15547SOL    HW159114   5.940   1.129   2.786 -1.7693 -2.4535 -1.2890
15547SOL    HW259115   5.836   1.181   2.901 -0.8866 -2.1181 -0.6426
15548SOL     OW59116   0.537   7.352   7.048  0.1836  0.6855  0.1304
15548SOL    HW159117   0.448   7.388   7.019 -0.4325 -1.7241 -1.1127
15548SOL    HW259118   0.608   7.381   6.983 -0.4682 -1.0498 -1.4028
15549SOL     OW59119   8.458   5.758   3.821 -0.2381 -0.1009 -0.4773
15549SOL    HW159120   8.499   5.809   3.897 -1.9380 -1.1226  1.1753
15549SOL    HW259121   8.529   5.706   3.774  0.8034  0.3367  0.5682
15550SOL     OW59122   8.815   3.867   7.354  0.5816 -0.2952  0.3309
15550SOL    HW159123   8.898   3.817   7.332  0.3468 -1.4509  1.9874
15550SOL    HW259124   8.821   3.904   7.446 -0.4541  0.2037  0.2089
15551SOL     OW59125   7.545   2.457   5.823  0.4303 -0.3246  0.0372
15551SOL    HW159126   7.534   2.375   5.878 -1.8840  0.9267  1.5394
15551SOL    HW259127   7.636   2.495   5.835  1.1419 -2.0596  0.1644
15552SOL     OW59128   2.550   3.057   3.019 -0.4392  0.4975 -0.0414
15552SOL    HW159129   2.638   3.053   3.066  0.2158 -2.0179 -1.3687
15552SOL    HW259130   2.522   3.152   3.008  0.7027  1.2270  2.9604
15553SOL     OW59131   2.138   4.718   0.570  0.0721  0.5641 -0.5803
15553SOL    HW159132   2.138   4.767   0.658 -0.8338  0.2288 -0.3821
15553SOL    HW259133   2.231   4.717   0.532  0.7835 -0.5657  1.1031
15554SOL     OW59134   0.230   6.271   7.034 -0.9599 -0.7197 -0.1657
15554SOL    HW159135   0.301   6.224   6.981 -0.5529 -1.6424  1.1790
15554SOL    HW259136   0.146   6.276   6.979 -0.7708 -2.3287 -0.6282
15555SOL     OW59137   8.910   3.098   2.989 -0.2361  0.0948  0.4750
15555SOL    HW159138   8.821   3.062   2.961 -0.2316  1.2039 -1.0078
15555SOL    HW259139   8.974   3.023   3.004 -1.3288 -0.6911  1.2598
15556SOL     OW59140   0.565   0.396   8.157  0.1004 -0.1184  0.3297
15556SOL    HW159141   0.574   0.410   8.058  2.9421  1.1143  0.7018
15556SOL    HW259142   0.618   0.316   8.184 -0.4667 -0.3096  0.8674
15557SOL     OW59143   3.978   7.010   5.665  0.0758  0.2037  0.2074
15557SOL    HW159144   4.023   7.049   5.746  1.1729  0.3503 -0.4557
15557SOL    HW259145   4.017   7.050   5.583 -0.7109 -0.2864 -0.4123
15558SOL     OW59146   0.659   2.797   7.260  0.4765  0.1306  0.2830
15558SOL    HW159147   0.601   2.810   7.341 -2.2303  0.4985 -1.6376
15558SOL    HW259148   0.702   2.884   7.236 -1.6879  0.9592 -0.7923
15559SOL     OW59149   3.718   1.801   4.854 -0.7035 -0.6880 -0.1080
15559SOL    HW159150   3.638   1.755   4.815  0.2438 -1.0204 -1.7189
15559SOL    HW259151   3.688   1.865   4.925 -2.2540 -1.9603  0.4222
15560SOL     OW59152   1.581   4.481   4.122  0.3817 -0.2737 -0.7671
15560SOL    HW159153   1.620   4.443   4.038 -1.7629 -1.3263 -1.3363
15560SOL    HW259154   1.531   4.410   4.171  2.4107  0.0798  1.9586
15561SOL     OW59155   4.252   4.456   6.046  0.0690 -0.2154  0.0671
15561SOL    HW159156   4.287   4.531   6.103  0.0854 -0.7978  0.8385
15561SOL    HW259157   4.176   4.489   5.990  1.2849  0.8494 -1.0005
15562SOL     OW59158   0.148   6.644   5.347 -0.1361 -0.4078  0.7588
15562SOL    HW159159   0.199   6.559   5.359 -1.1073 -0.7893  2.4347
15562SOL    HW259160   0.104   6.668   5.434 -1.1182  0.9858 -0.1173
15563SOL     OW59161   3.911   2.873   7.892  0.3618  0.5543  0.1640
15563SOL    HW159162   3.835   2.920   7.847 -0.6264 -0.4146  0.7775
15563SOL    HW259163   3.967   2.939   7.941 -3.0713  0.7737  4.0298
15564SOL     OW59164   3.644   5.507   5.612  0.0979 -0.2009  0.7542
15564SOL    HW159165   3.737   5.485   5.581  0.6294  0.8088  1.5964
15564SOL    HW259166   3.647   5.589   5.669 -1.4225  0.2527  0.1885
15565SOL     OW59167   5.733   7.997   2.641 -0.1377  0.3732  1.0290
15565SOL    HW159168   5.714   7.926   2.709  0.4176 -0.5962  0.1867
15565SOL    HW259169   5.649   8.048   2.623 -0.8636 -0.9015  0.7054
15566SOL     OW59170   0.467   0.363   6.656 -0.1706 -0.2989 -0.1603
15566SOL    HW159171   0.429   0.380   6.747  0.5521  1.4404 -0.1757
15566SOL    HW259172   0.442   0.437   6.594  2.6425  0.5672 -0.3493
15567SOL     OW59173   2.403   2.284   4.728 -0.1584 -0.5361  0.0919
15567SOL    HW159174   2.303   2.280   4.727 -0.3079  2.1154  0.3418
15567SOL    HW259175   2.439   2.246   4.643 -1.4511 -0.0863 -0.6772
15568SOL     OW59176   1.709   0.044   1.729 -0.0287  0.0688 -0.4091
15568SOL    HW159177   1.646   0.004   1.662 -1.3591  0.7005  0.4272
15568SOL    HW259178   1.716   0.142   1.714  1.1541 -0.0738 -0.8057
15569SOL     OW59179   7.924   4.167   2.087 -0.3870 -0.0224  0.0318
15569SOL    HW159180   7.991   4.120   2.145 -0.3343 -1.9548 -1.5593
15569SOL    HW259181   7.880   4.101   2.026 -1.3586  1.7666 -1.2494
15570SOL     OW59182   8.389   3.716   5.210 -0.1690 -0.0717  0.7187
15570SOL    HW159183   8.455   3.716   5.285  1.1070  1.2203 -0.3637
15570SOL    HW259184   8.397   3.630   5.159 -0.1335 -0.4003  1.2678
15571SOL     OW59185   6.583   5.869   3.364 -0.0585  0.4059  0.6614
15571SOL    HW159186   6.598   5.776   3.398 -1.5202 -0.0006  0.2217
15571SOL    HW259187   6.501   5.871   3.307  1.0539  1.5758 -0.9254
15572SOL     OW59188   0.766   3.799   0.731  0.9775  0.2827 -0.5404
15572SOL    HW159189   0.677   3.811   0.686 -0.2547  0.5119  1.8755
15572SOL    HW259190   0.835   3.853   0.682 -0.2357  0.2730 -2.3326
15573SOL     OW59191   5.056   4.720   4.313  0.1059 -0.6728 -0.2314
15573SOL    HW159192   5.087   4.675   4.396  0.4374 -2.3533 -1.2308
15573SOL    HW259193   5.044   4.652   4.241 -0.7001  0.6791 -1.4077
15574SOL     OW59194   0.729   5.151   2.597 -0.3945  0.2084  0.4514
15574SOL    HW159195   0.654   5.087   2.616  0.2361 -0.3799  0.9789
15574SOL    HW259196   0.733   5.219   2.670 -0.3764  0.2099  0.4485
15575SOL     OW59197   2.903   5.192   4.654 -0.2331 -0.1324 -0.5684
15575SOL    HW159198   2.996   5.175   4.623  0.4059  0.3099  1.0285
15575SOL    HW259199   2.891   5.153   4.746 -0.7964  2.0715  0.3279
15576SOL     OW59200   2.998   8.522   6.856  0.0770  0.0573  0.4059
15576SOL    HW159201   2.903   8.506   6.882 -0.4146  1.9691 -0.1339
15576SOL    HW259202   3.056   8.512   6.937 -0.5795 -0.9723  0.7708
15577SOL     OW59203   7.854   7.711   6.922 -0.2591  0.3452 -0.1830
15577SOL    HW159204   7.918   7.670   6.987 -0.3133 -0.7782 -0.8269
15577SOL    HW259205   7.785   7.765   6.972 -1.4763 -2.1027  0.8674
15578SOL     OW59206   4.364   6.931   0.553  0.0064  0.0202  0.2579
15578SOL    HW159207   4.294   6.882   0.502 -1.0147  1.7019 -0.0089
15578SOL    HW259208   4.342   6.928   0.651 -0.7896  1.0493  0.1231
15579SOL     OW59209   3.746   2.663   8.586 -0.2169 -0.1052  0.4267
15579SOL    HW159210   3.704   2.684   8.498  0.9535  1.3066  0.1928
15579SOL    HW259211   3.845   2.665   8.578 -0.0956  0.3033  1.8361
15580SOL     OW59212   2.725   4.945   8.605 -0.4009 -0.3958 -0.3078
15580SOL    HW159213   2.751   5.039   8.628  0.2722 -0.5529 -0.4027
15580SOL    HW259214   2.715   4.936   8.506 -1.2418 -0.2315 -0.2382
15581SOL     OW59215   1.282   4.800   6.412 -0.2175  0.0947  0.3670
15581SOL    HW159216   1.339   4.825   6.490  0.2906  1.8197 -0.5216
15581SOL    HW259217   1.313   4.850   6.331 -0.3773 -2.0924 -1.0700
15582SOL     OW59218   7.886   8.923   6.844  0.1083  0.3952 -0.2032
15582SOL    HW159219   7.879   9.021   6.865 -0.6272  0.3053 -0.0310
15582SOL    HW259220   7.936   8.877   6.918 -0.2304  0.5109  0.0967
15583SOL     OW59221   4.104   3.501   7.894 -0.8793 -0.1938 -0.1742
15583SOL    HW159222   4.012   3.538   7.907 -1.6238 -0.8436 -3.1554
15583SOL    HW259223   4.150   3.552   7.821  0.6662 -0.6953  0.4326
15584SOL     OW59224   2.161   6.968   0.802  0.6861 -0.3620 -0.1345
15584SOL    HW159225   2.121   6.889   0.849  0.4767  0.4239  1.0403
15584SOL    HW259226   2.251   6.944   0.766  0.3606 -1.3096 -0.3181
15585SOL     OW59227   6.657   7.275   3.009  0.0168 -0.1159  0.2235
15585SOL    HW159228   6.627   7.365   2.978  1.2991  0.6437  1.1881
15585SOL    HW259229   6.602   7.247   3.088 -0.4648 -0.2504 -0.1522
15586SOL     OW59230   2.661   2.995   2.106  0.3673 -0.0805  0.4622
15586SOL    HW159231   2.573   2.964   2.141 -0.0089 -1.9856 -2.0071
15586SOL    HW259232   2.728   2.922   2.114  0.5958 -0.1247 -1.5303
15587SOL     OW59233   8.842   2.132   0.292 -0.5595 -0.0384 -0.3511
15587SOL    HW159234   8.745   2.128   0.266 -1.0440 -0.6678  1.4930
15587SOL    HW259235   8.866   2.226   0.315 -0.5928  0.2082 -1.2895
15588SOL     OW59236   0.154   2.985   8.205  0.0447 -0.1082  0.3460
15588SOL    HW159237   0.146   2.887   8.185  0.8690 -0.4793  1.7610
15588SOL    HW259238   0.239   3.003   8.253 -0.6771  1.1269  1.2115
15589SOL     OW59239   8.567   6.313   8.336 -0.1040 -0.3399 -0.3518
15589SOL    HW159240   8.599   6.264   8.417  0.9191 -0.6957 -0.9618
15589SOL    HW259241   8.468   6.304   8.328 -0.1498 -0.7069  0.5910
15590SOL     OW59242   4.191   7.416   1.075 -0.1323 -0.1975 -0.0387
15590SOL    HW159243   4.274   7.376   1.036  0.0993  0.3230 -0.0705
15590SOL    HW259244   4.128   7.441   1.001  0.7003  1.6670 -0.1385
15591SOL     OW59245   0.444   8.029   4.848 -0.2770  0.2411 -0.0089
15591SOL    HW159246   0.538   8.059   4.831 -0.0922  1.2727  2.5435
15591SOL    HW259247   0.381   8.090   4.800  0.3087  0.6930 -0.2122
15592SOL     OW59248   1.154   1.200   1.411 -0.1580 -0.0745  0.3548
15592SOL    HW159249   1.221   1.127   1.417 -1.0755 -0.9596 -0.0986
15592SOL    HW259250   1.156   1.255   1.494 -0.6590 -1.6519  1.4237
15593SOL     OW59251   7.055   0.099   0.602  0.4340  0.4915  0.2789
15593SOL    HW159252   6.994   0.130   0.675  0.3417 -1.7837  1.2271
15593SOL    HW259253   7.006   0.034   0.544  1.3322  0.2293 -0.1915
15594SOL     OW59254   4.495   2.001   4.665 -0.1653  0.0275 -0.2057
15594SOL    HW159255   4.462   1.935   4.597  0.5046 -0.0415 -0.4676
15594SOL    HW259256   4.565   2.058   4.624  0.8327 -0.5496  0.6658
15595SOL     OW59257   4.412   1.600   5.244  0.4825 -0.4776 -0.0036
15595SOL    HW159258   4.370   1.517   5.283  0.1654 -0.5224 -0.4359
15595SOL    HW259259   4.430   1.665   5.317 -1.6137  0.0951  0.0234
15596SOL     OW59260   6.294   1.174   1.332  0.0215 -0.1395 -0.5134
15596SOL    HW159261   6.229   1.099   1.326 -1.7029  1.3145 -0.5308
15596SOL    HW259262   6.320   1.204   1.241  1.3974 -1.2830 -0.5048
15597SOL     OW59263   6.649   8.202   1.798 -0.1624  0.7809 -0.4801
15597SOL    HW159264   6.724   8.255   1.838 -0.8102 -0.3648  2.3855
15597SOL    HW259265   6.569   8.260   1.786  0.2019  1.2571 -0.6423
15598SOL     OW59266   3.280   3.961   3.886 -0.1378  0.0818 -0.6052
15598SOL    HW159267   3.249   4.022   3.959  0.6609 -1.7551  1.3464
15598SOL    HW259268   3.312   4.015   3.808  0.5402  2.1418  1.0594
15599SOL     OW59269   2.330   0.634   5.347 -0.0932 -0.9624 -0.2244
15599SOL    HW159270   2.332   0.594   5.439 -3.0893  1.2006  0.8393
15599SOL    HW259271   2.240   0.620   5.306 -0.0293  1.4849 -1.2690
15600SOL     OW59272   7.861   4.071   3.878  0.0042 -0.0488 -0.4714
15600SOL    HW159273   7.896   3.981   3.906 -1.2152 -0.2603  0.4355
15600SOL    HW259274   7.934   4.124   3.836  1.8387  0.0994  2.7350
15601SOL     OW59275   5.064   6.467   6.934 -0.2071 -0.2747 -0.2476
15601SOL    HW159276   4.973   6.430   6.950 -0.2246 -0.6669 -1.2159
15601SOL    HW259277   5.087   6.458   6.837  1.0837 -0.6866  0.0841
15602SOL     OW59278   7.880   4.948   3.760  0.4166 -0.4636 -0.2553
15602SOL    HW159279   7.963   4.892   3.769  0.1761 -0.8048 -0.1606
15602SOL    HW259280   7.891   5.011   3.683  1.7164  1.1331  1.1680
15603SOL     OW59281   7.713   4.853   5.064  0.2552  0.2271  0.3496
15603SOL    HW159282   7.809   4.881   5.063  0.1428  0.6224  0.5886
15603SOL    HW259283   7.704   4.767   5.015  0.4847  1.0084 -1.1061
15604SOL     OW59284   6.586   4.102   2.251 -0.0358 -0.2818  0.0627
15604SOL    HW159285   6.649   4.114   2.175  1.7909 -2.3241  1.1953
15604SOL    HW259286   6.548   4.009   2.248 -0.1854 -0.2733  1.4516
15605SOL     OW59287   4.230   8.993   5.450  0.0674  0.7057 -0.1850
15605SOL    HW159288   4.267   8.980   5.357  1.8114  0.0358  0.5749
15605SOL    HW259289   4.216   9.090   5.467 -1.3987  0.7500 -1.5748
15606SOL     OW59290   3.185   3.045   6.451  0.4477 -0.1054  0.4634
15606SOL    HW159291   3.195   2.947   6.468  1.4354  0.2943  2.3400
15606SOL    HW259292   3.209   3.095   6.534  1.3094  1.7957 -0.9093
15607SOL     OW59293   7.193   7.059   1.659 -0.4120  0.2468 -0.0237
15607SOL    HW159294   7.113   7.025   1.708 -0.5395  0.8891  0.2250
15607SOL    HW259295   7.275   7.010   1.689 -0.0923  2.3414  2.6936
15608SOL     OW59296   4.144   1.202   3.779  0.3356  0.2079 -0.2313
15608SOL    HW159297   4.063   1.172   3.830  0.8365 -1.7527 -0.5341
15608SOL    HW259298   4.225   1.188   3.835  0.7907 -1.0320 -1.1777
15609SOL     OW59299   2.963   3.192   2.547 -0.0687  0.2564 -0.1162
15609SOL    HW159300   3.006   3.141   2.621  1.1002 -2.1921 -2.4016
15609SOL    HW259301   2.890   3.137   2.507 -0.8061  1.6205 -0.6753
15610SOL     OW59302   2.120   6.826   2.478  0.1178 -0.5455  0.5897
15610SOL    HW159303   2.033   6.868   2.503  1.0349  1.7750  0.0082
15610SOL    HW259304   2.131   6.828   2.379  1.1553 -0.2057  0.7117
15611SOL     OW59305   6.042   5.971   2.766  0.0457 -0.1176 -0.5369
15611SOL    HW159306   5.992   5.893   2.802  0.4889 -0.3214 -0.3588
15611SOL    HW259307   6.007   5.993   2.675 -0.6325 -0.0075 -0.2524
15612SOL     OW59308   8.634   6.165   4.770 -0.1584  0.2058 -1.0389
15612SOL    HW159309   8.710   6.215   4.811  1.0718 -0.0254 -2.9499
15612SOL    HW259310   8.553   6.175   4.826  1.5383 -0.3928  1.6011
15613SOL     OW59311   2.731   2.345   8.503 -0.5621 -0.4562 -0.2899
15613SOL    HW159312   2.639   2.306   8.504  0.1340 -2.1173  1.7785
15613SOL    HW259313   2.793   2.286   8.555  1.2255  1.6940  0.0869
15614SOL     OW59314   3.866   8.805   2.579 -0.0321  0.2103  0.1166
15614SOL    HW159315   3.782   8.774   2.535 -0.5429  1.3680  0.2478
15614SOL    HW259316   3.946   8.770   2.529 -0.5962  0.6635 -1.1131
15615SOL     OW59317   6.615   2.908   8.287  0.3675 -0.8640 -0.0934
15615SOL    HW159318   6.541   2.860   8.239 -0.9370  0.3443  0.6478
15615SOL    HW259319   6.599   3.007   8.280 -0.4542 -0.6651  3.7165
15616SOL     OW59320   7.230   4.203   0.755 -0.7596  0.3803  0.1952
15616SOL    HW159321   7.230   4.153   0.842  0.3999  0.3007  0.1546
15616SOL    HW259322   7.135   4.221   0.728 -1.1968 -1.3829  0.4499
15617SOL     OW59323   2.846   1.359   3.021  0.2113 -0.5525 -0.6639
15617SOL    HW159324   2.876   1.345   3.115  1.0906 -0.6353 -0.9524
15617SOL    HW259325   2.770   1.298   3.000  0.2045 -0.7359 -0.0991
15618SOL     OW59326   5.152   6.355   0.781 -0.6034 -0.2657  0.0491
15618SOL    HW159327   5.219   6.349   0.706  0.9109 -0.2169  1.3732
15618SOL    HW259328   5.060   6.356   0.743  0.1373 -0.4789 -1.8118
15619SOL     OW59329   8.596   3.255   4.988 -0.1806  0.4219  0.0846
15619SOL    HW159330   8.678   3.200   5.001 -0.3346 -0.3283 -1.9155
15619SOL    HW259331   8.515   3.199   5.003 -0.3411  0.5800 -0.1873
15620SOL     OW59332   7.073   4.328   4.458  0.0986  0.2724  0.3311
15620SOL    HW159333   7.104   4.400   4.519  1.0859 -0.1545  0.3341
15620SOL    HW259334   7.072   4.241   4.507  1.0389 -0.0982 -0.3105
15621SOL     OW59335   1.182   8.625   0.449 -0.2488 -0.0193  0.8207
15621SOL    HW159336   1.092   8.582   0.446 -1.3143  2.2621 -1.2440
15621SOL    HW259337   1.172   8.724   0.454  2.1640  0.2229  1.8697
15622SOL     OW59338   1.765   8.449   1.077 -0.0929  0.7115  0.2652
15622SOL    HW159339   1.684   8.496   1.112 -0.3271 -0.3777  1.2048
15622SOL    HW259340   1.754   8.350   1.089  1.1939  0.5328  0.0102
15623SOL     OW59341   5.601   3.026   8.852  0.3199  0.1891 -0.0933
15623SOL    HW159342   5.605   3.118   8.813  2.6475 -0.9857 -2.7502
15623SOL    HW259343   5.670   3.016   8.923 -0.7235  0.8229  1.0347
15624SOL     OW59344   8.115   8.442   0.621 -0.7955 -0.2956  0.7339
15624SOL    HW159345   8.137   8.344   0.620 -0.3276 -0.1907 -0.8146
15624SOL    HW259346   8.147   8.482   0.707  1.3391 -1.0126  0.3247
15625SOL     OW59347   1.255   0.059   1.303 -0.0970 -0.2834 -0.1526
15625SOL    HW159348   1.189  -0.009   1.332 -1.5119  0.8654 -0.6329
15625SOL    HW259349   1.251   0.069   1.203 -0.1881  0.7853 -0.0448
15626SOL     OW59350   0.240   1.229   7.363  0.1606  0.0631  0.2749
15626SOL    HW159351   0.277   1.156   7.305 -0.7037  0.0798 -0.3059
15626SOL    HW259352   0.143   1.211   7.380  0.7330 -0.6868  2.8671
15627SOL     OW59353   0.745   4.437   5.719  0.5330  0.3319 -0.0074
15627SOL    HW159354   0.815   4.500   5.754 -0.2455  0.5272  1.2354
15627SOL    HW259355   0.656   4.483   5.718  0.1834 -0.3386 -0.3127
15628SOL     OW59356   2.245   8.564   2.058  0.2384 -0.0717  0.1912
15628SOL    HW159357   2.288   8.655   2.054  1.3990 -0.6256 -0.4545
15628SOL    HW259358   2.226   8.540   2.153  1.9134 -0.0524  0.5478
15629SOL     OW59359   6.120   4.490   3.494  0.0007  0.3056  0.4527
15629SOL    HW159360   6.054   4.565   3.485 -1.7977 -1.4309 -1.3236
15629SOL    HW259361   6.093   4.431   3.570  0.2019  0.2501  0.4816
15630SOL     OW59362   5.354   4.733   4.760  0.0597  0.8603 -0.4087
15630SOL    HW159363   5.438   4.786   4.750  0.0813  0.9420  0.2272
15630SOL    HW259364   5.298   4.772   4.833  1.0133 -1.2521  1.4776
15631SOL     OW59365   6.050   2.328   1.227  0.5770  0.0453  0.0075
15631SOL    HW159366   6.103   2.402   1.270  1.6723 -0.8136  0.1747
15631SOL    HW259367   6.047   2.342   1.128  0.2082  0.6745  0.1068
15632SOL     OW59368   1.955   7.324   3.569  0.3192  0.1174 -0.1309
15632SOL    HW159369   1.914   7.357   3.654 -1.9527 -2.0770 -0.3379
15632SOL    HW259370   1.926   7.382   3.493  0.9782  1.0405  0.3037
15633SOL     OW59371   5.098   5.815   5.464  0.5845 -0.6881 -0.2807
15633SOL    HW159372   5.124   5.758   5.386  0.0744 -1.8911  0.4231
15633SOL    HW259373   5.164   5.802   5.538  0.4457 -0.3852 -0.1020
15634SOL     OW59374   6.001   3.809   4.621 -0.0515  0.0358 -0.3923
15634SOL    HW159375   5.998   3.786   4.718 -1.1188  0.6136 -0.2860
15634SOL    HW259376   5.916   3.853   4.594  1.3733  2.5563 -0.9293
15635SOL     OW59377   3.766   4.959   2.251  0.5793 -0.3094  0.1717
15635SOL    HW159378   3.678   4.979   2.207  1.2631  1.1004 -0.6106
15635SOL    HW259379   3.836   4.949   2.181  1.6588  1.8266  0.8973
15636SOL     OW59380   0.086   2.541   5.177  0.2900 -0.3380  0.3035
15636SOL    HW159381  -0.013   2.529   5.188  0.3202  0.5504  1.5596
15636SOL    HW259382   0.104   2.629   5.135  0.6206  0.2790  1.7104
15637SOL     OW59383   7.550   1.250   0.340  0.0581  0.2214  0.1242
15637SOL    HW159384   7.486   1.202   0.280 -0.5504 -0.4380  1.2887
15637SOL    HW259385   7.560   1.199   0.425 -1.9057  2.9974  2.0947
15638SOL     OW59386   4.822   6.522   2.388  0.9136 -0.3576  0.4513
15638SOL    HW159387   4.790   6.446   2.444  1.3634 -0.0302  1.1693
15638SOL    HW259388   4.755   6.596   2.390  0.1627 -1.0054 -0.8049
15639SOL     OW59389   3.766   0.139   0.153 -0.2709  0.0793  0.2631
15639SOL    HW159390   3.832   0.072   0.117 -1.6744 -1.0495 -0.2607
15639SOL    HW259391   3.795   0.168   0.244  0.8121 -0.6086  0.1533
15640SOL     OW59392   5.310   1.659   6.202 -0.3074  0.4416 -0.3289
15640SOL    HW159393   5.347   1.567   6.190 -0.1215  0.8486 -3.1817
15640SOL    HW259394   5.215   1.662   6.171  0.0561  1.4774 -1.3991
15641SOL     OW59395   2.332   3.095   1.940  0.3420 -0.1844 -0.1750
15641SOL    HW159396   2.317   3.002   1.974 -1.8415 -0.2762 -1.3371
15641SOL    HW259397   2.390   3.144   2.005 -0.8448 -1.4523  1.9198
15642SOL     OW59398   1.354   8.089   0.342 -0.1185 -0.0525 -0.1586
15642SOL    HW159399   1.431   8.117   0.399 -1.3571  0.5492  1.2645
15642SOL    HW259400   1.326   8.165   0.283 -1.0247  0.4699  0.9280
15643SOL     OW59401   4.564   8.255   5.412 -0.3293 -0.1420  0.2899
15643SOL    HW159402   4.548   8.352   5.431 -0.0887  0.1210 -0.7845
15643SOL    HW259403   4.640   8.222   5.469 -0.5310  0.2495  0.7935
15644SOL     OW59404   1.740   6.184   8.044 -0.0711 -0.2504 -0.3056
15644SOL    HW159405   1.830   6.225   8.038  0.1004 -0.5787 -0.0084
15644SOL    HW259406   1.675   6.251   8.081  0.2532 -0.3057  0.3787
15645SOL     OW59407   6.624   1.704   1.254  1.0570 -0.6803 -0.5030
15645SOL    HW159408   6.610   1.766   1.177  1.1396 -1.2022 -0.9396
15645SOL    HW259409   6.579   1.741   1.335 -0.6478 -1.0471 -1.2574
15646SOL     OW59410   6.204   6.971   2.038 -0.2480  0.6114  0.7377
15646SOL    HW159411   6.119   6.972   1.986  0.7018  0.7807 -0.8198
15646SOL    HW259412   6.257   6.890   2.014  0.5427  1.0737  0.8962
15647SOL     OW59413   2.105   3.587   7.867  0.0488  0.4444  0.6676
15647SOL    HW159414   2.124   3.685   7.877 -1.6125  0.6001  2.6158
15647SOL    HW259415   2.181   3.534   7.903  0.0096  1.0235  1.6023
15648SOL     OW59416   1.435   6.015   5.466  0.0209 -0.0330 -0.0603
15648SOL    HW159417   1.466   6.033   5.559  0.5685 -0.9525 -0.0592
15648SOL    HW259418   1.418   5.917   5.455 -3.4271  0.4581  0.1065
15649SOL     OW59419   1.247   4.227   1.238 -0.4056  0.2144 -0.4430
15649SOL    HW159420   1.242   4.316   1.283  0.2584 -0.4531  0.9642
15649SOL    HW259421   1.183   4.164   1.281 -2.3434  0.5459 -2.7302
15650SOL     OW59422   4.162   1.429   1.539  0.6358  0.1081  0.7453
15650SOL    HW159423   4.211   1.509   1.574  2.5730 -0.5190 -0.4781
15650SOL    HW259424   4.224   1.350   1.539  0.2711 -0.2242 -2.7563
15651SOL     OW59425   0.904   4.834   3.770  0.2790  0.6278 -0.0089
15651SOL    HW159426   0.986   4.783   3.798  0.1871 -0.2340 -1.2750
15651SOL    HW259427   0.905   4.925   3.812  1.5441  0.3688  0.5330
15652SOL     OW59428   1.022   5.337   1.243 -0.7018 -0.2528 -0.1886
15652SOL    HW159429   1.106   5.284   1.243  0.0892  0.9770 -1.9766
15652SOL    HW259430   1.028   5.410   1.312  0.2501  0.6672 -1.2311
15653SOL     OW59431   8.456   4.923   2.754  0.8654  0.3063  0.1992
15653SOL    HW159432   8.530   4.979   2.716 -0.1907 -1.2167 -4.3378
15653SOL    HW259433   8.487   4.829   2.762 -0.0423 -0.0282 -0.1830
15654SOL     OW59434   4.039   6.472   1.160  0.2713  0.4032  0.0942
15654SOL    HW159435   4.107   6.541   1.136 -0.2988  0.3275 -1.8797
15654SOL    HW259436   3.999   6.434   1.076 -1.0469 -0.6985  1.1861
15655SOL     OW59437   3.345   2.593   8.237 -0.3345  0.3011  0.5704
15655SOL    HW159438   3.329   2.554   8.146 -1.7356  0.2927  0.8146
15655SOL    HW259439   3.282   2.553   8.303 -1.0269  2.1224  1.0560
15656SOL     OW59440   8.995   7.533   0.603  0.2288 -0.5340  0.1352
15656SOL    HW159441   8.910   7.558   0.649  0.8700 -0.2021  1.1462
15656SOL    HW259442   9.022   7.441   0.632  1.0616 -0.0036  1.0481
15657SOL     OW59443   2.295   6.720   0.377  0.0344  0.1968  0.2987
15657SOL    HW159444   2.389   6.752   0.378  0.6115 -1.3718 -0.9074
15657SOL    HW259445   2.233   6.797   0.391  1.3875  1.6924 -1.6171
15658SOL     OW59446   4.387   1.862   3.958  0.2319  0.7517  0.0364
15658SOL    HW159447   4.410   1.923   3.883 -1.8768  4.6836  2.4103
15658SOL    HW259448   4.434   1.892   4.041 -1.0347 -0.7415  1.3320
15659SOL     OW59449   4.919   3.470   7.025 -0.1808 -0.1470  0.5243
15659SOL    HW159450   4.948   3.424   6.941 -0.6812  0.4774  0.0088
15659SOL    HW259451   4.985   3.451   7.097  0.6372 -0.1110 -0.2001
15660SOL     OW59452   3.225   4.554   8.075 -0.6162  0.0154 -0.3528
15660SOL    HW159453   3.318   4.583   8.052 -0.9105  1.6166  0.4788
15660SOL    HW259454   3.163   4.579   8.001 -0.6442  0.2649 -0.2423
15661SOL     OW59455   1.596   3.995   2.964 -0.9139 -0.1486  0.2837
15661SOL    HW159456   1.540   3.948   3.032 -2.0928  1.0653  0.1707
15661SOL    HW259457   1.573   4.093   2.965 -0.9385 -0.1260 -1.8794
15662SOL     OW59458   8.295   4.264   1.344  0.1604  0.2225  0.2314
15662SOL    HW159459   8.373   4.277   1.283  1.1237 -0.5222  1.2710
15662SOL    HW259460   8.318   4.301   1.434 -1.5348  2.0351 -0.0517
15663SOL     OW59461   2.378   6.705   8.689  0.7225 -0.4872  0.6103
15663SOL    HW159462   2.413   6.692   8.596 -1.1963  1.9891 -0.5096
15663SOL    HW259463   2.330   6.622   8.718  0.5522 -0.9642 -0.9697
15664SOL     OW59464   7.242   5.891   4.943 -0.8818  0.2030  0.4944
15664SOL    HW159465   7.251   5.936   4.854  1.6038  2.6252  1.9199
15664SOL    HW259466   7.145   5.882   4.966 -1.5561 -0.3727 -2.3726
15665SOL     OW59467   2.060   1.976   8.804 -0.0504 -0.8324  0.1898
15665SOL    HW159468   2.049   1.897   8.744  0.2932  0.6314 -1.8103
15665SOL    HW259469   2.107   2.050   8.756  1.3310 -0.0479  2.6181
15666SOL     OW59470   7.529   8.998   1.091 -0.5010  0.0792  0.0839
15666SOL    HW159471   7.524   8.979   1.189 -0.2900  0.6966  0.2169
15666SOL    HW259472   7.615   9.045   1.070 -0.0692 -0.9698 -0.5588
15667SOL     OW59473   6.213   6.527   5.206  0.3709  0.6188 -0.0905
15667SOL    HW159474   6.276   6.557   5.134 -0.0033 -1.1995 -1.1949
15667SOL    HW259475   6.264   6.477   5.277  0.2126 -0.7410 -0.9203
15668SOL     OW59476   8.256   0.241   7.197  0.4497 -0.1026 -0.1722
15668SOL    HW159477   8.305   0.187   7.266 -0.9695 -0.2634  0.7476
15668SOL    HW259478   8.231   0.182   7.120 -1.8167 -1.0139  1.2026
15669SOL     OW59479   3.321   0.046   7.318 -0.2310 -0.4109  0.6348
15669SOL    HW159480   3.363   0.099   7.245  1.6470 -1.3197  1.0091
15669SOL    HW259481   3.361   0.072   7.406 -1.3771 -0.4115  1.1744
15670SOL     OW59482   1.178   0.359   4.868  0.0798 -0.2132  0.0403
15670SOL    HW159483   1.264   0.308   4.876 -0.7027 -1.5492  0.0672
15670SOL    HW259484   1.121   0.317   4.798 -0.3640  0.9683 -0.3249
15671SOL     OW59485   3.296   6.758   5.810  0.2968 -0.5442 -0.4240
15671SOL    HW159486   3.300   6.715   5.901  0.8701  0.9802  0.2913
15671SOL    HW259487   3.374   6.727   5.756  0.9271 -0.1031  0.2221
15672SOL     OW59488   0.857   0.734   5.635  0.0654 -0.3397 -0.3706
15672SOL    HW159489   0.854   0.792   5.716  1.0310  0.9312 -1.2277
15672SOL    HW259490   0.856   0.638   5.663 -1.3223  0.0729  1.0695
15673SOL     OW59491   0.350   1.191   2.339 -0.0120 -0.0147  0.7840
15673SOL    HW159492   0.279   1.261   2.333  0.4211  0.2129 -2.4410
15673SOL    HW259493   0.440   1.233   2.329  0.2578 -0.9842 -0.9528
15674SOL     OW59494   3.983   1.329   8.283  0.0993 -0.3840  0.5401
15674SOL    HW159495   4.071   1.372   8.265 -0.0171 -0.5479 -0.4800
15674SOL    HW259496   3.986   1.233   8.252 -1.0733  0.1803 -1.4412
15675SOL     OW59497   2.591   6.738   8.149 -0.1570  0.0664 -0.0727
15675SOL    HW159498   2.524   6.760   8.219  1.0904 -0.5166  1.3518
15675SOL    HW259499   2.572   6.790   8.066 -2.5355 -0.3522  0.1968
15676SOL     OW59500   7.690   5.751   0.487  0.7344  0.2254  0.3408
15676SOL    HW159501   7.752   5.774   0.412  0.9819 -1.8755 -0.1220
15676SOL    HW259502   7.620   5.822   0.495  1.2950  0.9690 -1.2379
15677SOL     OW59503   2.915   4.780   0.055  0.1296  0.4694 -0.2158
15677SOL    HW159504   2.847   4.721   0.098  1.5605 -0.5528  0.7055
15677SOL    HW259505   3.002   4.772   0.104  0.9959  1.5434 -1.5276
15678SOL     OW59506   6.921   2.903   1.392 -0.1378 -0.2112 -0.0320
15678SOL    HW159507   7.007   2.880   1.347  0.7746 -0.0163  1.5779
15678SOL    HW259508   6.924   2.872   1.487 -1.0718  1.5169  0.5832
15679SOL     OW59509   6.177   7.504   0.511 -0.2359 -0.4709  0.1373
15679SOL    HW159510   6.214   7.587   0.552 -0.2783 -0.5675  0.3729
15679SOL    HW259511   6.159   7.437   0.583  2.4388 -1.7361 -0.2805
15680SOL     OW59512   5.337   4.320   8.217  0.0296 -1.0047 -0.0597
15680SOL    HW159513   5.312   4.245   8.156 -0.3015 -1.0096  0.0806
15680SOL    HW259514   5.264   4.388   8.218 -0.6084 -1.6825  1.4162
15681SOL     OW59515   3.816   2.945   0.890  0.0380  0.1841  0.6823
15681SOL    HW159516   3.811   2.997   0.975  2.2760  0.0777  0.9308
15681SOL    HW259517   3.812   3.007   0.812  1.1414  0.6136  0.9519
15682SOL     OW59518   3.634   5.493   1.653  0.0040  0.2098  0.3523
15682SOL    HW159519   3.724   5.460   1.626 -0.5766 -1.4468  0.4027
15682SOL    HW259520   3.581   5.418   1.693 -1.1080  1.3521  1.0708
15683SOL     OW59521   3.554   5.483   1.203  0.1015 -0.1185  0.1904
15683SOL    HW159522   3.548   5.582   1.211  0.5605  0.0613 -1.4328
15683SOL    HW259523   3.625   5.448   1.264 -0.5498  0.4590  1.3009
15684SOL     OW59524   8.805   2.432   2.642  0.4565  0.4810  0.3591
15684SOL    HW159525   8.902   2.456   2.650  0.4803  0.5777 -0.1857
15684SOL    HW259526   8.789   2.391   2.552  0.5108 -2.0161  1.4517
15685SOL     OW59527   2.180   7.702   4.275 -0.3638 -0.5709  0.6304
15685SOL    HW159528   2.182   7.615   4.323 -1.4468 -0.6594  0.5132
15685SOL    HW259529   2.249   7.701   4.202 -0.3533 -1.3199  0.6466
15686SOL     OW59530   0.977   5.796   1.267  0.5269  0.1791  0.1009
15686SOL    HW159531   0.915   5.815   1.192  1.5043  2.3813 -0.1979
15686SOL    HW259532   0.986   5.877   1.325  3.2533  0.0047  0.0140
15687SOL     OW59533   3.331   4.924   8.810  0.6224 -0.1058  0.1572
15687SOL    HW159534   3.318   4.952   8.905  2.0255 -0.3188  0.4176
15687SOL    HW259535   3.357   4.827   8.808 -1.6791 -0.7256 -0.5841
15688SOL     OW59536   4.025   3.873   7.347  0.0357 -0.1619 -0.0288
15688SOL    HW159537   3.942   3.928   7.338 -0.5135 -1.0324 -0.3978
15688SOL    HW259538   4.085   3.889   7.269 -0.4031 -0.5449 -0.4494
15689SOL     OW59539   7.319   2.993   0.337  0.0615  0.5189 -0.1009
15689SOL    HW159540   7.321   2.972   0.239  1.4549  0.0873 -0.0026
15689SOL    HW259541   7.371   3.077   0.353 -1.0498  1.1688  0.1539
15690SOL     OW59542   8.923   6.086   8.707  0.0264  0.3943  0.6177
15690SOL    HW159543   8.844   6.123   8.658 -0.1883  0.6575  1.1611
15690SOL    HW259544   8.972   6.022   8.647 -0.3053  0.6160  0.1029
15691SOL     OW59545   8.280   1.323   1.665  0.4856 -0.0099  0.0903
15691SOL    HW159546   8.289   1.409   1.614 -0.0460 -0.0692 -0.1102
15691SOL    HW259547   8.354   1.316   1.732  0.9133  0.2913 -0.3487
15692SOL     OW59548   3.567   4.010   4.084  0.1487 -0.6056  0.0714
15692SOL    HW159549   3.526   3.946   4.149 -1.2277  0.6566  0.4509
15692SOL    HW259550   3.621   4.078   4.134  0.8624 -0.9227 -0.2655
15693SOL     OW59551   8.863   7.856   5.844  0.3324  0.1113 -0.2574
15693SOL    HW159552   8.826   7.928   5.785  0.6259  0.8071  0.4009
15693SOL    HW259553   8.886   7.776   5.788 -0.5753  0.2978 -0.9060
15694SOL     OW59554   1.069   5.702   4.878  0.4446  0.8568 -0.2448
15694SOL    HW159555   1.030   5.785   4.916 -1.0849  1.2011 -2.4634
15694SOL    HW259556   1.107   5.721   4.787  0.3614 -0.7961 -0.6467
15695SOL     OW59557   5.539   4.485   1.382  0.7282  0.2264 -0.0949
15695SOL    HW159558   5.593   4.548   1.325  0.1263  0.7075 -0.1352
15695SOL    HW259559   5.601   4.424   1.431  1.3834  1.5962  0.8336
15696SOL     OW59560   7.294   3.703   5.339  0.9435  0.2732 -0.0003
15696SOL    HW159561   7.353   3.769   5.386  1.3536  1.2404 -1.8631
15696SOL    HW259562   7.256   3.639   5.407  2.2571  1.0713  1.5227
15697SOL     OW59563   3.077   6.580   4.446  0.0441 -0.0076 -0.1527
15697SOL    HW159564   3.175   6.600   4.449  0.3873 -1.7684  1.2054
15697SOL    HW259565   3.045   6.585   4.351  1.7793 -0.9433 -0.8047
15698SOL     OW59566   5.435   1.508   7.673 -0.2544  0.2532  0.1829
15698SOL    HW159567   5.501   1.528   7.601  0.6626  1.9064  1.4479
15698SOL    HW259568   5.407   1.412   7.668  0.4017  0.1583 -1.8570
15699SOL     OW59569   1.780   3.303   8.528  0.4823  0.5937  0.9597
15699SOL    HW159570   1.761   3.296   8.430  1.8547 -1.0517  0.8068
15699SOL    HW259571   1.809   3.214   8.563  2.2826  1.7068  2.3751
15700SOL     OW59572   4.770   2.967   6.149 -0.1352 -0.1298 -0.6615
15700SOL    HW159573   4.711   2.964   6.068 -0.8658 -0.1284 -0.1437
15700SOL    HW259574   4.719   2.932   6.228  0.3946  0.3464 -0.1009
15701SOL     OW59575   2.331   1.554   4.183 -0.2952 -0.4979  0.3070
15701SOL    HW159576   2.411   1.534   4.239  0.2271 -0.3730 -0.3952
15701SOL    HW259577   2.352   1.628   4.119 -0.1396 -2.2455 -1.7212
15702SOL     OW59578   3.675   5.261   0.519  0.4386  0.0571  0.0821
15702SOL    HW159579   3.581   5.255   0.553  0.5750 -4.0435 -0.0804
15702SOL    HW259580   3.674   5.270   0.419  0.2327 -0.2773  0.0548
15703SOL     OW59581   1.750   2.594   1.435  0.5347  0.4257  0.0360
15703SOL    HW159582   1.771   2.542   1.352 -0.6872 -0.1580  0.0768
15703SOL    HW259583   1.748   2.533   1.514 -1.8878  0.3045 -0.0634
15704SOL     OW59584   1.388   2.256   3.746  0.2397 -0.1801 -0.1093
15704SOL    HW159585   1.312   2.308   3.707  1.3915  0.0680 -2.1008
15704SOL    HW259586   1.370   2.158   3.737 -0.0597 -0.1188 -0.1613
15705SOL     OW59587   7.605   4.080   7.130 -0.6585 -0.1580 -0.4043
15705SOL    HW159588   7.597   4.064   7.229  1.8229  2.6225  0.3311
15705SOL    HW259589   7.570   4.171   7.108 -2.1540 -1.1544 -2.2988
15706SOL     OW59590   8.167   5.413   3.222  0.7304 -0.7297 -0.2344
15706SOL    HW159591   8.172   5.394   3.124  0.6014 -0.3143 -0.3204
15706SOL    HW259592   8.216   5.498   3.242  0.5062 -0.6609  0.0176
15707SOL     OW59593   3.738   5.230   6.270 -0.0143  0.1211 -0.2027
15707SOL    HW159594   3.658   5.218   6.211 -0.1429  0.9099 -0.1832
15707SOL    HW259595   3.717   5.194   6.361 -0.1233 -0.2654 -0.3759
15708SOL     OW59596   3.338   1.817   2.150 -0.2669  0.3127  0.5560
15708SOL    HW159597   3.311   1.913   2.141 -0.4649  0.2425  0.4177
15708SOL    HW259598   3.437   1.813   2.168 -0.0789  0.4947 -0.4298
15709SOL     OW59599   0.728   0.254   6.545 -0.1212  0.2410 -0.6758
15709SOL    HW159600   0.636   0.293   6.547 -0.0366  0.4117  0.4462
15709SOL    HW259601   0.745   0.212   6.456 -0.7475  1.4914 -1.4069
15710SOL     OW59602   5.838   8.168   0.714 -0.4673 -0.5011  0.3611
15710SOL    HW159603   5.781   8.211   0.644 -0.5673 -0.1693  0.6479
15710SOL    HW259604   5.798   8.184   0.804 -1.1607 -2.2130  0.3813
15711SOL     OW59605   2.424   6.858   7.948  0.4354 -0.0692 -0.6658
15711SOL    HW159606   2.432   6.933   7.883  1.0723 -0.3591 -0.9262
15711SOL    HW259607   2.359   6.790   7.912  0.5705 -0.0929 -0.8664
15712SOL     OW59608   3.940   3.808   8.596 -0.0888  0.7737 -0.1379
15712SOL    HW159609   3.857   3.849   8.559 -0.5676 -2.1274 -2.3851
15712SOL    HW259610   3.924   3.780   8.691 -2.0867 -0.8113 -0.9054
15713SOL     OW59611   1.104   8.601   0.841 -0.6969 -0.4285 -0.1945
15713SOL    HW159612   1.053   8.530   0.889 -1.1111  0.1114  0.1701
15713SOL    HW259613   1.161   8.559   0.771 -0.3181 -1.1946  0.5621
15714SOL     OW59614   2.131   3.536   4.523  0.5181 -0.2714  0.3426
15714SOL    HW159615   2.041   3.568   4.494  1.4876 -0.0452 -2.5798
15714SOL    HW259616   2.121   3.449   4.572 -1.3214 -0.1252  0.2641
15715SOL     OW59617   7.776   1.186   6.876 -0.4382 -0.1245 -0.2663
15715SOL    HW159618   7.756   1.134   6.793 -1.5281 -1.2255  0.6408
15715SOL    HW259619   7.723   1.271   6.876 -0.0573  0.1074 -0.9305
15716SOL     OW59620   8.700   6.977   4.377  0.1936 -0.1194 -0.8219
15716SOL    HW159621   8.782   7.033   4.386 -0.0757  0.3187 -1.0231
15716SOL    HW259622   8.636   7.023   4.315 -1.2341  0.7701  1.2650
15717SOL     OW59623   5.583   5.126   6.794 -0.2969  0.3074  0.1973
15717SOL    HW159624   5.536   5.040   6.771 -1.6966  0.8042  1.1857
15717SOL    HW259625   5.579   5.188   6.715  2.2326 -1.1387 -1.1656
15718SOL     OW59626   0.079   8.704   8.202 -0.5095 -0.2102 -0.1727
15718SOL    HW159627   0.079   8.798   8.168  0.4120  0.1123  0.6909
15718SOL    HW259628   0.137   8.647   8.144  0.5656  0.2021  0.4914
15719SOL     OW59629   7.306   1.900   8.650 -0.2842  0.3392  0.8626
15719SOL    HW159630   7.217   1.859   8.632 -0.0353 -0.2000  0.8679
15719SOL    HW259631   7.318   1.979   8.590  0.8155 -1.8076 -1.8774
15720SOL     OW59632   5.267   3.124   4.732  0.4416 -0.0124  0.1607
15720SOL    HW159633   5.240   3.157   4.822  1.9226 -0.2496  0.7095
15720SOL    HW259634   5.271   3.024   4.732  0.0898 -0.0273 -0.2696
15721SOL     OW59635   0.364   8.391   8.228  0.0781  0.0466  0.1127
15721SOL    HW159636   0.394   8.343   8.145 -2.0469 -0.4787 -0.3736
15721SOL    HW259637   0.444   8.409   8.286  1.7388  1.1393 -2.3909
15722SOL     OW59638   1.611   6.623   7.984  0.2403  0.4397  0.1478
15722SOL    HW159639   1.535   6.688   7.987  0.1739  0.3456  0.4937
15722SOL    HW259640   1.688   6.659   8.036  1.2449  1.5663 -2.0487
15723SOL     OW59641   5.226   3.814   5.482  0.0245 -0.2553 -0.1647
15723SOL    HW159642   5.160   3.741   5.460 -0.2488 -0.1856  0.4023
15723SOL    HW259643   5.202   3.854   5.570 -0.5873  1.4049 -1.0639
15724SOL     OW59644   1.897   4.016   0.308  0.1130  0.6497 -0.2133
15724SOL    HW159645   1.920   4.040   0.214  0.3610 -1.7358 -0.7960
15724SOL    HW259646   1.840   4.087   0.348  0.1337  1.7593 -2.1229
15725SOL     OW59647   7.401   3.970   8.296  0.2020  0.1046 -0.3642
15725SOL    HW159648   7.350   3.939   8.376  0.6387 -0.7794 -0.4174
15725SOL    HW259649   7.410   4.069   8.298  0.1019  0.0977  0.6212
15726SOL     OW59650   1.412   8.513   8.016 -0.0312  0.1269 -0.5650
15726SOL    HW159651   1.354   8.483   8.092 -1.5155 -1.4984 -2.2853
15726SOL    HW259652   1.359   8.513   7.931  1.9888  0.5094 -1.8782
15727SOL     OW59653   1.509   8.873   7.572 -0.5151 -0.1630 -0.4512
15727SOL    HW159654   1.483   8.777   7.582  0.5340 -0.3922  0.2143
15727SOL    HW259655   1.448   8.930   7.627  0.8481 -0.7646  1.7626
15728SOL     OW59656   6.912   8.417   8.059  0.6620  0.5571  0.1129
15728SOL    HW159657   6.866   8.503   8.041 -1.2618 -0.6458 -0.8995
15728SOL    HW259658   6.972   8.394   7.983  1.1522  0.9774  0.3700
15729SOL     OW59659   2.413   3.052   8.079  0.6096 -0.3661 -0.5077
15729SOL    HW159660   2.373   3.087   8.164 -1.0831 -1.6668 -0.7452
15729SOL    HW259661   2.513   3.053   8.087  0.5250  1.6114  0.6366
15730SOL     OW59662   4.188   3.096   4.855 -0.1859 -0.1676 -0.0130
15730SOL    HW159663   4.122   3.052   4.915 -0.8856  0.4655 -0.3091
15730SOL    HW259664   4.148   3.106   4.763  0.9646 -1.3694 -0.6585
15731SOL     OW59665   1.531   8.208   3.979  0.3258  0.0873  0.1318
15731SOL    HW159666   1.487   8.177   4.063  3.1264 -2.0415  0.9100
15731SOL    HW259667   1.463   8.245   3.917 -1.8903  1.0840  3.0611
15732SOL     OW59668   5.111   5.446   3.910 -0.1418 -0.6721 -0.7046
15732SOL    HW159669   5.081   5.351   3.912 -0.3205 -0.6396 -1.6981
15732SOL    HW259670   5.120   5.477   3.815  0.1681  0.2209 -0.3935
15733SOL     OW59671   5.931   0.063   0.172 -0.0647 -0.0673  0.5636
15733SOL    HW159672   5.851   0.011   0.205  0.2617 -1.0167 -0.1015
15733SOL    HW259673   5.905   0.158   0.156 -1.1236 -0.4175  0.1526
15734SOL     OW59674   4.236   6.385   8.628  0.0380  0.0415 -0.0012
15734SOL    HW159675   4.185   6.300   8.611 -1.3151  0.4810  1.7028
15734SOL    HW259676   4.317   6.364   8.681  0.8499 -0.4546 -1.4028
15735SOL     OW59677   7.429   6.354   8.669 -0.3122 -0.1512 -0.1112
15735SOL    HW159678   7.413   6.436   8.724  0.0349 -0.5334  0.5623
15735SOL    HW259679   7.361   6.350   8.595 -1.4888 -0.2046  0.9460
15736SOL     OW59680   2.481   3.682   3.476 -0.1880 -0.4278 -0.4179
15736SOL    HW159681   2.444   3.671   3.568  1.4223 -2.7073  0.0224
15736SOL    HW259682   2.561   3.742   3.478 -1.1677  0.8959 -0.6273
15737SOL     OW59683   5.871   1.036   0.371  0.1338 -0.4076  0.0249
15737SOL    HW159684   5.829   1.024   0.461 -0.0985 -1.4286 -0.2166
15737SOL    HW259685   5.801   1.054   0.303  0.3373  0.7078  0.0925
15738SOL     OW59686   0.030   5.377   6.503 -0.0821 -0.3514 -0.1811
15738SOL    HW159687   0.082   5.327   6.573  0.1758 -0.9901 -0.8252
15738SOL    HW259688   0.016   5.472   6.534 -1.6491 -1.1289  1.6065
15739SOL     OW59689   1.931   1.826   7.607 -0.3983 -0.2079  0.4634
15739SOL    HW159690   1.994   1.866   7.541  0.9707 -1.2705  1.0979
15739SOL    HW259691   1.858   1.892   7.628  0.8833  1.3025  0.2454
15740SOL     OW59692   4.243   3.242   7.313  0.2295  0.0239  0.1080
15740SOL    HW159693   4.230   3.182   7.393 -0.0317  0.5772  0.4820
15740SOL    HW259694   4.242   3.337   7.343 -1.7866  0.2999 -0.8188
15741SOL     OW59695   7.835   3.888   7.576  0.0703 -0.1355  0.9832
15741SOL    HW159696   7.931   3.861   7.583 -0.0693 -0.5454  1.3476
15741SOL    HW259697   7.784   3.848   7.652 -0.9879 -2.5138 -0.9304
15742SOL     OW59698   6.796   2.735   0.389 -0.5171  0.3667  0.1124
15742SOL    HW159699   6.748   2.723   0.303 -0.5960  1.1321  0.0474
15742SOL    HW259700   6.894   2.724   0.375 -0.6463 -0.9601  0.2007
15743SOL     OW59701   2.743   6.684   2.990 -0.5295  0.2770  0.2211
15743SOL    HW159702   2.781   6.738   2.915  1.0003 -0.4084  0.4769
15743SOL    HW259703   2.779   6.716   3.077 -1.2269  0.1774  0.5529
15744SOL     OW59704   0.250   0.762   8.367 -0.0928 -0.2981  0.2318
15744SOL    HW159705   0.272   0.699   8.441 -2.3813 -1.6200 -0.1689
15744SOL    HW259706   0.266   0.717   8.279 -0.7096  0.0414 -0.0579
15745SOL     OW59707   8.049   5.634   0.158 -0.6076 -0.2245 -0.2870
15745SOL    HW159708   8.070   5.583   0.074 -1.4474 -1.9507  0.5261
15745SOL    HW259709   8.132   5.678   0.192 -0.0887 -0.1923 -1.5656
15746SOL     OW59710   6.746   1.642   0.901 -1.0218 -0.0247 -0.8222
15746SOL    HW159711   6.712   1.588   0.824  2.2234 -1.5941 -1.2055
15746SOL    HW259712   6.807   1.587   0.957  0.4037  2.5076  0.2017
15747SOL     OW59713   8.191   4.196   3.859  0.5867 -0.4942 -0.5167
15747SOL    HW159714   8.146   4.280   3.888 -0.2113 -1.3498  0.7408
15747SOL    HW259715   8.276   4.185   3.910 -0.4431 -1.6100  1.0022
15748SOL     OW59716   3.505   6.271   3.819 -0.0741  0.2168 -0.1265
15748SOL    HW159717   3.414   6.242   3.846  0.1918 -0.9614 -0.4398
15748SOL    HW259718   3.573   6.230   3.880  0.1917  1.9706  0.7886
15749SOL     OW59719   0.685   7.063   3.754 -0.3498  1.0733  0.6236
15749SOL    HW159720   0.634   7.101   3.677  0.0184  0.5966  0.1346
15749SOL    HW259721   0.632   7.074   3.838 -1.1312  0.8547  0.1709
15750SOL     OW59722   0.500   0.049   2.451  0.0024 -0.0882 -1.0283
15750SOL    HW159723   0.512   0.137   2.406  1.8689  0.6381  0.7629
15750SOL    HW259724   0.420   0.053   2.512  1.5774  1.2901  1.0314
15751SOL     OW59725   6.471   8.545   2.417 -0.2992 -0.1862  0.1181
15751SOL    HW159726   6.462   8.596   2.332  1.3409 -0.3135 -0.1582
15751SOL    HW259727   6.482   8.609   2.493 -2.1011 -0.0669  0.2932
15752SOL     OW59728   6.036   6.209   4.425  0.1787 -0.1362  0.2078
15752SOL    HW159729   6.076   6.267   4.496  0.2362  0.5675 -0.3924
15752SOL    HW259730   6.072   6.236   4.336 -1.2492  0.1777 -0.2904
15753SOL     OW59731   4.217   5.671   8.868 -0.2367  0.2766  0.2081
15753SOL    HW159732   4.156   5.685   8.945  0.8633  0.0217  1.1348
15753SOL    HW259733   4.205   5.578   8.832 -1.4985  0.7375 -0.6128
15754SOL     OW59734   2.778   4.042   1.701 -0.9714 -0.0558 -0.5494
15754SOL    HW159735   2.845   4.000   1.640 -0.6978 -0.5977  0.1207
15754SOL    HW259736   2.819   4.053   1.792 -1.2535  1.0753 -0.5550
15755SOL     OW59737   7.527   8.996   8.263 -0.1150  0.2126 -0.1489
15755SOL    HW159738   7.563   8.946   8.341 -3.0316 -1.0537  0.4501
15755SOL    HW259739   7.487   8.932   8.198  1.3399  1.3352 -2.2070
15756SOL     OW59740   4.422   6.122   4.081  0.2402 -0.5377 -0.1239
15756SOL    HW159741   4.476   6.170   4.151 -1.4199 -0.1598  0.9202
15756SOL    HW259742   4.356   6.185   4.040 -0.3397 -1.3332 -0.4262
15757SOL     OW59743   0.442   1.282   6.730 -0.1102  0.6166  0.4412
15757SOL    HW159744   0.478   1.262   6.821 -0.9620 -2.6651  0.1442
15757SOL    HW259745   0.343   1.294   6.736  0.0181  1.8326  0.1507
15758SOL     OW59746   1.159   1.349   0.138 -0.5994 -0.6232  0.7514
15758SOL    HW159747   1.155   1.316   0.233  0.2330 -1.1255  0.6121
15758SOL    HW259748   1.221   1.292   0.085 -1.0979 -0.3643 -0.1156
15759SOL     OW59749   5.088   3.033   7.491  0.3244 -0.3192  0.6496
15759SOL    HW159750   5.174   2.988   7.514  0.8484  0.8429  1.0230
15759SOL    HW259751   5.028   3.034   7.571  0.4654 -0.0245  0.7532
15760SOL     OW59752   2.737   4.827   5.647 -0.1820  0.0348  0.0446
15760SOL    HW159753   2.811   4.770   5.610 -0.0265  0.6053 -0.5229
15760SOL    HW259754   2.702   4.887   5.575  0.9248  2.0104  1.1285
15761SOL     OW59755   7.711   6.246   1.069 -0.0384  0.0014  0.3552
15761SOL    HW159756   7.740   6.156   1.103 -2.6587 -1.8889 -2.1558
15761SOL    HW259757   7.785   6.287   1.017  0.0402 -2.2938 -1.4189
15762SOL     OW59758   3.480   3.924   1.486 -0.1467 -0.0108 -0.0775
15762SOL    HW159759   3.419   3.867   1.541  0.6307 -0.3509  0.4514
15762SOL    HW259760   3.523   3.868   1.415  1.9158 -0.5054  1.5050
15763SOL     OW59761   5.929   2.104   1.356 -0.2449 -0.0813 -0.4253
15763SOL    HW159762   5.835   2.137   1.367  1.0276  2.8215  2.3927
15763SOL    HW259763   5.983   2.173   1.308  1.4690  0.2759  1.9271
15764SOL     OW59764   4.562   3.750   1.423 -0.1280 -0.1388 -0.2856
15764SOL    HW159765   4.465   3.758   1.398 -0.2377 -0.8878 -0.1073
15764SOL    HW259766   4.569   3.717   1.517  0.2990  0.3940 -0.1324
15765SOL     OW59767   5.623   4.863   0.979  0.5538  0.5592  0.0904
15765SOL    HW159768   5.609   4.769   0.948 -1.0291  0.7908  0.0524
15765SOL    HW259769   5.684   4.863   1.058  0.7668 -0.4712 -0.0655
15766SOL     OW59770   1.876   5.644   3.662 -0.6381 -0.3082  0.1574
15766SOL    HW159771   1.920   5.559   3.691 -1.7975 -1.0132 -0.1184
15766SOL    HW259772   1.849   5.696   3.743 -0.8180 -0.6715  0.3325
15767SOL     OW59773   7.366   3.796   8.067 -0.1895 -0.5220 -0.1784
15767SOL    HW159774   7.377   3.829   7.973  1.1898  0.2504  0.2359
15767SOL    HW259775   7.372   3.873   8.130 -1.0858 -1.0457  0.5395
15768SOL     OW59776   2.490   4.499   1.776 -0.1944  0.1870 -0.2137
15768SOL    HW159777   2.549   4.533   1.849  1.4946  0.4242 -1.6544
15768SOL    HW259778   2.517   4.405   1.753 -1.8983 -0.5499  0.6671
15769SOL     OW59779   3.585   7.221   5.864  0.0232  0.3137  0.2937
15769SOL    HW159780   3.652   7.279   5.910  0.0084 -2.9600  4.7219
15769SOL    HW259781   3.632   7.146   5.818 -0.4387 -0.7511  1.5370
15770SOL     OW59782   5.885   5.325   6.653  0.1533 -0.1027  0.4287
15770SOL    HW159783   5.863   5.235   6.691  0.5449 -0.3260  0.1313
15770SOL    HW259784   5.967   5.319   6.597 -0.4167  0.2240 -0.4582
15771SOL     OW59785   6.638   0.415   0.269 -0.0156 -0.0921  0.4917
15771SOL    HW159786   6.646   0.317   0.287 -0.1313  0.0076  1.0964
15771SOL    HW259787   6.542   0.442   0.269  0.0062 -0.0122  0.1503
15772SOL     OW59788   4.156   5.484   0.588 -0.0520 -0.0293 -0.2096
15772SOL    HW159789   4.156   5.517   0.682 -0.4089 -0.6615  0.0116
15772SOL    HW259790   4.218   5.541   0.533  1.2515 -0.5255  0.7184
15773SOL     OW59791   1.330   4.009   6.563  0.6102 -0.0953 -0.0407
15773SOL    HW159792   1.326   4.108   6.546 -2.0220 -0.0664  0.5399
15773SOL    HW259793   1.331   3.992   6.661  2.2179 -0.6334 -0.1378
15774SOL     OW59794   2.253   5.420   5.413  0.9314 -0.4205 -0.3592
15774SOL    HW159795   2.164   5.428   5.368  1.2328 -0.0064 -0.8905
15774SOL    HW259796   2.241   5.377   5.502  0.2208 -0.5328 -0.5023
15775SOL     OW59797   8.917   2.432   2.251  0.4203  0.0769 -0.2714
15775SOL    HW159798   8.985   2.472   2.312  1.2230 -1.2074 -0.2932
15775SOL    HW259799   8.870   2.357   2.297  1.0778 -0.9465 -1.2117
15776SOL     OW59800   6.064   3.419   1.758  0.1412 -0.3268  0.5452
15776SOL    HW159801   5.986   3.357   1.762  0.3252 -0.5991 -0.0468
15776SOL    HW259802   6.058   3.476   1.676  1.3175 -1.3732 -0.2870
15777SOL     OW59803   2.923   2.955   7.288  0.4871  0.5179  0.1745
15777SOL    HW159804   2.916   2.857   7.268 -1.7819  0.5320  0.7896
15777SOL    HW259805   3.014   2.975   7.324  0.6810 -1.5319  0.8743
15778SOL     OW59806   4.890   7.844   8.637 -0.5154 -0.2222  0.3004
15778SOL    HW159807   4.914   7.819   8.543 -1.4528  0.5048 -0.1417
15778SOL    HW259808   4.825   7.920   8.636 -0.6603 -0.3149  1.5377
15779SOL     OW59809   2.895   2.337   8.759 -0.1969  0.0900  0.2619
15779SOL    HW159810   2.928   2.388   8.679 -1.1427  0.2840 -0.0120
15779SOL    HW259811   2.937   2.375   8.841 -2.1535  2.4341  0.2255
15780SOL     OW59812   7.918   8.740   8.066  0.3798 -0.2201  0.2188
15780SOL    HW159813   7.971   8.724   8.148 -1.5339 -1.6337  1.2272
15780SOL    HW259814   7.916   8.657   8.010 -1.4015 -0.4464  0.5896
15781SOL     OW59815   5.683   6.906   0.795  0.2776 -0.3930 -0.3407
15781SOL    HW159816   5.615   6.962   0.746  1.6545  0.0095 -1.8323
15781SOL    HW259817   5.737   6.965   0.855  0.1866 -0.5102 -0.1423
15782SOL     OW59818   6.631   5.417   2.145 -0.4375  0.3193 -0.3125
15782SOL    HW159819   6.559   5.480   2.116 -0.6015  0.4690  0.4209
15782SOL    HW259820   6.709   5.424   2.083  0.2991  2.5785  0.8094
15783SOL     OW59821   8.744   2.424   4.932  0.3127  0.5855  0.0409
15783SOL    HW159822   8.775   2.488   4.861 -0.0465  0.7677  0.0482
15783SOL    HW259823   8.651   2.393   4.911  0.4322  0.1729  0.1132
15784SOL     OW59824   8.416   6.003   1.546 -0.1153  0.1998  0.5190
15784SOL    HW159825   8.451   5.916   1.513 -1.5685  0.3419 -1.4952
15784SOL    HW259826   8.442   6.016   1.641  2.4996 -1.1526  0.0192
15785SOL     OW59827   5.457   6.414   7.775  0.1008  0.0942 -0.0800
15785SOL    HW159828   5.535   6.354   7.764 -1.8496 -2.4506 -0.5003
15785SOL    HW259829   5.425   6.411   7.870  0.1472  0.6818 -0.0403
15786SOL     OW59830   6.405   4.313   5.243  0.4824  0.2432 -0.5907
15786SOL    HW159831   6.409   4.214   5.252 -0.7979  0.1288 -1.1229
15786SOL    HW259832   6.440   4.356   5.326 -0.6313 -0.6728  0.3647
15787SOL     OW59833   0.545   0.345   0.455  0.7263 -0.7535  0.5806
15787SOL    HW159834   0.605   0.416   0.490 -1.9714  1.9531 -0.0281
15787SOL    HW259835   0.550   0.342   0.356 -1.5323  0.8338  0.3945
15788SOL     OW59836   2.781   2.387   2.939 -0.2486 -0.5458  0.0230
15788SOL    HW159837   2.721   2.422   2.868  0.3260  1.6003  0.5471
15788SOL    HW259838   2.846   2.322   2.900  0.5305  1.1545 -1.5861
15789SOL     OW59839   7.034   1.536   1.107 -0.2541  0.0696  0.0008
15789SOL    HW159840   7.088   1.498   1.032  1.8899 -0.1230  1.5870
15789SOL    HW259841   7.044   1.635   1.108 -2.6883  0.3484 -1.7604
15790SOL     OW59842   0.546   0.016   6.945  0.0720  0.1372  0.5406
15790SOL    HW159843   0.526   0.106   6.983 -2.1272 -0.0567 -0.0802
15790SOL    HW259844   0.542   0.020   6.845 -3.0752 -1.2319  0.5343
15791SOL     OW59845   8.931   5.716   2.315 -0.3877 -0.3326  0.8586
15791SOL    HW159846   9.007   5.692   2.254 -1.4669  0.0005 -0.6597
15791SOL    HW259847   8.957   5.792   2.373  0.5034 -0.3318  0.4675
15792SOL     OW59848   4.682   6.430   3.463 -0.4191  0.1267 -0.1491
15792SOL    HW159849   4.639   6.425   3.373  1.3558  1.3504 -1.1026
15792SOL    HW259850   4.717   6.340   3.488 -0.5175 -0.1197 -0.8902
15793SOL     OW59851   3.963   0.624   6.980  0.1581 -0.3856  0.4109
15793SOL    HW159852   3.864   0.612   6.977 -0.1165  1.8768 -0.7750
15793SOL    HW259853   4.002   0.606   6.890  0.8608 -1.4351  0.9134
15794SOL     OW59854   6.174   1.217   2.522 -0.2017  0.3192 -0.1348
15794SOL    HW159855   6.244   1.146   2.513  0.7546  0.7108  3.5503
15794SOL    HW259856   6.216   1.307   2.511 -0.9801  0.4626 -2.3118
15795SOL     OW59857   0.198   4.542   7.890 -0.0256 -0.0682 -0.3465
15795SOL    HW159858   0.113   4.587   7.918 -0.0334  0.7113 -1.6102
15795SOL    HW259859   0.272   4.609   7.887  0.1221 -0.2867 -1.5304
15796SOL     OW59860   8.829   4.997   3.722  0.2702  0.0521 -0.2325
15796SOL    HW159861   8.822   5.031   3.816 -1.4178 -0.2960 -0.2042
15796SOL    HW259862   8.819   5.074   3.658  0.3460  0.1486 -0.1275
15797SOL     OW59863   2.127   3.625   0.982  0.1628 -0.6789 -0.6307
15797SOL    HW159864   2.028   3.619   0.997 -0.1718 -0.9686 -2.7446
15797SOL    HW259865   2.147   3.607   0.886  2.1147  1.1519 -0.6180
15798SOL     OW59866   4.064   4.009   6.119  0.2026  0.2029 -0.2150
15798SOL    HW159867   4.087   4.099   6.155  0.2746  0.0394  0.1567
15798SOL    HW259868   3.969   3.987   6.142 -0.0091  0.4445 -0.8480
15799SOL     OW59869   8.211   4.748   5.067 -0.4988 -0.1430 -0.4971
15799SOL    HW159870   8.193   4.667   5.123 -2.1626  0.2640 -0.3953
15799SOL    HW259871   8.145   4.820   5.091  0.4390  0.9462 -1.1554
15800SOL     OW59872   4.411   2.443   8.823  0.0631  0.4474  0.5525
15800SOL    HW159873   4.445   2.377   8.890 -0.0840  0.6764  0.8509
15800SOL    HW259874   4.453   2.424   8.734  0.4054  0.2663  0.7508
15801SOL     OW59875   7.547   7.226   1.739 -0.2349  0.5534  0.3972
15801SOL    HW159876   7.534   7.324   1.723  0.1553  0.4337 -0.6426
15801SOL    HW259877   7.589   7.184   1.659 -0.1749 -0.4243  0.9357
15802SOL     OW59878   1.131   4.909   0.489  0.0246  0.0470 -0.6726
15802SOL    HW159879   1.208   4.970   0.506  0.1277  0.3963 -2.3047
15802SOL    HW259880   1.144   4.824   0.539  1.3874  0.1780 -0.7719
15803SOL     OW59881   2.931   8.121   5.086  0.0879  0.0902 -0.1781
15803SOL    HW159882   2.950   8.023   5.080 -1.3359 -0.5400  4.0725
15803SOL    HW259883   3.016   8.170   5.104  0.7821 -0.3192 -2.1755
15804SOL     OW59884   0.017   3.783   5.203 -0.3159  0.6274 -0.3928
15804SOL    HW159885  -0.002   3.881   5.207 -1.9052  0.3509 -0.8398
15804SOL    HW259886  -0.002   3.749   5.111 -1.0872 -0.3596  0.1310
15805SOL     OW59887   7.596   3.455   1.441  0.2987  0.1843 -0.1706
15805SOL    HW159888   7.678   3.418   1.398  0.4143 -2.5156  2.2479
15805SOL    HW259889   7.590   3.423   1.535 -2.4493  2.0585  0.3566
15806SOL     OW59890   1.769   7.883   8.702 -0.5503 -0.1784 -0.3277
15806SOL    HW159891   1.692   7.822   8.684  0.0992 -1.3737  0.8787
15806SOL    HW259892   1.851   7.829   8.720  0.4679  1.0764 -1.0770
15807SOL     OW59893   3.895   6.815   1.184  0.2602  0.6110 -0.3304
15807SOL    HW159894   3.858   6.724   1.198  0.7404  0.6838  1.6824
15807SOL    HW259895   3.994   6.814   1.201  0.0194  1.7973  1.3073
15808SOL     OW59896   4.702   4.242   1.352  0.3543 -0.2110 -0.2703
15808SOL    HW159897   4.646   4.213   1.274  1.1313 -0.9851 -0.5542
15808SOL    HW259898   4.773   4.305   1.321  0.6483 -0.4994 -0.1887
15809SOL     OW59899   1.567   0.680   6.895  0.0123  0.1629  0.1731
15809SOL    HW159900   1.472   0.694   6.867 -0.3767  0.1146  1.4449
15809SOL    HW259901   1.620   0.762   6.875 -0.2207  0.0693 -0.8467
15810SOL     OW59902   2.528   7.104   6.708  0.4247  0.5087  0.0386
15810SOL    HW159903   2.495   7.015   6.678  0.8338  0.9117 -1.6547
15810SOL    HW259904   2.532   7.166   6.630 -1.0345  2.3866  1.4267
15811SOL     OW59905   5.058   4.635   5.107 -0.0812 -0.1502 -0.3352
15811SOL    HW159906   5.103   4.593   5.185  1.6216  0.2973 -1.0601
15811SOL    HW259907   4.972   4.678   5.137 -0.4666 -1.7544  0.8875
15812SOL     OW59908   4.504   0.788   5.094 -0.1560  0.5931 -0.0828
15812SOL    HW159909   4.466   0.838   5.016  0.2619 -0.7936 -1.1845
15812SOL    HW259910   4.476   0.833   5.179  0.9269  3.1999 -1.0594
15813SOL     OW59911   4.429   2.715   6.283 -0.1528 -0.1454  0.1652
15813SOL    HW159912   4.357   2.704   6.352 -0.0297 -0.3716  0.2581
15813SOL    HW259913   4.481   2.630   6.276 -1.0122 -0.5891 -1.1628
15814SOL     OW59914   0.534   8.784   5.281  0.2468  0.1393  0.4464
15814SOL    HW159915   0.454   8.781   5.341 -0.0965 -0.9734 -0.0491
15814SOL    HW259916   0.538   8.872   5.235 -0.4219  0.3800  0.8452
15815SOL     OW59917   2.507   5.087   8.193 -0.4031 -0.3068 -0.0571
15815SOL    HW159918   2.552   5.000   8.173  2.1315  0.5527  1.6632
15815SOL    HW259919   2.444   5.076   8.270  0.7295 -0.4043  0.8671
15816SOL     OW59920   8.767   2.270   2.411  0.5721 -0.3501  0.7616
15816SOL    HW159921   8.809   2.209   2.479  1.9935 -0.6661 -0.3715
15816SOL    HW259922   8.690   2.223   2.368 -1.2394  0.3647  3.1178
15817SOL     OW59923   3.074   1.332   6.615  0.3351  0.5730  0.0783
15817SOL    HW159924   3.140   1.257   6.613 -1.2578 -0.8565  0.3748
15817SOL    HW259925   3.002   1.312   6.682 -0.4484  2.0846 -0.2730
15818SOL     OW59926   1.072   0.447   4.496  0.2649  0.3142  0.0580
15818SOL    HW159927   1.157   0.418   4.453  0.1187  1.2973 -0.9106
15818SOL    HW259928   1.030   0.519   4.442  0.6252  2.3649  2.4261
15819SOL     OW59929   5.150   7.646   0.326  0.1106  0.0839 -0.3561
15819SOL    HW159930   5.227   7.709   0.314 -0.3286  0.5959 -0.4843
15819SOL    HW259931   5.106   7.630   0.237 -1.2374  1.4571  0.0516
15820SOL     OW59932   1.749   3.568   5.914 -0.4953 -0.7283  0.3034
15820SOL    HW159933   1.688   3.543   5.989 -0.9509 -1.3301 -0.2648
15820SOL    HW259934   1.754   3.493   5.848 -0.8935  0.1918 -0.7877
15821SOL     OW59935   6.975   4.418   8.460 -0.3755  0.6511  0.1540
15821SOL    HW159936   6.995   4.364   8.541 -0.8868  2.2994  1.3879
15821SOL    HW259937   6.942   4.358   8.387  1.5036 -1.0296  0.6489
15822SOL     OW59938   1.495   8.262   2.527  0.0129 -0.3373 -0.5191
15822SOL    HW159939   1.398   8.278   2.512 -0.1069 -0.8087 -0.2689
15822SOL    HW259940   1.512   8.163   2.531  0.3170 -0.2468  0.6085
15823SOL     OW59941   1.311   7.321   1.377  0.4214 -0.3320  0.0739
15823SOL    HW159942   1.317   7.264   1.459  0.6033 -1.3774 -0.6632
15823SOL    HW259943   1.227   7.301   1.328  0.8932 -0.5869 -0.6449
15824SOL     OW59944   0.743   8.598   0.994  0.5949 -0.1031 -0.1562
15824SOL    HW159945   0.645   8.611   1.009  1.0756  1.1036  2.1973
15824SOL    HW259946   0.765   8.501   0.995 -0.4503 -0.3390  0.2009
15825SOL     OW59947   7.428   7.539   0.155  0.2007 -0.4646  0.3211
15825SOL    HW159948   7.355   7.519   0.220 -0.0732  0.3551  0.2701
15825SOL    HW259949   7.392   7.595   0.081  0.6231 -0.9924 -0.2940
15826SOL     OW59950   8.879   3.655   4.927  0.4597  0.0411  0.0181
15826SOL    HW159951   8.896   3.556   4.923  1.6243  0.2799 -1.1490
15826SOL    HW259952   8.782   3.672   4.910  0.1315 -0.9387  0.8224
15827SOL     OW59953   7.584   3.021   0.211 -0.2572  0.4992  0.0483
15827SOL    HW159954   7.597   3.035   0.113 -0.5623 -1.3898 -0.2792
15827SOL    HW259955   7.554   3.106   0.253 -0.5541  1.2102 -1.5758
15828SOL     OW59956   2.604   3.666   6.474  0.1651 -0.5255 -0.2627
15828SOL    HW159957   2.684   3.607   6.460 -0.3932 -1.8180  1.6507
15828SOL    HW259958   2.631   3.746   6.528  0.3302 -0.5987 -0.2359
15829SOL     OW59959   8.124   3.415   3.181  0.3306 -0.3409  0.4050
15829SOL    HW159960   8.078   3.430   3.268  1.9523 -0.1903  1.2605
15829SOL    HW259961   8.056   3.405   3.109 -1.0260  3.9158  0.9380
15830SOL     OW59962   8.717   2.608   7.421 -0.1435  0.0431  0.0537
15830SOL    HW159963   8.679   2.699   7.403  1.9757  0.9464 -0.0492
15830SOL    HW259964   8.646   2.549   7.458 -1.9126  1.3143 -1.2352
15831SOL     OW59965   1.074   3.677   4.257 -0.1358  0.2503 -0.4994
15831SOL    HW159966   1.147   3.655   4.322  0.0431 -0.2331 -0.8544
15831SOL    HW259967   0.998   3.720   4.306 -0.3979 -0.9631  0.2035
15832SOL     OW59968   4.881   4.112   6.556 -0.8661 -0.0255  0.1856
15832SOL    HW159969   4.815   4.185   6.537  0.0374  0.5819 -0.6429
15832SOL    HW259970   4.971   4.139   6.523 -0.0100 -0.5021  2.0625
15833SOL     OW59971   4.147   3.603   7.069  0.1821  0.3769  0.2295
15833SOL    HW159972   4.224   3.540   7.053  0.0462  0.6355 -1.5716
15833SOL    HW259973   4.116   3.594   7.163  1.1169 -1.2036  0.4125
15834SOL     OW59974   3.962   0.561   5.049 -0.1784  0.2498 -0.1211
15834SOL    HW159975   4.046   0.597   5.089 -0.2520 -0.3413  0.5643
15834SOL    HW259976   3.949   0.466   5.078 -0.4592 -0.0472 -1.1873
15835SOL     OW59977   1.777   5.340   0.771 -0.2414  0.1344  0.4032
15835SOL    HW159978   1.703   5.278   0.746 -0.4907  1.0824 -1.3149
15835SOL    HW259979   1.833   5.299   0.843 -1.8096 -1.0300  0.9729
15836SOL     OW59980   3.616   7.022   3.761  0.1235 -1.0295  0.4906
15836SOL    HW159981   3.610   7.010   3.860 -1.4663  1.3769  0.7201
15836SOL    HW259982   3.580   7.111   3.736 -0.5673 -2.0587 -2.3793
15837SOL     OW59983   4.924   4.362   2.970 -0.3307 -0.2266 -0.2339
15837SOL    HW159984   4.952   4.458   2.966 -1.5290  0.0909 -1.5054
15837SOL    HW259985   4.995   4.308   3.015  0.1147  1.3431  0.9803
15838SOL     OW59986   6.665   2.917   3.983 -0.2707 -0.5731 -0.0498
15838SOL    HW159987   6.733   2.947   3.917  0.1798 -1.3314  0.0559
15838SOL    HW259988   6.709   2.905   4.073 -0.6442 -0.5935  0.1313
15839SOL     OW59989   4.823   2.225   2.820  0.4039  0.0433 -0.0841
15839SOL    HW159990   4.819   2.186   2.728  1.4656  0.5056 -0.3343
15839SOL    HW259991   4.840   2.323   2.814  2.2649 -0.2227  0.6417
15840SOL     OW59992   2.670   1.919   5.729  0.0756 -0.3320 -0.0191
15840SOL    HW159993   2.651   1.822   5.743 -3.0247 -0.0992 -2.1548
15840SOL    HW259994   2.608   1.974   5.784 -0.2202  0.4452 -1.1060
15841SOL     OW59995   7.936   5.509   2.289 -0.4559 -0.1249  0.2532
15841SOL    HW159996   7.867   5.442   2.260 -0.5218  0.0519  0.0089
15841SOL    HW259997   8.026   5.466   2.285 -0.7409 -1.0604  2.6486
15842SOL     OW59998   2.738   4.253   5.377 -0.3134  0.2853  0.1096
15842SOL    HW159999   2.742   4.318   5.302 -1.7247  0.5814  0.2811
15842SOL    HW260000   2.643   4.235   5.401  0.0926 -0.8188  0.9510
15843SOL     OW60001   8.090   3.036   5.891  0.7488  0.2070 -0.3199
15843SOL    HW160002   8.135   2.975   5.956  1.2360  0.8586 -0.0302
15843SOL    HW260003   8.019   3.088   5.939  0.2911 -0.1873 -0.5782
15844SOL     OW60004   6.377   4.307   4.790 -0.2058 -0.2537  0.2153
15844SOL    HW160005   6.370   4.379   4.722  0.0269  0.4028  0.8786
15844SOL    HW260006   6.294   4.251   4.787 -1.2826  1.2493  1.0367
15845SOL     OW60007   4.721   0.501   4.167  0.2718  0.0750  0.1483
15845SOL    HW160008   4.751   0.595   4.150 -2.0495  0.7269 -0.4495
15845SOL    HW260009   4.708   0.488   4.266 -1.5908  1.1022  0.0675
15846SOL     OW60010   1.360   5.368   5.920 -0.1312 -0.2833  0.3308
15846SOL    HW160011   1.405   5.390   6.007  0.3524 -0.9599  0.2484
15846SOL    HW260012   1.289   5.299   5.936  1.4022 -1.9848 -0.1665
15847SOL     OW60013   6.655   3.558   6.695  0.3230  0.2373  0.4096
15847SOL    HW160014   6.640   3.513   6.607  1.9559  0.9936 -0.2708
15847SOL    HW260015   6.735   3.618   6.689  1.5995 -1.1308  2.9374
15848SOL     OW60016   7.554   2.663   5.154  0.0216 -0.2071  0.1788
15848SOL    HW160017   7.550   2.762   5.147 -0.7846 -0.2348  0.1226
15848SOL    HW260018   7.605   2.637   5.237  0.9434  0.2365 -0.2466
15849SOL     OW60019   2.533   4.035   3.666  0.3417  0.0978  0.1388
15849SOL    HW160020   2.531   4.131   3.639 -1.0878  0.3227  1.0063
15849SOL    HW260021   2.590   3.984   3.602 -2.4131  0.7522 -2.9931
15850SOL     OW60022   0.036   2.184   1.589  0.3667 -0.7236  0.3152
15850SOL    HW160023  -0.004   2.211   1.677  0.6689  0.2943  0.1385
15850SOL    HW260024  -0.033   2.190   1.517  0.3530 -0.7268  0.3284
15851SOL     OW60025   8.328   1.871   0.943  0.3483  0.0796 -0.2951
15851SOL    HW160026   8.242   1.828   0.973 -0.1503  1.2037 -0.0437
15851SOL    HW260027   8.379   1.808   0.885 -0.8952 -0.4181 -0.8648
15852SOL     OW60028   2.670   4.468   5.645 -0.3496  0.4857  0.1429
15852SOL    HW160029   2.731   4.423   5.580  0.4807  1.4876  0.2170
15852SOL    HW260030   2.685   4.430   5.736 -0.1657  0.4105  0.0812
15853SOL     OW60031   4.933   2.309   7.852 -0.4341  0.1558  0.3967
15853SOL    HW160032   5.019   2.270   7.820 -1.0772 -1.5165  0.6324
15853SOL    HW260033   4.907   2.385   7.793  1.5711  1.1728  0.7707
15854SOL     OW60034   0.810   4.887   7.056  0.2033 -0.0670 -0.1177
15854SOL    HW160035   0.773   4.809   7.106  2.6332 -0.7335  0.7068
15854SOL    HW260036   0.736   4.934   7.008 -1.8611 -0.7118  2.3137
15855SOL     OW60037   7.447   5.206   4.793 -0.1620  0.8527  0.0696
15855SOL    HW160038   7.492   5.261   4.723 -2.3274  0.2930 -1.8289
15855SOL    HW260039   7.355   5.241   4.809 -1.3100 -1.6996 -0.6429
15856SOL     OW60040   3.303   1.862   3.627 -0.0613 -0.1457 -0.4970
15856SOL    HW160041   3.233   1.820   3.686 -0.1365  0.6322 -0.0312
15856SOL    HW260042   3.300   1.819   3.537  1.2017 -2.5736  0.5711
15857SOL     OW60043   6.537   6.643   5.854  0.0187 -0.1689 -0.1774
15857SOL    HW160044   6.552   6.717   5.788 -1.4275 -0.5714 -0.9780
15857SOL    HW260045   6.497   6.681   5.937  1.0587  0.2159  0.1591
15858SOL     OW60046   1.672   5.673   0.479  0.4207 -0.5520  0.1353
15858SOL    HW160047   1.645   5.687   0.384 -0.0745  0.2409  0.3941
15858SOL    HW260048   1.609   5.609   0.522 -0.3838  0.4151  0.4137
15859SOL     OW60049   6.648   5.998   7.570  0.3287  0.1957  0.1359
15859SOL    HW160050   6.640   6.084   7.620  0.0245  1.0882 -1.4000
15859SOL    HW260051   6.572   5.989   7.506 -0.5320 -2.0003  1.4249
15860SOL     OW60052   6.831   0.889   0.300 -0.0180  0.2463  0.0979
15860SOL    HW160053   6.763   0.896   0.373 -1.3226 -3.6896 -0.6221
15860SOL    HW260054   6.858   0.794   0.288  2.0808  1.1316 -2.8580
15861SOL     OW60055   7.364   1.692   1.233 -0.0219 -0.2494  0.4527
15861SOL    HW160056   7.276   1.734   1.210 -0.2838 -0.4587  1.0609
15861SOL    HW260057   7.367   1.674   1.332  0.9998  0.4469  0.5521
15862SOL     OW60058   4.383   6.871   2.975 -0.0151  0.0283 -0.5720
15862SOL    HW160059   4.342   6.959   3.000  0.0881  0.1951 -0.9817
15862SOL    HW260060   4.483   6.879   2.980 -0.0247 -0.5482  1.0098
15863SOL     OW60061   5.136   5.193   0.061 -0.2743 -0.9242 -0.0395
15863SOL    HW160062   5.144   5.121  -0.008  0.2547 -1.7829  0.9058
15863SOL    HW260063   5.207   5.263   0.045  0.2284 -1.4243 -0.0095
15864SOL     OW60064   5.535   0.053   6.637 -0.2972 -0.0884 -0.1026
15864SOL    HW160065   5.489   0.006   6.712  0.9711  2.0983  2.1106
15864SOL    HW260066   5.594  -0.012   6.588  0.4864 -1.1036  2.1129
15865SOL     OW60067   7.715   4.317   0.369 -1.1659  0.3145 -0.0446
15865SOL    HW160068   7.758   4.402   0.339 -0.0692 -0.4228 -0.5761
15865SOL    HW260069   7.692   4.324   0.466 -1.8665  1.5319 -0.2889
15866SOL     OW60070   8.621   3.011   1.228  0.5615 -0.5526  0.1328
15866SOL    HW160071   8.618   3.034   1.326  1.0607  4.0338 -0.8033
15866SOL    HW260072   8.528   3.008   1.192  0.4543 -0.0812  0.3514
15867SOL     OW60073   8.211   4.050   2.122 -0.2981 -0.0408 -0.2750
15867SOL    HW160074   8.275   3.991   2.073  1.8027  1.4159  0.6534
15867SOL    HW260075   8.213   4.141   2.082 -1.2294  0.2201  0.2651
15868SOL     OW60076   3.140   6.890   0.641  0.1114 -0.2508 -0.0518
15868SOL    HW160077   3.079   6.814   0.666  1.4009 -1.5338 -0.7198
15868SOL    HW260078   3.128   6.911   0.544  0.5524 -0.3509 -0.1301
15869SOL     OW60079   8.359   4.068   7.370  0.1683  0.5409  0.0802
15869SOL    HW160080   8.296   4.051   7.446 -0.4421  1.4101 -0.2174
15869SOL    HW260081   8.330   4.151   7.321  0.6805  0.1147 -0.9612
15870SOL     OW60082   4.810   6.447   7.988  0.0928 -0.1976 -0.4173
15870SOL    HW160083   4.786   6.471   8.083  0.8673 -0.4177 -0.1642
15870SOL    HW260084   4.890   6.500   7.959  0.9223 -1.3893 -0.3501
15871SOL     OW60085   5.042   0.725   3.957  0.4842  0.1700 -0.4438
15871SOL    HW160086   5.084   0.789   4.022 -0.8916  0.7156 -0.0821
15871SOL    HW260087   5.108   0.702   3.886  1.5546  0.6500  0.3825
15872SOL     OW60088   8.091   1.670   0.531  0.3454 -0.1197  0.4778
15872SOL    HW160089   8.114   1.631   0.620  2.4713 -0.3798 -0.1578
15872SOL    HW260090   8.142   1.623   0.460 -0.7987  0.5629 -0.8135
15873SOL     OW60091   5.469   2.047   2.316  0.1489  0.2475  0.0295
15873SOL    HW160092   5.507   1.978   2.377  0.0533  1.6942  1.7596
15873SOL    HW260093   5.457   2.008   2.225  1.6474 -1.5187  0.5633
15874SOL     OW60094   5.215   4.988   5.201  0.3266  0.1890  0.0878
15874SOL    HW160095   5.204   4.961   5.105  0.4991  0.7737 -0.0958
15874SOL    HW260096   5.126   4.991   5.246  0.2636 -0.2680 -0.0063
15875SOL     OW60097   2.743   4.770   2.507 -0.2826  0.2858 -0.6666
15875SOL    HW160098   2.715   4.822   2.587  0.0451  2.3281 -1.8388
15875SOL    HW260099   2.827   4.720   2.528 -0.4914  0.3705  0.4158
15876SOL     OW60100   0.679   4.569   3.436 -0.3712 -0.2867 -0.1732
15876SOL    HW160101   0.670   4.667   3.451  1.6392 -0.2106  0.6764
15876SOL    HW260102   0.764   4.549   3.387 -0.9084 -1.5829 -0.6213
15877SOL     OW60103   3.777   6.247   5.641 -0.1443  0.3668 -0.2151
15877SOL    HW160104   3.843   6.181   5.606 -0.2586  0.2948 -0.2931
15877SOL    HW260105   3.686   6.207   5.643 -0.2351  0.5622 -0.3752
15878SOL     OW60106   7.573   7.544   8.355 -0.3252 -0.4967  0.0381
15878SOL    HW160107   7.512   7.585   8.286 -1.2753 -2.8332 -0.5737
15878SOL    HW260108   7.543   7.571   8.446 -0.0105  1.3596 -0.3846
15879SOL     OW60109   2.238   3.103   2.296  0.0929  0.2092  0.3233
15879SOL    HW160110   2.185   3.019   2.314 -0.3783  0.3904 -0.1918
15879SOL    HW260111   2.231   3.164   2.375 -1.5854  0.8037 -0.2586
15880SOL     OW60112   1.503   8.594   4.523  0.0478 -0.7052  0.2112
15880SOL    HW160113   1.475   8.500   4.502 -2.2088 -0.2767  1.1906
15880SOL    HW260114   1.450   8.658   4.467  1.0613  0.0309  0.0798
15881SOL     OW60115   6.244   5.889   1.030  0.2330 -0.2236 -1.1581
15881SOL    HW160116   6.267   5.860   0.937 -0.0332  0.2137 -1.3611
15881SOL    HW260117   6.148   5.870   1.048  0.0120  0.6752 -1.3532
15882SOL     OW60118   4.166   2.273   6.903  0.3552 -0.3439  0.4302
15882SOL    HW160119   4.179   2.350   6.965 -1.7810 -1.5310  2.4479
15882SOL    HW260120   4.172   2.305   6.808 -1.3090  2.4681  1.2205
15883SOL     OW60121   3.087   3.691   7.310  0.2029 -0.9814 -0.8836
15883SOL    HW160122   3.174   3.728   7.280 -0.0650 -0.1564 -0.6537
15883SOL    HW260123   3.012   3.741   7.266 -0.1941  0.3326  1.2372
15884SOL     OW60124   4.522   8.539   2.147 -0.3106 -0.2780 -0.2153
15884SOL    HW160125   4.584   8.461   2.152 -1.2516 -1.0217  0.0138
15884SOL    HW260126   4.478   8.541   2.058  1.0172  1.0228 -0.8653
15885SOL     OW60127   6.609   3.371   7.354  0.1664 -0.0765 -0.0270
15885SOL    HW160128   6.698   3.331   7.328 -0.5863 -0.2498 -2.4925
15885SOL    HW260129   6.537   3.303   7.341 -0.4269  0.2637  1.3851
15886SOL     OW60130   1.392   6.566   2.093  0.1148 -0.1212 -0.4559
15886SOL    HW160131   1.472   6.572   2.152 -0.1310  0.3876 -0.1672
15886SOL    HW260132   1.311   6.548   2.148  0.1535 -1.5074 -0.8389
15887SOL     OW60133   4.591   8.046   5.224  0.3087 -0.2910 -0.3006
15887SOL    HW160134   4.517   8.021   5.162  0.0689 -1.9916  0.6417
15887SOL    HW260135   4.581   8.142   5.251 -0.4715  0.0168 -1.6482
15888SOL     OW60136   7.329   0.063   0.228  0.2089  0.0789  0.2991
15888SOL    HW160137   7.263   0.011   0.282  0.5085  2.1728  2.7998
15888SOL    HW260138   7.422   0.045   0.260  0.1387  4.3731  3.4095
15889SOL     OW60139   1.333   1.779   7.594  0.0875  0.4919 -0.6109
15889SOL    HW160140   1.259   1.712   7.588  0.1156  0.1854  1.7570
15889SOL    HW260141   1.402   1.747   7.659  1.4397  1.5847 -1.4741
15890SOL     OW60142   2.170   2.723   0.188 -0.6358  0.3929 -0.1913
15890SOL    HW160143   2.238   2.667   0.234 -1.4601 -0.2381  0.2794
15890SOL    HW260144   2.175   2.708   0.090 -0.2251  0.2110 -0.1438
15891SOL     OW60145   1.030   4.682   8.192  0.2607 -0.2048  0.2358
15891SOL    HW160146   1.072   4.686   8.282  0.9776 -0.9223 -0.0586
15891SOL    HW260147   0.987   4.770   8.171  1.0467  0.3231  0.8156
15892SOL     OW60148   1.432   2.513   8.783 -0.2006  0.1581 -0.4002
15892SOL    HW160149   1.441   2.461   8.698  0.3601  1.0217 -0.8848
15892SOL    HW260150   1.336   2.537   8.797 -0.0225  2.0138 -2.0421
15893SOL     OW60151   4.851   2.519   1.737  0.2152 -0.0993 -0.3055
15893SOL    HW160152   4.871   2.590   1.806  0.8141 -2.1822  1.7144
15893SOL    HW260153   4.936   2.495   1.690  0.1434 -0.0519 -0.4625
15894SOL     OW60154   8.359   8.636   1.119  0.3630  0.1075 -0.0466
15894SOL    HW160155   8.382   8.672   1.209  0.9307  0.8339 -0.4872
15894SOL    HW260156   8.343   8.537   1.126  1.0833  0.0443  0.7165
15895SOL     OW60157   0.838   3.669   2.638 -0.5337  0.6626  0.5594
15895SOL    HW160158   0.837   3.714   2.549 -1.1575 -0.3091  0.0634
15895SOL    HW260159   0.931   3.670   2.675  0.1022 -0.4758 -0.9189
15896SOL     OW60160   6.475   6.631   5.533  0.2109  0.7775 -0.2301
15896SOL    HW160161   6.390   6.598   5.573  0.3144  1.2591  0.3876
15896SOL    HW260162   6.517   6.700   5.593  1.2136  0.2954 -0.3598
15897SOL     OW60163   4.310   0.761   7.268 -0.3992  0.2363  0.4065
15897SOL    HW160164   4.382   0.747   7.200  0.3602  1.7903  0.8743
15897SOL    HW260165   4.265   0.849   7.252 -0.1018  0.6892  1.9966
15898SOL     OW60166   2.652   2.859   5.024  0.8627 -0.4790  0.1390
15898SOL    HW160167   2.636   2.765   5.054 -0.2362 -0.5924 -0.7824
15898SOL    HW260168   2.600   2.877   4.941  1.6251  0.7284 -0.0968
15899SOL     OW60169   2.170   8.130   0.909  0.1068 -0.1133  0.4232
15899SOL    HW160170   2.258   8.149   0.866 -0.3083  2.4904  0.6457
15899SOL    HW260171   2.122   8.060   0.857  1.5537 -0.2777 -0.7262
15900SOL     OW60172   0.154   6.996   3.758  0.1687 -0.4185 -0.0205
15900SOL    HW160173   0.194   6.911   3.794 -0.7724 -0.4273  1.0375
15900SOL    HW260174   0.134   6.985   3.661  2.5153 -0.4950 -0.5371
15901SOL     OW60175   7.547   6.712   4.939 -0.2731  0.0267 -0.0112
15901SOL    HW160176   7.478   6.650   4.901  0.7922 -1.8396  1.0250
15901SOL    HW260177   7.637   6.670   4.933  0.3157  0.9529  1.8146
15902SOL     OW60178   4.003   1.661   0.924 -0.2562  0.3422  0.2809
15902SOL    HW160179   4.010   1.570   0.883  1.2001 -0.2337  1.7131
15902SOL    HW260180   3.907   1.684   0.939 -0.6452 -0.8951 -0.2342
15903SOL     OW60181   6.403   4.043   3.921 -0.1168 -0.5946  0.0589
15903SOL    HW160182   6.466   4.015   3.849  1.8300 -0.0835  1.5281
15903SOL    HW260183   6.441   4.019   4.010 -1.8664 -0.0021  1.0026
15904SOL     OW60184   1.966   0.009   6.179  0.1863 -0.0711 -0.2180
15904SOL    HW160185   1.962   0.069   6.100  0.0400  1.1005  0.6713
15904SOL    HW260186   1.977  -0.086   6.148  0.3599  0.3940 -1.6210
15905SOL     OW60187   3.760   4.775   1.583  0.2671 -0.3324  0.0851
15905SOL    HW160188   3.709   4.836   1.644  0.7232  0.6994 -0.5536
15905SOL    HW260189   3.764   4.683   1.623 -1.3265 -0.2128  0.5632
15906SOL     OW60190   6.234   2.062   6.474 -0.0398  0.6150  0.1816
15906SOL    HW160191   6.254   1.991   6.406 -1.1553  2.3394 -2.0209
15906SOL    HW260192   6.318   2.082   6.525  1.2256  0.3164 -1.6993
15907SOL     OW60193   2.290   1.474   0.923  0.1063 -0.5322 -0.3602
15907SOL    HW160194   2.366   1.532   0.954  2.0470 -1.0761 -3.8809
15907SOL    HW260195   2.222   1.531   0.876  0.0598 -0.5665 -0.3347
15908SOL     OW60196   1.793   8.490   5.460 -0.2110  0.3331  0.1116
15908SOL    HW160197   1.759   8.581   5.435  1.5719  0.7771 -0.7711
15908SOL    HW260198   1.887   8.498   5.493  0.2242 -1.2988 -0.6931
15909SOL     OW60199   0.254   1.605   0.090 -0.0582  0.6436 -0.2660
15909SOL    HW160200   0.308   1.579   0.010 -0.7723  0.1421 -0.5976
15909SOL    HW260201   0.165   1.638   0.061  0.7486  3.2896  0.1853
15910SOL     OW60202   4.720   5.085   6.482  0.3929 -0.1092  0.2661
15910SOL    HW160203   4.728   5.185   6.479 -2.0633  0.0831 -1.5095
15910SOL    HW260204   4.800   5.044   6.439  0.9048  1.1214  0.0170
15911SOL     OW60205   3.460   0.648   4.068 -0.1698 -0.5737  0.2436
15911SOL    HW160206   3.414   0.662   3.980 -1.9923 -0.4798  1.2029
15911SOL    HW260207   3.490   0.737   4.104  0.4009 -0.5923 -0.1647
15912SOL     OW60208   7.837   3.824   5.124  0.4103 -0.1832 -0.8046
15912SOL    HW160209   7.797   3.904   5.169  0.6007  0.3389 -1.5534
15912SOL    HW260210   7.764   3.772   5.079  0.5121  0.6002 -1.9069
15913SOL     OW60211   2.604   7.739   8.373 -0.6263  0.2048  0.6376
15913SOL    HW160212   2.668   7.702   8.306 -2.8361  2.3286 -2.8055
15913SOL    HW260213   2.650   7.808   8.429  0.4279  0.7835 -0.9318
15914SOL     OW60214   7.154   6.133   5.568 -0.0356 -0.6595 -0.6141
15914SOL    HW160215   7.219   6.114   5.494  1.1327 -2.5925  0.8474
15914SOL    HW260216   7.190   6.097   5.654 -2.6008 -0.8758  0.4197
15915SOL     OW60217   3.866   2.500   4.692  0.4377 -0.0125  0.1534
15915SOL    HW160218   3.940   2.442   4.660  0.2786 -0.3243  0.3503
15915SOL    HW260219   3.899   2.559   4.766  0.6257  0.2274 -0.1178
15916SOL     OW60220   4.946   1.490   6.928 -0.3484 -0.2103 -0.7034
15916SOL    HW160221   4.986   1.556   6.864 -1.2654  2.1849  1.1262
15916SOL    HW260222   4.945   1.528   7.020 -0.2620 -3.0958  0.5532
15917SOL     OW60223   5.893   8.034   7.568 -0.3404  0.7385  0.3224
15917SOL    HW160224   5.806   8.074   7.599 -1.3720 -1.0150 -0.2602
15917SOL    HW260225   5.878   7.985   7.483  1.4081  1.0876 -0.1979
15918SOL     OW60226   2.599   5.082   0.740  0.1260  0.3285 -0.1465
15918SOL    HW160227   2.546   5.166   0.726  0.6198  0.3115 -2.3281
15918SOL    HW260228   2.664   5.071   0.665 -2.3964 -3.8940 -1.8990
15919SOL     OW60229   5.046   1.647   4.018 -0.6120  0.1828  0.0171
15919SOL    HW160230   5.043   1.744   4.042 -0.5855 -0.0851  1.1359
15919SOL    HW260231   5.035   1.637   3.919 -0.1345  1.3531 -0.1701
15920SOL     OW60232   3.534   7.283   2.315  0.1781 -0.0590 -0.8595
15920SOL    HW160233   3.593   7.213   2.277 -2.4878 -1.8694 -1.7935
15920SOL    HW260234   3.445   7.280   2.270 -1.1191  1.6420  1.4809
15921SOL     OW60235   7.253   2.667   3.011 -0.0854 -0.2013  0.4407
15921SOL    HW160236   7.351   2.671   3.032 -0.7290  1.9302  3.3527
15921SOL    HW260237   7.227   2.751   2.964 -0.8050 -0.0969  1.0289
15922SOL     OW60238   3.451   6.256   7.164 -0.7528 -0.2342  0.1259
15922SOL    HW160239   3.355   6.228   7.162 -0.8688 -0.1632  2.7454
15922SOL    HW260240   3.497   6.209   7.239  0.5759  1.8533  0.6351
15923SOL     OW60241   5.698   8.672   5.343 -0.3747 -0.1990 -0.3202
15923SOL    HW160242   5.599   8.658   5.355 -0.1846 -2.5493 -1.1546
15923SOL    HW260243   5.725   8.642   5.252  0.8393  2.1637 -0.7567
15924SOL     OW60244   0.046   4.813   4.913  0.1971  0.5560  0.0605
15924SOL    HW160245  -0.047   4.790   4.886  0.2072 -0.2639  0.7248
15924SOL    HW260246   0.096   4.730   4.936  1.1811  0.9663 -0.5537
15925SOL     OW60247   4.235   7.507   6.183  0.0800 -0.4202 -0.2590
15925SOL    HW160248   4.267   7.588   6.134 -0.3224  0.2507  0.5775
15925SOL    HW260249   4.155   7.470   6.138 -0.8602  0.7535  0.4144
15926SOL     OW60250   8.643   5.705   1.131  0.4828  0.2800  0.0659
15926SOL    HW160251   8.605   5.623   1.174  0.8802 -0.1909 -0.4734
15926SOL    HW260252   8.597   5.786   1.167 -0.4827 -0.2300 -0.0162
15927SOL     OW60253   2.861   3.451   6.345  0.0314 -0.1353  0.7541
15927SOL    HW160254   2.923   3.376   6.320  2.5025  1.2240  2.6456
15927SOL    HW260255   2.899   3.538   6.314 -1.6749  0.5939  0.6544
15928SOL     OW60256   1.378   4.144   3.427  0.0323 -0.0087  0.0204
15928SOL    HW160257   1.348   4.051   3.406  0.8151 -0.2125 -0.1944
15928SOL    HW260258   1.398   4.152   3.524  1.6876 -0.5582 -0.2610
15929SOL     OW60259   3.824   5.122   3.853  0.3962  0.5545 -0.1516
15929SOL    HW160260   3.762   5.080   3.787  0.4452  1.3675 -0.7268
15929SOL    HW260261   3.858   5.053   3.916 -0.5859 -0.0156 -0.2393
15930SOL     OW60262   1.482   6.670   7.060 -0.0365 -0.8220 -0.3289
15930SOL    HW160263   1.520   6.700   7.148  1.2240 -1.1029 -0.7625
15930SOL    HW260264   1.512   6.732   6.988  0.1776 -1.4511 -0.7858
15931SOL     OW60265   7.793   5.194   3.239 -0.1834  0.5331  0.0780
15931SOL    HW160266   7.833   5.196   3.148 -1.0590 -1.4969 -0.3770
15931SOL    HW260267   7.863   5.167   3.305 -0.1926 -0.6420 -0.3804
15932SOL     OW60268   4.628   6.136   3.251  0.1362 -0.0619 -0.0950
15932SOL    HW160269   4.718   6.102   3.278 -0.0869 -1.8927 -1.5617
15932SOL    HW260270   4.637   6.191   3.168 -0.2576 -1.4147 -1.0513
15933SOL     OW60271   5.134   4.190   8.081  0.3202 -0.6732 -0.5364
15933SOL    HW160272   5.118   4.177   8.178  0.7864  0.7743 -0.2608
15933SOL    HW260273   5.114   4.285   8.056 -0.2783 -1.1521 -1.9494
15934SOL     OW60274   4.012   6.449   8.388  0.3645  0.0652 -0.0444
15934SOL    HW160275   3.971   6.405   8.468 -1.1973  2.5797  0.6067
15934SOL    HW260276   4.097   6.494   8.415  1.1872 -1.2832 -0.3795
15935SOL     OW60277   1.966   1.773   5.332  0.1586 -0.5557  0.4651
15935SOL    HW160278   1.926   1.864   5.320 -0.1923 -0.5274  1.8640
15935SOL    HW260279   1.895   1.703   5.321  0.7115 -0.7623 -2.1592
15936SOL     OW60280   2.048   3.458   7.620 -0.2354 -0.8169 -0.3452
15936SOL    HW160281   2.045   3.511   7.535 -0.8822 -1.2377 -0.5902
15936SOL    HW260282   2.055   3.519   7.698  0.4201 -0.4268 -0.7098
15937SOL     OW60283   7.224   0.140   1.462 -0.1494  0.1863 -0.0927
15937SOL    HW160284   7.144   0.146   1.403 -1.9735  0.2542  2.3373
15937SOL    HW260285   7.195   0.133   1.558  2.7440  0.3019  0.8371
15938SOL     OW60286   3.963   8.383   8.540  0.3191  0.6365  0.3105
15938SOL    HW160287   3.953   8.358   8.444 -0.3197  2.8931 -0.2181
15938SOL    HW260288   3.944   8.480   8.553  3.6550  1.1491  2.1936
15939SOL     OW60289   1.911   3.810   0.846  0.1984 -0.0540  0.2518
15939SOL    HW160290   1.835   3.874   0.831  0.2832  0.4269  1.7514
15939SOL    HW260291   1.970   3.809   0.765 -1.5251 -0.6098 -1.0288
15940SOL     OW60292   8.103   7.342   5.910  0.3833 -0.2655 -0.5331
15940SOL    HW160293   8.171   7.275   5.880 -1.0398 -2.2177  0.4286
15940SOL    HW260294   8.070   7.394   5.831  2.9736  0.7222 -1.0010
15941SOL     OW60295   7.031   6.152   2.100  0.0443  0.2255 -0.1040
15941SOL    HW160296   6.971   6.215   2.149 -0.9818  0.7674 -2.0151
15941SOL    HW260297   7.124   6.188   2.100  0.0117  0.3496  1.1902
15942SOL     OW60298   8.181   8.463   0.216  0.5263 -0.3743 -0.2482
15942SOL    HW160299   8.263   8.473   0.272 -0.6243 -0.2200  1.4318
15942SOL    HW260300   8.123   8.543   0.227  0.7257  0.1042 -2.4307
15943SOL     OW60301   5.727   5.608   2.339  0.1230  0.7129  0.1859
15943SOL    HW160302   5.818   5.631   2.374 -1.2781  1.5518  3.5226
15943SOL    HW260303   5.725   5.512   2.312  1.3518  0.0114  2.4339
15944SOL     OW60304   6.850   6.071   4.253 -0.2627  0.2321  0.8596
15944SOL    HW160305   6.833   6.080   4.351 -3.3498  1.4755  0.2688
15944SOL    HW260306   6.770   6.030   4.208  1.2353 -0.6479 -1.1033
15945SOL     OW60307   7.301   0.490   0.053  0.3472 -0.2332  0.0364
15945SOL    HW160308   7.366   0.534   0.116 -1.1399 -0.3696  1.7114
15945SOL    HW260309   7.346   0.413   0.007  1.6854  0.3371  0.3460
15946SOL     OW60310   3.978   8.304   8.245  0.1203  0.0885  0.0711
15946SOL    HW160311   4.023   8.219   8.219  1.0219  0.8277 -0.8460
15946SOL    HW260312   3.904   8.324   8.181  0.0307  0.0923  0.1765
15947SOL     OW60313   4.294   7.798   5.157  0.6197  0.2977  0.1038
15947SOL    HW160314   4.332   7.884   5.123  0.5469 -0.1232 -1.0843
15947SOL    HW260315   4.285   7.802   5.256 -0.7282  2.2099 -0.0598
15948SOL     OW60316   6.667   7.651   2.691  0.0292  0.5031  0.2901
15948SOL    HW160317   6.703   7.561   2.667  0.6087  1.0081 -0.8023
15948SOL    HW260318   6.570   7.656   2.665 -0.4674 -0.3819  1.9405
15949SOL     OW60319   8.449   3.170   4.244  0.0427  0.3114  1.0743
15949SOL    HW160320   8.454   3.080   4.200  0.6192  0.2517  1.2578
15949SOL    HW260321   8.357   3.208   4.230  0.1093  0.1474  0.1110
15950SOL     OW60322   0.394   6.871   1.508 -0.2275  0.4609  0.1670
15950SOL    HW160323   0.335   6.809   1.560 -1.3523  0.4456 -1.0849
15950SOL    HW260324   0.433   6.822   1.430 -0.8731  1.2275 -0.6526
15951SOL     OW60325   1.453   1.488   1.285 -0.3315  0.0475 -0.7177
15951SOL    HW160326   1.483   1.446   1.370  0.7748 -0.6938 -1.4555
15951SOL    HW260327   1.442   1.418   1.215 -2.2147  0.5254 -0.9249
15952SOL     OW60328   7.712   8.545   6.807 -0.2160  0.0468  0.1423
15952SOL    HW160329   7.672   8.476   6.747 -0.3974  1.3295 -1.2566
15952SOL    HW260330   7.808   8.524   6.824  0.4276  0.7873 -2.3642
15953SOL     OW60331   0.733   3.865   2.344  0.3453 -0.3350  0.6278
15953SOL    HW160332   0.681   3.881   2.427 -0.7743 -0.4653 -0.0372
15953SOL    HW260333   0.671   3.838   2.270  1.1664  0.8680 -0.5330
15954SOL     OW60334   0.977   6.387   3.541  0.1869  0.5922 -0.4646
15954SOL    HW160335   0.902   6.449   3.564 -0.9404 -0.6906 -0.6118
15954SOL    HW260336   1.043   6.434   3.483 -0.1293  1.9593  0.2762
15955SOL     OW60337   5.501   7.694   2.100  0.9279  0.8190 -0.3117
15955SOL    HW160338   5.520   7.640   2.181  0.0097  2.0345  0.7414
15955SOL    HW260339   5.585   7.710   2.049  1.4583 -0.1902  0.2373
15956SOL     OW60340   2.853   1.784   5.409 -0.2086 -0.7438  0.2678
15956SOL    HW160341   2.872   1.775   5.311 -0.2465 -0.2468  0.2132
15956SOL    HW260342   2.797   1.866   5.425  2.9012  1.3063  1.1065
15957SOL     OW60343   4.755   6.761   2.636  0.9718  0.6095 -0.9582
15957SOL    HW160344   4.676   6.797   2.586 -0.7040  1.7623  2.4159
15957SOL    HW260345   4.736   6.669   2.668  0.3535  1.4861  1.2298
15958SOL     OW60346   8.809   4.745   0.616  0.0889  0.1854 -0.8875
15958SOL    HW160347   8.741   4.685   0.573  0.0600  0.3107 -1.0169
15958SOL    HW260348   8.879   4.690   0.661  1.7729  0.0030 -3.6095
15959SOL     OW60349   3.417   2.162   2.854  0.2407 -0.6753  0.5507
15959SOL    HW160350   3.335   2.175   2.798  1.7165  2.0688 -1.1104
15959SOL    HW260351   3.402   2.203   2.944 -0.5276 -0.9433  0.5480
15960SOL     OW60352   3.015   6.693   8.421 -0.2091 -0.3450  0.2775
15960SOL    HW160353   2.959   6.611   8.405  1.3243 -1.4423  0.4027
15960SOL    HW260354   3.028   6.741   8.334 -1.7148  0.1733  0.3266
15961SOL     OW60355   1.124   4.613   5.801 -0.0680 -0.1574  0.3230
15961SOL    HW160356   1.169   4.528   5.827 -1.5651 -1.1795 -0.3906
15961SOL    HW260357   1.115   4.617   5.701 -1.2399  0.2049  0.4440
15962SOL     OW60358   6.638   7.407   7.318  0.3474  0.2055  0.5248
15962SOL    HW160359   6.633   7.506   7.330 -1.9177 -0.1174  2.5694
15962SOL    HW260360   6.547   7.367   7.324  1.0003 -1.8488 -2.1059
15963SOL     OW60361   2.354   0.086   3.139  0.4201 -0.5136  0.5551
15963SOL    HW160362   2.290   0.012   3.160  0.7076 -0.4370  1.7561
15963SOL    HW260363   2.417   0.057   3.067 -1.2865 -0.3995 -1.0176
15964SOL     OW60364   2.328   1.824   1.679  0.6121 -0.3339 -0.1225
15964SOL    HW160365   2.325   1.879   1.595 -1.9846  0.1504  0.2374
15964SOL    HW260366   2.353   1.882   1.756 -1.1166  0.1534  0.0907
15965SOL     OW60367   0.989   8.175   8.580  0.0212  0.3252 -1.0710
15965SOL    HW160368   0.961   8.207   8.671 -1.3059  0.2629 -1.4585
15965SOL    HW260369   1.021   8.080   8.587 -0.3873  0.2115 -0.7258
15966SOL     OW60370   2.608   1.308   6.542 -0.5324 -0.0724 -0.0796
15966SOL    HW160371   2.540   1.293   6.614 -1.2172 -0.5847 -0.8380
15966SOL    HW260372   2.631   1.221   6.498 -1.1316  0.4306 -1.4055
15967SOL     OW60373   0.933   5.483   7.881 -0.5243  0.6600  0.1311
15967SOL    HW160374   1.024   5.497   7.840  0.0502  0.2532  1.2625
15967SOL    HW260375   0.924   5.388   7.910 -1.7245  0.4268 -0.9453
15968SOL     OW60376   2.224   5.792   0.512 -0.3722 -0.5660  0.0533
15968SOL    HW160377   2.163   5.760   0.440 -0.1574 -2.8352  0.8642
15968SOL    HW260378   2.177   5.861   0.567 -1.1414 -0.1082 -1.1582
15969SOL     OW60379   3.826   6.715   5.769 -0.3505  0.0876  0.1434
15969SOL    HW160380   3.855   6.735   5.675  0.7348  0.7011  0.5876
15969SOL    HW260381   3.895   6.751   5.833 -1.6860  0.7895  1.2114
15970SOL     OW60382   0.533   7.731   3.923 -0.6666  0.1563 -0.2250
15970SOL    HW160383   0.602   7.769   3.861  0.1381 -1.7226 -0.5127
15970SOL    HW260384   0.512   7.637   3.896 -2.7505  0.4271  0.3614
15971SOL     OW60385   8.935   4.179   6.204 -0.1751 -0.1777 -0.4131
15971SOL    HW160386   8.950   4.272   6.170  2.8208 -0.2814  0.5266
15971SOL    HW260387   8.972   4.113   6.138  0.7341 -0.5741  0.4810
15972SOL     OW60388   2.150   1.691   0.770 -0.0048  0.2948  0.4303
15972SOL    HW160389   2.115   1.724   0.683 -0.8982  0.0874  0.7078
15972SOL    HW260390   2.241   1.731   0.787 -0.5340  1.6165  0.1801
15973SOL     OW60391   6.606   3.188   3.813 -0.1809 -0.4294 -1.1284
15973SOL    HW160392   6.515   3.157   3.840 -1.0509 -0.1255 -3.5666
15973SOL    HW260393   6.634   3.265   3.870 -0.3228 -2.1413  1.3574
15974SOL     OW60394   2.722   6.356   6.334 -0.3512 -0.1789  0.4114
15974SOL    HW160395   2.756   6.433   6.280 -0.0542  1.1199  2.3995
15974SOL    HW260396   2.799   6.298   6.360 -0.6352 -1.4915 -1.5318
15975SOL     OW60397   6.941   4.570   5.609  0.7107 -0.4334 -0.2927
15975SOL    HW160398   7.011   4.502   5.588  1.1011  0.2421 -1.1992
15975SOL    HW260399   6.864   4.525   5.654 -0.3181 -1.9923 -3.4756
15976SOL     OW60400   2.367   8.457   8.167 -0.4078 -0.2206  0.3458
15976SOL    HW160401   2.379   8.537   8.109  0.5121  0.1292  1.0135
15976SOL    HW260402   2.307   8.392   8.122 -0.9599  0.7380 -0.3089
15977SOL     OW60403   8.165   1.055   1.587 -0.3990 -0.3742 -0.4643
15977SOL    HW160404   8.073   1.015   1.592 -0.3126 -0.4084  1.0656
15977SOL    HW260405   8.171   1.132   1.651  0.1374  0.6732 -1.7494
15978SOL     OW60406   0.882   1.671   4.110  0.7730 -0.1502 -0.3027
15978SOL    HW160407   0.962   1.613   4.124  0.7713  0.0493  0.5567
15978SOL    HW260408   0.908   1.767   4.123  0.1027 -0.1760  1.3637
15979SOL     OW60409   7.607   7.709   7.780  0.2373 -0.1549  0.0993
15979SOL    HW160410   7.608   7.798   7.826  1.9241  0.3292 -0.8432
15979SOL    HW260411   7.663   7.644   7.832  0.6875 -0.0925 -0.3021
15980SOL     OW60412   7.286   2.809   3.939 -0.3711  0.3497 -0.1639
15980SOL    HW160413   7.330   2.731   3.893  0.8955  0.1928  1.3062
15980SOL    HW260414   7.290   2.889   3.879  1.9833  0.3617 -0.0291
15981SOL     OW60415   2.207   2.532   1.289 -0.4520 -0.4338 -0.4464
15981SOL    HW160416   2.252   2.620   1.281 -0.1388 -0.5652 -0.1785
15981SOL    HW260417   2.123   2.542   1.343  0.1227 -0.4794  0.4830
15982SOL     OW60418   2.464   2.591   3.913 -0.4268  0.2536  0.5330
15982SOL    HW160419   2.472   2.685   3.881 -0.7155 -0.7084 -2.5569
15982SOL    HW260420   2.370   2.559   3.898  0.3997 -1.4470 -1.2034
15983SOL     OW60421   6.194   5.313   6.537 -0.2570  0.3894 -0.3134
15983SOL    HW160422   6.188   5.275   6.629 -0.0121  0.9905 -0.0430
15983SOL    HW260423   6.287   5.346   6.521 -0.0762 -0.4759 -1.0853
15984SOL     OW60424   3.485   1.173   2.636  0.1904 -0.0683 -0.1294
15984SOL    HW160425   3.468   1.079   2.665 -0.7718 -0.5179 -2.0906
15984SOL    HW260426   3.398   1.216   2.611  0.7932  0.8803 -0.6198
15985SOL     OW60427   5.295   3.822   2.769 -0.2313  0.4307 -0.6264
15985SOL    HW160428   5.197   3.815   2.752 -0.7001 -1.4528  2.5302
15985SOL    HW260429   5.313   3.904   2.823 -0.2959 -0.1448  0.2736
15986SOL     OW60430   3.676   8.785   7.523  0.2428 -0.1186  0.4245
15986SOL    HW160431   3.755   8.844   7.506  0.4768 -0.4336  0.4146
15986SOL    HW260432   3.644   8.748   7.436 -0.5098  0.7656  0.3176
15987SOL     OW60433   1.800   6.328   1.117  0.6442 -0.7601 -0.3035
15987SOL    HW160434   1.835   6.343   1.210  1.1468  0.2097 -0.6409
15987SOL    HW260435   1.709   6.287   1.122 -0.3584  1.4663  0.6891
15988SOL     OW60436   1.183   7.410   0.209 -0.0980  0.2591  0.4469
15988SOL    HW160437   1.137   7.460   0.136 -0.1925 -0.3454  0.0864
15988SOL    HW260438   1.129   7.330   0.234  0.9352 -0.6666 -0.2456
15989SOL     OW60439   8.675   3.554   8.701  0.0753 -0.0329 -0.5841
15989SOL    HW160440   8.602   3.560   8.769  0.5594  0.3308 -0.0976
15989SOL    HW260441   8.686   3.459   8.672 -1.2868  0.0474 -1.4223
15990SOL     OW60442   8.175   1.768   7.011  0.2119 -0.3156 -0.1612
15990SOL    HW160443   8.185   1.798   7.106  2.4543 -1.8454  0.1219
15990SOL    HW260444   8.142   1.673   7.010 -0.6506 -0.0052 -0.9220
15991SOL     OW60445   3.360   0.980   6.417 -0.0440  0.3194  0.0885
15991SOL    HW160446   3.338   0.924   6.497  0.5977 -1.0752 -0.6830
15991SOL    HW260447   3.278   1.029   6.387 -0.2582  0.9164  1.6487
15992SOL     OW60448   3.933   3.065   2.281  0.2032 -0.0061 -0.3973
15992SOL    HW160449   4.002   3.081   2.352 -0.4271  0.7643  0.0637
15992SOL    HW260450   3.975   3.075   2.191  0.4806  1.5025 -0.1203
15993SOL     OW60451   1.007   7.232   7.300 -0.3078 -0.4691  0.2815
15993SOL    HW160452   0.980   7.195   7.212 -1.1464  1.4357 -0.2936
15993SOL    HW260453   0.992   7.331   7.301 -1.1677 -0.5770  2.8638
15994SOL     OW60454   7.141   4.840   3.900 -0.2418  0.1504 -0.2807
15994SOL    HW160455   7.107   4.770   3.963  1.2086 -0.1479  0.1933
15994SOL    HW260456   7.226   4.808   3.858 -0.7395  0.7129 -1.7399
15995SOL     OW60457   7.951   2.648   8.669 -0.2464  0.0601 -0.8514
15995SOL    HW160458   7.942   2.731   8.724 -1.5451 -0.2979 -0.5134
15995SOL    HW260459   7.871   2.637   8.610 -0.5661 -1.4660 -0.1715
15996SOL     OW60460   3.718   8.638   2.362 -0.6089 -0.2243 -0.4751
15996SOL    HW160461   3.645   8.705   2.348 -0.2487  0.1870 -0.4124
15996SOL    HW260462   3.732   8.586   2.278 -1.0643 -0.3971 -0.4453
15997SOL     OW60463   4.300   3.837   7.444  0.6651 -0.3920 -0.1935
15997SOL    HW160464   4.340   3.886   7.366 -0.0407  1.6588  0.6901
15997SOL    HW260465   4.200   3.845   7.440  0.7091  1.9573  2.3039
15998SOL     OW60466   5.768   7.675   3.008  0.5172 -0.0590 -0.1879
15998SOL    HW160467   5.729   7.605   3.068 -0.2312 -0.4606 -1.1358
15998SOL    HW260468   5.799   7.752   3.064 -0.6912 -0.1777  0.6736
15999SOL     OW60469   5.892   6.889   0.330 -0.5225  0.1719 -0.4374
15999SOL    HW160470   5.893   6.927   0.237  0.2594 -1.1531 -0.9747
15999SOL    HW260471   5.831   6.810   0.334 -1.4570  0.9207  0.4723
16000SOL     OW60472   1.830   5.538   2.383  0.7854 -0.7260  0.0547
16000SOL    HW160473   1.897   5.531   2.308  1.5221  1.6979  0.4508
16000SOL    HW260474   1.874   5.576   2.464 -0.5430 -1.3113  1.0765
16001SOL     OW60475   1.309   1.819   5.531  0.4480  0.5469 -0.2327
16001SOL    HW160476   1.396   1.783   5.564  0.2407  1.1943  1.0506
16001SOL    HW260477   1.281   1.769   5.448  0.4266 -1.8527  1.1846
16002SOL     OW60478   0.768   8.180   0.773 -0.0678  0.1347  0.2473
16002SOL    HW160479   0.820   8.265   0.783  1.4267 -0.7234 -0.1344
16002SOL    HW260480   0.670   8.200   0.784  0.3122  1.7820  0.8534
16003SOL     OW60481   8.447   5.679   3.065  0.3344  0.0496 -1.0105
16003SOL    HW160482   8.525   5.719   3.016 -0.3547  1.0996 -1.2703
16003SOL    HW260483   8.383   5.640   2.998 -0.1260  0.5942 -0.8858
16004SOL     OW60484   3.596   4.721   0.342 -0.0060 -0.1271  0.2688
16004SOL    HW160485   3.525   4.759   0.401  0.9699 -1.1294  2.1468
16004SOL    HW260486   3.646   4.796   0.299 -1.0154  0.6187  0.3755
16005SOL     OW60487   8.313   6.816   0.024 -0.5298  0.0077 -0.3319
16005SOL    HW160488   8.314   6.902   0.075 -0.5937  0.1534 -0.5744
16005SOL    HW260489   8.367   6.826  -0.060 -0.7132 -0.1221 -0.4671
16006SOL     OW60490   5.162   6.134   3.181  0.3140  0.2015 -0.0357
16006SOL    HW160491   5.240   6.109   3.124  0.3044  0.1000 -0.0041
16006SOL    HW260492   5.173   6.228   3.212  0.1487  0.3682 -0.4826
16007SOL     OW60493   7.518   4.297   5.146 -0.2310 -0.3024 -0.2069
16007SOL    HW160494   7.562   4.387   5.146  0.3714 -0.5856 -0.9603
16007SOL    HW260495   7.580   4.230   5.186 -0.0604 -0.6614 -1.0582
16008SOL     OW60496   1.471   6.643   4.753 -0.1978 -0.1904 -0.3043
16008SOL    HW160497   1.522   6.566   4.792 -1.1720 -1.2083 -1.0031
16008SOL    HW260498   1.417   6.687   4.825 -1.4480 -1.6204 -0.3609
16009SOL     OW60499   7.617   0.596   6.520  0.1267 -0.3236  0.2614
16009SOL    HW160500   7.536   0.552   6.483 -0.6846  1.4526 -0.1029
16009SOL    HW260501   7.688   0.527   6.535 -0.9366 -1.6703 -0.7655
16010SOL     OW60502   2.084   2.243   0.353  0.2401 -0.4128  0.2772
16010SOL    HW160503   2.125   2.173   0.296  0.1218  0.2064 -0.5756
16010SOL    HW260504   1.993   2.267   0.317 -0.5302 -1.1836  1.6608
16011SOL     OW60505   6.390   8.026   7.406  0.3806  0.5006 -0.1237
16011SOL    HW160506   6.346   8.113   7.383  0.2116  0.5883  0.5029
16011SOL    HW260507   6.381   7.963   7.330  1.5939  1.4420 -1.0711
16012SOL     OW60508   6.646   4.775   6.536 -1.1271  0.4318  0.0856
16012SOL    HW160509   6.630   4.749   6.631 -1.7941  1.1036  0.1520
16012SOL    HW260510   6.702   4.704   6.492  0.0347  0.5947  1.2463
16013SOL     OW60511   3.427   4.521   7.643  0.3969 -0.2846  0.4847
16013SOL    HW160512   3.393   4.605   7.685  0.0906  0.3300 -0.9786
16013SOL    HW260513   3.509   4.540   7.590  0.6222 -1.0087  0.5608
16014SOL     OW60514   7.580   2.616   7.721 -0.2997 -0.8718 -0.0501
16014SOL    HW160515   7.544   2.548   7.786  0.0658 -0.4001  0.6527
16014SOL    HW260516   7.654   2.667   7.764  2.2941 -2.8859 -2.0267
16015SOL     OW60517   7.659   0.967   1.500 -0.1114 -0.1200 -0.6180
16015SOL    HW160518   7.685   0.888   1.444  0.0172  0.0131 -0.7485
16015SOL    HW260519   7.629   1.041   1.440 -0.7154 -0.2414 -0.4735
16016SOL     OW60520   5.488   4.464   3.842 -0.3785  0.0581 -0.2782
16016SOL    HW160521   5.576   4.432   3.877 -0.3399  0.3440 -0.1108
16016SOL    HW260522   5.461   4.548   3.891 -0.5952  0.1417 -0.5397
16017SOL     OW60523   1.851   2.011   0.176  0.1257  0.1433 -0.2030
16017SOL    HW160524   1.909   1.962   0.111  1.9728  0.3188  1.2788
16017SOL    HW260525   1.885   2.105   0.187 -1.1607  0.6285 -0.2152
16018SOL     OW60526   6.207   3.325   6.270  0.4615 -0.0283 -0.0785
16018SOL    HW160527   6.194   3.387   6.347 -2.0380  0.1776 -0.6170
16018SOL    HW260528   6.241   3.237   6.304 -1.5484 -0.2717  1.3982
16019SOL     OW60529   5.698   1.316   6.252  0.1336 -0.3322 -0.0302
16019SOL    HW160530   5.741   1.404   6.231 -0.2011 -0.5744 -1.7449
16019SOL    HW260531   5.712   1.253   6.176 -1.2410 -1.1691  0.3963
16020SOL     OW60532   3.723   4.611   8.512 -0.3540  0.2370 -0.1666
16020SOL    HW160533   3.699   4.707   8.528  0.5851  0.9633 -2.8857
16020SOL    HW260534   3.768   4.574   8.593  1.4696  2.8238  0.0547
16021SOL     OW60535   0.616   1.254   2.299 -0.2754  0.6230 -0.3626
16021SOL    HW160536   0.695   1.312   2.318  1.2969 -1.1198 -1.3052
16021SOL    HW260537   0.595   1.258   2.201 -1.0821  0.7304 -0.1882
16022SOL     OW60538   4.593   4.850   7.428 -0.3114 -0.5281 -0.2276
16022SOL    HW160539   4.689   4.865   7.453 -0.3413 -1.1043  0.2506
16022SOL    HW260540   4.579   4.753   7.408 -0.7970 -0.4454 -0.2922
16023SOL     OW60541   6.037   3.732   8.655 -0.0539 -0.1143  0.4194
16023SOL    HW160542   6.117   3.673   8.647 -0.5670 -0.5538 -2.1446
16023SOL    HW260543   5.954   3.675   8.659 -0.4235  0.3687 -0.1763
16024SOL     OW60544   5.883   6.253   1.608 -0.2634 -0.5555 -0.0057
16024SOL    HW160545   5.806   6.252   1.672  0.2449 -1.4243  0.5969
16024SOL    HW260546   5.860   6.197   1.528 -0.3186 -0.6784  0.0966
16025SOL     OW60547   8.048   8.433   2.364  0.8236 -0.0633  0.2947
16025SOL    HW160548   8.101   8.437   2.280  1.1769  0.4251  0.5381
16025SOL    HW260549   8.100   8.475   2.438  0.5375 -0.5419  0.7678
16026SOL     OW60550   4.291   1.108   6.915 -0.2368 -0.1136  0.3732
16026SOL    HW160551   4.261   1.094   6.820 -0.0697 -1.1200  0.4636
16026SOL    HW260552   4.382   1.149   6.915  0.5091 -1.7293  0.0820
16027SOL     OW60553   1.508   4.908   1.507  0.3696 -0.1628  0.0531
16027SOL    HW160554   1.583   4.846   1.529 -0.8342 -1.3742  0.7718
16027SOL    HW260555   1.449   4.919   1.587  0.7202  2.1626  0.0484
16028SOL     OW60556   0.758   6.257   8.584 -0.3993 -0.0597  0.0230
16028SOL    HW160557   0.707   6.218   8.506 -1.3857 -1.2666  1.2514
16028SOL    HW260558   0.693   6.295   8.650  0.4947  2.5451 -0.5195
16029SOL     OW60559   5.630   3.433   3.000  0.5395  1.0667  0.2722
16029SOL    HW160560   5.685   3.377   3.062 -0.0848  0.8531  0.6431
16029SOL    HW260561   5.559   3.377   2.957  0.0280  1.5171  0.5031
16030SOL     OW60562   4.469   4.885   4.591  0.7219 -0.2821  0.8347
16030SOL    HW160563   4.548   4.865   4.534  0.3512 -1.1849  0.6319
16030SOL    HW260564   4.445   4.805   4.646 -0.7980 -0.4515 -0.0317
16031SOL     OW60565   3.165   4.525   7.077 -0.2443  0.5476  0.3760
16031SOL    HW160566   3.094   4.579   7.033  0.0299  0.2265 -0.4655
16031SOL    HW260567   3.244   4.516   7.016 -1.1701 -2.6707 -0.4277
16032SOL     OW60568   8.481   1.835   0.477 -0.0245  0.0600 -0.8992
16032SOL    HW160569   8.397   1.819   0.425  0.3320  0.8857 -1.7321
16032SOL    HW260570   8.541   1.895   0.426  1.1256 -0.5989 -0.3429
16033SOL     OW60571   1.158   6.372   8.014  0.1796  0.2095 -0.1716
16033SOL    HW160572   1.083   6.321   7.971 -0.1265 -1.5579  2.3627
16033SOL    HW260573   1.130   6.466   8.030 -1.6769 -0.5348  1.1144
16034SOL     OW60574   5.755   8.435   3.545  0.4173  0.1201  0.5630
16034SOL    HW160575   5.739   8.427   3.644  0.8002  1.9275  0.7857
16034SOL    HW260576   5.839   8.486   3.529  0.6238 -0.6086 -0.7071
16035SOL     OW60577   1.681   6.757   4.579 -0.5951  0.2562 -0.3986
16035SOL    HW160578   1.629   6.733   4.661 -1.2577 -0.4849 -1.0276
16035SOL    HW260579   1.772   6.717   4.584 -0.4330  0.6966  0.2368
16036SOL     OW60580   6.502   1.827   6.116 -0.3758  0.0581  0.4376
16036SOL    HW160581   6.427   1.842   6.053 -1.0782  0.9097  1.4612
16036SOL    HW260582   6.589   1.846   6.070 -0.8024 -0.5872 -0.6413
16037SOL     OW60583   2.147   4.676   5.485 -0.3272  0.2313 -0.1900
16037SOL    HW160584   2.239   4.642   5.502  0.1845  0.7461 -1.8210
16037SOL    HW260585   2.142   4.773   5.511 -0.3080  0.2975 -0.4346
16038SOL     OW60586   4.154   4.577   0.380  0.2547 -0.1229 -0.2582
16038SOL    HW160587   4.117   4.487   0.402 -2.3593  0.9221 -0.2668
16038SOL    HW260588   4.090   4.627   0.322  1.7106  1.7296 -0.3332
16039SOL     OW60589   5.636   7.463   7.179  0.1303  0.2089 -0.1234
16039SOL    HW160590   5.606   7.414   7.098  0.1326  1.7051 -1.0440
16039SOL    HW260591   5.685   7.400   7.240 -1.4454 -1.3389 -0.4187
16040SOL     OW60592   5.191   4.140   1.547 -0.4207 -0.3275  0.3783
16040SOL    HW160593   5.155   4.149   1.639 -1.2214 -2.4780  0.3056
16040SOL    HW260594   5.265   4.073   1.546 -0.7739 -0.7123 -0.6264
16041SOL     OW60595   3.787   8.658   0.487 -0.3420 -0.7991  0.6472
16041SOL    HW160596   3.883   8.651   0.514 -0.4464  0.9353  1.5751
16041SOL    HW260597   3.756   8.752   0.502 -2.5615 -1.6754  1.6378
16042SOL     OW60598   8.707   7.032   7.997  0.2381  0.0490  0.3125
16042SOL    HW160599   8.702   6.952   8.058  0.0633 -0.7370 -0.7060
16042SOL    HW260600   8.715   7.000   7.903 -1.9709  1.2139 -0.3075
16043SOL     OW60601   5.856   3.692   5.569 -0.0902 -0.7444 -0.0783
16043SOL    HW160602   5.908   3.696   5.484 -1.2721  0.9068 -0.7577
16043SOL    HW260603   5.905   3.741   5.640  0.3055 -1.0648 -0.1247
16044SOL     OW60604   7.229   2.806   8.245 -0.6175 -0.3114 -0.1423
16044SOL    HW160605   7.137   2.837   8.220 -0.1782 -0.2651 -1.7437
16044SOL    HW260606   7.258   2.733   8.183  0.5005 -0.1983  0.2269
16045SOL     OW60607   8.287   2.109   7.023  0.2298  0.2412 -0.2540
16045SOL    HW160608   8.375   2.156   7.028  0.5746 -0.2376 -1.6664
16045SOL    HW260609   8.284   2.053   6.941 -1.2843  0.0095 -0.0472
16046SOL     OW60610   5.297   2.036   6.364  0.4461 -0.1128 -0.3885
16046SOL    HW160611   5.214   2.022   6.310 -0.2430 -3.2599  1.3335
16046SOL    HW260612   5.375   2.048   6.303 -0.8713  0.2842 -2.0349
16047SOL     OW60613   1.040   0.807   1.362 -0.1848  0.5309 -0.4022
16047SOL    HW160614   1.126   0.848   1.393  0.0905  0.7383 -1.4398
16047SOL    HW260615   0.970   0.878   1.352  0.2147  0.7266 -1.9311
16048SOL     OW60616   1.077   3.673   2.762 -0.0166  0.2976  0.4752
16048SOL    HW160617   1.169   3.686   2.726  0.1833 -0.4282  0.7098
16048SOL    HW260618   1.063   3.576   2.783 -0.4116  0.5889  1.5953
16049SOL     OW60619   3.715   7.856   4.383  0.1988 -0.0829 -0.1528
16049SOL    HW160620   3.714   7.808   4.471  0.4284  2.5398  1.3208
16049SOL    HW260621   3.764   7.800   4.315  2.0144 -1.1625  1.9834
16050SOL     OW60622   2.390   5.054   5.676 -0.0243 -0.2097 -0.4002
16050SOL    HW160623   2.349   5.027   5.763 -1.2042 -1.4208 -1.3017
16050SOL    HW260624   2.468   5.115   5.693 -0.5261 -0.0468  1.4673
16051SOL     OW60625   0.885   2.805   5.612  0.0396 -0.2603  0.6775
16051SOL    HW160626   0.873   2.903   5.593 -1.2584 -0.8492 -1.9023
16051SOL    HW260627   0.978   2.788   5.642  1.0948  1.4496 -1.4433
16052SOL     OW60628   7.734   3.175   8.228 -0.0111  0.3090  0.2343
16052SOL    HW160629   7.820   3.220   8.255  0.5368 -0.6583  0.1259
16052SOL    HW260630   7.681   3.154   8.310  1.2683 -1.8636  0.5476
16053SOL     OW60631   5.413   3.644   2.434 -0.2268 -0.0988 -0.1967
16053SOL    HW160632   5.403   3.723   2.374 -0.0448  0.9185  1.0835
16053SOL    HW260633   5.510   3.628   2.452 -0.2863 -0.3192 -0.0668
16054SOL     OW60634   4.793   6.005   4.747  0.2057  0.0132 -0.0416
16054SOL    HW160635   4.766   5.909   4.759 -0.5377  0.1312 -0.6813
16054SOL    HW260636   4.767   6.057   4.828  0.5468 -0.3136  0.2798
16055SOL     OW60637   8.495   2.912   5.900 -0.1694 -0.3562 -0.2778
16055SOL    HW160638   8.523   2.892   5.994  0.7854  0.2719 -0.4285
16055SOL    HW260639   8.548   2.988   5.864  0.7134 -1.7209 -1.9301
16056SOL     OW60640   8.498   6.717   0.532 -0.7682  0.0783 -0.2054
16056SOL    HW160641   8.532   6.719   0.625 -1.7808 -3.8327  0.3305
16056SOL    HW260642   8.573   6.701   0.468 -0.6195 -1.1644  0.2892
16057SOL     OW60643   5.754   5.555   4.600  0.0783  0.5456  0.0211
16057SOL    HW160644   5.836   5.594   4.642  1.1192 -0.1132 -1.3538
16057SOL    HW260645   5.716   5.619   4.533 -0.6944  0.9599  0.8472
16058SOL     OW60646   2.373   8.580   5.975 -0.1054  0.0713 -0.3465
16058SOL    HW160647   2.323   8.565   5.890  0.4175 -2.0678 -0.3143
16058SOL    HW260648   2.471   8.565   5.960  0.2441  1.7536  0.1577
16059SOL     OW60649   4.206   5.785   4.880  0.3644 -0.3121 -0.2324
16059SOL    HW160650   4.137   5.856   4.861 -0.5978 -0.6313  1.8857
16059SOL    HW260651   4.291   5.829   4.910  0.6045  0.0276 -1.3846
16060SOL     OW60652   0.201   5.623   3.177  0.1732 -0.3748  0.1789
16060SOL    HW160653   0.208   5.710   3.227 -0.2729 -1.0914  1.4932
16060SOL    HW260654   0.107   5.610   3.145  0.0334 -0.7842  0.7446
16061SOL     OW60655   1.528   2.041   0.547  0.5462 -0.0699 -0.6236
16061SOL    HW160656   1.519   2.121   0.607 -2.0619 -0.4794 -0.4270
16061SOL    HW260657   1.625   2.027   0.525  1.1983  2.1653  0.6504
16062SOL     OW60658   4.552   0.998   6.304  0.4755  0.0318 -0.2151
16062SOL    HW160659   4.549   1.052   6.220  0.9396 -1.2001 -1.0368
16062SOL    HW260660   4.462   0.960   6.323  0.1610  1.0383  0.3363
16063SOL     OW60661   6.129   1.047   0.212  0.0146  0.0636  0.1159
16063SOL    HW160662   6.107   1.101   0.130 -3.1259  1.2736  1.6770
16063SOL    HW260663   6.059   1.062   0.281  1.3119 -2.8539  2.1523
16064SOL     OW60664   3.153   3.551   3.121 -0.0379 -0.1198 -0.0947
16064SOL    HW160665   3.106   3.464   3.136 -1.0457  0.4461  0.1246
16064SOL    HW260666   3.184   3.588   3.208 -3.2257  1.7034  0.3459
16065SOL     OW60667   4.789   8.811   0.383 -0.3945 -0.1627 -0.0305
16065SOL    HW160668   4.698   8.848   0.403 -0.7307 -0.6153 -0.6929
16065SOL    HW260669   4.854   8.886   0.373 -0.6209  0.1477  0.8015
16066SOL     OW60670   5.189   1.044   6.465  0.7715  0.0745  0.5126
16066SOL    HW160671   5.196   1.077   6.559  1.9449 -0.2432  0.5471
16066SOL    HW260672   5.153   0.950   6.466 -0.6233  0.6022  0.5418
16067SOL     OW60673   3.424   5.093   6.687  0.2168  0.6065  0.2064
16067SOL    HW160674   3.458   5.009   6.647  0.7465  1.0915 -0.3536
16067SOL    HW260675   3.324   5.092   6.686  0.2301  0.5951 -1.0602
16068SOL     OW60676   3.612   5.615   8.157  0.1024  0.3430  0.1258
16068SOL    HW160677   3.680   5.557   8.114 -1.5946 -1.0225 -0.8065
16068SOL    HW260678   3.620   5.609   8.257 -0.1569 -1.6229  0.0366
16069SOL     OW60679   3.246   1.427   6.327  0.5264  0.2413  0.7311
16069SOL    HW160680   3.198   1.339   6.319  1.0025  0.0524 -0.1683
16069SOL    HW260681   3.211   1.490   6.257  1.8921 -0.0467 -0.2272
16070SOL     OW60682   6.209   4.983   4.991  0.1915  0.2006 -0.0372
16070SOL    HW160683   6.251   5.073   5.006 -1.3395  0.8513  0.4688
16070SOL    HW260684   6.263   4.913   5.037  0.3323  1.1103  1.2212
16071SOL     OW60685   1.698   6.122   0.869  0.8191 -0.3006  0.6942
16071SOL    HW160686   1.665   6.081   0.784 -0.7041 -0.6414  1.4360
16071SOL    HW260687   1.797   6.113   0.874  1.0146  0.3062 -1.3601
16072SOL     OW60688   5.755   6.662   6.585  0.6032  0.4434  0.0934
16072SOL    HW160689   5.819   6.664   6.509  0.3304 -0.2055 -0.1600
16072SOL    HW260690   5.664   6.635   6.551  0.5973 -0.3416  0.7253
16073SOL     OW60691   0.903   7.079   2.451  0.2449  0.0833  0.2876
16073SOL    HW160692   0.997   7.048   2.441  0.1592 -0.0674 -0.0779
16073SOL    HW260693   0.886   7.155   2.389  0.0503 -0.0623  0.1617
16074SOL     OW60694   2.977   8.850   0.087 -0.1974 -0.1750  0.3458
16074SOL    HW160695   3.023   8.768   0.122  0.3502 -0.3163 -0.6666
16074SOL    HW260696   3.030   8.931   0.114  0.1333 -0.2719  0.0033
16075SOL     OW60697   5.322   7.444   6.544 -0.0375 -0.1634 -0.2217
16075SOL    HW160698   5.284   7.524   6.498  0.7357  0.7782  0.7555
16075SOL    HW260699   5.386   7.398   6.483 -0.7286 -0.2224 -0.9055
16076SOL     OW60700   4.010   7.219   4.064 -0.3774 -0.1526 -0.7402
16076SOL    HW160701   4.037   7.312   4.087 -1.3736  0.0678 -0.4225
16076SOL    HW260702   3.976   7.216   3.970 -2.5132  0.2923 -0.0198
16077SOL     OW60703   2.300   7.554   0.842 -0.4641  0.5001 -0.6352
16077SOL    HW160704   2.383   7.526   0.890 -1.5017 -3.0280 -0.7233
16077SOL    HW260705   2.324   7.600   0.757  1.4025 -0.8170 -0.8383
16078SOL     OW60706   0.840   4.946   3.058  0.1437 -0.0277 -0.1611
16078SOL    HW160707   0.834   4.853   3.093  1.7669 -1.7765 -4.2990
16078SOL    HW260708   0.934   4.980   3.067 -0.0660  0.5871 -0.2350
16079SOL     OW60709   2.022   5.310   4.321  0.0210  0.5508 -0.4492
16079SOL    HW160710   2.092   5.368   4.280 -0.3530  2.7956  1.9879
16079SOL    HW260711   1.938   5.318   4.268  0.3426  1.2148 -0.8761
16080SOL     OW60712   2.634   5.113   5.014  0.1855  0.1051 -0.2434
16080SOL    HW160713   2.572   5.053   5.064  1.1570 -0.0339  0.7997
16080SOL    HW260714   2.586   5.152   4.935 -0.6761 -1.4355 -0.4993
16081SOL     OW60715   4.197   6.394   1.377 -0.1079 -0.1435 -0.3804
16081SOL    HW160716   4.274   6.427   1.321 -0.8795 -0.9510 -1.9511
16081SOL    HW260717   4.111   6.419   1.333 -0.7354 -0.6563  0.5400
16082SOL     OW60718   3.362   6.727   2.141 -0.0787  0.0832  0.3188
16082SOL    HW160719   3.266   6.745   2.118 -0.3573 -0.1998  1.2426
16082SOL    HW260720   3.394   6.796   2.206  0.2692  0.0209  0.2146
16083SOL     OW60721   2.644   8.451   6.730  0.4380  0.6570  0.0754
16083SOL    HW160722   2.618   8.490   6.818 -0.7009  1.1884 -0.4737
16083SOL    HW260723   2.638   8.351   6.734 -0.5069  0.7155  0.3427
16084SOL     OW60724   0.218   0.946   4.891  0.8466 -0.1730 -0.3562
16084SOL    HW160725   0.224   0.850   4.865 -0.5712 -0.4178  0.1611
16084SOL    HW260726   0.162   0.995   4.823 -0.0237 -0.1149  0.3934
16085SOL     OW60727   6.595   2.576   0.939  0.4949 -0.3204  0.3672
16085SOL    HW160728   6.690   2.595   0.915  0.7187 -0.4345  1.1242
16085SOL    HW260729   6.554   2.517   0.870  1.7587 -2.3765  1.2970
16086SOL     OW60730   7.456   7.741   1.913  0.1488 -0.3019  0.0492
16086SOL    HW160731   7.416   7.669   1.856 -2.3534  0.2808  0.9760
16086SOL    HW260732   7.457   7.827   1.863 -0.3455 -0.1885  0.2295
16087SOL     OW60733   4.227   2.974   8.640  0.1690 -0.3152 -0.1545
16087SOL    HW160734   4.284   2.965   8.558 -1.0793  2.3773 -1.4226
16087SOL    HW260735   4.275   2.938   8.719  2.8022  0.0320 -1.5372
16088SOL     OW60736   3.065   4.431   6.284  0.3443 -0.3932  0.0928
16088SOL    HW160737   3.070   4.387   6.194  0.7457 -1.3171  0.5548
16088SOL    HW260738   3.037   4.526   6.273  1.9197 -0.0516 -1.1401
16089SOL     OW60739   6.745   4.747   0.888 -0.3467 -0.0779  0.1619
16089SOL    HW160740   6.816   4.774   0.822  0.5584 -1.6912  0.4487
16089SOL    HW260741   6.731   4.821   0.954  0.1207  0.7771 -0.6738
16090SOL     OW60742   6.081   0.638   8.518  0.2325  0.2645 -0.2424
16090SOL    HW160743   6.134   0.571   8.570 -1.1626 -1.0014 -0.4288
16090SOL    HW260744   6.118   0.729   8.533  1.1067 -0.3480  1.3539
16091SOL     OW60745   5.212   2.609   0.292  0.4031  0.0354  0.2031
16091SOL    HW160746   5.269   2.691   0.291  2.6092 -1.4770 -0.7283
16091SOL    HW260747   5.121   2.632   0.328  1.0111  2.8487  0.0371
16092SOL     OW60748   2.879   2.187   6.468 -0.3037 -0.0696 -0.4314
16092SOL    HW160749   2.912   2.093   6.470 -1.2436 -0.4031 -0.3237
16092SOL    HW260750   2.789   2.189   6.424 -0.3889  0.7478 -0.2182
16093SOL     OW60751   1.992   7.207   1.397 -0.0390  0.2293 -0.1940
16093SOL    HW160752   2.039   7.166   1.475  0.6361 -0.9199 -1.1945
16093SOL    HW260753   2.052   7.275   1.354  0.1576 -0.2143 -0.6167
16094SOL     OW60754   0.279   7.527   7.041  0.1385  0.2400  0.5297
16094SOL    HW160755   0.294   7.542   6.943  1.0717  0.9464  0.7670
16094SOL    HW260756   0.182   7.511   7.058 -0.0586  0.3243 -0.4866
16095SOL     OW60757   5.532   3.633   8.062 -0.0566  0.4765 -0.9008
16095SOL    HW160758   5.493   3.718   8.028 -3.2777 -1.3816 -1.9994
16095SOL    HW260759   5.485   3.607   8.147 -0.3606 -1.1605 -1.5678
16096SOL     OW60760   4.169   5.201   7.157 -0.2373 -0.2216 -0.4224
16096SOL    HW160761   4.254   5.248   7.180 -0.3076 -0.1090 -0.3905
16096SOL    HW260762   4.164   5.189   7.058 -0.1965 -0.2053 -0.4268
16097SOL     OW60763   4.806   0.194   2.475 -0.5319 -0.7023 -0.3155
16097SOL    HW160764   4.802   0.111   2.531  0.2336  0.2004  1.1014
16097SOL    HW260765   4.735   0.257   2.502 -0.6327 -0.5659 -0.8828
16098SOL     OW60766   7.397   3.137   4.374 -0.3540  0.1544 -0.8252
16098SOL    HW160767   7.307   3.099   4.396  0.1121 -1.1073 -1.0408
16098SOL    HW260768   7.430   3.192   4.451 -0.9279 -0.0898 -0.4026
16099SOL     OW60769   5.442   0.338   2.829  0.1946 -0.7348  0.8992
16099SOL    HW160770   5.423   0.313   2.734 -1.8184  0.8343  0.8263
16099SOL    HW260771   5.538   0.364   2.839  0.2572 -0.2054 -0.8962
16100SOL     OW60772   2.590   2.054   0.197  0.1617 -0.0378 -0.4948
16100SOL    HW160773   2.688   2.032   0.198 -0.0478 -1.0877  1.7757
16100SOL    HW260774   2.573   2.129   0.134  2.6420  1.0435  0.0709
16101SOL     OW60775   1.991   5.958   1.750 -0.1627 -0.1748 -0.0636
16101SOL    HW160776   2.027   6.047   1.723  0.8495 -1.0022 -1.5797
16101SOL    HW260777   2.012   5.891   1.678 -0.7649 -1.6642  1.1155
16102SOL     OW60778   8.618   8.131   5.941  0.3476 -0.1051  0.2881
16102SOL    HW160779   8.584   8.088   6.024 -1.6405  0.6258 -0.1201
16102SOL    HW260780   8.586   8.079   5.861  2.4752 -0.9717 -0.0407
16103SOL     OW60781   4.137   2.019   3.612 -0.6174  0.1431  0.1134
16103SOL    HW160782   4.099   2.084   3.546 -2.6962 -1.8662 -0.7309
16103SOL    HW260783   4.065   1.990   3.675  0.6430 -0.2202  1.4065
16104SOL     OW60784   5.831   1.930   7.836 -0.3350 -0.4456  0.0909
16104SOL    HW160785   5.881   1.987   7.772  1.1242 -0.1869  1.4346
16104SOL    HW260786   5.797   1.986   7.912 -2.9755 -0.5559 -0.9507
16105SOL     OW60787   2.130   1.818   2.818  0.2617  0.1730  0.0804
16105SOL    HW160788   2.037   1.789   2.840  0.1830  0.8045  0.6140
16105SOL    HW260789   2.168   1.758   2.748 -0.8258  0.3856 -0.7119
16106SOL     OW60790   6.098   6.976   1.410  0.4767  0.3896  0.1121
16106SOL    HW160791   6.034   7.034   1.360 -0.5825  0.5881  1.6478
16106SOL    HW260792   6.191   6.996   1.381  0.0221  1.8786 -0.3696
16107SOL     OW60793   7.114   4.667   3.107  0.0487 -0.1790 -0.2537
16107SOL    HW160794   7.044   4.652   3.037 -1.8949  1.7346  1.2303
16107SOL    HW260795   7.090   4.747   3.162  3.4933  0.6295  0.2080
16108SOL     OW60796   2.404   5.140   4.336  0.1992  0.0487  0.4105
16108SOL    HW160797   2.423   5.225   4.287 -1.9246  1.3827  1.7995
16108SOL    HW260798   2.488   5.087   4.347  1.6195  2.1637 -0.1140
16109SOL     OW60799   0.281   8.211   6.844 -0.2211  0.0937 -0.1218
16109SOL    HW160800   0.295   8.113   6.855 -1.0057 -0.0428 -0.3585
16109SOL    HW260801   0.191   8.237   6.879 -1.0833  0.3123 -2.4255
16110SOL     OW60802   1.036   1.646   5.073 -0.1047 -0.2313 -0.1137
16110SOL    HW160803   1.129   1.684   5.070 -0.3139  0.1930 -1.1148
16110SOL    HW260804   0.970   1.720   5.068 -0.5238 -0.3436  2.6838
16111SOL     OW60805   8.344   3.671   7.463  0.1387 -0.0545  0.6827
16111SOL    HW160806   8.261   3.711   7.502 -0.9412 -1.1995 -0.4118
16111SOL    HW260807   8.405   3.745   7.434 -0.6295  0.8045  1.2047
16112SOL     OW60808   5.828   7.071   2.016 -0.3295  0.1248 -0.7575
16112SOL    HW160809   5.823   7.058   2.115 -2.0223 -1.2602 -1.0057
16112SOL    HW260810   5.905   7.019   1.979  0.6552  1.0989 -0.1156
16113SOL     OW60811   4.375   5.052   6.884  0.0781  0.0923 -0.3092
16113SOL    HW160812   4.356   5.003   6.970 -0.0576 -0.3252 -0.5750
16113SOL    HW260813   4.416   5.141   6.905  0.3669 -0.1512  0.1759
16114SOL     OW60814   1.556   2.130   7.002 -0.1487 -0.8914  1.2998
16114SOL    HW160815   1.554   2.214   6.947 -0.4430 -1.7818 -0.0784
16114SOL    HW260816   1.465   2.115   7.042 -0.8471 -1.9317 -0.6101
16115SOL     OW60817   6.550   2.064   1.859  0.1165 -0.1465  0.4357
16115SOL    HW160818   6.538   1.995   1.789  2.1558  2.6140 -2.7950
16115SOL    HW260819   6.648   2.072   1.881 -0.0353  1.8781  0.4953
16116SOL     OW60820   0.940   1.296   7.017  0.0140 -0.2240 -0.3183
16116SOL    HW160821   1.021   1.313   7.073 -0.4800 -0.2429  0.4043
16116SOL    HW260822   0.946   1.205   6.976  0.5619 -0.0544 -0.6234
16117SOL     OW60823   7.216   7.505   0.337  0.2827  0.0064  0.5050
16117SOL    HW160824   7.154   7.573   0.298  0.3487  0.5851  1.3979
16117SOL    HW260825   7.248   7.536   0.426  0.6642 -0.9929  0.7250
16118SOL     OW60826   7.294   8.898   8.857 -0.5651  0.9480  0.3132
16118SOL    HW160827   7.320   8.947   8.939  0.2659  0.1938  0.5143
16118SOL    HW260828   7.376   8.855   8.816 -1.0404  0.9270 -0.6341
16119SOL     OW60829   7.102   6.895   5.797  0.2100 -0.4135 -0.2299
16119SOL    HW160830   7.143   6.951   5.725  0.3339  1.1891  1.0631
16119SOL    HW260831   7.155   6.906   5.881 -1.2494 -0.5203  0.7048
16120SOL     OW60832   3.864   3.600   8.040 -0.2238  0.0628  0.5624
16120SOL    HW160833   3.862   3.693   8.004 -0.2437  0.8059  2.4769
16120SOL    HW260834   3.836   3.600   8.136 -1.5097 -2.0862  0.2324
16121SOL     OW60835   1.363   6.888   5.921  0.1086  0.1530 -0.2035
16121SOL    HW160836   1.309   6.890   5.837 -0.1093 -2.4140 -0.1666
16121SOL    HW260837   1.435   6.958   5.917  1.1442 -1.0269 -3.2232
16122SOL     OW60838   8.383   4.629   7.709 -0.3710 -0.3628 -0.7061
16122SOL    HW160839   8.362   4.538   7.743 -0.5614  0.2102  0.7322
16122SOL    HW260840   8.482   4.643   7.708 -0.4060  0.1812  1.1701
16123SOL     OW60841   5.348   8.039   6.220 -0.2473 -0.0255  0.0020
16123SOL    HW160842   5.399   8.114   6.179  0.7045  0.4833  2.0396
16123SOL    HW260843   5.323   8.063   6.314 -0.9269 -1.8009  0.3063
16124SOL     OW60844   5.787   2.309   0.587  0.2672 -1.0512  0.2956
16124SOL    HW160845   5.818   2.294   0.681  0.1478  1.6513  0.8101
16124SOL    HW260846   5.694   2.346   0.588  1.5998  2.5379 -0.6611
16125SOL     OW60847   1.842   8.457   0.672 -0.5480  0.2219  0.5979
16125SOL    HW160848   1.751   8.436   0.706 -0.8412 -0.0402 -0.3394
16125SOL    HW260849   1.908   8.450   0.748 -1.4358  1.4179  1.4930
16126SOL     OW60850   0.565   8.627   6.288  0.0639  0.3246  0.2766
16126SOL    HW160851   0.628   8.639   6.210  0.5338 -1.8744  0.2750
16126SOL    HW260852   0.510   8.709   6.299  1.7097  1.6236 -0.8454
16127SOL     OW60853   7.821   1.672   2.351 -0.3228 -0.0237  0.4034
16127SOL    HW160854   7.853   1.705   2.440  0.3256 -1.2251  0.6313
16127SOL    HW260855   7.787   1.579   2.361 -1.0546  0.1536 -0.4468
16128SOL     OW60856   3.035   6.239   3.585  0.3471 -0.3369  0.5044
16128SOL    HW160857   2.995   6.243   3.494 -3.0029 -0.9465  1.9026
16128SOL    HW260858   3.064   6.331   3.613  1.2802 -0.1294 -1.0896
16129SOL     OW60859   3.637   1.908   8.738  0.3481  0.2218  0.5333
16129SOL    HW160860   3.552   1.944   8.776  0.5211  1.8421 -0.5757
16129SOL    HW260861   3.715   1.947   8.786  0.5008 -0.4317  0.8270
16130SOL     OW60862   2.467   3.944   1.004  0.3860 -0.0534  0.2917
16130SOL    HW160863   2.420   3.924   1.090  2.0603 -0.5175  1.1284
16130SOL    HW260864   2.410   3.915   0.927 -1.1168  0.3427  1.2502
16131SOL     OW60865   5.796   2.308   1.639  0.0543 -0.2771 -0.0573
16131SOL    HW160866   5.795   2.249   1.719  2.0717 -1.7921 -1.0982
16131SOL    HW260867   5.885   2.353   1.632  0.5297 -1.4949 -2.3491
16132SOL     OW60868   2.959   3.569   5.596  0.2987  0.0970  0.5199
16132SOL    HW160869   3.006   3.644   5.549  1.0887 -0.6716  0.0825
16132SOL    HW260870   2.865   3.597   5.617  0.1249  0.6950 -0.9470
16133SOL     OW60871   6.700   3.085   5.959  0.6653  0.4793  0.3815
16133SOL    HW160872   6.796   3.106   5.975  0.8289 -0.5752  0.8048
16133SOL    HW260873   6.692   3.010   5.894  0.0780  1.7886 -1.1058
16134SOL     OW60874   4.725   8.404   2.911 -0.5916  0.7210  0.1777
16134SOL    HW160875   4.797   8.352   2.866 -1.5134  0.2929 -0.8186
16134SOL    HW260876   4.766   8.471   2.974  0.7109  1.3708 -1.3255
16135SOL     OW60877   2.687   0.231   8.445  0.4939 -0.5737 -0.1003
16135SOL    HW160878   2.614   0.298   8.440  0.7541  0.0045  2.6966
16135SOL    HW260879   2.648   0.139   8.448 -0.1060 -0.3043  0.5629
16136SOL     OW60880   1.597   8.947   1.939  0.0147  0.6220  0.1848
16136SOL    HW160881   1.643   9.011   1.877  0.0394 -0.8925 -1.3933
16136SOL    HW260882   1.652   8.936   2.022  1.9027 -0.2484 -1.1597
16137SOL     OW60883   7.802   7.441   1.438 -0.1347  0.0187  0.2069
16137SOL    HW160884   7.784   7.419   1.342 -0.1398  1.6048 -0.1633
16137SOL    HW260885   7.898   7.423   1.459 -0.2925 -0.9992  0.1069
16138SOL     OW60886   5.219   6.491   2.207  0.3295 -0.0017 -0.2673
16138SOL    HW160887   5.239   6.559   2.136  0.9224 -2.0380 -2.0930
16138SOL    HW260888   5.125   6.459   2.197 -0.0891  0.8461  0.8647
16139SOL     OW60889   1.820   3.332   5.465 -0.0553 -0.2480 -0.5835
16139SOL    HW160890   1.770   3.278   5.397  0.0112  0.0048 -0.8319
16139SOL    HW260891   1.914   3.346   5.434  0.4727 -1.6117  0.3750
16140SOL     OW60892   7.562   4.667   4.446 -0.4863 -0.1254  0.1884
16140SOL    HW160893   7.647   4.621   4.475 -0.3104  0.6653  0.9389
16140SOL    HW260894   7.556   4.666   4.346 -0.5746 -1.9433  0.1940
16141SOL     OW60895   0.623   1.201   8.705 -0.5197  0.6065 -0.5138
16141SOL    HW160896   0.582   1.167   8.621 -0.9169  0.3919 -0.2359
16141SOL    HW260897   0.561   1.266   8.749 -0.8690 -0.2278  0.2539
16142SOL     OW60898   0.745   7.534   8.432  0.4500  0.1192 -0.0477
16142SOL    HW160899   0.656   7.495   8.456  0.0032  0.6188 -0.8472
16142SOL    HW260900   0.753   7.538   8.332  0.7902  1.3553  0.0187
16143SOL     OW60901   4.321   0.116   0.048 -0.3195 -0.1668 -0.1226
16143SOL    HW160902   4.351   0.144   0.139 -0.0013  0.4996 -0.4312
16143SOL    HW260903   4.276   0.193   0.002 -1.1519 -0.7195 -0.2406
16144SOL     OW60904   1.897   2.902   8.223 -0.7633  0.1356  0.2007
16144SOL    HW160905   1.882   2.804   8.237 -0.9993 -0.0581 -1.3266
16144SOL    HW260906   1.987   2.917   8.183 -0.6466  0.5649  0.6168
16145SOL     OW60907   7.767   1.608   6.607  0.1324 -0.4351 -0.0120
16145SOL    HW160908   7.811   1.693   6.638 -0.4133  0.1630 -0.8792
16145SOL    HW260909   7.838   1.542   6.581  0.5544 -0.2098  0.5329
16146SOL     OW60910   4.039   3.709   1.485  0.5644  0.0448  0.4312
16146SOL    HW160911   4.074   3.699   1.578 -1.0691  0.5537  1.1237
16146SOL    HW260912   4.026   3.806   1.465 -0.0897 -0.1190  0.0508
16147SOL     OW60913   5.099   0.239   2.573 -0.0085  0.5001  0.2882
16147SOL    HW160914   5.045   0.271   2.651 -1.1104 -0.6314  0.0179
16147SOL    HW260915   5.054   0.269   2.488 -0.2381 -0.4678  0.0603
16148SOL     OW60916   7.666   7.986   1.412 -0.2505  0.0889  0.2718
16148SOL    HW160917   7.751   7.977   1.464 -0.2137 -0.0035  0.1965
16148SOL    HW260918   7.636   8.081   1.415 -0.0237  0.1674  0.1093
16149SOL     OW60919   1.541   1.479   4.330  0.2786 -0.2603 -0.7215
16149SOL    HW160920   1.489   1.534   4.265  0.3155  0.4385 -0.1716
16149SOL    HW260921   1.635   1.468   4.297  0.3228  0.1716 -0.7446
16150SOL     OW60922   0.021   0.381   7.033 -0.0628 -0.0488  0.0886
16150SOL    HW160923  -0.065   0.362   7.079 -0.3480  2.7688  0.8616
16150SOL    HW260924   0.094   0.325   7.074 -0.8487  0.3030  2.0486
16151SOL     OW60925   8.171   4.612   2.064 -0.6474  0.3465 -0.6226
16151SOL    HW160926   8.251   4.663   2.096 -1.3870 -0.3572  2.5057
16151SOL    HW260927   8.196   4.517   2.049 -0.7519  0.2480 -0.1865
16152SOL     OW60928   6.421   7.844   2.854  0.2963 -0.8557 -0.7950
16152SOL    HW160929   6.461   7.929   2.819 -0.6843 -0.3541 -0.7231
16152SOL    HW260930   6.328   7.862   2.885  1.1527 -1.2425  2.2182
16153SOL     OW60931   3.868   6.959   6.799 -0.2230  0.1930  0.5358
16153SOL    HW160932   3.877   6.868   6.758 -1.8324 -0.1907  1.0304
16153SOL    HW260933   3.880   7.028   6.728 -2.9559 -0.4687 -0.6096
16154SOL     OW60934   8.271   3.675   4.420 -0.1063  0.2062  0.6662
16154SOL    HW160935   8.334   3.602   4.445  0.2947  0.3953  0.2081
16154SOL    HW260936   8.323   3.758   4.397 -0.5675  0.7525  1.5487
16155SOL     OW60937   8.405   6.609   2.733  0.0097  0.0268  0.0375
16155SOL    HW160938   8.437   6.599   2.639  0.3250  0.7001  0.0717
16155SOL    HW260939   8.352   6.693   2.742 -1.8456 -1.0853 -0.0290
16156SOL     OW60940   0.941   4.142   0.533 -0.5756  0.2716 -0.1282
16156SOL    HW160941   0.921   4.207   0.606 -0.0292  0.4213 -0.1119
16156SOL    HW260942   0.906   4.178   0.446 -1.0409  0.1874  0.0217
16157SOL     OW60943   6.482   0.280   0.851  0.0906  0.7251  0.0090
16157SOL    HW160944   6.407   0.338   0.818  0.3746  2.3686  2.1214
16157SOL    HW260945   6.444   0.200   0.899 -0.2977 -0.2754 -1.9325
16158SOL     OW60946   0.870   0.750   6.040 -0.0025  0.4170  0.2019
16158SOL    HW160947   0.952   0.773   6.092 -0.5169  1.0503  0.7187
16158SOL    HW260948   0.866   0.807   5.958  0.6220 -0.3392 -0.3662
16159SOL     OW60949   3.314   2.169   3.693 -0.7852 -0.0314  0.2390
16159SOL    HW160950   3.400   2.143   3.649 -0.5221  1.4318 -0.1398
16159SOL    HW260951   3.237   2.132   3.642 -0.3982 -0.6966  0.1388
16160SOL     OW60952   5.155   8.131   3.809 -0.1173  0.1044 -0.1112
16160SOL    HW160953   5.133   8.129   3.711  0.8559 -1.9982 -0.3094
16160SOL    HW260954   5.111   8.053   3.854 -0.7632  1.2021  1.1926
16161SOL     OW60955   3.745   5.420   8.557  0.5190 -0.2322 -0.3585
16161SOL    HW160956   3.819   5.415   8.489  1.2230  1.0679  0.3000
16161SOL    HW260957   3.770   5.364   8.637  0.0623 -1.0875 -0.8058
16162SOL     OW60958   5.983   7.002   8.648  0.0510 -0.1622 -0.5809
16162SOL    HW160959   6.059   6.949   8.609 -0.3226 -2.3862  1.6043
16162SOL    HW260960   6.016   7.053   8.728 -0.0592  1.4057 -1.5105
16163SOL     OW60961   2.162   7.673   1.326 -0.1848  0.1792 -0.1763
16163SOL    HW160962   2.101   7.752   1.323 -0.9024 -0.2240  2.0891
16163SOL    HW260963   2.108   7.589   1.316  0.0339 -0.1546  1.2775
16164SOL     OW60964   5.510   4.967   2.882  0.2925  0.0377  0.8043
16164SOL    HW160965   5.561   4.931   2.804 -1.1862 -2.7529  1.0698
16164SOL    HW260966   5.416   4.984   2.856  0.2076  0.7557  1.5404
16165SOL     OW60967   8.627   6.131   5.486  0.4539 -0.0387  0.2591
16165SOL    HW160968   8.547   6.114   5.428  0.5273 -0.7340  0.3541
16165SOL    HW260969   8.599   6.179   5.568  0.0288 -0.8164  0.5794
16166SOL     OW60970   5.549   2.486   7.925 -0.5499 -0.2729 -0.4518
16166SOL    HW160971   5.551   2.485   8.025 -0.7461  0.5493 -0.4367
16166SOL    HW260972   5.464   2.527   7.894 -0.0547  0.3692 -0.9599
16167SOL     OW60973   1.578   4.813   1.119  0.1916  0.7921 -0.0181
16167SOL    HW160974   1.602   4.907   1.095  0.9567  0.2334 -1.5324
16167SOL    HW260975   1.616   4.750   1.050 -3.1733 -0.3697 -0.9149
16168SOL     OW60976   1.404   3.402   3.185 -0.2979 -0.2367  0.1444
16168SOL    HW160977   1.475   3.437   3.123 -1.5250 -0.8642 -1.6858
16168SOL    HW260978   1.445   3.377   3.272  1.4106  1.1607 -0.2298
16169SOL     OW60979   4.286   7.673   7.969 -0.1831  0.2728  0.0382
16169SOL    HW160980   4.233   7.589   7.980 -0.9584  0.4721 -2.0613
16169SOL    HW260981   4.279   7.705   7.875  1.6875  1.6484  0.3482
16170SOL     OW60982   7.566   3.154   1.411 -0.0418  0.1604 -0.3698
16170SOL    HW160983   7.572   3.252   1.427  0.8989 -0.1286  1.2124
16170SOL    HW260984   7.544   3.108   1.498  1.5663 -1.1949 -0.6516
16171SOL     OW60985   3.055   5.573   7.532 -0.3964  0.2961 -0.0909
16171SOL    HW160986   3.105   5.494   7.568 -0.6427  0.1178 -0.1452
16171SOL    HW260987   3.021   5.552   7.440  1.7362  1.3535 -1.1679
16172SOL     OW60988   1.041   3.079   8.318  0.0492 -0.4811 -0.6038
16172SOL    HW160989   0.987   3.072   8.402 -0.8886 -0.2157 -1.1749
16172SOL    HW260990   1.138   3.091   8.341 -0.0962 -1.2755  0.4262
16173SOL     OW60991   7.422   1.157   0.109 -0.2038 -0.2536  0.2614
16173SOL    HW160992   7.371   1.079   0.073  1.4063 -0.7391 -1.0092
16173SOL    HW260993   7.427   1.229   0.040  1.1263 -0.3547  0.2404
16174SOL     OW60994   6.705   0.122   2.398  0.1295  0.0642  0.4979
16174SOL    HW160995   6.788   0.179   2.398  1.2173 -1.4765  1.9796
16174SOL    HW260996   6.669   0.115   2.491  0.3608 -2.1311  0.4562
16175SOL     OW60997   6.675   6.771   0.456 -0.0422 -0.4840  0.2335
16175SOL    HW160998   6.741   6.795   0.384 -1.5030 -0.9495 -1.2806
16175SOL    HW260999   6.722   6.770   0.545  1.4640  1.5432 -0.4996
16176SOL     OW61000   0.950   6.831   1.533  0.1955  0.1491  0.1729
16176SOL    HW161001   0.855   6.864   1.529  0.2357  0.2860  0.3567
16176SOL    HW261002   0.995   6.848   1.445  0.0715  0.1486  0.1088
16177SOL     OW61003   2.368   0.209   2.550 -0.4251  0.1532  0.3164
16177SOL    HW161004   2.399   0.144   2.480 -0.6927 -1.0694  1.3268
16177SOL    HW261005   2.304   0.274   2.508 -1.0291 -0.9250 -0.4539
16178SOL     OW61006   2.306   4.331   3.430  0.0734 -0.2296  0.6511
16178SOL    HW161007   2.367   4.368   3.360  1.3866  0.1116  1.9610
16178SOL    HW261008   2.278   4.239   3.404  2.0536 -0.8294  0.5775
16179SOL     OW61009   8.705   5.887   8.524  0.5840  0.2004  0.0773
16179SOL    HW161010   8.619   5.836   8.516  0.1629  0.6129  1.6835
16179SOL    HW261011   8.776   5.827   8.560  0.3885  0.4194  0.8499
16180SOL     OW61012   3.181   1.550   4.669  0.2406  0.1038  0.2589
16180SOL    HW161013   3.266   1.501   4.649 -0.1293 -0.2565 -0.4265
16180SOL    HW261014   3.127   1.498   4.736  0.0847 -0.1745 -0.0826
16181SOL     OW61015   1.801   3.362   8.191 -0.2856  0.7726 -0.3876
16181SOL    HW161016   1.877   3.389   8.250  0.4337  0.0027 -0.9404
16181SOL    HW261017   1.807   3.411   8.104 -1.4762  2.0807  0.2653
16182SOL     OW61018   0.873   2.252   6.850 -0.1391 -0.7355  0.6160
16182SOL    HW161019   0.900   2.227   6.943 -0.0520 -1.2430  0.4585
16182SOL    HW261020   0.861   2.169   6.796  0.2305 -0.4226  0.0553
16183SOL     OW61021   6.674   5.767   8.273 -0.1049 -0.1829  0.3037
16183SOL    HW161022   6.613   5.827   8.325 -0.0628 -0.6995  0.9585
16183SOL    HW261023   6.766   5.773   8.310  0.2743  0.6495 -0.7330
16184SOL     OW61024   3.808   8.531   1.656  0.1328  0.5650  0.0146
16184SOL    HW161025   3.819   8.566   1.563  0.4497 -0.8357 -0.4858
16184SOL    HW261026   3.887   8.474   1.679  0.7057  1.9593  1.6288
16185SOL     OW61027   2.531   1.269   0.520  0.0227 -0.1947 -0.0473
16185SOL    HW161028   2.557   1.202   0.589 -0.5754 -0.7192 -0.3270
16185SOL    HW261029   2.454   1.234   0.467 -1.1291  1.2415  0.6454
16186SOL     OW61030   7.485   1.834   8.075  0.1689  0.0687  0.4657
16186SOL    HW161031   7.409   1.888   8.111 -0.0208  1.1928 -1.5445
16186SOL    HW261032   7.457   1.739   8.063 -2.7206  1.3999 -5.1386
16187SOL     OW61033   3.217   7.130   4.357 -0.2619 -0.1851 -0.0960
16187SOL    HW161034   3.239   7.190   4.280  0.3285  0.7270  0.7644
16187SOL    HW261035   3.156   7.178   4.420  0.3245 -0.4361  0.6694
16188SOL     OW61036   4.198   5.265   1.246  0.3470  1.0888 -0.0773
16188SOL    HW161037   4.289   5.308   1.240 -0.0706  1.7283 -2.6578
16188SOL    HW261038   4.128   5.334   1.226 -0.5032 -0.1049 -1.3163
16189SOL     OW61039   5.665   5.829   4.540  0.6647 -0.1563  0.4715
16189SOL    HW161040   5.609   5.844   4.622  2.5577  2.9666  1.2848
16189SOL    HW261041   5.630   5.883   4.464  1.7791  0.7880  0.6157
16190SOL     OW61042   2.071   6.407   7.678  0.1507  0.4259 -0.2119
16190SOL    HW161043   2.166   6.436   7.665 -0.1271  2.8847  2.7004
16190SOL    HW261044   2.069   6.322   7.731  0.7199  0.2958 -0.3899
16191SOL     OW61045   4.839   3.901   4.873  0.4895 -0.2090 -0.6842
16191SOL    HW161046   4.864   3.912   4.970 -0.4064 -1.1943 -0.3342
16191SOL    HW261047   4.885   3.821   4.836 -0.6327 -0.9245 -0.5553
16192SOL     OW61048   6.191   6.249   2.803 -0.4361  0.4528  0.2457
16192SOL    HW161049   6.116   6.294   2.852 -0.4859  2.1918 -1.3757
16192SOL    HW261050   6.214   6.302   2.721  1.8605 -0.6374  0.1525
16193SOL     OW61051   3.881   3.122   2.692 -0.4135 -0.4140 -0.4814
16193SOL    HW161052   3.930   3.192   2.640 -1.1758 -0.2677 -1.0073
16193SOL    HW261053   3.842   3.163   2.775 -0.8779 -0.2111 -0.8008
16194SOL     OW61054   0.778   4.747   6.394 -0.3772 -0.7604 -0.1107
16194SOL    HW161055   0.865   4.743   6.443 -0.9538  0.1726  1.0065
16194SOL    HW261056   0.786   4.696   6.308  1.1766 -0.9374  0.1229
16195SOL     OW61057   3.556   0.375   8.608  0.5647 -0.0574  0.3274
16195SOL    HW161058   3.566   0.335   8.517 -3.6546 -0.7809  0.1141
16195SOL    HW261059   3.578   0.307   8.678  1.0746 -0.3480 -0.1154
16196SOL     OW61060   8.524   3.763   5.710 -0.6398  0.4216  0.1198
16196SOL    HW161061   8.583   3.777   5.630  0.1350  3.3921  1.1552
16196SOL    HW261062   8.430   3.749   5.679 -0.2998  1.1912 -1.3225
16197SOL     OW61063   7.484   5.446   7.604  0.5403 -0.0056 -0.1143
16197SOL    HW161064   7.439   5.358   7.613  0.2920  0.1065 -0.2798
16197SOL    HW261065   7.447   5.495   7.525 -0.0106  0.6585  0.5489
16198SOL     OW61066   8.935   3.629   7.598  0.3094  0.0968  0.2360
16198SOL    HW161067   8.885   3.627   7.685  0.4901 -0.5942  0.3224
16198SOL    HW261068   8.872   3.612   7.523  0.0392  1.3223  0.1792
16199SOL     OW61069   7.928   2.784   5.814 -0.8936 -1.1940  0.3842
16199SOL    HW161070   8.011   2.819   5.856 -0.0271 -0.4902 -1.8477
16199SOL    HW261071   7.848   2.831   5.852 -0.1854 -0.8829  1.5075
16200SOL     OW61072   8.315   6.902   6.439  0.9459 -0.4609  0.4165
16200SOL    HW161073   8.271   6.978   6.391  1.6884  0.4566  1.1578
16200SOL    HW261074   8.309   6.819   6.383  0.2437  0.1734 -0.4630
16201SOL     OW61075   2.471   8.259   8.784  0.7329  0.4127 -0.4033
16201SOL    HW161076   2.436   8.201   8.710 -0.6964  1.4712 -0.5801
16201SOL    HW261077   2.397   8.281   8.847  1.7355  0.3182  0.8307
16202SOL     OW61078   6.113   3.847   1.239  0.8080  0.1607 -0.1042
16202SOL    HW161079   6.191   3.901   1.209  2.3192 -1.9106  0.0124
16202SOL    HW261080   6.135   3.750   1.234 -2.4106 -0.5552 -1.8487
16203SOL     OW61081   1.644   6.263   6.062 -0.6455  0.5776  0.7640
16203SOL    HW161082   1.729   6.243   6.111 -0.9604 -1.6156  0.4893
16203SOL    HW261083   1.664   6.318   5.981  0.3829  0.8861  1.2195
16204SOL     OW61084   7.631   3.865   2.289 -0.2213  0.5542 -0.3103
16204SOL    HW161085   7.586   3.776   2.290 -1.7640  1.3092  1.3967
16204SOL    HW261086   7.721   3.857   2.247  0.4280 -2.1840  1.4863
16205SOL     OW61087   7.154   3.889   0.509  0.3841 -0.5480  0.4390
16205SOL    HW161088   7.106   3.865   0.593 -1.7939  0.5623 -0.4459
16205SOL    HW261089   7.245   3.924   0.531 -0.8917  1.6071  2.4976
16206SOL     OW61090   2.190   0.966   0.222 -0.6478  0.4540 -0.0500
16206SOL    HW161091   2.091   0.950   0.230 -0.7035  0.0136 -1.4501
16206SOL    HW261092   2.239   0.894   0.271 -1.0191  1.5057  1.9333
16207SOL     OW61093   4.428   1.014   1.154  0.2317  0.2970  0.3645
16207SOL    HW161094   4.465   1.077   1.086  1.2673  1.2793  1.7957
16207SOL    HW261095   4.458   1.043   1.245 -3.4729  0.7005  1.5169
16208SOL     OW61096   6.681   6.316   8.695  0.5485 -0.3952  0.3969
16208SOL    HW161097   6.679   6.386   8.624 -0.0019  0.5385  1.3137
16208SOL    HW261098   6.770   6.317   8.739  1.5388 -2.2561 -1.5238
16209SOL     OW61099   7.624   6.037   4.686 -0.1859 -0.4023  0.0683
16209SOL    HW161100   7.612   5.938   4.690  0.1972 -0.5214 -1.7181
16209SOL    HW261101   7.702   6.060   4.629  0.6398  0.8870  1.6786
16210SOL     OW61102   4.618   0.545   0.823 -0.0978  0.0358 -0.0492
16210SOL    HW161103   4.609   0.448   0.800  0.0539  0.1373 -0.5392
16210SOL    HW261104   4.636   0.597   0.739  1.3674  0.2987  0.4267
16211SOL     OW61105   8.360   7.267   2.839 -0.0676  0.8767  0.2155
16211SOL    HW161106   8.362   7.212   2.923 -0.9148 -2.0523 -1.6053
16211SOL    HW261107   8.453   7.289   2.811  0.2777  0.5815  1.1121
16212SOL     OW61108   2.488   1.457   6.976 -0.1304 -0.0753 -0.2190
16212SOL    HW161109   2.434   1.529   6.932 -0.2867 -0.2154 -0.2561
16212SOL    HW261110   2.566   1.498   7.022 -0.4229  0.1574  0.0718
16213SOL     OW61111   4.267   7.744   6.028 -0.0628  0.2209  0.5044
16213SOL    HW161112   4.288   7.832   5.984  1.8770 -1.1483 -1.4393
16213SOL    HW261113   4.210   7.689   5.966 -0.2851 -0.3481  1.2174
16214SOL     OW61114   4.464   5.616   2.505  0.0691 -0.4866 -0.5848
16214SOL    HW161115   4.436   5.681   2.575  1.6784 -1.7334  1.2781
16214SOL    HW261116   4.391   5.550   2.489  0.6449 -1.7770  1.8759
16215SOL     OW61117   4.639   2.268   0.788 -0.1149 -0.6164  0.3733
16215SOL    HW161118   4.688   2.203   0.729 -1.9018 -0.3087 -1.4982
16215SOL    HW261119   4.546   2.235   0.804 -0.8996  1.2649 -0.2338
16216SOL     OW61120   4.675   0.318   5.313  0.0055 -0.0563 -0.2726
16216SOL    HW161121   4.586   0.290   5.277  0.9293  1.0786 -3.6405
16216SOL    HW261122   4.688   0.416   5.298  1.2754  0.0538  1.4085
16217SOL     OW61123   4.420   5.334   6.906  0.4967  0.0866 -0.6509
16217SOL    HW161124   4.513   5.340   6.942  0.6505 -0.4563 -0.9387
16217SOL    HW261125   4.417   5.375   6.815 -0.0551  2.1108  0.2585
16218SOL     OW61126   3.706   7.965   6.538 -0.5926  0.0894 -0.4367
16218SOL    HW161127   3.620   7.973   6.489 -0.8636 -1.9176 -0.3263
16218SOL    HW261128   3.755   7.884   6.506  0.9120  0.7873  0.0427
16219SOL     OW61129   5.441   1.834   0.875  0.5285 -0.7197  0.1185
16219SOL    HW161130   5.533   1.797   0.887  1.0253  0.7414  0.9085
16219SOL    HW261131   5.425   1.907   0.941 -0.0515  1.1832 -2.0784
16220SOL     OW61132   2.402   1.942   8.121  0.0704  0.3056 -0.3200
16220SOL    HW161133   2.376   2.037   8.138  0.5660  0.5704 -1.0067
16220SOL    HW261134   2.391   1.888   8.204  2.5243  1.5683  0.8541
16221SOL     OW61135   8.343   6.875   4.208 -0.0557  0.6992 -0.1554
16221SOL    HW161136   8.309   6.814   4.280 -1.1785  0.6768 -0.7035
16221SOL    HW261137   8.311   6.843   4.119  1.1867  0.8266 -0.6589
16222SOL     OW61138   7.371   7.304   8.192  0.4646 -0.8132 -0.1852
16222SOL    HW161139   7.279   7.299   8.152 -0.0688 -0.0490  0.9131
16222SOL    HW261140   7.435   7.338   8.123 -0.1443 -0.9784 -0.8464
16223SOL     OW61141   2.161   5.400   4.704 -0.0894 -0.1883 -0.1534
16223SOL    HW161142   2.163   5.444   4.794  0.6991 -0.6969  0.0829
16223SOL    HW261143   2.240   5.340   4.695  0.4982  0.7817 -1.6520
16224SOL     OW61144   8.361   0.505   7.064  0.0230  0.1463  0.2153
16224SOL    HW161145   8.320   0.447   7.134 -0.8471 -0.7910 -1.0623
16224SOL    HW261146   8.289   0.552   7.013  0.6736  1.2945  0.3289
16225SOL     OW61147   6.240   6.604   4.274  0.5090 -0.4660 -0.5197
16225SOL    HW161148   6.188   6.635   4.353 -0.9654 -0.4874 -1.4519
16225SOL    HW261149   6.213   6.510   4.251  1.5944 -0.7888 -0.4958
16226SOL     OW61150   0.550   5.477   5.135 -0.4213 -0.6995  0.4353
16226SOL    HW161151   0.626   5.412   5.142 -0.1611 -0.3518  0.8203
16226SOL    HW261152   0.583   5.569   5.156 -0.2765 -0.0952 -2.2426
16227SOL     OW61153   1.498   5.358   0.254  1.0624  0.6822 -0.3155
16227SOL    HW161154   1.567   5.381   0.185  0.3332 -0.7574 -1.5557
16227SOL    HW261155   1.438   5.286   0.218  0.0281  0.6499  1.4376
16228SOL     OW61156   5.214   3.606   7.648  0.5321  0.1499  0.2620
16228SOL    HW161157   5.299   3.660   7.655  0.2674  0.6499 -0.3225
16228SOL    HW261158   5.229   3.529   7.586  0.6089  0.1374  0.2949
16229SOL     OW61159   2.681   3.385   1.629 -0.5075  0.1969 -0.6378
16229SOL    HW161160   2.778   3.398   1.645 -0.9214 -0.0099  2.2628
16229SOL    HW261161   2.648   3.305   1.679 -2.0203 -0.2166 -2.2230
16230SOL     OW61162   6.855   3.995   6.373  0.0167  0.4338  0.4585
16230SOL    HW161163   6.810   3.947   6.449 -1.0685  1.1534  0.2751
16230SOL    HW261164   6.952   4.005   6.393 -0.0699 -0.2968  1.2840
16231SOL     OW61165   1.219   2.895   3.654 -0.3130 -0.0546 -0.5570
16231SOL    HW161166   1.211   2.903   3.555  1.4865 -1.9465 -0.9069
16231SOL    HW261167   1.268   2.974   3.691  0.4019 -0.0958 -1.4002
16232SOL     OW61168   6.278   3.461   1.923 -0.0364 -0.4016 -0.2345
16232SOL    HW161169   6.348   3.400   1.886  0.3374  0.2153 -0.5464
16232SOL    HW261170   6.194   3.451   1.869  0.4274  0.3077 -1.0964
16233SOL     OW61171   4.413   6.010   6.186 -0.0767  0.1174 -0.0264
16233SOL    HW161172   4.393   6.057   6.272 -0.1005  1.0295 -0.5213
16233SOL    HW261173   4.496   6.048   6.145 -1.0602  0.9487 -1.2970
16234SOL     OW61174   4.320   3.071   7.899 -0.0456 -0.2938  0.4707
16234SOL    HW161175   4.345   3.160   7.937  0.1728 -0.6131  1.0661
16234SOL    HW261176   4.349   3.066   7.803 -0.2010  0.3337  0.3894
16235SOL     OW61177   5.544   4.507   8.216 -0.0008 -0.5298 -0.2779
16235SOL    HW161178   5.628   4.461   8.188  0.3003  0.3550 -0.8713
16235SOL    HW261179   5.473   4.439   8.236  0.2920 -1.2406 -1.5829
16236SOL     OW61180   3.944   4.938   2.059 -0.0289  0.2056 -0.2235
16236SOL    HW161181   4.004   4.871   2.015 -2.2811 -1.8002 -0.3727
16236SOL    HW261182   3.926   5.013   1.996 -0.7327 -1.0979 -1.6064
16237SOL     OW61183   2.463   1.672   6.229  0.0856  0.5187  0.0621
16237SOL    HW161184   2.410   1.635   6.153 -0.0143 -0.7801  0.7593
16237SOL    HW261185   2.498   1.762   6.204  0.2994 -0.0165 -1.6355
16238SOL     OW61186   6.570   6.417   6.008 -0.0054  0.4340 -0.0692
16238SOL    HW161187   6.569   6.502   5.956  0.9683  0.2357 -0.4195
16238SOL    HW261188   6.664   6.390   6.026 -0.2401 -1.7950 -1.9721
16239SOL     OW61189   3.810   7.617   2.095 -0.1973  0.1139  0.0982
16239SOL    HW161190   3.791   7.542   2.031  0.1480  1.5482 -1.6973
16239SOL    HW261191   3.807   7.581   2.188 -0.6240 -2.0229 -0.6970
16240SOL     OW61192   3.772   4.044   1.560 -0.4174  0.2986  0.4241
16240SOL    HW161193   3.791   4.090   1.647  0.7867  2.2101 -0.8037
16240SOL    HW261194   3.677   4.061   1.534 -0.0845  1.7992  0.1623
16241SOL     OW61195   0.812   2.592   7.187  0.3820 -0.7433  0.7370
16241SOL    HW161196   0.765   2.547   7.111  0.8631 -1.0484  0.6207
16241SOL    HW261197   0.756   2.669   7.219  0.3383 -0.4044 -0.1417
16242SOL     OW61198   2.113   5.348   3.994  0.1247  0.0875  0.2295
16242SOL    HW161199   2.207   5.319   3.973  0.0063 -0.2329  0.1348
16242SOL    HW261200   2.052   5.269   3.987 -0.1836  0.3390  0.0854
16243SOL     OW61201   4.301   0.397   3.508  0.0789  0.3157 -0.1817
16243SOL    HW161202   4.361   0.451   3.449 -0.2587 -0.1029 -0.9077
16243SOL    HW261203   4.227   0.454   3.542 -2.3758 -0.4943 -3.8443
16244SOL     OW61204   0.243   7.162   4.932 -0.3452 -0.1041 -0.1328
16244SOL    HW161205   0.319   7.141   4.994  1.1476  1.1337 -1.5076
16244SOL    HW261206   0.182   7.083   4.927  2.1874 -2.0741 -0.9116
16245SOL     OW61207   8.342   0.479   6.354  0.6173  0.3333 -0.2805
16245SOL    HW161208   8.337   0.568   6.400  0.2341  0.0505  0.2334
16245SOL    HW261209   8.435   0.465   6.318  0.7665  0.8020 -0.0828
16246SOL     OW61210   1.943   2.236   5.773 -0.5240  0.1203  0.2246
16246SOL    HW161211   1.888   2.313   5.739 -1.1660 -0.6080 -0.4160
16246SOL    HW261212   1.882   2.161   5.799  0.1323 -0.4034  0.2491
16247SOL     OW61213   6.270   4.192   7.813 -0.0552  0.0443 -0.7281
16247SOL    HW161214   6.338   4.120   7.829  0.2037  0.5751  0.6248
16247SOL    HW261215   6.306   4.279   7.845 -0.7233  0.6276 -1.5471
16248SOL     OW61216   4.071   6.870   7.957 -0.1562 -0.6810  0.3186
16248SOL    HW161217   4.044   6.943   7.894 -1.7059 -0.8345  0.7680
16248SOL    HW261218   4.150   6.899   8.011  0.2955 -0.0045 -0.7012
16249SOL     OW61219   0.677   7.716   4.220 -0.0552 -0.1936 -0.4842
16249SOL    HW161220   0.770   7.679   4.219  0.9830  2.2846  0.4490
16249SOL    HW261221   0.653   7.749   4.128  0.0987 -0.5563 -0.6535
16250SOL     OW61222   6.737   7.670   6.018  0.6558  0.1166  0.8351
16250SOL    HW161223   6.739   7.598   6.087  1.2513 -0.8748 -0.2026
16250SOL    HW261224   6.824   7.720   6.020  0.1209  1.0258  1.7714
16251SOL     OW61225   0.481   0.028   5.051 -0.4203  0.0905 -0.7858
16251SOL    HW161226   0.514  -0.035   4.981 -1.2386  0.2334 -1.3086
16251SOL    HW261227   0.540   0.109   5.053  0.5285 -0.6029 -0.2321
16252SOL     OW61228   7.464   0.009   1.356 -0.5079  0.5116  0.7317
16252SOL    HW161229   7.380   0.040   1.400 -0.1254 -0.8309  2.4671
16252SOL    HW261230   7.538   0.074   1.373 -0.8657  1.0171  0.3434
16253SOL     OW61231   1.102   4.353   7.108  0.3368 -0.5820  0.2958
16253SOL    HW161232   1.135   4.438   7.150 -0.0386 -0.9312  1.2973
16253SOL    HW261233   1.066   4.374   7.016 -0.0378  0.3986  0.6545
16254SOL     OW61234   6.295   6.816   5.372 -0.4476  0.5262 -0.1983
16254SOL    HW161235   6.264   6.765   5.292 -0.4779 -2.8213  1.8557
16254SOL    HW261236   6.395   6.811   5.378 -0.5295 -0.2543  0.6133
16255SOL     OW61237   7.574   3.674   1.959  0.4794  0.0702  0.2417
16255SOL    HW161238   7.597   3.769   1.981 -0.0857  0.3036 -0.1694
16255SOL    HW261239   7.652   3.631   1.913 -0.0697  1.0280 -1.6696
16256SOL     OW61240   2.724   4.307   7.365 -0.3044  0.1238  0.1073
16256SOL    HW161241   2.743   4.288   7.461  0.5808 -3.0988 -0.6501
16256SOL    HW261242   2.672   4.392   7.357 -0.8758  0.1278  3.4666
16257SOL     OW61243   0.836   0.682   8.761 -0.2141 -0.0946  0.1992
16257SOL    HW161244   0.867   0.775   8.778  0.6061 -0.3312  0.0317
16257SOL    HW261245   0.759   0.683   8.697 -1.4943  0.5987  1.7196
16258SOL     OW61246   2.505   0.793   0.995 -0.1718 -0.1670 -0.3154
16258SOL    HW161247   2.517   0.762   0.901  5.5221  1.6673 -0.3876
16258SOL    HW261248   2.558   0.876   1.010 -2.7932  0.9020  3.9379
16259SOL     OW61249   6.791   8.991   7.667  0.0992  0.6798 -0.5740
16259SOL    HW161250   6.694   8.980   7.644  0.4142 -0.7692 -1.2812
16259SOL    HW261251   6.802   9.068   7.730 -1.4583  1.1220 -0.8247
16260SOL     OW61252   5.452   7.230   7.248 -0.5220 -0.0689 -0.4120
16260SOL    HW161253   5.538   7.238   7.198 -0.4158 -0.8912 -0.3643
16260SOL    HW261254   5.381   7.284   7.203  0.0462  0.6989 -0.3876
16261SOL     OW61255   2.541   4.884   3.018 -0.1411 -0.1037 -0.4333
16261SOL    HW161256   2.625   4.841   3.051 -1.0879 -1.6552  0.0075
16261SOL    HW261257   2.527   4.860   2.921 -1.7570 -2.6004  0.3677
16262SOL     OW61258   3.690   0.567   5.893  0.4496  0.6097  0.1931
16262SOL    HW161259   3.601   0.613   5.904  0.1331 -0.4301  2.4225
16262SOL    HW261260   3.696   0.526   5.802 -1.2314  0.9621 -0.0952
16263SOL     OW61261   7.101   1.126   0.811  0.2779  0.0003  0.1722
16263SOL    HW161262   7.091   1.060   0.736 -2.0092  0.0635  0.3784
16263SOL    HW261263   7.060   1.213   0.785  1.2315  0.6376  0.7695
16264SOL     OW61264   1.243   7.221   3.015 -0.2870  0.1417 -0.4947
16264SOL    HW161265   1.313   7.280   3.054  0.1307 -0.1911 -0.7269
16264SOL    HW261266   1.206   7.264   2.933  1.1307 -0.6035 -1.5626
16265SOL     OW61267   1.003   1.588   7.608  0.7150  0.0115 -0.9547
16265SOL    HW161268   1.072   1.543   7.551  1.1775  0.7676 -0.9987
16265SOL    HW261269   1.008   1.553   7.701  0.9337 -0.1769 -1.0359
16266SOL     OW61270   3.068   7.725   4.899  0.2616  0.0611  0.0199
16266SOL    HW161271   3.104   7.818   4.901 -1.8950  0.9134  0.3288
16266SOL    HW261272   3.050   7.697   4.805 -0.4494  0.5039  0.0223
16267SOL     OW61273   3.752   5.926   2.423 -0.3450  0.1978  0.1835
16267SOL    HW161274   3.688   5.997   2.397  1.4379  1.2939 -1.3325
16267SOL    HW261275   3.845   5.964   2.428  0.7574 -2.1341 -1.3507
16268SOL     OW61276   2.996   7.933   1.767  0.5197  0.1091 -0.5150
16268SOL    HW161277   3.049   8.016   1.750 -0.7117  1.1174  0.4585
16268SOL    HW261278   3.054   7.866   1.815  0.6041  1.6280  1.5684
16269SOL     OW61279   4.536   1.295   5.467 -0.4328 -0.2503  0.7169
16269SOL    HW161280   4.572   1.203   5.447  0.6498  0.6898 -1.9256
16269SOL    HW261281   4.611   1.360   5.471 -1.2902  0.6930  1.6128
16270SOL     OW61282   6.057   4.324   2.469 -0.0201  0.8296 -0.2432
16270SOL    HW161283   6.117   4.252   2.433 -0.7860  0.2150 -0.3111
16270SOL    HW261284   6.054   4.400   2.404  0.8763  0.9650 -0.1234
16271SOL     OW61285   4.210   4.005   8.205 -0.1221  0.3000 -0.2112
16271SOL    HW161286   4.177   3.920   8.163 -0.0110  0.1145  0.0785
16271SOL    HW261287   4.290   3.986   8.262 -0.6174  0.4511  0.5502
16272SOL     OW61288   4.035   3.796   6.481  0.1320 -0.3720 -0.2426
16272SOL    HW161289   4.102   3.869   6.498 -0.9938  0.8012 -0.7797
16272SOL    HW261290   4.019   3.787   6.383 -2.2984  1.0253 -0.0130
16273SOL     OW61291   7.140   6.688   3.238 -0.3065 -0.3561  0.1056
16273SOL    HW161292   7.148   6.744   3.156  0.0462  1.5200  1.4016
16273SOL    HW261293   7.063   6.718   3.292 -0.3412 -1.3846  0.6432
16274SOL     OW61294   7.538   3.061   8.853  0.4963 -0.1388  0.4838
16274SOL    HW161295   7.453   3.009   8.846 -0.6551  1.4497  2.2471
16274SOL    HW261296   7.552   3.114   8.769 -0.2662 -0.4098  0.1833
16275SOL     OW61297   1.148   4.620   5.497  0.2192  0.2993  0.0010
16275SOL    HW161298   1.141   4.542   5.435 -0.2027  1.4694 -1.4472
16275SOL    HW261299   1.184   4.699   5.447  1.6422  0.7448  1.7095
16276SOL     OW61300   1.589   6.723   6.034  0.1541 -0.3732 -0.3633
16276SOL    HW161301   1.553   6.765   5.951 -0.2370 -0.6364 -0.3305
16276SOL    HW261302   1.556   6.629   6.041  0.5538 -0.5001 -0.1418
16277SOL     OW61303   2.871   3.669   1.551 -0.0067 -0.0110  0.0272
16277SOL    HW161304   2.922   3.755   1.541  0.6388 -0.2874  0.8894
16277SOL    HW261305   2.888   3.611   1.471  0.8142  0.0092  0.1837
16278SOL     OW61306   7.318   6.841   7.261 -0.4107 -0.0454 -0.4045
16278SOL    HW161307   7.288   6.916   7.202 -1.5185  0.1013  0.3148
16278SOL    HW261308   7.244   6.774   7.270 -0.9932  0.8780  2.3005
16279SOL     OW61309   3.339   7.729   1.227  0.1310  0.0516  0.2302
16279SOL    HW161310   3.283   7.689   1.155  1.0018 -0.5509 -0.1224
16279SOL    HW261311   3.323   7.681   1.313 -0.9639  0.8202  0.4707
16280SOL     OW61312   0.787   1.239   7.595 -0.3156 -0.7824  0.1537
16280SOL    HW161313   0.795   1.287   7.682  1.5612 -1.3026  0.3044
16280SOL    HW261314   0.698   1.194   7.589 -0.9803  0.3678  1.2125
16281SOL     OW61315   6.615   2.892   0.950  0.1214 -0.0064 -0.4679
16281SOL    HW161316   6.611   2.960   1.023  1.1700  0.6974 -1.0602
16281SOL    HW261317   6.522   2.869   0.920 -0.2524  0.8140  0.0520
16282SOL     OW61318   5.931   6.457   3.850 -0.0179 -0.3231 -0.3304
16282SOL    HW161319   6.030   6.444   3.852  0.2458  1.4535 -1.1306
16282SOL    HW261320   5.908   6.540   3.900 -0.8972  0.3983 -1.8966
16283SOL     OW61321   7.946   5.061   5.455  0.1440  0.0509 -0.5243
16283SOL    HW161322   7.932   5.126   5.381  1.9931 -0.0763 -1.0179
16283SOL    HW261323   8.030   5.085   5.505  0.0250 -1.0672  0.2283
16284SOL     OW61324   5.409   0.649   8.315 -0.1715  0.0136  0.0475
16284SOL    HW161325   5.349   0.727   8.329  0.5492  0.3636  1.3195
16284SOL    HW261326   5.503   0.674   8.340  0.0867 -1.2149  0.3530
16285SOL     OW61327   2.126   0.221   1.628  0.1893  0.3000 -0.4570
16285SOL    HW161328   2.171   0.218   1.539  0.1072  0.1339 -0.4930
16285SOL    HW261329   2.182   0.274   1.692  0.4158  0.1311 -0.5144
16286SOL     OW61330   8.142   1.276   3.642  0.0008 -0.1796 -0.1252
16286SOL    HW161331   8.136   1.277   3.543  0.2847  1.8893 -0.1358
16286SOL    HW261332   8.065   1.223   3.679 -1.4536  1.0317 -1.3653
16287SOL     OW61333   7.173   2.096   1.312  0.0832  0.1195 -0.5478
16287SOL    HW161334   7.242   2.150   1.264  0.7150 -1.7957 -1.8557
16287SOL    HW261335   7.092   2.088   1.254 -1.5084  2.7992  1.1908
16288SOL     OW61336   2.686   4.362   1.354 -0.4835  0.5719  0.6204
16288SOL    HW161337   2.685   4.389   1.450  1.2932 -0.8876  1.0835
16288SOL    HW261338   2.633   4.278   1.343  0.5205 -0.0614  0.5888
16289SOL     OW61339   3.402   5.080   3.121  1.0810  0.1653  0.2343
16289SOL    HW161340   3.388   5.176   3.097  3.2713  0.8026  1.3365
16289SOL    HW261341   3.327   5.048   3.178 -0.3564  0.8201 -1.2707
16290SOL     OW61342   1.900   6.705   5.330 -0.0768  0.0990 -0.4509
16290SOL    HW161343   1.973   6.727   5.264  0.3643 -0.1278 -0.0386
16290SOL    HW261344   1.816   6.683   5.280  0.5472 -1.1293 -0.9718
16291SOL     OW61345   7.891   3.896   0.996  0.2206 -0.4084  0.0858
16291SOL    HW161346   7.832   3.857   0.927  1.2248  0.8648 -1.5355
16291SOL    HW261347   7.979   3.849   0.996 -0.0770 -0.9792  1.1092
16292SOL     OW61348   4.616   3.690   6.369  0.4586  0.1600  0.1246
16292SOL    HW161349   4.530   3.682   6.318 -0.0987 -0.3346  1.1265
16292SOL    HW261350   4.683   3.627   6.332 -0.0833 -0.5165  0.2916
16293SOL     OW61351   5.387   6.378   6.459 -0.2626 -0.6335 -0.1216
16293SOL    HW161352   5.430   6.300   6.413  0.6385 -1.8522  2.6575
16293SOL    HW261353   5.428   6.463   6.424  3.1295 -1.6799  1.0689
16294SOL     OW61354   3.476   1.278   2.919  0.4334 -0.6420  0.2258
16294SOL    HW161355   3.565   1.314   2.946  1.0136 -2.7491  1.1906
16294SOL    HW261356   3.481   1.243   2.825  0.8293 -1.5123  0.5778
16295SOL     OW61357   4.107   7.798   2.744 -0.1773 -0.2784  0.0272
16295SOL    HW161358   4.153   7.829   2.661 -2.0586  0.1789 -0.8643
16295SOL    HW261359   4.095   7.876   2.806 -2.1136  0.1767 -0.8860
16296SOL     OW61360   1.270   2.230   3.270 -0.5379 -0.5070 -0.2171
16296SOL    HW161361   1.187   2.285   3.274 -0.7271 -0.5981 -2.3498
16296SOL    HW261362   1.349   2.288   3.251 -0.3463 -0.6294  0.1934
16297SOL     OW61363   0.751   5.515   2.433 -0.8241  0.4903  0.1713
16297SOL    HW161364   0.734   5.556   2.523  3.3997  0.3958  1.1444
16297SOL    HW261365   0.710   5.425   2.429 -3.0014  1.4023  1.1560
16298SOL     OW61366   4.707   4.106   7.857 -0.5846  0.4205 -0.1898
16298SOL    HW161367   4.799   4.088   7.891 -0.2306 -0.5064 -1.6149
16298SOL    HW261368   4.662   4.172   7.918  0.3683 -0.4482  1.5037
16299SOL     OW61369   2.387   1.563   6.727 -0.0633  0.1257 -0.0967
16299SOL    HW161370   2.476   1.586   6.689  0.8593 -1.2103  1.2046
16299SOL    HW261371   2.333   1.515   6.658  0.7707 -0.3450 -0.4238
16300SOL     OW61372   1.185   4.459   1.387 -0.3547  0.2033 -0.3328
16300SOL    HW161373   1.147   4.402   1.460 -1.3543 -0.0162 -1.0238
16300SOL    HW261374   1.128   4.540   1.375  0.0747  0.4729 -0.5513
16301SOL     OW61375   7.573   6.738   5.238 -0.2283 -0.1400  0.0442
16301SOL    HW161376   7.528   6.827   5.242  0.9049  0.5042 -1.0531
16301SOL    HW261377   7.569   6.703   5.145  1.8475  0.1200 -0.1765
16302SOL     OW61378   0.807   4.565   6.176  0.4090  0.3419  0.2276
16302SOL    HW161379   0.778   4.473   6.147  1.5429  0.4499 -1.3158
16302SOL    HW261380   0.906   4.574   6.164  0.7121  0.8801  2.9110
16303SOL     OW61381   8.697   6.470   4.116 -0.3308 -0.3054  0.0689
16303SOL    HW161382   8.733   6.419   4.194  0.2975 -0.1283 -0.0983
16303SOL    HW261383   8.750   6.447   4.034 -0.2498  0.3588 -0.0724
16304SOL     OW61384   7.171   5.250   3.172  0.1737  0.1009 -0.0579
16304SOL    HW161385   7.195   5.342   3.141  0.3319  0.7233  1.8628
16304SOL    HW261386   7.226   5.183   3.121 -0.9460  0.9452 -2.4707
16305SOL     OW61387   0.464   3.946   7.750 -0.1187 -0.2545  0.8479
16305SOL    HW161388   0.495   3.911   7.662 -2.9264 -1.0531  0.1154
16305SOL    HW261389   0.528   4.016   7.783  2.4059 -1.8462 -0.5100
16306SOL     OW61390   2.825   7.797   7.190  0.3067 -0.2018  0.4108
16306SOL    HW161391   2.912   7.808   7.238  0.2244  1.4204  0.2123
16306SOL    HW261392   2.752   7.838   7.244 -0.2456 -1.0305  0.2977
16307SOL     OW61393   3.580   3.016   0.610 -0.2173  0.2275 -0.2283
16307SOL    HW161394   3.605   2.922   0.588 -1.5710 -0.1776 -0.0808
16307SOL    HW261395   3.652   3.078   0.578  0.8265 -0.8722 -0.0624
16308SOL     OW61396   0.096   1.966   5.710 -0.9557  0.4866 -0.0979
16308SOL    HW161397   0.071   2.037   5.775 -1.4547 -0.7136  1.0466
16308SOL    HW261398   0.118   2.007   5.622  0.4337  2.1784  1.0263
16309SOL     OW61399   4.413   3.202   4.947 -0.0413  0.3525  0.4115
16309SOL    HW161400   4.444   3.283   4.898  0.1932 -0.3954 -0.6989
16309SOL    HW261401   4.328   3.169   4.907 -1.8134  1.8341  2.8350
16310SOL     OW61402   3.489   2.578   6.415  0.1034 -0.5790  0.3271
16310SOL    HW161403   3.444   2.568   6.326 -0.1362 -3.3024  0.6924
16310SOL    HW261404   3.420   2.595   6.486  0.1554  0.1862  0.1966
16311SOL     OW61405   3.101   5.856   7.531 -0.5423  0.4206 -0.2551
16311SOL    HW161406   3.084   5.777   7.473  2.0421 -0.5495  0.2624
16311SOL    HW261407   3.090   5.830   7.627  0.0835  0.7281 -0.0950
16312SOL     OW61408   7.446   6.498   4.826 -0.8610 -0.0542  0.0495
16312SOL    HW161409   7.510   6.535   4.759  0.4726  0.3603  1.5269
16312SOL    HW261410   7.371   6.452   4.779  0.0533  0.2478 -1.7204
16313SOL     OW61411   5.391   5.334   0.040 -0.6445 -0.3032 -0.0430
16313SOL    HW161412   5.371   5.392   0.120  0.0088  0.5500 -0.4896
16313SOL    HW261413   5.473   5.280   0.058  0.0741  0.6227 -0.5138
16314SOL     OW61414   7.093   3.424   1.938 -0.2555  0.0136  0.7538
16314SOL    HW161415   7.172   3.484   1.926 -0.6022  0.1883 -0.7752
16314SOL    HW261416   7.009   3.478   1.931 -0.5270 -0.2961  1.5928
16315SOL     OW61417   6.041   8.093   2.961 -0.8491 -0.2027  0.7025
16315SOL    HW161418   6.072   8.000   2.982 -0.9898  0.3240  3.4658
16315SOL    HW261419   5.982   8.125   3.035 -3.3784  0.9491 -1.7054
16316SOL     OW61420   5.082   4.095   8.588  0.3963  0.4843  0.0885
16316SOL    HW161421   5.107   4.003   8.558 -2.1009 -0.2112  0.0976
16316SOL    HW261422   5.006   4.091   8.652  0.5754  2.5269  0.4852
16317SOL     OW61423   2.982   3.144   3.804  0.1009 -0.7516 -0.6922
16317SOL    HW161424   2.939   3.126   3.716 -0.4128 -0.8194 -0.4283
16317SOL    HW261425   2.952   3.075   3.870  2.1600 -1.9999 -1.0187
16318SOL     OW61426   6.179   7.030   3.763 -0.4993  0.4215  0.6247
16318SOL    HW161427   6.134   7.118   3.779  0.1860  0.7487  0.7670
16318SOL    HW261428   6.110   6.960   3.746 -1.0103  1.1844 -0.4821
16319SOL     OW61429   1.725   6.259   7.542 -0.1523 -0.2275  0.2785
16319SOL    HW161430   1.685   6.170   7.561 -0.0477  0.1720  2.5805
16319SOL    HW261431   1.678   6.329   7.596 -1.6086  1.4387 -3.0437
16320SOL     OW61432   6.840   4.909   4.474 -0.7558 -0.3441 -0.7526
16320SOL    HW161433   6.873   5.001   4.498  0.8225 -0.9633 -0.4899
16320SOL    HW261434   6.907   4.864   4.415 -0.1583 -2.3914  1.4224
16321SOL     OW61435   3.279   6.607   3.080 -0.2657 -0.5939 -0.0783
16321SOL    HW161436   3.317   6.522   3.044  2.7740  0.1174  1.2911
16321SOL    HW261437   3.276   6.676   3.008  1.2763 -0.5890 -0.1360
16322SOL     OW61438   1.235   0.523   0.758 -0.0667 -0.2458 -0.2426
16322SOL    HW161439   1.334   0.511   0.766  0.1701 -0.1977 -2.7520
16322SOL    HW261440   1.208   0.604   0.810  0.9831 -0.9918  1.5554
16323SOL     OW61441   5.152   3.483   7.917 -0.6429  0.8181 -0.4907
16323SOL    HW161442   5.171   3.520   7.826 -0.4760 -0.7608 -1.1026
16323SOL    HW261443   5.216   3.409   7.937 -2.5206 -0.7810 -0.2776
16324SOL     OW61444   5.266   7.345   7.120  0.1918 -0.5283  0.1062
16324SOL    HW161445   5.294   7.436   7.090  1.9570 -1.2973 -0.6115
16324SOL    HW261446   5.177   7.322   7.079 -0.4064  0.9665  0.5256
16325SOL     OW61447   3.103   2.898   0.064  0.5585 -0.3514 -0.3543
16325SOL    HW161448   3.016   2.925   0.025  1.5497 -1.0124 -3.1351
16325SOL    HW261449   3.087   2.844   0.147 -1.5143  3.7826  2.0843
16326SOL     OW61450   0.041   4.463   1.935  0.2008 -0.3795  0.1357
16326SOL    HW161451   0.005   4.533   1.873  0.7392  0.3921  0.6801
16326SOL    HW261452  -0.034   4.411   1.974 -0.4576  2.1485  2.3627
16327SOL     OW61453   8.967   3.588   4.022 -0.3588  0.0853  0.2464
16327SOL    HW161454   8.950   3.550   4.113 -1.9731 -0.0015 -0.0742
16327SOL    HW261455   8.915   3.536   3.954  0.6392  0.3056 -0.6986
16328SOL     OW61456   2.100   0.733   6.261  0.1043 -0.4378 -0.5646
16328SOL    HW161457   2.194   0.701   6.275 -0.6658 -2.1163  0.9370
16328SOL    HW261458   2.046   0.713   6.342 -1.0610  2.4700 -0.5739
16329SOL     OW61459   6.601   0.148   7.919 -0.1476 -0.8280  0.4129
16329SOL    HW161460   6.606   0.213   7.843  0.5922  0.3274  1.4216
16329SOL    HW261461   6.685   0.154   7.973 -0.6731 -1.6179  1.3319
16330SOL     OW61462   8.554   6.888   3.974  0.0653 -0.7998 -0.5126
16330SOL    HW161463   8.644   6.864   4.010  0.1428 -0.8168 -0.7133
16330SOL    HW261464   8.552   6.870   3.875  0.2564  0.3663 -0.7463
16331SOL     OW61465   3.012   8.069   4.682  0.3384 -0.4973  0.7714
16331SOL    HW161466   3.100   8.092   4.724  0.0422 -0.1638  1.2139
16331SOL    HW261467   3.010   8.105   4.589 -0.6927  2.6938  1.9441
16332SOL     OW61468   8.444   0.708   4.480  0.0786  0.0656  0.8477
16332SOL    HW161469   8.446   0.803   4.450 -1.6705 -0.1479 -0.0138
16332SOL    HW261470   8.508   0.654   4.425 -1.5983  0.0663 -1.1472
16333SOL     OW61471   7.315   8.644   1.685 -0.1215 -0.5116 -0.3071
16333SOL    HW161472   7.340   8.721   1.627 -0.5186 -0.6053 -0.6001
16333SOL    HW261473   7.251   8.675   1.756 -1.2499 -0.8280 -1.1793
16334SOL     OW61474   7.717   8.791   6.077  0.2836  0.4129 -0.4836
16334SOL    HW161475   7.713   8.708   6.022 -0.5327  1.0888 -1.4556
16334SOL    HW261476   7.772   8.774   6.158  1.0917 -0.7478 -1.2544
16335SOL     OW61477   7.201   5.712   6.995 -0.1937 -0.3777  0.1944
16335SOL    HW161478   7.290   5.671   6.975  0.6947  1.4349  0.4234
16335SOL    HW261479   7.134   5.679   6.928  1.2062  0.1959 -1.5122
16336SOL     OW61480   2.314   1.795   2.033 -0.1731  0.6205  0.0643
16336SOL    HW161481   2.323   1.872   1.970 -2.1546 -0.6750 -1.8613
16336SOL    HW261482   2.318   1.829   2.127  1.6543  2.7251 -0.7280
16337SOL     OW61483   3.575   0.335   2.228 -0.1489  0.4696 -0.0662
16337SOL    HW161484   3.499   0.386   2.189 -0.7051 -0.8450 -0.7039
16337SOL    HW261485   3.659   0.357   2.178 -0.0726  1.9698  0.6796
16338SOL     OW61486   1.568   3.381   7.832 -0.8850  0.4031 -0.4054
16338SOL    HW161487   1.557   3.368   7.734 -1.9881 -1.4203 -0.0518
16338SOL    HW261488   1.541   3.298   7.881 -1.0832  1.5453  1.4879
16339SOL     OW61489   8.044   2.750   4.966 -0.4817 -0.0367  0.0914
16339SOL    HW161490   7.992   2.829   4.932  0.2794  0.1359 -0.6914
16339SOL    HW261491   8.136   2.753   4.929 -0.1889 -0.8432  0.7454
16340SOL     OW61492   1.175   0.436   6.844 -0.0148 -0.2023  0.0591
16340SOL    HW161493   1.123   0.482   6.916  1.4163  2.0387 -0.2805
16340SOL    HW261494   1.253   0.494   6.818 -0.0154 -1.3883 -2.6640
16341SOL     OW61495   0.837   6.056   0.820 -0.2265 -0.2613  0.6132
16341SOL    HW161496   0.830   6.019   0.728 -1.6985  1.9570 -0.2250
16341SOL    HW261497   0.923   6.027   0.862  1.5989  0.6359 -2.3707
16342SOL     OW61498   3.686   6.391   4.101 -0.2065  0.1232  0.6841
16342SOL    HW161499   3.735   6.477   4.113  1.8158 -1.1647  2.0355
16342SOL    HW261500   3.619   6.379   4.174 -0.0101  0.2557  0.8870
16343SOL     OW61501   5.608   5.462   5.939  0.4174  0.2702  0.0553
16343SOL    HW161502   5.578   5.373   5.975 -0.4197  0.8310  0.7456
16343SOL    HW261503   5.642   5.449   5.846  1.2659 -0.9506  0.5172
16344SOL     OW61504   8.192   7.249   5.640 -0.1457 -0.3135  0.0972
16344SOL    HW161505   8.145   7.306   5.572 -0.5208  0.1860  0.7669
16344SOL    HW261506   8.285   7.230   5.608 -0.8122 -1.3524 -1.2584
16345SOL     OW61507   6.216   0.225   0.411  0.1596 -0.1100  0.1568
16345SOL    HW161508   6.236   0.166   0.333  3.3030 -0.0334  0.8298
16345SOL    HW261509   6.163   0.174   0.479  1.0791 -1.5204 -0.1666
16346SOL     OW61510   2.650   3.592   4.448  0.0344 -0.2092  0.3141
16346SOL    HW161511   2.651   3.691   4.461  0.7270 -0.3639  1.5160
16346SOL    HW261512   2.557   3.557   4.460 -0.3081  0.3554 -0.6495
16347SOL     OW61513   7.410   6.776   5.663 -0.7661 -0.3648 -0.1444
16347SOL    HW161514   7.311   6.788   5.658 -0.8793 -1.2343 -0.0184
16347SOL    HW261515   7.433   6.723   5.745 -0.4574 -3.0208 -1.9053
16348SOL     OW61516   7.216   7.091   5.658  0.7404  0.3640  0.4435
16348SOL    HW161517   7.262   7.074   5.570  1.9505 -0.6986  1.2561
16348SOL    HW261518   7.277   7.142   5.718  0.7796 -0.8103  1.4330
16349SOL     OW61519   5.874   5.252   8.710 -0.0939 -0.5891  0.2556
16349SOL    HW161520   5.844   5.337   8.666  0.7713 -0.5110 -0.1854
16349SOL    HW261521   5.799   5.186   8.707 -0.2236 -0.4064 -0.8802
16350SOL     OW61522   6.425   2.975   1.770  0.5150 -0.2769 -0.5794
16350SOL    HW161523   6.511   2.976   1.718  1.1381  4.5604  0.2716
16350SOL    HW261524   6.446   2.974   1.868 -0.4682 -0.9840 -0.3722
16351SOL     OW61525   0.980   5.708   5.427  0.0751  0.7400  0.0277
16351SOL    HW161526   1.060   5.649   5.429 -0.6816 -0.2521  1.6775
16351SOL    HW261527   0.899   5.654   5.404 -0.5454  1.2042  1.0906
16352SOL     OW61528   3.622   4.758   8.844 -0.6602 -0.5700 -0.2410
16352SOL    HW161529   3.704   4.725   8.891 -0.3482  1.4516  0.6601
16352SOL    HW261530   3.542   4.744   8.902 -0.9620 -2.3974 -1.0563
16353SOL     OW61531   3.603   1.953   2.517 -0.0562  0.0931 -0.1359
16353SOL    HW161532   3.666   1.875   2.518  1.8572  1.6017  0.5177
16353SOL    HW261533   3.602   1.994   2.426  0.3310  0.4165  0.0076
16354SOL     OW61534   3.099   8.290   5.256  0.5547 -0.2814 -0.5203
16354SOL    HW161535   3.098   8.243   5.344 -0.7203  0.1091 -0.3192
16354SOL    HW261536   3.128   8.385   5.269  0.7397 -0.3273 -0.5865
16355SOL     OW61537   0.254   1.423   5.587 -0.2142  0.0377  0.1998
16355SOL    HW161538   0.218   1.348   5.643  0.0356 -0.8654 -0.8328
16355SOL    HW261539   0.218   1.510   5.621 -1.5249 -0.6555  0.6171
16356SOL     OW61540   1.702   6.895   3.772 -0.1056  0.0632 -0.1437
16356SOL    HW161541   1.731   6.971   3.714 -1.5596  0.2120 -0.7208
16356SOL    HW261542   1.660   6.931   3.855 -1.5049 -0.0612 -0.7719
16357SOL     OW61543   0.595   5.309   5.434  0.1271  0.0593  0.6521
16357SOL    HW161544   0.640   5.394   5.407 -1.2840  0.3596 -0.8278
16357SOL    HW261545   0.660   5.250   5.482  2.2598  0.2006 -1.9948
16358SOL     OW61546   1.072   5.417   0.109  0.1153 -0.3162  0.3395
16358SOL    HW161547   0.975   5.395   0.102  0.4391 -1.5685 -0.4079
16358SOL    HW261548   1.092   5.454   0.199 -1.5196  2.3328 -0.3381
16359SOL     OW61549   8.338   8.439   0.447 -0.0769 -0.2051  0.1729
16359SOL    HW161550   8.255   8.462   0.499 -1.3553 -1.2056 -1.3514
16359SOL    HW261551   8.417   8.482   0.489 -1.0953 -0.8679  2.8513
16360SOL     OW61552   5.661   7.333   4.973 -0.1932 -0.2281  0.2867
16360SOL    HW161553   5.616   7.315   4.885 -0.9449  0.0430  0.6143
16360SOL    HW261554   5.759   7.316   4.964 -0.1508  0.5782 -0.8147
16361SOL     OW61555   0.767   3.349   6.180 -0.5441  0.5772  0.4831
16361SOL    HW161556   0.694   3.397   6.132 -1.3110 -0.4187  0.6412
16361SOL    HW261557   0.824   3.300   6.113 -0.1621  1.1463  0.3843
16362SOL     OW61558   3.647   4.617   2.200  0.1410  0.2249 -0.1419
16362SOL    HW161559   3.595   4.532   2.203 -0.8522  0.7592 -1.8903
16362SOL    HW261560   3.627   4.671   2.282 -1.4386  0.0633 -0.4026
16363SOL     OW61561   4.774   3.347   8.135 -0.2225 -0.1051 -0.3734
16363SOL    HW161562   4.768   3.263   8.080  1.4079 -1.2266  1.1181
16363SOL    HW261563   4.869   3.376   8.141 -0.7659  1.8617 -0.8195
16364SOL     OW61564   2.092   6.906   0.465  0.0134 -0.2121 -0.3884
16364SOL    HW161565   2.032   6.904   0.545  0.5807  0.6363  0.0660
16364SOL    HW261566   2.132   6.997   0.455  0.6993 -0.5787 -1.0762
16365SOL     OW61567   8.986   8.680   8.693 -0.6267  0.2891  0.3909
16365SOL    HW161568   8.919   8.609   8.670  0.7960 -0.8566 -0.3231
16365SOL    HW261569   9.052   8.643   8.759  0.2293  0.8985 -0.1137
16366SOL     OW61570   1.034   5.321   5.441  0.1721 -0.1389 -0.6703
16366SOL    HW161571   1.019   5.226   5.413 -0.5683 -0.0483 -0.5706
16366SOL    HW261572   0.979   5.382   5.384 -0.3229  0.1432  0.1107
16367SOL     OW61573   1.379   2.607   4.052 -0.4677  0.5106  0.2704
16367SOL    HW161574   1.348   2.594   3.958 -0.1483  1.0170  0.0933
16367SOL    HW261575   1.300   2.623   4.111 -0.9999 -3.3213  0.7138
16368SOL     OW61576   1.373   6.188   2.721 -0.4509 -0.0400 -0.1480
16368SOL    HW161577   1.379   6.089   2.735 -0.0658 -0.2853 -1.9554
16368SOL    HW261578   1.451   6.233   2.764 -0.6176 -0.5174  0.6636
16369SOL     OW61579   3.829   6.920   2.371  0.2816  0.0413 -0.4141
16369SOL    HW161580   3.752   6.954   2.426  0.5719  3.0233 -1.7802
16369SOL    HW261581   3.803   6.832   2.329 -1.1095 -0.6811  1.8599
16370SOL     OW61582   3.912   6.981   3.741 -0.4022  0.3273 -0.0116
16370SOL    HW161583   3.816   7.010   3.741 -0.5046  0.1060  2.3889
16370SOL    HW261584   3.920   6.892   3.786  1.2141  1.3973  1.9015
16371SOL     OW61585   8.664   0.760   4.668 -0.0486  0.0779  0.2371
16371SOL    HW161586   8.588   0.735   4.609 -0.1046 -1.5416  0.9560
16371SOL    HW261587   8.636   0.754   4.764  0.7903  0.0842  0.4916
16372SOL     OW61588   4.224   4.175   7.519  0.0308  0.0472  0.4703
16372SOL    HW161589   4.227   4.200   7.616  1.5060  2.8452 -0.2722
16372SOL    HW261590   4.132   4.191   7.484 -0.6376 -1.4170  1.4931
16373SOL     OW61591   2.902   2.769   1.666  0.2476 -0.0226 -1.1546
16373SOL    HW161592   2.969   2.732   1.731  0.7215  0.5455 -1.3128
16373SOL    HW261593   2.838   2.697   1.639 -0.2717 -0.1513  0.3358
16374SOL     OW61594   3.856   2.029   7.780  0.5717  1.2694 -0.5164
16374SOL    HW161595   3.868   2.050   7.683  0.7690  0.1216 -0.7359
16374SOL    HW261596   3.944   2.031   7.826  0.8455 -0.8330 -0.8925
16375SOL     OW61597   2.575   7.144   2.954  0.2316 -0.5935 -0.8087
16375SOL    HW161598   2.675   7.137   2.962  0.4257  2.1685 -0.3701
16375SOL    HW261599   2.551   7.228   2.906 -1.9448 -0.2757  0.7518
16376SOL     OW61600   1.444   4.098   2.156  0.1489  0.2322  0.7856
16376SOL    HW161601   1.379   4.023   2.145  0.4536 -0.1072  1.3037
16376SOL    HW261602   1.437   4.136   2.248 -0.9624  1.7477  0.0995
16377SOL     OW61603   3.098   3.744   3.915  0.2170 -0.0314 -0.5767
16377SOL    HW161604   3.102   3.662   3.859  0.9438 -0.5915  0.2945
16377SOL    HW261605   3.166   3.810   3.883  1.6631 -0.9462  0.5793
16378SOL     OW61606   8.791   1.677   0.264 -0.3072  1.0469  0.0714
16378SOL    HW161607   8.849   1.758   0.254 -0.6739  1.4091  0.7789
16378SOL    HW261608   8.792   1.647   0.360  1.7892 -1.2770 -0.6188
16379SOL     OW61609   1.548   3.764   8.159 -0.4030 -0.0601 -0.0143
16379SOL    HW161610   1.647   3.767   8.151 -0.1639 -0.4023  2.4533
16379SOL    HW261611   1.511   3.697   8.095  0.9789 -0.0726 -0.8005
16380SOL     OW61612   0.588   6.600   8.483  0.0598 -0.3191 -0.0991
16380SOL    HW161613   0.674   6.645   8.509  0.4781 -1.1489 -0.0331
16380SOL    HW261614   0.589   6.580   8.385  0.4040 -1.3044  0.0982
16381SOL     OW61615   7.971   1.307   7.795 -0.5973  0.3489 -0.6528
16381SOL    HW161616   7.941   1.286   7.702  1.1857 -0.5185 -1.0585
16381SOL    HW261617   7.933   1.241   7.859  0.2103 -0.5742 -1.1201
16382SOL     OW61618   5.300   3.772   4.408  0.2687  0.2754 -0.5426
16382SOL    HW161619   5.398   3.791   4.409  0.1728  0.7408  0.4033
16382SOL    HW261620   5.285   3.676   4.384  0.8844  0.5619 -2.1271
16383SOL     OW61621   1.232   1.405   5.682  0.3519  0.2525  0.1377
16383SOL    HW161622   1.135   1.400   5.662 -0.0353 -0.4382  2.0196
16383SOL    HW261623   1.267   1.314   5.703  1.7706  0.2608 -2.0013
16384SOL     OW61624   8.676   3.261   8.724 -0.3628 -0.7005  0.1460
16384SOL    HW161625   8.601   3.208   8.685 -1.7605  0.4631  1.1978
16384SOL    HW261626   8.732   3.203   8.783  0.0697 -1.7721 -1.2967
16385SOL     OW61627   3.191   6.795   3.241  0.5306  0.3546 -0.1535
16385SOL    HW161628   3.244   6.714   3.216  0.4595 -0.0030  0.8003
16385SOL    HW261629   3.145   6.832   3.161  1.0504 -0.1973 -0.7085
16386SOL     OW61630   7.084   4.482   2.085 -0.2939 -0.5968  0.6368
16386SOL    HW161631   7.125   4.549   2.146  0.1439  0.9158 -1.2785
16386SOL    HW261632   6.984   4.482   2.098 -0.2160 -0.1903  1.2576
16387SOL     OW61633   2.685   6.656   4.309 -0.0814  0.4149  0.3816
16387SOL    HW161634   2.624   6.652   4.230 -1.4940  0.2299  1.4601
16387SOL    HW261635   2.779   6.636   4.280 -0.5864  0.3092 -1.2306
16388SOL     OW61636   0.763   3.644   8.769  0.2666  0.3059 -0.1214
16388SOL    HW161637   0.680   3.618   8.720 -1.0636  2.8709  0.6891
16388SOL    HW261638   0.814   3.711   8.716  0.8112  0.2012  0.2624
16389SOL     OW61639   1.582   1.694   6.554 -0.2239  0.2168 -0.6055
16389SOL    HW161640   1.673   1.663   6.582 -0.1858  2.6197  2.1326
16389SOL    HW261641   1.587   1.736   6.463  1.3812  0.3662 -0.4524
16390SOL     OW61642   2.175   8.416   8.436 -0.5428  0.4836 -0.6303
16390SOL    HW161643   2.240   8.439   8.364  1.1114 -0.0694  0.6633
16390SOL    HW261644   2.158   8.317   8.435  0.1202  0.3626  0.2752
16391SOL     OW61645   8.473   6.819   7.362  0.5651  0.1711 -0.4103
16391SOL    HW161646   8.541   6.757   7.401  1.7213  1.1169 -0.8871
16391SOL    HW261647   8.389   6.814   7.415  0.2900 -2.5549 -1.0422
16392SOL     OW61648   7.445   5.780   6.004 -0.2907  0.2147  0.0006
16392SOL    HW161649   7.358   5.791   5.957  1.3835  0.0728 -3.2723
16392SOL    HW261650   7.498   5.866   5.998  0.8171 -0.4705 -0.2137
16393SOL     OW61651   3.347   4.698   6.286  0.4454 -0.6887  0.2220
16393SOL    HW161652   3.394   4.610   6.294 -1.1342 -1.6700 -0.8745
16393SOL    HW261653   3.289   4.697   6.204 -0.3479  1.0015  0.7450
16394SOL     OW61654   8.820   4.420   0.984 -0.1220 -0.4659 -0.0487
16394SOL    HW161655   8.835   4.439   1.081 -0.3333 -0.3254 -0.0419
16394SOL    HW261656   8.891   4.466   0.930  0.6415 -1.4506  0.1093
16395SOL     OW61657   2.662   0.934   1.542  0.1576  0.1120 -0.5706
16395SOL    HW161658   2.734   0.899   1.602 -0.1900  0.4488  0.0516
16395SOL    HW261659   2.610   0.857   1.505  1.1920 -0.1531 -1.4690
16396SOL     OW61660   4.577   7.670   6.362  0.3508 -0.3423 -0.1161
16396SOL    HW161661   4.672   7.677   6.331  0.0320 -0.4469 -1.1484
16396SOL    HW261662   4.550   7.574   6.365  0.2944 -0.3162  0.2387
16397SOL     OW61663   7.981   5.624   3.519 -0.0193 -0.2181 -0.6967
16397SOL    HW161664   8.033   5.699   3.477 -0.5030  0.4418 -0.1191
16397SOL    HW261665   7.890   5.620   3.479 -0.3690  0.2019  0.0534
16398SOL     OW61666   5.324   3.033   2.211  0.6105 -0.3302  0.4573
16398SOL    HW161667   5.422   3.015   2.202  0.6176  0.5647 -1.5610
16398SOL    HW261668   5.304   3.064   2.304  2.3749  0.2147  0.6797
16399SOL     OW61669   3.716   5.226   7.810  0.0977 -0.4253 -0.1274
16399SOL    HW161670   3.804   5.200   7.769 -0.2816 -0.2568 -1.0689
16399SOL    HW261671   3.668   5.145   7.841  0.6386 -0.5098  0.5045
16400SOL     OW61672   8.245   3.793   4.987  0.5873  0.1328  0.5264
16400SOL    HW161673   8.182   3.870   4.998 -1.7841 -1.7246  0.3799
16400SOL    HW261674   8.306   3.788   5.066 -0.2847  1.2254  1.2831
16401SOL     OW61675   3.648   1.323   7.909  0.1133  0.1944  0.8868
16401SOL    HW161676   3.615   1.318   7.814  1.2719  0.1870  0.4790
16401SOL    HW261677   3.611   1.405   7.952 -1.2828 -0.3505  0.7698
16402SOL     OW61678   2.081   5.183   6.520  0.0565 -0.0428  0.1672
16402SOL    HW161679   2.102   5.262   6.579 -1.2667  0.7554 -0.4025
16402SOL    HW261680   2.057   5.105   6.577  1.8141 -0.1665  0.7512
16403SOL     OW61681   0.625   4.131   7.895 -0.1884 -0.4573  1.0448
16403SOL    HW161682   0.713   4.103   7.932  0.1425  2.2175  2.3911
16403SOL    HW261683   0.601   4.222   7.929 -3.2171 -0.8870  0.2565
16404SOL     OW61684   0.426   6.279   5.640 -0.3086 -0.7366 -0.0718
16404SOL    HW161685   0.402   6.187   5.609 -1.0421 -0.7850  0.6014
16404SOL    HW261686   0.505   6.275   5.701  0.7186 -0.7169 -1.3948
16405SOL     OW61687   6.783   7.689   1.204 -0.2723 -0.2975  0.0872
16405SOL    HW161688   6.791   7.697   1.303 -0.1571 -3.0103  0.3387
16405SOL    HW261689   6.726   7.763   1.169  0.2680  1.0937  2.0859
16406SOL     OW61690   8.634   5.697   0.573 -0.2326 -0.2342  0.2025
16406SOL    HW161691   8.555   5.646   0.606  0.6001 -2.7314 -1.5025
16406SOL    HW261692   8.691   5.724   0.650 -1.9843  0.3313  1.3279
16407SOL     OW61693   0.396   5.294   0.475  0.4385  0.0257  0.2772
16407SOL    HW161694   0.373   5.221   0.539 -2.1698  1.5206  1.1238
16407SOL    HW261695   0.336   5.288   0.395  0.4578  1.0031  0.1861
16408SOL     OW61696   7.586   7.962   7.590 -0.1903  0.0460 -0.7498
16408SOL    HW161697   7.495   7.926   7.611 -0.4463  1.6798  1.0964
16408SOL    HW261698   7.649   7.936   7.663  0.0123  1.7979 -0.2751
16409SOL     OW61699   2.476   5.196   1.948 -0.9092  0.4973  0.9481
16409SOL    HW161700   2.550   5.261   1.964  0.8157 -1.2583  0.3515
16409SOL    HW261701   2.478   5.125   2.018  0.1773 -1.4646 -1.0081
16410SOL     OW61702   0.069   6.743   1.436  0.3791 -0.4735  0.2121
16410SOL    HW161703  -0.025   6.742   1.468  0.7297  1.1788  1.3520
16410SOL    HW261704   0.130   6.709   1.508  0.9471  1.2162  0.5532
16411SOL     OW61705   6.936   7.619   7.316 -0.5802 -0.3512  0.5507
16411SOL    HW161706   6.947   7.701   7.260  0.5136  0.4896  1.9774
16411SOL    HW261707   6.852   7.627   7.371 -0.6015 -0.2986  0.5109
16412SOL     OW61708   5.472   1.156   6.919 -0.1563  0.1334  0.0269
16412SOL    HW161709   5.525   1.224   6.867 -0.6774 -0.3117 -1.0995
16412SOL    HW261710   5.375   1.171   6.903 -0.3031 -0.3426  0.4657
16413SOL     OW61711   4.338   8.599   2.349  0.4334  0.1519  0.0332
16413SOL    HW161712   4.338   8.518   2.408 -1.5355 -0.4491 -0.7189
16413SOL    HW261713   4.404   8.587   2.275 -0.2043 -1.0034 -0.3614
16414SOL     OW61714   1.042   2.410   0.625 -0.1576 -0.4669 -0.4810
16414SOL    HW161715   1.139   2.416   0.602  0.0772 -4.8559 -1.0726
16414SOL    HW261716   0.991   2.372   0.547 -1.9474 -0.5965  0.7114
16415SOL     OW61717   3.607   1.650   1.084  0.4205  0.4688 -0.2705
16415SOL    HW161718   3.638   1.629   1.176  1.5275  0.2496 -0.6777
16415SOL    HW261719   3.674   1.709   1.039 -1.0192  2.1285 -0.3052
16416SOL     OW61720   5.296   5.880   4.919  0.0578 -1.2050  0.8229
16416SOL    HW161721   5.203   5.856   4.890  0.0454 -1.0655  0.7474
16416SOL    HW261722   5.295   5.903   5.017 -0.3026  0.4965  0.4263
16417SOL     OW61723   7.027   5.080   2.682 -0.1700 -0.2702  0.2295
16417SOL    HW161724   7.005   5.177   2.668  0.5724 -0.4045 -2.1629
16417SOL    HW261725   6.946   5.032   2.714 -1.6603  0.4484 -2.2948
16418SOL     OW61726   3.924   0.558   2.943 -0.3494 -0.1979  0.4278
16418SOL    HW161727   3.918   0.458   2.950  0.7195 -0.3213 -0.3567
16418SOL    HW261728   3.877   0.589   2.861  0.1935 -0.1639  0.1217
16419SOL     OW61729   8.107   0.714   5.670 -0.1438  0.1235  0.0173
16419SOL    HW161730   8.115   0.616   5.692  0.8738 -0.0597 -1.1669
16419SOL    HW261731   8.148   0.732   5.581 -0.5071  1.6102  0.1409
16420SOL     OW61732   8.346   5.429   6.933  0.7916  0.5636 -0.2902
16420SOL    HW161733   8.348   5.523   6.897 -0.9253  1.8488  2.8078
16420SOL    HW261734   8.253   5.393   6.927  1.1219 -0.3591  0.0263
16421SOL     OW61735   3.132   5.271   3.297 -0.5763 -0.0201  0.1566
16421SOL    HW161736   3.215   5.312   3.336  0.2226  0.3803 -1.9374
16421SOL    HW261737   3.061   5.341   3.288  0.0541  0.4426 -1.3557
16422SOL     OW61738   3.494   3.570   3.107  0.2872 -0.0659 -0.1749
16422SOL    HW161739   3.485   3.654   3.053 -0.0810 -1.0874 -1.7461
16422SOL    HW261740   3.440   3.579   3.190  1.6616  1.9283  0.5650
16423SOL     OW61741   6.732   1.673   6.272 -0.5209 -0.4551 -0.5667
16423SOL    HW161742   6.653   1.615   6.291  0.6431 -1.6072  0.9213
16423SOL    HW261743   6.706   1.745   6.208 -2.6236 -1.1427 -0.5289
16424SOL     OW61744   8.804   2.136   2.647 -0.8066 -0.4329  0.4645
16424SOL    HW161745   8.786   2.054   2.701  0.8103  0.7947  2.9716
16424SOL    HW261746   8.776   2.217   2.699  1.7692  0.8508 -0.0404
16425SOL     OW61747   6.546   4.878   1.988  0.4642 -0.0385 -0.6122
16425SOL    HW161748   6.585   4.969   1.972  2.3431 -0.5795  0.5971
16425SOL    HW261749   6.477   4.883   2.060  1.0098  0.3569 -0.1070
16426SOL     OW61750   3.737   7.501   2.632  0.1311  0.2909  0.1209
16426SOL    HW161751   3.823   7.528   2.675 -0.0875 -0.4096  1.0073
16426SOL    HW261752   3.752   7.486   2.534  1.0236  0.1409  0.2781
16427SOL     OW61753   8.255   6.347   6.768  0.5293  0.6958  1.0752
16427SOL    HW161754   8.250   6.291   6.684  0.3863  0.5149  1.2029
16427SOL    HW261755   8.310   6.299   6.836 -1.2821 -0.2528  1.9164
16428SOL     OW61756   8.853   1.002   6.399 -0.0360 -0.5648  0.2130
16428SOL    HW161757   8.790   1.064   6.446  0.4486 -0.4674  0.7369
16428SOL    HW261758   8.944   1.043   6.394  0.6551 -1.8364  1.9024
16429SOL     OW61759   3.208   6.691   2.475 -0.3051  0.4567 -0.1038
16429SOL    HW161760   3.256   6.776   2.492 -1.1561  1.2699 -1.6574
16429SOL    HW261761   3.207   6.636   2.558  1.2747  1.4353  0.5796
16430SOL     OW61762   8.104   1.834   7.254 -0.0913 -0.3650 -0.0861
16430SOL    HW161763   8.148   1.890   7.325  1.6138 -0.7850 -0.7935
16430SOL    HW261764   8.017   1.876   7.228 -0.0871  0.5210  1.2934
16431SOL     OW61765   6.906   4.601   1.318  0.4596 -0.9885 -0.3062
16431SOL    HW161766   6.995   4.589   1.363  1.0233  0.3753 -1.0076
16431SOL    HW261767   6.878   4.515   1.276  1.5489 -1.3861 -0.2392
16432SOL     OW61768   7.753   7.118   2.989 -0.3606 -0.1214  0.1452
16432SOL    HW161769   7.716   7.211   2.997  0.4286  0.0536  2.3631
16432SOL    HW261770   7.687   7.059   2.942 -1.3503  1.2987 -0.2775
16433SOL     OW61771   8.132   7.430   6.388  0.4166  0.1185 -0.2219
16433SOL    HW161772   8.139   7.338   6.426  2.9933 -0.3673 -1.8319
16433SOL    HW261773   8.055   7.433   6.324  0.5186 -0.9842 -0.4112
16434SOL     OW61774   6.934   0.157   2.708  0.0073  0.0548  0.1779
16434SOL    HW161775   7.025   0.117   2.722 -0.9726 -1.7091  1.7302
16434SOL    HW261776   6.925   0.185   2.612  0.9785 -2.9116 -0.8573
16435SOL     OW61777   6.702   0.767   7.696  0.1440  0.2755 -0.0123
16435SOL    HW161778   6.627   0.827   7.722  0.2246  0.5456 -0.3975
16435SOL    HW261779   6.665   0.684   7.653  0.0316  0.0260  0.5638
16436SOL     OW61780   3.889   4.095   2.634  0.3799  0.5135 -0.2386
16436SOL    HW161781   3.833   4.019   2.599  1.0301 -0.1069  0.0642
16436SOL    HW261782   3.900   4.085   2.733 -0.2462  1.4768 -0.0659
16437SOL     OW61783   1.470   4.132   2.425  0.6083  0.2403  0.1062
16437SOL    HW161784   1.525   4.108   2.505  0.6258 -3.3194 -0.9009
16437SOL    HW261785   1.380   4.088   2.432  0.4948  0.1658 -1.6824
16438SOL     OW61786   2.948   0.612   1.587 -0.0957  1.1036  0.4719
16438SOL    HW161787   2.893   0.536   1.553  1.3212 -0.3883  1.4673
16438SOL    HW261788   2.888   0.675   1.637 -0.8168 -0.9219  2.2694
16439SOL     OW61789   3.263   0.415   1.470 -0.0927 -0.1877  0.1547
16439SOL    HW161790   3.282   0.508   1.499  0.0863  0.0370 -0.6717
16439SOL    HW261791   3.188   0.415   1.404  2.0666 -0.2574 -2.3818
16440SOL     OW61792   7.092   5.383   1.431 -0.7343  0.7182  0.3937
16440SOL    HW161793   7.010   5.348   1.476 -1.2520  0.1043 -0.9940
16440SOL    HW261794   7.173   5.335   1.466 -1.1110  0.3866  0.8088
16441SOL     OW61795   0.999   3.330   5.604  0.4509  0.1175  0.6123
16441SOL    HW161796   0.998   3.426   5.574  1.0406 -0.4107 -1.1782
16441SOL    HW261797   1.039   3.325   5.696  0.6503  1.5572  0.6261
16442SOL     OW61798   6.964   6.557   8.776 -0.0952 -0.0362 -0.6867
16442SOL    HW161799   7.036   6.619   8.807 -1.0285 -0.1146  1.7333
16442SOL    HW261800   7.005   6.480   8.728  1.4987 -0.4078  1.2194
16443SOL     OW61801   5.438   4.150   2.804 -0.6517 -0.5360  0.3823
16443SOL    HW161802   5.423   4.236   2.754 -0.3882 -0.2910  0.7206
16443SOL    HW261803   5.522   4.107   2.771 -1.1485 -1.0178 -0.2747
16444SOL     OW61804   1.911   7.757   5.115  0.5814 -0.1329 -0.1501
16444SOL    HW161805   1.984   7.722   5.173  1.3241  0.9407 -0.4167
16444SOL    HW261806   1.908   7.857   5.121  0.0706 -0.0694 -1.2419
16445SOL     OW61807   2.114   5.927   6.759  0.3016 -0.4648 -0.2932
16445SOL    HW161808   2.158   5.867   6.825  0.9245 -0.3065 -0.5560
16445SOL    HW261809   2.169   6.010   6.747 -1.7745  1.2941  1.8786
16446SOL     OW61810   3.984   0.581   6.461  0.0990 -0.4028 -0.6188
16446SOL    HW161811   3.967   0.678   6.447 -2.8833 -0.3940  2.5743
16446SOL    HW261812   4.066   0.568   6.518  0.7848  0.1600 -1.4582
16447SOL     OW61813   1.885   5.135   7.518  0.1941 -0.3491 -0.0520
16447SOL    HW161814   1.943   5.066   7.477 -0.2440 -0.5111 -0.4031
16447SOL    HW261815   1.904   5.224   7.477 -1.7548 -0.8631 -2.1902
16448SOL     OW61816   3.928   2.019   8.244 -0.2101  0.2443 -0.2571
16448SOL    HW161817   3.862   2.050   8.176 -1.8732  0.1536  1.2562
16448SOL    HW261818   3.975   1.937   8.210 -2.5301 -1.0455 -0.4671
16449SOL     OW61819   4.851   8.463   1.233 -0.0384 -0.5001  0.4195
16449SOL    HW161820   4.950   8.461   1.224  0.0935 -0.9662  1.8334
16449SOL    HW261821   4.820   8.377   1.274 -0.6681  1.0403  3.2963
16450SOL     OW61822   1.914   3.723   3.865  0.4986 -0.5167 -0.4563
16450SOL    HW161823   1.897   3.792   3.795 -0.0934 -0.8660 -0.6675
16450SOL    HW261824   1.861   3.745   3.947  0.2804 -0.7326 -0.5364
16451SOL     OW61825   1.997   6.027   4.200 -0.7842  0.0905  0.0561
16451SOL    HW161826   1.996   6.117   4.156  0.7039  0.9269  1.6605
16451SOL    HW261827   1.919   6.020   4.262 -1.3907 -0.0549 -0.7291
16452SOL     OW61828   2.496   4.606   7.021  0.1727  0.7566 -0.3893
16452SOL    HW161829   2.567   4.651   7.076  0.7200 -2.1860  1.3887
16452SOL    HW261830   2.536   4.571   6.937  0.5447  0.3800 -0.0594
16453SOL     OW61831   5.750   8.343   0.464 -0.1780 -0.1291 -0.3778
16453SOL    HW161832   5.774   8.387   0.551 -0.4622  0.9401 -0.8269
16453SOL    HW261833   5.834   8.321   0.414 -0.0310  2.0048 -1.1584
16454SOL     OW61834   7.380   5.015   8.152 -0.4485 -0.7286  0.2126
16454SOL    HW161835   7.423   4.981   8.069 -0.3179  0.1350 -0.0781
16454SOL    HW261836   7.406   5.111   8.167 -0.7903 -0.7542  1.0266
16455SOL     OW61837   4.663   5.017   1.011  0.1063  0.2642 -0.6982
16455SOL    HW161838   4.762   5.029   1.017  0.3889 -1.9767 -0.6678
16455SOL    HW261839   4.619   5.107   1.008  1.9839  1.3108  1.4548
16456SOL     OW61840   7.005   7.986   3.019  0.5044  0.5884 -0.4050
16456SOL    HW161841   7.063   7.913   3.054  0.3733  0.9160  0.5296
16456SOL    HW261842   6.911   7.953   3.007  0.8306  0.1211 -1.6984
16457SOL     OW61843   2.384   3.667   3.741 -0.1228  0.6577 -0.0130
16457SOL    HW161844   2.379   3.760   3.775 -0.3788  0.3166  0.9096
16457SOL    HW261845   2.296   3.621   3.756  0.2167  0.0582  0.1668
16458SOL     OW61846   1.096   8.953   7.763 -0.7350 -0.2851 -0.0362
16458SOL    HW161847   1.098   8.857   7.788 -0.6668 -0.7067 -1.5828
16458SOL    HW261848   1.187   8.981   7.731 -0.6243  0.4275  0.8839
16459SOL     OW61849   3.260   4.895   0.920 -0.4385  0.6837 -0.0328
16459SOL    HW161850   3.321   4.817   0.924  2.3097  2.7504 -0.3677
16459SOL    HW261851   3.209   4.903   1.006  0.8711 -0.1934  0.8341
16460SOL     OW61852   1.222   6.904   0.938 -0.7898 -0.8752  0.5276
16460SOL    HW161853   1.233   7.002   0.952 -1.3094 -0.4797 -1.6728
16460SOL    HW261854   1.129   6.886   0.904 -0.4807 -2.0557  0.2965
16461SOL     OW61855   6.905   6.139   7.517  0.1768 -0.3077 -0.0062
16461SOL    HW161856   6.816   6.101   7.492  0.6656  0.0738 -2.4394
16461SOL    HW261857   6.902   6.171   7.612 -1.3622 -2.9628  0.8836
16462SOL     OW61858   3.667   0.553   6.710  0.1984 -0.0519  0.1640
16462SOL    HW161859   3.735   0.588   6.646  0.3494  0.9725  0.8799
16462SOL    HW261860   3.586   0.523   6.660  1.3313 -1.6897 -0.7405
16463SOL     OW61861   1.535   3.357   8.304 -0.6826  0.3572 -0.3042
16463SOL    HW161862   1.618   3.387   8.256 -1.3296  0.5526 -1.3011
16463SOL    HW261863   1.473   3.313   8.240 -1.9053  1.3377  0.1889
16464SOL     OW61864   4.901   4.072   7.483 -0.3780  0.2531  0.5001
16464SOL    HW161865   4.807   4.083   7.515 -0.8891 -2.8558  0.2698
16464SOL    HW261866   4.908   4.107   7.390 -0.4968  3.3464  1.6052
16465SOL     OW61867   0.986   3.710   8.300  0.0623 -0.3239 -0.5472
16465SOL    HW161868   0.982   3.767   8.218 -0.3252 -1.1199 -1.0857
16465SOL    HW261869   1.071   3.658   8.300 -0.1741 -0.7089 -0.7020
16466SOL     OW61870   4.253   6.169   4.364  0.5165  0.0590  0.2604
16466SOL    HW161871   4.173   6.206   4.316  0.3403 -0.7018 -0.0462
16466SOL    HW261872   4.294   6.240   4.420 -0.4618  0.4251  0.5248
16467SOL     OW61873   6.972   3.117   4.361 -0.5079 -0.6591 -0.0582
16467SOL    HW161874   7.011   3.065   4.437 -0.9254  1.6331  1.7674
16467SOL    HW261875   7.045   3.161   4.309 -0.3842 -0.0020  0.6687
16468SOL     OW61876   3.340   0.511   3.621 -0.2188  0.0976 -0.5491
16468SOL    HW161877   3.307   0.422   3.655 -0.6465 -0.0975 -1.4515
16468SOL    HW261878   3.341   0.577   3.696 -1.5091 -0.2220 -0.2396
16469SOL     OW61879   3.793   0.475   8.201 -0.0542 -0.1572 -0.4475
16469SOL    HW161880   3.864   0.545   8.189 -1.7803  1.8414  0.5635
16469SOL    HW261881   3.768   0.438   8.112 -0.2080  1.6802 -1.2096
16470SOL     OW61882   1.629   3.532   3.071  0.2045  0.6327  0.2745
16470SOL    HW161883   1.655   3.559   2.979 -0.3105  1.4871  0.3764
16470SOL    HW261884   1.698   3.469   3.108  0.8713  0.9863 -0.3536
16471SOL     OW61885   6.727   2.404   8.107 -0.1299 -0.1012 -0.1706
16471SOL    HW161886   6.811   2.457   8.116 -0.3275  0.4489 -1.4373
16471SOL    HW261887   6.742   2.328   8.044 -0.2041 -0.7954  0.6479
16472SOL     OW61888   2.636   0.719   3.809 -0.4944 -0.7071 -0.6799
16472SOL    HW161889   2.720   0.772   3.805 -0.2655 -0.9113  1.0752
16472SOL    HW261890   2.645   0.636   3.755  0.1082 -0.2728 -1.2360
16473SOL     OW61891   3.456   1.767   7.019 -0.1193 -0.1910 -0.0759
16473SOL    HW161892   3.428   1.750   7.113  1.0721  1.7935  0.6746
16473SOL    HW261893   3.381   1.745   6.956 -0.9875 -1.3191  1.3403
16474SOL     OW61894   3.460   1.411   1.622 -0.5866 -0.1207 -0.1420
16474SOL    HW161895   3.550   1.370   1.636 -0.2209  0.0814 -1.8012
16474SOL    HW261896   3.408   1.355   1.558 -1.5553 -0.1095  0.6358
16475SOL     OW61897   0.610   2.618   0.511 -0.1842 -0.2203  0.4816
16475SOL    HW161898   0.596   2.536   0.456  0.3578 -0.9540  1.4199
16475SOL    HW261899   0.688   2.605   0.572  1.6003  1.9850 -1.2352
16476SOL     OW61900   1.496   7.409   4.889 -0.4298  0.1101 -0.0376
16476SOL    HW161901   1.596   7.401   4.890 -0.5788 -2.0552  0.6885
16476SOL    HW261902   1.466   7.464   4.967  0.0775 -1.2760  1.1655
16477SOL     OW61903   7.557   6.027   5.979  0.3278 -0.1477  0.4047
16477SOL    HW161904   7.506   6.032   5.893 -0.4669  1.4137  0.9439
16477SOL    HW261905   7.655   6.024   5.959  0.1601  0.4852 -0.5650
16478SOL     OW61906   2.648   0.532   0.076  0.5374  0.7123 -0.5399
16478SOL    HW161907   2.574   0.594   0.102 -1.1064 -1.0162 -0.9707
16478SOL    HW261908   2.650   0.522  -0.024  2.2155  1.7437 -0.6435
16479SOL     OW61909   2.561   0.509   1.045 -0.4217 -0.5074 -0.1798
16479SOL    HW161910   2.566   0.609   1.054  2.2135 -0.4895 -1.5742
16479SOL    HW261911   2.517   0.486   0.958 -1.4343 -0.5956  0.3417
16480SOL     OW61912   1.833   4.390   4.805 -0.7721 -0.4703  0.3130
16480SOL    HW161913   1.815   4.484   4.834  0.3952  0.3602 -1.5577
16480SOL    HW261914   1.930   4.369   4.815 -1.3202 -2.1304  2.4909
16481SOL     OW61915   8.956   0.931   5.321  0.0094  0.4669  0.0368
16481SOL    HW161916   9.047   0.922   5.280  0.0101  0.5788  0.0144
16481SOL    HW261917   8.924   0.841   5.351 -0.4591  0.2029 -1.2119
16482SOL     OW61918   8.766   8.621   7.222  0.0304 -0.1540  0.5211
16482SOL    HW161919   8.747   8.524   7.238 -1.9065  0.4385  1.9858
16482SOL    HW261920   8.818   8.658   7.300 -0.2648  0.2529  0.5278
16483SOL     OW61921   3.902   2.191   5.305 -0.5793  0.1612  0.8826
16483SOL    HW161922   3.907   2.270   5.367 -0.9262 -0.6708  1.9707
16483SOL    HW261923   3.890   2.224   5.211 -0.6543  1.4089  1.3169
16484SOL     OW61924   3.350   0.526   2.226  0.0793  0.2715  0.2459
16484SOL    HW161925   3.342   0.531   2.127  2.0942 -1.2039 -0.0201
16484SOL    HW261926   3.299   0.602   2.268  0.0548  1.4872 -1.9351
16485SOL     OW61927   1.513   1.631   4.889  0.4961  0.0072  0.0607
16485SOL    HW161928   1.607   1.602   4.907  0.8427 -0.2096 -2.0213
16485SOL    HW261929   1.512   1.729   4.866  0.2190  0.0137  0.0981
16486SOL     OW61930   7.445   2.077   3.942 -0.5191 -0.2152 -0.5187
16486SOL    HW161931   7.462   2.170   3.908 -1.2381  0.3381  0.6233
16486SOL    HW261932   7.528   2.022   3.933  0.2174  0.8421 -0.2152
16487SOL     OW61933   7.726   3.566   8.015 -0.1490  0.6758 -0.0543
16487SOL    HW161934   7.815   3.528   7.990 -0.3166 -0.4583  1.0205
16487SOL    HW261935   7.654   3.500   7.994 -0.6439  1.2042 -0.0410
16488SOL     OW61936   7.555   5.069   1.011 -0.1487 -0.0215  0.8018
16488SOL    HW161937   7.581   5.073   0.915  0.2940  0.8608  0.9589
16488SOL    HW261938   7.469   5.019   1.019  0.0803 -0.5606  0.0049
16489SOL     OW61939   6.325   6.680   5.012  0.3820 -0.0701 -0.2738
16489SOL    HW161940   6.390   6.733   5.067  1.3248 -0.4110 -1.0583
16489SOL    HW261941   6.252   6.741   4.979 -0.2239  0.1307  1.3780
16490SOL     OW61942   5.092   1.801   8.724  0.4375  0.5215  0.1592
16490SOL    HW161943   5.187   1.815   8.696  0.4452  1.5513  0.6691
16490SOL    HW261944   5.054   1.888   8.757 -0.7543  0.1786 -0.2715
16491SOL     OW61945   1.174   6.251   2.135 -0.1875  0.0775  0.0404
16491SOL    HW161946   1.151   6.161   2.172  1.0911  0.3157  1.4606
16491SOL    HW261947   1.090   6.300   2.112 -0.9317 -0.9554  0.5104
16492SOL     OW61948   3.149   8.058   2.742  0.0459 -0.0996  0.7500
16492SOL    HW161949   3.149   8.150   2.703  0.3817 -1.2772 -2.1796
16492SOL    HW261950   3.233   8.011   2.715 -0.6389 -1.6632  1.2960
16493SOL     OW61951   1.043   2.037   3.237 -0.6621 -0.1435  0.1874
16493SOL    HW161952   1.134   2.076   3.252  0.3701 -2.0917 -0.8200
16493SOL    HW261953   1.007   2.069   3.149 -0.4420 -0.3142  0.0350
16494SOL     OW61954   7.335   2.137   8.456 -0.5034 -1.0144  0.0955
16494SOL    HW161955   7.417   2.192   8.470  0.5613 -2.9166  1.5223
16494SOL    HW261956   7.260   2.174   8.510  0.1499 -0.8300  0.8756
16495SOL     OW61957   2.726   4.677   6.181  0.6397 -0.5039 -0.2760
16495SOL    HW161958   2.690   4.645   6.269 -1.4487  0.9563 -0.5737
16495SOL    HW261959   2.709   4.608   6.111 -0.0309 -0.5703 -0.0516
16496SOL     OW61960   4.038   5.765   8.294  0.6172 -0.0702  0.1584
16496SOL    HW161961   4.092   5.754   8.377 -0.3654 -2.6654  0.5025
16496SOL    HW261962   4.037   5.679   8.243 -1.2920  0.5962 -0.9923
16497SOL     OW61963   7.842   1.116   7.135  0.4662  0.9625  0.2892
16497SOL    HW161964   7.802   1.134   7.046 -0.4061  1.2331  0.7327
16497SOL    HW261965   7.896   1.195   7.164  1.6897  0.4223 -0.5039
16498SOL     OW61966   3.732   1.296   0.550  0.2632  1.0367  0.2903
16498SOL    HW161967   3.828   1.277   0.570  0.0538  1.1802  1.4193
16498SOL    HW261968   3.679   1.295   0.634 -0.9933 -0.5332 -0.4940
16499SOL     OW61969   3.326   1.137   7.091  0.0781 -0.5864 -0.1383
16499SOL    HW161970   3.377   1.149   7.176 -0.9846 -0.9303  0.5637
16499SOL    HW261971   3.232   1.108   7.112 -0.1993 -0.6705 -1.4265
16500SOL     OW61972   7.455   8.346   0.181  0.0789  0.2041  0.1551
16500SOL    HW161973   7.388   8.415   0.208  0.7037  0.9473 -0.1887
16500SOL    HW261974   7.539   8.357   0.234  0.5622  0.3786 -0.6319
16501SOL     OW61975   3.011   1.035   1.583 -0.2972  0.1780  0.0256
16501SOL    HW161976   3.094   1.061   1.634  0.0415 -3.6961  1.6276
16501SOL    HW261977   3.033   0.960   1.520 -2.1582  0.5268 -1.0631
16502SOL     OW61978   0.659   7.400   7.940  0.1925 -0.6661  0.0459
16502SOL    HW161979   0.648   7.335   7.865  1.6147 -0.6588 -0.1755
16502SOL    HW261980   0.733   7.464   7.919  0.2586 -0.3378  1.2228
16503SOL     OW61981   4.998   1.078   8.548 -0.1530  0.3255  0.6360
16503SOL    HW161982   4.973   1.017   8.623 -2.4416  1.5635  0.9571
16503SOL    HW261983   4.962   1.042   8.462  1.9209 -0.7671  0.1946
16504SOL     OW61984   2.215   6.238   8.716  0.0531 -0.3950 -0.0583
16504SOL    HW161985   2.236   6.335   8.725  2.0253 -0.8531  0.6701
16504SOL    HW261986   2.120   6.226   8.688  0.3038  1.7929 -1.9717
16505SOL     OW61987   8.475   1.394   7.820 -0.1764  0.4907 -0.0738
16505SOL    HW161988   8.488   1.382   7.918 -0.7392 -0.8317 -0.1522
16505SOL    HW261989   8.379   1.416   7.802 -0.3849 -0.7084 -0.4495
16506SOL     OW61990   3.118   3.280   3.046  0.4180 -0.0883 -0.2470
16506SOL    HW161991   3.120   3.275   2.946  1.2139 -0.4741 -0.2098
16506SOL    HW261992   3.208   3.260   3.083  0.0281 -0.3574  0.5739
16507SOL     OW61993   6.491   7.240   3.232  0.1113 -0.3464  0.2489
16507SOL    HW161994   6.392   7.250   3.220  0.6641  2.9275 -2.4526
16507SOL    HW261995   6.528   7.325   3.269  2.0634 -1.2208  0.3224
16508SOL     OW61996   4.779   2.964   0.349 -0.1271  0.0382 -0.3658
16508SOL    HW161997   4.757   3.009   0.436 -2.6673  0.3325 -1.1465
16508SOL    HW261998   4.775   2.865   0.360  1.6068  0.0179  0.3444
16509SOL     OW61999   6.983   3.807   0.776 -0.3548  0.1262  0.0688
16509SOL    HW162000   6.931   3.759   0.846  1.8876 -0.1081  1.6386
16509SOL    HW262001   6.995   3.902   0.803 -2.1818  0.8551 -1.5665
16510SOL     OW62002   3.729   6.445   2.398 -0.5857 -0.4064  0.2883
16510SOL    HW162003   3.672   6.471   2.476  0.4811  1.3184  0.5183
16510SOL    HW262004   3.781   6.362   2.420  1.6678  1.4935  2.4432
16511SOL     OW62005   3.741   1.563   4.300  0.1629 -0.2909 -0.2340
16511SOL    HW162006   3.740   1.641   4.237 -0.9078  0.1212  0.2810
16511SOL    HW262007   3.736   1.597   4.394 -1.0943 -1.0108 -0.0329
16512SOL     OW62008   1.933   2.273   8.485 -1.1220  0.4872  0.3683
16512SOL    HW162009   1.860   2.331   8.522 -3.4000 -1.8267 -0.3386
16512SOL    HW262010   1.933   2.278   8.386  0.3532  1.2246  0.3915
16513SOL     OW62011   7.731   6.361   6.580 -0.0863 -0.2899 -0.2511
16513SOL    HW162012   7.750   6.436   6.517  1.1920  0.2183  0.7086
16513SOL    HW262013   7.815   6.310   6.598 -0.1540  0.2812  1.9219
16514SOL     OW62014   4.343   5.061   1.798  0.1011 -0.3405 -0.0213
16514SOL    HW162015   4.387   4.972   1.812 -1.0400 -1.0258 -0.7878
16514SOL    HW262016   4.295   5.087   1.882  2.0839  0.4940  0.8838
16515SOL     OW62017   1.989   8.566   8.556 -0.2182  0.8232  0.0806
16515SOL    HW162018   2.060   8.526   8.497  0.7468  0.4997  1.4424
16515SOL    HW262019   1.899   8.533   8.526  0.4843 -1.6929  0.5991
16516SOL     OW62020   7.680   2.492   1.004  0.1301  0.2015  0.2246
16516SOL    HW162021   7.593   2.445   1.018  1.2183 -1.2930  2.1935
16516SOL    HW262022   7.753   2.425   0.993  1.3898  1.4202  0.9124
16517SOL     OW62023   4.203   8.732   2.787  0.7672 -0.1650 -0.2625
16517SOL    HW162024   4.272   8.695   2.724 -1.0816 -1.3505 -1.6845
16517SOL    HW262025   4.189   8.829   2.768  1.2123 -0.1925 -0.7560
16518SOL     OW62026   0.561   1.364   4.838  0.5336  0.0112  0.3048
16518SOL    HW162027   0.552   1.462   4.825  1.2918 -0.0530 -0.8096
16518SOL    HW262028   0.471   1.322   4.845  0.1962  0.7071  0.1299
16519SOL     OW62029   6.787   0.357   6.663 -0.7815  0.4779 -0.6575
16519SOL    HW162030   6.811   0.278   6.607  0.9423  0.0346  0.6649
16519SOL    HW262031   6.848   0.433   6.642 -1.2091  0.8423 -0.5823
16520SOL     OW62032   4.703   4.008   6.766 -0.3214 -0.2616  0.5740
16520SOL    HW162033   4.780   4.065   6.738  1.3580 -2.6468  0.1906
16520SOL    HW262034   4.700   4.003   6.866 -0.9501  1.1049  0.6309
16521SOL     OW62035   3.382   4.601   5.488 -0.4483  0.7185 -0.2551
16521SOL    HW162036   3.331   4.596   5.574  0.2789 -0.6444  0.1206
16521SOL    HW262037   3.380   4.694   5.452 -1.4350  1.1157  0.8270
16522SOL     OW62038   5.019   4.676   3.464 -0.6657 -0.1184  0.2745
16522SOL    HW162039   4.952   4.643   3.397 -0.6035 -1.5978  0.9093
16522SOL    HW262040   5.090   4.728   3.418 -1.6041  0.4272 -0.5682
16523SOL     OW62041   3.201   5.425   3.867  0.6733 -0.1115  0.3848
16523SOL    HW162042   3.195   5.502   3.931  1.9829  0.8399 -0.5938
16523SOL    HW262043   3.235   5.344   3.915 -2.2019 -0.5461  1.7783
16524SOL     OW62044   4.697   5.839   8.194 -0.6173  0.2098 -0.1575
16524SOL    HW162045   4.774   5.782   8.165  0.1076  0.5316  1.1307
16524SOL    HW262046   4.679   5.909   8.125  0.8297  0.7144 -0.0308
16525SOL     OW62047   2.969   2.693   7.913  0.6075 -0.4528  0.0246
16525SOL    HW162048   2.906   2.672   7.838  0.8543  1.9798 -0.9032
16525SOL    HW262049   3.056   2.647   7.897  0.5311 -0.2670 -0.9815
16526SOL     OW62050   0.444   8.376   4.588  0.1882 -0.1010 -0.4070
16526SOL    HW162051   0.534   8.374   4.545 -0.0315 -0.0628 -0.8654
16526SOL    HW262052   0.438   8.457   4.647  0.7659 -0.5706  0.3109
16527SOL     OW62053   6.005   3.946   4.135 -0.7923  0.1200 -0.2121
16527SOL    HW162054   6.075   4.012   4.161  0.5877 -0.7786 -1.5752
16527SOL    HW262055   6.025   3.858   4.177 -0.3848 -0.4720 -1.6287
16528SOL     OW62056   1.829   3.608   2.098  0.1455 -0.4503  0.8923
16528SOL    HW162057   1.824   3.527   2.039  0.3583  0.4565 -0.3982
16528SOL    HW262058   1.917   3.609   2.147  0.9651 -0.0133 -0.5592
16529SOL     OW62059   3.468   5.955   4.559 -0.1416  0.6215 -0.4543
16529SOL    HW162060   3.462   5.856   4.574 -0.0724  0.7283  0.2993
16529SOL    HW262061   3.378   5.990   4.534  0.2671  0.0357 -2.8551
16530SOL     OW62062   2.902   5.355   6.230  0.4174  0.4494 -0.5168
16530SOL    HW162063   2.998   5.381   6.230  0.5603 -0.0741  0.2830
16530SOL    HW262064   2.847   5.431   6.195  1.1574  0.5961 -1.3580
16531SOL     OW62065   6.588   4.234   4.960 -0.0583 -0.0675  0.3039
16531SOL    HW162066   6.495   4.257   4.932  0.1079 -0.4817 -0.6174
16531SOL    HW262067   6.624   4.306   5.020  0.3454  1.9719 -2.2661
16532SOL     OW62068   8.321   7.129   2.591 -0.1830 -0.1548  0.4608
16532SOL    HW162069   8.227   7.148   2.562  0.9479  2.5706 -1.5831
16532SOL    HW262070   8.338   7.174   2.678  0.2511  2.1889 -0.8229
16533SOL     OW62071   8.252   0.138   0.416 -0.2376 -0.1081  0.4436
16533SOL    HW162072   8.321   0.125   0.488 -0.2378 -0.0966  0.4458
16533SOL    HW262073   8.232   0.051   0.373 -0.2077 -0.1084  0.4293
16534SOL     OW62074   6.610   4.406   6.238  0.5424 -0.0170 -0.3616
16534SOL    HW162075   6.695   4.412   6.292  1.6026  2.2633 -2.1692
16534SOL    HW262076   6.533   4.437   6.295  1.3010  0.2562  0.5407
16535SOL     OW62077   3.413   4.058   3.303  0.2235 -0.1724  0.2894
16535SOL    HW162078   3.348   3.991   3.337  0.4538  0.3700  1.8247
16535SOL    HW262079   3.498   4.011   3.277  0.4340 -0.4721  1.4801
16536SOL     OW62080   6.692   2.669   5.639 -0.2866 -0.0078 -0.8591
16536SOL    HW162081   6.717   2.573   5.626 -1.9162 -0.9606  2.5448
16536SOL    HW262082   6.595   2.682   5.618 -1.0650 -0.0041  2.4696
16537SOL     OW62083   8.218   5.739   2.562 -0.0551 -0.3767  0.2222
16537SOL    HW162084   8.222   5.687   2.477  0.4113  1.6367 -1.0194
16537SOL    HW262085   8.124   5.737   2.597 -0.0386 -2.0565  0.2217
16538SOL     OW62086   6.561   8.464   3.231  0.2676  0.6272 -0.5581
16538SOL    HW162087   6.586   8.475   3.135 -1.5605  0.8653 -1.0294
16538SOL    HW262088   6.479   8.519   3.250  1.9613  2.4141  1.7114
16539SOL     OW62089   0.097   7.185   1.563  0.5475  0.2091  0.0718
16539SOL    HW162090   0.143   7.252   1.505  1.3532 -0.9223 -0.6024
16539SOL    HW262091   0.161   7.113   1.589 -0.5982 -0.9352 -0.1847
16540SOL     OW62092   1.811   0.385   0.942  0.4031 -0.9439 -0.7118
16540SOL    HW162093   1.786   0.460   1.002  0.6366 -0.7565 -0.8490
16540SOL    HW262094   1.836   0.305   0.996 -0.8241 -1.2465 -0.5696
16541SOL     OW62095   6.745   6.926   4.182  0.7220 -0.0199 -0.3074
16541SOL    HW162096   6.732   6.991   4.107  0.2227 -0.7818 -0.8888
16541SOL    HW262097   6.840   6.929   4.213  0.7961  0.7020 -0.5940
16542SOL     OW62098   3.761   4.577   8.224 -0.5575  0.1998 -0.6401
16542SOL    HW162099   3.831   4.641   8.193 -0.5580  0.7190  0.4131
16542SOL    HW262100   3.779   4.551   8.319 -0.9148 -0.8694 -0.8577
16543SOL     OW62101   1.608   4.686   8.569 -0.0757  0.3891 -0.4535
16543SOL    HW162102   1.676   4.739   8.518  0.8646 -1.0491 -0.7308
16543SOL    HW262103   1.627   4.588   8.557 -2.0848 -0.0264 -0.3829
16544SOL     OW62104   0.243   8.907   8.332  0.0298 -0.4800 -0.4383
16544SOL    HW162105   0.145   8.924   8.333 -0.1217 -0.7041 -4.3243
16544SOL    HW262106   0.260   8.811   8.353 -0.6083 -0.5319 -0.1545
16545SOL     OW62107   1.746   7.037   5.744 -0.2216 -0.2450  0.1508
16545SOL    HW162108   1.730   6.990   5.657  0.2810 -0.5181  0.2056
16545SOL    HW262109   1.844   7.057   5.754 -0.0674 -1.5296  1.3263
16546SOL     OW62110   5.439   3.677   0.909 -0.4952  0.3989  0.1753
16546SOL    HW162111   5.462   3.699   0.814  0.0243 -1.4374 -0.1574
16546SOL    HW262112   5.382   3.749   0.947 -0.2087  1.4616 -1.3356
16547SOL     OW62113   2.786   3.042   3.153 -0.0763 -0.0454 -0.4233
16547SOL    HW162114   2.756   2.955   3.193  0.3698  0.4356  0.9778
16547SOL    HW262115   2.885   3.038   3.136 -0.0918  0.1204 -0.5500
16548SOL     OW62116   0.709   1.756   8.266 -0.4084 -0.5544  0.6061
16548SOL    HW162117   0.610   1.743   8.271 -0.3400 -1.3140  0.1505
16548SOL    HW262118   0.744   1.778   8.357 -0.6028 -3.4221  1.4468
16549SOL     OW62119   0.602   8.767   7.146  0.0429  0.8316 -0.2235
16549SOL    HW162120   0.579   8.855   7.188 -0.8042 -0.0491  1.1774
16549SOL    HW262121   0.519   8.723   7.113  0.2349 -0.3384  0.8406
16550SOL     OW62122   3.638   6.211   1.817  0.0476  0.7438 -0.6269
16550SOL    HW162123   3.603   6.130   1.770  1.7395 -0.0775 -0.5332
16550SOL    HW262124   3.716   6.185   1.874 -0.3544  2.1790  0.6144
16551SOL     OW62125   3.327   6.950   2.547  0.3308 -0.0077 -0.3959
16551SOL    HW162126   3.412   6.990   2.513  0.3052 -0.3940 -0.9393
16551SOL    HW262127   3.282   7.012   2.611  1.1631  0.0782  0.1046
16552SOL     OW62128   5.786   7.681   8.721  0.2507 -0.0346  0.5858
16552SOL    HW162129   5.782   7.761   8.780 -0.4741  1.5270 -1.5291
16552SOL    HW262130   5.877   7.639   8.726  0.6097  0.8822  1.7503
16553SOL     OW62131   5.610   0.569   5.687  0.3826 -0.5099  0.3208
16553SOL    HW162132   5.698   0.615   5.701  0.6979 -0.5780 -1.4045
16553SOL    HW262133   5.582   0.527   5.773  1.1256  1.0750  1.3770
16554SOL     OW62134   6.803   5.937   3.643  0.1292  0.0287  0.3095
16554SOL    HW162135   6.867   5.860   3.635 -0.8091 -0.7852  0.5832
16554SOL    HW262136   6.717   5.914   3.597 -1.1460 -0.1509  2.7308
16555SOL     OW62137   0.292   4.325   3.606  0.2034  0.2974 -0.0496
16555SOL    HW162138   0.267   4.328   3.510  0.7305  0.1612 -0.1929
16555SOL    HW262139   0.392   4.331   3.615  0.0927  1.4380  0.5334
16556SOL     OW62140   3.698   6.870   7.693  0.2670 -0.2943  0.1677
16556SOL    HW162141   3.769   6.844   7.627 -1.4247 -3.2901 -0.5967
16556SOL    HW262142   3.696   6.802   7.767  0.6192  1.7910  2.1304
16557SOL     OW62143   4.685   8.233   5.927 -0.4963  0.0663  0.5857
16557SOL    HW162144   4.716   8.140   5.947 -0.1118 -0.0822 -0.6668
16557SOL    HW262145   4.724   8.296   5.994 -2.3780 -0.9170  2.6738
16558SOL     OW62146   7.423   5.714   1.708 -0.2705  0.1740  0.1457
16558SOL    HW162147   7.414   5.772   1.627 -0.9849 -1.0689 -0.6828
16558SOL    HW262148   7.516   5.677   1.712 -0.4042 -0.2362 -0.4450
16559SOL     OW62149   7.865   5.507   2.700 -0.2441  0.1896 -0.1906
16559SOL    HW162150   7.841   5.512   2.797  0.2826  1.1521 -0.1040
16559SOL    HW262151   7.890   5.413   2.677 -0.7986 -0.1340  0.5068
16560SOL     OW62152   5.544   3.997   5.604 -0.2701  0.0497  0.1790
16560SOL    HW162153   5.514   3.956   5.518  0.1726  0.6967 -0.2908
16560SOL    HW262154   5.508   3.944   5.681  0.0084 -1.0037 -0.4134
16561SOL     OW62155   8.365   0.157   6.059 -0.1814  0.5624  0.3985
16561SOL    HW162156   8.451   0.184   6.102 -0.4273  0.3996  1.0002
16561SOL    HW262157   8.347   0.061   6.077 -0.7113  0.7061  0.6704
16562SOL     OW62158   2.243   6.866   8.185 -0.7239  0.6810  0.1191
16562SOL    HW162159   2.291   6.829   8.105 -0.2407  1.6925 -0.0725
16562SOL    HW262160   2.233   6.965   8.174 -1.5846  0.6784  0.8349
16563SOL     OW62161   0.884   1.074   0.758  0.2901  0.4190 -0.0143
16563SOL    HW162162   0.969   1.125   0.750  0.1637  0.5224 -0.8009
16563SOL    HW262163   0.851   1.077   0.852  1.5708 -0.2969  0.4729
16564SOL     OW62164   1.875   3.778   7.122 -0.1374  0.1252 -0.0097
16564SOL    HW162165   1.972   3.784   7.143 -0.0161  2.9603 -1.2402
16564SOL    HW262166   1.841   3.688   7.150  2.3293 -0.1271  2.4134
16565SOL     OW62167   5.541   1.871   1.225 -0.0789 -0.2097  0.3737
16565SOL    HW162168   5.450   1.829   1.225  0.2920 -1.0603 -1.5663
16565SOL    HW262169   5.532   1.970   1.208 -0.6062 -0.4386 -0.7578
16566SOL     OW62170   6.307   7.014   2.293  0.4081 -0.5587  0.4200
16566SOL    HW162171   6.292   7.006   2.195  2.5475 -0.4030  0.0428
16566SOL    HW262172   6.231   7.063   2.335 -0.4152 -0.4340 -1.1889
16567SOL     OW62173   8.334   4.894   5.982  0.1221  0.2922 -0.3252
16567SOL    HW162174   8.351   4.796   5.980 -0.4361  0.2052 -0.6765
16567SOL    HW262175   8.243   4.912   6.019  0.8770  0.7552  1.3477
16568SOL     OW62176   7.182   2.647   0.611 -0.2768 -0.0702  0.3704
16568SOL    HW162177   7.108   2.582   0.594 -1.2221  0.4332  2.3883
16568SOL    HW262178   7.254   2.634   0.543 -3.2804  1.1011 -3.2375
16569SOL     OW62179   5.481   0.096   7.029  0.0129  0.5344  0.8402
16569SOL    HW162180   5.563   0.136   7.070 -0.3528  3.8134 -1.4840
16569SOL    HW262181   5.505   0.053   6.942 -0.6013  0.7117  0.5851
16570SOL     OW62182   8.282   7.170   3.105  0.0082 -0.8323 -0.0863
16570SOL    HW162183   8.208   7.235   3.124  0.0325 -0.6316 -0.6528
16570SOL    HW262184   8.242   7.082   3.079 -0.0311 -0.8384 -0.0024
16571SOL     OW62185   8.264   4.956   0.892 -0.3315  0.5260  0.3292
16571SOL    HW162186   8.208   4.939   0.811  0.3343 -0.7836  0.1210
16571SOL    HW262187   8.210   4.938   0.974 -0.9171  1.5628  0.1757
16572SOL     OW62188   5.174   8.641   5.443 -0.5137 -0.0829  0.2348
16572SOL    HW162189   5.084   8.686   5.440 -0.5550 -0.1513  0.4275
16572SOL    HW262190   5.163   8.543   5.428 -0.4319 -0.0372 -0.1120
16573SOL     OW62191   4.030   8.074   7.133  0.1080 -0.1951  0.0120
16573SOL    HW162192   4.101   8.120   7.079 -0.2838  0.7082  0.2642
16573SOL    HW262193   4.002   8.133   7.209 -0.4020 -0.8488  0.3333
16574SOL     OW62194   6.736   6.374   6.549  0.4299  0.1417 -0.2703
16574SOL    HW162195   6.726   6.279   6.578 -1.5810 -0.6636 -3.2843
16574SOL    HW262196   6.800   6.379   6.472 -0.4857  1.0043 -0.9978
16575SOL     OW62197   1.617   2.214   5.526 -0.2224  0.3118  0.5273
16575SOL    HW162198   1.561   2.220   5.443 -0.2468 -1.0786  0.4350
16575SOL    HW262199   1.558   2.222   5.607 -0.1484  2.0695  0.4139
16576SOL     OW62200   2.825   8.461   0.971  0.0692 -0.4431  0.0283
16576SOL    HW162201   2.785   8.541   0.926  0.4248  0.3244  1.0616
16576SOL    HW262202   2.851   8.485   1.065 -1.6973 -2.3283  1.0224
16577SOL     OW62203   7.825   0.411   1.154  0.2729 -0.6801 -0.2408
16577SOL    HW162204   7.891   0.402   1.079  1.1149 -1.1126  0.5361
16577SOL    HW262205   7.853   0.487   1.213  1.0039 -1.9073  1.0107
16578SOL     OW62206   3.115   3.521   3.768 -0.7456 -0.3124  0.2120
16578SOL    HW162207   3.053   3.482   3.837  2.0776 -1.0503  2.4150
16578SOL    HW262208   3.163   3.447   3.721 -0.4757  0.3040 -0.4945
16579SOL     OW62209   7.995   5.297   5.812 -0.6542 -0.0825 -0.3464
16579SOL    HW162210   7.980   5.317   5.909 -2.1354 -0.0261 -0.5651
16579SOL    HW262211   8.080   5.339   5.782 -0.4873  0.4104  0.7881
16580SOL     OW62212   1.850   8.325   7.743  0.0517 -0.1498  0.3968
16580SOL    HW162213   1.809   8.346   7.832  0.5245 -1.1186  0.8470
16580SOL    HW262214   1.911   8.399   7.716  0.7787 -0.3815  1.4061
16581SOL     OW62215   8.661   4.821   3.812 -0.0982  0.3931  0.6844
16581SOL    HW162216   8.674   4.836   3.910  1.7396  1.1515  0.3360
16581SOL    HW262217   8.710   4.891   3.760 -0.1419 -0.6457 -0.7980
16582SOL     OW62218   1.192   2.312   8.841  0.4010 -0.1689 -0.6180
16582SOL    HW162219   1.093   2.308   8.824 -0.5021  0.8471  3.7966
16582SOL    HW262220   1.216   2.249   8.915  2.4484  2.0829  0.7354
16583SOL     OW62221   5.761   2.636   0.529 -0.4083 -0.9579 -0.4884
16583SOL    HW162222   5.824   2.649   0.606 -0.8803  1.5289 -0.4717
16583SOL    HW262223   5.684   2.579   0.558  0.8713 -2.4560  0.0273
16584SOL     OW62224   4.748   7.360   8.373  0.6254 -0.2225  0.6145
16584SOL    HW162225   4.723   7.399   8.461  1.4430  0.9665  0.3315
16584SOL    HW262226   4.825   7.410   8.335  0.3053 -0.7473 -0.7626
16585SOL     OW62227   5.825   2.481   8.047  0.4918 -0.0477 -0.0130
16585SOL    HW162228   5.800   2.571   8.010 -0.5009 -0.7023 -0.9800
16585SOL    HW262229   5.742   2.426   8.058  1.1888 -1.1559 -0.2715
16586SOL     OW62230   2.154   2.865   8.072 -0.5098 -0.3915  0.3053
16586SOL    HW162231   2.160   2.954   8.116 -0.1324 -0.0867 -0.3532
16586SOL    HW262232   2.246   2.827   8.061 -0.7975 -1.7724  2.4060
16587SOL     OW62233   4.950   2.783   0.825  0.6059 -0.5007  0.3619
16587SOL    HW162234   4.926   2.870   0.783  1.8859  0.2073  1.0770
16587SOL    HW262235   4.933   2.709   0.760 -1.7361  0.1301  0.1918
16588SOL     OW62236   3.244   6.960   0.365  0.4789 -0.3590 -0.0070
16588SOL    HW162237   3.202   7.025   0.302 -0.8882 -1.3414 -0.1281
16588SOL    HW262238   3.343   6.956   0.347  0.6708  2.1094  0.4299
16589SOL     OW62239   8.565   0.586   2.517 -1.1071 -0.0228  0.1956
16589SOL    HW162240   8.519   0.500   2.539  1.5715 -0.6147  4.1515
16589SOL    HW262241   8.514   0.662   2.556 -2.2976  0.0001 -1.3717
16590SOL     OW62242   1.072   1.599   0.164 -0.0901  0.6472 -0.1670
16590SOL    HW162243   1.102   1.504   0.160 -1.2368  0.2175  1.1892
16590SOL    HW262244   0.994   1.612   0.102  0.0566  0.6986 -0.3405
16591SOL     OW62245   2.537   6.760   4.515  0.2738  0.4887 -0.2143
16591SOL    HW162246   2.505   6.854   4.501  0.0360  0.8668  2.5753
16591SOL    HW262247   2.588   6.730   4.434 -1.3880  2.2735 -1.9738
16592SOL     OW62248   1.774   0.942   6.463 -0.0030  0.7153 -0.8654
16592SOL    HW162249   1.836   0.894   6.400  0.7878  1.3399 -0.5751
16592SOL    HW262250   1.800   1.039   6.467  3.2683 -0.1975  4.3205
16593SOL     OW62251   3.710   4.953   4.129  0.3550  0.3117  0.2851
16593SOL    HW162252   3.778   4.917   4.065  0.8654  2.5134 -0.4453
16593SOL    HW262253   3.756   5.001   4.203 -0.3269 -0.3309  1.1311
16594SOL     OW62254   4.587   4.206   5.016 -0.1362 -0.1816 -0.0129
16594SOL    HW162255   4.679   4.201   4.976 -0.9627 -1.0302 -1.9076
16594SOL    HW262256   4.538   4.122   4.995 -1.0285 -0.1346  1.8305
16595SOL     OW62257   5.150   4.320   1.094 -0.2106  0.2801  0.4236
16595SOL    HW162258   5.228   4.311   1.156  0.2704 -1.0650 -0.3484
16595SOL    HW262259   5.183   4.316   0.999 -1.0168  1.5820  0.0675
16596SOL     OW62260   1.583   8.569   8.274 -0.5032 -0.1040  0.9827
16596SOL    HW162261   1.528   8.546   8.193 -0.9233  0.7684  1.0213
16596SOL    HW262262   1.589   8.668   8.283  2.2980 -0.1666  0.1460
16597SOL     OW62263   0.185   0.499   5.900 -0.0487 -0.0591  0.0449
16597SOL    HW162264   0.121   0.518   5.975 -3.0061 -2.2397 -1.7959
16597SOL    HW262265   0.161   0.555   5.820  1.9787  0.9689  0.1294
16598SOL     OW62266   8.720   5.069   1.265  0.0315  0.0839  0.4102
16598SOL    HW162267   8.780   5.148   1.279  0.5674 -0.5571  1.8340
16598SOL    HW262268   8.632   5.087   1.308 -1.3415  1.5773 -2.8192
16599SOL     OW62269   1.699   4.091   1.472 -0.0668 -0.3201 -0.0729
16599SOL    HW162270   1.758   4.028   1.421 -0.9744 -1.6578  0.5173
16599SOL    HW262271   1.723   4.186   1.449  1.0623 -0.8875 -1.2389
16600SOL     OW62272   1.581   4.136   5.746  0.1343  0.2601 -0.0782
16600SOL    HW162273   1.671   4.127   5.788  0.8631  1.2931 -1.3738
16600SOL    HW262274   1.519   4.068   5.785  1.3094 -0.0888  1.2321
16601SOL     OW62275   6.149   5.507   3.892  0.0783  0.1747  0.3601
16601SOL    HW162276   6.153   5.497   3.992  0.0908  0.4493  0.3894
16601SOL    HW262277   6.066   5.466   3.857 -0.4064  0.9385  0.5967
16602SOL     OW62278   5.218   5.748   8.740  0.3202 -0.8019 -0.6906
16602SOL    HW162279   5.295   5.794   8.696  0.1501 -0.9559 -1.1456
16602SOL    HW262280   5.132   5.787   8.708  0.2017 -0.6612 -0.2137
16603SOL     OW62281   7.672   7.175   4.646 -0.6871 -0.1385 -1.0023
16603SOL    HW162282   7.700   7.254   4.592 -2.5665 -0.8078 -3.0406
16603SOL    HW262283   7.573   7.179   4.662 -0.0593  0.4235  3.0719
16604SOL     OW62284   6.266   8.406   3.315 -0.3624 -0.0580 -0.5511
16604SOL    HW162285   6.176   8.451   3.310 -0.7439 -0.9889 -2.4396
16604SOL    HW262286   6.269   8.348   3.396 -0.5214  1.9365  0.9277
16605SOL     OW62287   0.662   1.145   6.453 -0.8141 -0.2176 -0.3078
16605SOL    HW162288   0.691   1.183   6.541 -1.6572 -1.3344  0.4700
16605SOL    HW262289   0.741   1.111   6.403 -0.4787 -0.8914  0.6645
16606SOL     OW62290   7.520   5.529   3.636  0.4092 -0.0447  0.4568
16606SOL    HW162291   7.540   5.598   3.706  1.2759 -0.3601  0.5336
16606SOL    HW262292   7.549   5.563   3.547 -1.8571  0.8672  0.0534
16607SOL     OW62293   2.164   3.089   1.727 -0.6242  0.2538 -0.0210
16607SOL    HW162294   2.177   3.008   1.670  0.3799  0.7096 -0.4569
16607SOL    HW262295   2.223   3.084   1.807 -2.4128 -0.6266  1.2693
16608SOL     OW62296   7.744   3.738   5.793  0.2918  0.1440  0.1884
16608SOL    HW162297   7.702   3.780   5.873 -0.9416 -0.5853 -0.0762
16608SOL    HW262298   7.781   3.648   5.817 -2.0576 -1.0541 -0.5679
16609SOL     OW62299   4.034   8.591   7.109  0.1074 -0.2598  0.5358
16609SOL    HW162300   3.941   8.567   7.135  0.2640 -1.2648  0.2160
16609SOL    HW262301   4.085   8.620   7.190 -0.2445 -0.5310  0.8565
16610SOL     OW62302   8.489   6.569   6.587  0.7520 -0.0364  0.0968
16610SOL    HW162303   8.391   6.556   6.605  0.3221  0.5060 -1.7286
16610SOL    HW262304   8.527   6.483   6.552  0.6237  0.1411 -0.4817
16611SOL     OW62305   5.897   6.917   0.054 -0.0772  0.1780  0.6773
16611SOL    HW162306   5.870   7.011   0.034 -1.4999 -0.8499 -2.6932
16611SOL    HW262307   5.989   6.900   0.019 -0.1036  0.1506  0.6190
16612SOL     OW62308   8.658   7.336   7.774  0.0038  0.0827  0.1196
16612SOL    HW162309   8.708   7.402   7.830  0.6601 -0.5468  0.2782
16612SOL    HW262310   8.711   7.313   7.693 -0.2558 -0.2008  0.0269
16613SOL     OW62311   6.327   3.955   1.667 -0.7919 -0.2446 -0.5639
16613SOL    HW162312   6.270   3.981   1.745  1.0709  0.3950  0.6090
16613SOL    HW262313   6.423   3.968   1.690 -0.0556 -3.1620 -1.8357
16614SOL     OW62314   4.091   7.902   4.572  0.1082 -0.0950  0.3534
16614SOL    HW162315   4.044   7.988   4.549  2.8747  1.5792  0.7177
16614SOL    HW262316   4.076   7.836   4.499 -0.4354  1.3770 -0.8968
16615SOL     OW62317   6.317   6.220   5.363 -0.6578 -0.3434  1.0675
16615SOL    HW162318   6.392   6.155   5.375  0.3830  0.9495  1.6695
16615SOL    HW262319   6.245   6.178   5.307 -0.4329 -2.3317  2.2474
16616SOL     OW62320   4.864   5.639   7.442 -0.4727  0.0168 -0.6618
16616SOL    HW162321   4.790   5.571   7.442 -0.6379  0.1965 -0.9214
16616SOL    HW262322   4.942   5.603   7.493 -0.5966 -0.3261 -0.7142
16617SOL     OW62323   4.387   2.742   8.256 -0.1864 -0.9303  0.8668
16617SOL    HW162324   4.301   2.793   8.248 -0.6604 -1.2396  3.3738
16617SOL    HW262325   4.387   2.666   8.191 -0.6841  0.5580 -0.9329
16618SOL     OW62326   5.986   7.186   1.281 -0.0107 -0.1566 -0.2252
16618SOL    HW162327   5.912   7.121   1.261 -1.2601  0.8661  0.9314
16618SOL    HW262328   5.984   7.260   1.213  0.0530 -0.2241 -0.2996
16619SOL     OW62329   7.232   6.583   2.597 -0.6515 -0.6008  0.6867
16619SOL    HW162330   7.265   6.595   2.503 -0.7847  0.1519  0.7407
16619SOL    HW262331   7.159   6.514   2.598  0.0138 -1.3244  0.3823
16620SOL     OW62332   2.592   6.765   6.941  0.1513 -0.1727  0.3511
16620SOL    HW162333   2.678   6.736   6.899  0.4508  1.3361 -0.0858
16620SOL    HW262334   2.604   6.855   6.982 -1.6928  0.7922 -1.1694
16621SOL     OW62335   0.374   5.329   8.104  0.4876 -0.0339  0.1245
16621SOL    HW162336   0.330   5.403   8.054 -0.6908 -0.4699  0.4963
16621SOL    HW262337   0.472   5.330   8.085  0.5109  1.6928  0.2308
16622SOL     OW62338   1.017   1.127   4.857 -0.0280 -0.4051 -0.0053
16622SOL    HW162339   1.045   1.155   4.949  0.8489  0.1914 -0.4466
16622SOL    HW262340   0.919   1.143   4.846 -0.2752 -1.1436  1.0630
16623SOL     OW62341   1.203   5.112   1.125  0.5151  0.2788  0.0691
16623SOL    HW162342   1.193   5.060   1.041  1.5463 -0.0890  0.1668
16623SOL    HW262343   1.231   5.050   1.199 -0.7356  0.5343  0.7592
16624SOL     OW62344   7.130   5.197   5.956 -0.5923 -0.0486  0.5418
16624SOL    HW162345   7.177   5.267   5.902 -0.5919 -0.6808 -0.2897
16624SOL    HW262346   7.103   5.235   6.044 -3.0759  1.8332 -0.9620
16625SOL     OW62347   5.619   1.070   0.252 -0.0373 -0.3161  0.1257
16625SOL    HW162348   5.534   1.084   0.202 -0.7117 -0.4750  1.1999
16625SOL    HW262349   5.642   0.972   0.252  0.3157 -0.2349 -0.4296
16626SOL     OW62350   1.664   4.670   2.479 -0.7653  0.0450  0.0982
16626SOL    HW162351   1.633   4.645   2.571 -0.8956 -0.3365 -0.0507
16626SOL    HW262352   1.635   4.601   2.414 -0.5606  0.2517 -0.2134
16627SOL     OW62353   8.018   5.782   2.935  0.6042 -0.4132  0.0282
16627SOL    HW162354   8.040   5.878   2.950 -3.0337  0.7065 -1.2073
16627SOL    HW262355   8.010   5.765   2.836  0.7108 -1.8589  0.2619
16628SOL     OW62356   6.441   1.027   0.120 -0.2321  0.0711 -0.5576
16628SOL    HW162357   6.514   1.051   0.183 -0.3414 -1.7103  0.2884
16628SOL    HW262358   6.371   1.099   0.119 -0.4897 -0.1281  1.7806
16629SOL     OW62359   2.584   8.473   2.434  0.3216 -0.8311 -0.6206
16629SOL    HW162360   2.609   8.397   2.374  2.4025 -0.8049  0.1754
16629SOL    HW262361   2.646   8.475   2.512  0.8019  2.1545 -1.0235
16630SOL     OW62362   2.374   4.037   8.572 -0.0061 -0.7394  0.0538
16630SOL    HW162363   2.411   4.055   8.664 -2.1830  1.6973  0.4994
16630SOL    HW262364   2.374   4.122   8.519 -1.0349 -1.6124 -1.3802
16631SOL     OW62365   0.080   6.323   0.417  0.9309  0.0452 -0.0220
16631SOL    HW162366   0.154   6.260   0.440  0.3770 -1.1500 -1.4263
16631SOL    HW262367   0.005   6.311   0.482  1.7792  0.9523  1.1448
16632SOL     OW62368   6.551   5.369   4.487 -0.1565  0.1820  0.3522
16632SOL    HW162369   6.627   5.434   4.486 -0.3052  0.3693  1.1942
16632SOL    HW262370   6.558   5.308   4.408 -0.7399  2.0507 -1.1855
16633SOL     OW62371   4.112   2.032   2.817 -0.3354  0.0416  1.4521
16633SOL    HW162372   4.156   1.943   2.828 -1.1914 -0.1838  3.1908
16633SOL    HW262373   4.015   2.019   2.799  0.1572  0.5541 -1.8891
16634SOL     OW62374   1.496   5.402   0.955 -0.7005  0.6853 -0.0379
16634SOL    HW162375   1.516   5.463   1.032  1.9863 -1.4709  1.0568
16634SOL    HW262376   1.578   5.348   0.933 -2.5213 -1.3697 -2.0264
16635SOL     OW62377   7.970   5.214   3.039 -0.0356 -0.1044  0.1788
16635SOL    HW162378   8.037   5.140   3.043 -0.4702 -0.4649  0.9107
16635SOL    HW262379   8.017   5.301   3.024  0.5796 -0.3799  0.4998
16636SOL     OW62380   7.426   8.018   8.793 -0.4007 -0.6762  0.8478
16636SOL    HW162381   7.358   8.019   8.866 -1.7324 -2.6741 -0.3049
16636SOL    HW262382   7.399   8.082   8.721 -1.5274 -2.0687  0.0125
16637SOL     OW62383   1.301   3.733   6.898  0.4804  0.2018  0.4201
16637SOL    HW162384   1.314   3.831   6.915 -1.6601  0.5112  0.4749
16637SOL    HW262385   1.284   3.686   6.985  1.5239 -0.2146  0.3946
16638SOL     OW62386   3.929   0.743   5.800  0.5108 -0.2608 -0.2852
16638SOL    HW162387   3.924   0.666   5.865  1.2629 -0.3305 -0.3038
16638SOL    HW262388   3.853   0.737   5.736 -0.3533 -0.0859  0.7105
16639SOL     OW62389   4.927   4.739   2.074 -0.0726 -0.1944 -0.0838
16639SOL    HW162390   4.996   4.794   2.029 -0.7636 -1.1901 -2.4563
16639SOL    HW262391   4.850   4.724   2.011 -1.8998 -0.1256  2.0597
16640SOL     OW62392   2.138   6.361   3.013 -0.6068  0.0838  0.9721
16640SOL    HW162393   2.224   6.339   3.059  1.0048  1.6346 -1.1695
16640SOL    HW262394   2.106   6.451   3.043  0.1348  0.8331 -0.3798
16641SOL     OW62395   4.632   8.890   0.008  0.3508 -0.1478 -0.1441
16641SOL    HW162396   4.624   8.860  -0.087  0.9832 -0.8545  0.0239
16641SOL    HW262397   4.728   8.910   0.030  0.4749 -1.7916  0.8852
16642SOL     OW62398   0.915   7.783   2.355 -0.8205 -0.5446 -0.1982
16642SOL    HW162399   0.926   7.824   2.264  0.2353  0.6445  0.4407
16642SOL    HW262400   0.824   7.803   2.390 -0.4326  1.0327 -0.0348
16643SOL     OW62401   8.028   8.750   0.669  0.5829 -0.1190 -0.5646
16643SOL    HW162402   7.969   8.670   0.680  0.1950  0.1180 -0.9021
16643SOL    HW262403   8.124   8.722   0.678  0.4529 -0.6395 -0.7757
16644SOL     OW62404   0.620   1.669   6.335  0.6429  0.6490  1.0289
16644SOL    HW162405   0.561   1.629   6.264  1.8083  2.4673 -1.0077
16644SOL    HW262406   0.568   1.739   6.385  0.4506  0.8458  0.5627
16645SOL     OW62407   8.242   3.259   6.509  0.3956 -0.0665 -0.4813
16645SOL    HW162408   8.277   3.166   6.496 -0.2579 -0.0924 -2.0871
16645SOL    HW262409   8.310   3.325   6.477 -0.2213 -0.0667 -1.8061
16646SOL     OW62410   5.181   8.125   8.196  0.2140 -0.3997 -0.2285
16646SOL    HW162411   5.220   8.215   8.177  0.6545  0.3473  3.8842
16646SOL    HW262412   5.081   8.131   8.198  0.3007  0.8451  3.5222
16647SOL     OW62413   1.675   4.378   6.043  0.2076  0.7699 -0.3129
16647SOL    HW162414   1.597   4.317   6.033  0.0522  1.0913 -1.0838
16647SOL    HW262415   1.741   4.362   5.970  1.5650 -0.4921  1.1356
16648SOL     OW62416   8.227   4.292   6.783 -0.3966 -0.0244 -0.2829
16648SOL    HW162417   8.189   4.310   6.874  0.1379 -0.2585 -0.0064
16648SOL    HW262418   8.315   4.245   6.793  0.2722  1.0816 -0.8838
16649SOL     OW62419   2.463   1.267   7.229 -0.6936 -0.2386  0.0770
16649SOL    HW162420   2.436   1.357   7.263  1.7746 -0.4491  2.7643
16649SOL    HW262421   2.513   1.277   7.143 -1.6565  0.8218 -0.3695
16650SOL     OW62422   2.029   4.737   1.509  0.4281 -0.1404  0.5229
16650SOL    HW162423   1.953   4.684   1.548 -1.1439 -0.6114 -2.9411
16650SOL    HW262424   2.075   4.788   1.581 -3.3399  0.3521  2.7072
16651SOL     OW62425   5.652   1.771   2.201 -0.3763 -1.2055  0.0724
16651SOL    HW162426   5.627   1.778   2.297 -0.3711  0.7617 -0.0494
16651SOL    HW262427   5.745   1.734   2.193  0.2750  0.2192  0.8970
16652SOL     OW62428   5.144   5.850   2.487  0.5653  0.1596 -0.1552
16652SOL    HW162429   5.117   5.893   2.573  1.4721  0.5384 -0.0524
16652SOL    HW262430   5.157   5.752   2.502  2.7874  0.5472  0.6636
16653SOL     OW62431   0.159   1.971   7.968 -0.2065 -0.2051  0.3783
16653SOL    HW162432   0.191   1.882   7.937 -0.0193 -0.3274  0.9271
16653SOL    HW262433   0.060   1.971   7.974 -0.1565 -0.6109  1.1201
16654SOL     OW62434   5.320   1.352   5.198 -0.0573  0.0482 -0.2320
16654SOL    HW162435   5.371   1.318   5.277 -0.8598  1.0708  0.7302
16654SOL    HW262436   5.375   1.420   5.150 -0.0735  0.3482  0.1750
16655SOL     OW62437   2.570   6.874   5.041 -0.0630 -0.2640 -0.6959
16655SOL    HW162438   2.617   6.795   5.081 -0.1721 -0.4473 -0.9284
16655SOL    HW262439   2.523   6.846   4.958  0.7057  0.2528 -1.3083
16656SOL     OW62440   7.733   2.110   2.360  0.4117 -0.0924  0.0021
16656SOL    HW162441   7.668   2.173   2.402  1.0438 -0.6166  1.8344
16656SOL    HW262442   7.823   2.153   2.356  0.6109 -0.4835  0.2566
16657SOL     OW62443   3.840   6.127   8.519 -0.0635  0.6578  0.0706
16657SOL    HW162444   3.934   6.109   8.547 -0.8444 -1.1938  1.5854
16657SOL    HW262445   3.806   6.051   8.465 -0.6149  1.4531 -0.7147
16658SOL     OW62446   8.112   6.946   0.332  0.1528  0.7813  0.5676
16658SOL    HW162447   8.046   6.995   0.389 -1.1666 -1.0562  0.6564
16658SOL    HW262448   8.161   6.879   0.388  0.1433  0.2248 -0.0892
16659SOL     OW62449   5.657   2.598   3.110 -0.2279  0.6695 -0.3136
16659SOL    HW162450   5.557   2.595   3.105 -0.3081 -0.4809  1.5397
16659SOL    HW262451   5.684   2.652   3.190  0.5838 -1.2834  0.7507
16660SOL     OW62452   8.286   4.745   1.399  0.2821  0.8308 -0.7968
16660SOL    HW162453   8.235   4.664   1.373  0.2079 -0.2069  2.3129
16660SOL    HW262454   8.224   4.814   1.436  0.6326  1.2627 -1.0069
16661SOL     OW62455   1.511   7.981   5.836  0.6595 -0.2544  0.4500
16661SOL    HW162456   1.463   7.893   5.842  1.3332 -0.5621  1.3561
16661SOL    HW262457   1.459   8.043   5.777 -0.9964 -0.5023  1.6215
16662SOL     OW62458   8.336   5.605   1.885 -0.0900 -0.2841  0.5182
16662SOL    HW162459   8.300   5.696   1.868 -1.0544 -0.3363  2.1480
16662SOL    HW262460   8.261   5.538   1.889  0.3127 -0.6819  2.0938
16663SOL     OW62461   0.066   7.779   4.976 -0.1727 -0.6275  0.5312
16663SOL    HW162462   0.129   7.763   5.052 -0.8166  0.7056  1.3560
16663SOL    HW262463  -0.016   7.825   5.009 -0.0941  0.7372 -1.0963
16664SOL     OW62464   7.796   2.522   5.895  0.9254 -0.4037 -0.8421
16664SOL    HW162465   7.825   2.596   5.834  1.7135 -1.4190 -1.7208
16664SOL    HW262466   7.832   2.539   5.987 -1.4963  1.8916 -0.2713
16665SOL     OW62467   7.805   4.555   7.795  0.5589 -0.0325 -0.3718
16665SOL    HW162468   7.738   4.596   7.857  0.3972  0.0457 -0.5998
16665SOL    HW262469   7.815   4.611   7.713  0.8410 -0.0891 -0.3781
16666SOL     OW62470   8.356   1.128   2.446  0.4532  0.0032 -0.7921
16666SOL    HW162471   8.329   1.125   2.350 -0.8255  0.3089 -0.4568
16666SOL    HW262472   8.455   1.141   2.452  0.5326  0.1156 -2.0643
16667SOL     OW62473   4.290   5.897   7.420 -0.0191 -0.2737  0.2817
16667SOL    HW162474   4.215   5.943   7.467  0.2361  0.9702 -0.5051
16667SOL    HW262475   4.369   5.890   7.481 -0.1048  0.2160  0.4462
16668SOL     OW62476   5.664   5.085   8.742 -0.6278  0.0046 -0.0506
16668SOL    HW162477   5.627   5.080   8.835  0.8396  0.7600  0.5871
16668SOL    HW262478   5.611   5.025   8.682 -3.1686  1.4187  0.7256
16669SOL     OW62479   2.655   4.331   8.382  0.4536  0.3907 -0.6006
16669SOL    HW162480   2.684   4.423   8.409  2.3522  0.2043 -1.9412
16669SOL    HW262481   2.735   4.275   8.362 -0.6862 -1.5520  0.1110
16670SOL     OW62482   1.454   1.445   5.122  0.1201  0.2492 -0.8077
16670SOL    HW162483   1.535   1.392   5.148 -0.3348  0.4009  0.9846
16670SOL    HW262484   1.461   1.472   5.026  2.3922  0.6208 -0.5613
16671SOL     OW62485   4.860   1.850   3.629  0.1359 -0.2886  0.2073
16671SOL    HW162486   4.874   1.827   3.533  0.8338  1.3746 -0.1112
16671SOL    HW262487   4.801   1.930   3.636 -1.4649 -1.5275  1.2496
16672SOL     OW62488   8.563   5.220   6.921  0.2590 -0.1129  0.4506
16672SOL    HW162489   8.489   5.288   6.929 -1.0981 -1.1644 -2.4339
16672SOL    HW262490   8.541   5.141   6.978 -0.7664 -0.3359 -0.2400
16673SOL     OW62491   7.646   6.135   3.204 -0.5219  0.0946  0.9959
16673SOL    HW162492   7.728   6.111   3.152 -1.2214  1.8177 -0.9501
16673SOL    HW262493   7.672   6.161   3.297  0.8413 -2.0988  1.2727
16674SOL     OW62494   4.680   3.831   2.494  0.5257  0.0118  0.0045
16674SOL    HW162495   4.583   3.818   2.515  1.1438 -2.0929  1.7103
16674SOL    HW262496   4.691   3.839   2.395 -1.0174 -3.5987 -0.5263
16675SOL     OW62497   0.254   4.918   4.506  0.1580  0.3885  0.0056
16675SOL    HW162498   0.244   4.983   4.581  0.7407 -0.2253  0.6171
16675SOL    HW262499   0.336   4.941   4.453 -0.0826  0.6341 -0.2649
16676SOL     OW62500   4.694   6.436   6.211 -0.0319  0.4227  0.4308
16676SOL    HW162501   4.677   6.526   6.252 -1.2925  0.4667 -0.1651
16676SOL    HW262502   4.681   6.441   6.112 -1.4506 -0.7303  0.5439
16677SOL     OW62503   7.101   3.094   2.469 -0.3817 -0.2870  0.6488
16677SOL    HW162504   7.094   3.151   2.551 -0.4306 -1.4581  1.4755
16677SOL    HW262505   7.088   2.998   2.494 -0.6426 -0.6378 -0.7743
16678SOL     OW62506   8.900   4.418   8.890 -0.0734  0.0870 -0.6634
16678SOL    HW162507   8.927   4.502   8.845 -0.5262  0.3298 -0.4867
16678SOL    HW262508   8.816   4.382   8.848  0.0235 -0.1821 -0.6292
16679SOL     OW62509   4.686   2.687   1.133 -0.0537 -0.1173  0.1296
16679SOL    HW162510   4.786   2.690   1.127 -0.1668  1.4479 -1.7056
16679SOL    HW262511   4.655   2.593   1.118  1.1046 -0.4723 -0.1461
16680SOL     OW62512   3.233   8.825   6.501  0.1340  0.0592  0.3671
16680SOL    HW162513   3.135   8.836   6.516  0.2294  2.0798 -0.3258
16680SOL    HW262514   3.268   8.902   6.447  2.2873 -0.1224  1.4277
16681SOL     OW62515   3.973   3.065   8.658  0.1867 -0.4557 -0.2878
16681SOL    HW162516   4.066   3.033   8.671  0.6298  0.7516 -0.3595
16681SOL    HW262517   3.944   3.049   8.564 -0.1938 -2.1121  0.1043
16682SOL     OW62518   1.226   0.204   8.387  0.6562  0.7163 -0.3763
16682SOL    HW162519   1.301   0.144   8.415  0.0783  0.8519  1.5490
16682SOL    HW262520   1.263   0.294   8.362  1.2924  0.2765 -1.0501
16683SOL     OW62521   4.726   6.405   4.093  0.6862  0.1525  0.4955
16683SOL    HW162522   4.656   6.432   4.159  0.3034 -1.5115  0.7712
16683SOL    HW262523   4.813   6.393   4.141  0.8361  0.7456  0.3855
16684SOL     OW62524   1.554   3.450   7.540  0.1661  0.2692  0.6250
16684SOL    HW162525   1.576   3.539   7.581 -1.3357  0.3797  1.2042
16684SOL    HW262526   1.639   3.398   7.527  0.8901  1.1182  1.8394
16685SOL     OW62527   7.949   6.088   2.842  0.4763 -0.0142  0.2630
16685SOL    HW162528   7.951   6.151   2.765  1.4022  0.4301  0.6394
16685SOL    HW262529   7.943   6.139   2.928 -0.4394 -0.5016  0.4954
16686SOL     OW62530   0.917   4.768   3.332 -0.2571  0.1300 -0.6876
16686SOL    HW162531   0.838   4.829   3.341  0.8430  1.5982 -0.8002
16686SOL    HW262532   0.894   4.693   3.270 -0.7488  1.9588 -2.7949
16687SOL     OW62533   1.969   4.447   5.553 -0.9692  0.0546 -0.2828
16687SOL    HW162534   1.959   4.450   5.652  1.5778 -0.8650  0.0164
16687SOL    HW262535   2.004   4.534   5.520  0.8481 -0.5777 -0.0496
16688SOL     OW62536   4.884   7.441   2.070  0.7413  0.5118  0.1041
16688SOL    HW162537   4.785   7.454   2.078  0.4394 -1.8023  0.3797
16688SOL    HW262538   4.930   7.528   2.085 -1.1039  1.0837  2.7584
16689SOL     OW62539   8.968   4.429   3.037 -0.0706 -0.2689  0.6338
16689SOL    HW162540   8.931   4.428   2.944  0.9819 -0.2589  0.2011
16689SOL    HW262541   8.896   4.407   3.102 -0.9504  0.3031 -0.1376
16690SOL     OW62542   3.907   8.873   3.197  0.1128  0.0092 -0.3590
16690SOL    HW162543   3.944   8.888   3.289  1.4061  2.5639 -1.2621
16690SOL    HW262544   3.962   8.803   3.150 -0.8219 -1.6282  0.9291
16691SOL     OW62545   2.364   3.705   7.726  0.1283 -0.2820  0.0403
16691SOL    HW162546   2.372   3.615   7.768 -1.7552 -0.4230  0.1289
16691SOL    HW262547   2.456   3.741   7.707  0.8923 -2.7121 -1.0935
16692SOL     OW62548   7.491   0.898   7.134 -0.0309 -0.4562  0.0500
16692SOL    HW162549   7.418   0.875   7.069 -1.2627  0.7817  0.9689
16692SOL    HW262550   7.568   0.836   7.121 -0.3781 -0.4274 -2.3951
16693SOL     OW62551   0.471   0.996   0.390  0.2418  0.0172 -0.0289
16693SOL    HW162552   0.385   1.009   0.440 -0.1905 -0.4447 -0.6584
16693SOL    HW262553   0.473   0.905   0.351  0.5980  0.3693 -0.8308
16694SOL     OW62554   0.634   2.472   5.537 -0.2920  0.2262 -0.9689
16694SOL    HW162555   0.720   2.421   5.527  0.0606  0.7985 -0.8762
16694SOL    HW262556   0.633   2.518   5.625 -0.8215 -0.0083 -0.8508
16695SOL     OW62557   3.233   8.120   2.216 -0.4869  0.6606  0.4335
16695SOL    HW162558   3.239   8.213   2.181  0.9304  0.1000 -0.8533
16695SOL    HW262559   3.307   8.104   2.282 -0.5573  0.3741  0.4451
16696SOL     OW62560   4.131   0.357   8.355  0.2599 -0.2875 -0.6036
16696SOL    HW162561   4.195   0.372   8.431 -1.2951  1.8078  0.3601
16696SOL    HW262562   4.045   0.321   8.391 -0.7533  1.4280 -1.2459
16697SOL     OW62563   4.061   1.673   5.852  0.0144  0.0645  0.4350
16697SOL    HW162564   4.021   1.602   5.910 -1.3990  0.1630 -0.3926
16697SOL    HW262565   4.075   1.756   5.907 -0.1110 -0.2411  0.9391
16698SOL     OW62566   8.402   1.030   6.629  0.4736  0.1424  0.8435
16698SOL    HW162567   8.327   0.965   6.635 -0.7109  1.4407  0.2991
16698SOL    HW262568   8.400   1.090   6.709 -0.0972  1.2659 -0.0121
16699SOL     OW62569   7.809   6.587   1.114 -0.0771 -0.1410 -0.1014
16699SOL    HW162570   7.815   6.558   1.018 -0.3470  1.3251 -0.5782
16699SOL    HW262571   7.715   6.578   1.146  0.2766 -1.9557  0.4697
16700SOL     OW62572   4.003   2.209   2.044 -0.4524  0.5817 -0.1453
16700SOL    HW162573   4.043   2.289   2.089 -0.8580  0.9359 -0.4197
16700SOL    HW262574   4.068   2.132   2.050  0.8689  1.5288 -1.7994
16701SOL     OW62575   8.747   4.679   7.714 -0.0476 -0.1870 -0.1293
16701SOL    HW162576   8.794   4.675   7.626  2.5827  1.1918  1.1652
16701SOL    HW262577   8.719   4.587   7.741  1.1683 -0.9183 -1.3097
16702SOL     OW62578   8.576   4.425   5.455 -0.0003  0.0639 -0.3156
16702SOL    HW162579   8.477   4.436   5.453 -0.1192  0.0385  2.8935
16702SOL    HW262580   8.599   4.328   5.440 -0.5684 -0.2700  0.9746
16703SOL     OW62581   4.774   3.239   6.095 -0.0201 -0.0837  0.4247
16703SOL    HW162582   4.781   3.251   5.996 -4.3532  0.1485  0.0781
16703SOL    HW262583   4.783   3.142   6.117  1.2841 -0.1028 -0.1137
16704SOL     OW62584   5.122   8.516   7.067  0.5901 -0.7321  0.6451
16704SOL    HW162585   5.175   8.433   7.085  0.1416 -0.5618  2.8145
16704SOL    HW262586   5.031   8.507   7.106  0.7379  1.0272  1.4411
16705SOL     OW62587   8.422   5.530   7.480  0.5075  0.0856  0.2823
16705SOL    HW162588   8.501   5.481   7.517  0.7413 -0.4471 -0.8646
16705SOL    HW262589   8.392   5.484   7.396  0.4176  1.6293 -0.5518
16706SOL     OW62590   8.662   7.541   0.575  0.1113 -0.1784 -0.4312
16706SOL    HW162591   8.697   7.477   0.643  0.2576  1.2269  0.8541
16706SOL    HW262592   8.693   7.514   0.484  0.7729 -1.5020  0.1774
16707SOL     OW62593   8.800   2.712   8.156 -0.6721  0.5530  0.1471
16707SOL    HW162594   8.789   2.615   8.134  1.8660  0.3042 -0.2404
16707SOL    HW262595   8.785   2.767   8.074  4.0625 -0.0289 -1.2598
16708SOL     OW62596   0.691   8.493   5.182 -0.4705  0.3857  0.8591
16708SOL    HW162597   0.690   8.589   5.209  2.0477  0.6434  0.0910
16708SOL    HW262598   0.694   8.486   5.082 -0.6701 -0.4908  0.9060
16709SOL     OW62599   1.004   7.961   7.451 -0.6755 -0.0785  0.6392
16709SOL    HW162600   0.907   7.937   7.458 -0.6753 -0.5337 -0.8756
16709SOL    HW262601   1.059   7.878   7.464 -0.3544  0.6775  4.6335
16710SOL     OW62602   4.710   6.584   6.964 -0.6751 -0.4447 -0.0208
16710SOL    HW162603   4.735   6.487   6.963 -0.2904 -0.3418 -1.7128
16710SOL    HW262604   4.792   6.640   6.968 -0.8439 -0.1770 -0.2714
16711SOL     OW62605   0.351   8.613   6.734 -0.8069 -0.2035 -0.3365
16711SOL    HW162606   0.260   8.586   6.703 -0.8919  0.5384 -0.7286
16711SOL    HW262607   0.419   8.556   6.688 -0.9177  1.0081 -2.0665
16712SOL     OW62608   1.429   3.450   8.557  0.0999  0.0803  0.3626
16712SOL    HW162609   1.488   3.417   8.483  0.0713  1.6513 -0.3799
16712SOL    HW262610   1.334   3.434   8.533  0.1414 -0.6758  0.6863
16713SOL     OW62611   3.305   0.264   0.052  0.3126 -0.1223  0.5079
16713SOL    HW162612   3.379   0.197   0.049  1.0571  0.6163  1.9718
16713SOL    HW262613   3.289   0.293   0.146  0.2950  2.0810 -0.1408
16714SOL     OW62614   1.895   5.754   6.118  0.3526 -0.3119  0.0220
16714SOL    HW162615   1.840   5.705   6.050  1.1835 -0.6819 -0.3953
16714SOL    HW262616   1.843   5.832   6.153 -0.7999 -1.2222  0.3557
16715SOL     OW62617   2.625   1.754   3.405 -0.0579  0.1054  1.1197
16715SOL    HW162618   2.546   1.778   3.348 -2.0965 -0.6571  3.5504
16715SOL    HW262619   2.662   1.836   3.447  1.8501  0.7632 -1.7267
16716SOL     OW62620   8.537   6.875   4.838 -0.0034  0.6233  0.1702
16716SOL    HW162621   8.439   6.892   4.846 -0.2588 -0.1090 -1.1861
16716SOL    HW262622   8.575   6.932   4.766  0.2121 -0.4095 -0.5500
16717SOL     OW62623   8.694   4.393   2.327  0.5006 -0.0549 -0.1531
16717SOL    HW162624   8.608   4.426   2.286  1.2631 -2.4933 -3.9519
16717SOL    HW262625   8.764   4.463   2.316 -0.9184  1.9388  2.9254
16718SOL     OW62626   3.928   3.045   6.331  0.1698 -0.2185 -0.2027
16718SOL    HW162627   3.974   3.107   6.267 -1.4337 -0.2481 -1.4185
16718SOL    HW262628   3.937   3.081   6.424  2.9026 -0.4007 -0.3598
16719SOL     OW62629   0.632   4.271   4.450  0.4902  0.1509 -0.0416
16719SOL    HW162630   0.605   4.265   4.546  0.3868 -1.0800 -0.1307
16719SOL    HW262631   0.551   4.279   4.393  0.2147 -3.7512 -0.3229
16720SOL     OW62632   8.937   6.890   1.094 -0.1443 -0.0730  0.1966
16720SOL    HW162633   9.015   6.946   1.121 -0.1173  0.7858 -1.5887
16720SOL    HW262634   8.965   6.828   1.021 -0.9919 -0.1496 -0.0713
16721SOL     OW62635   8.257   1.157   5.304  0.2881  0.4249  0.4099
16721SOL    HW162636   8.290   1.150   5.209 -0.9965  0.3386 -0.0322
16721SOL    HW262637   8.280   1.248   5.340  0.0659  0.7539 -0.2647
16722SOL     OW62638   8.064   1.246   0.680 -0.8761 -0.1151 -0.1163
16722SOL    HW162639   8.016   1.330   0.654 -2.7447 -1.8370 -2.4938
16722SOL    HW262640   8.004   1.188   0.734 -0.2589 -0.7722 -0.1301
16723SOL     OW62641   5.807   0.790   2.014  0.1541 -0.6319 -0.6800
16723SOL    HW162642   5.847   0.767   1.925  3.1154  1.0020  0.1746
16723SOL    HW262643   5.739   0.862   2.002  0.5363 -0.4215 -1.6048
16724SOL     OW62644   5.638   4.023   3.280 -0.2487  0.5392  0.7223
16724SOL    HW162645   5.640   3.953   3.352  0.4745  1.3298  1.4723
16724SOL    HW262646   5.593   3.985   3.199 -0.7801 -0.4654  1.4722
16725SOL     OW62647   4.084   1.425   0.794 -0.0620  0.0585 -0.5541
16725SOL    HW162648   4.166   1.433   0.737  0.3986  0.4118  0.1622
16725SOL    HW262649   4.050   1.332   0.789  0.5384 -0.1598 -0.6335
16726SOL     OW62650   2.149   6.281   7.397  0.2055  0.2175  0.2820
16726SOL    HW162651   2.192   6.354   7.450  2.2586 -1.7570  1.4384
16726SOL    HW262652   2.094   6.223   7.458 -0.2152 -0.0530 -0.3531
16727SOL     OW62653   0.111   4.396   2.334 -0.4680 -0.0264 -0.4092
16727SOL    HW162654   0.129   4.483   2.287  0.1128  0.1326  0.0946
16727SOL    HW262655   0.053   4.338   2.276 -0.2681  0.4103 -1.0556
16728SOL     OW62656   0.499   3.672   4.734 -0.4056 -0.2550 -0.0115
16728SOL    HW162657   0.573   3.726   4.773 -0.2646 -1.3418  1.2535
16728SOL    HW262658   0.451   3.726   4.665 -0.2814  1.4869  1.2383
16729SOL     OW62659   8.262   3.723   4.692 -0.2213 -0.7956  0.2051
16729SOL    HW162660   8.181   3.723   4.633  0.7868  2.0491 -1.3139
16729SOL    HW262661   8.237   3.758   4.782 -0.8482 -0.5554 -0.0568
16730SOL     OW62662   1.636   8.790   6.417 -0.5642  0.2722  0.5082
16730SOL    HW162663   1.560   8.740   6.459 -0.6362 -1.1048 -1.2298
16730SOL    HW262664   1.683   8.844   6.488 -2.2459  0.0012  1.8641
16731SOL     OW62665   2.546   8.558   2.807 -0.1013 -0.1440  0.4812
16731SOL    HW162666   2.620   8.512   2.855  0.2425  0.4945  0.5675
16731SOL    HW262667   2.583   8.633   2.752 -0.7483  0.5484  0.9825
16732SOL     OW62668   7.421   4.302   7.024 -0.5218  0.1535  0.1057
16732SOL    HW162669   7.424   4.386   7.078 -1.0044  0.4968 -0.3882
16732SOL    HW262670   7.461   4.319   6.934 -0.6253 -0.1435  0.0031
16733SOL     OW62671   2.296   1.279   8.440 -0.3667  0.1445  0.0194
16733SOL    HW162672   2.255   1.199   8.483 -0.5572 -0.0851 -0.5877
16733SOL    HW262673   2.353   1.250   8.363 -1.2868  0.6777 -0.8637
16734SOL     OW62674   2.693   5.858   7.129  0.6569  0.1014  0.7605
16734SOL    HW162675   2.609   5.805   7.116  1.4608 -1.3464  1.3900
16734SOL    HW262676   2.669   5.953   7.147 -0.7676  0.2701 -1.8003
16735SOL     OW62677   7.603   2.749   8.160 -0.3561 -0.0167  0.4550
16735SOL    HW162678   7.665   2.697   8.101 -0.0939 -1.0183  1.6000
16735SOL    HW262679   7.512   2.707   8.158 -0.8896  1.1462 -0.8128
16736SOL     OW62680   7.539   3.135   3.960  0.4819  0.0363  0.2133
16736SOL    HW162681   7.625   3.116   4.008  1.0582 -0.1577 -0.8926
16736SOL    HW262682   7.465   3.141   4.027  1.5230  1.3141  1.2932
16737SOL     OW62683   0.162   1.126   3.547 -0.1153 -0.4812 -0.3088
16737SOL    HW162684   0.216   1.077   3.616 -2.1042 -3.6610 -0.9343
16737SOL    HW262685   0.065   1.112   3.565 -0.7054  1.5037 -1.8095
16738SOL     OW62686   7.898   2.340   4.466  0.2503  0.2421  0.3187
16738SOL    HW162687   7.873   2.433   4.492 -0.0035  0.0388  0.8152
16738SOL    HW262688   7.922   2.287   4.547 -0.9028 -0.5033  0.1933
16739SOL     OW62689   2.354   6.570   4.114  0.3183 -0.0187  0.2612
16739SOL    HW162690   2.306   6.497   4.065  0.9538  0.2560 -0.7739
16739SOL    HW262691   2.384   6.535   4.203  1.4030 -1.3030 -0.5852
16740SOL     OW62692   4.135   8.700   4.159  0.1984 -0.4146 -0.1338
16740SOL    HW162693   4.107   8.768   4.091 -1.1366 -1.7105 -0.9170
16740SOL    HW262694   4.232   8.680   4.148  1.2626  3.2587  1.8198
16741SOL     OW62695   0.230   6.056   7.254 -0.5688 -0.1941  0.7425
16741SOL    HW162696   0.200   6.110   7.176  1.6229 -0.3368 -0.2416
16741SOL    HW262697   0.184   6.087   7.337 -0.0364  2.5790  0.0258
16742SOL     OW62698   8.806   0.459   2.431 -0.1828 -0.7281 -0.1177
16742SOL    HW162699   8.820   0.471   2.333  1.2023  2.3489  0.3951
16742SOL    HW262700   8.719   0.501   2.458  0.8156  1.0747  0.3934
16743SOL     OW62701   0.398   1.483   1.937 -0.0497  0.2103 -0.2203
16743SOL    HW162702   0.329   1.498   1.866  0.8236 -0.4542 -1.2036
16743SOL    HW262703   0.354   1.491   2.027 -1.1010  1.3057 -0.8144
16744SOL     OW62704   2.548   3.069   6.609  0.1249  0.9012  0.2107
16744SOL    HW162705   2.586   3.077   6.701  0.3313 -0.0633  0.2131
16744SOL    HW262706   2.449   3.053   6.616  0.2666  0.0513  0.2844
16745SOL     OW62707   0.217   0.171   5.890 -0.8498 -0.4005  0.7766
16745SOL    HW162708   0.273   0.111   5.833 -0.2741  0.1248  0.7914
16745SOL    HW262709   0.203   0.258   5.844 -1.9320 -0.6520  0.6277
16746SOL     OW62710   0.266   2.133   6.500  0.7265  0.1956 -0.1062
16746SOL    HW162711   0.237   2.072   6.427 -0.4483  0.0810  0.4312
16746SOL    HW262712   0.359   2.166   6.483  0.2808  0.5594 -1.9059
16747SOL     OW62713   0.528   3.596   8.102 -0.1468 -0.6404  0.3823
16747SOL    HW162714   0.451   3.658   8.086 -0.7337 -1.6621 -0.8906
16747SOL    HW262715   0.535   3.532   8.026  2.7207  0.1916 -0.1265
16748SOL     OW62716   1.551   0.926   0.786 -0.1925 -0.0358  0.6321
16748SOL    HW162717   1.499   0.868   0.724  0.5719 -1.0270  0.9178
16748SOL    HW262718   1.626   0.969   0.736 -0.4552  0.3159  0.5376
16749SOL     OW62719   0.237   8.050   8.766 -0.3742 -0.1640 -0.1861
16749SOL    HW162720   0.190   7.979   8.819  0.8351 -1.0060 -0.2185
16749SOL    HW262721   0.307   8.092   8.823 -0.8548  0.7734 -0.2846
16750SOL     OW62722   5.234   8.676   5.865 -0.6069 -0.6926 -0.0539
16750SOL    HW162723   5.168   8.621   5.812  0.4619 -0.9567 -1.1349
16750SOL    HW262724   5.225   8.772   5.838  2.2640 -1.2194 -3.3485
16751SOL     OW62725   4.418   5.416   1.245 -0.1404 -0.1897  0.4670
16751SOL    HW162726   4.517   5.411   1.259 -0.2712  0.7350  1.7630
16751SOL    HW262727   4.396   5.502   1.198 -0.4907  0.3749  1.6602
16752SOL     OW62728   3.401   3.942   2.155 -0.1902  0.0380  0.3105
16752SOL    HW162729   3.464   3.896   2.217 -0.5438  1.0733  1.4428
16752SOL    HW262730   3.452   4.009   2.100 -0.3307  1.0079  1.3571
16753SOL     OW62731   7.549   8.056   5.579  0.3330  0.3808 -0.1661
16753SOL    HW162732   7.463   8.044   5.628 -0.6601  0.7952 -1.7757
16753SOL    HW262733   7.581   8.150   5.590  1.5412 -0.2487  1.9336
16754SOL     OW62734   5.551   5.480   7.688  0.2028  0.4524  0.2201
16754SOL    HW162735   5.521   5.521   7.601 -1.7605  0.3091  0.7954
16754SOL    HW262736   5.528   5.541   7.763 -0.8838 -0.7569  0.8989
16755SOL     OW62737   7.782   2.672   0.483 -0.0593 -0.1920 -0.5017
16755SOL    HW162738   7.809   2.577   0.472 -2.1858 -0.6638 -2.0387
16755SOL    HW262739   7.698   2.677   0.538  0.4914  0.8570  0.2610
16756SOL     OW62740   4.839   6.981   8.845  0.1676 -0.0931  0.6053
16756SOL    HW162741   4.781   7.031   8.781  2.6419  1.6318 -0.3606
16756SOL    HW262742   4.818   7.010   8.939  1.0653  2.2480  0.1010
16757SOL     OW62743   6.476   2.267   7.849  0.1089 -0.1978 -0.1725
16757SOL    HW162744   6.427   2.267   7.762  0.7215 -1.2452 -0.5141
16757SOL    HW262745   6.521   2.356   7.861 -0.9665  0.3874 -0.3560
16758SOL     OW62746   2.437   1.423   5.695 -0.5039  0.5832 -0.2660
16758SOL    HW162747   2.445   1.393   5.600 -1.5908 -1.2330  0.1798
16758SOL    HW262748   2.510   1.381   5.749 -0.5036  0.7888 -0.1063
16759SOL     OW62749   7.283   4.833   6.921  0.4162 -0.3534 -0.5708
16759SOL    HW162750   7.223   4.814   6.844 -0.3793  0.8994 -0.2678
16759SOL    HW262751   7.341   4.753   6.938  1.3215 -0.2929 -3.1034
16760SOL     OW62752   1.137   8.092   3.847 -0.6044  0.1789  0.0721
16760SOL    HW162753   1.101   8.073   3.756 -0.5660  0.7819 -0.0767
16760SOL    HW262754   1.130   8.011   3.904 -2.3410  0.3312  0.1011
16761SOL     OW62755   5.698   1.612   2.742  0.3268 -0.0505 -0.2106
16761SOL    HW162756   5.691   1.586   2.838  0.2764  1.0557  0.0911
16761SOL    HW262757   5.678   1.709   2.732 -0.6841 -0.3652 -1.4758
16762SOL     OW62758   5.078   3.085   2.102 -0.4839  0.6791 -0.7854
16762SOL    HW162759   5.158   3.053   2.152 -0.3034  0.7281 -1.0467
16762SOL    HW262760   5.101   3.098   2.006 -0.9022  0.3282 -0.9337
16763SOL     OW62761   3.542   7.837   8.007 -0.4192  0.3745  0.5640
16763SOL    HW162762   3.640   7.817   7.997 -1.2329 -3.4836 -0.8159
16763SOL    HW262763   3.511   7.806   8.097 -0.9687 -1.3998 -0.2118
16764SOL     OW62764   4.380   5.510   3.477 -0.2621  0.1198  0.0687
16764SOL    HW162765   4.347   5.493   3.570 -0.2225 -0.6464 -0.0589
16764SOL    HW262766   4.329   5.587   3.437  0.0910  0.8009  0.9158
16765SOL     OW62767   5.726   1.906   0.691 -0.2110  0.1855 -0.2289
16765SOL    HW162768   5.693   1.825   0.740 -2.1002  0.4604 -1.0331
16765SOL    HW262769   5.754   1.975   0.758 -0.3787 -0.4055  0.4656
16766SOL     OW62770   4.372   4.950   0.058 -0.1851  0.6502 -0.8882
16766SOL    HW162771   4.366   4.883   0.132 -1.2321  0.2158 -1.3629
16766SOL    HW262772   4.425   5.029   0.089 -0.6599  0.4957  0.3479
16767SOL     OW62773   5.130   8.492   3.246 -0.0138  0.3302 -0.2034
16767SOL    HW162774   5.184   8.436   3.183  2.8909  1.7064  0.9789
16767SOL    HW262775   5.157   8.473   3.340 -1.5281  1.1588  0.4260
16768SOL     OW62776   8.692   3.659   6.200 -0.1801  0.1675  0.8374
16768SOL    HW162777   8.658   3.630   6.290 -0.9126 -0.0097  0.5078
16768SOL    HW262778   8.783   3.699   6.210 -0.1655 -0.0582  1.6290
16769SOL     OW62779   7.979   1.179   4.599 -0.7211 -0.2002  0.2401
16769SOL    HW162780   8.048   1.118   4.561 -1.8143 -0.9909 -0.4993
16769SOL    HW262781   8.024   1.252   4.652  0.6402 -0.9448  0.1219
16770SOL     OW62782   8.459   3.289   6.113  0.0869 -0.6650  0.5748
16770SOL    HW162783   8.555   3.313   6.100 -0.1516 -0.8815 -1.8622
16770SOL    HW262784   8.452   3.195   6.146  0.7013 -0.9745 -0.1490
16771SOL     OW62785   3.797   4.670   5.386  0.4842  0.8157  0.5958
16771SOL    HW162786   3.764   4.765   5.381  1.3042  1.1624  1.7198
16771SOL    HW262787   3.887   4.668   5.428  0.1223 -0.5634  1.3219
16772SOL     OW62788   0.441   7.741   7.077  0.0741  0.1723 -0.6505
16772SOL    HW162789   0.405   7.648   7.075 -0.3407  0.2992  0.5478
16772SOL    HW262790   0.540   7.738   7.060  0.2251 -0.5864  0.2705
16773SOL     OW62791   3.976   2.147   6.326  0.2671 -0.2268  0.3863
16773SOL    HW162792   3.977   2.218   6.397  0.0069 -0.1344  0.2955
16773SOL    HW262793   3.897   2.087   6.340  1.0309 -1.1056  1.0646
16774SOL     OW62794   6.548   4.865   6.810  0.2260  0.3349  0.0592
16774SOL    HW162795   6.482   4.933   6.778 -1.3907 -1.4731 -0.5252
16774SOL    HW262796   6.502   4.800   6.870  1.5110 -0.8999 -0.2899
16775SOL     OW62797   5.506   2.458   6.688  0.2983 -0.2057 -0.0479
16775SOL    HW162798   5.461   2.391   6.628  2.2487 -0.6344 -1.0776
16775SOL    HW262799   5.461   2.546   6.678  0.6687 -0.2350 -2.2978
16776SOL     OW62800   7.557   5.314   8.754 -0.4732 -0.1792 -0.2794
16776SOL    HW162801   7.519   5.402   8.783  0.3281  0.0759 -0.0121
16776SOL    HW262802   7.520   5.242   8.811 -2.1072 -0.1865 -1.2880
16777SOL     OW62803   5.041   6.764   3.314  0.0258  0.4251 -0.1813
16777SOL    HW162804   5.135   6.777   3.283  0.1586 -0.5336 -0.1896
16777SOL    HW262805   5.030   6.807   3.404  0.8921 -0.7843  0.5058
16778SOL     OW62806   4.682   8.198   7.372 -0.0612  0.3873 -0.1029
16778SOL    HW162807   4.690   8.108   7.329  0.3033 -1.0308  2.8199
16778SOL    HW262808   4.773   8.236   7.389 -0.1141 -0.4943  2.2676
16779SOL     OW62809   8.573   6.374   1.193 -0.7666  0.0417 -0.1423
16779SOL    HW162810   8.535   6.438   1.126 -1.8238  1.1572  1.4876
16779SOL    HW262811   8.601   6.290   1.147 -1.3333  0.8437 -1.9975
16780SOL     OW62812   7.026   3.799   6.235 -0.3410  0.8001  0.2886
16780SOL    HW162813   6.965   3.841   6.302 -0.6056  0.8361  0.0249
16780SOL    HW262814   7.079   3.726   6.279  0.2869  1.5468  0.8103
16781SOL     OW62815   1.240   4.308   2.673  0.3368 -0.1422 -0.2258
16781SOL    HW162816   1.258   4.217   2.633  2.6104 -0.4353  1.3787
16781SOL    HW262817   1.208   4.369   2.601  1.4340 -1.4844 -1.9188
16782SOL     OW62818   1.150   5.705   0.804 -0.2028  0.7947  0.4390
16782SOL    HW162819   1.115   5.780   0.860  1.0943  0.3677  1.8628
16782SOL    HW262820   1.202   5.642   0.861 -2.0345 -1.7035 -0.5929
16783SOL     OW62821   6.783   2.192   7.940 -0.1808 -0.5275  0.4376
16783SOL    HW162822   6.699   2.144   7.918 -0.4681  0.8109 -1.5097
16783SOL    HW262823   6.862   2.140   7.908 -0.4972  0.3387 -1.8053
16784SOL     OW62824   0.232   4.102   7.760 -0.3336  0.2139 -0.2925
16784SOL    HW162825   0.305   4.053   7.713  0.2924  0.9280 -0.0929
16784SOL    HW262826   0.272   4.178   7.812 -1.3685  1.5210 -1.3762
16785SOL     OW62827   4.160   0.844   8.041  0.2938  0.4071  0.0155
16785SOL    HW162828   4.249   0.821   8.081  0.6865  0.9915 -0.4909
16785SOL    HW262829   4.167   0.842   7.941 -0.5593 -0.6137 -0.0274
16786SOL     OW62830   1.705   5.142   0.543 -0.0472  0.3183  0.1595
16786SOL    HW162831   1.757   5.078   0.486  1.7280  0.8964  1.0976
16786SOL    HW262832   1.736   5.235   0.526 -0.8044  0.6784  0.7238
16787SOL     OW62833   5.562   1.479   1.106  0.1564 -0.1271 -0.1192
16787SOL    HW162834   5.474   1.468   1.151 -0.4107 -2.1630 -1.6742
16787SOL    HW262835   5.630   1.510   1.173 -1.4157  0.1069  1.3881
16788SOL     OW62836   0.022   0.727   5.820  0.1203  0.3469  0.0508
16788SOL    HW162837   0.027   0.820   5.856  1.0236  1.0929 -1.9316
16788SOL    HW262838  -0.073   0.695   5.825  0.0567  0.7728  2.1498
16789SOL     OW62839   3.883   3.614   2.124  0.2064  0.0649 -0.1024
16789SOL    HW162840   3.952   3.551   2.160  2.1418  0.2016 -3.3861
16789SOL    HW262841   3.794   3.570   2.126  1.1953 -2.0046 -0.4349
16790SOL     OW62842   3.401   6.762   0.628 -0.3017 -0.0745  0.2253
16790SOL    HW162843   3.458   6.836   0.664 -0.6915  0.8061 -0.9186
16790SOL    HW262844   3.304   6.784   0.642 -0.3812 -1.7217  2.4694
16791SOL     OW62845   3.198   8.726   2.006  0.3488  0.2540  0.0866
16791SOL    HW162846   3.127   8.733   2.076  0.9975  0.6613  0.7127
16791SOL    HW262847   3.163   8.763   1.920 -0.0482  0.8949  0.5159
16792SOL     OW62848   3.923   8.147   1.699 -0.6106 -0.4550 -0.4872
16792SOL    HW162849   3.965   8.238   1.698  0.1516 -0.7742 -3.1367
16792SOL    HW262850   3.995   8.078   1.706 -1.1053 -0.8979  0.3001
16793SOL     OW62851   1.578   8.422   0.375 -0.0914  0.5850  0.6329
16793SOL    HW162852   1.678   8.424   0.374 -0.0726 -0.3704  0.6747
16793SOL    HW262853   1.545   8.348   0.433 -0.7986 -0.5892 -1.2130
16794SOL     OW62854   0.573   0.163   4.477 -0.0246 -0.3926 -0.2626
16794SOL    HW162855   0.552   0.187   4.571  0.0793 -0.7615 -0.1445
16794SOL    HW262856   0.490   0.132   4.431  0.0912 -1.0442 -0.0396
16795SOL     OW62857   8.199   8.946   1.522 -0.4012 -0.1015 -0.5474
16795SOL    HW162858   8.159   8.991   1.601  0.5912 -0.4010  0.1408
16795SOL    HW262859   8.291   8.915   1.545  0.7631  1.7488 -2.4866
16796SOL     OW62860   8.803   2.765   6.017 -0.3175  0.1863 -0.2551
16796SOL    HW162861   8.810   2.693   5.947 -0.9578  0.3654 -0.5028
16796SOL    HW262862   8.895   2.788   6.049 -0.0098  0.1572 -1.0918
16797SOL     OW62863   8.515   4.999   7.061 -0.2489 -0.3201  0.3575
16797SOL    HW162864   8.439   4.969   7.119 -0.4075 -0.6607 -0.0247
16797SOL    HW262865   8.535   4.929   6.993 -0.7658  0.5069 -0.6782
16798SOL     OW62866   8.415   1.548   3.781  0.4003  0.2599  0.0031
16798SOL    HW162867   8.461   1.607   3.848 -0.2120  0.3862  0.3083
16798SOL    HW262868   8.322   1.529   3.812  0.5404 -0.7237 -0.1846
16799SOL     OW62869   1.289   3.616   2.508  0.3919 -0.0269 -0.0444
16799SOL    HW162870   1.207   3.670   2.491  0.7245  0.6442  0.4478
16799SOL    HW262871   1.370   3.670   2.485  0.8225  0.5932  2.7899
16800SOL     OW62872   8.138   4.697   7.809  0.0198 -0.0731  0.1791
16800SOL    HW162873   8.220   4.702   7.751 -0.7094 -0.4652 -0.8920
16800SOL    HW262874   8.092   4.610   7.794 -2.6301  1.6073 -1.9980
16801SOL     OW62875   6.783   7.887   3.231 -0.1300 -0.0577 -0.0545
16801SOL    HW162876   6.771   7.986   3.239 -1.6414 -0.1996 -0.3610
16801SOL    HW262877   6.870   7.860   3.272 -0.9317  1.0766  2.5187
16802SOL     OW62878   6.831   1.043   1.654  0.3261 -0.1659 -0.6157
16802SOL    HW162879   6.785   1.066   1.740  0.7581 -0.5111 -0.2871
16802SOL    HW262880   6.814   1.115   1.587 -1.3538 -0.6995 -0.7578
16803SOL     OW62881   7.584   2.046   4.962 -0.0855  0.1594 -0.0857
16803SOL    HW162882   7.568   2.006   5.052 -0.1454 -1.0871 -0.6347
16803SOL    HW262883   7.656   2.115   4.968 -0.1333  0.1251  0.9242
16804SOL     OW62884   8.108   3.212   3.584 -0.1607 -0.1744 -0.3334
16804SOL    HW162885   8.062   3.299   3.572 -0.4782 -0.3466 -0.3534
16804SOL    HW262886   8.053   3.153   3.643 -0.9453 -1.1203 -1.9771
16805SOL     OW62887   4.942   8.318   2.016  0.0858  0.3976  0.4768
16805SOL    HW162888   4.998   8.237   2.002 -0.6816  0.5258 -4.2485
16805SOL    HW262889   4.998   8.400   2.003 -0.1883  0.5510  0.2485
16806SOL     OW62890   1.821   5.642   7.556 -0.0669  0.9273 -0.3958
16806SOL    HW162891   1.882   5.657   7.477  1.7904  2.7535  1.3208
16806SOL    HW262892   1.873   5.601   7.630 -1.6629 -0.2038  0.1120
16807SOL     OW62893   7.714   2.346   6.170  0.1844  0.0189  0.0244
16807SOL    HW162894   7.642   2.277   6.164  1.3413 -1.3136  1.0494
16807SOL    HW262895   7.803   2.303   6.157  0.8319  1.5891 -0.9118
16808SOL     OW62896   4.900   4.286   4.318  0.1306 -0.0819 -0.8696
16808SOL    HW162897   4.883   4.219   4.246 -2.9191 -0.9913  0.5923
16808SOL    HW262898   4.985   4.263   4.365 -0.3961 -2.4208 -0.9833
16809SOL     OW62899   1.078   7.229   3.266  0.0232 -0.0751  0.1805
16809SOL    HW162900   1.078   7.267   3.174 -0.9810  1.0387  0.6281
16809SOL    HW262901   1.031   7.141   3.266  1.3147 -0.7830 -0.6374
16810SOL     OW62902   3.108   5.971   0.557 -0.1156  0.5947  0.0881
16810SOL    HW162903   3.067   5.951   0.467  0.2001  0.7029 -0.0799
16810SOL    HW262904   3.104   5.889   0.614  0.7218  0.1930 -0.4238
16811SOL     OW62905   4.532   1.379   4.045  0.5830  0.3016  0.4182
16811SOL    HW162906   4.492   1.468   4.024  0.7280  0.5895  1.3052
16811SOL    HW262907   4.477   1.306   4.004 -0.6182  0.7067  1.2839
16812SOL     OW62908   7.540   0.818   2.167 -0.0332  0.0415  0.1089
16812SOL    HW162909   7.543   0.865   2.255 -2.9383  1.4302 -0.4944
16812SOL    HW262910   7.504   0.725   2.179  0.1915  0.0033  0.4721
16813SOL     OW62911   6.150   2.933   8.664 -0.6368 -0.1345 -0.2319
16813SOL    HW162912   6.105   2.979   8.741 -1.0780 -0.7494 -0.1184
16813SOL    HW262913   6.230   2.986   8.637  0.5965 -0.8885  1.8495
16814SOL     OW62914   1.837   8.676   7.782 -0.0642  0.4835 -0.8723
16814SOL    HW162915   1.899   8.633   7.847 -0.9391 -0.2014 -0.4796
16814SOL    HW262916   1.744   8.670   7.816 -0.2078  2.6145 -0.8724
16815SOL     OW62917   2.672   1.608   1.436  0.1565 -0.4487 -0.1999
16815SOL    HW162918   2.666   1.696   1.484  0.4333  0.0583 -1.0760
16815SOL    HW262919   2.734   1.617   1.358 -0.6210 -1.1404 -0.9094
16816SOL     OW62920   1.434   7.338   5.934 -0.1563  0.2613  0.1236
16816SOL    HW162921   1.402   7.367   5.844 -0.5625 -1.7622 -0.4093
16816SOL    HW262922   1.357   7.334   5.998 -0.2927 -0.6276 -0.0848
16817SOL     OW62923   1.569   2.509   5.773 -0.0181 -0.8929  0.1412
16817SOL    HW162924   1.662   2.482   5.749 -0.0283 -2.1290  1.3966
16817SOL    HW262925   1.517   2.531   5.690  1.5882  0.5412 -0.5220
16818SOL     OW62926   1.331   5.181   2.321 -0.3100  0.1948  0.0278
16818SOL    HW162927   1.242   5.224   2.307 -0.3741 -0.9036 -3.1109
16818SOL    HW262928   1.401   5.252   2.328 -0.9987  0.9521 -0.7053
16819SOL     OW62929   7.683   5.849   5.166  0.2329 -0.4272 -0.2786
16819SOL    HW162930   7.678   5.778   5.236 -0.3234  0.2854  0.4268
16819SOL    HW262931   7.605   5.911   5.177 -0.4491 -0.8979 -2.1865
16820SOL     OW62932   3.133   0.310   3.668  0.4778  0.7079 -0.1304
16820SOL    HW162933   3.053   0.349   3.622 -0.6147  1.3972  2.2605
16820SOL    HW262934   3.158   0.224   3.624 -3.3098 -0.9481  0.7213
16821SOL     OW62935   2.194   5.441   2.528  0.2694 -0.3402  0.4991
16821SOL    HW162936   2.177   5.362   2.587  2.5945 -0.0844  1.5700
16821SOL    HW262937   2.274   5.423   2.470 -0.3651  0.4663 -0.6405
16822SOL     OW62938   3.843   2.678   3.725  0.0855 -0.4215 -0.6262
16822SOL    HW162939   3.850   2.636   3.816  0.3050  0.9980  0.0179
16822SOL    HW262940   3.799   2.767   3.732  3.9860  1.7059 -1.2365
16823SOL     OW62941   1.052   0.207   8.752 -0.0588 -0.0249  0.0959
16823SOL    HW162942   1.012   0.295   8.779 -0.8946  0.1443 -1.5916
16823SOL    HW262943   1.148   0.220   8.729  0.0444  0.2808  0.7004
16824SOL     OW62944   1.257   4.669   8.019 -0.2467  0.1477 -0.1530
16824SOL    HW162945   1.220   4.686   7.928 -2.6824 -1.2397  0.5489
16824SOL    HW262946   1.183   4.671   8.086  1.2640 -0.5869  1.5659
16825SOL     OW62947   3.175   2.576   7.044  0.2403 -0.2426  0.1428
16825SOL    HW162948   3.100   2.606   7.103  0.1844  1.6460 -0.8376
16825SOL    HW262949   3.252   2.639   7.055  0.1059  0.3289 -2.0136
16826SOL     OW62950   5.535   5.934   4.306 -0.0683  0.0338  0.2705
16826SOL    HW162951   5.579   5.916   4.218 -0.6241  1.0586 -0.2321
16826SOL    HW262952   5.437   5.915   4.299 -0.3136  1.1850  0.3174
16827SOL     OW62953   7.388   8.257   8.639  1.0954  0.3092 -0.2257
16827SOL    HW162954   7.328   8.283   8.564  0.8095  0.0187 -0.0999
16827SOL    HW262955   7.341   8.271   8.726  0.7411 -1.0952 -0.1743
16828SOL     OW62956   3.041   1.089   2.547  0.4087  0.1581 -0.2789
16828SOL    HW162957   3.111   1.132   2.604 -0.3471  0.3919  0.4921
16828SOL    HW262958   2.958   1.144   2.549 -0.3123 -0.9232  0.0903
16829SOL     OW62959   4.535   6.969   6.581  0.5736 -0.3027  0.4083
16829SOL    HW162960   4.572   6.949   6.672  0.9462 -1.9456 -0.0945
16829SOL    HW262961   4.483   6.891   6.547  0.6081  0.2100 -0.8783
16830SOL     OW62962   7.766   0.158   6.976  0.1386  0.0169  0.1173
16830SOL    HW162963   7.782   0.078   7.035  0.8549  0.4722  0.5508
16830SOL    HW262964   7.668   0.173   6.966  0.0054 -0.4596  0.6596
16831SOL     OW62965   7.428   8.501   5.766  0.4434 -0.3255 -0.0060
16831SOL    HW162966   7.499   8.439   5.800 -1.6456 -4.3400 -2.5131
16831SOL    HW262967   7.353   8.504   5.832 -0.1686 -1.8442 -0.6084
16832SOL     OW62968   7.516   6.935   7.591 -0.3460 -0.1054 -0.1222
16832SOL    HW162969   7.559   7.025   7.602  2.1277 -1.3042  0.1882
16832SOL    HW262970   7.514   6.911   7.494 -0.2597 -0.0943 -0.1267
16833SOL     OW62971   1.061   0.900   6.210 -0.3274  0.0359  0.7826
16833SOL    HW162972   1.103   0.980   6.166 -0.3572  0.5271  1.6436
16833SOL    HW262973   1.130   0.850   6.261 -0.3994 -0.2363  0.6105
16834SOL     OW62974   5.785   4.276   2.509  0.7362 -0.1883  0.3144
16834SOL    HW162975   5.772   4.210   2.435  0.6394 -1.8052  1.7655
16834SOL    HW262976   5.881   4.302   2.513  0.4185  1.5102 -1.6910
16835SOL     OW62977   3.571   2.391   0.947 -0.5447  0.3077  0.0260
16835SOL    HW162978   3.669   2.379   0.962 -0.5157  0.6465  0.1129
16835SOL    HW262979   3.557   2.459   0.875 -0.7219  0.5072  0.2499
16836SOL     OW62980   2.719   1.244   3.961  0.1539 -0.0467  0.3083
16836SOL    HW162981   2.749   1.203   4.048  1.4966 -0.3288 -0.2709
16836SOL    HW262982   2.743   1.183   3.886  0.3897  0.9105 -0.3969
16837SOL     OW62983   8.777   3.203   3.189 -0.1092 -0.4303 -0.3319
16837SOL    HW162984   8.844   3.155   3.132 -1.0201 -1.9893 -0.1237
16837SOL    HW262985   8.744   3.141   3.261 -1.2149  0.5580  0.0289
16838SOL     OW62986   5.828   3.023   3.440  0.3042 -0.3007 -0.0749
16838SOL    HW162987   5.926   3.019   3.459  0.1936  0.8025  0.7466
16838SOL    HW262988   5.782   3.081   3.507 -0.7159  0.3182 -1.2632
16839SOL     OW62989   5.635   6.085   2.248  0.2165  0.4513  0.2214
16839SOL    HW162990   5.565   6.114   2.184  0.3722  1.2205  0.3894
16839SOL    HW262991   5.612   6.118   2.340  0.6318  0.4373  0.3328
16840SOL     OW62992   1.575   3.816   6.858  0.3832 -0.4121  0.1696
16840SOL    HW162993   1.490   3.779   6.820  0.1324  0.6609 -0.3323
16840SOL    HW262994   1.653   3.766   6.819  0.0639 -0.1627 -0.8263
16841SOL     OW62995   0.842   2.819   3.654 -0.2330 -0.4909  0.5448
16841SOL    HW162996   0.818   2.729   3.690 -0.4185 -0.4238  0.5905
16841SOL    HW262997   0.759   2.875   3.644 -0.2424 -0.6844 -0.4940
16842SOL     OW62998   4.640   1.029   5.435  0.0633 -0.1454  0.3037
16842SOL    HW162999   4.650   0.962   5.508 -0.9459  0.8219  1.3508
16842SOL    HW263000   4.731   1.060   5.406  0.4572  0.9213  2.5309
16843SOL     OW63001   1.821   6.354   2.217 -0.2505 -0.4496  0.1100
16843SOL    HW163002   1.780   6.315   2.134 -0.4513 -1.7697  0.8340
16843SOL    HW263003   1.855   6.281   2.276  0.1864  0.5011  1.0497
16844SOL     OW63004   7.359   4.142   1.250 -0.0661 -0.0304  0.1311
16844SOL    HW163005   7.318   4.058   1.284 -1.2433  1.0870  1.5119
16844SOL    HW263006   7.458   4.140   1.266 -0.3318 -0.3970  1.7790
16845SOL     OW63007   5.391   4.443   2.686 -0.1960  0.0300 -0.0013
16845SOL    HW163008   5.308   4.491   2.715  0.5010  0.8390  0.6705
16845SOL    HW263009   5.381   4.414   2.590 -0.3961  2.0381 -0.6177
16846SOL     OW63010   1.150   4.954   4.019 -0.3870  0.0020 -0.1971
16846SOL    HW163011   1.228   5.015   4.033 -0.8805  0.2338  1.6840
16846SOL    HW263012   1.171   4.888   3.947  1.9283 -0.5811  0.9914
16847SOL     OW63013   2.769   3.887   8.319  0.2281 -0.3596  0.1848
16847SOL    HW163014   2.822   3.836   8.387  2.1619  1.7809  0.3533
16847SOL    HW263015   2.797   3.858   8.227  1.0098  0.0366  0.2863
16848SOL     OW63016   7.070   4.358   5.490  0.3935 -0.2802 -0.0932
16848SOL    HW163017   7.073   4.353   5.391 -2.7497 -0.2860 -0.2428
16848SOL    HW263018   7.092   4.268   5.528  0.3895 -0.5949 -0.8274
16849SOL     OW63019   8.813   5.122   3.963  0.1331  0.4181  0.0775
16849SOL    HW163020   8.851   5.210   3.937  1.2262 -0.2222 -0.5357
16849SOL    HW263021   8.847   5.096   4.054 -0.1869  0.6183  0.2575
16850SOL     OW63022   4.753   1.144   3.793 -0.4685  0.3818 -0.0359
16850SOL    HW163023   4.666   1.117   3.753  0.5835 -0.2876 -1.9653
16850SOL    HW263024   4.783   1.230   3.751  1.4220 -1.1482 -1.9623
16851SOL     OW63025   2.928   4.185   1.051 -0.2393  0.2911  0.1544
16851SOL    HW163026   2.831   4.181   1.077  0.2842  0.8394  2.3507
16851SOL    HW263027   2.966   4.093   1.052 -0.6816  0.0997 -0.4799
16852SOL     OW63028   8.523   5.588   2.717 -0.0544 -0.4141 -0.0077
16852SOL    HW163029   8.548   5.526   2.790 -0.7884 -0.0138  0.5881
16852SOL    HW263030   8.546   5.682   2.743  0.2644 -0.3349 -0.5517
16853SOL     OW63031   5.984   7.887   2.083  0.2179  0.0716  0.1161
16853SOL    HW163032   5.887   7.876   2.059  0.6649 -0.9884 -1.2398
16853SOL    HW263033   6.006   7.985   2.087 -0.8688  0.3197  0.2933
16854SOL     OW63034   2.667   8.437   7.232 -0.2294  0.0826 -0.4863
16854SOL    HW163035   2.622   8.504   7.291 -0.1017 -0.4424  0.2263
16854SOL    HW263036   2.751   8.405   7.276 -1.0237 -1.6051 -0.1325
16855SOL     OW63037   5.662   6.281   1.820  0.2795  0.2553 -0.2312
16855SOL    HW163038   5.700   6.188   1.825 -2.6199 -0.8955  1.3327
16855SOL    HW263039   5.580   6.281   1.763 -1.4867  1.1728  2.2053
16856SOL     OW63040   7.327   7.273   0.486 -0.2622 -0.1658 -0.1448
16856SOL    HW163041   7.251   7.253   0.548 -0.5734  0.7708 -0.2217
16856SOL    HW263042   7.335   7.372   0.475  0.5454 -0.2948 -0.6652
16857SOL     OW63043   3.394   6.456   5.796 -0.6141 -0.3904 -0.0126
16857SOL    HW163044   3.392   6.501   5.885 -1.2457 -3.8592  1.7898
16857SOL    HW263045   3.481   6.478   5.750  1.1522 -1.1099  2.8548
16858SOL     OW63046   5.983   3.643   7.459 -0.3218 -0.3065 -1.4266
16858SOL    HW163047   6.070   3.681   7.491 -0.0323 -0.2950 -2.2254
16858SOL    HW263048   5.995   3.547   7.437 -0.3163 -0.1145 -2.2821
16859SOL     OW63049   4.200   3.426   1.310 -0.4518 -0.8912 -0.1998
16859SOL    HW163050   4.242   3.515   1.324 -1.0337 -0.6707  0.1193
16859SOL    HW263051   4.121   3.435   1.250  0.4095 -1.4248 -1.4411
16860SOL     OW63052   1.484   3.882   8.406 -0.0880  0.1366 -0.0878
16860SOL    HW163053   1.453   3.834   8.323  0.6461  0.3326 -0.4777
16860SOL    HW263054   1.405   3.900   8.465 -0.7993  1.1077 -1.3196
16861SOL     OW63055   0.737   4.143   2.224  0.1109  0.2286  0.2139
16861SOL    HW163056   0.705   4.054   2.255  0.5925  0.2973  0.9151
16861SOL    HW263057   0.807   4.177   2.286  1.4248  0.1625 -1.1958
16862SOL     OW63058   3.192   0.452   8.546 -0.0681 -0.0013 -0.3406
16862SOL    HW163059   3.255   0.526   8.524 -1.1229  0.5803 -1.4581
16862SOL    HW263060   3.209   0.375   8.484  0.2859 -0.2808  0.0961
16863SOL     OW63061   5.056   5.833   4.795 -0.1755  0.5696  0.2031
16863SOL    HW163062   4.992   5.757   4.797  0.3908  0.0874  0.2345
16863SOL    HW263063   5.052   5.878   4.706 -0.3320  0.3510  0.1002
16864SOL     OW63064   4.571   3.748   0.774 -0.5234  0.3251  0.3582
16864SOL    HW163065   4.553   3.663   0.724  1.1557 -0.5199  1.1616
16864SOL    HW263066   4.571   3.729   0.872 -0.2098  1.2788  0.5404
16865SOL     OW63067   3.574   4.121   6.408  0.2612 -0.4133  0.2784
16865SOL    HW163068   3.641   4.154   6.475  0.1223  0.8519 -0.1930
16865SOL    HW263069   3.485   4.109   6.453 -0.0367  1.2190  0.1612
16866SOL     OW63070   8.384   0.468   0.821 -0.2033  0.0694 -0.2369
16866SOL    HW163071   8.412   0.546   0.876 -2.1717  1.2689 -0.8941
16866SOL    HW263072   8.463   0.409   0.805  1.1119  1.4409  1.0432
16867SOL     OW63073   0.271   3.774   2.189 -0.5576 -0.1836 -0.0679
16867SOL    HW163074   0.260   3.703   2.258 -3.2427  0.5238  0.2743
16867SOL    HW263075   0.309   3.856   2.231  0.4099 -0.6507 -0.0124
16868SOL     OW63076   1.872   3.803   6.761 -0.5861 -0.4249  0.0227
16868SOL    HW163077   1.908   3.789   6.853 -0.7890 -1.5378 -0.0654
16868SOL    HW263078   1.907   3.890   6.724  2.0714 -1.4993 -0.0996
16869SOL     OW63079   4.536   2.249   6.461  0.0800 -0.3420 -0.2611
16869SOL    HW163080   4.598   2.180   6.423 -0.7681 -1.6135  0.5904
16869SOL    HW263081   4.442   2.213   6.460 -0.2723  0.5178  0.8372
16870SOL     OW63082   4.275   5.784   6.161  0.2922  0.0160 -0.0602
16870SOL    HW163083   4.247   5.747   6.250 -0.6572 -1.2373 -0.8702
16870SOL    HW263084   4.336   5.862   6.176 -1.4352  1.0640  1.7095
16871SOL     OW63085   8.566   5.259   6.402  0.2704  0.3217 -0.1158
16871SOL    HW163086   8.484   5.304   6.438  1.0071  0.7806  0.9882
16871SOL    HW263087   8.648   5.304   6.437  1.0190  0.9278 -2.5379
16872SOL     OW63088   2.199   0.411   8.458  0.3266 -0.1017  0.1143
16872SOL    HW163089   2.150   0.379   8.377 -0.9176  0.7894  0.5135
16872SOL    HW263090   2.145   0.391   8.540  1.6432 -1.1295  0.7512
16873SOL     OW63091   2.634   4.257   1.627  0.4246 -0.1148  0.3375
16873SOL    HW163092   2.568   4.219   1.563 -1.1420 -0.0170  1.8562
16873SOL    HW263093   2.668   4.185   1.687  0.3744  0.1546  0.6951
16874SOL     OW63094   6.319   2.208   7.647  0.0793 -0.0834  0.1348
16874SOL    HW163095   6.391   2.159   7.598 -0.7831 -0.4279 -0.7912
16874SOL    HW263096   6.261   2.256   7.581 -0.6092  0.0958  0.8732
16875SOL     OW63097   5.002   1.109   1.458 -0.0241 -0.1661 -0.3681
16875SOL    HW163098   4.942   1.145   1.387  0.5999  2.8314  0.5745
16875SOL    HW263099   5.097   1.114   1.428  0.1749  0.2333  0.3136
16876SOL     OW63100   0.198   1.036   6.079  0.5301  0.0472  0.2717
16876SOL    HW163101   0.115   1.004   6.032  0.7706 -0.1688 -0.0027
16876SOL    HW263102   0.202   0.993   6.170  0.0646  0.4706  0.4996
16877SOL     OW63103   3.284   1.994   2.445  0.0243  0.3015  0.1063
16877SOL    HW163104   3.309   2.079   2.398  0.3272  1.6721  2.6260
16877SOL    HW263105   3.341   1.919   2.412  0.3417  1.2445 -1.5443
16878SOL     OW63106   8.578   4.880   6.595  0.6652 -0.1914  0.3637
16878SOL    HW163107   8.544   4.874   6.689  2.2803 -0.1541  0.9631
16878SOL    HW263108   8.572   4.790   6.552  0.6875 -0.3928  0.7763
16879SOL     OW63109   5.412   5.768   7.276  1.4150  0.5344 -0.0774
16879SOL    HW163110   5.317   5.798   7.290  1.3643  0.3170  0.0593
16879SOL    HW263111   5.473   5.847   7.278  1.3486  0.5714  0.8712
16880SOL     OW63112   0.461   8.165   5.104  0.2357  0.2102  0.3264
16880SOL    HW163113   0.483   8.116   5.020 -1.7851  2.9217 -1.8731
16880SOL    HW263114   0.365   8.147   5.128  0.3098  0.8395  1.0815
16881SOL     OW63115   3.814   8.630   6.054  0.8124  0.3177  0.2959
16881SOL    HW163116   3.750   8.700   6.024 -0.4275 -0.9608 -0.0794
16881SOL    HW263117   3.906   8.669   6.060  0.3031  1.7159 -0.8495
16882SOL     OW63118   1.150   5.376   1.895 -0.2791  0.2398  0.1027
16882SOL    HW163119   1.215   5.447   1.866  1.9221 -1.8887 -0.3690
16882SOL    HW263120   1.118   5.326   1.815  0.0047 -0.7999  0.6268
16883SOL     OW63121   2.243   4.860   4.840  0.5272  0.4097  0.0448
16883SOL    HW163122   2.207   4.817   4.922  1.3661  1.6069  1.0640
16883SOL    HW263123   2.299   4.939   4.865  0.3638  1.1158 -1.6985
16884SOL     OW63124   2.240   3.856   7.446  0.2874 -0.5064  0.0548
16884SOL    HW163125   2.334   3.891   7.439 -0.1712  0.5992 -0.5511
16884SOL    HW263126   2.210   3.859   7.541 -0.6652  3.1619 -0.3153
16885SOL     OW63127   8.537   0.398   4.656 -0.2042  0.1510  0.3157
16885SOL    HW163128   8.469   0.337   4.695  0.0583 -0.2768  0.1028
16885SOL    HW263129   8.494   0.458   4.588 -1.2927  2.8546  3.2265
16886SOL     OW63130   1.205   5.722   0.211 -0.5739  0.4762  0.1190
16886SOL    HW163131   1.302   5.728   0.237 -0.3112 -2.6810 -0.0038
16886SOL    HW263132   1.164   5.642   0.255 -2.2120 -0.2807 -2.6952
16887SOL     OW63133   7.561   0.665   6.172 -0.0572 -0.2799 -0.3964
16887SOL    HW163134   7.493   0.737   6.155  0.1816  0.4835  1.6991
16887SOL    HW263135   7.525   0.600   6.238  0.7644 -0.5936 -0.2499
16888SOL     OW63136   4.853   1.512   7.186  0.2648  0.1268 -0.1865
16888SOL    HW163137   4.925   1.465   7.236  1.8281  2.1417 -0.5048
16888SOL    HW263138   4.802   1.446   7.130  1.7081 -1.3370  0.2246
16889SOL     OW63139   5.906   7.320   2.386 -0.7174 -0.3177  0.1490
16889SOL    HW163140   5.897   7.354   2.292 -1.3157 -0.3026  0.2051
16889SOL    HW263141   5.944   7.392   2.444 -1.0282 -0.0793  0.0614
16890SOL     OW63142   1.120   4.509   0.817  0.4218  0.1071 -0.0970
16890SOL    HW163143   1.212   4.470   0.821  0.4803  0.0481 -1.8855
16890SOL    HW263144   1.054   4.436   0.800  0.0275  0.1663  1.0757
16891SOL     OW63145   1.987   5.006   0.676 -0.1628  0.6315  0.6978
16891SOL    HW163146   2.061   4.966   0.730  0.3980  1.5421  0.6272
16891SOL    HW263147   1.978   5.103   0.700 -1.2216  0.5642  0.5791
16892SOL     OW63148   2.592   5.990   1.421 -0.3469  0.3368  0.3383
16892SOL    HW163149   2.691   5.999   1.429 -0.0142 -0.8255 -2.1471
16892SOL    HW263150   2.561   5.915   1.479  0.4977 -0.6070 -0.4163
16893SOL     OW63151   5.894   4.452   2.038  0.0421  0.2433 -0.3884
16893SOL    HW163152   5.896   4.474   1.940  2.6022  1.4483 -0.1233
16893SOL    HW263153   5.971   4.392   2.060 -0.4423  0.0907  0.9176
16894SOL     OW63154   7.084   6.540   6.757 -0.4017  0.8188 -0.1829
16894SOL    HW163155   7.129   6.583   6.835  0.8439  0.1475 -0.5234
16894SOL    HW263156   7.152   6.517   6.687 -1.0018 -1.7495  0.0088
16895SOL     OW63157   4.055   3.841   7.803  0.1785  0.4817 -0.3720
16895SOL    HW163158   4.138   3.822   7.751 -0.5707 -0.4472 -1.2400
16895SOL    HW263159   3.984   3.775   7.778  0.3020 -1.0381  2.9990
16896SOL     OW63160   1.948   8.125   1.074 -0.0814 -0.0814 -0.8070
16896SOL    HW163161   1.959   8.062   1.151  1.1454 -0.2814 -1.1332
16896SOL    HW263162   2.027   8.117   1.013 -0.3169  1.1792 -1.2880
16897SOL     OW63163   8.968   0.276   6.619  0.1670  0.3122  0.4558
16897SOL    HW163164   8.967   0.306   6.524 -1.8222  2.1810  1.0214
16897SOL    HW263165   9.035   0.329   6.671  0.3704  0.1506  0.3585
16898SOL     OW63166   5.509   4.598   7.948  0.0501 -0.1682  0.3009
16898SOL    HW163167   5.413   4.578   7.929  0.1280  0.0429 -0.3298
16898SOL    HW263168   5.528   4.583   8.045 -0.6056 -0.2663  0.4146
16899SOL     OW63169   5.740   4.026   8.425  0.5677 -0.0317 -0.1042
16899SOL    HW163170   5.743   3.980   8.514 -0.4123 -0.6374 -0.3756
16899SOL    HW263171   5.698   4.116   8.435  0.8713  0.0840  0.1229
16900SOL     OW63172   1.278   1.765   5.095 -0.1714  0.2803 -0.6919
16900SOL    HW163173   1.294   1.742   5.191 -2.3964  1.0011 -0.1127
16900SOL    HW263174   1.365   1.771   5.047  1.0548  0.9732  1.5389
16901SOL     OW63175   8.800   7.080   0.177 -0.2865 -0.1912  0.7368
16901SOL    HW163176   8.887   7.128   0.169 -1.0585  1.3001  1.1431
16901SOL    HW263177   8.788   7.046   0.270 -0.9625  1.2331  1.1824
16902SOL     OW63178   5.869   5.039   0.428  0.2849 -0.4997  0.0384
16902SOL    HW163179   5.965   5.042   0.400 -0.2780 -1.1502 -2.0468
16902SOL    HW263180   5.862   5.001   0.520  1.9986 -0.7444  0.0800
16903SOL     OW63181   4.514   8.545   5.188 -0.0476  0.2571  0.1773
16903SOL    HW163182   4.499   8.620   5.123 -0.2062  0.2170  0.1666
16903SOL    HW263183   4.578   8.575   5.258 -0.2824  0.4779  0.2983
16904SOL     OW63184   3.834   7.170   8.318  0.0037 -0.4575 -0.1304
16904SOL    HW163185   3.813   7.073   8.328  1.1803 -0.5416  1.6771
16904SOL    HW263186   3.791   7.221   8.392 -2.5374  0.7330 -2.3657
16905SOL     OW63187   2.608   8.989   5.507  0.4032  0.6563 -0.0224
16905SOL    HW163188   2.698   8.995   5.549  1.0062 -0.2381 -1.1694
16905SOL    HW263189   2.596   8.899   5.466  0.4283  1.9793 -3.0913
16906SOL     OW63190   7.540   2.743   0.614  0.4707  0.0276 -0.5663
16906SOL    HW163191   7.553   2.735   0.713  0.9568 -1.8136 -0.7698
16906SOL    HW263192   7.520   2.839   0.591  1.1223  0.6108  1.2077
16907SOL     OW63193   3.911   5.875   3.678  0.0090  0.5071 -0.3558
16907SOL    HW163194   3.955   5.911   3.595  1.4500 -3.5517 -1.4482
16907SOL    HW263195   3.981   5.859   3.748 -0.8273  1.3262  0.6641
16908SOL     OW63196   6.307   0.010   2.845 -0.2542 -0.2722  0.5765
16908SOL    HW163197   6.337  -0.035   2.928  2.6792  1.4749  0.5238
16908SOL    HW263198   6.330   0.107   2.849 -2.5202  0.3945 -1.1408
16909SOL     OW63199   3.443   7.040   6.000  0.2237  0.5075 -0.0272
16909SOL    HW163200   3.469   7.106   5.930  0.7202  1.0534  0.6546
16909SOL    HW263201   3.350   7.060   6.031  0.4737  1.0814  0.3792
16910SOL     OW63202   1.172   4.990   0.879 -0.3328 -0.1479 -0.0211
16910SOL    HW163203   1.261   5.019   0.843  0.4086 -0.7838  1.2686
16910SOL    HW263204   1.134   4.919   0.820  0.8886 -1.2104  0.4443
16911SOL     OW63205   0.382   1.804   5.192  0.5251 -0.0955  0.0010
16911SOL    HW163206   0.314   1.869   5.226  1.9474  0.4668  1.8564
16911SOL    HW263207   0.374   1.719   5.243  1.7891  0.2817  0.8325
16912SOL     OW63208   2.148   5.090   1.078  0.5778  0.0313  0.0737
16912SOL    HW163209   2.199   5.091   1.164  1.5311 -3.1049 -0.4106
16912SOL    HW263210   2.205   5.126   1.004  1.9910 -2.8869 -0.3454
16913SOL     OW63211   2.392   1.316   4.775 -0.4892 -0.2441 -0.2591
16913SOL    HW163212   2.492   1.318   4.782 -0.5887  0.3531  1.0967
16913SOL    HW263213   2.353   1.265   4.851 -1.3582  2.1429  0.9533
16914SOL     OW63214   5.188   4.351   4.687  0.3526  0.2537 -0.3211
16914SOL    HW163215   5.269   4.305   4.721 -0.0434 -0.1948  0.0231
16914SOL    HW263216   5.129   4.376   4.764 -1.2173 -2.0115 -0.7480
16915SOL     OW63217   6.130   5.585   0.221  1.0640 -0.3149  0.3137
16915SOL    HW163218   6.105   5.495   0.258 -2.4492  0.1925 -0.6253
16915SOL    HW263219   6.141   5.579   0.122 -0.6788  0.5220  0.0379
16916SOL     OW63220   8.781   6.280   5.002  0.5474 -0.0642 -0.4618
16916SOL    HW163221   8.796   6.183   5.016 -0.9565 -0.2233  0.1814
16916SOL    HW263222   8.849   6.332   5.053  1.2847 -0.7703 -0.7145
16917SOL     OW63223   4.216   5.454   8.718  1.4105  0.1977 -0.0876
16917SOL    HW163224   4.285   5.402   8.768  1.5568 -0.5003 -0.9842
16917SOL    HW263225   4.236   5.449   8.620 -0.2978 -0.6111 -0.4204
16918SOL     OW63226   1.851   7.429   3.799 -0.5452 -0.0023  0.2136
16918SOL    HW163227   1.845   7.504   3.864 -1.1073 -0.5125  0.7501
16918SOL    HW263228   1.857   7.342   3.848  1.0599 -0.2525 -0.3838
16919SOL     OW63229   1.414   5.678   7.565  0.1614 -0.5498 -0.2592
16919SOL    HW163230   1.428   5.583   7.591  2.6430 -0.1096  0.1091
16919SOL    HW263231   1.452   5.738   7.635  0.3666  0.7106 -1.4254
16920SOL     OW63232   4.426   5.989   4.918 -0.3973  0.4833  0.3519
16920SOL    HW163233   4.519   6.003   4.953 -0.1185  0.2825 -0.3158
16920SOL    HW263234   4.415   6.036   4.830 -1.1610  1.1421  0.7795
16921SOL     OW63235   0.337   4.993   7.051 -0.2835  0.2151  0.4731
16921SOL    HW163236   0.237   5.006   7.052 -0.3062  0.0160  1.8989
16921SOL    HW263237   0.370   4.984   7.145  0.9130 -1.0297 -0.0515
16922SOL     OW63238   4.486   8.947   1.199  0.5075  0.5876  0.5655
16922SOL    HW163239   4.584   8.952   1.180  0.4606 -0.7496 -0.0870
16922SOL    HW263240   4.453   8.855   1.180 -0.8230  0.9454  1.0791
16923SOL     OW63241   0.437   4.709   7.796  0.7297  0.0198 -0.1097
16923SOL    HW163242   0.519   4.653   7.803  0.6306  0.0743  1.5451
16923SOL    HW263243   0.450   4.794   7.846 -0.7697 -0.4918  1.1802
16924SOL     OW63244   8.869   4.515   4.756  0.1143  0.2137  0.2519
16924SOL    HW163245   8.881   4.601   4.707  2.1392  0.8963  1.9035
16924SOL    HW263246   8.771   4.495   4.766 -0.3503  1.7479 -1.0889
16925SOL     OW63247   7.858   0.748   2.332 -0.0428 -0.3856  0.0957
16925SOL    HW163248   7.806   0.788   2.407 -1.0475  0.0328 -0.8255
16925SOL    HW263249   7.816   0.661   2.305  0.1997 -0.4388 -0.1121
16926SOL     OW63250   7.584   2.201   0.794  0.1410 -0.6643  0.1785
16926SOL    HW163251   7.670   2.241   0.826  0.3709 -0.5795 -0.5372
16926SOL    HW263252   7.603   2.114   0.748 -0.2145 -0.9262  0.5215
16927SOL     OW63253   8.510   1.651   5.594  0.2524 -0.4211 -0.2805
16927SOL    HW163254   8.427   1.641   5.650  0.3986  1.1132  0.2516
16927SOL    HW263255   8.500   1.730   5.533  1.4042 -0.0704 -0.0376
16928SOL     OW63256   1.435   6.431   4.334  0.4499  0.0755  0.2165
16928SOL    HW163257   1.366   6.369   4.297  1.2709 -1.6494  1.5014
16928SOL    HW263258   1.515   6.378   4.364  2.0944  1.9530 -0.6738
16929SOL     OW63259   7.083   0.981   0.544  0.4782 -0.2824  0.0559
16929SOL    HW163260   7.093   0.918   0.468  0.2867 -1.3701  0.9159
16929SOL    HW263261   7.058   1.072   0.510  0.2952 -0.7837 -1.1566
16930SOL     OW63262   5.506   6.980   2.218  0.2836 -0.0857 -0.4164
16930SOL    HW163263   5.572   6.991   2.292 -0.8146 -0.8981  0.7136
16930SOL    HW263264   5.477   7.069   2.185 -0.9229  0.3552  1.7070
16931SOL     OW63265   1.418   0.923   1.113  0.4701  0.1331 -0.3386
16931SOL    HW163266   1.465   0.995   1.165  0.1900  0.7185 -0.8782
16931SOL    HW263267   1.471   0.901   1.031  0.4524 -0.1242 -0.2790
16932SOL     OW63268   8.609   7.868   0.063  0.3177  0.0992 -0.5142
16932SOL    HW163269   8.685   7.867  -0.002  0.5172  0.0367 -0.2799
16932SOL    HW263270   8.631   7.929   0.139 -0.3119  0.9046 -0.9722
16933SOL     OW63271   2.554   7.908   7.607 -0.1182 -0.3586  0.1687
16933SOL    HW163272   2.590   7.878   7.519 -0.8668  1.3976 -0.7665
16933SOL    HW263273   2.463   7.948   7.594  0.1782  0.8403  1.5951
16934SOL     OW63274   6.204   8.984   5.697  0.6966  0.3917  0.5095
16934SOL    HW163275   6.120   8.945   5.660  0.9749  0.2993 -0.0295
16934SOL    HW263276   6.199   9.084   5.696  1.5050  0.4411 -1.6775
16935SOL     OW63277   7.463   4.249   2.541 -0.6530 -0.1357  0.3481
16935SOL    HW163278   7.370   4.214   2.530 -1.6140  1.8154  1.8445
16935SOL    HW263279   7.467   4.309   2.622  1.5395  1.0212 -0.5619
16936SOL     OW63280   7.809   5.483   8.408  0.0605 -0.1115  0.1880
16936SOL    HW163281   7.807   5.437   8.320 -1.1268 -0.0335  0.1679
16936SOL    HW263282   7.716   5.507   8.436  0.5830  1.5597  0.5668
16937SOL     OW63283   2.862   3.718   6.637  0.0792  0.0738  0.2968
16937SOL    HW163284   2.945   3.706   6.583  0.0891 -0.0937  0.3489
16937SOL    HW263285   2.820   3.806   6.616 -2.0192 -1.5908 -2.8804
16938SOL     OW63286   1.246   5.715   8.039 -0.4920  0.0424  0.0315
16938SOL    HW163287   1.181   5.700   7.963 -1.9993 -1.1079  1.5034
16938SOL    HW263288   1.254   5.631   8.092  2.1201  0.2334 -0.0170
16939SOL     OW63289   4.393   7.473   7.304 -0.4184  0.2970  0.0451
16939SOL    HW163290   4.400   7.573   7.309 -0.9246  0.3595 -0.5204
16939SOL    HW263291   4.297   7.446   7.310 -0.5252  0.0066 -2.7072
16940SOL     OW63292   5.056   8.927   8.286  0.4010  0.4727 -0.2980
16940SOL    HW163293   5.134   8.893   8.234  0.6651 -1.5537  1.3517
16940SOL    HW263294   5.088   8.959   8.375 -0.9282 -2.8740  1.4620
16941SOL     OW63295   3.979   6.748   1.960  0.0532  0.3092 -0.1239
16941SOL    HW163296   4.030   6.730   1.876  0.9507  0.6534  0.3490
16941SOL    HW263297   3.961   6.846   1.968 -0.7224  0.1843 -0.3127
16942SOL     OW63298   7.666   8.803   6.727  0.7768  0.2712 -0.2379
16942SOL    HW163299   7.675   8.708   6.758  0.4927 -0.2151 -1.5836
16942SOL    HW263300   7.744   8.856   6.759  0.2588 -0.0900  1.6640
16943SOL     OW63301   3.917   8.923   8.587  0.1292  0.3198 -0.4477
16943SOL    HW163302   3.992   8.939   8.651  0.6700 -0.8722 -0.7692
16943SOL    HW263303   3.950   8.937   8.494  0.3115 -1.4201 -0.6682
16944SOL     OW63304   5.769   3.497   5.166 -0.0325  0.3396  0.9803
16944SOL    HW163305   5.714   3.578   5.146  0.4431  0.2122 -0.9278
16944SOL    HW263306   5.825   3.474   5.086  0.7073 -1.1786  1.9162
16945SOL     OW63307   5.935   6.100   6.437 -0.3837  0.4636  0.2523
16945SOL    HW163308   5.993   6.118   6.517  1.0808 -0.4052 -0.5851
16945SOL    HW263309   5.938   6.002   6.415 -0.6240  0.7231 -0.9802
16946SOL     OW63310   4.656   0.359   7.795  0.2298  0.0140 -0.1036
16946SOL    HW163311   4.594   0.322   7.864 -1.3974  1.6108 -0.6760
16946SOL    HW263312   4.627   0.328   7.704  1.3738 -0.7213 -0.2363
16947SOL     OW63313   2.971   7.471   5.877  0.2377  0.4870 -0.1690
16947SOL    HW163314   2.978   7.388   5.822 -2.4767  1.0763 -1.5250
16947SOL    HW263315   3.013   7.457   5.966  0.4826 -2.0735 -0.6591
16948SOL     OW63316   5.865   7.983   0.380  0.0436 -0.1230  0.4947
16948SOL    HW163317   5.964   7.970   0.378  0.0009 -0.1855 -1.4938
16948SOL    HW263318   5.829   7.950   0.468  2.0362  1.8636  2.1147
16949SOL     OW63319   1.586   6.638   1.117  0.2749  0.4527  0.0050
16949SOL    HW163320   1.634   6.702   1.177  0.9781  0.8039 -0.9339
16949SOL    HW263321   1.647   6.607   1.045  0.1529 -1.8289  0.8348
16950SOL     OW63322   7.948   3.335   8.338  0.0487  0.3721  0.4101
16950SOL    HW163323   8.043   3.364   8.351  0.4280 -1.5661  2.1864
16950SOL    HW263324   7.892   3.374   8.412 -0.0820 -0.5309  0.7847
16951SOL     OW63325   4.104   6.961   4.686  0.2485  0.3148  0.2742
16951SOL    HW163326   4.115   7.060   4.685  2.3801  0.0872  0.2328
16951SOL    HW263327   4.092   6.930   4.780  3.0517  0.2580  0.6296
16952SOL     OW63328   3.977   4.130   7.775  0.5115 -0.3900 -0.4909
16952SOL    HW163329   4.053   4.065   7.785  0.8522  0.0314 -0.3253
16952SOL    HW263330   3.911   4.094   7.709  0.6956 -0.9071 -0.3991
16953SOL     OW63331   8.790   6.974   2.543  0.1451  0.4026  0.8554
16953SOL    HW163332   8.863   7.009   2.484 -1.2910  1.2975 -0.4093
16953SOL    HW263333   8.810   6.879   2.568  0.3288 -0.2742 -1.7794
16954SOL     OW63334   4.154   3.327   0.211  0.4993 -0.7957 -0.2545
16954SOL    HW163335   4.154   3.251   0.145 -1.3696 -0.7540 -0.3154
16954SOL    HW263336   4.060   3.351   0.235  1.1287 -0.2092  1.7521
16955SOL     OW63337   6.308   2.857   2.220 -0.1455  0.0465  0.0940
16955SOL    HW163338   6.355   2.918   2.157  0.3845 -0.2232  0.2251
16955SOL    HW263339   6.212   2.851   2.195 -0.2443  1.0782  0.1887
16956SOL     OW63340   8.477   2.598   3.701 -0.5673  1.0949 -0.5976
16956SOL    HW163341   8.413   2.673   3.720 -0.7923  0.2337  2.2495
16956SOL    HW263342   8.433   2.511   3.721  1.2740  0.4521  0.7994
16957SOL     OW63343   7.434   4.168   1.885  0.0802  0.3041  0.5006
16957SOL    HW163344   7.489   4.169   1.968 -0.7288 -0.1797  1.0397
16957SOL    HW263345   7.339   4.189   1.907 -0.5810 -2.0644  0.0358
16958SOL     OW63346   0.188   6.162   3.109 -0.1276 -0.0536 -0.1327
16958SOL    HW163347   0.131   6.232   3.066 -0.6751 -0.6546 -0.4059
16958SOL    HW263348   0.162   6.072   3.073 -0.1383 -0.4986  0.9828
16959SOL     OW63349   8.382   8.819   5.223  0.4488  0.2050 -0.7542
16959SOL    HW163350   8.432   8.905   5.211  2.0578 -0.2775  1.9035
16959SOL    HW263351   8.447   8.743   5.225 -0.3589 -0.4904  2.3447
16960SOL     OW63352   0.126   2.197   3.817 -0.1501 -0.4673 -0.5450
16960SOL    HW163353   0.185   2.246   3.881  0.6719 -1.2911 -0.6661
16960SOL    HW263354   0.140   2.233   3.724 -0.6655  0.0992 -0.4053
16961SOL     OW63355   5.537   7.373   2.432  0.2160  0.0312  0.4298
16961SOL    HW163356   5.565   7.387   2.337  1.3139 -1.1210  0.5720
16961SOL    HW263357   5.445   7.333   2.435  0.0868  0.2909 -0.1406
16962SOL     OW63358   5.329   7.513   0.503 -0.8405 -0.2245 -0.2253
16962SOL    HW163359   5.414   7.544   0.460 -0.2520 -0.8325  0.4920
16962SOL    HW263360   5.252   7.566   0.466 -0.2219 -0.0423 -1.2724
16963SOL     OW63361   2.112   4.597   0.331  0.3101 -0.2362 -0.1298
16963SOL    HW163362   2.199   4.595   0.281  0.9743  0.7595  0.9343
16963SOL    HW263363   2.118   4.665   0.405 -1.2173 -0.4908  0.2504
16964SOL     OW63364   3.962   6.578   0.850 -0.0360 -0.1490 -0.6141
16964SOL    HW163365   3.942   6.486   0.816 -0.9133  0.2388 -1.1671
16964SOL    HW263366   4.027   6.623   0.789  0.6687 -0.5346 -0.1458
16965SOL     OW63367   8.527   4.644   1.540  0.3730 -0.3647  0.4159
16965SOL    HW163368   8.560   4.720   1.596  1.2197  0.7694 -1.5989
16965SOL    HW263369   8.454   4.676   1.480  1.2870 -0.9513 -1.0216
16966SOL     OW63370   8.703   8.284   5.592  0.2219 -0.4229 -0.6421
16966SOL    HW163371   8.713   8.311   5.688 -0.2849 -0.1945 -0.6517
16966SOL    HW263372   8.775   8.327   5.538  0.6995 -0.8091 -0.3086
16967SOL     OW63373   4.214   1.744   2.231  0.3815  0.3337  0.1411
16967SOL    HW163374   4.169   1.831   2.209  0.7341  0.0097 -2.0159
16967SOL    HW263375   4.313   1.759   2.238  0.3811  0.2217  0.3762
16968SOL     OW63376   1.090   4.836   2.946 -0.1181  0.1823  0.5992
16968SOL    HW163377   1.113   4.845   2.849 -0.1246  1.8544  0.7477
16968SOL    HW263378   1.104   4.741   2.974  0.1011 -0.2717 -0.9803
16969SOL     OW63379   1.836   3.433   4.313  0.1666 -0.4007  0.8733
16969SOL    HW163380   1.806   3.527   4.294  0.1943 -0.4827  0.4112
16969SOL    HW263381   1.923   3.416   4.267 -2.0363 -2.0973 -2.8807
16970SOL     OW63382   7.004   1.798   0.735  0.3011 -0.3495  0.2195
16970SOL    HW163383   6.918   1.802   0.786  0.1520  0.8669 -0.1196
16970SOL    HW263384   6.992   1.739   0.655 -0.5877  0.8034 -0.5092
16971SOL     OW63385   7.935   1.683   3.138  0.1242  0.2070  0.5322
16971SOL    HW163386   7.845   1.686   3.183  0.1413 -1.4776  0.7212
16971SOL    HW263387   7.923   1.656   3.042  0.4253  0.0104  0.5508
16972SOL     OW63388   0.536   4.813   0.689 -0.2263  0.9136  0.6453
16972SOL    HW163389   0.622   4.789   0.645 -0.2796  1.7392  0.0758
16972SOL    HW263390   0.542   4.795   0.787  0.3056  0.1903  0.4754
16973SOL     OW63391   1.205   3.726   1.658  0.6414 -0.7467 -0.6045
16973SOL    HW163392   1.231   3.736   1.754  0.0613 -0.5692 -0.4618
16973SOL    HW263393   1.224   3.632   1.629  0.9829 -0.7535 -0.3691
16974SOL     OW63394   1.433   3.403   6.976  0.5613  0.4830  0.0767
16974SOL    HW163395   1.403   3.473   7.042  0.9445  0.2763  0.4727
16974SOL    HW263396   1.355   3.374   6.921  0.2829  0.8249  0.2818
16975SOL     OW63397   0.539   4.727   6.948  0.0075  0.5047 -0.0781
16975SOL    HW163398   0.540   4.671   7.031  1.7664  0.3392 -0.1907
16975SOL    HW263399   0.596   4.684   6.878  0.2904  1.7411 -0.6229
16976SOL     OW63400   6.087   4.729   2.556 -0.9738 -0.0746 -0.2774
16976SOL    HW163401   6.174   4.713   2.602 -0.3465 -2.0999 -2.1032
16976SOL    HW263402   6.070   4.827   2.549  1.9502  0.3901 -1.3326
16977SOL     OW63403   2.159   0.608   5.860  0.5724 -0.2493  0.4850
16977SOL    HW163404   2.072   0.622   5.908 -1.2100  0.0021 -2.6123
16977SOL    HW263405   2.217   0.688   5.871 -0.7182  0.7125  0.4228
16978SOL     OW63406   2.972   0.906   3.403  0.2159  0.5707 -0.0636
16978SOL    HW163407   2.932   0.923   3.313 -0.4822 -1.6906 -0.2309
16978SOL    HW263408   2.987   0.807   3.414  1.8758  0.9912  1.6428
16979SOL     OW63409   0.397   2.790   0.607  0.2943 -0.2148 -0.6678
16979SOL    HW163410   0.407   2.783   0.706  0.3571 -0.1991 -0.6732
16979SOL    HW263411   0.467   2.735   0.562  1.6979  1.5736 -0.7243
16980SOL     OW63412   5.277   6.010   7.678  0.5167 -0.0119 -1.0903
16980SOL    HW163413   5.343   5.937   7.698  2.3982  1.4052 -1.9684
16980SOL    HW263414   5.258   6.061   7.762 -1.0366 -1.6392 -0.4016
16981SOL     OW63415   4.759   0.142   1.012 -0.8422  0.6198  0.4556
16981SOL    HW163416   4.680   0.110   1.064 -2.6284  1.0969 -1.8941
16981SOL    HW263417   4.751   0.240   0.997 -0.2848  0.5077 -0.5882
16982SOL     OW63418   7.582   4.336   7.741  0.0014 -0.1601 -0.0215
16982SOL    HW163419   7.530   4.303   7.820 -0.9132 -0.6625 -0.8152
16982SOL    HW263420   7.644   4.408   7.770  0.5092 -1.1311  1.3675
16983SOL     OW63421   6.487   4.759   5.386 -0.0436 -0.6090  0.0156
16983SOL    HW163422   6.524   4.783   5.296  1.5057  1.2875  1.1311
16983SOL    HW263423   6.472   4.660   5.390 -1.6380 -0.5317 -2.8664
16984SOL     OW63424   2.439   2.311   1.928  0.0444 -0.0422 -0.4101
16984SOL    HW163425   2.465   2.272   1.840 -2.2518 -1.9056 -0.2986
16984SOL    HW263426   2.414   2.407   1.916  0.4421 -0.0913 -1.6574
16985SOL     OW63427   2.270   6.822   4.080  0.5863 -0.1703 -0.3665
16985SOL    HW163428   2.175   6.839   4.055  0.5903 -0.7326 -0.7752
16985SOL    HW263429   2.279   6.728   4.115  0.9927 -0.1306 -0.3573
16986SOL     OW63430   5.816   8.491   5.520  0.8703 -0.6132 -0.5831
16986SOL    HW163431   5.863   8.546   5.589  0.5276 -2.1409  0.9039
16986SOL    HW263432   5.789   8.549   5.443 -0.6246  1.5852  1.5240
16987SOL     OW63433   5.734   0.216   2.307 -0.1772 -0.2763  0.2089
16987SOL    HW163434   5.724   0.148   2.379 -0.0773 -0.9156 -0.3728
16987SOL    HW263435   5.724   0.171   2.218  3.2265 -0.1246 -0.2931
16988SOL     OW63436   4.120   3.737   1.763 -0.6601 -0.3774 -0.3979
16988SOL    HW163437   4.134   3.836   1.758  0.4224 -0.3303  2.4297
16988SOL    HW263438   4.194   3.696   1.815 -1.4287 -2.6138 -1.0290
16989SOL     OW63439   2.136   7.764   0.964 -0.6498 -0.4019  0.3212
16989SOL    HW163440   2.104   7.813   0.882 -0.1368 -1.3086 -0.4341
16989SOL    HW263441   2.183   7.680   0.936  0.1029 -0.3909  1.5301
16990SOL     OW63442   5.331   0.246   7.257  0.0604 -0.5354 -0.1708
16990SOL    HW163443   5.427   0.271   7.240 -0.0128 -0.5964 -0.6963
16990SOL    HW263444   5.315   0.153   7.224  0.0666 -0.8923  0.8194
16991SOL     OW63445   8.415   5.131   5.162 -0.2255 -0.3349  0.1844
16991SOL    HW163446   8.503   5.170   5.189 -0.7004 -1.2776  3.3565
16991SOL    HW263447   8.364   5.198   5.108  2.0186  0.5841 -0.8609
16992SOL     OW63448   7.836   7.250   3.688 -0.1011 -0.3080 -0.2419
16992SOL    HW163449   7.814   7.153   3.675 -1.1734  0.1634 -2.2313
16992SOL    HW263450   7.752   7.303   3.688  0.5711  0.7644 -0.4815
16993SOL     OW63451   7.666   0.206   1.393  0.7377  0.7996  0.4962
16993SOL    HW163452   7.589   0.258   1.429 -0.0845  0.4411 -0.7550
16993SOL    HW263453   7.715   0.260   1.325  1.4181  0.9049  1.0540
16994SOL     OW63454   7.465   3.545   8.244  0.5365  0.8450  0.4114
16994SOL    HW163455   7.534   3.584   8.305  1.8511  0.6302 -0.9107
16994SOL    HW263456   7.437   3.614   8.178  2.4909 -0.2106 -1.6112
16995SOL     OW63457   8.567   2.697   1.189  0.1437 -0.5102  0.1723
16995SOL    HW163458   8.605   2.646   1.266  1.9232  0.0854 -0.2982
16995SOL    HW263459   8.589   2.794   1.199  0.6294 -0.4686 -1.2345
16996SOL     OW63460   5.154   7.584   4.944  0.8617 -0.3945 -0.1143
16996SOL    HW163461   5.253   7.567   4.949  0.8205 -0.6206 -0.0487
16996SOL    HW263462   5.121   7.613   5.034  1.1455  1.2074 -0.5216
16997SOL     OW63463   5.187   6.928   4.881 -0.0509  0.2664 -0.4156
16997SOL    HW163464   5.267   6.917   4.940 -0.4536 -0.8634 -0.0607
16997SOL    HW263465   5.137   6.842   4.877 -1.4298  1.0435 -0.3618
16998SOL     OW63466   6.210   2.497   0.281  0.1774  0.4025  0.1867
16998SOL    HW163467   6.135   2.448   0.236  0.0939  1.2544 -0.6129
16998SOL    HW263468   6.268   2.432   0.329 -0.9538 -0.2867  0.6272
16999SOL     OW63469   0.180   5.921   2.988 -0.2624  0.5942  0.4063
16999SOL    HW163470   0.269   5.876   2.996 -1.1770 -1.2276  0.5453
16999SOL    HW263471   0.117   5.863   2.936 -1.4150  1.8100  0.3955
17000SOL     OW63472   1.344   4.889   1.725 -0.1131  0.2736 -0.4312
17000SOL    HW163473   1.319   4.969   1.779 -0.9524 -0.1985 -0.1078
17000SOL    HW263474   1.422   4.843   1.767 -0.4524  0.1848  0.1108
17001SOL     OW63475   2.309   2.702   2.171  1.0500 -0.0462 -0.3199
17001SOL    HW163476   2.262   2.652   2.243 -0.0690  0.7086 -0.5116
17001SOL    HW263477   2.356   2.781   2.210  0.3245  0.4443 -0.4276
17002SOL     OW63478   2.481   5.351   8.277  0.1612  0.7712  0.1815
17002SOL    HW163479   2.569   5.399   8.268  0.6832 -0.2194 -0.0230
17002SOL    HW263480   2.488   5.260   8.235 -0.4068 -0.0198  1.7748
17003SOL     OW63481   3.676   5.897   4.175 -0.5162 -0.0311 -0.4601
17003SOL    HW163482   3.701   5.987   4.140 -0.3576  0.5835  1.2219
17003SOL    HW263483   3.757   5.850   4.209 -0.8156 -0.2388 -0.0284
17004SOL     OW63484   2.583   1.622   8.220 -0.5790  0.5496  0.0605
17004SOL    HW163485   2.508   1.667   8.268 -0.0042  0.2646  1.2465
17004SOL    HW263486   2.655   1.600   8.285  0.4129  0.5672 -1.0291
17005SOL     OW63487   2.664   0.978   0.755 -0.6014  0.2451 -0.2556
17005SOL    HW163488   2.649   0.990   0.853 -0.5526 -2.7984  0.1818
17005SOL    HW263489   2.592   0.919   0.718  1.6023 -1.8948 -1.2179
17006SOL     OW63490   8.352   6.333   8.634  0.2881  0.1247  0.2919
17006SOL    HW163491   8.284   6.357   8.703  0.4941  1.2852  0.0968
17006SOL    HW263492   8.431   6.290   8.677  0.3360  0.6806  0.7551
17007SOL     OW63493   8.348   8.886   3.834 -0.2019  0.2452  0.1940
17007SOL    HW163494   8.339   8.963   3.770  2.7863 -0.1015 -0.7425
17007SOL    HW263495   8.386   8.918   3.920  0.2133 -0.0203  0.1146
17008SOL     OW63496   4.174   8.215   0.969 -0.4235 -0.4912 -0.0558
17008SOL    HW163497   4.181   8.173   0.879  0.2475  1.2541 -0.8483
17008SOL    HW263498   4.261   8.259   0.992  0.4101 -3.4131  2.7490
17009SOL     OW63499   4.890   4.129   3.135  0.3779 -0.0264 -0.5425
17009SOL    HW163500   4.817   4.140   3.066 -1.1488 -1.9673  0.6970
17009SOL    HW263501   4.976   4.109   3.088  0.1455  2.2175 -2.0357
17010SOL     OW63502   2.112   4.938   2.890  0.4078  0.3821  0.1645
17010SOL    HW163503   2.132   4.952   2.793  1.8065 -0.5943  0.3100
17010SOL    HW263504   2.021   4.976   2.910 -0.5052 -0.6708 -1.8322
17011SOL     OW63505   3.742   7.919   3.192  0.0146  0.1243 -0.6103
17011SOL    HW163506   3.647   7.916   3.161 -0.1462  0.5504 -0.1631
17011SOL    HW263507   3.786   8.001   3.155 -0.0006  0.3100 -0.2163
17012SOL     OW63508   4.937   2.866   8.584 -0.3001 -0.1422  0.1419
17012SOL    HW163509   5.032   2.893   8.568  0.0173 -0.2198  1.8319
17012SOL    HW263510   4.876   2.942   8.561  0.1774 -0.0145 -0.7298
17013SOL     OW63511   8.919   8.098   1.475 -0.1174  0.1525 -0.2796
17013SOL    HW163512   8.856   8.175   1.488  1.1615  1.2650 -0.5353
17013SOL    HW263513   8.868   8.012   1.475 -1.2423  0.7652  2.9662
17014SOL     OW63514   2.129   6.427   8.480  0.8803 -0.2053 -0.3565
17014SOL    HW163515   2.119   6.336   8.522  0.8414 -0.1529 -0.2506
17014SOL    HW263516   2.213   6.430   8.426  0.5993 -0.4805 -0.8108
17015SOL     OW63517   2.617   6.422   3.922  0.2285  0.0487  0.4861
17015SOL    HW163518   2.551   6.380   3.984  0.4542 -2.9602 -1.2704
17015SOL    HW263519   2.571   6.492   3.867 -1.1731 -1.0413  0.2554
17016SOL     OW63520   1.094   2.951   6.037 -0.4596 -0.3490 -0.1859
17016SOL    HW163521   1.059   2.874   6.090  1.5779 -2.0405 -1.2282
17016SOL    HW263522   1.160   2.918   5.970  2.4873  2.6164  1.1318
17017SOL     OW63523   0.475   4.989   3.263 -0.2186 -0.3418  0.2128
17017SOL    HW163524   0.429   5.078   3.266  1.2399  0.4035  1.1136
17017SOL    HW263525   0.406   4.916   3.259 -1.4376  0.7921  0.0199
17018SOL     OW63526   0.419   5.329   7.154 -0.1837  0.6984  0.5055
17018SOL    HW163527   0.372   5.253   7.199  1.2414  0.1374  1.0832
17018SOL    HW263528   0.505   5.347   7.201  1.1359  0.4005 -1.7046
17019SOL     OW63529   1.571   5.698   7.974 -0.3691  0.1748  0.1724
17019SOL    HW163530   1.654   5.715   8.028 -0.2831 -2.1472  0.7884
17019SOL    HW263531   1.490   5.721   8.029 -0.1777  2.4677 -0.4379
17020SOL     OW63532   1.503   0.175   5.038  0.0052 -0.1653  0.0177
17020SOL    HW163533   1.519   0.135   5.128  0.0278 -1.5504 -0.5904
17020SOL    HW263534   1.485   0.273   5.048 -1.6711 -0.6013  1.6841
17021SOL     OW63535   4.836   6.309   6.964  0.4027  0.1237  0.1756
17021SOL    HW163536   4.910   6.243   6.963  0.0218 -0.3781  2.1449
17021SOL    HW263537   4.755   6.268   7.007  0.6434  2.3278  2.8710
17022SOL     OW63538   6.796   7.604   5.739  0.4574  0.0084  0.3071
17022SOL    HW163539   6.756   7.652   5.817  1.1465 -0.6283  1.0686
17022SOL    HW263540   6.889   7.576   5.762  1.1296  0.9338 -1.2127
17023SOL     OW63541   6.806   8.032   7.913 -0.3226  0.0071 -0.0484
17023SOL    HW163542   6.781   8.091   7.837 -0.0834 -0.0753 -0.1909
17023SOL    HW263543   6.891   7.984   7.892  0.5273  1.0922  0.8837
17024SOL     OW63544   6.768   7.247   2.410  0.1487  0.0023  0.8066
17024SOL    HW163545   6.703   7.306   2.362 -0.1856  1.4648  2.9753
17024SOL    HW263546   6.776   7.160   2.362 -2.1401  0.4361 -0.4239
17025SOL     OW63547   2.228   1.095   8.865  0.3716 -0.3705 -0.5226
17025SOL    HW163548   2.205   1.037   8.943  0.7437 -0.0800 -0.2000
17025SOL    HW263549   2.167   1.073   8.789  0.0010 -0.6421 -0.1492
17026SOL     OW63550   1.861   5.320   3.451  0.1511  0.3544 -0.5741
17026SOL    HW163551   1.813   5.398   3.411 -1.9112 -1.7935 -2.4603
17026SOL    HW263552   1.799   5.268   3.508  1.0486 -0.8359 -0.6644
17027SOL     OW63553   8.509   7.338   7.101  0.2420 -0.2630  0.2320
17027SOL    HW163554   8.568   7.314   7.179  2.2441 -0.5991 -1.3332
17027SOL    HW263555   8.561   7.395   7.037 -1.2556 -0.2925 -1.0225
17028SOL     OW63556   2.991   0.005   8.026  0.4931 -0.3214  0.5764
17028SOL    HW163557   3.088   0.025   8.041  0.8243 -0.9457 -0.6733
17028SOL    HW263558   2.980  -0.093   8.010 -0.2008 -0.0891 -0.3751
17029SOL     OW63559   3.703   6.991   1.226  0.2133  0.6875 -0.6856
17029SOL    HW163560   3.730   7.087   1.216  0.9440  0.4557 -0.9783
17029SOL    HW263561   3.783   6.932   1.209 -0.4852 -0.0048 -1.5733
17030SOL     OW63562   3.118   7.465   0.923 -0.3927  0.3243  0.2558
17030SOL    HW163563   3.069   7.468   0.836 -2.4206  0.6976  1.3657
17030SOL    HW263564   3.136   7.370   0.948  1.7930  0.2680 -1.4019
17031SOL     OW63565   0.446   4.122   6.656 -0.1700  0.4393  0.1113
17031SOL    HW163566   0.452   4.033   6.701 -0.0710  1.5593  2.4157
17031SOL    HW263567   0.377   4.178   6.702  0.5291  1.9294 -0.6181
17032SOL     OW63568   0.068   5.050   8.320  0.2589  0.1793 -0.0525
17032SOL    HW163569   0.003   4.985   8.280 -0.3218  0.4344  0.4725
17032SOL    HW263570   0.087   5.025   8.414  0.9096  0.1178 -0.2028
17033SOL     OW63571   2.306   2.422   5.648 -0.2921 -0.5385  0.4595
17033SOL    HW163572   2.262   2.377   5.725 -0.3240 -1.1836  0.0714
17033SOL    HW263573   2.353   2.505   5.679 -3.5896  1.3748  0.5446
17034SOL     OW63574   4.163   4.790   2.315 -0.3499 -0.9403  0.6228
17034SOL    HW163575   4.220   4.799   2.397 -1.3816  1.1126  1.1619
17034SOL    HW263576   4.070   4.820   2.336 -0.7912 -1.0388 -1.1297
17035SOL     OW63577   6.055   6.921   4.425  0.4376 -0.2320  0.2377
17035SOL    HW163578   6.022   6.830   4.402  2.4959 -0.8489 -0.4139
17035SOL    HW263579   6.017   6.988   4.361 -0.8469 -0.6572  0.5444
17036SOL     OW63580   5.721   8.858   6.524 -0.4214 -0.0126  0.1577
17036SOL    HW163581   5.756   8.825   6.612 -0.1814 -1.8024 -0.5803
17036SOL    HW263582   5.772   8.939   6.496  0.1431  0.0025  1.2165
17037SOL     OW63583   2.065   2.314   6.147 -0.1940 -0.0123  0.0838
17037SOL    HW163584   2.049   2.216   6.136  1.7306 -0.3229 -0.2658
17037SOL    HW263585   1.981   2.359   6.177 -1.4100 -1.5894 -0.8510
17038SOL     OW63586   1.894   7.427   8.705  0.1651 -0.1366  0.0122
17038SOL    HW163587   1.935   7.402   8.617  2.0225 -0.6559  0.9917
17038SOL    HW263588   1.845   7.513   8.696  1.4366  0.4748 -1.2411
17039SOL     OW63589   1.344   5.733   5.371 -0.1443 -0.3021  0.3404
17039SOL    HW163590   1.309   5.640   5.380 -2.8948  0.8308  2.1111
17039SOL    HW263591   1.303   5.775   5.290  0.2773 -0.2814  0.1369
17040SOL     OW63592   7.063   4.174   2.892 -0.5091  0.6711 -0.2321
17040SOL    HW163593   7.093   4.102   2.956  1.6974  0.6224 -1.2556
17040SOL    HW263594   7.076   4.263   2.935  0.4627  0.6145 -0.3889
17041SOL     OW63595   3.683   8.404   4.881  0.4559  0.4488 -0.6953
17041SOL    HW163596   3.757   8.449   4.930  0.9213 -0.7505 -0.2676
17041SOL    HW263597   3.716   8.317   4.843 -0.3746  0.5270 -1.6318
17042SOL     OW63598   3.084   2.678   0.270  0.1614  0.0344 -0.0221
17042SOL    HW163599   3.164   2.620   0.281 -0.6146 -1.4450 -1.8931
17042SOL    HW263600   3.050   2.705   0.360  1.6491 -0.8440  0.8313
17043SOL     OW63601   7.140   2.787   4.313  0.0730 -0.2379 -0.2626
17043SOL    HW163602   7.112   2.844   4.236  0.4384 -0.7365 -0.7737
17043SOL    HW263603   7.231   2.748   4.294 -0.6565 -1.9014 -0.4377
17044SOL     OW63604   8.550   3.834   7.390  0.0268 -0.0161  0.9052
17044SOL    HW163605   8.648   3.833   7.375 -0.3246 -2.9838 -1.5452
17044SOL    HW263606   8.513   3.923   7.361  1.2429 -0.8977 -3.6208
17045SOL     OW63607   6.614   0.472   7.557  0.0908  0.0776 -0.6038
17045SOL    HW163608   6.565   0.487   7.643 -2.1409 -0.1086 -1.7785
17045SOL    HW263609   6.688   0.406   7.571 -0.4382 -0.1756  1.0967
17046SOL     OW63610   4.671   8.155   4.439  0.0490  0.1365 -0.2435
17046SOL    HW163611   4.614   8.224   4.483 -0.6264  0.5340 -1.6946
17046SOL    HW263612   4.708   8.092   4.508  1.0410  2.1975  1.1520
17047SOL     OW63613   2.836   3.393   3.068 -0.2031  0.3731 -0.0496
17047SOL    HW163614   2.799   3.435   2.984 -2.6017 -0.5863  0.4737
17047SOL    HW263615   2.869   3.301   3.047 -0.6130  0.2113  0.0044
17048SOL     OW63616   0.292   8.632   8.388 -0.2531  0.0290 -0.1731
17048SOL    HW163617   0.284   8.574   8.469 -1.5379 -0.2239 -0.4577
17048SOL    HW263618   0.282   8.574   8.306 -1.0158  0.5681 -0.4668
17049SOL     OW63619   0.230   2.143   5.501  0.4734  0.1955  0.1613
17049SOL    HW163620   0.313   2.184   5.539 -0.3123  0.4552  1.6385
17049SOL    HW263621   0.174   2.215   5.459  0.8222  0.0728 -0.5204
17050SOL     OW63622   5.933   3.011   0.447 -0.2231  0.3928  0.4230
17050SOL    HW163623   5.983   3.017   0.534  2.7379 -0.0266 -1.1905
17050SOL    HW263624   5.937   2.917   0.413 -3.5569 -0.0327  1.0121
17051SOL     OW63625   5.159   0.496   8.324  0.4796  0.3977 -0.1628
17051SOL    HW163626   5.124   0.456   8.409  1.7705 -1.2577 -0.3824
17051SOL    HW263627   5.209   0.580   8.346 -0.3348  0.7014  0.5652
17052SOL     OW63628   5.252   1.618   2.756 -0.5181  0.4519  0.0608
17052SOL    HW163629   5.249   1.524   2.792 -1.2547  0.3185 -0.3488
17052SOL    HW263630   5.161   1.646   2.727 -0.0993  0.8898 -0.8629
17053SOL     OW63631   2.214   5.312   5.658 -0.4764 -0.0889 -0.1435
17053SOL    HW163632   2.304   5.282   5.689  0.0358  0.4257 -1.1264
17053SOL    HW263633   2.179   5.381   5.722 -0.4783 -0.7908  0.6175
17054SOL     OW63634   1.284   7.544   8.735 -0.2671  0.1909  0.7452
17054SOL    HW163635   1.338   7.623   8.764  0.4729 -0.1224  0.2216
17054SOL    HW263636   1.344   7.466   8.718 -0.9809 -0.4663  1.1559
17055SOL     OW63637   4.331   0.391   7.698  0.0622 -0.4432 -0.3807
17055SOL    HW163638   4.297   0.361   7.609 -1.5601 -0.7825  0.3317
17055SOL    HW263639   4.355   0.311   7.753 -0.7208 -0.3093  0.1638
17056SOL     OW63640   7.878   1.439   0.633 -0.0015 -0.4492 -0.4564
17056SOL    HW163641   7.789   1.423   0.675 -0.4002  0.6897 -0.8439
17056SOL    HW263642   7.900   1.537   0.636  0.4321 -0.4776 -1.9071
17057SOL     OW63643   8.124   1.027   7.156 -0.3699  0.0474  0.5072
17057SOL    HW163644   8.038   1.076   7.141 -1.3308 -0.9192  2.6787
17057SOL    HW263645   8.120   0.977   7.242  2.4546  0.1265  0.7515
17058SOL     OW63646   8.574   5.620   8.555  0.0998  0.2043 -0.0866
17058SOL    HW163647   8.637   5.616   8.478 -0.0048 -0.2114 -0.1500
17058SOL    HW263648   8.482   5.595   8.524 -0.4159  2.2601 -0.3262
17059SOL     OW63649   2.161   2.722   8.809  0.0032  0.1636 -0.2444
17059SOL    HW163650   2.165   2.821   8.797 -0.1717  0.1764 -0.1895
17059SOL    HW263651   2.232   2.679   8.752 -0.4428  0.2681 -0.8818
17060SOL     OW63652   3.694   3.911   5.247 -0.0713  0.3971  0.4030
17060SOL    HW163653   3.625   3.924   5.177 -4.5454 -0.9995  4.3083
17060SOL    HW263654   3.680   3.822   5.291  2.8883  1.0146  2.7625
17061SOL     OW63655   6.362   5.008   1.425 -0.6435  0.1110  0.4697
17061SOL    HW163656   6.444   4.953   1.443  0.4452  1.4316 -0.3154
17061SOL    HW263657   6.300   5.002   1.504 -0.1323 -1.4886  0.7658
17062SOL     OW63658   3.360   1.820   5.493  0.4669 -0.1991  0.2679
17062SOL    HW163659   3.280   1.761   5.502  0.1853  0.1740  0.2151
17062SOL    HW263660   3.337   1.912   5.524  0.1488  0.5283 -2.0606
17063SOL     OW63661   2.953   6.594   6.169  0.5166 -0.0397 -0.0864
17063SOL    HW163662   3.024   6.653   6.131  1.1280 -0.2897  0.6491
17063SOL    HW263663   2.920   6.632   6.255 -1.4897  0.9835 -1.2793
17064SOL     OW63664   4.835   0.341   8.397  0.4226 -0.5687 -0.0420
17064SOL    HW163665   4.918   0.370   8.444  0.5985  2.0123 -1.8121
17064SOL    HW263666   4.860   0.293   8.313  0.1555  0.1476 -0.5393
17065SOL     OW63667   3.882   7.471   4.764  0.4490 -0.3719  0.0423
17065SOL    HW163668   3.929   7.527   4.696  2.0200 -0.7217  0.8222
17065SOL    HW263669   3.948   7.438   4.832 -0.4900 -2.9536 -0.2477
17066SOL     OW63670   4.464   4.665   3.566  0.2661 -0.6478 -0.2246
17066SOL    HW163671   4.533   4.727   3.604 -1.4465  0.6944  0.7379
17066SOL    HW263672   4.480   4.572   3.600  1.4230 -0.2949  0.2039
17067SOL     OW63673   5.320   6.444   0.969 -0.0908  0.2714  0.1111
17067SOL    HW163674   5.253   6.391   0.918 -0.4321 -0.2008  1.0412
17067SOL    HW263675   5.348   6.523   0.915  0.5140 -0.9088 -1.3326
17068SOL     OW63676   8.175   7.099   3.623 -0.3052  0.2607 -0.2063
17068SOL    HW163677   8.234   7.058   3.693  0.2978 -0.2075 -0.9688
17068SOL    HW263678   8.220   7.091   3.534 -2.2344 -1.5933 -1.0657
17069SOL     OW63679   3.852   4.424   4.273  0.2298  0.4199 -0.1323
17069SOL    HW163680   3.949   4.440   4.253 -0.1404  2.0939 -0.6518
17069SOL    HW263681   3.796   4.491   4.225 -1.1016  0.3456  1.2609
17070SOL     OW63682   2.320   3.029   5.096  0.3260  0.1826  0.4969
17070SOL    HW163683   2.295   2.976   5.015  0.8097  0.1587  0.3625
17070SOL    HW263684   2.288   3.123   5.085  4.2370  1.3805 -1.7279
17071SOL     OW63685   8.900   6.285   2.483  0.5248  0.2748  0.2240
17071SOL    HW163686   8.832   6.253   2.548 -0.6239  2.1216 -0.0268
17071SOL    HW263687   8.854   6.321   2.402  1.8773 -0.3861 -0.8629
17072SOL     OW63688   6.142   8.730   8.312  0.1805  0.0834 -0.1535
17072SOL    HW163689   6.138   8.797   8.238  0.3532  1.0561  0.7079
17072SOL    HW263690   6.174   8.642   8.276 -0.3296  0.3770 -1.3447
17073SOL     OW63691   2.077   5.771   7.000 -0.1349 -0.8166 -0.9887
17073SOL    HW163692   2.018   5.844   7.033  1.4887  0.2530 -0.3718
17073SOL    HW263693   2.111   5.719   7.079  0.4317 -0.8784 -1.2775
17074SOL     OW63694   8.905   0.230   0.712 -0.1408 -0.0963 -0.0978
17074SOL    HW163695   8.991   0.281   0.710  0.6517 -1.3353  1.1808
17074SOL    HW263696   8.885   0.195   0.621  1.3158 -0.7772 -0.1667
17075SOL     OW63697   2.609   4.923   3.660  0.3366  0.0616 -0.0211
17075SOL    HW163698   2.629   5.001   3.601 -0.2091  0.7672  0.7126
17075SOL    HW263699   2.675   4.850   3.642  1.4028  1.0220 -0.0926
17076SOL     OW63700   7.807   6.142   6.291 -0.1712  0.3541  0.1474
17076SOL    HW163701   7.869   6.220   6.305  0.0393  0.7727 -2.8980
17076SOL    HW263702   7.715   6.168   6.320  0.5411  0.5861  2.3076
17077SOL     OW63703   3.326   4.751   7.753  0.0774 -0.0729  0.2594
17077SOL    HW163704   3.294   4.842   7.726 -0.7689 -0.4874 -0.1406
17077SOL    HW263705   3.392   4.759   7.828  0.3762  0.9031 -0.1058
17078SOL     OW63706   1.124   0.790   8.732 -0.0736  0.3812  0.5036
17078SOL    HW163707   1.085   0.752   8.648 -1.6097 -0.3670  1.5295
17078SOL    HW263708   1.093   0.736   8.811  1.7167  0.7841  1.5219
17079SOL     OW63709   0.632   3.332   1.035 -0.3225 -0.5847 -0.2244
17079SOL    HW163710   0.644   3.316   0.937  0.3443  0.1766 -0.2704
17079SOL    HW263711   0.635   3.430   1.053 -0.5965 -0.7174  0.5425
17080SOL     OW63712   4.105   7.085   5.898  0.2427  0.2824 -0.4041
17080SOL    HW163713   4.092   6.996   5.940  1.1060 -0.9989 -2.7913
17080SOL    HW263714   4.179   7.134   5.944  2.0696 -1.6348 -1.2572
17081SOL     OW63715   3.458   0.604   8.567  0.0684 -0.5720  0.0900
17081SOL    HW163716   3.516   0.633   8.491  0.0553  1.2361  0.7439
17081SOL    HW263717   3.485   0.512   8.596  0.7637 -0.8658 -1.3983
17082SOL     OW63718   8.487   7.914   6.420 -0.0875 -0.6515 -0.4070
17082SOL    HW163719   8.516   8.009   6.434  0.4357 -1.0951  1.7668
17082SOL    HW263720   8.554   7.868   6.362  2.1101 -0.8619  2.1737
17083SOL     OW63721   3.082   5.660   4.364  0.1410  0.3056 -0.4136
17083SOL    HW163722   2.999   5.603   4.366  0.0198  0.5134  1.0302
17083SOL    HW263723   3.162   5.603   4.382  0.0065  0.5744  1.1732
17084SOL     OW63724   4.913   0.993   3.549 -0.0453 -0.3957 -0.4121
17084SOL    HW163725   4.894   0.951   3.638  1.0970 -2.2885 -1.0217
17084SOL    HW263726   5.012   0.988   3.531 -0.1752  0.6777 -1.4433
17085SOL     OW63727   4.428   8.642   8.234 -0.2157  0.4539  0.2543
17085SOL    HW163728   4.385   8.573   8.176 -0.1211  2.0221 -1.7724
17085SOL    HW263729   4.525   8.651   8.209 -0.4139  1.8583 -0.0642
17086SOL     OW63730   6.745   5.726   1.589  0.2531 -0.6840 -0.0431
17086SOL    HW163731   6.712   5.704   1.498 -0.7853 -0.7358  0.3423
17086SOL    HW263732   6.812   5.799   1.583  0.0270 -0.5350 -0.8206
17087SOL     OW63733   3.086   4.544   8.473 -0.3095 -0.0407 -0.0893
17087SOL    HW163734   3.059   4.551   8.569 -1.3359 -3.2035 -0.1207
17087SOL    HW263735   3.140   4.625   8.448  2.0568 -0.3151  3.8088
17088SOL     OW63736   0.348   3.081   4.949  0.0543  0.2554  0.1558
17088SOL    HW163737   0.419   3.010   4.946  0.1440  0.2407  2.0724
17088SOL    HW263738   0.385   3.163   4.994 -1.5384 -0.2424  2.4693
17089SOL     OW63739   3.071   2.422   5.646 -0.0083 -0.0600  0.5492
17089SOL    HW163740   3.167   2.400   5.667 -0.6360 -0.8964  2.7594
17089SOL    HW263741   3.013   2.346   5.674 -1.2215 -0.1686 -2.1398
17090SOL     OW63742   8.573   7.295   6.113  0.4948  0.1941 -0.6573
17090SOL    HW163743   8.519   7.312   6.031 -1.3377  0.0371  0.4831
17090SOL    HW263744   8.537   7.350   6.189  1.4029 -0.5492  0.3410
17091SOL     OW63745   8.147   1.478   3.870  0.2906 -0.1088 -0.2879
17091SOL    HW163746   8.061   1.526   3.889 -0.0086 -0.7991  0.1047
17091SOL    HW263747   8.129   1.399   3.811  0.5119 -0.8344  0.6128
17092SOL     OW63748   0.477   6.301   4.797  0.0795 -0.2529  0.2047
17092SOL    HW163749   0.522   6.313   4.885  0.0164  0.2671  0.1636
17092SOL    HW263750   0.409   6.373   4.783  0.6203  0.1073 -0.5965
17093SOL     OW63751   2.344   5.350   0.521 -0.3189 -0.4152 -0.3740
17093SOL    HW163752   2.327   5.291   0.442  1.6254  1.6104 -2.4221
17093SOL    HW263753   2.274   5.421   0.525 -0.1119 -0.1875 -0.6608
17094SOL     OW63754   1.585   4.422   8.199 -0.1265  0.2737 -0.5164
17094SOL    HW163755   1.574   4.408   8.298  0.4395  1.7177 -0.2459
17094SOL    HW263756   1.495   4.413   8.155 -0.0918 -2.3643 -0.1542
17095SOL     OW63757   7.988   5.979   7.147 -0.3596  0.7400 -0.2394
17095SOL    HW163758   7.900   5.976   7.100 -0.1331  1.3846 -0.7117
17095SOL    HW263759   8.015   5.887   7.173 -0.5693  0.4028 -1.2127
17096SOL     OW63760   7.607   4.153   2.120  0.0425 -0.5166  0.8605
17096SOL    HW163761   7.661   4.165   2.203  2.5943  1.5040 -0.9840
17096SOL    HW263762   7.660   4.101   2.053 -0.6489  0.6207 -0.6195
17097SOL     OW63763   7.588   8.892   1.669  0.1253 -0.2023 -0.5840
17097SOL    HW163764   7.547   8.820   1.613  0.6227 -0.6275 -0.4128
17097SOL    HW263765   7.671   8.926   1.624  0.4822 -0.4920 -0.1472
17098SOL     OW63766   2.997   3.717   1.924 -1.1141  0.2141 -0.2697
17098SOL    HW163767   3.073   3.655   1.944  0.1064  1.9657  0.6448
17098SOL    HW263768   2.916   3.664   1.900  0.9164 -1.6752 -3.2817
17099SOL     OW63769   7.312   7.729   5.660  0.3175  0.4044  0.0307
17099SOL    HW163770   7.304   7.773   5.570  2.3808 -1.1175 -0.9543
17099SOL    HW263771   7.406   7.696   5.672  0.2757  1.2977  3.1085
17100SOL     OW63772   6.910   6.801   1.173  0.3465  0.1511 -0.4157
17100SOL    HW163773   6.995   6.767   1.215  1.5838  3.5306 -0.0521
17100SOL    HW263774   6.864   6.864   1.237  0.2139  2.3057 -2.5644
17101SOL     OW63775   5.785   6.810   1.625 -0.7114 -0.1902  0.1879
17101SOL    HW163776   5.787   6.713   1.649  1.8246  0.4009  2.6612
17101SOL    HW263777   5.854   6.828   1.555 -2.0905 -0.3600 -1.2497
17102SOL     OW63778   5.716   1.361   2.675  0.3600 -0.0509  0.1754
17102SOL    HW163779   5.710   1.452   2.718  0.1688  0.0488 -0.0600
17102SOL    HW263780   5.785   1.307   2.722 -1.1578 -0.6065  1.8342
17103SOL     OW63781   3.207   5.881   7.066 -0.4573  0.2092  0.8900
17103SOL    HW163782   3.303   5.906   7.078  0.3048 -2.8731  1.7383
17103SOL    HW263783   3.195   5.831   6.980 -1.3443  0.7309  0.6987
17104SOL     OW63784   8.580   8.498   4.525 -0.0878  0.5993  0.2035
17104SOL    HW163785   8.599   8.426   4.458 -2.2535 -0.7503  0.9697
17104SOL    HW263786   8.595   8.587   4.483  3.2531 -0.2714 -0.5784
17105SOL     OW63787   7.870   1.119   0.806 -0.3522 -0.0188  0.1720
17105SOL    HW163788   7.840   1.157   0.893 -1.1844 -2.2174  0.8779
17105SOL    HW263789   7.790   1.099   0.748  0.0604 -0.5339 -0.2339
17106SOL     OW63790   7.366   8.955   1.842  0.3467  0.1256 -0.2797
17106SOL    HW163791   7.373   8.875   1.901  0.0487 -0.7136 -1.3897
17106SOL    HW263792   7.435   8.950   1.770 -1.6993 -0.7088 -2.2297
17107SOL     OW63793   1.446   2.627   7.248 -0.3937  0.0872  0.0918
17107SOL    HW163794   1.481   2.655   7.158  0.4393  0.6380  0.5747
17107SOL    HW263795   1.385   2.549   7.238  0.4842 -0.4820 -0.8464
17108SOL     OW63796   0.239   1.148   8.771 -0.4311 -0.3394  0.2916
17108SOL    HW163797   0.160   1.090   8.790 -1.2507  1.1720  1.5591
17108SOL    HW263798   0.319   1.110   8.817  0.0986 -3.0359 -2.6747
17109SOL     OW63799   8.202   7.850   6.991 -1.1023  0.1250  0.3041
17109SOL    HW163800   8.167   7.782   7.054  0.0295 -1.9622 -1.2368
17109SOL    HW263801   8.140   7.859   6.913 -0.9227  0.3715  0.1887
17110SOL     OW63802   4.162   1.995   6.890  0.1436 -0.0910 -0.3832
17110SOL    HW163803   4.146   2.093   6.882  1.2279 -0.0135 -1.6340
17110SOL    HW263804   4.081   1.945   6.858 -0.6221  0.3869  0.7742
17111SOL     OW63805   4.328   0.519   3.889  0.5000  0.3214 -0.4838
17111SOL    HW163806   4.260   0.592   3.887 -0.3175 -0.2833  2.4416
17111SOL    HW263807   4.406   0.544   3.832 -1.8081  1.3731 -3.2681
17112SOL     OW63808   3.452   8.850   7.668 -0.0797 -0.1849  0.4961
17112SOL    HW163809   3.540   8.819   7.633  0.5917  0.1979  1.7956
17112SOL    HW263810   3.393   8.771   7.687 -0.0183 -0.4405 -0.3584
17113SOL     OW63811   2.740   3.535   6.813 -1.0117  0.4563 -0.5998
17113SOL    HW163812   2.781   3.619   6.777  2.2282 -0.3365  1.0888
17113SOL    HW263813   2.731   3.468   6.739  1.3375  0.4457 -0.9137
17114SOL     OW63814   4.053   3.125   0.861  0.4060 -0.1699 -0.0429
17114SOL    HW163815   4.074   3.222   0.866  3.6883 -0.8123 -0.2822
17114SOL    HW263816   4.100   3.076   0.935 -0.2048 -1.7166 -0.6487
17115SOL     OW63817   1.663   2.766   4.787  0.0134  0.2971  0.5404
17115SOL    HW163818   1.678   2.678   4.832  1.0947 -0.2101 -0.7839
17115SOL    HW263819   1.732   2.779   4.715  1.1408  3.0825  2.0232
17116SOL     OW63820   4.650   0.777   8.329 -0.2730  0.4562 -0.7014
17116SOL    HW163821   4.571   0.736   8.374  0.8912  1.5476  2.4317
17116SOL    HW263822   4.633   0.874   8.313  0.2768  0.6036 -0.4018
17117SOL     OW63823   5.228   2.553   8.805  0.1483  0.3075 -0.1429
17117SOL    HW163824   5.250   2.577   8.710  2.2179 -1.1907 -0.0800
17117SOL    HW263825   5.254   2.628   8.865 -1.9144  1.5876 -0.8407
17118SOL     OW63826   1.339   1.192   4.885 -0.3936 -0.3528 -0.1730
17118SOL    HW163827   1.345   1.268   4.820  0.6333 -0.5291 -0.2997
17118SOL    HW263828   1.314   1.227   4.975  0.8817  0.2626 -0.0427
17119SOL     OW63829   3.557   4.185   8.357  0.0101  0.2944 -0.3679
17119SOL    HW163830   3.481   4.233   8.402 -0.2825  1.2324 -1.8147
17119SOL    HW263831   3.523   4.139   8.275  1.4241  2.8349 -2.4586
17120SOL     OW63832   1.811   8.446   1.874  0.1190  1.0056  0.4494
17120SOL    HW163833   1.808   8.531   1.823 -0.1363  0.5894 -0.2254
17120SOL    HW263834   1.749   8.379   1.833  1.6006 -0.0873 -0.0737
17121SOL     OW63835   3.884   5.723   6.844 -0.2234 -0.0560 -0.2151
17121SOL    HW163836   3.874   5.691   6.749 -1.4004 -3.7161  1.0601
17121SOL    HW263837   3.939   5.658   6.895 -0.2575  1.4840  1.8255
17122SOL     OW63838   4.800   6.135   2.776 -0.2695  0.2509  0.1086
17122SOL    HW163839   4.719   6.079   2.795 -1.4115  1.9065  0.1688
17122SOL    HW263840   4.844   6.160   2.863 -0.7618  0.9155  0.1654
17123SOL     OW63841   5.747   5.349   8.290  0.0167 -0.0385  0.2096
17123SOL    HW163842   5.798   5.344   8.204  0.6427  1.0538  0.5143
17123SOL    HW263843   5.744   5.443   8.322 -0.0876 -0.4595  1.4673
17124SOL     OW63844   5.736   7.708   8.342 -0.2117 -0.1064 -0.2214
17124SOL    HW163845   5.700   7.739   8.430 -0.4575 -1.4163  0.1595
17124SOL    HW263846   5.669   7.647   8.299  0.2734 -0.1471 -0.9262
17125SOL     OW63847   2.447   2.629   5.733 -0.6218  0.2202 -0.2516
17125SOL    HW163848   2.413   2.617   5.827  1.2347  1.5008  0.6149
17125SOL    HW263849   2.425   2.720   5.700  1.2456  0.8005  0.0413
17126SOL     OW63850   0.650   7.301   4.197 -0.3042 -0.4534 -0.4347
17126SOL    HW163851   0.574   7.367   4.201  1.3825  1.4042  2.3089
17126SOL    HW263852   0.719   7.335   4.133  0.0522 -0.0880  0.1376
17127SOL     OW63853   1.316   4.459   6.801 -0.4030 -0.4812 -0.3619
17127SOL    HW163854   1.216   4.460   6.799 -0.4540 -1.0972  1.0629
17127SOL    HW263855   1.348   4.484   6.893  0.8380  2.6040 -1.5519
17128SOL     OW63856   7.084   6.399   4.909  0.4617 -0.2007  0.3270
17128SOL    HW163857   7.123   6.348   4.833 -1.1951  1.0276 -1.4017
17128SOL    HW263858   7.131   6.487   4.918  0.3405 -0.1469  0.4302
17129SOL     OW63859   4.229   4.823   3.962 -0.1164 -0.1578  0.2839
17129SOL    HW163860   4.313   4.850   3.913 -0.3152 -2.1255 -1.2252
17129SOL    HW263861   4.245   4.826   4.060  1.8574 -0.8163  0.0084
17130SOL     OW63862   3.952   3.998   0.567 -0.4094 -0.1827  0.3955
17130SOL    HW163863   4.028   4.061   0.551 -0.4895  0.2205  1.5573
17130SOL    HW263864   3.908   3.976   0.480  1.5004 -1.0161 -0.3896
17131SOL     OW63865   1.295   4.713   7.389  0.0221  0.2586 -0.3600
17131SOL    HW163866   1.370   4.704   7.455  1.4558 -0.4973 -2.0480
17131SOL    HW263867   1.308   4.797   7.337  0.8285 -0.8532 -2.0028
17132SOL     OW63868   5.836   1.503   1.938 -0.0114  0.6756  0.1477
17132SOL    HW163869   5.871   1.554   2.016  0.1457  0.5665  0.1486
17132SOL    HW263870   5.889   1.419   1.926  0.6587  1.2072 -0.7175
17133SOL     OW63871   8.832   8.297   5.848 -0.1912  0.5318  0.3103
17133SOL    HW163872   8.781   8.227   5.897  1.1607 -0.2217  0.6750
17133SOL    HW263873   8.903   8.334   5.908  0.9518  0.1751 -0.8103
17134SOL     OW63874   0.316   3.987   1.229 -0.2215 -0.4715  0.1178
17134SOL    HW163875   0.233   4.039   1.209  1.2285  1.2823 -1.6502
17134SOL    HW263876   0.345   3.938   1.147  2.0344  1.2661 -0.1965
17135SOL     OW63877   7.205   4.947   4.393 -0.5699  0.2006  0.1128
17135SOL    HW163878   7.276   5.015   4.409  1.9100 -2.2536  0.0830
17135SOL    HW263879   7.180   4.946   4.296 -0.3425  0.8238  0.0502
17136SOL     OW63880   4.479   4.949   5.882  0.3326 -0.4816 -0.1054
17136SOL    HW163881   4.409   4.979   5.947  1.4048 -0.4274  1.0350
17136SOL    HW263882   4.504   4.854   5.901 -1.0029 -1.2240 -1.9152
17137SOL     OW63883   4.770   4.664   3.745 -0.0953  0.3491 -0.8439
17137SOL    HW163884   4.791   4.616   3.660 -0.8969 -0.3672 -0.6409
17137SOL    HW263885   4.761   4.598   3.819 -1.7736  0.7540 -0.6758
17138SOL     OW63886   1.249   4.983   7.252 -0.3204  0.5563 -0.2328
17138SOL    HW163887   1.343   5.001   7.280 -0.8683  1.5890  1.0243
17138SOL    HW263888   1.189   4.987   7.332 -1.2075 -1.9077 -0.7186
17139SOL     OW63889   4.866   4.140   4.075 -0.0361 -0.2611  0.4104
17139SOL    HW163890   4.786   4.155   4.018  0.6515  1.3051 -0.1669
17139SOL    HW263891   4.913   4.057   4.045 -0.7846 -0.5329 -0.0154
17140SOL     OW63892   7.807   8.499   5.377 -0.3354 -0.3667  0.2515
17140SOL    HW163893   7.719   8.463   5.408 -0.3378 -1.1549 -0.6663
17140SOL    HW263894   7.818   8.592   5.411 -0.5044 -1.0648  2.3327
17141SOL     OW63895   2.570   4.674   3.343 -0.6152  0.8235  0.6739
17141SOL    HW163896   2.642   4.741   3.324  1.0173 -1.4793 -1.4844
17141SOL    HW263897   2.486   4.701   3.296  0.8124 -0.0112 -2.4570
17142SOL     OW63898   3.374   6.576   0.943 -0.0294  0.0921 -0.2815
17142SOL    HW163899   3.339   6.640   1.012 -0.4760  0.0202 -0.4381
17142SOL    HW263900   3.472   6.591   0.931 -0.4998  2.2100 -1.8729
17143SOL     OW63901   4.316   2.571   2.480 -0.4971  0.0425 -0.1012
17143SOL    HW163902   4.401   2.551   2.529 -1.2046 -1.4629  0.5210
17143SOL    HW263903   4.246   2.505   2.506 -1.9803  1.4774 -0.3312
17144SOL     OW63904   3.965   3.103   3.349 -0.8421 -0.0645 -0.2562
17144SOL    HW163905   3.969   3.203   3.360 -2.2066  0.0032 -0.2411
17144SOL    HW263906   3.872   3.077   3.325 -1.1231 -1.5881  2.2719
17145SOL     OW63907   1.362   7.745   8.535  0.0078 -0.9360  0.8829
17145SOL    HW163908   1.456   7.769   8.510 -0.6874  0.4531 -0.4959
17145SOL    HW263909   1.334   7.663   8.486 -0.2111 -0.1078 -0.4241
17146SOL     OW63910   5.583   2.564   2.738  0.2172 -0.1759  0.4284
17146SOL    HW163911   5.488   2.579   2.713  0.7990  0.1461 -1.7264
17146SOL    HW263912   5.590   2.484   2.798 -1.3189 -0.6542 -0.0128
17147SOL     OW63913   1.442   6.080   8.352  0.5110 -0.0566 -0.2490
17147SOL    HW163914   1.381   6.153   8.319  1.0986  0.2736 -0.6015
17147SOL    HW263915   1.521   6.121   8.396 -0.2186 -0.4939  1.5010
17148SOL     OW63916   3.968   1.034   2.530 -0.0181  0.3352 -0.3371
17148SOL    HW163917   3.929   0.959   2.585 -1.8972  2.0607  0.7623
17148SOL    HW263918   4.054   1.064   2.570 -0.9791  1.0410  1.2351
17149SOL     OW63919   4.567   6.079   1.490  0.1731 -0.1060 -0.9898
17149SOL    HW163920   4.585   6.055   1.586 -0.1666  2.2925 -0.2911
17149SOL    HW263921   4.650   6.119   1.450 -0.4188  1.1969 -0.9334
17150SOL     OW63922   3.192   7.081   2.756  0.4033  0.8840 -0.5951
17150SOL    HW163923   3.242   7.089   2.843 -0.6238 -0.1344  0.0957
17150SOL    HW263924   3.202   7.167   2.704  1.7433  1.1829  0.1273
17151SOL     OW63925   1.586   2.497   2.975  0.2249 -0.0535  0.5417
17151SOL    HW163926   1.601   2.473   2.879  0.2685 -0.4077  0.6367
17151SOL    HW263927   1.547   2.590   2.980  1.4959  0.5098  0.2510
17152SOL     OW63928   8.557   4.908   4.341 -0.6775 -0.6623  0.7186
17152SOL    HW163929   8.606   4.993   4.361 -1.5919  0.0513 -0.0779
17152SOL    HW263930   8.573   4.842   4.415 -0.4784  0.4249  1.6436
17153SOL     OW63931   4.635   7.329   6.230  0.4696 -0.2867 -0.5449
17153SOL    HW163932   4.562   7.358   6.292  0.3759 -0.4600 -0.5743
17153SOL    HW263933   4.595   7.295   6.144  0.6878  2.6461 -1.8687
17154SOL     OW63934   7.162   2.344   1.056  0.3730 -0.6988  0.1423
17154SOL    HW163935   7.073   2.372   1.091  1.2954  2.6262 -0.0689
17154SOL    HW263936   7.151   2.307   0.964 -1.1496 -3.1646  1.2674
17155SOL     OW63937   4.491   2.447   6.292  0.0310 -0.7905 -0.2324
17155SOL    HW163938   4.470   2.405   6.204  3.9397 -0.1290 -1.5503
17155SOL    HW263939   4.511   2.375   6.359 -2.8010 -1.2865  0.1394
17156SOL     OW63940   3.983   5.177   7.693  0.3571 -0.9930  0.3872
17156SOL    HW163941   4.010   5.268   7.664  0.2451 -0.1423  2.8371
17156SOL    HW263942   4.060   5.114   7.684 -0.5026 -1.5710 -4.6613
17157SOL     OW63943   0.034   4.270   7.841  0.6118  0.3883 -0.2094
17157SOL    HW163944   0.080   4.188   7.805  0.4856  0.6041 -0.8642
17157SOL    HW263945   0.084   4.351   7.812 -0.4745  0.6540 -1.3814
17158SOL     OW63946   7.253   5.516   4.530 -0.2721 -0.5170  0.4822
17158SOL    HW163947   7.218   5.442   4.587  0.5039 -1.0259  0.3134
17158SOL    HW263948   7.220   5.604   4.564 -1.4202 -0.9513  0.5260
17159SOL     OW63949   1.390   8.012   7.171  0.6397 -0.2139 -0.3414
17159SOL    HW163950   1.304   8.064   7.173  0.0780 -1.1043 -0.9474
17159SOL    HW263951   1.467   8.075   7.178 -0.0556  0.6374 -0.2658
17160SOL     OW63952   5.820   3.137   1.030  0.4385  0.2088  0.4261
17160SOL    HW163953   5.747   3.204   1.020  0.5361  0.3538  0.6536
17160SOL    HW263954   5.883   3.168   1.102  0.5607 -0.0585  0.4343
17161SOL     OW63955   3.483   1.879   1.734  0.2657 -0.1733 -0.4458
17161SOL    HW163956   3.437   1.821   1.802 -0.2251  0.5740 -0.1366
17161SOL    HW263957   3.478   1.974   1.763  0.3215  0.1160 -1.3855
17162SOL     OW63958   4.711   5.738   4.798  0.1467 -0.2669 -0.0163
17162SOL    HW163959   4.717   5.639   4.784  0.0620 -0.4098  0.9613
17162SOL    HW263960   4.663   5.757   4.884  0.3768  0.6201 -0.0792
17163SOL     OW63961   8.601   2.450   8.099 -0.3065 -0.6934 -0.3951
17163SOL    HW163962   8.627   2.357   8.124 -2.1237 -0.9130  0.7938
17163SOL    HW263963   8.537   2.486   8.167  0.2512  1.3768 -0.9289
17164SOL     OW63964   0.193   6.437   3.730 -0.3918 -0.0571 -0.1870
17164SOL    HW163965   0.255   6.436   3.808  1.4855  0.8429 -1.6347
17164SOL    HW263966   0.200   6.350   3.680  0.3798  0.3814 -0.8551
17165SOL     OW63967   1.558   8.463   8.645  0.1883 -0.0119  0.3332
17165SOL    HW163968   1.614   8.445   8.726  0.5537  1.6476  0.4719
17165SOL    HW263969   1.469   8.498   8.674  0.1419  0.1211  0.0261
17166SOL     OW63970   5.356   4.531   7.583  0.0803  0.2024 -0.4216
17166SOL    HW163971   5.297   4.574   7.515 -3.2969 -1.0010  1.6078
17166SOL    HW263972   5.360   4.432   7.566  0.5005  0.1114  0.1963
17167SOL     OW63973   7.545   3.753   8.846 -0.7147 -0.3111 -0.1961
17167SOL    HW163974   7.572   3.792   8.758  1.2449  0.5799  0.7769
17167SOL    HW263975   7.562   3.819   8.919  0.6225 -2.1835  1.2224
17168SOL     OW63976   2.861   0.845   1.730 -0.2249  0.1998 -0.1831
17168SOL    HW163977   2.925   0.838   1.807  0.8934  0.6088 -1.0620
17168SOL    HW263978   2.889   0.920   1.671 -0.9553 -0.2559 -1.1142
17169SOL     OW63979   0.860   0.930   5.829 -0.2160 -0.0948  0.0085
17169SOL    HW163980   0.918   0.973   5.760  1.4103  0.2130  1.5493
17169SOL    HW263981   0.788   0.995   5.856 -1.7241 -0.7078 -2.3632
17170SOL     OW63982   3.472   7.292   2.006 -0.4693  0.1065  0.0239
17170SOL    HW163983   3.436   7.205   1.971  0.9965 -0.7051  0.4927
17170SOL    HW263984   3.420   7.367   1.966  0.3570 -0.8348 -2.9841
17171SOL     OW63985   3.946   7.421   4.377 -0.3315 -0.2792  0.4375
17171SOL    HW163986   3.850   7.425   4.350 -0.1426  0.0913 -0.2010
17171SOL    HW263987   3.954   7.372   4.463 -0.9204 -1.6622 -0.2808
17172SOL     OW63988   8.521   6.148   2.680  0.0594  0.6712 -0.7388
17172SOL    HW163989   8.452   6.195   2.736  0.8325  0.3607  0.4865
17172SOL    HW263990   8.476   6.089   2.613 -0.8690 -1.3286  1.5824
17173SOL     OW63991   7.399   2.274   6.360 -0.0971 -0.0135 -0.4422
17173SOL    HW163992   7.417   2.369   6.387  0.9942 -0.8507  1.9710
17173SOL    HW263993   7.303   2.253   6.375  0.3248 -0.2186  2.1854
17174SOL     OW63994   0.013   4.703   8.029  0.0603 -0.3064  0.1427
17174SOL    HW163995  -0.003   4.718   8.127 -3.3196  1.2777 -0.5531
17174SOL    HW263996   0.048   4.787   7.988  1.3191 -0.9204 -0.0379
17175SOL     OW63997   2.169   3.104   8.223 -0.4962 -0.1102 -0.0927
17175SOL    HW163998   2.229   3.103   8.303 -0.4358  1.0567 -0.1182
17175SOL    HW263999   2.143   3.198   8.202 -1.9199 -0.5565 -0.3886
17176SOL     OW64000   0.424   5.010   0.306  0.0839 -0.2998 -0.4307
17176SOL    HW164001   0.506   4.953   0.308  1.0764  1.1589  1.3111
17176SOL    HW264002   0.387   5.019   0.399 -0.9439  0.6225 -0.9161
17177SOL     OW64003   2.140   7.137   0.992 -0.0338 -0.4115  0.1779
17177SOL    HW164004   2.176   7.081   0.917 -1.7285  0.8139 -1.5882
17177SOL    HW264005   2.041   7.144   0.984 -0.0393  1.2705  1.4682
17178SOL     OW64006   4.663   1.309   2.119  0.3863 -0.0949 -0.2900
17178SOL    HW164007   4.760   1.313   2.140  0.5797 -0.7886 -1.0119
17178SOL    HW264008   4.638   1.214   2.097 -0.3395  0.1683 -0.6076
17179SOL     OW64009   7.721   7.272   0.272 -0.0941 -0.3880 -0.2612
17179SOL    HW164010   7.821   7.277   0.275 -0.1589  1.2720 -0.5099
17179SOL    HW264011   7.684   7.269   0.365  0.0556  2.2877 -0.0805
17180SOL     OW64012   0.370   7.944   7.261  0.1910 -0.1989 -0.2349
17180SOL    HW164013   0.371   7.917   7.357 -1.1222 -1.0617 -0.4416
17180SOL    HW264014   0.408   7.870   7.205 -0.6155 -0.3913 -0.5326
17181SOL     OW64015   3.982   0.538   4.082  0.1317  0.0590 -0.2977
17181SOL    HW164016   3.978   0.595   4.164  3.3668  0.5915 -0.4417
17181SOL    HW264017   3.953   0.593   4.003 -2.5844 -0.3351  0.3771
17182SOL     OW64018   2.701   3.159   1.883  0.1341 -0.6887  0.0760
17182SOL    HW164019   2.686   3.086   1.816  1.1026 -1.6059  0.8331
17182SOL    HW264020   2.693   3.122   1.976  2.5852 -0.2878  0.4878
17183SOL     OW64021   1.889   6.781   8.509 -0.3971  0.2855 -0.2050
17183SOL    HW164022   1.921   6.874   8.526 -0.8958  0.1992  1.3037
17183SOL    HW264023   1.804   6.784   8.456 -0.8923  0.7423  0.5995
17184SOL     OW64024   8.441   5.154   6.663 -0.1375 -0.1654 -0.1197
17184SOL    HW164025   8.499   5.106   6.598  0.2384 -2.0104  1.5423
17184SOL    HW264026   8.488   5.163   6.751 -1.9968 -0.8734  0.9817
17185SOL     OW64027   8.667   6.679   0.786 -0.0773  0.4891  0.5186
17185SOL    HW164028   8.720   6.609   0.737 -1.5000  0.6310 -1.2602
17185SOL    HW264029   8.681   6.667   0.885  2.1550 -0.3452  0.1492
17186SOL     OW64030   5.121   8.570   6.786 -0.1580  0.2100  0.4294
17186SOL    HW164031   5.153   8.535   6.875  1.0910  0.0059 -0.0893
17186SOL    HW264032   5.050   8.639   6.801 -1.2505 -1.1097  1.5342
17187SOL     OW64033   0.928   5.602   1.650  0.3713 -0.2976 -0.0853
17187SOL    HW164034   0.977   5.621   1.735 -0.6415  1.7782  0.0622
17187SOL    HW264035   0.829   5.602   1.667  0.0750  1.8124 -1.5362
17188SOL     OW64036   8.396   8.758   7.943  0.2910 -0.4655  0.5927
17188SOL    HW164037   8.473   8.752   7.880  0.6941  2.5656  0.7145
17188SOL    HW264038   8.431   8.774   8.036 -0.4284 -0.2054  0.8183
17189SOL     OW64039   5.880   4.558   0.815 -0.1371 -0.5045  0.2311
17189SOL    HW164040   5.841   4.611   0.739 -1.0937 -0.3557  0.8091
17189SOL    HW264041   5.969   4.596   0.839 -0.3152  0.1418 -0.1035
17190SOL     OW64042   7.870   1.108   5.597 -0.0539  0.7129 -0.2380
17190SOL    HW164043   7.935   1.094   5.522  1.5456  1.7045  0.9281
17190SOL    HW264044   7.882   1.037   5.666 -1.0191  0.2317 -0.5522
17191SOL     OW64045   5.843   7.135   8.417 -0.7616 -0.4769  0.1361
17191SOL    HW164046   5.841   7.100   8.511 -0.1466 -3.0428 -0.7713
17191SOL    HW264047   5.937   7.150   8.389 -0.9657  0.7521  0.0594
17192SOL     OW64048   2.604   4.925   0.464  0.3017 -0.2029 -0.2117
17192SOL    HW164049   2.539   4.999   0.447  1.0340  0.0710 -1.9381
17192SOL    HW264050   2.687   4.962   0.505  0.5208 -0.1103 -0.7312
17193SOL     OW64051   5.516   7.101   2.726  0.0420 -0.0826  0.6099
17193SOL    HW164052   5.571   7.050   2.660  0.5515 -1.0086  1.7092
17193SOL    HW264053   5.422   7.107   2.694  0.2955 -0.4643 -0.2310
17194SOL     OW64054   8.468   3.508   1.172 -0.0928  0.2095 -0.5838
17194SOL    HW164055   8.546   3.551   1.128 -0.3650  1.1514 -0.1498
17194SOL    HW264056   8.389   3.569   1.169  0.1806  0.7689  2.1565
17195SOL     OW64057   5.773   3.370   2.317  0.1923 -0.1997 -0.3662
17195SOL    HW164058   5.795   3.296   2.253  0.3244 -0.5148  0.0375
17195SOL    HW264059   5.674   3.378   2.326  0.1812 -0.7094  0.0184
17196SOL     OW64060   4.703   3.822   5.652  0.4931  0.3737  0.1658
17196SOL    HW164061   4.727   3.823   5.749  0.9120  0.4775  0.0596
17196SOL    HW264062   4.638   3.748   5.635  0.7100  0.1153  0.4570
17197SOL     OW64063   4.183   1.268   2.907 -0.5199 -0.2315  0.4319
17197SOL    HW164064   4.165   1.266   3.005 -0.1910 -0.1533  0.4949
17197SOL    HW264065   4.160   1.359   2.871 -1.4515 -0.5182  0.2760
17198SOL     OW64066   1.447   3.539   8.028 -0.1588  0.3601  0.5982
17198SOL    HW164067   1.403   3.470   8.085 -0.1544 -0.5790 -0.5259
17198SOL    HW264068   1.498   3.495   7.954 -2.9061  1.6333 -2.1645
17199SOL     OW64069   5.734   3.670   8.619 -0.5262  0.2768 -0.1296
17199SOL    HW164070   5.736   3.762   8.658 -0.2466  1.1669 -2.2065
17199SOL    HW264071   5.651   3.659   8.564  1.3512  0.6808 -3.1437
17200SOL     OW64072   0.619   5.845   1.612  0.1805 -0.1256  0.2668
17200SOL    HW164073   0.711   5.870   1.581  0.0823 -0.2052 -0.0909
17200SOL    HW264074   0.563   5.927   1.622 -0.3841 -0.2436 -1.6729
17201SOL     OW64075   2.080   4.823   4.133  0.1146  0.0781  0.4212
17201SOL    HW164076   2.111   4.738   4.092 -1.1725  0.0701 -0.5548
17201SOL    HW264077   2.137   4.845   4.213  1.2712 -1.0037 -0.1063
17202SOL     OW64078   7.464   7.612   8.630  0.0210  0.5271  0.2087
17202SOL    HW164079   7.504   7.531   8.673 -0.5053  0.2671  0.2028
17202SOL    HW264080   7.408   7.662   8.697  0.6598  1.1026  0.3239
17203SOL     OW64081   2.899   6.309   5.543  0.3633  0.1235 -0.3614
17203SOL    HW164082   2.962   6.252   5.596 -0.3026 -0.4377 -0.1574
17203SOL    HW264083   2.850   6.252   5.477 -0.6434  0.3767  0.1550
17204SOL     OW64084   4.680   1.305   5.720  0.0456 -0.3584 -0.5144
17204SOL    HW164085   4.754   1.260   5.769 -0.0139 -0.8169 -0.8359
17204SOL    HW264086   4.601   1.244   5.715  0.1633 -0.4495 -1.4540
17205SOL     OW64087   8.121   4.034   3.130 -0.5244  0.1854 -0.6156
17205SOL    HW164088   8.139   3.953   3.074 -1.7842 -0.2834 -0.3401
17205SOL    HW264089   8.044   4.085   3.092  0.1273  1.1564 -0.6702
17206SOL     OW64090   2.592   2.002   3.104  0.4746 -0.2241  0.2949
17206SOL    HW164091   2.596   1.986   3.006  1.2825 -0.1713  0.3143
17206SOL    HW264092   2.534   1.932   3.147 -1.8201  1.1597 -0.4978
17207SOL     OW64093   8.790   4.911   0.841 -0.1483 -0.5682 -0.2674
17207SOL    HW164094   8.762   4.862   0.758 -1.3517  1.0310 -0.8362
17207SOL    HW264095   8.716   4.972   0.870  0.9337  0.1733  0.9922
17208SOL     OW64096   4.971   2.207   7.084 -0.0848 -0.2312  0.0019
17208SOL    HW164097   5.041   2.259   7.034  0.6187 -0.1360  1.0741
17208SOL    HW264098   4.881   2.229   7.047  0.2261  1.5559  0.2806
17209SOL     OW64099   7.628   4.914   7.359  0.3078 -0.8762 -0.2125
17209SOL    HW164100   7.624   4.962   7.271 -0.4237 -1.4512 -0.5031
17209SOL    HW264101   7.570   4.961   7.425  2.0057  0.4125  0.4099
17210SOL     OW64102   6.045   0.534   7.631 -0.3561  0.1166 -0.1797
17210SOL    HW164103   6.057   0.616   7.688 -1.3435 -0.2678  0.5912
17210SOL    HW264104   6.071   0.453   7.684  0.7935 -0.0694 -0.9996
17211SOL     OW64105   8.144   2.975   6.769  0.2594  0.8279  0.0097
17211SOL    HW164106   8.183   3.008   6.855 -1.0534 -0.8152  1.2401
17211SOL    HW264107   8.062   3.028   6.747  0.8392  1.5386 -0.4684
17212SOL     OW64108   3.102   3.651   5.847  0.5444 -0.0640  0.0023
17212SOL    HW164109   3.191   3.605   5.848 -0.2013 -1.5589 -0.2131
17212SOL    HW264110   3.057   3.636   5.759 -0.0895  0.3535  0.2518
17213SOL     OW64111   4.490   1.592   3.158  0.3226 -0.6523  0.1182
17213SOL    HW164112   4.538   1.547   3.083 -0.9356 -2.2665  0.2527
17213SOL    HW264113   4.409   1.640   3.122 -0.6509 -1.9750  0.5023
17214SOL     OW64114   4.019   8.231   3.703 -0.4603 -0.5901  0.0099
17214SOL    HW164115   3.994   8.158   3.768  1.6749 -2.1000 -0.7937
17214SOL    HW264116   4.076   8.298   3.750 -0.9014 -0.4056  0.2877
17215SOL     OW64117   6.849   5.104   2.264 -0.2737  0.4642 -0.1251
17215SOL    HW164118   6.910   5.182   2.275 -0.3551  0.2465  2.0098
17215SOL    HW264119   6.773   5.130   2.205 -0.4768  2.1182  0.8314
17216SOL     OW64120   2.109   1.550   8.042 -0.4363 -0.0838  0.3110
17216SOL    HW164121   2.095   1.648   8.035  0.1834  0.0465  0.8076
17216SOL    HW264122   2.196   1.532   8.088 -0.8019 -0.8656  0.7096
17217SOL     OW64123   8.450   0.319   2.715  0.3649 -0.6303  0.0020
17217SOL    HW164124   8.527   0.269   2.674  0.2896 -0.6180 -0.1542
17217SOL    HW264125   8.422   0.273   2.800 -2.4466 -3.3431 -2.2717
17218SOL     OW64126   2.851   5.211   7.158 -0.0487  0.2009 -0.3470
17218SOL    HW164127   2.798   5.225   7.242  1.5451 -0.1840  0.7457
17218SOL    HW264128   2.880   5.300   7.122 -0.4645  0.3490 -0.3189
17219SOL     OW64129   4.191   6.849   6.627  0.0774  0.1347  0.1854
17219SOL    HW164130   4.261   6.784   6.595  0.0663 -0.1159  0.6563
17219SOL    HW264131   4.111   6.798   6.657  0.1689  0.3541  0.7998
17220SOL     OW64132   0.442   0.894   5.239 -1.0082  0.3825 -0.2350
17220SOL    HW164133   0.505   0.925   5.310 -1.2652  2.4644 -0.8847
17220SOL    HW264134   0.490   0.831   5.177 -0.1242  0.4037  0.4259
17221SOL     OW64135   6.292   4.878   0.739  0.2455 -0.4218  0.5279
17221SOL    HW164136   6.309   4.904   0.644 -1.6640 -0.6576  0.0997
17221SOL    HW264137   6.371   4.827   0.774  1.7433  1.2376 -0.3211
17222SOL     OW64138   4.423   4.953   5.188 -0.6878  0.2049  0.1837
17222SOL    HW164139   4.388   4.935   5.280 -0.0313  0.0069  0.4026
17222SOL    HW264140   4.397   4.878   5.127 -1.6045  0.6098  0.0701
17223SOL     OW64141   6.656   0.519   8.253  0.0688 -0.0429 -0.1068
17223SOL    HW164142   6.748   0.504   8.290  0.6230  2.8380 -0.2193
17223SOL    HW264143   6.589   0.518   8.328  0.2060 -1.8409  0.0103
17224SOL     OW64144   3.423   8.071   2.416  1.0245  0.1654 -0.2304
17224SOL    HW164145   3.468   8.155   2.445  1.5350 -0.2473  0.1784
17224SOL    HW264146   3.476   7.992   2.446  0.1315 -0.3257  0.0891
17225SOL     OW64147   0.149   3.620   5.903 -0.2075 -0.2222 -0.3345
17225SOL    HW164148   0.155   3.570   5.990  0.3747  0.0811 -0.1965
17225SOL    HW264149   0.241   3.633   5.866 -0.3729  0.5575 -0.4758
17226SOL     OW64150   4.072   3.432   2.253  0.2809  0.4822  0.2020
17226SOL    HW164151   4.099   3.353   2.308  0.9940 -0.0495 -0.8902
17226SOL    HW264152   4.103   3.418   2.159 -0.2294  1.7401 -0.1494
17227SOL     OW64153   7.588   0.006   8.894 -0.1632 -0.1681  0.2438
17227SOL    HW164154   7.632  -0.036   8.973  0.7513 -0.1758 -0.2558
17227SOL    HW264155   7.627  -0.034   8.810  1.0824  2.0070 -0.2498
17228SOL     OW64156   3.263   3.753   7.692  0.0729  0.3578  0.2301
17228SOL    HW164157   3.205   3.692   7.637  0.6743 -1.2286  1.3292
17228SOL    HW264158   3.276   3.839   7.642 -0.7878 -0.3946 -1.3573
17229SOL     OW64159   5.566   1.650   1.672  0.3347  0.5062 -0.4275
17229SOL    HW164160   5.579   1.648   1.772 -0.6422 -0.1992 -0.3072
17229SOL    HW264161   5.548   1.743   1.643 -0.3282  0.5750  0.1859
17230SOL     OW64162   4.404   7.346   1.471  0.2397 -0.4772 -0.3136
17230SOL    HW164163   4.364   7.423   1.421 -0.0765  0.4271  1.2799
17230SOL    HW264164   4.499   7.332   1.442  0.2717  0.4749 -0.6737
17231SOL     OW64165   1.179   7.595   5.815  0.2587 -0.9594 -0.0392
17231SOL    HW164166   1.183   7.542   5.900  0.2640 -1.7436 -0.5306
17231SOL    HW264167   1.085   7.599   5.783 -0.0201  0.7638  0.8920
17232SOL     OW64168   0.273   2.346   5.144  0.1601  0.0067 -0.0710
17232SOL    HW164169   0.205   2.420   5.148  0.1827  0.0392 -0.2524
17232SOL    HW264170   0.333   2.361   5.065 -0.5521 -0.8244 -0.7761
17233SOL     OW64171   3.243   7.660   2.734 -0.4001 -0.8551 -0.1598
17233SOL    HW164172   3.278   7.754   2.737 -0.5756 -0.7391 -1.3479
17233SOL    HW264173   3.312   7.597   2.770 -0.0617 -0.3248  0.1124
17234SOL     OW64174   6.105   8.046   0.705  0.5790 -0.6854 -0.3547
17234SOL    HW164175   6.022   8.101   0.707  0.3678 -0.8507 -2.8857
17234SOL    HW264176   6.097   7.971   0.771 -1.6287 -1.1435 -1.0954
17235SOL     OW64177   0.901   3.249   8.784 -0.3381  0.2136  0.0807
17235SOL    HW164178   0.947   3.337   8.794 -0.3840  0.1461  0.8655
17235SOL    HW264179   0.813   3.251   8.831  0.9856 -1.2319  2.6823
17236SOL     OW64180   2.510   7.105   5.679  0.2610  0.6546 -0.0522
17236SOL    HW164181   2.592   7.089   5.624  0.6802 -1.3657  1.1006
17236SOL    HW264182   2.432   7.122   5.618  1.5494  2.8181 -1.1480
17237SOL     OW64183   8.306   8.372   1.121 -0.3527 -0.3698  0.1270
17237SOL    HW164184   8.208   8.382   1.140 -0.5232  0.4743 -1.1276
17237SOL    HW264185   8.319   8.308   1.045  0.1957 -1.9942  1.5504
17238SOL     OW64186   3.001   4.412   2.387 -0.0024 -0.2417  0.2224
17238SOL    HW164187   2.955   4.464   2.315 -0.6742 -1.9937 -0.6489
17238SOL    HW264188   3.060   4.473   2.440 -0.8918  1.4235 -0.6591
17239SOL     OW64189   0.839   4.347   6.668 -0.0024 -0.5612  0.1850
17239SOL    HW164190   0.771   4.382   6.604  1.2559  2.2717  0.2939
17239SOL    HW264191   0.832   4.248   6.674  0.2885 -1.0116 -4.8700
17240SOL     OW64192   6.310   5.563   4.270  0.6005  0.1575  0.4158
17240SOL    HW164193   6.367   5.539   4.191  1.0770  0.5056  0.6523
17240SOL    HW264194   6.215   5.539   4.251  0.8813 -0.7862  0.1715
17241SOL     OW64195   0.736   6.410   5.589  0.6027 -0.0824  0.0139
17241SOL    HW164196   0.705   6.462   5.669 -0.5754  0.1392 -0.5880
17241SOL    HW264197   0.748   6.314   5.614 -1.6889 -0.4057 -0.0294
17242SOL     OW64198   5.415   1.769   5.717 -0.4512  0.3817 -0.0103
17242SOL    HW164199   5.436   1.771   5.815 -1.7906 -0.6054  0.3120
17242SOL    HW264200   5.374   1.680   5.694  0.1132  0.5044 -1.5187
17243SOL     OW64201   5.382   5.018   5.511 -0.1579  0.2812 -0.2848
17243SOL    HW164202   5.415   5.108   5.483 -1.4511  0.3349 -1.7105
17243SOL    HW264203   5.397   4.953   5.437 -0.3220 -0.4042  0.2786
17244SOL     OW64204   0.705   3.438   6.689 -0.0379  0.3957 -0.0675
17244SOL    HW164205   0.801   3.461   6.705 -0.0022  0.6855 -0.6761
17244SOL    HW264206   0.656   3.435   6.776  0.8553 -1.2385  0.3927
17245SOL     OW64207   6.982   4.179   7.632  0.2666 -0.0384  0.0404
17245SOL    HW164208   7.053   4.146   7.569  0.1280  2.9772 -1.7966
17245SOL    HW264209   6.893   4.175   7.587  0.1802  2.2188 -0.0379
17246SOL     OW64210   8.955   3.506   6.654 -0.4324 -0.0722  0.1576
17246SOL    HW164211   8.990   3.556   6.575  0.2785 -0.1319  0.4326
17246SOL    HW264212   9.012   3.426   6.670 -0.7080 -0.1791  0.6002
17247SOL     OW64213   0.217   8.508   5.155  0.4023 -0.0473 -0.0111
17247SOL    HW164214   0.128   8.543   5.185  1.8860  3.1376  0.9516
17247SOL    HW264215   0.204   8.434   5.090 -2.9413 -0.5372  1.1278
17248SOL     OW64216   2.121   1.238   7.459 -0.7931  0.5426 -1.1323
17248SOL    HW164217   2.147   1.179   7.383 -2.0367  1.1455 -2.0350
17248SOL    HW264218   2.023   1.258   7.456 -0.8642  0.6122  0.6083
17249SOL     OW64219   8.071   0.632   5.326  0.2856 -0.2791  0.5017
17249SOL    HW164220   8.066   0.533   5.333  0.8945 -0.2259  1.7973
17249SOL    HW264221   8.009   0.664   5.255  1.1262 -1.7004 -0.9013
17250SOL     OW64222   1.489   6.589   0.850  0.4794  0.3443 -0.1367
17250SOL    HW164223   1.525   6.618   0.938  1.9373  0.3199 -0.7135
17250SOL    HW264224   1.529   6.646   0.778 -2.5265  1.9763 -0.5845
17251SOL     OW64225   8.217   3.075   3.892  0.0092 -0.1901  0.6638
17251SOL    HW164226   8.298   3.134   3.888 -0.2431  0.0865 -0.9478
17251SOL    HW264227   8.135   3.132   3.898 -0.1523 -0.4260  0.7220
17252SOL     OW64228   3.701   0.200   7.548  0.0180 -0.1097  0.0666
17252SOL    HW164229   3.711   0.217   7.450 -1.2908  2.1485  0.3067
17252SOL    HW264230   3.790   0.209   7.593  0.5190 -0.6186 -0.8058
17253SOL     OW64231   1.324   6.436   7.354  0.2323 -0.4515 -0.0597
17253SOL    HW164232   1.405   6.393   7.312 -0.4419 -1.5094 -0.3014
17253SOL    HW264233   1.253   6.446   7.284  0.4981  1.3995 -0.0886
17254SOL     OW64234   0.702   4.903   1.192 -0.5906 -0.1855 -0.1456
17254SOL    HW164235   0.757   4.884   1.111  0.1388  0.8997  0.0861
17254SOL    HW264236   0.745   4.976   1.245 -1.9914  0.3313  0.2926
17255SOL     OW64237   3.702   7.987   7.659  0.1490  0.5099  0.0004
17255SOL    HW164238   3.724   8.048   7.582 -2.1749  0.1324 -0.9965
17255SOL    HW264239   3.608   8.003   7.689 -0.2196 -1.9643  0.2873
17256SOL     OW64240   2.975   8.272   5.708  0.5258 -0.0904  0.1572
17256SOL    HW164241   2.913   8.231   5.776 -0.4016  2.1586  0.7004
17256SOL    HW264242   2.982   8.211   5.630 -1.4678 -0.9416  0.6013
17257SOL     OW64243   6.599   6.027   1.300  0.0334  0.5088  0.1772
17257SOL    HW164244   6.559   5.949   1.348  1.0446  1.0723  1.9925
17257SOL    HW264245   6.530   6.071   1.243 -0.7125 -1.3147 -0.3314
17258SOL     OW64246   5.348   7.914   8.229 -0.1086  0.4305  0.3387
17258SOL    HW164247   5.285   7.987   8.201 -0.9619 -0.2597  0.4406
17258SOL    HW264248   5.351   7.910   8.329 -0.3975  0.0395  0.3305
17259SOL     OW64249   2.752   4.689   5.014  0.1051 -0.3987 -0.0938
17259SOL    HW164250   2.760   4.745   5.096  0.7112  1.8093 -1.6250
17259SOL    HW264251   2.683   4.728   4.953  0.7045 -1.1821 -1.3004
17260SOL     OW64252   0.298   3.541   1.061  0.5357 -0.0384  0.2325
17260SOL    HW164253   0.203   3.535   1.031  0.5345  1.6877 -0.2000
17260SOL    HW264254   0.355   3.568   0.983  1.3920 -1.0981  0.4822
17261SOL     OW64255   8.000   3.721   2.349  0.5124  0.0499 -0.0023
17261SOL    HW164256   8.067   3.660   2.308  1.4728  0.6174  0.6681
17261SOL    HW264257   7.966   3.681   2.435  0.9334  0.3174  0.2937
17262SOL     OW64258   6.113   4.479   3.210 -0.0868 -0.2689  0.1662
17262SOL    HW164259   6.157   4.460   3.298 -0.2765  0.4689  0.4215
17262SOL    HW264260   6.014   4.482   3.223 -0.1684 -1.0142 -0.2382
17263SOL     OW64261   7.003   5.809   5.020  0.3483 -0.6298 -0.1065
17263SOL    HW164262   6.990   5.746   5.096  1.2220 -1.1635 -0.3917
17263SOL    HW264263   6.916   5.852   4.997  0.5114  1.3411  2.7417
17264SOL     OW64264   8.143   5.788   8.599  0.1950  0.0627  0.2794
17264SOL    HW164265   8.059   5.811   8.551 -2.0491 -1.2721  3.3489
17264SOL    HW264266   8.169   5.694   8.578  0.4039  0.1779  0.0258
17265SOL     OW64267   1.635   1.853   0.856 -0.2082  0.2335 -0.6539
17265SOL    HW164268   1.639   1.944   0.898  0.0816 -1.7256  3.8507
17265SOL    HW264269   1.544   1.815   0.868  0.8584 -1.7798  1.4949
17266SOL     OW64270   6.218   6.058   2.330  0.1796 -0.6197 -0.4927
17266SOL    HW164271   6.163   6.041   2.411 -0.4521 -0.8224 -0.9634
17266SOL    HW264272   6.309   6.017   2.343 -0.5584 -2.3526 -0.6762
17267SOL     OW64273   3.814   3.589   7.426 -0.0480  0.0402 -0.3285
17267SOL    HW164274   3.778   3.513   7.480  0.7161 -0.2013 -0.1534
17267SOL    HW264275   3.766   3.593   7.338 -0.8309  0.0196  0.0964
17268SOL     OW64276   1.126   1.809   0.326 -0.1230  0.4256  0.1828
17268SOL    HW164277   1.059   1.794   0.399 -0.4067 -0.5654 -0.2800
17268SOL    HW264278   1.111   1.743   0.252  0.7274  0.8462 -0.3743
17269SOL     OW64279   4.479   0.380   1.283  0.0824 -0.0794 -0.0266
17269SOL    HW164280   4.417   0.420   1.350 -1.5896 -1.4083 -0.7462
17269SOL    HW264281   4.537   0.313   1.328  0.3659  0.4912  0.4699
17270SOL     OW64282   2.872   2.001   4.899  0.1090  0.6401 -0.0746
17270SOL    HW164283   2.933   1.983   4.822  0.9140 -0.1862  0.7507
17270SOL    HW264284   2.829   2.091   4.887 -0.7319 -0.0045 -2.1032
17271SOL     OW64285   1.319   8.282   5.983  0.0038  0.6799 -0.3331
17271SOL    HW164286   1.312   8.260   5.885  0.0882  1.6183 -0.5555
17271SOL    HW264287   1.290   8.203   6.037  0.0992  0.1042 -1.1179
17272SOL     OW64288   3.960   3.011   1.501 -0.2095  0.4434 -0.1547
17272SOL    HW164289   4.043   2.963   1.474  1.0889  1.6236  1.5651
17272SOL    HW264290   3.961   3.104   1.464 -0.5469  0.6078  0.2419
17273SOL     OW64291   7.412   8.253   2.042 -0.3151 -0.1293  0.1984
17273SOL    HW164292   7.317   8.276   2.062  0.5484  1.7462  2.2933
17273SOL    HW264293   7.468   8.267   2.124  1.8234 -1.0026 -1.0680
17274SOL     OW64294   6.648   6.208   2.083  0.2671  0.5092  0.0987
17274SOL    HW164295   6.692   6.158   2.009 -0.5350 -0.8507  0.5228
17274SOL    HW264296   6.549   6.212   2.067  0.2414  1.4011  0.4060
17275SOL     OW64297   3.071   7.736   3.780 -0.2963 -0.4896 -0.1266
17275SOL    HW164298   3.040   7.806   3.716  0.5297  0.0713  0.0868
17275SOL    HW264299   3.077   7.648   3.733 -0.2555 -0.1942 -0.6746
17276SOL     OW64300   4.253   7.897   1.013 -0.4574  0.2618 -0.3875
17276SOL    HW164301   4.346   7.871   0.988  0.6721  1.6700  2.2249
17276SOL    HW264302   4.215   7.958   0.943  0.5722 -0.2993 -1.4467
17277SOL     OW64303   3.510   2.659   7.574  0.1593  0.0492 -0.1669
17277SOL    HW164304   3.480   2.751   7.602 -0.4050 -0.5941  1.4368
17277SOL    HW264305   3.433   2.612   7.530  0.8038  0.7655 -2.0835
17278SOL     OW64306   2.797   1.100   5.443 -0.1276  0.2281  1.1093
17278SOL    HW164307   2.767   1.008   5.470  0.4175 -0.0691  0.6995
17278SOL    HW264308   2.877   1.126   5.497  0.3643  0.0341  0.4734
17279SOL     OW64309   7.463   8.145   7.990 -0.1525  0.0888 -0.2625
17279SOL    HW164310   7.382   8.088   7.976  0.5576 -1.0133  0.0318
17279SOL    HW264311   7.435   8.240   8.006 -1.4217 -0.4128  0.5852
17280SOL     OW64312   6.590   5.744   6.713 -0.4245  0.5234 -0.2576
17280SOL    HW164313   6.576   5.779   6.805  1.9051  1.9974 -0.4325
17280SOL    HW264314   6.518   5.778   6.652  0.5723  3.2630  0.0547
17281SOL     OW64315   3.817   1.389   1.132 -0.2420  0.1718 -0.9065
17281SOL    HW164316   3.867   1.412   1.216 -0.8798  0.6388 -0.6472
17281SOL    HW264317   3.767   1.303   1.145 -1.6350  1.0692 -0.2421
17282SOL     OW64318   6.348   3.991   1.189 -0.2535  0.2031  0.2815
17282SOL    HW164319   6.427   3.939   1.158 -0.1462  0.5286  0.0045
17282SOL    HW264320   6.353   4.005   1.287 -0.4249 -0.5544  0.4011
17283SOL     OW64321   0.798   8.270   8.411 -0.2514  0.5182 -0.4242
17283SOL    HW164322   0.860   8.212   8.463  1.5699  0.9813 -2.0082
17283SOL    HW264323   0.745   8.213   8.347 -1.1439  0.1721  0.6193
17284SOL     OW64324   1.152   3.137   6.693 -0.0714 -0.5112 -0.3591
17284SOL    HW164325   1.206   3.120   6.610  2.2253 -1.4444  1.2932
17284SOL    HW264326   1.157   3.057   6.753 -1.8588  0.0975  0.6202
17285SOL     OW64327   6.628   8.099   6.997  0.4807  0.8282  0.1493
17285SOL    HW164328   6.678   8.051   6.925 -0.6809 -1.5447  0.8935
17285SOL    HW264329   6.663   8.193   7.004  2.1679  0.4019 -1.9338
17286SOL     OW64330   7.924   8.171   1.280 -0.0316 -0.1157  0.6128
17286SOL    HW164331   7.838   8.221   1.289  0.8987  1.6538  0.1434
17286SOL    HW264332   7.959   8.148   1.371 -0.2164  0.5851  0.8657
17287SOL     OW64333   6.281   2.953   0.145 -0.0757  0.3973 -0.1514
17287SOL    HW164334   6.363   2.973   0.092  0.8318  0.9445  1.4107
17287SOL    HW264335   6.251   3.036   0.193 -1.4859  0.1787 -0.6264
17288SOL     OW64336   4.490   6.384   1.945 -0.0808 -0.1677 -0.1180
17288SOL    HW164337   4.464   6.477   1.972 -0.9847 -0.8359  1.4119
17288SOL    HW264338   4.407   6.332   1.924  0.4289 -0.6154 -1.0320
17289SOL     OW64339   5.542   6.572   1.642 -0.4272  0.4866 -0.6425
17289SOL    HW164340   5.630   6.526   1.650  0.3198  1.6768 -1.8583
17289SOL    HW264341   5.530   6.606   1.549 -2.0579  0.5545 -0.4182
17290SOL     OW64342   0.915   6.199   2.884  0.1888  0.5640 -0.7215
17290SOL    HW164343   0.988   6.170   2.947 -1.0320  0.7090  0.7906
17290SOL    HW264344   0.890   6.293   2.904 -1.0249  0.2252 -0.6332
17291SOL     OW64345   4.746   1.001   7.554  0.4653 -0.1082 -0.2885
17291SOL    HW164346   4.661   1.052   7.562  0.8139  0.0044  3.8452
17291SOL    HW264347   4.734   0.910   7.593  1.7895 -0.6868 -1.1915
17292SOL     OW64348   2.543   7.534   6.022  0.0176  0.1020 -0.5111
17292SOL    HW164349   2.477   7.592   6.069  1.0161  0.6938  0.1853
17292SOL    HW264350   2.531   7.439   6.051  0.0878  0.3458  0.3306
17293SOL     OW64351   8.328   8.812   0.730 -0.2213 -0.3078 -0.1404
17293SOL    HW164352   8.298   8.877   0.660  0.4358 -0.7135 -0.8093
17293SOL    HW264353   8.412   8.846   0.774 -0.9414  0.2161  0.8476
17294SOL     OW64354   6.983   5.123   6.318  0.7194  0.0809 -0.0525
17294SOL    HW164355   7.056   5.192   6.315  0.7367  0.0773  0.3086
17294SOL    HW264356   6.980   5.082   6.409 -2.2352  2.7607  1.1550
17295SOL     OW64357   3.138   0.481   8.047 -0.4703 -0.6285  0.4243
17295SOL    HW164358   3.122   0.553   7.980  0.9268 -0.0004  0.7375
17295SOL    HW264359   3.233   0.450   8.040 -0.6994 -1.5169  1.1864
17296SOL     OW64360   8.351   4.107   0.086  0.4722  0.4326  0.0262
17296SOL    HW164361   8.320   4.125  -0.007  0.8381 -0.2361 -0.2270
17296SOL    HW264362   8.431   4.164   0.106  0.6004  0.3302 -0.1891
17297SOL     OW64363   3.667   8.919   6.443  0.6381 -0.1069 -0.3685
17297SOL    HW164364   3.598   8.990   6.459  1.0185  0.1973 -0.0733
17297SOL    HW264365   3.637   8.833   6.484  1.1542  0.4167  1.1538
17298SOL     OW64366   2.609   6.579   0.854 -0.1296  0.7146 -0.0145
17298SOL    HW164367   2.686   6.553   0.913  0.7778  1.4122 -0.8878
17298SOL    HW264368   2.537   6.510   0.862  1.2380 -0.7824 -0.4006
17299SOL     OW64369   7.833   1.725   1.086 -0.0806  0.5610 -0.1018
17299SOL    HW164370   7.839   1.797   1.017  0.3427  0.9958  0.3863
17299SOL    HW264371   7.743   1.729   1.131  0.3552  1.4862  0.6904
17300SOL     OW64372   2.957   3.404   2.362  0.1815  0.3040  0.1847
17300SOL    HW164373   2.989   3.328   2.418  0.4780  0.3357  0.0580
17300SOL    HW264374   2.922   3.477   2.421  2.1128  1.0756  0.4214
17301SOL     OW64375   7.279   8.258   2.749  0.0705  0.3033  0.2330
17301SOL    HW164376   7.308   8.189   2.815 -1.6355  0.1232  0.8220
17301SOL    HW264377   7.273   8.347   2.793  0.0065  0.3903  0.0497
17302SOL     OW64378   7.717   8.955   7.145 -0.8754 -0.0345 -0.0711
17302SOL    HW164379   7.705   8.860   7.118 -1.7314  0.0329  0.0426
17302SOL    HW264380   7.733   8.961   7.244  0.6417 -0.1625 -0.2937
17303SOL     OW64381   6.631   1.765   0.534  0.5130 -0.0937 -0.1088
17303SOL    HW164382   6.715   1.710   0.534  0.5554 -0.0301 -0.0212
17303SOL    HW264383   6.647   1.851   0.584  0.3162 -0.2029  0.1427
17304SOL     OW64384   5.797   7.454   6.766  0.6482 -0.5518 -0.3108
17304SOL    HW164385   5.879   7.429   6.818  0.7348 -1.8651 -1.0582
17304SOL    HW264386   5.821   7.466   6.670 -0.1117 -1.4071 -0.6164
17305SOL     OW64387   4.406   6.159   2.666  0.5626 -0.5428 -0.4259
17305SOL    HW164388   4.408   6.147   2.567 -0.8697 -0.8847 -0.4268
17305SOL    HW264389   4.462   6.089   2.710  2.8599  0.8409 -1.0823
17306SOL     OW64390   0.458   1.741   8.156 -0.2137  0.1153 -0.4212
17306SOL    HW164391   0.377   1.720   8.100  0.6014 -1.7338 -0.9237
17306SOL    HW264392   0.487   1.835   8.138 -1.4909  0.3712 -1.1917
17307SOL     OW64393   4.405   1.306   3.585  0.0998 -0.5494 -0.4638
17307SOL    HW164394   4.367   1.397   3.603  2.7246  0.2785  1.1742
17307SOL    HW264395   4.344   1.256   3.523 -0.7160  2.8331 -2.5450
17308SOL     OW64396   7.810   2.929   8.127  0.4672  0.2694  0.7001
17308SOL    HW164397   7.734   2.870   8.152  2.0955 -1.0789  2.7439
17308SOL    HW264398   7.791   3.023   8.155 -0.4313 -0.0650  1.2081
17309SOL     OW64399   2.730   1.863   4.572 -0.2918  0.0017  0.3207
17309SOL    HW164400   2.814   1.911   4.547 -0.3203 -0.1059  0.0181
17309SOL    HW264401   2.654   1.901   4.519 -0.2111 -0.7960 -0.3692
17310SOL     OW64402   8.259   4.262   6.305  0.2430 -0.1647 -0.6677
17310SOL    HW164403   8.229   4.313   6.224  1.0412 -1.4172 -1.7782
17310SOL    HW264404   8.350   4.226   6.288  0.1549 -0.9609  0.5698
17311SOL     OW64405   2.642   5.633   7.782 -0.1057 -0.2100  0.1265
17311SOL    HW164406   2.669   5.597   7.693 -0.5183  0.8347 -0.4278
17311SOL    HW264407   2.554   5.680   7.774  0.3320  0.7543  0.8606
17312SOL     OW64408   0.945   2.676   7.818 -0.2020 -0.7562 -0.1557
17312SOL    HW164409   0.986   2.731   7.745  3.2059 -1.6307  1.0312
17312SOL    HW264410   0.893   2.601   7.777  0.7288 -0.5781 -1.7121
17313SOL     OW64411   6.232   4.565   6.140 -0.0999  0.3743  0.7213
17313SOL    HW164412   6.278   4.533   6.223  2.0035  1.5275  0.0269
17313SOL    HW264413   6.300   4.585   6.070 -1.9229 -2.2901 -1.9372
17314SOL     OW64414   3.425   5.426   7.537 -0.5204 -0.4555  0.2746
17314SOL    HW164415   3.393   5.432   7.443 -0.0549  1.3255  0.2141
17314SOL    HW264416   3.394   5.506   7.588  3.7052  1.3681  0.2255
17315SOL     OW64417   3.761   5.403   1.356  0.3829 -0.0910 -0.6169
17315SOL    HW164418   3.715   5.315   1.369  1.3712 -0.5096  0.1321
17315SOL    HW264419   3.810   5.428   1.439  0.0728  1.2098 -0.8054
17316SOL     OW64420   8.746   3.873   5.512  0.5167 -0.0042  0.2040
17316SOL    HW164421   8.788   3.890   5.601 -0.9331 -0.5229  1.0138
17316SOL    HW264422   8.733   3.960   5.464  0.9236  0.3234  0.6858
17317SOL     OW64423   5.223   3.005   7.111  0.1492 -0.0413 -1.0094
17317SOL    HW164424   5.280   2.926   7.135  0.4058  0.5574  0.3517
17317SOL    HW264425   5.282   3.081   7.083  0.0544  0.7570  0.9223
17318SOL     OW64426   3.449   2.260   0.515  0.2842 -0.3400 -0.2366
17318SOL    HW164427   3.407   2.252   0.606  0.6691 -1.3861 -0.1463
17318SOL    HW264428   3.437   2.174   0.466  2.5175 -0.7252 -0.1285
17319SOL     OW64429   4.374   2.019   4.918 -0.3271  0.3597 -0.0675
17319SOL    HW164430   4.422   1.983   4.838  2.0807 -0.6834  1.7871
17319SOL    HW264431   4.331   2.106   4.895  2.5415  1.3646 -1.7923
17320SOL     OW64432   3.144   6.269   2.025  0.0761  0.4739 -0.0179
17320SOL    HW164433   3.209   6.257   2.100  1.0699 -0.0550 -0.9418
17320SOL    HW264434   3.055   6.296   2.062  0.5237  0.1399  1.3503
17321SOL     OW64435   1.568   1.866   7.917  0.0935 -0.0572 -0.6748
17321SOL    HW164436   1.470   1.872   7.897  0.0563 -1.0642 -0.8291
17321SOL    HW264437   1.593   1.933   7.987 -1.1609 -1.3449  1.0556
17322SOL     OW64438   7.980   7.459   6.154 -0.1946 -0.0572 -0.0476
17322SOL    HW164439   7.991   7.559   6.156 -2.4737  0.2208  0.2600
17322SOL    HW264440   8.020   7.423   6.070  0.2432  1.1841 -0.3868
17323SOL     OW64441   5.863   0.405   3.133  0.3249  0.0044  0.5337
17323SOL    HW164442   5.894   0.500   3.139  0.4169  0.0024  0.1055
17323SOL    HW264443   5.800   0.386   3.209 -0.1867  0.5962  0.2699
17324SOL     OW64444   8.354   0.048   7.618 -0.0674 -0.0119  0.0443
17324SOL    HW164445   8.341   0.141   7.654 -0.7528 -0.1291  0.1051
17324SOL    HW264446   8.304  -0.017   7.676 -2.1438 -0.0898 -1.7692
17325SOL     OW64447   4.997   3.143   7.047  0.2396 -0.4377  0.0068
17325SOL    HW164448   5.078   3.091   7.076  1.7427  1.1673 -1.2016
17325SOL    HW264449   5.009   3.172   6.952 -0.8847  1.5060  0.4334
17326SOL     OW64450   7.448   3.062   4.831  0.1263  0.5801 -0.0278
17326SOL    HW164451   7.519   3.035   4.896 -0.2211  0.8379  0.4670
17326SOL    HW264452   7.365   3.087   4.881  0.2320  1.9516 -0.5120
17327SOL     OW64453   8.284   1.386   2.513  0.1924  0.6125 -0.1011
17327SOL    HW164454   8.368   1.425   2.476 -0.1859  2.3874  0.8867
17327SOL    HW264455   8.293   1.286   2.516  2.7382  0.8353  1.0919
17328SOL     OW64456   3.516   0.213   7.125  0.2017  0.0830 -0.1087
17328SOL    HW164457   3.605   0.191   7.165 -0.4720  0.2821  1.5280
17328SOL    HW264458   3.499   0.311   7.132 -0.9164 -0.1964  1.2008
17329SOL     OW64459   3.208   0.212   6.667  0.1833 -0.3864  0.2410
17329SOL    HW164460   3.154   0.142   6.713 -0.0815 -1.4134 -1.5958
17329SOL    HW264461   3.279   0.245   6.730 -1.0959 -0.6918  1.8706
17330SOL     OW64462   7.155   0.039   7.839 -0.7960 -0.2894  0.1204
17330SOL    HW164463   7.213  -0.042   7.839 -1.2288 -0.6038  0.7023
17330SOL    HW264464   7.089   0.033   7.764 -0.0315  0.1064 -0.5907
17331SOL     OW64465   4.035   8.452   2.482 -0.8476  0.5182 -0.4391
17331SOL    HW164466   4.032   8.545   2.445 -0.0103  0.3470 -0.9365
17331SOL    HW264467   3.973   8.446   2.561 -0.8037  1.5327 -0.3203
17332SOL     OW64468   7.983   8.491   6.873 -0.0042 -0.2675  0.2672
17332SOL    HW164469   8.066   8.507   6.820 -1.1616  1.6359 -1.0519
17332SOL    HW264470   7.962   8.393   6.875  2.2686 -0.7699  0.6712
17333SOL     OW64471   2.284   4.604   3.593 -0.1948  0.2387 -0.6274
17333SOL    HW164472   2.262   4.535   3.524  0.4901  0.1699 -0.7804
17333SOL    HW264473   2.382   4.602   3.613 -0.7393 -1.4074  2.1569
17334SOL     OW64474   0.922   0.541   4.944  0.6548  0.1663  0.1356
17334SOL    HW164475   0.990   0.472   4.919 -2.3470 -2.2024 -1.9880
17334SOL    HW264476   0.832   0.497   4.953 -0.9233  3.4367  1.1519
17335SOL     OW64477   0.651   1.476   6.640  0.7470  0.0556 -0.7881
17335SOL    HW164478   0.623   1.570   6.659  1.4554  0.2679 -0.7969
17335SOL    HW264479   0.576   1.414   6.663 -0.0756  0.6978 -1.6949
17336SOL     OW64480   6.150   7.741   2.431  0.4012  0.1715 -0.1265
17336SOL    HW164481   6.185   7.766   2.340  0.2395 -0.6530 -0.4201
17336SOL    HW264482   6.112   7.822   2.475 -0.6404  0.3494 -1.3064
17337SOL     OW64483   6.823   0.438   1.426 -0.1794  0.0990 -0.4677
17337SOL    HW164484   6.817   0.376   1.504 -1.2418 -0.9546 -1.3672
17337SOL    HW264485   6.863   0.390   1.348 -2.2345  0.1204 -1.5747
17338SOL     OW64486   5.064   5.373   3.640  0.3155  0.3746  0.7946
17338SOL    HW164487   5.026   5.281   3.635  0.5614  0.3815 -2.3365
17338SOL    HW264488   5.133   5.385   3.567  0.0319  3.1194  0.9235
17339SOL     OW64489   4.008   7.902   7.983  0.0009  0.2969 -0.3296
17339SOL    HW164490   3.929   7.862   8.030  1.6382 -0.2001  2.1467
17339SOL    HW264491   4.019   7.859   7.894 -1.6845 -0.6367 -0.1078
17340SOL     OW64492   2.760   2.587   8.098  0.3338  0.4612  0.4240
17340SOL    HW164493   2.838   2.629   8.053  0.4130 -0.8170 -0.6697
17340SOL    HW264494   2.761   2.488   8.082 -2.0694  0.5478 -0.5265
17341SOL     OW64495   2.783   2.976   2.489 -0.3727 -0.3739 -0.0448
17341SOL    HW164496   2.852   2.925   2.540 -0.1771 -1.7256 -1.6293
17341SOL    HW264497   2.730   2.913   2.432 -0.1042  1.2040 -2.0671
17342SOL     OW64498   0.922   0.316   1.772  0.2943 -0.3566 -0.1492
17342SOL    HW164499   0.847   0.372   1.808  2.2995  3.9181 -2.2692
17342SOL    HW264500   0.900   0.288   1.678 -0.2364 -2.2732  0.5359
17343SOL     OW64501   0.581   5.803   5.394  0.0224 -1.0698  0.6418
17343SOL    HW164502   0.625   5.803   5.305 -1.6719  1.3257 -0.2373
17343SOL    HW264503   0.482   5.788   5.383 -0.3843  0.4495  1.9651
17344SOL     OW64504   7.588   1.681   4.591  0.4585 -0.4092  0.8822
17344SOL    HW164505   7.612   1.747   4.520  1.4733 -0.5947  1.0468
17344SOL    HW264506   7.499   1.704   4.630 -1.8070 -2.3405 -2.9114
17345SOL     OW64507   4.175   5.859   6.759 -0.8062  0.4225 -0.2938
17345SOL    HW164508   4.134   5.787   6.702 -0.0768  0.1431 -0.4651
17345SOL    HW264509   4.125   5.945   6.744  1.3384  1.1602 -3.8424
17346SOL     OW64510   6.858   8.203   1.102  0.2683 -0.4560 -0.7123
17346SOL    HW164511   6.918   8.123   1.102 -1.1607 -1.5604 -0.6317
17346SOL    HW264512   6.795   8.197   1.179  0.6435  1.1508 -0.2691
17347SOL     OW64513   2.296   5.838   4.426 -0.1136 -0.1982  0.2757
17347SOL    HW164514   2.288   5.738   4.432 -2.6770  0.0721  1.9993
17347SOL    HW264515   2.319   5.864   4.333 -0.5665 -2.3478 -0.4549
17348SOL     OW64516   4.059   0.994   3.102  0.2179 -0.2749 -0.1118
17348SOL    HW164517   4.002   1.029   3.027  0.9890  0.1623 -0.4978
17348SOL    HW264518   4.098   1.071   3.152  1.8364 -0.5822 -0.8959
17349SOL     OW64519   3.654   2.383   4.104  0.4970  0.3099  0.1641
17349SOL    HW164520   3.665   2.478   4.133  0.8821  0.9705 -2.1054
17349SOL    HW264521   3.678   2.374   4.008 -2.4911 -1.5159 -0.4643
17350SOL     OW64522   5.905   6.476   4.209  0.8394  0.2222  0.1932
17350SOL    HW164523   5.851   6.521   4.138  1.1978  0.3385 -0.0074
17350SOL    HW264524   5.867   6.385   4.228  0.6427  0.2595 -0.0270
17351SOL     OW64525   2.498   6.098   4.805 -0.1184 -0.1258 -0.1778
17351SOL    HW164526   2.480   6.010   4.762  1.3189 -0.0678 -0.9050
17351SOL    HW264527   2.561   6.151   4.749 -1.5919  1.7183 -0.1680
17352SOL     OW64528   2.029   0.617   6.540 -0.5135 -0.4036  0.2630
17352SOL    HW164529   1.959   0.575   6.482  0.4054 -1.0538 -0.3863
17352SOL    HW264530   2.034   0.568   6.626  0.0891 -1.2166 -0.2285
17353SOL     OW64531   2.004   3.460   8.319  0.2518  0.3472  0.0712
17353SOL    HW164532   2.001   3.549   8.363 -1.1898  0.4374 -0.1800
17353SOL    HW264533   2.097   3.442   8.286  0.6119  1.6228  0.3706
17354SOL     OW64534   0.315   6.727   2.299 -0.0115  0.2619 -0.0195
17354SOL    HW164535   0.408   6.756   2.324  0.4576  0.4206 -1.9089
17354SOL    HW264536   0.249   6.783   2.349  0.8887 -0.1786  1.7283
17355SOL     OW64537   8.005   5.533   7.428 -0.5536 -0.4935 -0.5497
17355SOL    HW164538   8.026   5.439   7.400 -0.5183 -0.7533  0.3583
17355SOL    HW264539   7.918   5.534   7.478 -1.3399  0.1818 -1.9013
17356SOL     OW64540   1.253   6.445   2.653 -0.1485 -0.2634  0.6939
17356SOL    HW164541   1.351   6.459   2.639 -0.3734  0.2406 -0.4196
17356SOL    HW264542   1.229   6.351   2.629 -0.2135  0.0780 -0.6114
17357SOL     OW64543   6.605   3.541   2.332  0.1694  0.0606  0.8281
17357SOL    HW164544   6.521   3.580   2.295  0.8026 -0.3433 -1.1153
17357SOL    HW264545   6.664   3.614   2.366 -0.7550  0.3814  1.7500
17358SOL     OW64546   4.228   7.836   1.929 -0.6136 -0.3501 -0.1326
17358SOL    HW164547   4.325   7.818   1.947 -0.0081  1.9769 -0.8876
17358SOL    HW264548   4.174   7.754   1.948  1.2131 -0.9895  2.5953
17359SOL     OW64549   1.840   8.033   7.081  0.3567  0.0859 -0.0124
17359SOL    HW164550   1.838   8.118   7.133 -1.5279  0.0193  0.0308
17359SOL    HW264551   1.899   8.045   7.001 -0.3970  1.6300 -0.3462
17360SOL     OW64552   4.790   0.602   0.162 -0.2259 -0.0593  0.0505
17360SOL    HW164553   4.848   0.639   0.235 -0.2373  0.3561 -0.1448
17360SOL    HW264554   4.802   0.503   0.156  1.7723  0.2167 -1.1135
17361SOL     OW64555   4.298   1.784   3.261 -0.0722 -0.0730 -0.0270
17361SOL    HW164556   4.375   1.840   3.293  0.7827 -0.4590 -1.3596
17361SOL    HW264557   4.303   1.775   3.161 -2.1583  0.3404 -0.1963
17362SOL     OW64558   0.992   1.063   6.882  0.1412  0.2121 -0.6075
17362SOL    HW164559   1.055   1.100   6.813  2.0623  0.6748  1.3539
17362SOL    HW264560   1.010   0.965   6.892  0.6695  0.3772  0.0714
17363SOL     OW64561   3.335   5.546   4.385 -0.1086  0.0271 -0.0633
17363SOL    HW164562   3.315   5.448   4.377  0.5299 -0.2478  1.5888
17363SOL    HW264563   3.409   5.569   4.322  0.5723 -0.8080  0.4151
17364SOL     OW64564   6.189   8.898   2.243 -0.5438  0.2872 -0.2471
17364SOL    HW164565   6.131   8.924   2.166 -1.9918 -1.2367  0.2876
17364SOL    HW264566   6.256   8.830   2.214  2.0397  3.1235 -1.2166
17365SOL     OW64567   5.211   6.856   8.123 -0.1124 -0.9793 -0.5281
17365SOL    HW164568   5.131   6.862   8.063  0.1467 -0.1459 -0.7992
17365SOL    HW264569   5.263   6.773   8.101  0.5441 -0.1549 -2.1665
17366SOL     OW64570   6.737   5.368   8.427  0.2978  0.1986  0.2295
17366SOL    HW164571   6.829   5.390   8.393 -0.2545  1.1548 -0.6731
17366SOL    HW264572   6.730   5.270   8.442  0.5981 -0.2560 -2.3907
17367SOL     OW64573   8.152   0.919   6.208 -0.1611 -0.0977 -0.3229
17367SOL    HW164574   8.096   0.861   6.267 -1.8485  2.5596  0.7805
17367SOL    HW264575   8.237   0.943   6.255  0.4584 -1.4850 -0.7116
17368SOL     OW64576   3.223   8.962   4.371 -0.0492 -0.2985 -0.3298
17368SOL    HW164577   3.266   9.019   4.301 -0.7479 -0.8840 -1.2433
17368SOL    HW264578   3.128   8.989   4.383  0.0840 -0.1599  0.4424
17369SOL     OW64579   0.801   7.471   0.525  0.3903 -0.3706  0.2442
17369SOL    HW164580   0.729   7.487   0.458 -0.2178 -2.0069  0.4754
17369SOL    HW264581   0.877   7.534   0.508 -0.9563  1.1889 -0.1753
17370SOL     OW64582   7.211   5.529   3.383 -0.4511  0.5617 -0.2561
17370SOL    HW164583   7.263   5.506   3.301  1.0958 -1.9257  1.3425
17370SOL    HW264584   7.138   5.462   3.397 -2.3529  2.4200 -0.9359
17371SOL     OW64585   6.241   1.980   2.980  0.6567  0.2982  0.2042
17371SOL    HW164586   6.219   2.054   3.043 -1.1998 -0.7756  0.8320
17371SOL    HW264587   6.317   1.926   3.018 -0.2410 -0.1567  1.3890
17372SOL     OW64588   6.225   2.653   0.960  0.2310  0.0449  0.1781
17372SOL    HW164589   6.203   2.677   1.054  0.9035 -2.5098  1.0142
17372SOL    HW264590   6.153   2.595   0.922  0.8625 -0.4706 -0.2500
17373SOL     OW64591   2.502   5.159   0.172  0.0771 -0.2784  0.7052
17373SOL    HW164592   2.592   5.169   0.130 -0.6804 -1.4983 -1.2608
17373SOL    HW264593   2.441   5.231   0.138  0.0839  0.0736  1.4299
17374SOL     OW64594   0.558   3.928   0.603 -0.2769  0.0053  0.4636
17374SOL    HW164595   0.566   4.007   0.663  1.5221 -0.1621  0.4781
17374SOL    HW264596   0.563   3.958   0.507 -0.9416  0.0398  0.4363
17375SOL     OW64597   6.306   2.437   7.254 -0.4099  0.3134  0.3212
17375SOL    HW164598   6.220   2.416   7.207 -0.3365  0.0076  0.3228
17375SOL    HW264599   6.371   2.475   7.188  0.1718 -1.4015 -0.1390
17376SOL     OW64600   1.685   0.246   7.491  0.0127 -0.3212 -0.0496
17376SOL    HW164601   1.697   0.323   7.553 -2.3467  0.1020 -0.0805
17376SOL    HW264602   1.666   0.281   7.399 -1.4188 -0.9391  0.0128
17377SOL     OW64603   6.297   6.164   2.096 -0.3495  0.6522 -0.3021
17377SOL    HW164604   6.228   6.236   2.109 -0.3365  0.3758  1.3470
17377SOL    HW264605   6.299   6.105   2.176  1.2535  0.1610 -0.6946
17378SOL     OW64606   3.489   8.725   6.529  0.6704 -0.4338 -0.3225
17378SOL    HW164607   3.455   8.632   6.541  1.1417 -0.5531  0.0651
17378SOL    HW264608   3.419   8.790   6.558 -0.3483 -0.6285 -2.2236
17379SOL     OW64609   0.847   6.620   8.629  0.0144  0.0895  0.1407
17379SOL    HW164610   0.874   6.547   8.692 -1.9204 -0.5927  0.2018
17379SOL    HW264611   0.855   6.708   8.675  1.7295 -0.1126  0.2793
17380SOL     OW64612   3.089   7.509   3.613 -0.2026 -0.0427  0.0068
17380SOL    HW164613   3.126   7.529   3.522 -1.5756  0.1734 -0.5119
17380SOL    HW264614   3.021   7.437   3.606  0.1163 -0.4418  0.9645
17381SOL     OW64615   0.492   7.263   8.812 -0.0937  0.2028  0.2418
17381SOL    HW164616   0.536   7.315   8.739 -0.8167  0.0764 -0.2878
17381SOL    HW264617   0.449   7.326   8.876  2.0126  0.3890  1.5234
17382SOL     OW64618   2.832   8.972   0.279 -0.3521 -0.4950 -0.2887
17382SOL    HW164619   2.896   9.049   0.281 -1.0706  0.1036  0.0104
17382SOL    HW264620   2.873   8.896   0.230  0.7091 -0.2233  0.1535
17383SOL     OW64621   0.438   4.571   2.586  0.5877  0.1779 -0.0621
17383SOL    HW164622   0.399   4.651   2.632 -0.0729  1.1888 -2.3297
17383SOL    HW264623   0.505   4.601   2.519  1.7893 -1.3076  0.4706
17384SOL     OW64624   8.940   8.164   6.190  0.4787 -0.5160  0.1257
17384SOL    HW164625   8.896   8.242   6.236 -0.9882 -1.8842  1.0689
17384SOL    HW264626   8.882   8.084   6.197  2.5128 -2.0189  0.1523
17385SOL     OW64627   2.407   1.813   3.214 -0.2156 -0.2519 -0.2165
17385SOL    HW164628   2.321   1.806   3.264  0.8738 -1.0652  1.5859
17385SOL    HW264629   2.399   1.766   3.126 -1.0836 -1.8132  0.6805
17386SOL     OW64630   3.416   3.323   2.947 -0.4178 -0.0558  0.0095
17386SOL    HW164631   3.425   3.303   3.045  0.1801  0.3442  0.0435
17386SOL    HW264632   3.446   3.417   2.930  0.9683 -0.6228 -0.7878
17387SOL     OW64633   7.307   3.855   4.203  0.9819 -0.4976 -0.3476
17387SOL    HW164634   7.397   3.829   4.168  2.2729  0.8184  1.9272
17387SOL    HW264635   7.267   3.924   4.143  1.2406 -1.4537 -1.6500
17388SOL     OW64636   0.446   6.687   3.271 -0.4364  0.2722  0.4594
17388SOL    HW164637   0.360   6.652   3.233  0.1533 -0.2390 -0.4146
17388SOL    HW264638   0.442   6.787   3.274 -1.7694  0.1757  2.1283
17389SOL     OW64639   3.465   2.562   7.875  0.0720 -0.2321  0.4618
17389SOL    HW164640   3.518   2.636   7.833  1.6359 -1.0503  0.9779
17389SOL    HW264641   3.519   2.518   7.947 -0.3210 -2.7656 -0.7381
17390SOL     OW64642   2.152   6.984   5.136  0.3070 -0.0108 -0.7589
17390SOL    HW164643   2.190   6.952   5.222 -2.0974 -0.9463  0.0051
17390SOL    HW264644   2.225   7.020   5.078  2.0628 -0.1782  1.3058
17391SOL     OW64645   3.456   7.300   3.964 -1.0650  0.2985 -0.1549
17391SOL    HW164646   3.461   7.201   3.972 -1.0305  0.2228 -1.0555
17391SOL    HW264647   3.486   7.328   3.873  1.4211  1.3448  0.9421
17392SOL     OW64648   6.779   5.193   3.388 -0.0645 -0.2495  0.2117
17392SOL    HW164649   6.772   5.154   3.480  0.1281  0.2373  0.4379
17392SOL    HW264650   6.695   5.243   3.367 -0.1533 -0.4566  0.0803
17393SOL     OW64651   4.600   5.558   3.296 -0.1631 -0.1496  0.3852
17393SOL    HW164652   4.625   5.612   3.215 -2.1354 -0.7460 -0.6551
17393SOL    HW264653   4.525   5.604   3.344 -0.0410 -0.5969  1.0092
17394SOL     OW64654   4.328   1.562   8.031  0.5004  0.4600 -0.1909
17394SOL    HW164655   4.381   1.555   7.946  2.3146  1.5792  0.8418
17394SOL    HW264656   4.320   1.658   8.058 -3.4133  0.5107 -1.1471
17395SOL     OW64657   5.518   6.938   2.954 -0.0372  0.4399 -0.3162
17395SOL    HW164658   5.508   7.017   2.894 -2.5093 -0.8702 -1.6739
17395SOL    HW264659   5.490   6.855   2.906 -0.8776 -0.8064  2.2174
17396SOL     OW64660   2.622   2.951   7.517 -0.2457  0.0359 -0.0394
17396SOL    HW164661   2.547   2.895   7.551 -1.7385  0.8357 -1.9637
17396SOL    HW264662   2.605   3.047   7.540 -0.1549  0.3007 -1.0690
17397SOL     OW64663   0.913   5.873   1.563 -0.0924  0.0601 -0.1539
17397SOL    HW164664   0.914   5.785   1.610 -1.3864 -0.0432 -0.2901
17397SOL    HW264665   0.987   5.930   1.597 -0.3492 -0.4217  1.2374
17398SOL     OW64666   1.794   7.580   4.012 -0.0393  0.3946 -0.1692
17398SOL    HW164667   1.716   7.643   4.008 -1.7081 -1.5986  0.2783
17398SOL    HW264668   1.800   7.540   4.103  1.2643  0.1878 -0.3332
17399SOL     OW64669   1.964   4.378   8.209  0.2555  0.0978 -0.1873
17399SOL    HW164670   2.037   4.328   8.255  0.8551  0.3600 -0.8384
17399SOL    HW264671   1.904   4.419   8.277  1.6064  1.1935  0.3800
17400SOL     OW64672   3.953   8.840   0.940 -0.4582 -0.3828 -0.1327
17400SOL    HW164673   3.990   8.816   0.850  1.4069  0.9644  0.2468
17400SOL    HW264674   3.865   8.886   0.928  0.2840  0.7563 -1.3424
17401SOL     OW64675   1.494   7.786   5.004  0.2943 -0.3635  0.1677
17401SOL    HW164676   1.544   7.825   4.927 -0.2418 -0.8922 -0.4597
17401SOL    HW264677   1.412   7.841   5.021  0.8557  0.2492  0.9144
17402SOL     OW64678   1.894   5.818   6.618  0.2393  0.2769  0.5809
17402SOL    HW164679   1.978   5.849   6.663 -0.2978  2.5601  0.0864
17402SOL    HW264680   1.820   5.816   6.685  0.2181  0.3064  0.5580
17403SOL     OW64681   0.301   0.797   7.082 -0.3504  0.5991  0.0379
17403SOL    HW164682   0.397   0.818   7.062 -0.3334  1.6805  1.1806
17403SOL    HW264683   0.254   0.771   6.997  1.1112 -0.6330 -0.4214
17404SOL     OW64684   7.679   3.714   4.074  0.0145  0.3830 -0.1787
17404SOL    HW164685   7.751   3.734   4.008 -0.1377 -2.0152 -1.1150
17404SOL    HW264686   7.604   3.666   4.029 -0.7296 -0.0316  1.4416
17405SOL     OW64687   1.893   1.067   5.940 -0.6909 -0.5491 -0.0253
17405SOL    HW164688   1.899   1.024   5.849  2.2261 -1.4357  0.5562
17405SOL    HW264689   1.922   1.002   6.009  0.3978  1.2522  1.2334
17406SOL     OW64690   8.561   2.498   4.125 -0.5207  0.4029 -0.7651
17406SOL    HW164691   8.491   2.435   4.090 -2.1441  2.5512 -1.5322
17406SOL    HW264692   8.543   2.590   4.090  1.0696  1.5488  1.3182
17407SOL     OW64693   6.566   1.973   8.570 -0.1659  0.7473  0.2678
17407SOL    HW164694   6.510   1.986   8.488  0.1299  1.0428  0.1131
17407SOL    HW264695   6.613   2.058   8.593 -1.5504  1.1316  1.7207
17408SOL     OW64696   2.264   2.724   6.808  0.6623 -0.2506 -0.9078
17408SOL    HW164697   2.254   2.642   6.752  0.5100  0.7102 -2.3299
17408SOL    HW264698   2.179   2.740   6.859  0.3606 -0.4709 -1.3383
17409SOL     OW64699   6.107   4.001   7.604 -0.2324 -0.8919  0.3301
17409SOL    HW164700   6.084   4.019   7.508  1.0160 -1.6829 -0.1313
17409SOL    HW264701   6.140   4.085   7.647 -0.6058 -0.5845  0.0215
17410SOL     OW64702   5.575   4.543   4.177 -0.6801  0.2013 -0.0364
17410SOL    HW164703   5.624   4.456   4.170 -1.0539  0.0305 -0.5656
17410SOL    HW264704   5.477   4.526   4.191 -0.5045  0.5399  1.7316
17411SOL     OW64705   8.434   1.787   7.478  0.4871  0.4904 -0.3002
17411SOL    HW164706   8.445   1.824   7.386  3.7698  3.0747  0.9828
17411SOL    HW264707   8.489   1.704   7.487  1.4256  1.1099 -0.2432
17412SOL     OW64708   7.721   0.085   2.121  0.5158  0.4138 -0.3183
17412SOL    HW164709   7.764  -0.002   2.145  1.0932  0.7869 -0.0067
17412SOL    HW264710   7.719   0.095   2.022  0.4155  0.0283 -0.3557
17413SOL     OW64711   8.982   2.336   8.711  0.1595 -0.7090 -0.1222
17413SOL    HW164712   9.059   2.365   8.655  0.2141 -0.8618 -0.1271
17413SOL    HW264713   9.009   2.258   8.767  0.8998  1.0535  2.0678
17414SOL     OW64714   1.077   3.182   5.199  0.1971  0.6586 -0.1912
17414SOL    HW164715   1.127   3.215   5.279 -1.1757  1.5283  0.3278
17414SOL    HW264716   1.028   3.097   5.222  1.8326 -0.4879 -0.8504
17415SOL     OW64717   2.308   8.054   7.671  0.0977 -0.1776 -0.0771
17415SOL    HW164718   2.231   8.086   7.727  1.5960  2.0939  0.7701
17415SOL    HW264719   2.330   8.123   7.602 -0.8712 -2.3845 -2.6875
17416SOL     OW64720   7.590   2.839   1.687  0.3062 -0.1011  0.2514
17416SOL    HW164721   7.566   2.794   1.601 -0.9393 -2.6419  1.8680
17416SOL    HW264722   7.678   2.805   1.719  1.8754  2.5337 -1.1167
17417SOL     OW64723   5.442   8.409   5.643 -0.1678  0.0198 -0.1174
17417SOL    HW164724   5.533   8.370   5.660 -0.6853 -0.7923  0.8344
17417SOL    HW264725   5.372   8.341   5.664 -1.0285  0.8987 -0.1059
17418SOL     OW64726   4.774   2.037   2.596  0.0389 -0.7865 -0.2566
17418SOL    HW164727   4.805   2.059   2.504 -0.1548 -0.3143 -0.2119
17418SOL    HW264728   4.675   2.054   2.603  0.2861  0.4301  0.4121
17419SOL     OW64729   2.178   3.254   5.084 -0.1926 -0.2113 -0.5155
17419SOL    HW164730   2.166   3.339   5.136 -0.4406 -1.6669  1.8581
17419SOL    HW264731   2.090   3.212   5.068  0.0099 -0.4868 -0.9016
17420SOL     OW64732   0.569   1.034   5.890  0.2161 -0.3230 -0.2617
17420SOL    HW164733   0.574   1.124   5.846 -0.0284 -1.0678 -1.8362
17420SOL    HW264734   0.578   1.046   5.989  1.6687  1.2996 -0.5439
17421SOL     OW64735   7.942   8.504   6.440  0.0218  0.1504 -0.2533
17421SOL    HW164736   8.027   8.555   6.455  1.1252 -1.1709 -1.8877
17421SOL    HW264737   7.956   8.408   6.463 -0.5645 -0.3724 -2.0664
17422SOL     OW64738   4.173   4.317   2.831  0.4210 -0.1934  0.1457
17422SOL    HW164739   4.149   4.298   2.736  0.9087  1.9085 -0.4200
17422SOL    HW264740   4.271   4.304   2.845  0.4281 -0.0624  0.2294
17423SOL     OW64741   1.699   6.119   0.111  0.3462 -0.3326  0.4097
17423SOL    HW164742   1.680   6.198   0.170 -0.2417 -2.8169  3.6723
17423SOL    HW264743   1.797   6.111   0.097  0.4149  0.9573  0.0674
17424SOL     OW64744   8.260   6.223   1.481  0.2851 -0.1791  0.8157
17424SOL    HW164745   8.215   6.240   1.569 -0.4737 -1.1299  0.6236
17424SOL    HW264746   8.300   6.132   1.481 -1.9579 -1.2233 -0.7238
17425SOL     OW64747   3.549   8.305   7.196 -0.6674 -0.2965 -0.4317
17425SOL    HW164748   3.549   8.341   7.290  0.4222 -1.2879 -0.0380
17425SOL    HW264749   3.455   8.284   7.168 -1.0377  0.3833  0.2917
17426SOL     OW64750   4.536   8.918   8.073  1.0712 -0.0084 -0.1297
17426SOL    HW164751   4.576   8.994   8.124 -1.3556  1.1201  0.1386
17426SOL    HW264752   4.518   8.946   7.979  1.6287 -0.7706 -0.4761
17427SOL     OW64753   2.473   1.077   8.759 -0.1757  0.1689  0.2532
17427SOL    HW164754   2.539   1.007   8.788 -0.1135  0.0634 -0.1409
17427SOL    HW264755   2.384   1.058   8.801  0.8727  2.2645  3.5762
17428SOL     OW64756   6.387   0.021   0.898 -0.6136 -0.1201 -0.4694
17428SOL    HW164757   6.421  -0.072   0.886  1.9796  0.9852 -2.2345
17428SOL    HW264758   6.288   0.022   0.889 -0.6584 -2.6864 -0.5891
17429SOL     OW64759   0.012   1.579   0.449 -0.4923  0.4191 -0.1881
17429SOL    HW164760   0.017   1.639   0.529  1.7324 -0.8723  0.6882
17429SOL    HW264761  -0.083   1.550   0.435 -1.1060  1.6863  1.1709
17430SOL     OW64762   0.682   3.919   3.185 -0.4208 -0.0749 -0.2614
17430SOL    HW164763   0.646   3.913   3.091 -1.9614  2.5776  0.0999
17430SOL    HW264764   0.618   3.971   3.241  0.0892 -2.3245  2.5038
17431SOL     OW64765   3.660   5.854   6.944 -0.1078  0.1651 -0.4417
17431SOL    HW164766   3.614   5.878   6.859  1.5285  2.3644 -0.7748
17431SOL    HW264767   3.751   5.817   6.923  0.4637  1.1053  0.3369
17432SOL     OW64768   5.707   3.420   6.807 -0.5693 -0.1346 -0.0591
17432SOL    HW164769   5.676   3.492   6.870  2.5367  0.6890  0.5950
17432SOL    HW264770   5.683   3.331   6.845  0.8049  0.3709  2.1009
17433SOL     OW64771   6.829   3.721   2.398  0.2398 -0.2542 -0.6849
17433SOL    HW164772   6.859   3.682   2.311 -0.0593 -0.5537 -0.6528
17433SOL    HW264773   6.908   3.759   2.447  0.6701 -1.6328 -0.2968
17434SOL     OW64774   2.831   4.673   0.917 -0.1389 -0.3934  0.4167
17434SOL    HW164775   2.764   4.747   0.929 -1.8194 -2.2926  3.4053
17434SOL    HW264776   2.905   4.685   0.983  1.1139  0.1720 -1.0506
17435SOL     OW64777   2.913   7.023   8.777  0.6073  0.1000  0.5089
17435SOL    HW164778   2.825   7.028   8.729  1.2199  0.6986 -0.5882
17435SOL    HW264779   2.899   6.994   8.871 -0.6528 -1.0153 -0.0093
17436SOL     OW64780   8.635   1.133   2.377  0.3082  0.2571 -0.2738
17436SOL    HW164781   8.702   1.079   2.427 -1.2951 -1.7891 -0.2509
17436SOL    HW264782   8.598   1.079   2.302 -3.3608  0.2654  1.4163
17437SOL     OW64783   0.120   8.427   8.544 -0.0955 -0.3110  0.7086
17437SOL    HW164784   0.086   8.357   8.607 -0.8914 -0.3504  0.2453
17437SOL    HW264785   0.043   8.474   8.501  0.4333 -0.0337  0.0406
17438SOL     OW64786   4.960   7.797   6.257 -0.0593 -0.1299 -0.5035
17438SOL    HW164787   4.968   7.779   6.355 -0.9466  1.0006 -0.2013
17438SOL    HW264788   4.931   7.892   6.243 -1.4352 -0.7184 -1.8203
17439SOL     OW64789   5.418   8.120   2.729  0.1808 -0.1312 -0.3718
17439SOL    HW164790   5.357   8.041   2.738 -0.4824  0.4196 -0.0225
17439SOL    HW264791   5.497   8.109   2.790  0.2940 -0.7204 -0.6280
17440SOL     OW64792   2.411   6.498   6.775  0.5980 -0.3788 -0.1453
17440SOL    HW164793   2.377   6.589   6.751 -0.3688 -0.4962  0.7403
17440SOL    HW264794   2.399   6.436   6.697 -1.9785 -0.6191  0.4238
17441SOL     OW64795   3.763   5.570   6.003 -0.2459  0.5026  0.1093
17441SOL    HW164796   3.767   5.566   6.102 -0.7700  0.2763  0.1221
17441SOL    HW264797   3.836   5.514   5.964 -1.5698 -1.4221  0.3523
17442SOL     OW64798   5.647   7.258   1.989 -0.0677 -0.4837 -0.1465
17442SOL    HW164799   5.675   7.324   2.059 -0.8319 -1.3763  1.0191
17442SOL    HW264800   5.715   7.184   1.984 -0.3498 -0.7566  0.1005
17443SOL     OW64801   8.581   7.733   8.119 -0.4540  0.0412  0.8642
17443SOL    HW164802   8.613   7.663   8.183 -0.2034 -0.4182  0.2379
17443SOL    HW264803   8.644   7.810   8.120 -0.1454 -0.2120  0.7452
17444SOL     OW64804   2.347   3.148   8.439 -0.1969 -0.1762 -0.0086
17444SOL    HW164805   2.284   3.210   8.484  1.0183  0.2277  1.1703
17444SOL    HW264806   2.346   3.059   8.485  1.4414  0.4019  1.1982
17445SOL     OW64807   5.983   1.958   6.561  0.1503  0.7120 -0.2827
17445SOL    HW164808   5.998   1.891   6.633  1.8812  0.0887 -1.1975
17445SOL    HW264809   6.071   1.986   6.522 -0.6651  2.1250 -1.1755
17446SOL     OW64810   0.516   7.549   1.095  0.1511  0.1508 -0.0492
17446SOL    HW164811   0.458   7.474   1.127 -1.2066  1.6732  1.1485
17446SOL    HW264812   0.459   7.629   1.076  1.2095  0.0685 -4.0075
17447SOL     OW64813   2.110   2.738   3.250 -0.2133 -0.1944 -0.3852
17447SOL    HW164814   2.130   2.803   3.323  0.7003 -0.9341  0.0489
17447SOL    HW264815   2.054   2.781   3.180 -0.6191  0.6941  0.4802
17448SOL     OW64816   5.931   2.544   2.583  0.3331  0.3680 -0.2157
17448SOL    HW164817   5.901   2.583   2.670 -0.8757 -0.5868 -0.2055
17448SOL    HW264818   5.854   2.501   2.537  1.6305 -1.9170 -0.2875
17449SOL     OW64819   3.963   4.762   7.578 -0.6551 -0.2696  0.0606
17449SOL    HW164820   3.988   4.679   7.527 -1.4984 -0.1799 -0.4973
17449SOL    HW264821   3.890   4.740   7.643  1.3790 -0.7222  2.2754
17450SOL     OW64822   8.017   6.778   7.559  0.1335 -0.1500 -0.1756
17450SOL    HW164823   7.974   6.860   7.598  0.2830 -0.3623  0.4384
17450SOL    HW264824   7.975   6.696   7.600  1.0836 -0.3581  0.3851
17451SOL     OW64825   6.516   5.983   7.166  0.4296 -0.4066 -0.0622
17451SOL    HW164826   6.531   6.079   7.186  0.5147 -0.1997 -1.0908
17451SOL    HW264827   6.486   5.935   7.249 -0.9249  0.7654  0.1371
17452SOL     OW64828   7.173   5.629   1.357 -0.0576 -0.0912 -0.0083
17452SOL    HW164829   7.272   5.637   1.369 -0.1015  0.9740 -0.2503
17452SOL    HW264830   7.143   5.538   1.383  1.0883 -0.6491 -0.6103
17453SOL     OW64831   1.323   8.315   3.821  0.6170 -0.1322  0.4390
17453SOL    HW164832   1.271   8.399   3.833  1.0858  0.4932 -1.7142
17453SOL    HW264833   1.261   8.237   3.824  0.1521  0.2958  2.2265
17454SOL     OW64834   2.605   0.539   7.125  0.2285  0.3522 -0.0418
17454SOL    HW164835   2.563   0.487   7.051 -2.1247  0.8162  0.9174
17454SOL    HW264836   2.613   0.481   7.207 -0.4077  0.8612  0.3848
17455SOL     OW64837   4.554   0.669   3.748 -0.4931  0.3799 -0.1770
17455SOL    HW164838   4.616   0.723   3.805  0.0554 -1.2441  0.7910
17455SOL    HW264839   4.506   0.730   3.685 -0.4984  2.0892  1.4310
17456SOL     OW64840   4.524   3.294   5.596 -0.2519  0.1650  0.3675
17456SOL    HW164841   4.479   3.234   5.530 -1.2155 -0.2556  1.3839
17456SOL    HW264842   4.542   3.243   5.680  0.4248  0.8538  0.6451
17457SOL     OW64843   1.067   8.833   1.431  0.0647  0.2984 -0.2451
17457SOL    HW164844   1.127   8.761   1.465 -1.8543 -1.2812 -0.0744
17457SOL    HW264845   1.027   8.882   1.509  0.7846  1.0691 -0.3523
17458SOL     OW64846   1.517   6.040   5.899 -0.1943  0.0309 -0.0562
17458SOL    HW164847   1.467   6.087   5.826  0.5781 -0.5301 -0.9417
17458SOL    HW264848   1.536   6.105   5.973 -0.6986  0.6737 -0.4841
17459SOL     OW64849   8.706   3.387   6.077 -0.4512 -0.5473 -0.3653
17459SOL    HW164850   8.798   3.347   6.073 -0.7363 -1.1384 -1.0971
17459SOL    HW264851   8.713   3.486   6.089  0.2762 -0.6887  0.4892
17460SOL     OW64852   3.822   0.162   0.418  0.2202 -0.1079  0.3989
17460SOL    HW164853   3.866   0.116   0.496  2.3737  1.1718 -0.0219
17460SOL    HW264854   3.849   0.258   0.416  1.2805 -0.4139 -2.7041
17461SOL     OW64855   6.456   0.193   8.517  0.1127  0.8739  0.0984
17461SOL    HW164856   6.435   0.100   8.487 -2.2184  1.1530  0.7864
17461SOL    HW264857   6.497   0.189   8.609 -0.9113  0.5748  0.5516
17462SOL     OW64858   8.368   5.342   4.593  0.8156 -0.5115 -0.4643
17462SOL    HW164859   8.407   5.265   4.542  0.8831 -1.1582  0.5532
17462SOL    HW264860   8.296   5.309   4.654  1.5496  0.0799  0.7407
17463SOL     OW64861   0.084   5.977   1.977  0.6859  0.4708  0.9002
17463SOL    HW164862   0.055   5.904   1.915 -0.6891  0.4982  1.5038
17463SOL    HW264863   0.183   5.991   1.968  0.8221 -0.9026  0.1887
17464SOL     OW64864   2.131   7.225   1.615 -0.2369  0.3657 -0.0030
17464SOL    HW164865   2.190   7.178   1.680  0.0001  0.0682 -0.4245
17464SOL    HW264866   2.150   7.323   1.617  1.0031  0.1535 -0.8624
17465SOL     OW64867   2.135   4.120   6.020  0.2328  0.6742  0.8714
17465SOL    HW164868   2.162   4.063   5.942  0.1090 -0.7739  1.8714
17465SOL    HW264869   2.183   4.090   6.102  0.4023  2.2278  1.3653
17466SOL     OW64870   7.089   7.613   2.130  0.5186 -0.1691 -0.1456
17466SOL    HW164871   7.106   7.706   2.099  0.4274 -0.5352 -1.3161
17466SOL    HW264872   7.090   7.551   2.052  0.7780 -1.1821  0.6486
17467SOL     OW64873   6.330   4.931   5.781 -0.8990 -0.9922 -0.0916
17467SOL    HW164874   6.252   4.992   5.796 -1.0273 -0.7744 -1.6006
17467SOL    HW264875   6.391   4.936   5.860 -1.9121 -0.4261  0.6771
17468SOL     OW64876   6.048   5.417   7.360 -0.5842  0.2424  0.1209
17468SOL    HW164877   6.096   5.338   7.400 -0.4013 -0.5069 -1.5613
17468SOL    HW264878   6.101   5.500   7.379  1.0472 -0.4894 -1.1007
17469SOL     OW64879   4.200   1.232   7.633  0.2981  0.4136 -0.0882
17469SOL    HW164880   4.154   1.261   7.717  0.7743 -1.4778  0.8526
17469SOL    HW264881   4.296   1.211   7.653  0.2680 -0.6448 -0.9716
17470SOL     OW64882   2.941   5.328   8.160  0.3574 -0.1381  0.3975
17470SOL    HW164883   3.028   5.280   8.170 -0.1365 -1.4758 -1.4228
17470SOL    HW264884   2.887   5.316   8.243  0.0202 -3.2458 -0.2219
17471SOL     OW64885   0.760   2.712   0.136  0.0241  0.3338 -0.9926
17471SOL    HW164886   0.817   2.789   0.167 -0.3310  0.6998 -1.2399
17471SOL    HW264887   0.801   2.672   0.054  1.1095 -0.8089  0.0946
17472SOL     OW64888   2.329   2.490   5.013  0.1577 -0.7168 -0.0215
17472SOL    HW164889   2.252   2.554   5.013 -0.0548 -0.9691 -1.8450
17472SOL    HW264890   2.401   2.525   5.075 -0.7347  0.3241  0.4482
17473SOL     OW64891   0.089   6.920   3.495  0.2271  0.2636  0.2262
17473SOL    HW164892   0.037   6.915   3.410 -0.8015 -1.0865  0.9145
17473SOL    HW264893   0.082   6.833   3.543  1.5478  0.7139  1.2601
17474SOL     OW64894   2.437   8.430   3.064  0.0849  0.2169  0.0627
17474SOL    HW164895   2.397   8.522   3.067  0.6373  0.4297  1.8612
17474SOL    HW264896   2.520   8.431   3.008 -0.3505  0.6385 -0.5717
17475SOL     OW64897   1.130   5.837   8.768 -0.4489  0.2768 -0.4887
17475SOL    HW164898   1.113   5.816   8.672 -1.8445 -1.0333  0.0223
17475SOL    HW264899   1.222   5.805   8.793 -0.9282 -1.4294 -0.8288
17476SOL     OW64900   7.223   1.371   7.792  0.3475 -0.2681  0.1532
17476SOL    HW164901   7.228   1.272   7.778  0.0788  0.1258 -3.0351
17476SOL    HW264902   7.311   1.412   7.768 -0.3581  0.5455 -1.0533
17477SOL     OW64903   7.894   3.435   3.032  0.3118 -0.0727  0.4434
17477SOL    HW164904   7.878   3.420   2.934  0.3617 -0.7067  0.5287
17477SOL    HW264905   7.823   3.389   3.085  0.3067  0.2370  0.7050
17478SOL     OW64906   5.442   2.380   1.904  0.0089 -0.7385  0.0306
17478SOL    HW164907   5.364   2.425   1.947  0.1054  0.0097 -0.5688
17478SOL    HW264908   5.421   2.283   1.889 -0.2366 -0.8806  1.2307
17479SOL     OW64909   5.097   0.556   6.934  0.1192 -0.1062  0.3133
17479SOL    HW164910   5.132   0.481   6.991  1.1193 -0.3919 -0.6572
17479SOL    HW264911   5.084   0.524   6.841  0.0921  0.7976  0.0018
17480SOL     OW64912   5.229   5.596   6.760  0.8414  0.4625 -0.2425
17480SOL    HW164913   5.200   5.644   6.678  0.1688 -1.6183 -1.2440
17480SOL    HW264914   5.287   5.518   6.735 -0.5919 -1.0833  1.1298
17481SOL     OW64915   1.693   7.756   5.870 -0.6721 -1.0573  0.1770
17481SOL    HW164916   1.652   7.847   5.868 -0.1089 -0.7981  0.1763
17481SOL    HW264917   1.636   7.694   5.924 -1.0073 -0.6804  0.2558
17482SOL     OW64918   7.074   4.982   7.028 -0.4252  0.2268 -0.5769
17482SOL    HW164919   7.153   4.923   7.019 -0.2051  0.3224  0.6595
17482SOL    HW264920   7.000   4.948   6.971  0.0793 -0.5886 -0.7440
17483SOL     OW64921   7.043   8.156   7.306 -0.2113 -0.0641 -0.3053
17483SOL    HW164922   7.009   8.193   7.219  2.1886  1.6150 -0.5779
17483SOL    HW264923   7.040   8.228   7.375  0.9903 -0.4532  0.1474
17484SOL     OW64924   2.318   2.222   5.066 -0.3367 -0.0985  0.1384
17484SOL    HW164925   2.371   2.221   5.152  0.0158 -2.0485 -0.0776
17484SOL    HW264926   2.323   2.313   5.025 -0.9633  1.0213  2.4632
17485SOL     OW64927   4.873   5.926   6.300  0.4669 -0.0171 -0.5605
17485SOL    HW164928   4.806   5.985   6.255  0.7607  0.7614  0.0237
17485SOL    HW264929   4.827   5.846   6.339 -0.4286  1.4799  1.5466
17486SOL     OW64930   1.560   7.894   1.033 -0.2139 -0.1943 -0.4101
17486SOL    HW164931   1.551   7.837   0.952  1.3130  1.2951 -1.6725
17486SOL    HW264932   1.588   7.838   1.111  1.2701 -1.1781 -1.6151
17487SOL     OW64933   3.444   4.638   0.109 -0.5926 -0.4400  0.0174
17487SOL    HW164934   3.467   4.656   0.205 -1.1617 -0.9191  0.2504
17487SOL    HW264935   3.467   4.543   0.087 -0.5431 -0.3566 -0.2964
17488SOL     OW64936   8.720   4.159   4.281  0.2372 -0.7021  0.4308
17488SOL    HW164937   8.727   4.135   4.184 -0.4114 -0.0517  0.2197
17488SOL    HW264938   8.743   4.080   4.337 -2.1411 -1.9351 -0.2566
17489SOL     OW64939   5.290   8.624   6.168 -0.2050  0.0932  0.0060
17489SOL    HW164940   5.369   8.576   6.129  0.7965  0.7525  1.1689
17489SOL    HW264941   5.246   8.680   6.098  0.5627 -0.0159 -0.5648
17490SOL     OW64942   7.863   6.107   2.253 -0.1912  0.4847  0.2536
17490SOL    HW164943   7.815   6.060   2.327  0.9455  0.8457  1.2307
17490SOL    HW264944   7.940   6.051   2.222  0.2060  0.9772  0.3385
17491SOL     OW64945   0.240   8.410   0.588  0.2000  0.0274  0.2667
17491SOL    HW164946   0.282   8.335   0.639  0.4136 -1.1326 -1.6019
17491SOL    HW264947   0.308   8.452   0.528 -0.3644  0.5812  0.0058
17492SOL     OW64948   1.820   6.697   8.116  0.4505 -0.3554 -0.2278
17492SOL    HW164949   1.861   6.720   8.205 -1.1819 -4.2544  1.6141
17492SOL    HW264950   1.891   6.663   8.055  1.2468  0.3634  0.2808
17493SOL     OW64951   5.848   2.295   2.194 -0.3048  0.4367  0.2621
17493SOL    HW164952   5.944   2.317   2.175 -0.4106  0.6190 -0.0710
17493SOL    HW264953   5.841   2.204   2.233 -0.1141 -0.1233 -0.9742
17494SOL     OW64954   6.843   8.480   1.140 -0.1565 -0.3941 -0.4198
17494SOL    HW164955   6.854   8.382   1.120  1.6653 -0.1740 -0.5900
17494SOL    HW264956   6.930   8.517   1.170 -1.1377  0.9296  0.8463
17495SOL     OW64957   3.616   2.321   4.685 -0.0384 -0.0097 -0.0463
17495SOL    HW164958   3.702   2.372   4.698 -0.3302  0.1320  1.4046
17495SOL    HW264959   3.539   2.381   4.704 -0.4131 -0.6423  0.4447
17496SOL     OW64960   6.036   2.437   7.236 -0.2411  0.0075 -0.3402
17496SOL    HW164961   5.996   2.522   7.270  1.1294  0.1791  0.8922
17496SOL    HW264962   5.995   2.414   7.148 -1.5161  1.2820 -0.0988
17497SOL     OW64963   0.130   4.631   7.213  0.1513  0.1363 -0.4194
17497SOL    HW164964   0.123   4.695   7.290  2.0163 -2.0049  1.6024
17497SOL    HW264965   0.185   4.552   7.240 -0.0792 -1.2025 -3.6345
17498SOL     OW64966   2.598   3.453   5.477  0.0506 -0.2320 -0.0978
17498SOL    HW164967   2.581   3.513   5.398 -0.4803 -1.9570 -1.3388
17498SOL    HW264968   2.633   3.365   5.444 -1.2520 -1.3715  1.5017
17499SOL     OW64969   7.224   5.052   1.743 -0.6353  0.0554  0.2698
17499SOL    HW164970   7.167   5.071   1.823  0.5177 -0.7480  1.3096
17499SOL    HW264971   7.315   5.026   1.773  0.5122  1.9972 -1.3893
17500SOL     OW64972   7.093   7.424   5.968  0.4726  0.0642 -0.6046
17500SOL    HW164973   7.104   7.436   5.870  1.5236  1.1351 -0.3598
17500SOL    HW264974   6.997   7.404   5.988 -0.0335  1.2886 -1.7083
17501SOL     OW64975   8.043   1.497   4.353  0.0337  1.2208 -0.6561
17501SOL    HW164976   8.071   1.502   4.257  1.3364 -0.5844 -0.4016
17501SOL    HW264977   7.958   1.445   4.360  1.7901 -1.7509 -0.5449
17502SOL     OW64978   1.991   8.000   6.319  0.3413 -0.0788  0.0258
17502SOL    HW164979   1.897   7.964   6.318  0.5047 -0.4963 -0.4131
17502SOL    HW264980   1.996   8.081   6.260  0.0616  0.4495  0.7174
17503SOL     OW64981   2.975   7.779   4.646 -0.1430 -0.2662  0.0036
17503SOL    HW164982   2.993   7.867   4.689 -0.2486 -0.6139  0.7650
17503SOL    HW264983   3.019   7.776   4.555  3.3643 -0.9347  1.6084
17504SOL     OW64984   3.030   7.754   5.873  0.1954  0.0767 -0.2526
17504SOL    HW164985   3.119   7.768   5.916 -0.9102  1.8527  1.5446
17504SOL    HW264986   3.014   7.656   5.860  2.0617 -0.2958  0.1847
17505SOL     OW64987   8.763   3.819   8.288  0.3385  0.0613  0.1611
17505SOL    HW164988   8.838   3.772   8.241  0.3376  0.7191 -0.4975
17505SOL    HW264989   8.780   3.817   8.387  0.5413 -0.9680  0.1150
17506SOL     OW64990   7.497   3.882   5.200 -0.0055 -0.4703 -0.4207
17506SOL    HW164991   7.435   3.953   5.167 -0.2373  0.6220  2.1975
17506SOL    HW264992   7.447   3.796   5.208 -0.8827  0.0916  0.3806
17507SOL     OW64993   2.097   6.775   6.201 -0.3205  0.0635  0.1590
17507SOL    HW164994   2.095   6.858   6.146 -0.8134 -0.7546 -1.0949
17507SOL    HW264995   2.003   6.744   6.219 -0.1939  0.7343  2.1310
17508SOL     OW64996   8.589   1.429   6.298  0.2711  0.1420 -0.2877
17508SOL    HW164997   8.643   1.447   6.216  0.3848 -0.1227 -0.2729
17508SOL    HW264998   8.614   1.494   6.369  1.7506 -0.9871  0.2544
17509SOL     OW64999   5.671   5.965   8.798  0.2136 -0.0601 -0.8570
17509SOL    HW165000   5.703   6.053   8.764 -0.3626  1.1866  1.7478
17509SOL    HW265001   5.732   5.933   8.871 -0.9141 -0.7023 -0.1933
17510SOL     OW65002   8.806   4.739   6.785  0.1596  0.2643  0.0376
17510SOL    HW165003   8.859   4.804   6.730  0.2587 -0.8626 -1.2471
17510SOL    HW265004   8.866   4.694   6.850  1.0608 -1.7554 -2.1133
17511SOL     OW65005   3.422   3.555   7.783  0.1316  0.2825  0.1672
17511SOL    HW165006   3.358   3.631   7.771  1.9834  1.8018 -0.2285
17511SOL    HW265007   3.370   3.470   7.799 -1.9545  1.8326  1.9999
17512SOL     OW65008   2.799   7.247   5.943 -0.2408 -0.0557  0.1827
17512SOL    HW165009   2.859   7.326   5.957  1.7035 -1.8744  2.7209
17512SOL    HW265010   2.848   7.176   5.893 -1.5236 -0.1605 -0.9355
17513SOL     OW65011   5.959   0.114   8.721  0.6829  0.4924  0.4330
17513SOL    HW165012   5.989   0.064   8.802  1.3681 -1.8108 -1.1933
17513SOL    HW265013   6.038   0.155   8.676  0.6832 -0.6348 -0.6188
17514SOL     OW65014   1.661   5.348   7.980 -0.8120  0.0094 -0.1734
17514SOL    HW165015   1.716   5.349   7.897 -0.5246 -1.6617 -0.0241
17514SOL    HW265016   1.698   5.414   8.045  0.7702 -0.7769 -0.2385
17515SOL     OW65017   1.845   1.095   2.450  0.2637 -0.2303 -0.1658
17515SOL    HW165018   1.936   1.136   2.439  0.7554 -1.5662 -1.1948
17515SOL    HW265019   1.788   1.119   2.372 -0.0625  0.0588  0.1595
17516SOL     OW65020   8.010   8.808   8.777 -0.5517  0.0244 -0.0800
17516SOL    HW165021   8.026   8.714   8.745  0.0420  0.3998 -0.9168
17516SOL    HW265022   7.920   8.838   8.746 -0.6194 -0.1683 -0.0724
17517SOL     OW65023   1.788   3.032   6.403  0.0674 -0.1348  0.2426
17517SOL    HW165024   1.827   3.071   6.486  0.0160  1.8836 -0.6681
17517SOL    HW265025   1.692   3.010   6.418 -0.2675  1.3849  0.3240
17518SOL     OW65026   0.051   3.997   3.441 -0.3933 -0.2376  0.1674
17518SOL    HW165027   0.045   4.087   3.485  0.5528 -1.1727  2.2611
17518SOL    HW265028  -0.035   3.978   3.392 -1.5740  0.7287  1.8244
17519SOL     OW65029   8.949   5.523   1.789 -0.0210  0.3802  0.0233
17519SOL    HW165030   8.875   5.514   1.723  0.8292  0.0017 -0.8873
17519SOL    HW265031   8.915   5.497   1.880 -0.6627 -1.0469 -0.5999
17520SOL     OW65032   1.552   0.692   1.833 -0.2016 -0.5437 -0.5348
17520SOL    HW165033   1.495   0.610   1.826 -0.7178 -0.2319  0.0757
17520SOL    HW265034   1.500   0.766   1.874  0.5059 -0.1252 -0.3861
17521SOL     OW65035   8.412   1.753   3.282  0.3625  0.4677  0.2364
17521SOL    HW165036   8.330   1.809   3.269 -0.8236 -1.2302  0.3376
17521SOL    HW265037   8.395   1.683   3.351  2.0688  0.4034  0.6261
17522SOL     OW65038   1.212   6.476   8.677  0.3674  0.2730 -0.1698
17522SOL    HW165039   1.138   6.439   8.733  0.4316  0.0351 -0.2391
17522SOL    HW265040   1.297   6.430   8.699  0.2228 -0.4515 -1.0901
17523SOL     OW65041   8.399   0.083   7.349 -0.7044  0.3710  0.1483
17523SOL    HW165042   8.366   0.055   7.439 -1.6292 -0.8303 -0.5554
17523SOL    HW265043   8.499   0.095   7.352 -0.5629 -0.9428  0.9965
17524SOL     OW65044   5.296   2.689   8.580 -0.6927  0.2044  0.3607
17524SOL    HW165045   5.235   2.656   8.508 -1.0944  0.0313  0.7768
17524SOL    HW265046   5.296   2.789   8.581  1.7542  0.2804 -1.9476
17525SOL     OW65047   2.729   2.236   4.898 -0.8933  0.4085  0.2670
17525SOL    HW165048   2.656   2.169   4.911  0.8481 -1.6125 -0.1812
17525SOL    HW265049   2.744   2.286   4.983 -2.2476  0.2948  0.5913
17526SOL     OW65050   8.316   8.224   0.879  0.0931 -0.2342 -0.3112
17526SOL    HW165051   8.367   8.308   0.858 -1.3032  0.9627  0.9441
17526SOL    HW265052   8.248   8.207   0.807  0.9594 -0.7748 -1.0074
17527SOL     OW65053   2.413   8.482   5.514 -0.1277  0.1873 -0.0960
17527SOL    HW165054   2.419   8.437   5.603  0.7908 -0.3174 -0.4052
17527SOL    HW265055   2.329   8.536   5.510 -0.6945 -0.6171  0.6832
17528SOL     OW65056   7.741   2.303   7.494 -0.2595  0.0069 -0.6933
17528SOL    HW165057   7.735   2.403   7.490  1.3755  0.3423  3.1879
17528SOL    HW265058   7.833   2.275   7.466  0.2933 -0.1141  1.1533
17529SOL     OW65059   6.996   6.968   6.537 -1.3126 -0.5667 -0.4167
17529SOL    HW165060   6.933   6.947   6.612 -2.1929 -0.1359 -1.0242
17529SOL    HW265061   7.037   6.883   6.503 -0.6257 -0.7250  0.7961
17530SOL     OW65062   6.406   8.127   0.331 -0.2221 -0.0243  0.3632
17530SOL    HW165063   6.392   8.071   0.249  0.4474 -0.0885  0.2919
17530SOL    HW265064   6.475   8.196   0.312  1.0998 -1.0529  1.3794
17531SOL     OW65065   2.379   4.501   5.548  0.5846  0.4956  0.0548
17531SOL    HW165066   2.322   4.448   5.611  0.7679 -0.8682 -0.9186
17531SOL    HW265067   2.469   4.515   5.590  0.9637 -1.0701 -0.1903
17532SOL     OW65068   3.545   2.331   6.524  0.0926 -0.2414  0.9509
17532SOL    HW165069   3.511   2.420   6.494  1.8768  0.9208  2.2789
17532SOL    HW265070   3.597   2.289   6.449  0.7568  0.6532  0.8959
17533SOL     OW65071   3.034   6.904   3.035  0.0621  0.0314 -0.6348
17533SOL    HW165072   2.966   6.909   3.108 -0.5803  0.5421 -1.2668
17533SOL    HW265073   2.990   6.879   2.949  1.2582 -3.7405 -0.2670
17534SOL     OW65074   2.086   2.537   1.969 -0.0554 -0.0722  0.4165
17534SOL    HW165075   2.128   2.522   2.059 -0.4234  1.1930  0.8063
17534SOL    HW265076   1.987   2.531   1.978 -0.0668 -0.5368 -0.0242
17535SOL     OW65077   7.332   8.553   2.150  0.4751 -0.2161  0.1079
17535SOL    HW165078   7.411   8.514   2.198 -0.1445 -0.9887  0.5088
17535SOL    HW265079   7.264   8.481   2.135 -0.5733  0.6580  0.6410
17536SOL     OW65080   3.715   0.776   5.144  0.4420  0.2425  0.1330
17536SOL    HW165081   3.793   0.836   5.125  0.3015 -0.3127 -2.3897
17536SOL    HW265082   3.635   0.831   5.166  0.0389  1.0577 -3.2382
17537SOL     OW65083   2.485   2.602   6.972  0.7015 -0.4353  0.1357
17537SOL    HW165084   2.490   2.612   7.072 -0.8967 -1.6536  0.3377
17537SOL    HW265085   2.396   2.634   6.940 -0.6393 -4.4611 -0.3454
17538SOL     OW65086   4.303   6.393   2.812  0.0382 -0.1704  0.2768
17538SOL    HW165087   4.335   6.321   2.751  0.3270  0.2419 -0.0611
17538SOL    HW265088   4.276   6.353   2.900 -0.1331 -0.7309 -0.0282
17539SOL     OW65089   4.334   7.550   1.289 -0.5570  0.2935 -0.0591
17539SOL    HW165090   4.295   7.639   1.311 -2.0333 -0.0647 -1.1108
17539SOL    HW265091   4.273   7.502   1.225  2.0128  0.0463 -2.4354
17540SOL     OW65092   0.757   2.805   8.632 -0.3344 -0.5405 -0.6737
17540SOL    HW165093   0.843   2.811   8.682 -0.0875 -0.9071 -1.0450
17540SOL    HW265094   0.776   2.773   8.539 -1.0542 -2.2468 -0.2494
17541SOL     OW65095   7.892   4.877   7.337  0.3805  0.0744 -0.2941
17541SOL    HW165096   7.795   4.881   7.359  0.2816 -0.3248 -0.6581
17541SOL    HW265097   7.945   4.914   7.414 -0.0593  0.3827 -0.1360
17542SOL     OW65098   3.255   2.029   7.462  0.4291  0.1520 -0.3439
17542SOL    HW165099   3.332   2.036   7.399  0.0958  1.5764 -0.6071
17542SOL    HW265100   3.234   1.932   7.479  1.4587 -0.2361 -1.2505
17543SOL     OW65101   8.764   0.783   0.532  0.3821  0.4343  0.2621
17543SOL    HW165102   8.669   0.765   0.560 -0.0519  0.2907 -1.2708
17543SOL    HW265103   8.786   0.879   0.549  0.7437 -0.0528  2.8172
17544SOL     OW65104   0.060   4.374   6.705 -0.4259 -0.6282  0.3429
17544SOL    HW165105   0.029   4.342   6.616 -1.8830  2.3341 -0.2827
17544SOL    HW265106  -0.018   4.381   6.767  0.1688 -0.1668  1.0452
17545SOL     OW65107   6.110   3.437   6.537 -0.1771  0.1569 -0.8639
17545SOL    HW165108   6.085   3.453   6.633 -1.1906 -1.6616 -0.7986
17545SOL    HW265109   6.166   3.513   6.504  1.0357  0.3402  1.4716
17546SOL     OW65110   4.541   8.125   7.029  0.5402  0.2859  0.4255
17546SOL    HW165111   4.604   8.070   7.083  0.4210 -1.6307 -1.2973
17546SOL    HW265112   4.536   8.088   6.936 -3.7772 -0.1500  0.7198
17547SOL     OW65113   0.067   2.036   7.295  0.7150 -0.3505  0.1183
17547SOL    HW165114   0.084   1.943   7.327  0.4669 -1.3379 -2.4902
17547SOL    HW265115  -0.020   2.039   7.246  1.3485  0.9300 -0.9706
17548SOL     OW65116   5.925   0.882   0.615 -0.3287 -0.4836 -0.1906
17548SOL    HW165117   6.021   0.902   0.634 -0.2263  0.5560 -1.7709
17548SOL    HW265118   5.916   0.846   0.522 -1.5231 -0.2085 -0.1932
17549SOL     OW65119   4.822   8.233   6.526  0.1612 -0.1808  0.0329
17549SOL    HW165120   4.752   8.219   6.456  0.1177  0.3403 -0.0297
17549SOL    HW265121   4.853   8.328   6.524  1.2621 -0.5311 -0.3092
17550SOL     OW65122   7.098   4.496   3.733  0.8253 -0.1697 -0.4782
17550SOL    HW165123   7.183   4.476   3.781  0.6684  1.9305  0.7407
17550SOL    HW265124   7.113   4.487   3.634  2.8171  1.3589 -0.3558
17551SOL     OW65125   3.650   3.195   0.981  0.2023 -0.1679  0.4766
17551SOL    HW165126   3.709   3.245   0.917  0.4838 -1.2493 -0.1178
17551SOL    HW265127   3.707   3.151   1.051  0.0928 -0.9541  0.0822
17552SOL     OW65128   5.658   6.447   0.786 -0.2963 -0.4076 -0.6794
17552SOL    HW165129   5.575   6.501   0.799 -1.4140 -2.3029  0.3766
17552SOL    HW265130   5.668   6.423   0.689 -0.6049  0.4019 -0.9141
17553SOL     OW65131   8.734   3.721   4.553  0.5640 -0.1364  0.1279
17553SOL    HW165132   8.826   3.757   4.537  0.4269  0.4761  0.6972
17553SOL    HW265133   8.669   3.769   4.494  0.1635  1.6332  1.9504
17554SOL     OW65134   1.356   3.752   1.946 -0.5895 -0.3981  0.1062
17554SOL    HW165135   1.439   3.789   1.905 -1.3488 -0.5625 -1.6600
17554SOL    HW265136   1.357   3.767   2.044  0.5457  1.5072 -0.1794
17555SOL     OW65137   4.329   7.786   4.644 -0.6717 -0.3533 -0.3771
17555SOL    HW165138   4.246   7.828   4.608 -0.7877 -0.7303 -0.5541
17555SOL    HW265139   4.309   7.693   4.675 -0.5285 -0.1021  0.4814
17556SOL     OW65140   0.703   5.791   2.848  0.2057 -0.6643  1.0163
17556SOL    HW165141   0.743   5.709   2.807 -0.9636 -0.7150 -0.0508
17556SOL    HW265142   0.636   5.830   2.785  0.0861  0.5936  1.9106
17557SOL     OW65143   5.142   2.615   8.372 -0.2269 -0.7570  0.0194
17557SOL    HW165144   5.056   2.567   8.389 -1.6980  1.9141  0.3444
17557SOL    HW265145   5.142   2.650   8.278  0.1793 -0.0881  0.2669
17558SOL     OW65146   4.318   6.194   1.538 -0.1682  0.1211  0.6896
17558SOL    HW165147   4.392   6.144   1.493  2.5919  3.3140  1.4884
17558SOL    HW265148   4.266   6.245   1.469  0.9388  1.0838  0.5590
17559SOL     OW65149   6.774   6.570   0.084 -0.1998 -0.2826  0.0238
17559SOL    HW165150   6.851   6.571   0.021 -0.1617  1.4813  0.0816
17559SOL    HW265151   6.793   6.507   0.159  0.6472 -0.7993 -0.6258
17560SOL     OW65152   6.349   6.691   6.037  0.1774  0.1305  0.3826
17560SOL    HW165153   6.281   6.635   6.085 -1.6846  1.1042 -1.0495
17560SOL    HW265154   6.303   6.745   5.966  2.6542 -0.1719 -1.4932
17561SOL     OW65155   3.907   1.880   3.279 -0.4282  0.3251 -0.5471
17561SOL    HW165156   3.999   1.857   3.310 -0.5764  0.8047  0.2439
17561SOL    HW265157   3.857   1.796   3.256  0.2045  0.0673 -0.9764
17562SOL     OW65158   7.169   8.827   7.539  0.4920  0.4197  0.0802
17562SOL    HW165159   7.113   8.911   7.538 -0.6222 -0.2913  0.9474
17562SOL    HW265160   7.146   8.772   7.459  0.3100  0.3665  0.1677
17563SOL     OW65161   8.217   3.649   8.079 -0.0678 -0.0210  1.0615
17563SOL    HW165162   8.302   3.679   8.035 -0.3501 -0.8264 -0.0309
17563SOL    HW265163   8.157   3.728   8.092  0.3557  0.3556  0.7673
17564SOL     OW65164   2.152   5.525   5.824 -0.0095 -0.3990 -0.6186
17564SOL    HW165165   2.197   5.576   5.898  0.4967 -0.5755 -0.8067
17564SOL    HW265166   2.093   5.587   5.773  0.0115 -0.1691 -0.3679
17565SOL     OW65167   2.294   4.670   2.650  0.5292 -0.2449 -0.0228
17565SOL    HW165168   2.215   4.675   2.711  0.8492  0.5196  0.3362
17565SOL    HW265169   2.269   4.623   2.566 -0.6681  1.1811 -0.4769
17566SOL     OW65170   0.098   0.923   6.872 -0.6997 -0.0611 -0.1439
17566SOL    HW165171   0.159   0.848   6.848 -0.8340  0.4203 -2.0998
17566SOL    HW265172   0.009   0.886   6.900  0.2473 -0.7327  2.0394
17567SOL     OW65173   5.539   8.439   1.884  0.0034 -0.2352  0.5678
17567SOL    HW165174   5.549   8.455   1.983  0.4954 -0.1590  0.5031
17567SOL    HW265175   5.623   8.465   1.837 -0.7558  1.1763 -0.0419
17568SOL     OW65176   0.680   1.974   1.136 -0.2282  0.3861  0.0425
17568SOL    HW165177   0.741   1.982   1.057 -1.7594 -1.3773 -1.3581
17568SOL    HW265178   0.615   2.050   1.136  0.4041  0.9257  0.1583
17569SOL     OW65179   0.968   3.504   6.825  0.2102  0.4630  0.3154
17569SOL    HW165180   1.021   3.434   6.872 -0.4265 -0.6774 -0.6374
17569SOL    HW265181   1.028   3.557   6.765 -0.1039 -2.4702 -2.6929
17570SOL     OW65182   1.730   0.146   6.884  0.6106  0.2341 -0.4392
17570SOL    HW165183   1.734   0.245   6.872 -0.7772  0.5418  1.5201
17570SOL    HW265184   1.810   0.115   6.935 -0.4545  0.7761  1.6128
17571SOL     OW65185   0.098   2.489   2.696 -0.3178 -0.1484 -0.5374
17571SOL    HW165186   0.105   2.541   2.781  1.1402  1.6246 -1.7108
17571SOL    HW265187   0.139   2.398   2.710  0.1719  0.2292  0.5652
17572SOL     OW65188   4.731   7.329   0.968 -0.2423  0.2492 -0.3262
17572SOL    HW165189   4.714   7.315   1.065 -0.8532 -0.8164 -0.5715
17572SOL    HW265190   4.829   7.345   0.953  0.5460 -3.6115  0.0804
17573SOL     OW65191   3.232   6.090   7.238  0.5436 -0.3497 -0.2854
17573SOL    HW165192   3.229   6.070   7.336 -0.4809  1.0272 -0.0282
17573SOL    HW265193   3.204   6.009   7.186 -2.1405 -0.0856  0.6901
17574SOL     OW65194   1.448   3.978   1.534  0.1574  0.4116  0.4742
17574SOL    HW165195   1.383   3.942   1.467 -0.3058  0.4812  0.8843
17574SOL    HW265196   1.539   3.984   1.492 -0.1841  0.7076 -0.2347
17575SOL     OW65197   3.339   4.655   2.758 -0.2486 -0.4306  0.2972
17575SOL    HW165198   3.244   4.639   2.787 -1.0175  1.5644 -1.0192
17575SOL    HW265199   3.386   4.711   2.826 -0.3724 -0.4164  0.3718
17576SOL     OW65200   6.291   5.785   3.293 -0.2255  0.3491  0.2423
17576SOL    HW165201   6.265   5.745   3.381  0.6584 -1.0498 -0.1105
17576SOL    HW265202   6.212   5.831   3.253 -0.7344  0.6837  1.6013
17577SOL     OW65203   0.909   8.989   4.590  0.2568 -0.1760  0.3932
17577SOL    HW165204   0.839   8.995   4.661 -1.6322 -0.3677 -1.3951
17577SOL    HW265205   0.895   8.906   4.536  1.1357  0.3866 -0.7374
17578SOL     OW65206   7.020   6.739   1.819 -0.5036 -0.2810 -0.2899
17578SOL    HW165207   7.024   6.693   1.730 -1.0342  0.4582 -0.7052
17578SOL    HW265208   6.951   6.694   1.876  0.7414 -1.5718  0.2357
17579SOL     OW65209   2.462   7.440   0.143 -0.0451  0.1233 -0.3731
17579SOL    HW165210   2.464   7.353   0.192 -2.6886 -0.6682 -1.6027
17579SOL    HW265211   2.541   7.445   0.082 -0.0448 -1.5448 -0.5395
17580SOL     OW65212   4.503   4.434   6.786 -0.2172 -0.0835  0.0679
17580SOL    HW165213   4.586   4.385   6.811  0.0657  0.3834  0.0582
17580SOL    HW265214   4.426   4.370   6.782 -0.0157 -0.3826  0.8610
17581SOL     OW65215   7.362   6.799   1.333 -0.5518 -0.1841 -0.2271
17581SOL    HW165216   7.307   6.716   1.326 -0.7991 -0.0132 -0.3352
17581SOL    HW265217   7.302   6.877   1.353 -0.5406  0.2420 -1.8043
17582SOL     OW65218   0.847   3.262   3.429 -0.0522 -0.0901  0.3972
17582SOL    HW165219   0.927   3.236   3.483  0.3994 -0.8385 -0.5988
17582SOL    HW265220   0.824   3.188   3.367  1.6241  2.0151 -2.9378
17583SOL     OW65221   0.282   5.745   1.239 -0.0584  0.1017 -0.4375
17583SOL    HW165222   0.327   5.829   1.210  0.1172 -0.2688 -1.2726
17583SOL    HW265223   0.326   5.710   1.321 -1.3185  1.8111  0.9953
17584SOL     OW65224   3.480   8.409   0.270 -0.2884  0.1395  0.1602
17584SOL    HW165225   3.486   8.329   0.330  0.7737  1.3050  1.6725
17584SOL    HW265226   3.568   8.457   0.271 -1.3671  2.1439  0.4743
17585SOL     OW65227   8.746   3.107   4.129  1.1592  0.2084  0.1668
17585SOL    HW165228   8.697   3.156   4.057  4.7598 -1.7131 -3.7495
17585SOL    HW265229   8.685   3.039   4.171 -0.5760  0.3562 -2.0453
17586SOL     OW65230   7.209   5.459   4.272 -0.0317 -0.5243  0.2588
17586SOL    HW165231   7.219   5.477   4.370 -0.3773  0.1509  0.1754
17586SOL    HW265232   7.286   5.499   4.223 -0.1096 -0.4320  0.2106
17587SOL     OW65233   8.600   8.621   6.019  0.3537 -0.2135 -0.0133
17587SOL    HW165234   8.619   8.665   5.931  2.0949 -1.3452 -0.2244
17587SOL    HW265235   8.537   8.677   6.071 -0.2301  0.7741 -1.7410
17588SOL     OW65236   5.908   3.119   7.196 -0.2838  0.2394  0.2202
17588SOL    HW165237   5.900   3.078   7.287  0.3044  1.2888  0.7528
17588SOL    HW265238   5.872   3.212   7.199  2.1633  1.2227  0.0279
17589SOL     OW65239   8.213   1.576   6.566 -0.1331  0.4503 -0.3057
17589SOL    HW165240   8.277   1.558   6.491 -0.0181 -0.4566 -0.0080
17589SOL    HW265241   8.131   1.519   6.554 -0.4955  0.9514 -0.2123
17590SOL     OW65242   1.675   3.583   8.514 -0.4460 -1.1067  1.1868
17590SOL    HW165243   1.589   3.569   8.464  0.0225 -1.1142  0.3739
17590SOL    HW265244   1.715   3.494   8.535 -0.7432 -1.1081  1.7603
17591SOL     OW65245   1.280   6.349   0.488  0.2107 -0.1132  0.5884
17591SOL    HW165246   1.313   6.296   0.410 -2.5707 -0.5093 -0.3982
17591SOL    HW265247   1.328   6.437   0.491  0.1695  0.0281 -1.7762
17592SOL     OW65248   7.605   6.482   2.492 -0.3967 -0.6184  0.5038
17592SOL    HW165249   7.547   6.401   2.494 -0.2660 -0.7198  0.1582
17592SOL    HW265250   7.576   6.545   2.564 -1.5176 -0.2699 -0.2405
17593SOL     OW65251   2.431   1.040   2.825  0.0260 -0.0056 -0.6560
17593SOL    HW165252   2.500   0.973   2.799 -0.2061 -0.0489 -1.1602
17593SOL    HW265253   2.341   1.011   2.791 -0.1828  0.2242 -0.3025
17594SOL     OW65254   5.409   6.627   4.658 -0.3818  0.1169 -0.0988
17594SOL    HW165255   5.496   6.674   4.671 -0.6306  0.3335  0.8557
17594SOL    HW265256   5.365   6.661   4.575 -0.6601  1.7711  0.6904
17595SOL     OW65257   4.120   2.363   7.883 -0.4397 -0.8375  0.1821
17595SOL    HW165258   4.105   2.272   7.844 -0.0343  0.0245 -2.0435
17595SOL    HW265259   4.040   2.420   7.863 -0.0963 -0.2947  0.3746
17596SOL     OW65260   2.606   7.396   7.922  0.0345 -0.1508  0.2549
17596SOL    HW165261   2.606   7.469   7.854  3.6074  1.0851  1.4237
17596SOL    HW265262   2.661   7.319   7.888 -2.2426 -1.6000 -0.2357
17597SOL     OW65263   4.679   4.504   6.093  0.0254  0.6649 -0.0290
17597SOL    HW165264   4.641   4.582   6.141 -1.9975  0.4176 -1.1660
17597SOL    HW265265   4.724   4.443   6.158 -3.7751 -0.3383  1.7971
17598SOL     OW65266   0.959   6.273   2.424 -0.3116 -0.0039 -0.4099
17598SOL    HW165267   0.959   6.202   2.353 -2.2129  0.3975 -0.8518
17598SOL    HW265268   1.017   6.244   2.500  1.8931 -0.3740 -2.1700
17599SOL     OW65269   8.858   1.456   6.819  0.0884 -0.1741 -0.1962
17599SOL    HW165270   8.864   1.501   6.730  1.8357 -1.4718 -0.7579
17599SOL    HW265271   8.825   1.362   6.807 -0.6785 -0.0252  0.6557
17600SOL     OW65272   2.884   5.053   4.896  0.4959 -0.4613  0.0500
17600SOL    HW165273   2.963   5.042   4.956  0.8400  0.6285 -0.2049
17600SOL    HW265274   2.801   5.063   4.952  0.2718 -3.3374  0.3194
17601SOL     OW65275   3.440   8.566   7.990  0.1011  0.0647 -0.4956
17601SOL    HW165276   3.370   8.636   8.010  0.5472  0.3277  0.1754
17601SOL    HW265277   3.412   8.513   7.910 -0.3036  0.9377 -0.9446
17602SOL     OW65278   7.913   0.750   6.841  0.1030 -0.4255 -0.2827
17602SOL    HW165279   7.857   0.784   6.916  1.4575  2.3256 -0.4385
17602SOL    HW265280   7.880   0.789   6.755  1.9591  0.9153 -0.4225
17603SOL     OW65281   8.156   4.019   5.688  0.4689 -0.2803  0.4531
17603SOL    HW165282   8.064   3.982   5.680  0.4834 -0.1133 -0.6416
17603SOL    HW265283   8.161   4.080   5.767 -0.6841  0.6215 -0.1540
17604SOL     OW65284   7.800   5.122   8.179  0.4373  0.0875  0.3235
17604SOL    HW165285   7.889   5.109   8.223  0.2558  0.9746  0.9612
17604SOL    HW265286   7.790   5.217   8.151 -0.3144 -0.0055  0.2567
17605SOL     OW65287   2.771   2.362   7.948 -0.2289  0.3338 -0.2210
17605SOL    HW165288   2.750   2.265   7.956  1.0844  0.1687  1.4008
17605SOL    HW265289   2.822   2.378   7.863 -0.4351 -0.3951 -0.4798
17606SOL     OW65290   4.099   5.051   1.639 -0.1217  0.7168  0.3357
17606SOL    HW165291   4.195   5.057   1.665  0.5754 -0.3249 -1.8573
17606SOL    HW265292   4.067   4.957   1.647 -0.9027  1.0173  0.8566
17607SOL     OW65293   1.605   2.106   0.102  0.0888 -0.0150  0.1735
17607SOL    HW165294   1.538   2.085   0.173 -0.3615  0.7952 -0.0054
17607SOL    HW265295   1.695   2.073   0.131  0.1001  1.1857  1.5908
17608SOL     OW65296   2.181   5.614   7.196  0.3740  0.1774  0.3151
17608SOL    HW165297   2.183   5.514   7.205 -1.8727  0.0678 -0.1158
17608SOL    HW265298   2.118   5.652   7.264 -0.4178  1.1162 -0.9208
17609SOL     OW65299   3.338   2.589   3.957 -0.2319 -0.2247  0.4234
17609SOL    HW165300   3.406   2.631   4.018 -0.3839 -0.8925  1.0624
17609SOL    HW265301   3.280   2.528   4.010 -1.4546  0.4727 -0.0909
17610SOL     OW65302   2.873   5.728   4.781 -0.0636  0.2976 -0.1742
17610SOL    HW165303   2.970   5.736   4.806 -0.3530 -1.7320  1.7741
17610SOL    HW265304   2.817   5.734   4.864 -1.7036  2.7183 -1.4340
17611SOL     OW65305   1.580   6.606   4.161 -0.0596  0.1033  0.2738
17611SOL    HW165306   1.573   6.535   4.091 -2.1386  1.5324 -1.0223
17611SOL    HW265307   1.543   6.571   4.248 -0.1689 -0.7276 -0.1040
17612SOL     OW65308   4.067   7.162   5.462 -0.5230  0.1695 -0.2116
17612SOL    HW165309   4.062   7.115   5.374  3.7951 -2.3117  0.7183
17612SOL    HW265310   4.107   7.253   5.449  1.0250 -0.5647 -0.7748
17613SOL     OW65311   2.021   4.095   3.847  0.3230 -0.0448  0.1888
17613SOL    HW165312   2.070   4.068   3.930  1.0524 -0.0786 -0.2501
17613SOL    HW265313   2.006   4.194   3.848  1.6762  0.1823 -0.3452
17614SOL     OW65314   8.580   4.858   3.484 -0.1380  0.2922  0.2251
17614SOL    HW165315   8.654   4.864   3.417 -0.8246  1.5439 -0.4481
17614SOL    HW265316   8.550   4.763   3.492  0.7120 -0.0349 -0.4211
17615SOL     OW65317   0.375   6.062   1.966 -0.8862 -0.2829 -0.2641
17615SOL    HW165318   0.444   6.025   2.028 -0.2115 -1.8411 -1.8939
17615SOL    HW265319   0.380   6.161   1.966  1.2202 -0.3727 -0.2079
17616SOL     OW65320   1.691   5.063   2.445  0.2066 -0.0048  0.0849
17616SOL    HW165321   1.786   5.093   2.442  0.2129 -0.0114  0.2350
17616SOL    HW265322   1.682   4.974   2.400 -0.2566  1.4301 -2.8280
17617SOL     OW65323   8.188   8.163   0.212 -0.3590  0.1908 -0.0205
17617SOL    HW165324   8.216   8.249   0.256  0.4328 -1.1797  2.2571
17617SOL    HW265325   8.107   8.179   0.157  0.6952  2.7346 -0.9090
17618SOL     OW65326   6.667   8.948   2.985  0.1013  0.6861  0.4783
17618SOL    HW165327   6.692   8.852   2.975  0.1578  0.6913  0.5669
17618SOL    HW265328   6.573   8.955   3.019 -0.3917  0.6806 -0.8599
17619SOL     OW65329   8.251   5.648   2.856 -0.4471  0.3823  0.1480
17619SOL    HW165330   8.277   5.677   2.764 -0.2786  1.4659  0.5341
17619SOL    HW265331   8.158   5.680   2.877 -0.5512 -0.0064  0.2929
17620SOL     OW65332   2.899   7.926   5.716  0.0013 -0.4841  0.1685
17620SOL    HW165333   2.877   7.992   5.787 -0.5393 -0.2428 -0.2189
17620SOL    HW265334   2.942   7.846   5.757 -0.8915 -0.6268  0.8529
17621SOL     OW65335   2.916   5.739   2.118 -0.2855  0.1301 -0.3333
17621SOL    HW165336   2.827   5.705   2.086 -1.3685  1.8599  0.7304
17621SOL    HW265337   2.987   5.714   2.052 -1.4241 -1.9475 -0.8286
17622SOL     OW65338   4.749   8.882   1.138  0.0681  0.7854  0.7151
17622SOL    HW165339   4.834   8.933   1.149  0.7400 -0.3015  0.5980
17622SOL    HW265340   4.744   8.810   1.207 -0.3268  0.2508  0.1335
17623SOL     OW65341   3.237   6.913   5.023  0.3246 -0.3781  0.2420
17623SOL    HW165342   3.255   6.850   5.099 -1.3867 -1.8356 -0.5268
17623SOL    HW265343   3.196   6.997   5.058  1.2686 -0.2689  1.1195
17624SOL     OW65344   4.576   4.945   3.510  0.2959 -0.4229  0.2897
17624SOL    HW165345   4.559   4.872   3.443  2.7607  0.3006 -1.1985
17624SOL    HW265346   4.505   5.015   3.501 -0.4554 -1.2332 -0.2577
17625SOL     OW65347   7.554   5.605   7.157  0.1526 -0.1523  0.3778
17625SOL    HW165348   7.566   5.693   7.203 -0.6739  0.3553 -0.3438
17625SOL    HW265349   7.512   5.540   7.219  1.4389 -0.2727  1.1515
17626SOL     OW65350   4.036   4.407   0.654 -0.1557 -0.4506  0.0381
17626SOL    HW165351   3.939   4.387   0.668 -1.0854  1.6225 -2.9615
17626SOL    HW265352   4.059   4.495   0.696 -0.7641  1.3132 -3.1518
17627SOL     OW65353   8.249   8.087   6.736 -0.5191  0.6833  0.8275
17627SOL    HW165354   8.289   8.167   6.781  2.4729 -0.5774  0.4884
17627SOL    HW265355   8.305   8.007   6.754 -2.5257 -1.0261 -0.2974
17628SOL     OW65356   7.310   0.785   6.901 -0.3453 -0.6668 -0.1678
17628SOL    HW165357   7.320   0.768   6.803 -0.0633  0.4744 -0.3509
17628SOL    HW265358   7.229   0.738   6.935 -0.1940 -1.4343 -0.8540
17629SOL     OW65359   8.325   5.048   6.353  0.8993 -0.2833  0.2469
17629SOL    HW165360   8.330   5.147   6.364 -3.1547  0.1410 -1.1968
17629SOL    HW265361   8.410   5.015   6.309  1.9570  2.6158  0.0287
17630SOL     OW65362   6.608   7.797   1.609  0.6429  0.3093  0.1061
17630SOL    HW165363   6.552   7.794   1.525 -0.0561 -0.3158  0.5831
17630SOL    HW265364   6.654   7.709   1.621  1.8439  0.8614 -0.3443
17631SOL     OW65365   5.557   8.499   1.414  0.7147 -0.0792 -0.1506
17631SOL    HW165366   5.580   8.595   1.395  0.6592  0.0118  0.2520
17631SOL    HW265367   5.480   8.473   1.356  0.0216  0.4473  0.5177
17632SOL     OW65368   8.712   1.605   7.885 -0.0132 -0.2008 -1.3417
17632SOL    HW165369   8.637   1.545   7.855  1.1101 -0.7249 -3.1733
17632SOL    HW265370   8.796   1.578   7.839  1.1232  0.9565  0.0314
17633SOL     OW65371   3.934   0.704   0.433 -0.2639  0.3503  0.2311
17633SOL    HW165372   3.867   0.716   0.359  0.1185  1.6754  0.0848
17633SOL    HW265373   3.919   0.774   0.503  0.9972  0.6949  0.1690
17634SOL     OW65374   3.030   0.134   2.090  0.6516  0.6452 -0.2936
17634SOL    HW165375   3.060   0.216   2.139 -0.0122 -0.1868  1.5867
17634SOL    HW265376   2.973   0.160   2.012 -1.5817  1.9300  1.6944
17635SOL     OW65377   0.339   8.716   0.102  0.6274 -0.3283  0.8926
17635SOL    HW165378   0.396   8.689   0.179  2.3525  0.3725 -0.0990
17635SOL    HW265379   0.394   8.716   0.018 -1.4155 -1.9835 -0.5150
17636SOL     OW65380   0.156   5.488   8.535  0.0483  0.0273 -0.0700
17636SOL    HW165381   0.248   5.457   8.513  0.0432 -1.2154  1.5108
17636SOL    HW265382   0.089   5.438   8.479  0.2316 -0.4631  0.1472
17637SOL     OW65383   2.550   1.389   7.664 -0.1294  0.7919 -0.1816
17637SOL    HW165384   2.478   1.429   7.606 -0.6391 -0.1103 -0.1909
17637SOL    HW265385   2.507   1.338   7.739  0.5054  0.5621  0.0270
17638SOL     OW65386   2.636   7.798   0.885  0.1776 -0.0318  0.4065
17638SOL    HW165387   2.679   7.735   0.950  1.6826  0.6169  0.0663
17638SOL    HW265388   2.583   7.866   0.935 -0.0953 -0.5736  0.8592
17639SOL     OW65389   7.932   3.621   4.814  0.2467  0.2593  0.2745
17639SOL    HW165390   7.839   3.658   4.808  0.3176  0.2093 -1.4388
17639SOL    HW265391   7.990   3.664   4.745  0.9837 -1.1553 -0.0063
17640SOL     OW65392   1.285   4.081   0.597  0.3862  0.0600  0.2921
17640SOL    HW165393   1.318   4.009   0.658  1.1599 -0.1923 -0.4163
17640SOL    HW265394   1.194   4.109   0.625  0.0547 -1.2398  0.5426
17641SOL     OW65395   1.103   1.146   6.083  0.4135 -0.0007 -0.3034
17641SOL    HW165396   1.169   1.210   6.123 -0.6541  0.2119  1.1690
17641SOL    HW265397   1.030   1.198   6.039  0.4473 -0.2263 -0.6237
17642SOL     OW65398   0.095   7.300   0.723 -0.2025 -0.1436  0.2935
17642SOL    HW165399   0.090   7.218   0.666  0.4939  1.3954 -2.0598
17642SOL    HW265400   0.190   7.332   0.727 -0.7562  1.6799 -0.4962
17643SOL     OW65401   8.878   7.938   7.244  0.2865  0.1567 -0.8083
17643SOL    HW165402   8.791   7.971   7.209  0.4597  1.6087  0.1071
17643SOL    HW265403   8.945   7.936   7.170 -0.1267  0.4281 -1.1902
17644SOL     OW65404   8.559   7.949   4.004  0.6161 -0.0276 -0.1590
17644SOL    HW165405   8.638   7.934   4.063  0.2008  0.7087  0.6008
17644SOL    HW265406   8.550   7.873   3.940  3.3180  1.0436 -1.8759
17645SOL     OW65407   2.986   0.665   5.968 -0.2407 -0.3313 -0.4451
17645SOL    HW165408   2.899   0.713   5.974  0.1536  0.2868  0.4493
17645SOL    HW265409   2.997   0.626   5.876 -1.3631 -0.2461 -0.6157
17646SOL     OW65410   8.505   5.958   2.201  0.0260  0.1599 -0.3277
17646SOL    HW165411   8.454   5.874   2.181  1.5101 -0.3534 -2.1273
17646SOL    HW265412   8.463   6.035   2.152  0.8909 -0.2498 -1.7506
17647SOL     OW65413   2.881   2.095   6.804  0.9760 -0.0003 -0.7266
17647SOL    HW165414   2.926   2.050   6.726  1.5839 -0.2943 -0.2079
17647SOL    HW265415   2.868   2.192   6.783  1.2309 -0.0562 -1.1615
17648SOL     OW65416   4.773   6.666   4.863  0.1272 -0.9914  0.1900
17648SOL    HW165417   4.723   6.751   4.847  1.7761  0.2102  1.2135
17648SOL    HW265418   4.726   6.612   4.933  0.7104  0.5333  1.7916
17649SOL     OW65419   3.627   5.672   8.439  0.3513 -1.1160 -0.1947
17649SOL    HW165420   3.675   5.604   8.495  1.5976 -0.0377  0.0560
17649SOL    HW265421   3.541   5.697   8.484  0.6435 -1.3542  0.5036
17650SOL     OW65422   0.019   8.818   5.074 -0.3054  0.0428  0.0659
17650SOL    HW165423   0.014   8.844   4.977  0.5212  2.4498  0.6338
17650SOL    HW265424   0.098   8.862   5.116 -1.3802  0.0358  2.1358
17651SOL     OW65425   4.964   1.369   2.107  0.0577  0.4724 -0.3075
17651SOL    HW165426   5.035   1.390   2.174 -1.5965 -0.5315  1.8364
17651SOL    HW265427   4.988   1.285   2.059  0.9580  0.8655 -0.5625
17652SOL     OW65428   3.739   2.425   2.469  0.0002  0.2505  0.6077
17652SOL    HW165429   3.688   2.495   2.420 -0.9009 -0.2779  0.7887
17652SOL    HW265430   3.701   2.412   2.560  1.5782  1.1182  1.4119
17653SOL     OW65431   7.339   3.200   7.847  0.3614 -0.0016 -0.2337
17653SOL    HW165432   7.410   3.158   7.791  0.7254 -1.4439  1.2544
17653SOL    HW265433   7.382   3.258   7.917  0.1042 -0.8064  0.6111
17654SOL     OW65434   1.256   5.730   5.093 -0.4128 -0.2126 -0.4673
17654SOL    HW165435   1.218   5.702   5.005 -1.1780 -0.1697 -0.1515
17654SOL    HW265436   1.197   5.800   5.134 -0.5697 -0.9107  0.5078
17655SOL     OW65437   5.406   6.305   3.591  0.6721  0.0990  0.3075
17655SOL    HW165438   5.346   6.373   3.632  0.2438 -0.1305  0.0673
17655SOL    HW265439   5.352   6.228   3.558  1.1087 -0.1581  0.1829
17656SOL     OW65440   3.226   3.201   8.042  0.0946 -0.5503  0.2964
17656SOL    HW165441   3.248   3.269   8.111 -1.4219 -0.9541  1.1910
17656SOL    HW265442   3.279   3.219   7.959  1.0399  0.6374  1.1467
17657SOL     OW65443   5.900   5.768   8.619 -0.2600 -0.2612  0.2699
17657SOL    HW165444   5.919   5.866   8.614 -0.1035 -0.2424  1.1429
17657SOL    HW265445   5.983   5.719   8.648 -0.4234 -0.6186  0.1406
17658SOL     OW65446   8.477   3.475   4.422  0.4655 -0.2527  0.2735
17658SOL    HW165447   8.573   3.502   4.412  0.5753 -0.6622  0.2001
17658SOL    HW265448   8.473   3.386   4.467  0.0594  0.7314  2.2756
17659SOL     OW65449   2.877   6.955   0.151  0.1376 -0.2220 -0.0052
17659SOL    HW165450   2.859   7.053   0.153 -0.6598 -0.3420 -0.8046
17659SOL    HW265451   2.828   6.910   0.225 -0.1451 -0.1223 -0.1334
17660SOL     OW65452   3.938   4.258   2.209 -0.2036  0.1395  0.4290
17660SOL    HW165453   3.945   4.177   2.267  1.1369 -1.7400 -2.2650
17660SOL    HW265454   3.843   4.268   2.178 -0.6664  0.4358  1.9195
17661SOL     OW65455   4.173   1.731   5.625 -0.2368  0.7790  0.0574
17661SOL    HW165456   4.128   1.709   5.711  0.6836  0.8272  0.5578
17661SOL    HW265457   4.271   1.747   5.641 -0.0895  0.9633 -0.9635
17662SOL     OW65458   6.394   5.916   7.403  0.1440 -0.2778  0.6057
17662SOL    HW165459   6.368   6.000   7.451 -1.0293  0.3313 -1.0557
17662SOL    HW265460   6.345   5.838   7.442 -2.3475  0.5095 -0.8803
17663SOL     OW65461   6.059   4.549   2.343  0.4701 -0.0493  0.2288
17663SOL    HW165462   6.086   4.599   2.260  0.2289  0.3883  0.4111
17663SOL    HW265463   6.100   4.593   2.423 -1.7817  1.4105  0.6389
17664SOL     OW65464   2.144   2.149   1.462  0.2666 -0.6643  0.6013
17664SOL    HW165465   2.147   2.214   1.538  0.4723  0.2682 -0.2091
17664SOL    HW265466   2.236   2.140   1.423  0.3757 -1.9273  1.1123
17665SOL     OW65467   1.219   0.685   0.489 -0.4529 -0.4381  0.2317
17665SOL    HW165468   1.147   0.721   0.430 -1.4290 -0.7259  1.2343
17665SOL    HW265469   1.182   0.611   0.546  0.1894  0.5732  1.9897
17666SOL     OW65470   0.334   2.393   3.916  0.2549  0.3408  0.3099
17666SOL    HW165471   0.298   2.443   3.995 -0.9545 -0.8902  0.5490
17666SOL    HW265472   0.431   2.414   3.905  0.5374  0.1919  2.3859
17667SOL     OW65473   7.932   3.203   5.267 -0.5815  0.2925 -0.1239
17667SOL    HW165474   7.927   3.217   5.366  0.1315  2.4034 -0.3492
17667SOL    HW265475   8.005   3.260   5.229  1.4552 -3.0573 -1.4580
17668SOL     OW65476   5.292   2.711   5.861  0.5521 -0.5040  0.0354
17668SOL    HW165477   5.314   2.615   5.873 -1.2195 -1.0984 -1.3103
17668SOL    HW265478   5.198   2.729   5.892 -0.4838 -0.0211 -3.1549
17669SOL     OW65479   3.957   7.998   0.246  0.4591 -0.7531 -0.4517
17669SOL    HW165480   4.052   7.978   0.223 -0.1077 -0.9915 -2.7027
17669SOL    HW265481   3.927   8.078   0.194 -0.5964 -0.7115  0.2169
17670SOL     OW65482   1.025   1.422   1.611 -0.0074 -0.5369  0.3398
17670SOL    HW165483   0.951   1.490   1.611  0.9288  0.5091  1.9174
17670SOL    HW265484   1.054   1.404   1.705  1.5192 -1.1693 -0.2424
17671SOL     OW65485   2.464   0.468   1.710 -0.5534 -0.1160  0.1003
17671SOL    HW165486   2.388   0.430   1.763  0.1378  0.3029  1.4016
17671SOL    HW265487   2.532   0.396   1.693  0.8420  0.5396  2.7209
17672SOL     OW65488   1.596   7.657   8.670 -0.2449  0.0428 -0.0211
17672SOL    HW165489   1.567   7.603   8.591  0.8037 -0.3089 -0.1728
17672SOL    HW265490   1.534   7.640   8.746  0.1077 -1.4329 -0.0457
17673SOL     OW65491   7.045   2.829   6.748  0.2415  0.1626 -0.5631
17673SOL    HW165492   7.109   2.877   6.808 -3.1947  3.0028  1.0383
17673SOL    HW265493   6.991   2.765   6.802  0.0420 -0.4043 -1.4294
17674SOL     OW65494   6.815   5.733   4.758  0.0102 -0.4291  0.5540
17674SOL    HW165495   6.738   5.710   4.697  2.1984 -2.7829 -1.4502
17674SOL    HW265496   6.819   5.666   4.832  0.5294 -0.7346  0.2539
17675SOL     OW65497   7.916   7.795   0.913  0.2344  0.2743 -0.0998
17675SOL    HW165498   7.952   7.715   0.864  0.6979 -0.1876  0.9545
17675SOL    HW265499   7.879   7.861   0.848  0.1003 -0.6811 -1.0040
17676SOL     OW65500   7.316   8.376   7.993 -0.0782 -0.4908 -0.2506
17676SOL    HW165501   7.365   8.451   7.948  0.9698 -0.0221  1.6228
17676SOL    HW265502   7.225   8.366   7.952  1.6300 -1.5851 -4.0035
17677SOL     OW65503   7.966   2.249   1.369 -0.3843 -0.6310 -0.6888
17677SOL    HW165504   8.036   2.213   1.431 -0.7560 -1.5850 -0.8131
17677SOL    HW265505   7.893   2.181   1.359  0.1046 -0.8749 -2.8903
17678SOL     OW65506   7.024   8.847   0.868  0.2346 -0.3829  0.0371
17678SOL    HW165507   7.089   8.822   0.940  0.4411 -1.3875 -0.4795
17678SOL    HW265508   7.024   8.946   0.855  2.4690 -0.4457 -0.6742
17679SOL     OW65509   2.448   1.517   7.350 -0.0844 -0.2333 -0.1471
17679SOL    HW165510   2.414   1.587   7.413 -1.2325 -0.9312  0.0338
17679SOL    HW265511   2.509   1.559   7.283  0.6938  0.6195  1.0742
17680SOL     OW65512   8.068   4.917   2.482 -0.0833  0.2654  0.0464
17680SOL    HW165513   7.981   4.928   2.529 -0.0306  3.4467 -0.5171
17680SOL    HW265514   8.065   4.834   2.426 -4.3140  2.3713 -3.1495
17681SOL     OW65515   0.963   3.852   5.993 -0.8046  0.1158 -0.1379
17681SOL    HW165516   0.912   3.907   5.927 -3.0414  0.6302  1.9705
17681SOL    HW265517   1.037   3.907   6.032 -0.9919  0.5664 -0.4150
17682SOL     OW65518   4.109   8.899   1.168 -0.3258  0.2595  0.1615
17682SOL    HW165519   4.199   8.943   1.176 -1.3776  2.3360  1.1948
17682SOL    HW265520   4.087   8.883   1.072 -0.1320  2.5703 -0.2970
17683SOL     OW65521   8.281   6.138   0.483 -0.4013 -0.3950 -0.4015
17683SOL    HW165522   8.280   6.123   0.581 -2.5756  0.1900 -0.3090
17683SOL    HW265523   8.298   6.235   0.463 -1.4955 -0.2228 -0.5393
17684SOL     OW65524   6.015   5.841   6.829  0.6120  0.6262  0.2389
17684SOL    HW165525   6.021   5.781   6.909 -0.6885 -2.3808 -1.8634
17684SOL    HW265526   6.086   5.815   6.763 -0.2043  1.1623 -0.8550
17685SOL     OW65527   2.857   2.997   6.265 -0.4978 -0.4240 -0.3094
17685SOL    HW165528   2.856   2.897   6.261 -1.7078 -0.3721 -1.9009
17685SOL    HW265529   2.901   3.027   6.350 -0.8871 -2.3192  0.5863
17686SOL     OW65530   0.273   4.240   6.162 -0.2385  0.2758 -0.5601
17686SOL    HW165531   0.309   4.247   6.255 -2.2490  3.1910  0.0685
17686SOL    HW265532   0.333   4.289   6.099  1.1880 -1.7982 -0.8614
17687SOL     OW65533   1.347   4.162   8.307 -0.1928 -0.7690 -0.2143
17687SOL    HW165534   1.350   4.261   8.295 -0.8882 -0.8623 -1.2350
17687SOL    HW265535   1.432   4.122   8.274  0.0677 -0.5179  0.1518
17688SOL     OW65536   7.548   6.017   8.243  0.2914 -0.0730  0.1052
17688SOL    HW165537   7.481   5.958   8.288 -0.3279  0.2288 -0.4190
17688SOL    HW265538   7.574   6.092   8.304 -2.5458  1.8678 -0.9992
17689SOL     OW65539   5.993   8.828   3.033  0.3308  0.6572  0.5889
17689SOL    HW165540   5.986   8.910   3.089 -2.6684  0.5951  0.4176
17689SOL    HW265541   5.916   8.825   2.969 -0.1729 -2.7370  1.2244
17690SOL     OW65542   3.498   5.608   5.921  0.3509 -0.6409  0.5662
17690SOL    HW165543   3.594   5.593   5.944  1.2204  0.3205 -2.1868
17690SOL    HW265544   3.469   5.539   5.854  0.0863  0.9236 -0.9867
17691SOL     OW65545   0.760   1.658   4.412 -0.3556  0.1265 -0.4853
17691SOL    HW165546   0.784   1.596   4.487  0.9758  2.6823  1.2529
17691SOL    HW265547   0.814   1.634   4.331 -0.7377 -1.7249 -0.2216
17692SOL     OW65548   2.094   0.853   3.304  0.4621 -0.3971  0.6313
17692SOL    HW165549   2.102   0.949   3.332  1.4512 -0.5915  1.0152
17692SOL    HW265550   2.112   0.794   3.382 -1.3954 -0.9012  0.7136
17693SOL     OW65551   6.326   2.578   1.732  0.0589  0.2714  1.0646
17693SOL    HW165552   6.395   2.505   1.732 -1.1987 -0.9452  0.0518
17693SOL    HW265553   6.353   2.650   1.669 -0.3045 -0.9050 -0.4629
17694SOL     OW65554   7.400   2.899   0.883  0.3808 -0.2455 -0.1813
17694SOL    HW165555   7.486   2.847   0.883  0.3933 -0.2248 -0.1347
17694SOL    HW265556   7.410   2.980   0.825 -0.1501 -1.1336 -1.5423
17695SOL     OW65557   7.165   2.179   0.374  0.3207 -0.3173 -0.8218
17695SOL    HW165558   7.220   2.259   0.348 -0.6474  0.8335  0.5663
17695SOL    HW265559   7.125   2.138   0.292  1.3420  0.2301 -1.6128
17696SOL     OW65560   0.946   8.565   4.297 -0.3588  0.6340 -0.3654
17696SOL    HW165561   0.921   8.489   4.236  0.7229 -0.2733  0.2965
17696SOL    HW265562   1.041   8.554   4.326 -0.3458  1.9950  0.1290
17697SOL     OW65563   2.678   0.149   6.362 -0.1225  0.2836  1.0367
17697SOL    HW165564   2.751   0.081   6.360 -0.7536 -0.3885  0.6285
17697SOL    HW265565   2.606   0.123   6.297  0.1510  1.9157  0.0389
17698SOL     OW65566   8.036   8.698   0.256 -0.7593  0.5497  0.3483
17698SOL    HW165567   7.996   8.689   0.165 -0.0234  1.1926 -0.0527
17698SOL    HW265568   7.965   8.715   0.323 -1.6670 -2.9003  0.3786
17699SOL     OW65569   1.865   1.926   2.779  0.0264  0.3424  0.9011
17699SOL    HW165570   1.924   1.979   2.839  0.8915  0.5942 -0.1518
17699SOL    HW265571   1.779   1.974   2.765  0.9235  1.6414 -0.2859
17700SOL     OW65572   3.810   3.863   2.508  0.0423 -0.1090  0.1391
17700SOL    HW165573   3.837   3.775   2.546  0.8586 -0.2798 -0.7992
17700SOL    HW265574   3.713   3.861   2.485  0.3449 -1.2460 -1.1375
17701SOL     OW65575   7.239   3.680   0.765 -0.2900 -0.0427 -0.3070
17701SOL    HW165576   7.317   3.742   0.779  1.0204 -1.1374 -2.3595
17701SOL    HW265577   7.158   3.718   0.808  1.5448  0.7478  2.6267
17702SOL     OW65578   0.550   2.111   8.732 -0.1468 -0.3943 -0.1780
17702SOL    HW165579   0.582   2.201   8.700 -1.4780  0.2734  0.3309
17702SOL    HW265580   0.514   2.120   8.825  0.5174 -1.6373  0.2136
17703SOL     OW65581   2.744   4.276   2.911 -0.8368  0.0687  0.0711
17703SOL    HW165582   2.663   4.319   2.951 -0.7828  2.1854 -1.9669
17703SOL    HW265583   2.754   4.307   2.816  2.2428 -0.3005  0.2380
17704SOL     OW65584   2.194   8.308   6.451 -0.3673  0.0980  0.1695
17704SOL    HW165585   2.286   8.302   6.413  0.4172  0.9045  1.8852
17704SOL    HW265586   2.128   8.266   6.388  1.2229 -0.8277 -0.8896
17705SOL     OW65587   8.863   7.349   1.063  0.0795 -0.6435  0.5955
17705SOL    HW165588   8.786   7.305   1.109 -0.6501  1.6796  1.6658
17705SOL    HW265589   8.834   7.380   0.973 -0.2517  0.2410  1.0029
17706SOL     OW65590   8.177   7.901   5.420 -0.7203 -0.3384 -0.3342
17706SOL    HW165591   8.110   7.831   5.447 -1.1568 -0.3663 -1.4630
17706SOL    HW265592   8.269   7.868   5.440 -0.9691 -0.8427  0.0073
17707SOL     OW65593   7.772   2.931   1.448  0.1167  0.1381  0.0812
17707SOL    HW165594   7.744   2.867   1.376 -0.0528 -0.1524  0.4017
17707SOL    HW265595   7.817   2.880   1.522  2.2786  0.6924 -0.8060
17708SOL     OW65596   0.491   1.793   0.157 -0.3030  0.0141  0.2427
17708SOL    HW165597   0.406   1.746   0.133 -0.0918  0.1425 -0.8039
17708SOL    HW265598   0.556   1.729   0.198  0.3511 -0.8405 -2.0681
17709SOL     OW65599   8.288   5.895   8.829 -0.0549  0.0675 -0.1482
17709SOL    HW165600   8.264   5.983   8.870  0.7394  0.4804 -0.5610
17709SOL    HW265601   8.210   5.860   8.777  0.0767  1.1845 -1.1232
17710SOL     OW65602   3.430   7.764   7.059  0.4121 -0.4808  0.2112
17710SOL    HW165603   3.343   7.813   7.063 -0.3652 -1.7074 -1.2577
17710SOL    HW265604   3.497   7.819   7.009  0.2614  0.1399  0.6852
17711SOL     OW65605   1.773   7.101   3.575  0.2383 -0.1299  0.8460
17711SOL    HW165606   1.696   7.152   3.537  1.0224 -0.8125 -1.7453
17711SOL    HW265607   1.848   7.164   3.597  0.6948  0.0062 -1.0640
17712SOL     OW65608   7.995   4.375   5.863  0.5096  0.4621 -0.4983
17712SOL    HW165609   8.011   4.333   5.774 -0.0916 -0.7654 -0.0411
17712SOL    HW265610   7.899   4.403   5.869  0.0156 -1.3565  0.5239
17713SOL     OW65611   0.288   1.370   1.119 -0.5956 -0.1882  0.0680
17713SOL    HW165612   0.250   1.376   1.211  0.0642 -0.4881  0.3614
17713SOL    HW265613   0.316   1.461   1.088  0.3003 -0.2544  0.6458
17714SOL     OW65614   7.259   7.983   7.329  0.0766 -0.2317  0.3201
17714SOL    HW165615   7.231   7.892   7.301  1.0557  0.2579 -2.4255
17714SOL    HW265616   7.184   8.048   7.313 -0.1198 -0.3043  0.9243
17715SOL     OW65617   6.191   7.167   7.217  0.2235  0.2467 -0.0632
17715SOL    HW165618   6.243   7.084   7.201  0.5932  0.2494  1.1173
17715SOL    HW265619   6.113   7.170   7.154 -0.5480 -1.6227  0.7821
17716SOL     OW65620   4.039   0.539   2.527  0.0032  0.4273 -0.1929
17716SOL    HW165621   3.984   0.613   2.566  0.9276  0.5372  0.9269
17716SOL    HW265622   4.005   0.451   2.560  1.9423  0.5965  2.4561
17717SOL     OW65623   8.456   7.668   0.743 -0.1792 -0.7736  0.1655
17717SOL    HW165624   8.451   7.587   0.803  1.1540  1.0431  2.8420
17717SOL    HW265625   8.515   7.647   0.665  0.0903 -2.4335  0.7722
17718SOL     OW65626   3.829   3.197   2.979 -0.0587 -0.7000  0.5471
17718SOL    HW165627   3.900   3.259   3.013  0.6933 -0.1279 -1.9801
17718SOL    HW265628   3.817   3.122   3.044  3.1554 -1.0377  0.8149
17719SOL     OW65629   2.709   7.127   7.819 -0.2967  0.8323 -0.3515
17719SOL    HW165630   2.740   7.053   7.760 -0.0850  1.1969 -0.6964
17719SOL    HW265631   2.787   7.181   7.850 -0.1677 -0.6118  1.9626
17720SOL     OW65632   0.815   0.259   3.886 -0.0281  0.1499  0.1128
17720SOL    HW165633   0.789   0.275   3.791 -0.3348  0.6476  0.2817
17720SOL    HW265634   0.912   0.280   3.897  0.0088  0.0911 -0.0890
17721SOL     OW65635   4.178   1.876   7.332  0.3488 -0.2593 -0.1611
17721SOL    HW165636   4.164   1.904   7.238 -0.8666 -0.5769 -0.0813
17721SOL    HW265637   4.226   1.948   7.382 -1.4073  1.0680 -0.3411
17722SOL     OW65638   0.562   3.430   3.149  0.5151 -0.2289  0.4849
17722SOL    HW165639   0.580   3.518   3.194 -0.4949 -0.3177  1.0710
17722SOL    HW265640   0.527   3.365   3.216 -2.0177 -0.0493 -0.6013
17723SOL     OW65641   2.074   6.670   3.846  0.6745 -0.4591 -0.1135
17723SOL    HW165642   2.054   6.747   3.906 -0.2692 -0.4327 -0.4542
17723SOL    HW265643   1.995   6.609   3.842  0.6344 -0.3362 -1.5140
17724SOL     OW65644   0.804   3.981   2.833 -0.5027  0.4050 -0.0423
17724SOL    HW165645   0.817   4.034   2.749  0.3194 -2.1671 -1.6034
17724SOL    HW265646   0.715   3.936   2.830 -0.5576  0.4713  0.5833
17725SOL     OW65647   4.884   0.914   6.138 -0.2511  0.3885 -0.2266
17725SOL    HW165648   4.890   0.849   6.214 -0.5241 -1.2980 -1.6012
17725SOL    HW265649   4.968   0.908   6.084 -0.0006  1.6741  0.0236
17726SOL     OW65650   3.103   2.347   6.593 -0.3588 -0.1975 -0.2750
17726SOL    HW165651   3.005   2.339   6.577 -0.7982  2.6571  0.7111
17726SOL    HW265652   3.121   2.352   6.691  0.6700  0.5410 -0.4974
17727SOL     OW65653   6.639   5.822   2.056 -0.1267  0.5648  0.7170
17727SOL    HW165654   6.574   5.748   2.071 -0.8351  1.5277  2.6338
17727SOL    HW265655   6.628   5.858   1.963 -4.9635  3.1124  2.0959
17728SOL     OW65656   2.767   5.008   0.074 -0.4728 -0.5768 -0.8137
17728SOL    HW165657   2.820   4.923   0.081 -0.5143 -0.4697  1.0260
17728SOL    HW265658   2.672   4.986   0.052 -0.0680 -0.8784 -2.3093
17729SOL     OW65659   5.348   3.274   1.174  0.0593  0.5809 -0.2525
17729SOL    HW165660   5.251   3.257   1.188  0.2704  0.3806  0.9708
17729SOL    HW265661   5.400   3.191   1.195  0.5382  0.8472 -0.3792
17730SOL     OW65662   5.879   8.054   6.281 -0.2993  0.4129 -0.2152
17730SOL    HW165663   5.924   8.013   6.202  0.3120  1.7083 -0.5508
17730SOL    HW265664   5.876   8.153   6.271 -1.7575  0.4723  0.5906
17731SOL     OW65665   7.797   3.378   4.912  0.5747 -0.2566 -0.1319
17731SOL    HW165666   7.714   3.431   4.894  0.0877 -0.5901  1.0754
17731SOL    HW265667   7.877   3.438   4.908  0.1498  0.3086 -0.0725
17732SOL     OW65668   1.218   4.267   4.705 -0.1192 -0.2061 -0.2637
17732SOL    HW165669   1.172   4.182   4.730  0.2413 -0.8530 -1.7269
17732SOL    HW265670   1.298   4.280   4.764 -3.2720  2.0700  3.8141
17733SOL     OW65671   1.561   8.450   7.380  0.5727 -0.3239  1.1255
17733SOL    HW165672   1.636   8.478   7.320  1.1508  0.8094  2.3403
17733SOL    HW265673   1.483   8.510   7.365  0.5044 -0.4276  1.0690
17734SOL     OW65674   5.726   4.477   7.820 -0.2332  0.2633  0.2437
17734SOL    HW165675   5.742   4.419   7.900 -0.0585  0.9606  0.7196
17734SOL    HW265676   5.638   4.523   7.830 -0.7189 -0.4933 -0.4899
17735SOL     OW65677   8.047   5.382   6.849  0.2137  0.1020  0.1162
17735SOL    HW165678   8.108   5.336   6.784 -0.8834 -1.8737  0.4335
17735SOL    HW265679   7.982   5.438   6.799  1.0431  0.6765 -0.3319
17736SOL     OW65680   5.686   4.695   4.611  0.0558 -0.3288  0.0548
17736SOL    HW165681   5.758   4.662   4.550 -0.8891  0.9436 -1.7961
17736SOL    HW265682   5.605   4.638   4.601 -0.2715  0.1868 -0.2646
17737SOL     OW65683   3.071   1.675   5.498  0.3154  0.3467 -0.6844
17737SOL    HW165684   2.982   1.719   5.483 -0.1668 -0.6332 -0.8067
17737SOL    HW265685   3.057   1.576   5.509  1.2595  0.3311  0.5243
17738SOL     OW65686   8.822   0.867   5.679 -0.0490 -0.0749  0.0567
17738SOL    HW165687   8.809   0.793   5.744  1.7695 -1.0013 -0.6094
17738SOL    HW265688   8.800   0.954   5.724  4.2525 -0.3348  3.0150
17739SOL     OW65689   2.946   0.254   1.047  0.4406  0.4416 -0.1230
17739SOL    HW165690   2.890   0.185   1.001  1.4368  1.0373 -2.2567
17739SOL    HW265691   2.897   0.341   1.050 -0.7594 -0.2697  2.4485
17740SOL     OW65692   2.037   3.812   3.330 -0.3383 -0.0834 -0.5600
17740SOL    HW165693   2.034   3.902   3.286 -1.9477 -0.5274 -1.3853
17740SOL    HW265694   2.132   3.787   3.347  0.1687  1.3935 -1.1124
17741SOL     OW65695   0.220   0.553   7.173  0.7367  0.6682  0.2980
17741SOL    HW165696   0.170   0.511   7.097 -0.5183 -0.7885  1.8910
17741SOL    HW265697   0.269   0.634   7.140  0.8508 -0.3668 -2.2290
17742SOL     OW65698   7.894   2.827   3.461 -0.4669  0.4613  0.0546
17742SOL    HW165699   7.940   2.916   3.470  0.0697  0.3334 -1.2778
17742SOL    HW265700   7.810   2.839   3.408 -0.0923  0.0709 -0.6233
17743SOL     OW65701   3.745   4.936   3.325  0.4471 -0.5527  0.5142
17743SOL    HW165702   3.765   5.030   3.353 -0.0315 -0.4308  0.4491
17743SOL    HW265703   3.704   4.887   3.401 -0.6639 -0.2813  0.1083
17744SOL     OW65704   5.813   2.790   7.171  0.3826  0.8084  0.0755
17744SOL    HW165705   5.834   2.784   7.268 -0.7544  1.8207  0.3932
17744SOL    HW265706   5.892   2.759   7.118 -0.1528 -2.9526  1.3437
17745SOL     OW65707   4.791   1.740   5.943 -0.2200  0.1600  0.5876
17745SOL    HW165708   4.780   1.661   5.883 -2.0537  1.1102 -0.3527
17745SOL    HW265709   4.769   1.715   6.037 -2.9440  0.0708 -0.0489
17746SOL     OW65710   6.108   5.850   5.223 -0.1077 -0.3901  0.1875
17746SOL    HW165711   6.165   5.769   5.216 -0.5046 -0.8926  2.3934
17746SOL    HW265712   6.012   5.825   5.209 -0.4822 -0.7477  3.0138
17747SOL     OW65713   7.733   4.482   8.737 -0.1536  0.6618 -0.5458
17747SOL    HW165714   7.659   4.542   8.769  1.1198  2.2321 -0.4706
17747SOL    HW265715   7.763   4.424   8.812  0.0411  1.4436 -0.0067
17748SOL     OW65716   3.100   2.102   5.433  0.4981 -0.3337  0.6796
17748SOL    HW165717   3.010   2.129   5.399  0.9684  0.6052  0.1500
17748SOL    HW265718   3.095   2.085   5.531 -0.5337 -1.5441  0.4339
17749SOL     OW65719   5.293   6.335   6.993  0.9648 -0.0563  0.2437
17749SOL    HW165720   5.224   6.401   6.967  2.7649  1.8836  0.2689
17749SOL    HW265721   5.311   6.273   6.917 -0.1114  0.0221 -0.0791
17750SOL     OW65722   8.959   3.005   4.024  0.5756  0.2032  0.0111
17750SOL    HW165723   8.877   3.021   4.078  1.2436 -0.0485  1.1237
17750SOL    HW265724   8.966   3.074   3.952  0.3194  1.2827  1.0134
17751SOL     OW65725   3.094   7.884   5.324  0.0228  0.0880 -0.9393
17751SOL    HW165726   3.156   7.923   5.256  0.4140  0.4469 -0.3877
17751SOL    HW265727   3.000   7.886   5.289 -0.0006  1.7600 -0.8415
17752SOL     OW65728   1.064   4.940   4.329 -0.4532  0.1523  0.2129
17752SOL    HW165729   1.124   5.009   4.369 -0.8787  0.2000  0.7739
17752SOL    HW265730   1.074   4.941   4.229 -0.1032  0.6950  0.2506
17753SOL     OW65731   4.288   5.391   8.175  0.0302 -0.3143 -0.2428
17753SOL    HW165732   4.195   5.425   8.158 -0.5657 -1.2699  1.0727
17753SOL    HW265733   4.292   5.294   8.152  0.2792 -0.6534  1.2104
17754SOL     OW65734   7.667   6.244   7.340 -0.0152 -0.5751  0.3378
17754SOL    HW165735   7.727   6.212   7.413  0.8562  0.6008  0.1588
17754SOL    HW265736   7.571   6.238   7.370  0.3641  0.4910  1.8423
17755SOL     OW65737   1.115   7.845   3.967  0.0741  0.4445  0.1499
17755SOL    HW165738   1.114   7.745   3.976 -0.3019  0.7603  4.7427
17755SOL    HW265739   1.023   7.880   3.980  0.4948  1.5363  0.1969
17756SOL     OW65740   4.355   8.425   7.176 -0.1503  0.2509 -0.2110
17756SOL    HW165741   4.279   8.463   7.230  0.5494  0.2889  0.7663
17756SOL    HW265742   4.323   8.347   7.124 -1.3850  1.5838 -1.4880
17757SOL     OW65743   4.314   1.154   8.094 -0.1176 -0.2429 -0.5224
17757SOL    HW165744   4.391   1.201   8.137 -0.1118  0.5994 -1.4344
17757SOL    HW265745   4.348   1.092   8.023 -0.2949  0.3146 -1.0949
17758SOL     OW65746   2.563   7.637   6.501 -0.8280 -0.4906  0.3983
17758SOL    HW165747   2.539   7.587   6.585 -2.2861 -0.8101 -0.2040
17758SOL    HW265748   2.553   7.735   6.517  0.2934 -0.4671  1.0285
17759SOL     OW65749   7.715   5.229   7.445 -0.3562  0.4871 -0.3931
17759SOL    HW165750   7.786   5.224   7.375  0.2726 -1.2344  0.3395
17759SOL    HW265751   7.712   5.322   7.483  0.1952  1.0737 -1.7506
17760SOL     OW65752   1.526   2.963   6.450  0.1590 -0.1473 -0.3095
17760SOL    HW165753   1.480   2.907   6.518 -0.4534  0.7566  0.0414
17760SOL    HW265754   1.463   2.981   6.374  1.1884 -2.0412 -1.6363
17761SOL     OW65755   5.813   6.592   4.643  0.0524  0.2778  0.2645
17761SOL    HW165756   5.773   6.501   4.636  0.6542 -0.0079  0.5298
17761SOL    HW265757   5.751   6.652   4.694  0.1981 -0.2998  1.1274
17762SOL     OW65758   6.793   8.957   6.835  0.3097  0.1243  0.2917
17762SOL    HW165759   6.752   8.872   6.802  0.4775 -0.2996  1.1540
17762SOL    HW265760   6.882   8.938   6.875 -0.1272  0.5290  1.4930
17763SOL     OW65761   1.733   2.021   7.681 -0.2477 -0.2423 -0.4086
17763SOL    HW165762   1.735   2.119   7.696 -1.4375 -0.0848 -1.1575
17763SOL    HW265763   1.644   1.984   7.710  0.2014 -1.0961 -0.0895
17764SOL     OW65764   2.429   4.420   6.130 -0.2977 -0.3998 -0.0559
17764SOL    HW165765   2.396   4.454   6.042 -3.0242 -1.1570  0.6081
17764SOL    HW265766   2.375   4.462   6.204  1.5209 -0.2608  1.2320
17765SOL     OW65767   3.527   2.030   7.739  0.2095 -0.7798 -0.4615
17765SOL    HW165768   3.612   2.003   7.783 -1.2793  0.1476  3.1698
17765SOL    HW265769   3.531   2.126   7.712  0.2345 -0.6577 -0.0300
   9.00000   9.00000   8.89463
