PEG-PVA Film  in water:acetone
65769
    1PEG1   HO1    1   7.452   1.186   5.644  0.7480  0.1114 -0.5892
    1PEG1   O92    2   7.409   1.240   5.581  0.5577  0.8321  0.1542
    1PEG1   C13    3   7.459   1.370   5.581 -0.4895 -0.2134 -0.4818
    1PEG1   C14    4   7.456   1.438   5.435 -1.0121  0.6784 -0.6292
    1PEG1    O8    5   7.434   1.573   5.449 -0.3376  0.0080  0.0919
    1PEG1   C15    6   7.512   1.631   5.352 -0.5546 -0.2851  0.0216
    1PEG1   C16    7   7.413   1.713   5.260  0.0584  0.4501  0.7843
    1PEG1   C17    8   7.496   1.824   5.207  0.1012  0.0692  0.1517
    1PEG1    O9    9   7.516   1.797   5.087  0.2625 -0.2165 -0.3673
    1PEG1   C18   10   7.588   1.891   5.008 -0.2165 -0.0071 -0.4160
    1PEG1   C19   11   7.494   1.973   4.917 -0.5239 -1.1417 -0.5385
    1PEG1   O10   12   7.463   2.099   4.977 -0.3659  0.1030  0.1007
    1PEG1   C20   13   7.345   2.146   4.915  0.2696  0.1936  0.2412
    1PEG1   C21   14   7.272   2.231   5.024  0.4110 -0.0794 -0.2327
    1PEG1   O11   15   7.156   2.284   4.976  0.3596  0.0755 -0.2682
    1PEG1   C22   16   7.108   2.373   5.076  0.5705 -0.4035 -0.4655
    1PEG1   C23   17   6.957   2.386   5.059 -0.7223 -0.8666 -0.0221
    1PEG1   O12   18   6.897   2.257   5.034  0.3108 -0.2366 -0.0543
    1PEG1   C24   19   6.762   2.259   4.989 -0.5382 -0.1636  0.3153
    1PEG1   C25   20   6.689   2.176   5.098  0.5448 -0.8163  0.6825
    1PEG1   O13   21   6.582   2.120   5.060 -0.0002 -0.9492 -0.0788
    1PEG1   C26   22   6.502   2.099   5.176  0.5673  0.7587 -0.0708
    1PEG1   C27   23   6.413   1.975   5.179  0.1426  0.2008  0.2376
    1PEG1   O14   24   6.281   2.026   5.179 -0.1723 -0.4165 -0.0302
    1PEG1   C28   25   6.183   1.938   5.121 -0.1308  0.0339  0.2855
    1PEG1   C29   26   6.132   1.966   4.977 -0.0243  0.4074 -0.6289
    1PEG1   O15   27   6.199   2.077   4.907 -0.1248  0.4674  0.5794
    1PEG1   C30   28   6.261   2.033   4.792  0.9714  0.2609  0.0297
    1PEG1   C31   29   6.392   1.958   4.823 -0.3090  0.0982 -0.2156
    1PEG1   O16   30   6.454   1.926   4.697 -0.2523  0.2783  0.0269
    1PEG1   C32   31   6.593   1.966   4.682 -0.1139  0.0811  0.1162
    1PEG1   C33   32   6.685   1.842   4.704  0.4695  0.2691  0.0069
    1PEG1   O17   33   6.682   1.790   4.838 -0.2250  0.3006  0.1569
    1PEG1   C34   34   6.800   1.805   4.913 -0.0043  0.5705  0.4339
    1PEG1   C35   35   6.915   1.881   4.845  0.1301  0.0244  0.0114
    1PEG1   O18   36   6.974   1.782   4.765 -0.1632  0.2025  0.0697
    1PEG1   C36   37   7.006   1.832   4.635 -0.3611  0.0744  0.4750
    1PEG1   C37   38   7.154   1.904   4.664 -0.0564 -0.5186  0.8291
    1PEG1   O19   39   7.245   1.853   4.569  0.8623 -0.4605 -0.6615
    1PEG1   C38   40   7.353   1.945   4.542  0.4695  0.6283  0.3306
    1PEG1   C39   41   7.473   1.874   4.480 -0.5450  0.2647  0.0846
    1PEG1   O20   42   7.545   1.835   4.595 -0.0180 -0.6959 -0.8069
    1PEG1   C40   43   7.688   1.840   4.584  0.6831  0.3730 -0.3944
    1PEG1   C41   44   7.754   1.904   4.705  0.5320  0.1161 -0.0765
    1PEG1   O21   45   7.872   1.839   4.735  0.1590  0.0960 -0.4733
    1PEG1   C42   46   7.932   1.902   4.839  0.7642  0.4001 -0.2760
    1PEG1   C43   47   8.003   1.801   4.924 -0.3091 -0.3657  0.0937
    1PEG1   O22   48   8.004   1.845   5.063 -0.2621 -0.2461  0.4560
    1PEG1   C44   49   7.934   1.756   5.145 -0.0671 -0.6476  0.7245
    1PEG1   C45   50   7.954   1.794   5.295  0.2245  0.2308  0.1160
    1PEG1   O23   51   7.853   1.744   5.378 -0.2087  0.1082 -0.1324
    1PEG1   C46   52   7.894   1.721   5.510  0.2113 -0.4649  0.0458
    1PEG1   C47   53   7.847   1.588   5.553 -0.6150 -0.5007  0.0188
    1PEG1   O24   54   7.714   1.593   5.615 -0.4281  0.3577 -0.5356
    1PEG1   C48   55   7.734   1.570   5.754 -0.0736 -0.0372 -0.4187
    1PEG1   C49   56   7.593   1.595   5.818  1.0978 -0.6377  0.2066
    1PEG1   O25   57   7.592   1.637   5.941  0.5365  0.2000  0.1562
    1PEG1   C50   58   7.561   1.782   5.934 -0.2129  0.6472 -0.0936
    1PEG1   C51   59   7.423   1.808   6.011  0.7659  0.2383  0.5393
    1PEG1   O26   60   7.358   1.925   5.960  0.1010  0.6451 -0.0504
    1PEG1   C52   61   7.218   1.929   5.986 -0.1507  0.6020  0.5404
    1PEG1   C53   62   7.150   2.055   5.922 -0.3468  0.1021 -0.9376
    1PEG1   O27   63   7.028   2.011   5.866 -0.1921  0.6677  0.0495
    1PEG1   C54   64   6.945   2.126   5.839  0.0566 -0.5295 -0.8370
    1PEG1   C55   65   6.963   2.198   5.701 -0.5707  0.1214  0.4294
    1PEG1   O28   66   7.034   2.115   5.599  0.0047  0.5463  0.0767
    1PEG1   C56   67   7.075   2.193   5.487  0.3067  0.4018 -0.1660
    1PEG1   C57   68   7.135   2.109   5.378  0.0855  0.8477  0.2559
    1PEG1   O29   69   7.069   2.110   5.250 -0.7037  0.4180  0.0823
    1PEG1   C58   70   7.052   1.977   5.209  0.8052  0.0940  0.1912
    1PEG1   C59   71   6.934   1.899   5.274  0.4196 -0.7808 -0.4469
    1PEG1   O30   72   6.831   1.992   5.304  0.2418 -0.6545 -0.8558
    1PEG1   C60   73   6.712   1.917   5.344 -0.2431  0.0398  0.0820
    1PEG1   C61   74   6.688   1.935   5.488  0.0013  0.5866  0.0407
    1PEG1   O31   75   6.796   1.885   5.576 -0.0827  0.6011 -0.0848
    1PEG1   C62   76   6.749   1.807   5.680 -0.0791 -0.4145 -0.8674
    1PEG1   C63   77   6.770   1.660   5.637 -0.3643  0.6704 -0.5572
    1PEG1   O32   78   6.646   1.608   5.594  0.4452 -0.3452  0.0591
    1PEG1   C64   79   6.681   1.479   5.535  0.0439 -0.0327 -0.5436
    1PEG1   C65   80   6.648   1.470   5.385 -0.1535  0.0885 -0.8055
    1PEG1   O33   81   6.766   1.479   5.324  0.2435  0.2822  0.2125
    1PEG1   C66   82   6.764   1.565   5.186  1.0458  0.3849 -0.0286
    1PEG1   C67   83   6.889   1.556   5.106  0.1403 -0.0464 -0.0251
    1PEG1   O34   84   7.000   1.570   5.191  0.0548  0.4213  0.3158
    1PEG1   C68   85   7.129   1.562   5.113 -0.2655 -0.0777  0.2743
    1PEG1   C69   86   7.147   1.493   4.976 -0.8999 -0.5574 -0.0633
    1PEG1   O35   87   7.272   1.546   4.927 -0.8147  0.2648  0.2740
    1PEG1   C70   88   7.259   1.599   4.788  0.8248 -0.4680 -0.5215
    1PEG1   C71   89   7.331   1.513   4.680  0.0603  0.1532 -0.0991
    1PEG1   O36   90   7.264   1.387   4.658 -0.0517 -0.3255  0.3823
    1PEG1   C72   91   7.350   1.257   4.699 -0.2206  0.0587  0.3012
    1PEG1   C73   92   7.355   1.243   4.851  0.0749  0.0311 -0.1178
    1PEG1   O37   93   7.227   1.199   4.899 -0.1776 -0.1411  0.5396
    1PEG1   C74   94   7.210   1.055   4.887  0.2419 -0.0167 -0.1793
    1PEG1   C75   95   7.140   0.977   5.000  0.4366 -0.6794  0.1362
    1PEG1   O38   96   7.005   0.977   4.981 -0.2159 -0.6350  0.3707
    1PEG1   C76   97   6.943   1.086   5.031 -0.2851  0.4400 -0.2245
    1PEG1   C77   98   6.817   1.116   4.950 -0.5681  0.1636 -0.3398
    1PEG1   O39   99   6.835   1.238   4.877 -0.1557 -0.2112  0.3885
    1PEG1   C78  100   6.706   1.275   4.829  0.4327 -0.5643 -0.0435
    1PEG1   C79  101   6.702   1.383   4.711  0.4070 -0.0029  0.3290
    1PEG1   O40  102   6.617   1.501   4.729 -0.0031  0.0950  0.7759
    1PEG1   C80  103   6.543   1.528   4.606 -0.5744 -0.5480 -0.6203
    1PEG1   C81  104   6.415   1.614   4.646  0.0202  0.4044 -0.2818
    1PEG1   O41  105   6.297   1.569   4.599 -0.4045  0.1827  0.1091
    1PEG1   C82  106   6.192   1.660   4.626  0.2461 -0.1287  0.4525
    1PEG1   C83  107   6.163   1.667   4.779  0.6011  1.0490 -0.5998
    1PEG1   O42  108   6.085   1.550   4.801  0.0850  0.0400 -0.2498
    1PEG1   C84  109   5.963   1.595   4.853 -0.5374  1.0473 -0.0227
    1PEG1   C85  110   5.949   1.565   5.006  0.4695 -0.5277  0.2041
    1PEG1   O43  111   5.835   1.487   5.031 -0.7230  0.0259  0.0571
    1PEG1   C86  112   5.818   1.457   5.163  0.5510  0.4216 -0.2143
    1PEG1   C87  113   5.685   1.394   5.165 -0.2335 -0.0073  0.3691
    1PEG1   O44  114   5.649   1.391   5.280  0.0363 -0.0582 -0.2745
    1PEG1   C88  115   5.652   1.261   5.323  0.3888  0.6066 -0.6266
    1PEG1   C89  116   5.567   1.220   5.441  0.0121  0.1809  0.2393
    1PEG1   O45  117   5.519   1.335   5.514  0.6438 -0.3303  0.3522
    1PEG1   C90  118   5.610   1.397   5.601 -0.1319 -0.0313 -0.5294
    1PEG1   C91  119   5.623   1.335   5.744  0.5069 -0.1925 -0.0617
    1PEG1   O46  120   5.753   1.275   5.739  0.1479  0.2803 -0.5273
    1PEG1   C92  121   5.737   1.129   5.718  0.0874  0.0359 -0.4763
    1PEG1   C93  122   5.857   1.051   5.780 -0.1913  0.2463  0.1090
    1PEG1   O47  123   5.934   0.999   5.685 -0.4024 -0.0450 -0.2814
    1PEG1   C94  124   6.072   1.058   5.669 -0.1673  0.5053 -0.1767
    1PEG1   C95  125   6.138   0.998   5.538  0.3303 -0.3443 -0.7027
    1PEG1   O48  126   6.193   0.868   5.561 -0.6013 -0.0110 -0.2891
    1PEG1   C96  127   6.226   0.809   5.436  0.0184 -0.0712  0.2236
    1PEG1   C97  128   6.133   0.697   5.383 -0.8262  0.1633 -0.1121
    1PEG1   O49  129   6.207   0.571   5.362 -0.1751 -0.5727  0.0244
    1PEG1   C98  130   6.254   0.570   5.229  0.0843  0.0609  0.7729
    1PEG1   C99  131   6.330   0.441   5.204 -0.5158 -0.5725  0.7441
    1PEG1   O50  132   6.288   0.367   5.090  0.8453  0.4410  0.4656
    1PEG1  C100  133   6.386   0.272   5.044 -0.1886 -0.1038  0.7990
    1PEG1  C101  134   6.384   0.295   4.893  0.1684 -0.1159 -0.6573
    1PEG1   O51  135   6.449   0.418   4.860  0.1835 -0.1237 -0.0214
    1PEG1  C102  136   6.374   0.488   4.759  0.0160  0.5481  0.5035
    1PEG1  C103  137   6.361   0.639   4.756  0.2017  0.3221  0.2529
    1PEG1    O2  138   6.350   0.690   4.890  0.5769  0.1291 -0.4304
    1PEG1    C1  139   6.341   0.833   4.902  1.2448 -1.0830  0.2375
    1PEG1    C2  140   6.321   0.867   5.059 -0.0961 -1.4462 -0.6004
    1PEG1    O3  141   6.315   1.022   5.083 -0.6518  0.0151 -0.0839
    1PEG1    C3  142   6.454   1.058   5.098  0.3289 -0.1478  0.3524
    1PEG1    C4  143   6.472   1.094   5.250  0.1413 -0.0226  0.4832
    1PEG1    O4  144   6.590   1.169   5.283  0.1782  0.7646  0.0610
    1PEG1    C5  145   6.663   1.102   5.381  0.1302 -0.2822 -0.3307
    1PEG1    C6  146   6.804   1.056   5.345 -0.0867 -0.3529  0.2191
    1PEG1    O5  147   6.890   1.191   5.306 -0.1466 -0.6160  0.1232
    1PEG1    C7  148   7.008   1.278   5.314 -0.1014 -0.5143 -0.1921
    1PEG1    C8  149   7.008   1.322   5.461 -0.1072  1.1564  0.4538
    1PEG1    O6  150   7.111   1.411   5.487  0.3784 -0.5036 -0.0105
    1PEG1    C9  151   7.050   1.507   5.571  0.7059 -0.0855 -0.0805
    1PEG1   C10  152   7.071   1.658   5.515 -0.2148  0.1147  0.8209
    1PEG1   C11  153   7.140   1.737   5.623  0.1180  0.3972 -0.5423
    1PEG1    O7  154   7.226   1.844   5.552 -0.2215  0.6512  0.1018
    1PEG1   C12  155   7.323   1.884   5.646 -0.0507 -0.7610  0.2252
    1PEG1    O1  156   7.426   1.939   5.570  0.0269  0.0830  0.1427
    1PEG1  C104  157   7.559   1.932   5.629  1.2459  0.1732 -0.7265
    1PEG1   O52  158   7.638   1.897   5.553  0.5543 -0.2854 -0.0931
    1PEG1  C105  159   7.744   1.999   5.551  0.0217  0.2363 -0.4918
    1PEG1  C106  160   7.701   2.110   5.453  0.7933  0.7637  0.1693
    1PEG1   O53  161   7.706   2.052   5.297  0.4303 -0.0591 -0.2305
    1PEG1  C107  162   7.801   2.116   5.234  0.1445  0.1977  0.4904
    1PEG1  C108  163   7.739   2.211   5.123 -0.4713 -0.2984 -0.0790
    1PEG1   O54  164   7.835   2.220   5.015 -0.1079 -0.3491  0.0637
    1PEG1  C109  165   7.813   2.339   4.935 -0.4098 -0.2605  0.5210
    1PEG1  C110  166   7.779   2.317   4.785  0.5193 -0.5806 -0.8085
    1PEG1   O55  167   7.642   2.282   4.762  0.1169 -0.0153 -0.6646
    1PEG1  C111  168   7.591   2.367   4.665  0.3202 -0.5043  0.0707
    1PEG1  C112  169   7.517   2.283   4.565 -0.2838 -0.0979  0.2023
    1PEG1   O56  170   7.410   2.361   4.530  0.2614 -0.0549  0.3248
    1PEG1  C113  171   7.288   2.280   4.527 -0.4974 -0.4751 -0.3038
    1PEG1  C114  172   7.165   2.336   4.599 -0.1306 -0.1427 -0.5260
    1PEG1   O57  173   7.092   2.224   4.659 -0.1689  0.1752  0.3568
    1PEG1  C115  174   6.976   2.281   4.717  0.0302 -0.1139 -1.1079
    1PEG1  C116  175   6.874   2.289   4.611 -0.4581  0.0862  0.1807
    1PEG1   O58  176   6.770   2.376   4.655 -0.1548 -0.2745  0.0357
    1PEG1  C117  177   6.643   2.316   4.646  0.0807 -0.0108 -0.5247
    1PEG1  C118  178   6.552   2.341   4.767 -0.2348 -0.4305  0.4214
    1PEG1   O59  179   6.497   2.469   4.763 -0.3253 -0.1049  0.4079
    1PEG1  C119  180   6.357   2.484   4.783 -0.8593  0.4024 -0.2718
    1PEG1  C120  181   6.326   2.635   4.767 -0.1778 -0.0054  0.0636
    1PEG1   O60  182   6.207   2.646   4.690 -0.6911 -0.9869 -0.3696
    1PEG1  C121  183   6.216   2.742   4.585 -0.4124  0.1299  0.7752
    1PEG1  C122  184   6.252   2.664   4.455  0.4316  0.3457 -0.2090
    1PEG1   O61  185   6.373   2.710   4.397  0.3820  0.3063  0.2699
    1PEG1  C123  186   6.445   2.625   4.303 -0.7634 -0.5164 -0.5571
    1PEG1  C124  187   6.596   2.651   4.291  0.3821 -0.4434  0.1381
    1PEG1   O62  188   6.683   2.609   4.400 -0.1985 -0.1364  0.6790
    1PEG1  C125  189   6.766   2.738   4.452  0.6974  1.0594  0.4327
    1PEG1  C126  190   6.704   2.783   4.585 -0.4453  0.0186  0.3448
    1PEG1   O63  191   6.793   2.761   4.701 -0.2211 -0.0964 -0.0449
    1PEG1  C127  192   6.703   2.698   4.793 -1.0596 -0.7081 -0.2352
    1PEG1  C128  193   6.718   2.760   4.931  0.0074 -0.1997 -0.5474
    1PEG1   O64  194   6.659   2.676   5.029  0.0253 -0.1637  0.0562
    1PEG1  C129  195   6.711   2.719   5.158  0.1645  0.3549  0.3482
    1PEG1  C130  196   6.643   2.627   5.258 -0.4753  0.7842  0.1342
    1PEG1   O65  197   6.713   2.642   5.388  0.2914  0.3137  0.5260
    1PEG1  C131  198   6.733   2.505   5.423 -0.6732  0.6561  0.1453
    1PEG1  C132  199   6.630   2.455   5.524  0.6829 -0.2302  0.2198
    1PEG1   O66  200   6.628   2.311   5.519 -0.3197  0.0712 -0.0699
    1PEG1  C133  201   6.522   2.261   5.602 -0.3523 -0.8762 -0.4574
    1PEG1  C134  202   6.577   2.170   5.715  0.5839  0.5767 -0.4356
    1PEG1   O67  203   6.491   2.059   5.728 -0.0734 -0.3009 -0.5724
    1PEG1  C135  204   6.448   2.074   5.866 -0.9747 -0.2911  0.4527
    1PEG1  C136  205   6.415   1.938   5.937  0.0874 -0.0655 -0.0353
    1PEG1   O68  206   6.362   1.950   6.079 -0.5369 -0.1178 -0.1812
    1PEG1  C137  207   6.221   1.961   6.045 -0.2432  0.0452 -0.0902
    1PEG1  C138  208   6.158   2.069   6.134  0.2772 -0.0726 -0.7422
    1PEG1   O69  209   6.011   2.094   6.098 -0.0743 -0.1384 -0.3296
    1PEG1  C139  210   6.004   2.181   5.988  0.0380  0.1604  0.2680
    1PEG1  C140  211   5.856   2.191   5.929 -0.8642  0.3437  0.1397
    1PEG1   O70  212   5.815   2.069   5.877  0.4194 -0.2156  0.3122
    1PEG1  C141  213   5.758   2.097   5.754 -0.2789  0.2470 -0.9244
    1PEG1  C142  214   5.744   1.970   5.668  0.0756 -0.4224  0.0811
    1PEG1   O71  215   5.856   1.941   5.600 -0.2660  0.6803  0.0095
    1PEG1  C143  216   5.889   1.805   5.554 -0.4331 -0.0492  0.0527
    1PEG1  C144  217   6.031   1.761   5.583  0.4412 -0.0173  0.6294
    1PEG1   O72  218   6.123   1.837   5.512  0.5215  0.0704  0.1541
    1PEG1  C145  219   6.250   1.829   5.581 -0.1777  0.4667  0.0963
    1PEG1  C146  220   6.352   1.824   5.468 -0.1794 -0.0403  0.5950
    1PEG1   O73  221   6.392   1.698   5.410  0.1192  0.6093  0.0277
    1PEG1  C147  222   6.289   1.645   5.327  0.5142 -0.1257  0.4915
    1PEG1  C148  223   6.370   1.581   5.205  0.3231  0.2149  0.0177
    1PEG1   O74  224   6.284   1.505   5.115  0.0572  0.2306 -0.0376
    1PEG1  C149  225   6.348   1.467   4.993 -0.2619 -0.0482 -0.3334
    1PEG1  C150  226   6.312   1.330   4.954  0.5987 -0.3100 -0.0505
    1PEG1   O75  227   6.371   1.315   4.827  0.0710 -0.1923 -0.1816
    1PEG1  C151  228   6.293   1.211   4.772 -0.0732 -0.1284 -0.1893
    1PEG1  C152  229   6.278   1.203   4.629  0.0610  0.0043 -0.0531
    1PEG1   O76  230   6.169   1.276   4.593 -0.2435 -0.1560 -0.1301
    1PEG1  C153  231   6.086   1.202   4.504  0.5817  0.1878  0.7929
    1PEG1  C154  232   5.950   1.174   4.571  0.1875  0.0256  0.3439
    1PEG1   O77  233   5.947   1.061   4.638 -0.1466  0.7344 -0.0520
    1PEG1  C155  234   5.946   1.092   4.781  0.1241  0.1068 -0.2396
    1PEG1  C156  235   6.008   0.971   4.860  1.0925 -0.0224  0.2071
    1PEG1   O78  236   6.033   0.990   4.999 -0.3799  0.4215  0.2192
    1PEG1  C157  237   6.016   0.864   5.070 -0.0861 -0.8130 -0.2030
    1PEG1  C158  238   5.968   0.881   5.209 -1.0755 -0.3916 -0.3677
    1PEG1   O79  239   5.841   0.820   5.246  0.2672  0.4485  0.0784
    1PEG1  C159  240   5.802   0.852   5.372 -0.4492 -0.4890 -0.2958
    1PEG1  C160  241   5.822   0.724   5.452  0.4406 -0.4269 -0.2293
    1PEG1   O80  242   5.884   0.758   5.577 -0.1995 -0.0325  0.3234
    1PEG1  C161  243   5.835   0.666   5.673 -0.0610  0.2616  0.2166
    1PEG1  C162  244   5.876   0.714   5.808  0.7358 -0.1826 -0.3511
    1PEG1   O81  245   6.018   0.730   5.818  0.4776 -0.4456 -0.3044
    1PEG1  C163  246   6.073   0.634   5.906  0.1983  0.5712  0.4613
    1PEG1  C164  247   6.226   0.644   5.894 -0.2828  0.6427 -0.4836
    1PEG1   O82  248   6.255   0.602   5.762  0.4188 -0.1060  0.1767
    1PEG1  C165  249   6.376   0.495   5.761 -0.0376 -1.3630 -0.5387
    1PEG1  C166  250   6.513   0.559   5.746 -0.1621 -0.1851 -0.3304
    1PEG1   O83  251   6.507   0.653   5.637  0.3871 -0.0905  0.8973
    1PEG1  C167  252   6.625   0.640   5.556 -0.4197 -0.1476 -0.1776
    1PEG1  C168  253   6.628   0.764   5.464  0.5151 -0.1179 -0.4855
    1PEG1   O84  254   6.702   0.751   5.346 -0.0146  0.2977  0.3279
    1PEG1  C169  255   6.638   0.785   5.224 -0.5435  0.1839 -0.5857
    1PEG1  C170  256   6.743   0.763   5.112 -0.1011 -0.0444 -0.5970
    1PEG1   O85  257   6.692   0.700   4.993 -0.2282  0.0774 -0.0104
    1PEG1  C171  258   6.758   0.747   4.874  1.4316 -0.2076  0.8283
    1PEG1  C172  259   6.645   0.832   4.800 -0.2399 -0.2021  0.0587
    1PEG1   O86  260   6.649   0.847   4.661  0.0315 -0.2663  0.1168
    1PEG1  C173  261   6.563   0.951   4.618  0.4339  0.1873  0.0057
    1PEG1  C174  262   6.476   0.914   4.497  0.3283 -0.1610 -0.0575
    1PEG1   O87  263   6.456   0.782   4.491 -0.3365 -0.0983  0.2031
    1PEG1  C175  264   6.528   0.740   4.370  0.3418 -0.0028 -0.3444
    1PEG1  C176  265   6.605   0.615   4.415 -0.0790 -0.2831 -0.3314
    1PEG1   O88  266   6.670   0.579   4.297  0.1217  0.0566 -0.2359
    1PEG1  C177  267   6.711   0.442   4.305  0.5325 -0.2375  0.7674
    1PEG1  C178  268   6.796   0.416   4.180  0.0578 -0.4657 -0.5734
    1PEG1   O89  269   6.883   0.301   4.220  0.2305 -0.6312 -0.2766
    1PEG1  C179  270   6.822   0.174   4.178 -0.5184 -0.1043  0.3055
    1PEG1  C180  271   6.902   0.059   4.235 -0.8050  0.1438  0.8627
    1PEG1   O90  272   6.947   0.092   4.364 -0.7192  0.9694 -0.0587
    1PEG1  C181  273   6.962  -0.028   4.437 -0.3591  0.5723 -1.0319
    1PEG1  C182  274   6.822  -0.060   4.498  0.4066  0.0130 -0.4250
    1PEG1   O91  275   6.859  -0.084   4.638 -0.4712  0.4083 -0.4010
    1PEG1    HO  276   6.800  -0.148   4.672  1.6433 -1.9102 -0.8975
    2PVA     C1  277   8.920   2.175   2.127 -0.3309 -0.1255 -0.1517
    2PVA     C2  278   9.049   2.154   2.210 -0.0122 -0.2303 -0.7903
    2PVA     C3  279   9.090   2.005   2.205  0.1953 -0.7807  0.7686
    2PVA     C4  280   9.140   1.957   2.070 -0.0917  0.0625 -0.3342
    2PVA     C5  281   9.137   1.797   2.057  0.0285 -0.4439  0.9323
    2PVA     C6  282   8.988   1.748   2.038 -0.3775 -0.2146  0.6180
    2PVA     C7  283   8.990   1.595   2.030 -1.1274 -0.8358  0.4796
    2PVA     C8  284   8.859   1.524   2.035  0.4961 -0.5979 -0.3138
    2PVA     C9  285   8.875   1.371   2.026 -0.4399 -1.0154 -0.2114
    2PVA    C10  286   8.942   1.322   1.894  0.5347 -0.0636  0.4738
    2PVA    C11  287   8.965   1.175   1.924  0.0847 -0.2385 -0.0730
    2PVA    C12  288   9.088   1.119   1.853  0.1269  0.3438  0.6771
    2PVA    C13  289   9.056   1.105   1.702  0.0140 -0.1066 -0.1654
    2PVA    C14  290   9.185   1.097   1.612 -0.3203 -0.2359 -0.0156
    2PVA    C15  291   9.136   1.064   1.468 -0.0470  0.3767  0.2771
    2PVA    C16  292   9.253   1.056   1.375  0.0321  0.0123 -0.0806
    2PVA    C17  293   9.315   1.190   1.336 -0.3333 -0.3520 -0.4922
    2PVA    C18  294   9.441   1.175   1.252 -0.4576 -0.3652 -0.8483
    2PVA    C19  295   9.522   1.303   1.230 -0.0759 -0.1457 -0.0570
    2PVA    C20  296   9.567   1.385   1.351  0.0685 -0.1995 -0.6731
    2PVA    C21  297   9.586   1.527   1.301 -0.1951 -0.0188 -0.3248
    2PVA    C22  298   9.454   1.598   1.270 -0.1295 -0.6530 -0.2120
    2PVA    C23  299   9.504   1.736   1.228 -0.3079 -0.9852  0.6793
    2PVA    C24  300   9.377   1.824   1.191 -0.0197 -0.0911 -1.0804
    2PVA    C25  301   9.419   1.917   1.077 -1.0447 -0.3263 -0.6861
    2PVA    C26  302   9.301   1.989   1.021  0.1071  0.0768 -0.4781
    2PVA    C27  303   9.188   1.914   0.950  0.8050 -0.0118  0.3054
    2PVA    C28  304   9.072   2.007   0.904 -0.2646 -0.3976  0.2041
    2PVA    C29  305   8.947   1.931   0.853 -0.0533  0.1831  0.7098
    2PVA    C30  306   8.822   1.914   0.943 -0.0982  0.2780 -0.2584
    2PVA    C31  307   8.698   1.849   0.879  0.4957  0.5251  0.3562
    2PVA    C32  308   8.565   1.824   0.941  0.6230  0.3845 -1.2335
    2PVA    C33  309   8.561   1.747   1.079 -0.5700 -0.2709  0.4628
    2PVA    C34  310   8.424   1.760   1.142  0.0110  0.0971  0.1469
    2PVA    C35  311   8.450   1.719   1.287 -0.7594 -0.3986 -0.0998
    2PVA    C36  312   8.363   1.721   1.414 -0.2843 -0.2960  0.6198
    2PVA    C37  313   8.374   1.860   1.477 -0.2789 -0.0500 -0.7012
    2PVA    C38  314   8.349   1.847   1.631  0.2342  0.1541  0.0724
    2PVA    C39  315   8.359   1.981   1.704  0.5003  0.2268 -0.0648
    2PVA    C40  316   8.337   1.971   1.855  0.6485  0.4932  0.7975
    2PVA    C41  317   8.470   1.919   1.909 -0.2573 -1.0921 -0.3021
    2PVA    C42  318   8.462   1.905   2.056 -0.5118  0.0259  0.6338
    2PVA    C43  319   8.593   1.837   2.108 -0.4926 -0.3508 -0.1926
    2PVA    C44  320   8.597   1.815   2.258  0.3153  0.9375  0.1062
    2PVA    C45  321   8.542   1.936   2.343  0.6506  0.0936 -0.0873
    2PVA    C46  322   8.576   1.949   2.496 -0.1602  0.4365  0.5880
    2PVA    C47  323   8.493   1.858   2.593 -0.5526  0.1086  0.0593
    2PVA    C48  324   8.543   1.879   2.740 -0.3234  0.1627 -0.5158
    2PVA    C49  325   8.466   1.783   2.835 -0.1596  0.2255  0.2248
    2PVA    C50  326   8.316   1.771   2.839 -0.2599  0.4516 -0.3751
    2PVA    C51  327   8.285   1.655   2.933  0.0850  0.3594 -0.0730
    2PVA    C52  328   8.307   1.509   2.885 -0.0448  0.0823 -0.2710
    2PVA    C53  329   8.280   1.419   3.002  0.3865  0.3174 -0.1782
    2PVA    C54  330   8.306   1.275   2.961  0.7576  0.4940  0.3097
    2PVA    C55  331   8.339   1.187   3.080 -0.3458  0.5558  0.3510
    2PVA    C56  332   8.396   1.048   3.065 -0.3633 -0.2965  0.4573
    2PVA    C57  333   8.443   1.002   3.202  0.1464 -0.3240 -0.4706
    2PVA    C58  334   8.504   0.862   3.214  0.2756  0.0502  0.3025
    2PVA    C59  335   8.513   0.845   3.363  0.6376 -0.4588 -0.5403
    2PVA    C60  336   8.581   0.712   3.410  0.1510  0.2834  0.0087
    2PVA    C61  337   8.624   0.735   3.556 -0.5668  0.4257 -0.5363
    2PVA    C62  338   8.718   0.627   3.612 -0.1411 -0.0667 -0.3336
    2PVA    C63  339   8.723   0.627   3.767 -0.1959 -0.3850 -1.5279
    2PVA    C64  340   8.779   0.755   3.824 -0.1833  0.1381  0.1678
    2PVA    C65  341   8.765   0.770   3.973  0.1658 -0.7547  0.2608
    2PVA    C66  342   8.823   0.898   4.038  0.0528  0.0538 -0.0003
    2PVA    C67  343   8.960   0.950   3.999  0.0615 -0.5559 -0.2255
    2PVA    C68  344   9.062   0.836   4.019  0.1426  0.1190 -0.5875
    2PVA    C69  345   9.206   0.881   4.044  0.8476 -0.5334 -0.6612
    2PVA    C70  346   9.314   0.777   4.035  0.3273  0.7428 -0.1321
    2PVA    C71  347   9.322   0.693   3.902  0.2352  0.7379  0.5354
    2PVA    C72  348   9.232   0.572   3.874  0.2995 -0.0040  0.0531
    2PVA    C73  349   9.244   0.486   3.748  0.4128 -0.0543 -0.1293
    2PVA    C74  350   9.223   0.565   3.623  0.2264  0.6866 -0.0602
    2PVA    C75  351   9.202   0.465   3.506  0.1865  0.1889 -0.4328
    2PVA    C76  352   9.211   0.542   3.375 -0.7207 -0.8575 -0.1343
    2PVA    C77  353   9.247   0.459   3.248  0.1621 -0.4243  0.3324
    2PVA    C78  354   9.148   0.340   3.229  0.1826 -0.1775  0.2287
    2PVA    C79  355   9.164   0.260   3.098 -1.3019 -0.2161 -0.6355
    2PVA    C80  356   9.068   0.144   3.078 -0.6921 -0.4129 -1.3276
    2PVA    C81  357   9.045   0.036   3.186  0.5138 -0.9015  0.0074
    2PVA    C82  358   8.971  -0.073   3.109  0.7784  0.1876 -0.3130
    2PVA    C83  359   8.929  -0.192   3.193 -0.0635 -0.1283 -0.7707
    2PVA    C84  360   8.807  -0.155   3.278 -0.3392  0.5427 -1.5220
    2PVA    C85  361   8.770  -0.260   3.383  0.1066  0.0328 -0.2795
    2PVA    C86  362   8.674  -0.192   3.482  0.3616  0.2664 -0.2849
    2PVA    C87  363   8.614  -0.279   3.595 -0.3596 -0.2192  0.2703
    2PVA    C88  364   8.556  -0.181   3.695 -0.3887 -0.2890  0.4006
    2PVA    C89  365   8.641  -0.181   3.822  0.7570 -0.3041 -0.4802
    2PVA    C90  366   8.576  -0.105   3.942 -0.0799  0.0839  0.4543
    2PVA    C91  367   8.539   0.035   3.905 -0.0072 -0.0030 -0.0068
    2PVA    C92  368   8.487   0.119   4.021  0.4419  0.1679  0.1315
    2PVA    C93  369   8.428   0.243   3.965  1.1385 -0.3709 -0.2385
    2PVA    C94  370   8.371   0.342   4.075 -0.1752  0.2454  0.1997
    2PVA    C95  371   8.339   0.466   3.991 -0.5230 -0.2530 -0.6811
    2PVA    C96  372   8.261   0.575   4.066 -0.0928 -0.2351  0.4018
    2PVA    C97  373   8.234   0.706   3.988 -0.6269  0.2044 -0.3518
    2PVA    C98  374   8.206   0.817   4.085 -0.7184 -0.0732 -0.1014
    2PVA    C99  375   8.200   0.956   4.030  0.2387 -0.1899  0.0362
    2PVA   C100  376   8.181   1.071   4.126  0.2065  0.1828 -0.1844
    2PVA   C101  377   8.198   1.211   4.074  0.5258 -0.0851  0.3192
    2PVA   C102  378   8.151   1.320   4.182  0.5786  0.0528 -0.4122
    2PVA   C103  379   8.241   1.310   4.305  1.0124 -0.1520  0.3137
    2PVA     O1  380   9.028   2.202   2.343 -0.5412 -0.4345 -0.4741
    2PVA     O2  381   9.283   2.004   2.057  0.0053  0.4042  0.2528
    2PVA     O3  382   8.940   1.783   1.912 -0.5399  0.2164 -0.0420
    2PVA     O4  383   8.812   1.539   2.173  0.2827  0.5076  0.0351
    2PVA     O5  384   8.862   1.339   1.779 -0.0676  0.0985  0.0288
    2PVA     O6  385   9.127   0.988   1.904  0.2503  1.1543 -0.0945
    2PVA     O7  386   9.301   1.010   1.651 -0.1020 -0.3372  0.1865
    2PVA     O8  387   9.218   0.992   1.252 -0.6460 -0.0583 -0.5476
    2PVA     O9  388   9.414   1.122   1.119 -0.3410  0.0245  0.1138
    2PVA   C104  389   9.698   1.343   1.421  0.8078  0.1562  0.1279
    2PVA    O10  390   9.374   1.610   1.396 -0.1280  0.0404 -0.2858
    2PVA    O11  391   9.358   1.896   1.307  0.8554 -0.2350  0.6824
    2PVA    O12  392   9.345   2.079   0.917  0.1357 -0.2786 -0.0871
    2PVA    O13  393   9.120   2.096   0.805  0.3506 -0.1864  0.9618
    2PVA    O14  394   8.871   1.844   1.060 -0.4805  0.2370 -0.3956
    2PVA    O15  395   8.478   1.763   0.845  0.4459 -0.0652  0.3842
    2PVA    O16  396   8.336   1.671   1.075  0.0132  1.3756  0.0250
    2PVA    O17  397   8.233   1.686   1.374 -0.2033  0.7935  0.2719
    2PVA    O18  398   8.231   1.785   1.670 -0.4856 -0.3811 -0.1444
    2PVA    O19  399   8.300   2.097   1.909  0.2819  0.5935  0.5567
    2PVA    O20  400   8.351   1.827   2.095 -0.6745  0.2729 -0.2363
    2PVA    O21  401   8.736   1.796   2.286 -0.0559  0.3994 -0.0503
    2PVA    O22  402   8.725   1.930   2.503  0.5063 -0.4924  0.3647
    2PVA    O23  403   8.684   1.859   2.762 -0.4719 -0.5987  0.2934
    2PVA    O24  404   8.250   1.896   2.875  0.2964  0.2589 -0.0927
    2PVA    O25  405   8.220   1.476   2.776 -0.3468  0.1456  0.0817
    2PVA    O26  406   8.192   1.222   2.891 -0.7834  0.6933  0.0852
    2PVA    O27  407   8.491   1.047   2.961 -0.1131  0.1019  0.3565
    2PVA    O28  408   8.635   0.850   3.161  0.8316  0.0065  0.1227
    2PVA    O29  409   8.480   0.612   3.420  0.1509 -0.3684  0.0954
    2PVA    O30  410   8.854   0.628   3.555 -0.4830 -0.0297  0.5264
    2PVA    O31  411   8.811   0.533   3.817 -0.2467  0.0698 -0.0627
    2PVA    O32  412   8.625   0.770   4.009 -0.4626 -0.0452 -0.2857
    2PVA    O33  413   8.989   1.068   4.084 -0.1829 -0.1777  0.0964
    2PVA    O34  414   9.230   0.936   4.171 -0.4589 -0.1806  0.0791
    2PVA    O35  415   9.456   0.645   3.902  0.0826 -0.0828  0.2002
    2PVA    O36  416   9.373   0.428   3.761  0.4582 -0.1068 -0.7311
    2PVA    O37  417   9.073   0.410   3.532  0.1036 -0.3109  0.4589
    2PVA    O38  418   9.386   0.423   3.266  0.4204  0.2438  0.3022
    2PVA    O39  419   9.295   0.200   3.087  0.5050 -0.0253  1.2435
    2PVA    O40  420   9.174  -0.008   3.236 -0.2918 -0.4351  0.7748
    2PVA    O41  421   8.881  -0.285   3.098  0.0475  0.6545 -0.2481
    2PVA    O42  422   8.686  -0.364   3.317  0.3611 -0.1259  0.2462
    2PVA    O43  423   8.504  -0.353   3.548  0.4384 -0.9619 -0.1808
    2PVA    O44  424   8.771  -0.141   3.791 -0.2009  0.2959 -0.1619
    2PVA    O45  425   8.459  -0.169   3.977 -0.3266  0.3939  0.1143
    2PVA    O46  426   8.598   0.151   4.110  0.7829  1.1126 -0.2058
    2PVA    O47  427   8.258   0.288   4.137 -0.5660  0.5638 -0.3483
    2PVA    O48  428   8.134   0.518   4.103 -0.9086 -0.3822 -0.0943
    2PVA    O49  429   8.074   0.785   4.145  0.1397 -0.4737  0.2403
    2PVA    O50  430   8.055   1.061   4.188 -0.6902  0.3714 -0.4899
    2PVA    O51  431   8.015   1.318   4.219 -0.1281 -0.2954 -0.1709
    2PVA   H157  432   8.951   2.158   2.390  0.3940 -0.1813  1.3473
    2PVA   H158  433   9.271   2.103   2.068 -2.4141  0.5875 -3.2784
    2PVA   H159  434   8.996   1.745   1.839  0.6738  0.4372  0.7634
    2PVA   H160  435   8.814   1.637   2.193  0.3894  0.7084 -0.9420
    2PVA   H161  436   8.767   1.311   1.789 -0.1906  0.6891  0.5065
    2PVA   H162  437   9.171   1.003   1.992  0.8558  1.0222 -0.3676
    2PVA   H163  438   9.287   0.969   1.742  0.0264 -1.0743 -0.1180
    2PVA   H164  439   9.239   0.895   1.266 -1.0035  0.0852  1.1683
    2PVA   H165  440   9.332   1.065   1.115 -1.3548  1.0431  3.7746
    2PVA   H169  441   9.343   1.705   1.400 -0.7530 -0.1473 -0.5818
    2PVA   H170  442   9.415   1.978   1.309 -0.9405  1.1346 -1.2735
    2PVA   H171  443   9.267   2.108   0.862 -2.6501  0.7656  4.1538
    2PVA   H172  444   9.137   2.048   0.719  0.6712  0.4686  0.6607
    2PVA   H173  445   8.829   1.893   1.136  3.3885 -0.2942  2.2008
    2PVA   H174  446   8.404   1.734   0.905 -1.0737 -1.0235 -1.8702
    2PVA   H175  447   8.249   1.703   1.039  0.1224  2.3175  0.6030
    2PVA   H176  448   8.240   1.643   1.284  2.2831  0.1581  0.7347
    2PVA   H177  449   8.257   1.689   1.682 -1.1983 -0.6423 -0.6725
    2PVA   H178  450   8.372   2.161   1.881 -0.4851  1.4166  0.4440
    2PVA   H179  451   8.331   1.846   2.191 -1.9131 -1.4108 -0.1336
    2PVA   H180  452   8.748   1.823   2.382 -1.3742  0.9994 -0.0452
    2PVA   H181  453   8.748   1.919   2.600 -0.4755 -0.3681  0.6130
    2PVA   H182  454   8.703   1.902   2.850  0.1277 -1.4588  0.5843
    2PVA   H183  455   8.166   1.867   2.919  1.3768 -1.4519  0.9141
    2PVA   H184  456   8.189   1.383   2.798  0.1402  0.0933  0.5722
    2PVA   H185  457   8.200   1.122   2.887  0.5168  0.7802  0.0780
    2PVA   H186  458   8.516   0.953   2.935 -0.7860  0.5058 -1.8291
    2PVA   H187  459   8.629   0.842   3.061  1.1234 -0.2981  0.1267
    2PVA   H188  460   8.399   0.649   3.466  1.3819  1.4429  0.8716
    2PVA   H189  461   8.905   0.543   3.573 -0.4804 -0.2386 -0.4386
    2PVA   H190  462   8.891   0.546   3.758  0.2435 -1.4948  0.2213
    2PVA   H191  463   8.606   0.795   4.104  0.3658 -1.9931  0.4260
    2PVA   H192  464   8.933   1.148   4.060  1.2258  1.3452  1.7708
    2PVA   H193  465   9.157   0.905   4.232 -1.7266 -0.6478 -1.6404
    2PVA   H194  466   9.477   0.591   3.983 -1.1100 -0.9802 -0.0771
    2PVA   H195  467   9.435   0.496   3.800 -0.8526  1.0648 -0.6946
    2PVA   H196  468   9.070   0.311   3.516 -0.2258  0.1471 -2.5440
    2PVA   H197  469   9.451   0.496   3.287  2.4482 -1.0934 -1.0804
    2PVA   H198  470   9.354   0.278   3.107 -0.7898  1.5733 -0.9555
    2PVA   H199  471   9.246   0.047   3.194 -1.5844  0.9751  0.3637
    2PVA   H200  472   8.950  -0.289   3.026 -1.9352 -1.0996 -2.0996
    2PVA   H201  473   8.743  -0.423   3.259 -1.0093 -0.5972 -0.6587
    2PVA   H202  474   8.510  -0.390   3.455  3.4715 -0.2560 -0.3173
    2PVA   H203  475   8.827  -0.216   3.754  2.3049  0.8919  2.2814
    2PVA   H204  476   8.436  -0.147   4.072 -1.7378  0.7746 -0.2900
    2PVA   H205  477   8.676   0.202   4.073  2.6474 -0.2643  1.7203
    2PVA   H206  478   8.189   0.360   4.136 -1.2772 -0.1119 -1.0924
    2PVA   H207  479   8.081   0.602   4.116  1.7553  1.5753 -1.2980
    2PVA   H208  480   8.050   0.876   4.180  1.9516  0.7950 -1.7022
    2PVA   H209  481   8.016   1.153   4.197 -0.1563  0.7074 -1.4894
    2PVA   H210  482   7.999   1.399   4.276 -0.5253 -0.9498  0.6409
    3ACTN    H6  483   4.526   2.440   2.028 -1.1309  0.7396  1.2313
    3ACTN    C3  484   4.443   2.380   1.993  0.1030 -0.4329  0.2558
    3ACTN    H4  485   4.399   2.427   1.905  0.2242  0.0287  0.4418
    3ACTN    H5  486   4.472   2.282   1.955 -1.2435 -0.8665  0.3062
    3ACTN    C2  487   4.343   2.370   2.100 -0.3224  0.1198  0.1189
    3ACTN    O1  488   4.238   2.310   2.081 -0.8382  0.1164 -0.9739
    3ACTN    C1  489   4.350   2.455   2.219  0.5089 -0.6262  0.1930
    3ACTN    H1  490   4.446   2.436   2.267  0.3224  0.2449  0.9136
    3ACTN    H2  491   4.270   2.441   2.291  0.7120  0.2554  0.5919
    3ACTN    H3  492   4.350   2.562   2.195  1.5397 -0.2933  1.6574
    4ACTN    H6  493   1.632   0.411   3.539  0.6785  0.6786  2.0281
    4ACTN    C3  494   1.531   0.452   3.543  0.5630  0.6454 -0.0656
    4ACTN    H4  495   1.532   0.561   3.540  2.2482  0.6633  0.6591
    4ACTN    H5  496   1.476   0.422   3.454 -1.0611 -0.9064  1.4211
    4ACTN    C2  497   1.457   0.395   3.660 -0.7712  0.0362 -0.3710
    4ACTN    O1  498   1.457   0.464   3.765  0.0144  0.5251 -0.3073
    4ACTN    C1  499   1.358   0.287   3.636  0.2718  0.0881  0.4702
    4ACTN    H1  500   1.351   0.260   3.530  1.6365  0.3984  0.2889
    4ACTN    H2  501   1.262   0.331   3.665  0.0533  0.5179 -0.8716
    4ACTN    H3  502   1.378   0.197   3.694  0.2203  1.3917  2.5321
    5ACTN    H6  503   2.933   3.851   8.716 -0.9863  0.7801  1.6374
    5ACTN    C3  504   2.833   3.844   8.675 -0.1823 -0.1731 -0.2194
    5ACTN    H4  505   2.769   3.916   8.726 -1.5952 -1.1910 -0.4840
    5ACTN    H5  506   2.847   3.864   8.569  3.1140 -2.2381 -0.2379
    5ACTN    C2  507   2.786   3.706   8.694  0.5337 -0.1393 -0.4153
    5ACTN    O1  508   2.801   3.623   8.603 -0.2550 -0.3609  0.2117
    5ACTN    C1  509   2.708   3.682   8.819 -0.1901 -0.4144  0.3028
    5ACTN    H1  510   2.755   3.711   8.913 -1.5514 -2.9196  1.7961
    5ACTN    H2  511   2.671   3.580   8.823  0.0959 -0.5879 -1.0451
    5ACTN    H3  512   2.621   3.747   8.809 -0.3579 -0.9366 -1.9543
    6ACTN    H6  513   0.609   1.331   2.116  0.3875  0.9528 -2.3830
    6ACTN    C3  514   0.513   1.315   2.166  1.3968  0.6423 -0.4904
    6ACTN    H4  515   0.510   1.217   2.213  1.8551  1.2079  0.7383
    6ACTN    H5  516   0.515   1.389   2.246 -1.1725  3.3642 -2.8050
    6ACTN    C2  517   0.407   1.346   2.071 -0.5415  0.1407  1.2374
    6ACTN    O1  518   0.401   1.283   1.966  0.0396 -0.1300 -0.4483
    6ACTN    C1  519   0.295   1.434   2.096  0.5505 -0.4201 -0.5577
    6ACTN    H1  520   0.308   1.464   2.200 -0.8909 -0.3799 -0.3766
    6ACTN    H2  521   0.190   1.409   2.083 -0.0008  1.5404 -0.0795
    6ACTN    H3  522   0.304   1.527   2.040  0.0663 -0.8183 -1.3165
    7ACTN    H6  523   8.407   4.742   4.581  1.2597  1.0279  1.6399
    7ACTN    C3  524   8.377   4.847   4.591 -0.4842  0.7429 -0.1926
    7ACTN    H4  525   8.423   4.903   4.509  1.1552  0.6622  0.6454
    7ACTN    H5  526   8.270   4.848   4.572 -0.4680  1.2571 -0.2609
    7ACTN    C2  527   8.402   4.908   4.734  1.2570  0.4879  0.3591
    7ACTN    O1  528   8.461   4.850   4.826 -0.2142 -0.4469  0.6131
    7ACTN    C1  529   8.365   5.053   4.748  0.8154 -0.2005 -0.1964
    7ACTN    H1  530   8.309   5.064   4.841 -2.1280 -0.4285 -1.8940
    7ACTN    H2  531   8.294   5.085   4.671  0.2441 -0.8274  0.0692
    7ACTN    H3  532   8.449   5.123   4.746 -0.8679  1.8956  0.2894
    8ACTN    H6  533   0.585   2.345   0.662 -1.5344  0.9980 -4.4523
    8ACTN    C3  534   0.587   2.449   0.694 -0.2055 -0.2740 -0.0644
    8ACTN    H4  535   0.658   2.448   0.777 -1.4582 -1.2164  1.0076
    8ACTN    H5  536   0.621   2.513   0.612  2.7300  0.6438  1.7690
    8ACTN    C2  537   0.453   2.491   0.740 -0.7112  0.1995 -0.7359
    8ACTN    O1  538   0.438   2.605   0.778 -0.6174 -0.2979  0.1490
    8ACTN    C1  539   0.336   2.403   0.725  0.1920  1.2296  0.1260
    8ACTN    H1  540   0.248   2.457   0.690  0.3647  0.9661 -0.7476
    8ACTN    H2  541   0.304   2.357   0.818  0.8162  1.9909  0.7243
    8ACTN    H3  542   0.346   2.327   0.647  2.3291 -0.1334  1.6969
    9ACTN    H6  543   6.193   8.361   1.059  1.6238  0.2815 -0.4223
    9ACTN    C3  544   6.132   8.425   0.994 -0.5540 -0.0681  1.2250
    9ACTN    H4  545   6.057   8.370   0.938  1.0838 -0.6980 -0.3987
    9ACTN    H5  546   6.081   8.500   1.054 -1.4238  0.5374 -0.2589
    9ACTN    C2  547   6.228   8.486   0.893 -0.8284 -0.3241 -0.8661
    9ACTN    O1  548   6.218   8.451   0.780 -0.1134  0.2423 -0.1333
    9ACTN    C1  549   6.360   8.534   0.936  0.3488 -0.9048  1.0993
    9ACTN    H1  550   6.397   8.610   0.867 -0.6288 -0.6275  0.8746
    9ACTN    H2  551   6.437   8.458   0.952 -2.1735 -3.9484 -0.8089
    9ACTN    H3  552   6.344   8.582   1.033  1.4637  2.4058 -0.2512
   10ACTN    H6  553   0.494   6.010   2.447 -4.0046  0.7694  0.1308
   10ACTN    C3  554   0.490   5.992   2.555 -0.2168 -0.3551  0.1246
   10ACTN    H4  555   0.550   5.904   2.578 -1.2329 -0.9700  0.4377
   10ACTN    H5  556   0.525   6.083   2.604  1.2079 -0.8593  0.0802
   10ACTN    C2  557   0.349   5.963   2.615 -0.1494  0.4081 -0.3477
   10ACTN    O1  558   0.299   6.067   2.669  0.0618 -0.0109  0.4555
   10ACTN    C1  559   0.299   5.831   2.633 -0.2119 -0.5306 -0.0070
   10ACTN    H1  560   0.265   5.824   2.736  3.5246  1.0275  1.4039
   10ACTN    H2  561   0.384   5.762   2.633  2.0284  2.1157 -0.6908
   10ACTN    H3  562   0.227   5.802   2.557 -0.1334  2.1834 -1.1482
   11ACTN    H6  563   3.188   1.653   4.885  1.2386  0.1501  0.2613
   11ACTN    C3  564   3.217   1.643   4.780 -0.1388 -0.2449 -0.0900
   11ACTN    H4  565   3.316   1.599   4.791  1.4103  3.5405  2.2392
   11ACTN    H5  566   3.149   1.578   4.725 -1.3854  1.2536 -0.3449
   11ACTN    C2  567   3.247   1.773   4.705  0.5637  0.1435 -0.3152
   11ACTN    O1  568   3.249   1.875   4.765 -0.0816 -0.2907 -0.3750
   11ACTN    C1  569   3.251   1.771   4.559 -0.0932 -0.0317 -0.0622
   11ACTN    H1  570   3.296   1.678   4.524  2.2852  0.9517  0.2941
   11ACTN    H2  571   3.312   1.852   4.519  0.3122 -1.0926 -1.6471
   11ACTN    H3  572   3.147   1.763   4.524 -0.4151  1.7202  0.4453
   12ACTN    H6  573   2.882   6.485   3.470  1.7070  1.3179 -1.0582
   12ACTN    C3  574   2.954   6.501   3.550  0.3452  0.7393  0.3108
   12ACTN    H4  575   3.042   6.542   3.502  0.2754  1.3717  0.7259
   12ACTN    H5  576   2.919   6.568   3.629  0.0483  0.3139  0.5467
   12ACTN    C2  577   3.002   6.362   3.603 -0.3970  0.3202 -0.6324
   12ACTN    O1  578   3.020   6.276   3.518 -0.1101  0.3629  0.3559
   12ACTN    C1  579   3.014   6.345   3.748  0.1440  0.4651  0.6966
   12ACTN    H1  580   3.026   6.240   3.771  0.1658  0.4082  0.4319
   12ACTN    H2  581   2.935   6.400   3.801  0.7559  2.3828 -0.3220
   12ACTN    H3  582   3.104   6.392   3.787  0.3931 -2.1351  3.3770
   13ACTN    H6  583   8.091   0.552   5.375 -0.4631  0.6757  0.4814
   13ACTN    C3  584   8.011   0.480   5.357 -0.6549  1.1000 -0.3867
   13ACTN    H4  585   7.982   0.440   5.454  3.1986  2.3280  1.3926
   13ACTN    H5  586   7.933   0.533   5.303  0.2867  0.7455 -2.1151
   13ACTN    C2  587   8.069   0.357   5.294  0.1180  0.6972  0.1395
   13ACTN    O1  588   8.015   0.249   5.319 -0.3101  0.4382 -0.5287
   13ACTN    C1  589   8.139   0.385   5.163  0.2247  0.1091  0.1409
   13ACTN    H1  590   8.131   0.291   5.109  1.9132 -1.4012  2.4383
   13ACTN    H2  591   8.242   0.418   5.175  0.3721 -0.2113 -0.2274
   13ACTN    H3  592   8.083   0.465   5.113  0.8742  1.9111  2.2409
   14ACTN    H6  593   2.771   7.613   0.162  0.4723 -0.9902 -1.1207
   14ACTN    C3  594   2.802   7.677   0.079  0.4862  0.1201 -0.2655
   14ACTN    H4  595   2.716   7.739   0.053  0.2083  0.0929  0.5861
   14ACTN    H5  596   2.877   7.749   0.110 -0.7669 -0.2092  3.8073
   14ACTN    C2  597   2.849   7.583  -0.027 -0.3868 -0.1589  0.2535
   14ACTN    O1  598   2.931   7.498   0.001  0.6623 -0.4754 -0.4250
   14ACTN    C1  599   2.817   7.608  -0.167  1.0067 -0.3083 -0.5273
   14ACTN    H1  600   2.855   7.705  -0.198 -0.6031 -0.6163 -3.6708
   14ACTN    H2  601   2.709   7.612  -0.184  0.9887  2.2805 -0.1155
   14ACTN    H3  602   2.853   7.532  -0.235 -2.3496 -1.4300 -1.1714
   15ACTN    H6  603   6.739   3.013   8.416  0.6418  0.1234  0.4880
   15ACTN    C3  604   6.809   2.943   8.371  0.3041  0.4690 -0.5876
   15ACTN    H4  605   6.904   2.996   8.363  0.3946  0.6875  1.7987
   15ACTN    H5  606   6.834   2.860   8.437  0.5917 -0.8053 -2.2393
   15ACTN    C2  607   6.753   2.906   8.232  0.1365  0.4284  0.5970
   15ACTN    O1  608   6.714   2.791   8.205  0.2285  0.4424  0.1956
   15ACTN    C1  609   6.785   2.997   8.109 -0.2224  0.7761 -0.5363
   15ACTN    H1  610   6.774   2.942   8.015  0.7607  0.8718 -0.7156
   15ACTN    H2  611   6.888   3.033   8.116  0.4041 -1.2464  1.0866
   15ACTN    H3  612   6.706   3.072   8.119 -2.8705 -1.9559 -0.3728
   16ACTN    H6  613   6.187   8.660   5.682  2.6469 -0.9049  2.2887
   16ACTN    C3  614   6.122   8.697   5.762 -0.3060 -0.5185 -0.2038
   16ACTN    H4  615   6.118   8.805   5.756  1.2828 -0.4619 -0.3400
   16ACTN    H5  616   6.027   8.646   5.745  0.0369 -1.8732  1.7142
   16ACTN    C2  617   6.170   8.645   5.891 -0.5088  0.0640  0.0866
   16ACTN    O1  618   6.294   8.643   5.905 -0.3434  0.2681 -0.3747
   16ACTN    C1  619   6.092   8.622   6.018  0.1358 -0.4649  0.6398
   16ACTN    H1  620   6.065   8.518   6.036  2.8309 -1.4205 -0.5270
   16ACTN    H2  621   6.002   8.682   6.010  0.0899 -0.7977 -1.7151
   16ACTN    H3  622   6.146   8.661   6.105 -1.0176 -0.7669  1.5000
   17ACTN    H6  623   8.793   8.651   4.274  0.7262 -0.6119  0.8994
   17ACTN    C3  624   8.737   8.694   4.358 -0.5182 -0.1812 -0.1321
   17ACTN    H4  625   8.635   8.658   4.348 -0.2519 -0.7991 -0.6946
   17ACTN    H5  626   8.770   8.643   4.448 -2.6144  0.2370  0.8910
   17ACTN    C2  627   8.776   8.845   4.369 -0.2225  0.1641  0.0417
   17ACTN    O1  628   8.866   8.893   4.299 -0.2885  0.6351 -0.0199
   17ACTN    C1  629   8.678   8.939   4.430 -0.0138  0.0209  0.7664
   17ACTN    H1  630   8.608   8.984   4.360  1.5416 -1.0520 -1.5307
   17ACTN    H2  631   8.735   9.019   4.477  0.1894 -1.7426  3.6811
   17ACTN    H3  632   8.619   8.894   4.510 -2.6342 -0.0384 -1.1319
   18ACTN    H6  633   7.152   2.341   2.039  0.0368 -0.4106 -1.4725
   18ACTN    C3  634   7.248   2.388   2.017  0.1701 -0.0605 -0.1873
   18ACTN    H4  635   7.232   2.457   1.935 -1.4466 -0.4134 -0.1835
   18ACTN    H5  636   7.275   2.442   2.108 -1.1213 -0.9960  0.7838
   18ACTN    C2  637   7.350   2.295   1.966 -0.2499 -0.0744 -0.0410
   18ACTN    O1  638   7.465   2.313   1.992  0.4571  0.0333  0.3663
   18ACTN    C1  639   7.311   2.162   1.913 -0.4856  0.1961 -0.3303
   18ACTN    H1  640   7.346   2.090   1.987 -0.8155 -0.7842 -1.1220
   18ACTN    H2  641   7.357   2.147   1.816  0.6359 -1.2554  0.4106
   18ACTN    H3  642   7.203   2.158   1.898 -0.7062  1.8282  0.6074
   19ACTN    H6  643   7.079   0.242   3.569 -3.7669  0.4715  2.8958
   19ACTN    C3  644   7.087   0.351   3.569 -0.2238  0.2985 -0.2156
   19ACTN    H4  645   7.042   0.392   3.479  2.7745 -0.2865 -2.0689
   19ACTN    H5  646   7.039   0.385   3.661 -1.0905  2.8552 -1.5765
   19ACTN    C2  647   7.230   0.399   3.570 -0.1540 -0.2144 -0.8834
   19ACTN    O1  648   7.253   0.517   3.576  0.7632  0.0228 -0.2654
   19ACTN    C1  649   7.338   0.302   3.578 -0.4414 -0.0225 -0.1515
   19ACTN    H1  650   7.306   0.198   3.581 -0.6968 -0.0160 -1.9144
   19ACTN    H2  651   7.402   0.312   3.666 -1.5107 -0.7202  0.7124
   19ACTN    H3  652   7.392   0.315   3.484 -0.0152  0.0213  0.0981
   20ACTN    H6  653   8.936   6.483   0.260 -0.0560  0.2404 -0.4734
   20ACTN    C3  654   8.879   6.488   0.352 -0.0369 -0.5106 -0.4193
   20ACTN    H4  655   8.948   6.513   0.433 -0.1350  0.1928 -0.5575
   20ACTN    H5  656   8.805   6.568   0.348  0.1533 -0.3278 -0.2784
   20ACTN    C2  657   8.810   6.352   0.380 -0.0316 -0.4128  0.2193
   20ACTN    O1  658   8.809   6.260   0.301 -0.1938 -0.2652 -0.3992
   20ACTN    C1  659   8.733   6.344   0.507 -0.0196  0.2504 -0.7270
   20ACTN    H1  660   8.763   6.426   0.573  1.7726  0.3002 -1.5859
   20ACTN    H2  661   8.768   6.250   0.548 -0.7543 -0.2035 -1.1286
   20ACTN    H3  662   8.629   6.339   0.476  0.4623 -2.5528 -2.0071
   21ACTN    H6  663   0.407   0.230   3.415 -1.0156 -0.9510  3.6136
   21ACTN    C3  664   0.439   0.126   3.407 -0.3093 -0.5085 -0.8419
   21ACTN    H4  665   0.350   0.063   3.404 -0.1457 -0.8890  1.2618
   21ACTN    H5  666   0.503   0.113   3.320 -0.0404  0.7781 -0.8435
   21ACTN    C2  667   0.527   0.100   3.528 -0.3101  0.4816 -0.1812
   21ACTN    O1  668   0.511  -0.008   3.584  0.4088 -0.0852 -0.3983
   21ACTN    C1  669   0.628   0.208   3.564  0.1828 -0.0333 -0.0055
   21ACTN    H1  670   0.589   0.305   3.597  0.8534  0.5323 -0.8532
   21ACTN    H2  671   0.694   0.219   3.478 -2.6834  0.0394 -2.3079
   21ACTN    H3  672   0.685   0.162   3.644 -0.9495 -1.5197 -0.0348
   22ACTN    H6  673   1.546   0.090   5.523  3.5605 -3.3586 -0.4137
   22ACTN    C3  674   1.548   0.101   5.632 -0.4992 -0.1781 -0.5201
   22ACTN    H4  675   1.448   0.127   5.667 -0.1604 -0.4797  0.6996
   22ACTN    H5  676   1.582   0.009   5.681 -0.6025 -0.7045 -1.4220
   22ACTN    C2  677   1.650   0.203   5.669 -0.0362 -0.0006 -0.3401
   22ACTN    O1  678   1.697   0.286   5.587  0.1074  0.1815 -0.3956
   22ACTN    C1  679   1.696   0.204   5.810  0.0494 -0.2682 -1.1924
   22ACTN    H1  680   1.608   0.180   5.870  2.2600 -2.9775  1.1034
   22ACTN    H2  681   1.746   0.299   5.830  1.5515 -0.7692 -2.5000
   22ACTN    H3  682   1.760   0.118   5.831 -1.9948 -1.3041  1.0571
   23ACTN    H6  683   5.253   7.207   6.514 -1.3383  0.3736 -1.1451
   23ACTN    C3  684   5.208   7.127   6.456 -0.6662 -0.5564 -0.3844
   23ACTN    H4  685   5.268   7.036   6.466  1.9549  0.9625 -1.6645
   23ACTN    H5  686   5.107   7.103   6.489 -0.5486  1.6756  1.7387
   23ACTN    C2  687   5.228   7.168   6.314  0.0244 -1.2111 -0.3333
   23ACTN    O1  688   5.225   7.288   6.281 -0.4640  0.0755 -0.4793
   23ACTN    C1  689   5.234   7.064   6.211 -0.0097  0.2379  0.3024
   23ACTN    H1  690   5.297   6.982   6.245 -0.6574 -0.5628 -0.3870
   23ACTN    H2  691   5.276   7.093   6.115  0.5381 -0.1676  0.4144
   23ACTN    H3  692   5.133   7.026   6.194  0.6854 -1.4464 -0.2240
   24ACTN    H6  693   5.882   4.219   7.801  0.4728  2.2653 -0.8076
   24ACTN    C3  694   5.785   4.207   7.752 -0.2214 -0.8109  1.1232
   24ACTN    H4  695   5.815   4.224   7.648 -0.1792 -3.3902  0.6841
   24ACTN    H5  696   5.745   4.106   7.757  1.0984 -1.2683  2.9225
   24ACTN    C2  697   5.692   4.308   7.806 -0.4498  0.0343  0.0821
   24ACTN    O1  698   5.706   4.423   7.769  0.5354  0.6382 -0.0735
   24ACTN    C1  699   5.573   4.258   7.888 -0.0631  0.0394  0.1352
   24ACTN    H1  700   5.477   4.291   7.848  0.8071  0.6037 -1.5573
   24ACTN    H2  701   5.594   4.290   7.990  1.9083 -1.9775  0.4001
   24ACTN    H3  702   5.562   4.150   7.900 -0.2615  0.0688  0.1994
   25ACTN    H6  703   6.475   2.852   7.708 -1.1390  0.0400 -0.8261
   25ACTN    C3  704   6.461   2.745   7.727  0.6910 -0.0344  0.2560
   25ACTN    H4  705   6.519   2.698   7.648  2.3197  2.1033  0.1431
   25ACTN    H5  706   6.509   2.730   7.823  0.2070 -1.3628  0.2975
   25ACTN    C2  707   6.308   2.711   7.722 -0.3923  0.2987 -0.1352
   25ACTN    O1  708   6.249   2.657   7.812  0.1724 -0.0864 -0.1534
   25ACTN    C1  709   6.239   2.740   7.588 -0.5794 -0.0333 -0.2200
   25ACTN    H1  710   6.130   2.743   7.589 -0.5495  1.6560  0.7436
   25ACTN    H2  711   6.263   2.646   7.538 -2.9100 -0.2473 -0.9646
   25ACTN    H3  712   6.272   2.819   7.520  0.9351 -1.3189 -1.0204
   26ACTN    H6  713   1.225   0.948   4.331  0.4179  0.0304  1.6390
   26ACTN    C3  714   1.171   0.861   4.368 -0.7558 -0.2153 -0.5426
   26ACTN    H4  715   1.246   0.795   4.412 -2.2684 -2.5336 -1.3295
   26ACTN    H5  716   1.107   0.895   4.449 -0.6229 -1.2114 -0.0092
   26ACTN    C2  717   1.089   0.802   4.256  0.1036  0.1365 -0.9746
   26ACTN    O1  718   1.105   0.835   4.140  0.3658 -0.1735 -0.1898
   26ACTN    C1  719   0.981   0.701   4.282  0.6684  0.1142  0.6482
   26ACTN    H1  720   0.881   0.736   4.255  0.2567 -0.9990  0.6771
   26ACTN    H2  721   0.975   0.662   4.384 -1.6554  0.6844  0.7568
   26ACTN    H3  722   0.996   0.611   4.223 -0.2786 -0.5812  1.4512
   27ACTN    H6  723   6.149   8.615   3.568  2.0920 -0.8426 -0.0504
   27ACTN    C3  724   6.142   8.528   3.634 -0.5042 -0.5210  0.1293
   27ACTN    H4  725   6.237   8.476   3.623  0.3834  0.5330  2.5740
   27ACTN    H5  726   6.127   8.566   3.735 -1.0952 -3.4656  1.1907
   27ACTN    C2  727   6.026   8.430   3.611 -0.3207 -0.2287  0.1128
   27ACTN    O1  728   5.956   8.430   3.515  0.2376  0.2628 -0.0623
   27ACTN    C1  729   6.013   8.321   3.705  0.2318  0.0487 -0.0678
   27ACTN    H1  730   5.914   8.328   3.751 -0.0221 -2.3689 -0.1935
   27ACTN    H2  731   6.087   8.316   3.785  0.0186  0.9433  0.1886
   27ACTN    H3  732   6.012   8.233   3.642  1.1737  0.3050 -0.4421
   28ACTN    H6  733   7.398   1.184   6.994 -2.1422 -1.2332  0.6150
   28ACTN    C3  734   7.339   1.227   6.913 -0.9161 -0.0316  0.3488
   28ACTN    H4  735   7.241   1.180   6.923 -1.1134  0.5015  0.9425
   28ACTN    H5  736   7.330   1.334   6.929 -1.8527  0.2192 -1.6901
   28ACTN    C2  737   7.407   1.184   6.788 -0.1633  0.2154  0.0930
   28ACTN    O1  738   7.526   1.203   6.778  0.2584 -0.1532 -0.3269
   28ACTN    C1  739   7.356   1.074   6.704 -0.2177 -0.3134 -0.3180
   28ACTN    H1  740   7.252   1.084   6.674 -0.0396  1.1841 -0.4814
   28ACTN    H2  741   7.368   0.982   6.761  0.4188 -0.5792 -0.8692
   28ACTN    H3  742   7.422   1.063   6.617  0.2805  2.1452 -0.2967
   29ACTN    H6  743   2.611   7.440   2.990  0.1332 -1.5284 -0.7175
   29ACTN    C3  744   2.696   7.434   2.923  0.4244  0.0531 -0.5167
   29ACTN    H4  745   2.713   7.536   2.888 -0.7236 -0.0389 -1.4015
   29ACTN    H5  746   2.674   7.374   2.834  1.3010 -2.4084  0.8918
   29ACTN    C2  747   2.818   7.359   2.978  0.2077  0.7054  0.2710
   29ACTN    O1  748   2.878   7.270   2.918  0.5684  0.3098 -0.4718
   29ACTN    C1  749   2.874   7.411   3.106 -0.1478  0.7172 -0.5636
   29ACTN    H1  750   2.801   7.392   3.185  0.8504 -0.0968  0.1847
   29ACTN    H2  751   2.893   7.518   3.100 -0.5931  0.8393  0.1938
   29ACTN    H3  752   2.968   7.365   3.136 -1.2653 -1.0534  0.3125
   30ACTN    H6  753   8.154   2.605   3.718 -2.6887  0.0075  0.1609
   30ACTN    C3  754   8.173   2.684   3.792 -0.2183 -0.2923 -0.1045
   30ACTN    H4  755   8.233   2.643   3.873  0.0964 -0.8129 -0.5937
   30ACTN    H5  756   8.225   2.770   3.751  2.2223 -1.5193  0.3319
   30ACTN    C2  757   8.053   2.737   3.864  0.3832  0.2928 -0.1106
   30ACTN    O1  758   8.021   2.676   3.961  0.7231  0.3197 -0.1097
   30ACTN    C1  759   8.015   2.882   3.851  0.3362  0.2860 -0.4074
   30ACTN    H1  760   8.101   2.945   3.829 -0.4096  2.1208  1.7293
   30ACTN    H2  761   7.977   2.918   3.947 -0.4397  0.6779 -0.8558
   30ACTN    H3  762   7.938   2.901   3.776  0.5244 -1.2705 -1.0083
   31ACTN    H6  763   3.332   5.743   3.903  0.6483  0.1763 -0.8106
   31ACTN    C3  764   3.263   5.685   3.842 -0.1822  0.4388 -0.1240
   31ACTN    H4  765   3.291   5.583   3.869  0.6550  1.0576  1.4217
   31ACTN    H5  766   3.157   5.698   3.862  0.0108  0.4101  0.9428
   31ACTN    C2  767   3.286   5.710   3.695  0.1177  0.4182 -0.3368
   31ACTN    O1  768   3.204   5.772   3.630  0.0780 -0.5144  0.4542
   31ACTN    C1  769   3.382   5.615   3.624 -0.3341  0.3109  0.0751
   31ACTN    H1  770   3.386   5.522   3.681 -0.4883  0.9149  1.0738
   31ACTN    H2  771   3.486   5.648   3.617  0.6473 -2.2190  1.7888
   31ACTN    H3  772   3.340   5.595   3.525  0.9712  0.8346 -0.5964
   32ACTN    H6  773   2.425   2.488   4.655  0.9383 -1.0676 -0.1475
   32ACTN    C3  774   2.529   2.521   4.649  0.4790  0.4327 -0.1388
   32ACTN    H4  775   2.548   2.602   4.719  1.5556  0.3524 -0.3307
   32ACTN    H5  776   2.586   2.433   4.678 -4.1174 -3.7764 -3.0082
   32ACTN    C2  777   2.567   2.565   4.511 -0.1828  0.0944  0.1312
   32ACTN    O1  778   2.474   2.613   4.447 -0.1184  0.6009 -0.6772
   32ACTN    C1  779   2.699   2.522   4.440  0.2576  0.0848  0.0441
   32ACTN    H1  780   2.726   2.420   4.468 -0.0270  0.5667  2.1861
   32ACTN    H2  781   2.778   2.589   4.471 -1.6839  3.0205 -1.1345
   32ACTN    H3  782   2.692   2.533   4.332 -0.2976  0.4746  0.1179
   33ACTN    H6  783   6.963   1.399   3.899 -1.0464 -0.3979 -1.7642
   33ACTN    C3  784   6.891   1.479   3.877 -0.7834  0.6306  0.8948
   33ACTN    H4  785   6.931   1.579   3.894  3.4698 -0.6226 -1.0401
   33ACTN    H5  786   6.860   1.476   3.773 -0.2501  2.0971  0.6911
   33ACTN    C2  787   6.779   1.474   3.971  0.2450  0.1060 -0.1550
   33ACTN    O1  788   6.814   1.467   4.090 -0.0921  0.3342 -0.4165
   33ACTN    C1  789   6.650   1.415   3.930  0.0384  0.1492 -0.1371
   33ACTN    H1  790   6.592   1.398   4.021  1.5706  2.8717  1.3915
   33ACTN    H2  791   6.670   1.319   3.882 -0.6328  0.5699 -1.2916
   33ACTN    H3  792   6.602   1.479   3.856  1.7374 -0.1728 -1.5503
   34ACTN    H6  793   2.537   1.536   6.292 -0.6729 -2.2632  0.4610
   34ACTN    C3  794   2.638   1.496   6.297  0.2034 -0.2070 -0.2153
   34ACTN    H4  795   2.698   1.587   6.289  0.7105 -0.3325  1.9347
   34ACTN    H5  796   2.651   1.441   6.390  1.1513  1.7874  0.8704
   34ACTN    C2  797   2.639   1.411   6.167  0.2219 -0.4638  0.2806
   34ACTN    O1  798   2.532   1.365   6.127  0.6072  0.1171  0.2947
   34ACTN    C1  799   2.771   1.371   6.107  1.1228 -0.2350  0.1673
   34ACTN    H1  800   2.852   1.392   6.178  1.3599 -0.8734  0.0959
   34ACTN    H2  801   2.794   1.423   6.015 -2.4357 -0.6039 -1.0004
   34ACTN    H3  802   2.785   1.264   6.089  0.5133  0.2317 -3.2432
   35ACTN    H6  803   0.879   7.237   2.431 -1.6037 -2.0798  1.7663
   35ACTN    C3  804   0.778   7.253   2.392 -0.3873 -0.0686 -0.6265
   35ACTN    H4  805   0.734   7.337   2.446 -0.0478 -0.0611 -0.3585
   35ACTN    H5  806   0.776   7.282   2.286 -1.6733 -0.1799 -0.6324
   35ACTN    C2  807   0.702   7.130   2.411  0.0880 -0.0472  0.4918
   35ACTN    O1  808   0.762   7.032   2.462 -0.1303 -0.1396 -0.1148
   35ACTN    C1  809   0.544   7.139   2.398 -0.1463 -0.4856 -0.3892
   35ACTN    H1  810   0.503   7.236   2.367  2.4761  0.7940  0.0557
   35ACTN    H2  811   0.511   7.121   2.500  0.7429 -2.2663 -0.4044
   35ACTN    H3  812   0.505   7.056   2.339 -0.7912 -1.6527  1.6306
   36ACTN    H6  813   8.460   5.463   0.021  0.8850  0.5464 -0.0819
   36ACTN    C3  814   8.508   5.441  -0.074 -0.4870 -0.5927 -0.5303
   36ACTN    H4  815   8.592   5.379  -0.045 -1.0703 -1.9861 -1.7675
   36ACTN    H5  816   8.446   5.385  -0.144  0.5419 -1.5281 -0.7168
   36ACTN    C2  817   8.556   5.575  -0.137  0.2874  0.5572  0.2939
   36ACTN    O1  818   8.503   5.619  -0.244  0.1325  0.2067 -0.1889
   36ACTN    C1  819   8.668   5.650  -0.077 -0.2577  0.2015 -0.4279
   36ACTN    H1  820   8.730   5.590  -0.011 -0.4554 -0.2497 -0.6458
   36ACTN    H2  821   8.627   5.730  -0.016  3.2769  1.5150  0.3102
   36ACTN    H3  822   8.741   5.685  -0.150  0.6948  1.3279  1.0369
   37ACTN    H6  823   5.260   8.954   7.097  3.1418  1.2064  0.5874
   37ACTN    C3  824   5.233   9.058   7.116  0.2208  0.5331  0.3784
   37ACTN    H4  825   5.328   9.111   7.108  1.3884 -1.6276 -0.6068
   37ACTN    H5  826   5.172   9.090   7.032  0.1611 -1.8800 -0.5486
   37ACTN    C2  827   5.182   9.092   7.255 -0.0324  0.0971 -0.7613
   37ACTN    O1  828   5.247   9.172   7.329  0.1456 -0.6698  0.2121
   37ACTN    C1  829   5.050   9.043   7.306 -0.8327  0.1535  0.6823
   37ACTN    H1  830   5.030   9.075   7.408  0.5578  2.1107  0.3898
   37ACTN    H2  831   5.040   8.935   7.302  2.2340 -0.2308  1.8901
   37ACTN    H3  832   4.967   9.084   7.249  0.3922 -2.6957 -3.3856
   38ACTN    H6  833   5.104   7.948   3.923 -0.5212 -3.4725 -0.6169
   38ACTN    C3  834   5.164   7.931   3.834  0.9021  0.5544 -0.5124
   38ACTN    H4  835   5.264   7.974   3.827  1.1608 -0.2086 -1.7037
   38ACTN    H5  836   5.170   7.823   3.832 -0.1872  0.3901  2.7818
   38ACTN    C2  837   5.089   7.970   3.706  0.8138 -0.3548 -0.6941
   38ACTN    O1  838   5.134   7.924   3.603  0.5472 -0.0639 -0.2759
   38ACTN    C1  839   4.953   8.031   3.720  0.0972 -1.1263  0.1222
   38ACTN    H1  840   4.897   7.986   3.802  1.5638 -4.4776 -0.6238
   38ACTN    H2  841   4.894   8.011   3.630 -0.2701  2.6110 -0.5463
   38ACTN    H3  842   4.966   8.139   3.728  0.7354 -1.2108  0.2789
   39ACTN    H6  843   0.022   6.181   2.060 -0.8973 -0.6650  0.4818
   39ACTN    C3  844   0.006   6.144   1.959  1.3524 -0.7301  0.1220
   39ACTN    H4  845   0.001   6.225   1.887  1.1480 -1.9068 -1.2055
   39ACTN    H5  846   0.092   6.083   1.931  1.3863 -0.1197 -1.1544
   39ACTN    C2  847  -0.131   6.078   1.954  0.1462  0.1718 -0.2347
   39ACTN    O1  848  -0.162   5.999   2.043  0.3984  0.3423 -0.4726
   39ACTN    C1  849  -0.227   6.107   1.841 -0.9576  0.3411 -0.3302
   39ACTN    H1  850  -0.188   6.172   1.763  0.4025 -1.3120 -1.0632
   39ACTN    H2  851  -0.322   6.145   1.880 -1.0517 -0.2901  0.0665
   39ACTN    H3  852  -0.240   6.008   1.797 -0.6208 -0.8145  2.1029
   40ACTN    H6  853   1.757   3.621   5.982 -1.9706 -0.4566  0.0726
   40ACTN    C3  854   1.744   3.675   5.889 -0.6151  0.2854  0.3050
   40ACTN    H4  855   1.662   3.745   5.903  0.1432  1.2086  0.2278
   40ACTN    H5  856   1.836   3.733   5.875 -1.0728  0.7527 -0.8496
   40ACTN    C2  857   1.719   3.589   5.768 -0.1770  0.9178  0.0549
   40ACTN    O1  858   1.747   3.624   5.654 -0.1758  0.0268 -0.5777
   40ACTN    C1  859   1.658   3.455   5.796  0.1447  1.0472  0.1881
   40ACTN    H1  860   1.558   3.446   5.754  0.3276  3.1490 -0.7795
   40ACTN    H2  861   1.640   3.455   5.903  0.8814  1.2779  0.3128
   40ACTN    H3  862   1.722   3.375   5.760  0.5041  0.6603  1.6774
   41ACTN    H6  863   1.241   5.285   8.803 -1.8964  0.2719 -0.0283
   41ACTN    C3  864   1.219   5.178   8.801  0.4361 -0.2396  0.3654
   41ACTN    H4  865   1.309   5.126   8.834  0.4776 -0.1180  0.4459
   41ACTN    H5  866   1.204   5.150   8.697  0.8936  0.4614  0.1019
   41ACTN    C2  867   1.105   5.148   8.883  0.2126 -0.2169  0.5024
   41ACTN    O1  868   1.103   5.046   8.946  0.2406  0.1155  0.1096
   41ACTN    C1  869   0.996   5.252   8.896  0.3976 -0.4145 -0.6413
   41ACTN    H1  870   1.035   5.340   8.845 -0.7559 -0.2425 -1.2433
   41ACTN    H2  871   0.977   5.288   8.997  1.0460  0.6906 -0.9118
   41ACTN    H3  872   0.899   5.219   8.857 -0.0832 -2.1748  1.8853
   42ACTN    H6  873   0.025   1.134   5.885  0.6580 -0.2472  2.4266
   42ACTN    C3  874   0.112   1.197   5.868 -0.1903  0.1713 -0.5597
   42ACTN    H4  875   0.097   1.274   5.792 -2.1615  1.2585  0.8786
   42ACTN    H5  876   0.128   1.236   5.968 -1.6118 -0.2446 -0.1512
   42ACTN    C2  877   0.230   1.117   5.811 -0.5106  0.2521 -1.1584
   42ACTN    O1  878   0.226   0.989   5.806 -0.2783  0.9070 -0.2830
   42ACTN    C1  879   0.361   1.184   5.779  0.1754 -0.2498  0.2879
   42ACTN    H1  880   0.413   1.123   5.705  0.6657  0.7414 -0.2054
   42ACTN    H2  881   0.420   1.217   5.864 -0.9273  1.1834  0.5384
   42ACTN    H3  882   0.332   1.279   5.733  0.3784  0.0749  0.8281
   43ACTN    H6  883   3.160   3.623   8.350 -0.8777 -2.1761  0.8984
   43ACTN    C3  884   3.091   3.693   8.397  0.4214 -0.7201  0.6777
   43ACTN    H4  885   2.998   3.657   8.441 -0.6713 -0.1689 -1.1630
   43ACTN    H5  886   3.134   3.735   8.488 -2.4991  3.9176  0.0339
   43ACTN    C2  887   3.074   3.800   8.292 -1.0061 -0.0616 -0.1714
   43ACTN    O1  888   3.173   3.862   8.248 -0.7446  0.6732  0.0484
   43ACTN    C1  889   2.936   3.822   8.238 -0.0180 -0.8066 -0.1087
   43ACTN    H1  890   2.939   3.894   8.156  0.8744 -0.1349  0.5123
   43ACTN    H2  891   2.869   3.864   8.313  0.4658 -1.6377  0.7938
   43ACTN    H3  892   2.888   3.728   8.209  1.5520 -1.6881  0.1246
   44ACTN    H6  893   0.746   8.111   3.672 -0.3929  0.4298  0.5311
   44ACTN    C3  894   0.746   8.029   3.600  0.6419  1.0649 -0.2145
   44ACTN    H4  895   0.849   7.994   3.589 -0.6858 -2.6149 -1.8180
   44ACTN    H5  896   0.688   7.946   3.640  0.5580  1.6610  0.9139
   44ACTN    C2  897   0.696   8.079   3.470  0.6817  0.2128  0.2744
   44ACTN    O1  898   0.605   8.018   3.412  0.3439  0.4822  0.2993
   44ACTN    C1  899   0.746   8.209   3.425  0.4028  0.1751 -0.0308
   44ACTN    H1  900   0.661   8.270   3.394  0.4375 -0.0234 -0.5060
   44ACTN    H2  901   0.811   8.190   3.340  0.5858 -1.2135  0.4124
   44ACTN    H3  902   0.801   8.269   3.498  1.6018  0.4176 -1.1175
   45ACTN    H6  903   1.799   0.834   2.915 -1.0388 -0.5871 -0.2653
   45ACTN    C3  904   1.721   0.891   2.864 -0.0254  0.6339 -0.4859
   45ACTN    H4  905   1.632   0.838   2.899  1.4789 -1.8644 -0.3522
   45ACTN    H5  906   1.740   0.995   2.887 -0.2353 -0.0997  3.2739
   45ACTN    C2  907   1.748   0.853   2.716  0.2926  0.8546  0.3749
   45ACTN    O1  908   1.657   0.874   2.637 -0.0477 -0.0532  0.0786
   45ACTN    C1  909   1.876   0.774   2.681  0.1681  0.1801 -0.4842
   45ACTN    H1  910   1.908   0.732   2.776  0.2259  0.9545 -0.1560
   45ACTN    H2  911   1.968   0.826   2.651  1.3880  0.0019  2.8123
   45ACTN    H3  912   1.850   0.701   2.605 -0.8934 -0.2156  0.2575
   46ACTN    H6  913   2.285   8.084   1.622  0.6576  0.8738 -2.6025
   46ACTN    C3  914   2.386   8.093   1.661  0.1677 -0.6530 -0.9315
   46ACTN    H4  915   2.464   8.105   1.585  1.8300  2.7147  1.1889
   46ACTN    H5  916   2.402   8.007   1.727 -1.7155  0.1843  0.6618
   46ACTN    C2  917   2.385   8.223   1.734 -0.0536 -0.7883  0.4437
   46ACTN    O1  918   2.396   8.221   1.855  0.2531 -0.1667  0.2518
   46ACTN    C1  919   2.357   8.353   1.656 -0.0796 -0.1042 -1.2347
   46ACTN    H1  920   2.446   8.388   1.605 -0.5551  2.7296 -0.2547
   46ACTN    H2  921   2.330   8.440   1.717 -0.2290 -1.5246  0.7711
   46ACTN    H3  922   2.289   8.331   1.574 -1.8020 -2.1996  0.6856
   47ACTN    H6  923   0.380   3.085   8.885  1.2509 -1.5074  1.1062
   47ACTN    C3  924   0.362   3.039   8.788 -0.0952 -0.3067  0.7759
   47ACTN    H4  925   0.271   2.980   8.797  0.2432 -0.6904  1.8033
   47ACTN    H5  926   0.349   3.117   8.713  1.0310  0.0378  0.9334
   47ACTN    C2  927   0.483   2.957   8.756 -0.1884 -0.1436  0.1073
   47ACTN    O1  928   0.479   2.884   8.661  0.8643  0.1897  0.1870
   47ACTN    C1  929   0.607   2.956   8.841  0.0979  0.1942  0.2946
   47ACTN    H1  930   0.604   3.031   8.920  0.9766  1.9770 -1.3243
   47ACTN    H2  931   0.690   2.979   8.774 -0.5107 -0.9471 -0.8801
   47ACTN    H3  932   0.620   2.855   8.881  1.2995  0.1268 -0.2401
   48ACTN    H6  933   6.069   8.609   4.918 -1.4968 -0.8903  1.0371
   48ACTN    C3  934   6.135   8.650   4.994 -0.2120 -0.2233 -0.4061
   48ACTN    H4  935   6.240   8.647   4.963  0.1667 -0.3431  0.8324
   48ACTN    H5  936   6.111   8.755   5.009  1.0933  0.5030 -3.0391
   48ACTN    C2  937   6.142   8.596   5.136 -0.7644  0.2804 -0.5174
   48ACTN    O1  938   6.254   8.584   5.191 -0.0720  0.2260  0.1992
   48ACTN    C1  939   6.019   8.574   5.223 -0.5126  0.6331  0.7343
   48ACTN    H1  940   6.015   8.483   5.283 -0.2732 -1.1994 -1.9455
   48ACTN    H2  941   5.940   8.567   5.148 -1.3502  0.1146  1.6552
   48ACTN    H3  942   5.989   8.655   5.290 -0.2296  0.2015  1.3934
   49ACTN    H6  943   8.453   2.133   1.153 -1.2945  0.1823  1.4121
   49ACTN    C3  944   8.515   2.222   1.165 -0.4649 -0.0550 -1.0241
   49ACTN    H4  945   8.566   2.243   1.070 -3.1776 -1.0489 -2.7744
   49ACTN    H5  946   8.448   2.306   1.182 -0.9885 -0.6095 -0.2951
   49ACTN    C2  947   8.614   2.205   1.272  0.5859  0.4608 -0.4269
   49ACTN    O1  948   8.666   2.091   1.285  0.1574  0.1744  0.2333
   49ACTN    C1  949   8.669   2.300   1.365 -0.9462  0.1587  0.0037
   49ACTN    H1  950   8.772   2.290   1.400 -1.2943  0.2590  1.1012
   49ACTN    H2  951   8.600   2.283   1.448 -0.2268  3.0408  1.2683
   49ACTN    H3  952   8.663   2.404   1.333  0.7131  1.1581  2.7247
   50ACTN    H6  953   1.463   1.120   4.044 -2.6237 -1.4783 -0.0226
   50ACTN    C3  954   1.469   1.128   3.935  0.2261  0.4816  0.2342
   50ACTN    H4  955   1.448   1.030   3.892 -0.0068  0.5716  0.1408
   50ACTN    H5  956   1.390   1.198   3.907  0.7373 -0.3288 -3.5077
   50ACTN    C2  957   1.609   1.175   3.893  0.2428 -0.0893  0.4062
   50ACTN    O1  958   1.654   1.279   3.942  0.8610 -0.4322  0.0817
   50ACTN    C1  959   1.693   1.089   3.801  0.0856  0.3153  0.0724
   50ACTN    H1  960   1.767   1.142   3.742  1.1172 -0.7939  0.3524
   50ACTN    H2  961   1.625   1.030   3.740  0.6911  0.3625 -0.6488
   50ACTN    H3  962   1.754   1.019   3.858 -1.6458 -0.4786  1.0090
   51ACTN    H6  963   3.097   7.892   3.701  0.2401  2.5067 -0.4006
   51ACTN    C3  964   2.990   7.911   3.712 -0.0835  0.5156  0.2929
   51ACTN    H4  965   2.957   7.959   3.619  2.6901 -1.2491 -1.6696
   51ACTN    H5  966   2.932   7.822   3.732  0.0924  0.6054  1.2142
   51ACTN    C2  967   2.969   8.008   3.821 -0.0224 -0.4630 -0.3488
   51ACTN    O1  968   2.854   8.061   3.827 -0.0755 -0.0374  0.2225
   51ACTN    C1  969   3.066   8.028   3.933 -0.0345 -0.2733  0.5846
   51ACTN    H1  970   3.162   7.978   3.916  0.0987  0.0023  0.5178
   51ACTN    H2  971   3.026   8.003   4.031 -2.9539 -1.5592 -0.8814
   51ACTN    H3  972   3.089   8.134   3.941 -1.6655  0.0503  1.1290
   52ACTN    H6  973   4.383   0.044   1.683 -1.1657  0.4291 -1.1327
   52ACTN    C3  974   4.287   0.063   1.731 -0.7750 -0.4144 -0.0164
   52ACTN    H4  975   4.252  -0.026   1.784 -1.3734  1.4637  2.8367
   52ACTN    H5  976   4.303   0.148   1.797 -0.5412  0.6397 -1.4284
   52ACTN    C2  977   4.189   0.102   1.629 -0.0725 -0.3244 -0.2013
   52ACTN    O1  978   4.087   0.158   1.665 -0.6440  0.6943 -0.3408
   52ACTN    C1  979   4.229   0.062   1.490  0.5681  0.1094 -0.0480
   52ACTN    H1  980   4.247  -0.046   1.493 -0.1263  0.0085  0.4939
   52ACTN    H2  981   4.328   0.103   1.468  0.0274  0.8250 -1.1849
   52ACTN    H3  982   4.159   0.095   1.413  1.2749  1.5337 -0.0959
   53ACTN    H6  983   8.052   1.986   1.424  1.0656  1.3283 -0.9975
   53ACTN    C3  984   8.018   1.940   1.331 -0.0127  0.1160 -0.0134
   53ACTN    H4  985   8.063   1.842   1.318  0.4235  0.2877  0.1993
   53ACTN    H5  986   7.910   1.926   1.339 -0.2806  1.2132 -1.4298
   53ACTN    C2  987   8.047   2.030   1.220  0.3632  0.8341 -0.6977
   53ACTN    O1  988   8.162   2.066   1.207 -0.2942 -0.1889 -0.0591
   53ACTN    C1  989   7.942   2.083   1.128  0.0611  0.1891  0.0487
   53ACTN    H1  990   7.848   2.059   1.177  0.6362 -1.2739  0.4379
   53ACTN    H2  991   7.955   2.035   1.031 -0.7189  0.4297 -0.1763
   53ACTN    H3  992   7.954   2.191   1.116 -0.1452 -0.0929 -2.9878
   54ACTN    H6  993   3.661   0.452   5.707  0.9398  1.3374 -1.4697
   54ACTN    C3  994   3.607   0.395   5.632  0.5848 -0.2942  0.0046
   54ACTN    H4  995   3.597   0.459   5.545  1.0368 -0.2299 -0.0007
   54ACTN    H5  996   3.667   0.312   5.592  0.0047  0.0162 -1.5352
   54ACTN    C2  997   3.480   0.343   5.668  0.3733 -0.6193  1.0364
   54ACTN    O1  998   3.435   0.239   5.611  0.3897 -0.0931 -0.0133
   54ACTN    C1  999   3.418   0.381   5.798 -0.1145 -0.1315  0.4159
   54ACTN    H1 1000   3.494   0.356   5.872 -1.4822  0.1425  1.9266
   54ACTN    H2 1001   3.327   0.322   5.811 -0.8803 -0.0742 -3.7800
   54ACTN    H3 1002   3.391   0.486   5.806 -0.2877 -0.3082  2.2507
   55ACTN    H6 1003   8.426   6.994   3.137 -0.5770 -0.9216 -0.7432
   55ACTN    C3 1004   8.472   7.029   3.045 -0.3969  0.5313 -0.1182
   55ACTN    H4 1005   8.422   6.988   2.957  0.2155 -2.2482  0.7683
   55ACTN    H5 1006   8.459   7.136   3.058  1.9141  0.6229  1.8505
   55ACTN    C2 1007   8.610   6.993   3.038  0.4923  0.1346 -0.1812
   55ACTN    O1 1008   8.663   6.929   3.132 -0.0152 -0.3456 -0.0711
   55ACTN    C1 1009   8.683   6.998   2.905 -0.0467 -0.7502 -0.8580
   55ACTN    H1 1010   8.790   6.983   2.926 -0.3514  1.0662  2.3283
   55ACTN    H2 1011   8.683   7.083   2.838  2.0055  0.0367  0.0729
   55ACTN    H3 1012   8.641   6.911   2.855 -0.9168 -1.4376  1.0197
   56ACTN    H6 1013   7.804   1.079   6.610  3.4976 -1.4328  0.2412
   56ACTN    C3 1014   7.775   0.988   6.558 -0.3959 -0.0678 -0.1462
   56ACTN    H4 1015   7.869   0.934   6.549  0.7341  1.7953  0.2624
   56ACTN    H5 1016   7.707   0.941   6.630  0.9593  0.7739  1.7200
   56ACTN    C2 1017   7.722   1.015   6.420 -0.1025  0.2711 -0.4506
   56ACTN    O1 1018   7.751   0.944   6.323  0.2424 -0.0404 -0.5613
   56ACTN    C1 1019   7.601   1.100   6.405  0.6779 -0.4774  0.3915
   56ACTN    H1 1020   7.613   1.177   6.482  0.7794 -1.7779  1.7052
   56ACTN    H2 1021   7.517   1.032   6.422  1.6993 -1.5517  1.2395
   56ACTN    H3 1022   7.573   1.149   6.312 -1.2758  0.0751  1.2494
   57ACTN    H6 1023   6.594   5.451   3.045 -0.6939  1.3986 -1.0589
   57ACTN    C3 1024   6.523   5.369   3.056  0.7116  0.2347 -0.3978
   57ACTN    H4 1025   6.469   5.380   3.150 -1.5170  0.1217 -1.6257
   57ACTN    H5 1026   6.452   5.390   2.976  1.0591 -0.3582 -0.8731
   57ACTN    C2 1027   6.583   5.231   3.055  0.6633 -0.3628  1.2793
   57ACTN    O1 1028   6.684   5.213   3.115 -0.1928 -0.1006  0.4370
   57ACTN    C1 1029   6.514   5.118   2.981 -0.4794  0.4501  0.3112
   57ACTN    H1 1030   6.406   5.123   2.991 -0.5774  1.7226 -1.2742
   57ACTN    H2 1031   6.547   5.019   3.015  1.2676  0.8561 -0.1148
   57ACTN    H3 1032   6.534   5.116   2.874 -2.3021  1.3635 -0.0611
   58ACTN    H6 1033   7.407   2.177   6.185  1.0181  2.0460  0.9218
   58ACTN    C3 1034   7.325   2.233   6.142  0.0940  0.0448 -0.0096
   58ACTN    H4 1035   7.363   2.282   6.052 -0.7530  0.1061 -0.3406
   58ACTN    H5 1036   7.239   2.169   6.124  1.1176 -1.5347  0.6479
   58ACTN    C2 1037   7.294   2.325   6.261 -0.8860 -0.0717  0.0929
   58ACTN    O1 1038   7.228   2.415   6.228 -0.5186  0.1688 -0.2686
   58ACTN    C1 1039   7.303   2.270   6.398 -0.5031 -0.2602  0.0932
   58ACTN    H1 1040   7.403   2.288   6.437 -0.8789  1.9677  0.0671
   58ACTN    H2 1041   7.277   2.165   6.383  1.3737 -0.5147 -1.5962
   58ACTN    H3 1042   7.237   2.320   6.469  1.2542  0.4676  1.2270
   59ACTN    H6 1043   1.667   2.368   6.120  0.7952 -1.6164  0.4288
   59ACTN    C3 1044   1.599   2.345   6.203 -0.0728  0.1688  0.2568
   59ACTN    H4 1045   1.640   2.251   6.239 -0.9985  0.7965  3.0344
   59ACTN    H5 1046   1.499   2.342   6.161  0.7042  1.0204 -1.6980
   59ACTN    C2 1047   1.625   2.444   6.321  0.1937 -0.2118  0.7154
   59ACTN    O1 1048   1.661   2.412   6.435 -0.5138  0.0361 -0.0059
   59ACTN    C1 1049   1.599   2.590   6.305 -0.1856 -0.5982 -0.1467
   59ACTN    H1 1050   1.492   2.611   6.315 -0.1428 -0.7702  0.7100
   59ACTN    H2 1051   1.629   2.621   6.205 -0.6601  0.3815  0.0078
   59ACTN    H3 1052   1.659   2.651   6.373 -1.3048 -1.4950  1.6773
   60ACTN    H6 1053   6.897   3.466   3.910  0.9257  1.6178 -0.2911
   60ACTN    C3 1054   6.945   3.397   3.980 -0.8092  0.0246 -0.6300
   60ACTN    H4 1055   6.891   3.302   3.979  1.0497 -1.0801  1.1424
   60ACTN    H5 1056   7.042   3.384   3.931 -1.5887  1.6987 -2.7243
   60ACTN    C2 1057   6.959   3.472   4.104  0.2174 -0.2446  0.0220
   60ACTN    O1 1058   7.052   3.443   4.184 -0.1548  0.0646  0.3665
   60ACTN    C1 1059   6.892   3.599   4.110 -0.2364  0.8117  1.0610
   60ACTN    H1 1060   6.837   3.605   4.205 -0.7505 -0.0257  0.8169
   60ACTN    H2 1061   6.820   3.610   4.029 -0.3725  2.0047  1.3366
   60ACTN    H3 1062   6.963   3.682   4.102 -0.9060  1.5035  2.1312
   61ACTN    H6 1063   8.410   2.024   4.705 -0.7291  0.5907 -1.3411
   61ACTN    C3 1064   8.492   2.095   4.713 -0.3926  0.1127 -0.4362
   61ACTN    H4 1065   8.462   2.199   4.722 -2.1626 -0.5379  1.3617
   61ACTN    H5 1066   8.531   2.074   4.812 -1.8713 -0.0688  0.1136
   61ACTN    C2 1067   8.595   2.073   4.605  0.0327 -0.7559 -0.3979
   61ACTN    O1 1068   8.618   1.950   4.589 -0.1701 -0.3648 -0.1481
   61ACTN    C1 1069   8.642   2.183   4.523  0.1417  0.0029 -0.3862
   61ACTN    H1 1070   8.724   2.137   4.466  0.3222 -0.5327  0.3014
   61ACTN    H2 1071   8.684   2.273   4.568 -0.7542  1.1347 -1.7395
   61ACTN    H3 1072   8.558   2.216   4.462 -0.0729  0.3105  0.0751
   62ACTN    H6 1073   7.982   1.158   3.722  0.3788  2.5291 -1.6196
   62ACTN    C3 1074   8.076   1.129   3.674  0.1970 -0.3622 -0.3369
   62ACTN    H4 1075   8.150   1.143   3.752  0.0627  1.6713 -0.5372
   62ACTN    H5 1076   8.088   1.189   3.583 -0.8033  1.7600  0.8986
   62ACTN    C2 1077   8.053   0.992   3.629  0.1381  0.0221  0.2579
   62ACTN    O1 1078   8.147   0.910   3.645  0.6773  0.3069 -0.4802
   62ACTN    C1 1079   7.943   0.960   3.539 -0.1345 -0.2913 -0.1091
   62ACTN    H1 1080   7.943   1.020   3.448  0.3939  1.8175  1.2485
   62ACTN    H2 1081   7.851   0.989   3.589 -0.0408 -0.5918  0.2429
   62ACTN    H3 1082   7.928   0.855   3.514 -4.2144  0.4784 -1.2783
   63ACTN    H6 1083   2.056   6.958   5.660 -0.3308  2.0429  0.1965
   63ACTN    C3 1084   2.165   6.950   5.662 -0.4517  0.1990  0.4124
   63ACTN    H4 1085   2.200   6.928   5.763 -1.2098 -0.1344  0.6053
   63ACTN    H5 1086   2.199   6.872   5.594 -0.8476 -0.0099  0.4554
   63ACTN    C2 1087   2.231   7.073   5.604  0.1125 -0.5494  0.7020
   63ACTN    O1 1088   2.230   7.181   5.659  0.5587 -0.3926 -0.1143
   63ACTN    C1 1089   2.240   7.078   5.457  0.3402  0.0266  0.0299
   63ACTN    H1 1090   2.193   6.991   5.410  1.6396  1.2456 -3.7180
   63ACTN    H2 1091   2.344   7.075   5.424  0.1551  0.2058 -0.5875
   63ACTN    H3 1092   2.197   7.163   5.405  2.1323  0.8434 -0.1606
   64ACTN    H6 1093   5.989   2.422   5.670 -0.3303 -1.0561  1.9512
   64ACTN    C3 1094   6.091   2.403   5.636 -0.4131  0.4898  0.7832
   64ACTN    H4 1095   6.142   2.496   5.611  0.6325  0.1506  1.6458
   64ACTN    H5 1096   6.145   2.342   5.708  0.8138  1.0860  0.3777
   64ACTN    C2 1097   6.073   2.319   5.508 -0.5258  0.2349  0.3227
   64ACTN    O1 1098   5.958   2.291   5.472 -0.7737  0.2548 -0.0891
   64ACTN    C1 1099   6.189   2.248   5.457  0.0351 -0.0620 -0.0099
   64ACTN    H1 1100   6.195   2.149   5.504 -1.8977 -1.7630 -3.1257
   64ACTN    H2 1101   6.281   2.300   5.480 -0.9645  1.2245  1.1201
   64ACTN    H3 1102   6.177   2.232   5.349  0.2749  0.4908 -0.1163
   65ACTN    H6 1103   4.150   3.526   8.198  2.2473 -0.8898  2.3297
   65ACTN    C3 1104   4.225   3.550   8.123 -0.1573  0.2449  0.2035
   65ACTN    H4 1105   4.261   3.649   8.150 -2.0740  0.5117  1.8749
   65ACTN    H5 1106   4.303   3.474   8.116  0.7778  1.2019 -0.0238
   65ACTN    C2 1107   4.149   3.533   7.995 -0.9990  0.5918 -0.7427
   65ACTN    O1 1108   4.191   3.605   7.909 -0.2169  0.3721 -0.3670
   65ACTN    C1 1109   4.008   3.483   7.990  0.1144 -0.0616  0.3332
   65ACTN    H1 1110   3.969   3.481   7.888  2.9980 -2.2516 -0.8041
   65ACTN    H2 1111   3.941   3.543   8.051  0.9967 -0.4030  1.6619
   65ACTN    H3 1112   3.991   3.381   8.023  1.4953  0.0526  1.4281
   66ACTN    H6 1113   2.385   6.821   4.846 -1.3653 -1.9256 -1.1671
   66ACTN    C3 1114   2.468   6.764   4.803  0.5187 -0.1862  0.0969
   66ACTN    H4 1115   2.527   6.835   4.746 -1.2792  1.2917  0.0222
   66ACTN    H5 1116   2.527   6.737   4.891 -1.9524  0.6844  2.1078
   66ACTN    C2 1117   2.439   6.649   4.714 -0.0590 -0.0140 -0.4967
   66ACTN    O1 1118   2.526   6.565   4.691  0.5368  0.1630 -0.3283
   66ACTN    C1 1119   2.291   6.614   4.689  0.3700 -0.0076 -0.8016
   66ACTN    H1 1120   2.261   6.665   4.598 -1.1382  0.1754 -0.2198
   66ACTN    H2 1121   2.230   6.661   4.767  0.5143 -2.3400  0.7515
   66ACTN    H3 1122   2.272   6.509   4.671  0.1310  0.3119 -2.4696
   67ACTN    H6 1123   3.733   5.210   1.144 -0.9130 -0.2734 -0.9281
   67ACTN    C3 1124   3.832   5.170   1.122 -0.5633  0.1496 -0.1389
   67ACTN    H4 1125   3.890   5.139   1.209 -0.8168  0.7203  0.2407
   67ACTN    H5 1126   3.835   5.087   1.052 -0.0601 -0.3148  0.4284
   67ACTN    C2 1127   3.917   5.277   1.082  0.1303  0.3818  0.0786
   67ACTN    O1 1128   3.974   5.295   0.973 -0.7049 -0.1548 -0.3323
   67ACTN    C1 1129   3.950   5.373   1.183 -0.7237  0.4105  0.1834
   67ACTN    H1 1130   4.007   5.462   1.155  1.8165 -1.8491 -2.2039
   67ACTN    H2 1131   4.018   5.319   1.249 -0.1084  0.1451 -0.6539
   67ACTN    H3 1132   3.859   5.394   1.239 -0.9361 -0.4133  0.1495
   68ACTN    H6 1133   3.614   2.862   2.649 -0.8178  1.0886  0.3171
   68ACTN    C3 1134   3.692   2.921   2.697  0.1678  0.1855 -0.1378
   68ACTN    H4 1135   3.681   2.901   2.804 -2.4352 -0.1474 -0.4298
   68ACTN    H5 1136   3.786   2.885   2.656 -0.3749 -2.5317  0.9097
   68ACTN    C2 1137   3.675   3.063   2.673  0.2015  0.0375  0.3677
   68ACTN    O1 1138   3.593   3.100   2.601  0.3046 -0.2330 -0.1503
   68ACTN    C1 1139   3.781   3.153   2.714 -0.3836 -0.8584 -0.9735
   68ACTN    H1 1140   3.841   3.204   2.639  0.8766  1.0200  1.2426
   68ACTN    H2 1141   3.856   3.108   2.779  0.8960  1.3206 -0.9115
   68ACTN    H3 1142   3.732   3.232   2.771 -0.5586 -0.6241 -1.4498
   69ACTN    H6 1143   8.490   1.153   2.184  0.2715  1.4433  2.3200
   69ACTN    C3 1144   8.550   1.081   2.239  0.2629 -0.4764 -0.0725
   69ACTN    H4 1145   8.582   0.999   2.176 -0.8399  0.0186 -1.2859
   69ACTN    H5 1146   8.642   1.125   2.277  0.0646  0.7320 -0.9777
   69ACTN    C2 1147   8.449   1.024   2.336  0.4187  0.5592  0.4741
   69ACTN    O1 1148   8.475   0.984   2.452  0.3993  0.2765 -0.2805
   69ACTN    C1 1149   8.312   1.003   2.277 -0.2964  0.4912  0.1866
   69ACTN    H1 1150   8.291   0.896   2.280 -0.5490  0.5116 -0.8765
   69ACTN    H2 1151   8.302   1.036   2.174 -0.9830  1.3410  0.5175
   69ACTN    H3 1152   8.238   1.060   2.334  0.1074  2.1148 -0.8806
   70ACTN    H6 1153   2.793   4.272   3.252  1.4800 -2.7278  1.0530
   70ACTN    C3 1154   2.881   4.289   3.190 -0.0051 -0.8751 -0.5880
   70ACTN    H4 1155   2.879   4.392   3.153 -2.9602  0.2397  2.4218
   70ACTN    H5 1156   2.967   4.276   3.255 -1.8250 -1.0107  1.8692
   70ACTN    C2 1157   2.888   4.185   3.086  0.2099  0.1407 -0.2345
   70ACTN    O1 1158   2.990   4.129   3.054  0.0232  0.1865  0.3727
   70ACTN    C1 1159   2.758   4.146   3.015  0.5476 -0.0156 -0.4171
   70ACTN    H1 1160   2.686   4.224   3.042  0.3557  0.0029 -0.9674
   70ACTN    H2 1161   2.711   4.056   3.056  0.9979  0.6892  1.7040
   70ACTN    H3 1162   2.777   4.133   2.909 -3.8019  2.3312 -1.6239
   71ACTN    H6 1163   5.819   3.526   3.837  1.1385 -1.5563 -0.3286
   71ACTN    C3 1164   5.863   3.563   3.744  0.0071  0.6381 -0.0191
   71ACTN    H4 1165   5.972   3.559   3.738 -0.0630  0.5093 -1.3883
   71ACTN    H5 1166   5.849   3.671   3.740 -0.8438  0.7053  3.4112
   71ACTN    C2 1167   5.809   3.491   3.627  0.2945  0.6469 -0.3793
   71ACTN    O1 1168   5.770   3.374   3.634  0.1465  0.1875  0.2593
   71ACTN    C1 1169   5.773   3.576   3.512  0.0178  0.3953 -0.3535
   71ACTN    H1 1170   5.695   3.645   3.543  0.9457  1.4831 -0.3846
   71ACTN    H2 1171   5.746   3.519   3.423  3.6835 -0.7919 -0.7930
   71ACTN    H3 1172   5.867   3.624   3.485  2.3642 -3.2986  0.7925
   72ACTN    H6 1173   4.148   4.799   8.395 -2.5087  0.3005 -0.8604
   72ACTN    C3 1174   4.157   4.885   8.462  0.2890 -0.3473 -0.3487
   72ACTN    H4 1175   4.084   4.879   8.542  1.7687  1.2686  1.1585
   72ACTN    H5 1176   4.258   4.880   8.503 -0.3525 -1.1241  1.1991
   72ACTN    C2 1177   4.132   5.015   8.396  0.3487 -0.2835 -0.0548
   72ACTN    O1 1178   4.021   5.014   8.346 -0.0071  0.4236  0.4932
   72ACTN    C1 1179   4.233   5.134   8.397  0.3369  0.5021 -0.8383
   72ACTN    H1 1180   4.310   5.112   8.323  0.8022 -0.5145 -0.0760
   72ACTN    H2 1181   4.281   5.156   8.493 -0.7023 -0.9088  0.0201
   72ACTN    H3 1182   4.181   5.222   8.361 -2.1540 -1.2353 -1.5876
   73ACTN    H6 1183   8.881   0.939   4.636  0.7221  0.9661 -0.0704
   73ACTN    C3 1184   8.841   1.040   4.638  0.1088  0.7370 -0.3899
   73ACTN    H4 1185   8.924   1.097   4.595  0.7676 -1.2236 -1.7629
   73ACTN    H5 1186   8.757   1.043   4.569  0.0930  1.0929 -0.3549
   73ACTN    C2 1187   8.805   1.078   4.776 -0.0555  0.5842 -0.1176
   73ACTN    O1 1188   8.688   1.046   4.805 -0.7123 -0.4768  0.3963
   73ACTN    C1 1189   8.911   1.133   4.876 -0.6829  0.2550  0.0292
   73ACTN    H1 1190   8.931   1.238   4.855  2.2760 -0.3920 -0.7091
   73ACTN    H2 1191   9.007   1.082   4.865 -1.2096 -0.7045 -0.1249
   73ACTN    H3 1192   8.884   1.117   4.980 -2.6014 -2.3752 -0.8295
   74ACTN    H6 1193   7.391   6.483   1.601 -0.8693  1.3224 -0.6298
   74ACTN    C3 1194   7.434   6.538   1.685 -0.7033 -0.1897  0.2889
   74ACTN    H4 1195   7.449   6.469   1.768  1.9834 -2.5010 -1.9442
   74ACTN    H5 1196   7.537   6.566   1.659 -1.0615  0.2307 -0.6982
   74ACTN    C2 1197   7.364   6.662   1.722 -1.0298 -0.3258 -0.4502
   74ACTN    O1 1198   7.258   6.659   1.785 -0.0725  0.6161 -0.2081
   74ACTN    C1 1199   7.385   6.789   1.654 -0.3460  0.1045 -0.0745
   74ACTN    H1 1200   7.444   6.784   1.563  3.1852  0.7790  2.0657
   74ACTN    H2 1201   7.447   6.852   1.718  0.5302  0.1959 -0.9981
   74ACTN    H3 1202   7.298   6.853   1.642 -0.5843 -0.3055 -0.5577
   75ACTN    H6 1203   2.842   2.766   6.044 -0.7045  1.2339  0.5198
   75ACTN    C3 1204   2.942   2.754   6.087 -0.1850 -0.3410 -1.0772
   75ACTN    H4 1205   2.999   2.694   6.015 -1.1737  0.8778 -2.9191
   75ACTN    H5 1206   2.986   2.854   6.089 -0.5659 -0.1940  1.9172
   75ACTN    C2 1207   2.938   2.689   6.225  0.5283  0.1761  0.4045
   75ACTN    O1 1208   2.965   2.761   6.322  0.8555 -0.4275  0.2202
   75ACTN    C1 1209   2.936   2.543   6.235  0.4149  0.7897  0.0614
   75ACTN    H1 1210   2.894   2.525   6.334 -2.2968 -1.0056 -1.3750
   75ACTN    H2 1211   3.035   2.498   6.232  0.2532  0.4260  0.1876
   75ACTN    H3 1212   2.876   2.495   6.158  1.4394 -2.3341  1.1290
   76ACTN    H6 1213   4.634   8.460   1.565  0.7202  0.1262  0.4952
   76ACTN    C3 1214   4.540   8.468   1.620  0.2015 -0.2566 -0.3225
   76ACTN    H4 1215   4.446   8.463   1.565 -1.2186  1.5960  1.8160
   76ACTN    H5 1216   4.549   8.382   1.686 -0.1307 -0.6877 -0.8381
   76ACTN    C2 1217   4.530   8.585   1.712 -0.5929  1.1161 -0.2577
   76ACTN    O1 1218   4.603   8.597   1.805  0.1497 -0.6157  0.2525
   76ACTN    C1 1219   4.443   8.698   1.669 -0.3394  0.6882 -0.1798
   76ACTN    H1 1220   4.502   8.789   1.681 -0.8484  0.8889  0.9054
   76ACTN    H2 1221   4.352   8.705   1.729 -0.4716 -0.9273 -0.1738
   76ACTN    H3 1222   4.416   8.681   1.565  1.3070  1.1407 -0.6838
   77ACTN    H6 1223   1.541   8.579   5.555 -2.8040  1.3103 -0.0940
   77ACTN    C3 1224   1.580   8.678   5.580  0.1151  0.1782  0.0829
   77ACTN    H4 1225   1.557   8.742   5.494  2.3443 -1.1471 -1.5468
   77ACTN    H5 1226   1.518   8.711   5.664  4.9491  1.2554  3.4322
   77ACTN    C2 1227   1.729   8.680   5.610 -0.0333 -0.1758 -0.6786
   77ACTN    O1 1228   1.803   8.765   5.565 -0.5118 -1.0043 -0.0571
   77ACTN    C1 1229   1.782   8.588   5.711  0.6110  0.4303 -0.0644
   77ACTN    H1 1230   1.852   8.520   5.662  0.5778  0.7177 -0.5129
   77ACTN    H2 1231   1.694   8.536   5.749 -0.2951  2.6612  0.9522
   77ACTN    H3 1232   1.840   8.633   5.791  2.2634  1.7882 -1.9595
   78ACTN    H6 1233   1.358   8.001   4.289 -0.3426 -0.9970  0.1916
   78ACTN    C3 1234   1.292   8.020   4.374 -0.1780 -0.0958  0.1130
   78ACTN    H4 1235   1.197   8.042   4.325 -0.3941 -0.4992  0.3585
   78ACTN    H5 1236   1.286   7.925   4.426  0.7819  0.0044  0.4227
   78ACTN    C2 1237   1.351   8.134   4.448  0.2338 -0.5908  0.0918
   78ACTN    O1 1238   1.290   8.239   4.435  0.6247 -0.1230 -0.4631
   78ACTN    C1 1239   1.490   8.126   4.500 -1.0196 -0.0417  0.0317
   78ACTN    H1 1240   1.551   8.060   4.438 -0.3379  0.8070 -0.2081
   78ACTN    H2 1241   1.487   8.075   4.596  0.5572 -0.1583  0.0399
   78ACTN    H3 1242   1.545   8.219   4.516  1.3048 -1.3602 -0.0835
   79ACTN    H6 1243   6.522   0.249   3.992 -1.9416  0.4736  0.5795
   79ACTN    C3 1244   6.557   0.263   3.890 -0.5209  0.1440  0.9946
   79ACTN    H4 1245   6.473   0.239   3.825  0.8192  0.4200 -0.8836
   79ACTN    H5 1246   6.574   0.371   3.883 -1.0450  0.2182  0.7923
   79ACTN    C2 1247   6.670   0.170   3.859  0.6795  1.0691  0.7791
   79ACTN    O1 1248   6.776   0.222   3.829 -0.5236  0.8509  0.8432
   79ACTN    C1 1249   6.648   0.021   3.827  0.3744 -0.2423  0.1230
   79ACTN    H1 1250   6.728  -0.008   3.760  2.0944  1.1812  1.4906
   79ACTN    H2 1251   6.562   0.010   3.762  0.9651 -1.1763 -0.5088
   79ACTN    H3 1252   6.649  -0.053   3.907  1.5600 -0.3038  0.0643
   80ACTN    H6 1253   8.366   0.574   8.844 -1.2851 -0.7835 -2.4982
   80ACTN    C3 1254   8.344   0.479   8.893  0.2101  0.5138  0.8564
   80ACTN    H4 1255   8.236   0.468   8.895  0.4598 -2.6509 -0.7995
   80ACTN    H5 1256   8.377   0.395   8.831  0.5203  0.2300  1.3995
   80ACTN    C2 1257   8.404   0.476   9.025  0.6409 -0.1404  0.1215
   80ACTN    O1 1258   8.465   0.373   9.059 -0.3218  0.3103  0.0128
   80ACTN    C1 1259   8.355   0.572   9.126  0.1293  0.1340  0.3218
   80ACTN    H1 1260   8.266   0.618   9.084  1.6346  1.7074 -1.2345
   80ACTN    H2 1261   8.428   0.648   9.154 -2.4309  3.1935 -1.0630
   80ACTN    H3 1262   8.324   0.513   9.213 -0.5839  0.6321  0.4093
   81ACTN    H6 1263   6.795   3.072   4.284  0.1200 -1.7853  1.4214
   81ACTN    C3 1264   6.851   3.154   4.330 -0.5929 -0.6351  0.2671
   81ACTN    H4 1265   6.900   3.209   4.249 -0.8316  1.3944  1.4635
   81ACTN    H5 1266   6.785   3.221   4.385 -0.9406 -0.4443 -0.3715
   81ACTN    C2 1267   6.950   3.089   4.416 -0.0871 -0.2976 -0.1450
   81ACTN    O1 1268   6.914   3.051   4.527 -0.4497 -0.2345 -0.7837
   81ACTN    C1 1269   7.087   3.058   4.370 -0.1376 -0.2346 -0.5197
   81ACTN    H1 1270   7.162   3.092   4.441 -0.1094 -0.8275 -0.2651
   81ACTN    H2 1271   7.104   3.115   4.278  0.0882 -1.5229 -1.2878
   81ACTN    H3 1272   7.087   2.953   4.341  1.1717 -0.3569 -0.1105
   82ACTN    H6 1273   6.940   7.335   2.861 -0.5304  0.9589  0.5361
   82ACTN    C3 1274   6.960   7.442   2.867  0.2705  0.8515 -0.1193
   82ACTN    H4 1275   6.866   7.483   2.904 -1.0198 -2.6098  0.5820
   82ACTN    H5 1276   7.041   7.458   2.939  1.1771  3.7179 -1.6651
   82ACTN    C2 1277   7.005   7.493   2.732 -0.3533 -0.5537 -0.7558
   82ACTN    O1 1278   7.113   7.454   2.688  0.1092  0.1689 -0.1345
   82ACTN    C1 1279   6.906   7.547   2.642  0.5625  0.4615 -0.6053
   82ACTN    H1 1280   6.831   7.470   2.623  0.1735  0.6014  0.3433
   82ACTN    H2 1281   6.951   7.574   2.546  1.0145  0.0923 -0.4951
   82ACTN    H3 1282   6.857   7.639   2.674  0.3863  0.3198 -0.4668
   83ACTN    H6 1283   4.473   7.601   0.753 -0.3371 -0.8679  0.8321
   83ACTN    C3 1284   4.371   7.598   0.791 -0.9029 -0.2769 -0.5751
   83ACTN    H4 1285   4.344   7.704   0.787 -0.5674 -0.2286 -1.5638
   83ACTN    H5 1286   4.304   7.546   0.723 -0.3824 -0.0906 -1.2285
   83ACTN    C2 1287   4.369   7.561   0.940  0.2571 -0.2810 -0.2533
   83ACTN    O1 1288   4.433   7.636   1.017 -0.1873  0.6834 -0.5103
   83ACTN    C1 1289   4.265   7.472   0.990 -0.1740  0.2309 -0.2772
   83ACTN    H1 1290   4.231   7.402   0.914 -2.8160  1.4608 -0.2828
   83ACTN    H2 1291   4.181   7.530   1.029 -0.5904 -0.9686  0.6461
   83ACTN    H3 1292   4.303   7.416   1.076  0.3929  1.3819  0.2299
   84ACTN    H6 1293   3.680   4.668   1.525 -0.2319  0.9461 -0.5089
   84ACTN    C3 1294   3.741   4.677   1.436 -0.5951  1.2032 -0.7302
   84ACTN    H4 1295   3.793   4.582   1.424 -1.2035  0.6209  1.2130
   84ACTN    H5 1296   3.666   4.678   1.356 -1.1865  2.8194 -0.1706
   84ACTN    C2 1297   3.824   4.794   1.433  0.5332 -0.0205  0.0136
   84ACTN    O1 1298   3.863   4.847   1.538  0.2902  1.0615  0.3310
   84ACTN    C1 1299   3.885   4.841   1.299 -0.3023  0.5969 -0.2270
   84ACTN    H1 1300   3.986   4.883   1.294  1.3806 -3.3445 -1.8538
   84ACTN    H2 1301   3.818   4.910   1.248  0.8210  1.1761 -0.9410
   84ACTN    H3 1302   3.893   4.754   1.234 -1.0372  0.3533  0.0074
   85ACTN    H6 1303   7.614   7.402   4.075 -0.3925 -1.3173 -2.3598
   85ACTN    C3 1304   7.647   7.302   4.102 -0.1692 -0.6186  0.1217
   85ACTN    H4 1305   7.641   7.248   4.007  0.1365  2.0640 -1.4610
   85ACTN    H5 1306   7.749   7.304   4.142 -0.7142 -1.1840  1.5368
   85ACTN    C2 1307   7.546   7.252   4.198 -0.3196  0.3173 -0.5250
   85ACTN    O1 1308   7.568   7.266   4.317 -0.2139 -0.9487 -0.5326
   85ACTN    C1 1309   7.446   7.148   4.161 -0.1135  0.7949 -0.5149
   85ACTN    H1 1310   7.491   7.050   4.174 -0.4249  0.4811 -1.7693
   85ACTN    H2 1311   7.418   7.169   4.058  1.3746  2.1348 -0.6733
   85ACTN    H3 1312   7.359   7.155   4.226  0.8859 -1.4322  1.0990
   86ACTN    H6 1313   3.793   3.299   1.468 -0.1127  1.2068  1.3938
   86ACTN    C3 1314   3.868   3.376   1.454  0.0021  0.7321 -0.8461
   86ACTN    H4 1315   3.965   3.334   1.429 -0.8841 -1.9240  0.0753
   86ACTN    H5 1316   3.833   3.450   1.381 -2.0909  1.5801  0.9699
   86ACTN    C2 1317   3.888   3.447   1.583 -0.3175  0.0482  0.3996
   86ACTN    O1 1318   3.963   3.544   1.579 -0.5923 -0.1965 -0.2110
   86ACTN    C1 1319   3.823   3.387   1.702 -1.0608 -0.6877  0.1375
   86ACTN    H1 1320   3.871   3.293   1.730 -0.7533 -1.3430 -2.4593
   86ACTN    H2 1321   3.722   3.359   1.672 -1.1997 -0.1043  0.0452
   86ACTN    H3 1322   3.812   3.460   1.782  1.3192  0.4334 -0.4931
   87ACTN    H6 1323   6.146   8.866   4.232  0.4311  0.5280 -0.7116
   87ACTN    C3 1324   6.085   8.776   4.219  0.3089  0.5167 -0.0627
   87ACTN    H4 1325   6.005   8.795   4.148 -0.7975 -3.9210 -0.1342
   87ACTN    H5 1326   6.149   8.699   4.175 -0.4439  0.1013 -0.4332
   87ACTN    C2 1327   6.030   8.720   4.345  0.0550  0.3211 -0.2057
   87ACTN    O1 1328   6.053   8.773   4.453 -0.1540 -0.2272  0.5389
   87ACTN    C1 1329   5.928   8.605   4.341 -0.1346  0.1520 -0.2934
   87ACTN    H1 1330   5.941   8.555   4.245 -0.9916 -0.3239 -0.1728
   87ACTN    H2 1331   5.824   8.635   4.355 -0.4360 -1.1508  0.4110
   87ACTN    H3 1332   5.956   8.533   4.418 -0.0340 -0.3551 -0.8035
   88ACTN    H6 1333   6.553   2.957   4.688 -0.0484  0.7466 -0.2373
   88ACTN    C3 1334   6.456   2.974   4.734 -0.0274  0.4370 -0.0754
   88ACTN    H4 1335   6.387   2.974   4.649  2.1285  2.7880 -1.8978
   88ACTN    H5 1336   6.427   2.889   4.795 -0.2262 -0.9149 -2.0264
   88ACTN    C2 1337   6.444   3.098   4.824 -0.0082  0.2310  0.1916
   88ACTN    O1 1338   6.529   3.184   4.823  0.2401 -0.3245 -0.0059
   88ACTN    C1 1339   6.320   3.114   4.906  0.7488  0.6611  0.3856
   88ACTN    H1 1340   6.322   3.207   4.962 -1.3349 -0.5333  2.5148
   88ACTN    H2 1341   6.310   3.027   4.971  0.9343 -1.1820 -1.9766
   88ACTN    H3 1342   6.228   3.112   4.847 -0.7963  1.0491  2.7422
   89ACTN    H6 1343   5.876   1.705   6.255 -1.3139  3.7486 -2.0369
   89ACTN    C3 1344   5.962   1.756   6.298  0.0302  0.1119 -0.1266
   89ACTN    H4 1345   6.032   1.679   6.328  1.0366 -1.0472 -5.0337
   89ACTN    H5 1346   6.005   1.812   6.215 -0.0460  1.2192  0.5606
   89ACTN    C2 1347   5.916   1.841   6.414 -0.3454  0.1613  1.0487
   89ACTN    O1 1348   5.912   1.793   6.525  0.4841 -0.5383  0.3976
   89ACTN    C1 1349   5.911   1.986   6.410  0.0328  0.5014  1.0369
   89ACTN    H1 1350   6.013   2.026   6.409  0.1653  0.1704  1.2861
   89ACTN    H2 1351   5.867   2.036   6.496  0.6299  2.5125  0.2066
   89ACTN    H3 1352   5.854   2.013   6.321 -0.8687 -0.4621  1.3225
   90ACTN    H6 1353   2.680   5.493   3.681  1.2443  2.3130  1.3723
   90ACTN    C3 1354   2.595   5.557   3.706 -0.2492  1.0460 -0.3420
   90ACTN    H4 1355   2.523   5.488   3.750 -1.4780  1.6462 -1.3717
   90ACTN    H5 1356   2.617   5.636   3.777 -0.2975  1.4079 -0.7264
   90ACTN    C2 1357   2.566   5.618   3.576  0.3131 -0.3779 -0.0627
   90ACTN    O1 1358   2.581   5.559   3.467  0.0084 -0.2430  0.2500
   90ACTN    C1 1359   2.507   5.758   3.568  0.5023 -0.8917 -0.1771
   90ACTN    H1 1360   2.584   5.836   3.567  0.7896 -1.1842 -1.1576
   90ACTN    H2 1361   2.439   5.786   3.649  0.7366 -1.5607  0.2532
   90ACTN    H3 1362   2.448   5.769   3.477 -1.3939  0.6619  1.1872
   91ACTN    H6 1363   1.494   1.144   2.753 -0.5246  0.6696 -0.7454
   91ACTN    C3 1364   1.407   1.202   2.783 -0.3079  0.4070  0.4179
   91ACTN    H4 1365   1.342   1.228   2.700 -0.9800 -1.6110  0.2857
   91ACTN    H5 1366   1.357   1.128   2.846 -0.9246 -0.3506 -0.9423
   91ACTN    C2 1367   1.446   1.330   2.847 -0.4890 -0.3546 -0.5574
   91ACTN    O1 1368   1.548   1.394   2.817 -0.4663  0.0811 -0.1238
   91ACTN    C1 1369   1.368   1.369   2.964 -0.2194 -0.5535  1.3622
   91ACTN    H1 1370   1.344   1.286   3.031  0.0650 -2.1311 -0.4590
   91ACTN    H2 1371   1.273   1.405   2.926 -0.1623 -0.2741  1.4800
   91ACTN    H3 1372   1.410   1.444   3.031  1.3075 -0.3362  0.1965
   92ACTN    H6 1373   1.173   8.059   5.320  1.3760  1.7037 -0.0609
   92ACTN    C3 1374   1.172   8.093   5.216 -0.2323  0.3157 -0.5325
   92ACTN    H4 1375   1.165   8.201   5.230  0.3551  0.2500  0.3214
   92ACTN    H5 1376   1.267   8.062   5.174 -1.0778  0.9643 -2.9799
   92ACTN    C2 1377   1.051   8.037   5.148 -0.1751 -0.5594 -0.2563
   92ACTN    O1 1378   1.062   7.979   5.039 -0.2362  0.2728 -0.4250
   92ACTN    C1 1379   0.915   8.061   5.202 -0.7999  0.0702  0.3658
   92ACTN    H1 1380   0.922   8.089   5.307 -1.1736  1.5448  0.0204
   92ACTN    H2 1381   0.863   7.966   5.193  3.1697 -2.2308  0.5997
   92ACTN    H3 1382   0.870   8.138   5.138  1.2977  1.0706  0.0317
   93ACTN    H6 1383   4.120   2.543   2.040 -1.1414  0.1194 -0.8269
   93ACTN    C3 1384   4.117   2.643   1.995  0.2117  0.2032 -0.7607
   93ACTN    H4 1385   4.016   2.684   1.988 -0.1828 -0.0538  2.4146
   93ACTN    H5 1386   4.164   2.721   2.054 -2.6615  1.3385  0.1210
   93ACTN    C2 1387   4.177   2.632   1.855 -0.1937 -0.2285 -0.4370
   93ACTN    O1 1388   4.146   2.541   1.781  0.3525 -0.4019  0.2676
   93ACTN    C1 1389   4.283   2.735   1.806 -0.0397  0.6602 -0.0081
   93ACTN    H1 1390   4.385   2.712   1.837 -0.2894 -1.0811 -0.4401
   93ACTN    H2 1391   4.255   2.836   1.835  0.8109  0.1547  2.6916
   93ACTN    H3 1392   4.281   2.730   1.697 -1.7724 -1.2990  0.0907
   94ACTN    H6 1393   3.500   0.283   2.433 -1.4969 -0.7566 -0.1290
   94ACTN    C3 1394   3.443   0.353   2.494 -0.8531 -0.4711  0.1392
   94ACTN    H4 1395   3.399   0.305   2.581 -1.5682  0.1127  0.1017
   94ACTN    H5 1396   3.365   0.401   2.435 -1.6945 -1.2279  0.6261
   94ACTN    C2 1397   3.552   0.444   2.529 -0.5262 -0.1729 -0.2696
   94ACTN    O1 1398   3.564   0.489   2.637  0.2285  0.4916 -0.3464
   94ACTN    C1 1399   3.636   0.498   2.418  0.4737 -0.1483  0.2470
   94ACTN    H1 1400   3.736   0.456   2.429  0.5557 -0.3862 -1.2960
   94ACTN    H2 1401   3.645   0.606   2.423  2.2600 -0.3028  0.5958
   94ACTN    H3 1402   3.608   0.485   2.313 -0.7834  2.3479  0.2459
   95ACTN    H6 1403   3.034   5.544   2.864 -0.2061 -0.0733  0.3425
   95ACTN    C3 1404   2.956   5.509   2.797 -0.2155 -0.1024  0.3681
   95ACTN    H4 1405   3.009   5.447   2.724  0.2820  0.0840  0.5708
   95ACTN    H5 1406   2.891   5.434   2.843  0.1067 -0.4106  0.3317
   95ACTN    C2 1407   2.896   5.629   2.724  0.1692 -0.0155 -0.1324
   95ACTN    O1 1408   2.912   5.741   2.765 -0.1081 -0.5507 -0.1378
   95ACTN    C1 1409   2.797   5.610   2.616 -0.1941 -0.7100 -0.7009
   95ACTN    H1 1410   2.754   5.510   2.613 -0.7905 -0.5148  0.9357
   95ACTN    H2 1411   2.845   5.629   2.520  1.7694 -0.9158  0.2110
   95ACTN    H3 1412   2.710   5.675   2.617  1.1916  1.2942 -3.4131
   96ACTN    H6 1413   3.663   2.923   8.490 -0.1000  1.0679  0.0859
   96ACTN    C3 1414   3.592   2.907   8.409  0.3267  0.1865 -0.1269
   96ACTN    H4 1415   3.514   2.848   8.458 -1.1472  3.1219  1.2104
   96ACTN    H5 1416   3.538   2.994   8.371 -0.2022  0.0727  0.3533
   96ACTN    C2 1417   3.630   2.835   8.291 -0.3522 -0.5403 -0.8437
   96ACTN    O1 1418   3.537   2.805   8.212  0.7401 -0.1352 -0.7269
   96ACTN    C1 1419   3.780   2.823   8.263  0.6657  0.3028  0.7360
   96ACTN    H1 1420   3.810   2.718   8.266  1.1451  0.4695  2.5177
   96ACTN    H2 1421   3.836   2.884   8.334  0.3969  0.7403  0.5755
   96ACTN    H3 1422   3.793   2.860   8.162  0.2664 -1.1206  0.1583
   97ACTN    H6 1423   5.487   8.108   4.336 -0.7646  2.3965  0.4245
   97ACTN    C3 1424   5.475   8.067   4.436 -0.1082  0.1145 -0.4087
   97ACTN    H4 1425   5.382   8.102   4.482 -1.2945  0.3185 -2.8729
   97ACTN    H5 1426   5.458   7.959   4.434  0.9732 -0.0505 -0.7575
   97ACTN    C2 1427   5.593   8.103   4.523 -0.7316 -0.6312  0.2381
   97ACTN    O1 1428   5.681   8.018   4.531 -0.4430 -0.1563 -0.6546
   97ACTN    C1 1429   5.604   8.242   4.580  0.7212  0.5700  0.8152
   97ACTN    H1 1430   5.684   8.250   4.654  1.1438 -0.4904  0.4916
   97ACTN    H2 1431   5.506   8.277   4.611 -0.1842 -1.7917  0.7387
   97ACTN    H3 1432   5.640   8.303   4.496 -1.3481 -2.4717 -2.4184
   98ACTN    H6 1433   0.664   8.410   5.518  1.9036 -1.3368  0.8927
   98ACTN    C3 1434   0.610   8.332   5.571 -0.4171 -0.0953  0.4571
   98ACTN    H4 1435   0.617   8.349   5.678  0.7643  0.5150  0.2933
   98ACTN    H5 1436   0.505   8.326   5.543 -0.3434 -1.8931  0.4894
   98ACTN    C2 1437   0.672   8.199   5.527 -0.3012 -0.2517  0.2237
   98ACTN    O1 1438   0.786   8.171   5.563  0.2284 -0.1864  0.5208
   98ACTN    C1 1439   0.575   8.095   5.468 -0.3881 -0.2747 -0.5363
   98ACTN    H1 1440   0.532   8.125   5.373  1.4647 -0.0503 -1.3208
   98ACTN    H2 1441   0.490   8.081   5.535  0.6554 -0.7344  0.7122
   98ACTN    H3 1442   0.621   7.996   5.462 -0.1860 -0.0869 -2.1598
   99ACTN    H6 1443   1.164   1.087   8.218  0.4531  0.2616 -0.2777
   99ACTN    C3 1444   1.258   1.087   8.274  0.4509 -0.4349 -0.2721
   99ACTN    H4 1445   1.241   1.053   8.376  0.3524 -2.5969 -0.9757
   99ACTN    H5 1446   1.320   1.014   8.221  0.7751  0.1845 -0.7509
   99ACTN    C2 1447   1.307   1.234   8.267  0.3084  0.3678  0.2554
   99ACTN    O1 1448   1.419   1.243   8.212  0.2153  0.2397 -0.1817
   99ACTN    C1 1449   1.245   1.351   8.319  0.1633  0.0321  0.0623
   99ACTN    H1 1450   1.142   1.352   8.284 -0.8454  0.2764  2.8859
   99ACTN    H2 1451   1.289   1.437   8.268  0.4616 -0.5096 -0.5930
   99ACTN    H3 1452   1.262   1.365   8.426 -0.9066  0.2883  0.2053
  100ACTN    H6 1453   3.469   1.967   5.072  1.9171  3.2113  0.5540
  100ACTN    C3 1454   3.485   1.950   5.178 -0.4294 -0.1828  0.4475
  100ACTN    H4 1455   3.575   2.007   5.205 -0.7501 -1.0895  3.6709
  100ACTN    H5 1456   3.400   1.985   5.237  1.0262 -0.8724  3.0599
  100ACTN    C2 1457   3.508   1.803   5.201  0.0727  0.5786  0.3505
  100ACTN    O1 1458   3.571   1.770   5.306  1.0384  0.4326 -0.8184
  100ACTN    C1 1459   3.449   1.694   5.119  0.5685 -0.0212 -0.3394
  100ACTN    H1 1460   3.485   1.600   5.160  1.0301  0.2714 -0.0753
  100ACTN    H2 1461   3.469   1.712   5.013 -0.2983 -0.8371 -0.6536
  100ACTN    H3 1462   3.340   1.693   5.126  0.5194 -0.7175 -1.1134
  101ACTN    H6 1463   7.830   8.454   8.287  0.3435  1.1275 -0.9314
  101ACTN    C3 1464   7.878   8.491   8.378  0.0320  0.1448 -0.3710
  101ACTN    H4 1465   7.818   8.569   8.424 -2.0430 -0.6305 -1.6762
  101ACTN    H5 1466   7.881   8.406   8.446 -0.6346 -1.5882 -2.4449
  101ACTN    C2 1467   8.009   8.546   8.334  0.5739 -0.2760 -0.5814
  101ACTN    O1 1468   8.006   8.659   8.285  0.2110  0.1408 -0.5449
  101ACTN    C1 1469   8.133   8.472   8.385  0.2414  0.2936  0.2139
  101ACTN    H1 1470   8.104   8.373   8.421  0.0423 -0.4251 -1.8319
  101ACTN    H2 1471   8.189   8.522   8.463 -2.0462  1.5444  1.0790
  101ACTN    H3 1472   8.201   8.453   8.302  0.1518 -0.0950  0.2292
  102ACTN    H6 1473   6.585   6.173   0.648 -0.0583  0.8236  0.8439
  102ACTN    C3 1474   6.581   6.106   0.734 -0.3839  0.1914  0.3389
  102ACTN    H4 1475   6.597   6.003   0.702 -0.1153  0.0049  1.0566
  102ACTN    H5 1476   6.658   6.142   0.801  0.8462 -1.2549 -0.2602
  102ACTN    C2 1477   6.449   6.109   0.799  0.5914  0.0777 -0.0058
  102ACTN    O1 1478   6.359   6.173   0.755  0.5377 -0.1306  0.4924
  102ACTN    C1 1479   6.413   6.028   0.919  0.3751  0.3182 -0.6715
  102ACTN    H1 1480   6.351   5.944   0.889 -0.7920  0.9715 -0.0809
  102ACTN    H2 1481   6.357   6.083   0.994  0.7483 -1.3532  0.8648
  102ACTN    H3 1482   6.500   5.991   0.974  0.2413  1.3206  0.2191
  103ACTN    H6 1483   6.529   7.932   4.046 -1.6190 -0.9216 -0.2944
  103ACTN    C3 1484   6.447   7.954   3.979 -1.0919  0.1870 -0.5806
  103ACTN    H4 1485   6.445   7.867   3.913 -0.9051 -0.7477  0.6407
  103ACTN    H5 1486   6.358   7.944   4.041 -0.8417  0.5807 -0.1534
  103ACTN    C2 1487   6.450   8.085   3.911  0.0596 -0.0090 -0.4314
  103ACTN    O1 1488   6.344   8.131   3.869  0.2467 -0.3868 -0.0122
  103ACTN    C1 1489   6.563   8.181   3.923 -0.9032  0.6661 -0.0866
  103ACTN    H1 1490   6.635   8.156   3.845  1.2228  1.6803  1.5161
  103ACTN    H2 1491   6.603   8.165   4.023 -0.6093  3.4151  0.2842
  103ACTN    H3 1492   6.534   8.286   3.919 -1.5921  0.4796 -0.1187
  104ACTN    H6 1493   7.586   3.209   7.273 -1.0949  0.1732  0.8749
  104ACTN    C3 1494   7.577   3.109   7.316 -0.3115 -0.3108 -0.0517
  104ACTN    H4 1495   7.506   3.051   7.257 -0.3639  1.4744 -1.7963
  104ACTN    H5 1496   7.673   3.060   7.330 -0.1253  0.8819  3.4253
  104ACTN    C2 1497   7.519   3.125   7.451  0.2598  0.1579  0.3012
  104ACTN    O1 1498   7.586   3.100   7.552 -0.7244 -0.2421  0.3446
  104ACTN    C1 1499   7.384   3.195   7.449 -0.2729  0.1006 -0.0192
  104ACTN    H1 1500   7.344   3.202   7.348  1.1538 -4.0386 -0.9404
  104ACTN    H2 1501   7.404   3.291   7.497  2.2487  0.1382 -1.0823
  104ACTN    H3 1502   7.310   3.144   7.511  1.5001 -0.6911  1.4706
  105ACTN    H6 1503   7.847   8.260   4.107 -0.6023 -0.0370  1.1091
  105ACTN    C3 1504   7.807   8.190   4.034 -0.2064  0.1856  0.6794
  105ACTN    H4 1505   7.885   8.134   3.983 -2.1540 -0.5981 -1.5051
  105ACTN    H5 1506   7.741   8.120   4.086 -0.8933 -0.1031 -0.5541
  105ACTN    C2 1507   7.735   8.272   3.931  0.4034 -0.2437 -0.0538
  105ACTN    O1 1508   7.639   8.334   3.971  0.6064  0.5110 -0.2622
  105ACTN    C1 1509   7.781   8.283   3.793  1.3574  0.8395 -1.1600
  105ACTN    H1 1510   7.878   8.333   3.795  1.8448 -0.1298 -0.3701
  105ACTN    H2 1511   7.715   8.341   3.728 -1.3709 -2.2207 -1.2353
  105ACTN    H3 1512   7.798   8.192   3.735  2.1750  0.1404  0.1465
  106ACTN    H6 1513   4.565   3.360   1.916  1.1772  3.4819  1.8363
  106ACTN    C3 1514   4.476   3.343   1.976  0.1442 -0.3686 -0.6130
  106ACTN    H4 1515   4.399   3.289   1.920 -1.0298  0.0069  0.5960
  106ACTN    H5 1516   4.423   3.434   2.006 -2.4710 -1.2336 -2.3899
  106ACTN    C2 1517   4.515   3.276   2.100 -0.1761  0.6443 -0.6977
  106ACTN    O1 1518   4.571   3.172   2.083  0.3197  0.2770 -0.5018
  106ACTN    C1 1519   4.494   3.328   2.230 -0.0221 -0.1195  0.3522
  106ACTN    H1 1520   4.454   3.244   2.287 -2.4797  1.2423  0.7167
  106ACTN    H2 1521   4.428   3.415   2.227 -1.4251 -1.1114  1.6428
  106ACTN    H3 1522   4.591   3.357   2.270  0.1784  0.0076 -0.2283
  107ACTN    H6 1523   7.214   6.850   2.194 -0.9767 -0.7588 -0.7521
  107ACTN    C3 1524   7.150   6.917   2.137  0.0854  0.6957 -0.2856
  107ACTN    H4 1525   7.058   6.865   2.107 -0.4716  0.3427  1.9613
  107ACTN    H5 1526   7.116   6.997   2.202 -1.2075 -1.0951  1.3201
  107ACTN    C2 1527   7.218   6.977   2.018  1.8343  0.1483  0.3434
  107ACTN    O1 1528   7.332   6.945   1.999 -0.4154  0.1525 -0.0897
  107ACTN    C1 1529   7.139   7.060   1.921 -0.1443 -0.4792  0.1895
  107ACTN    H1 1530   7.065   7.124   1.969 -0.6099 -1.3742  0.6830
  107ACTN    H2 1531   7.076   7.002   1.853  0.3130 -0.2630 -0.4235
  107ACTN    H3 1532   7.209   7.127   1.871 -0.3235  0.7141  1.5003
  108ACTN    H6 1533   2.001   1.427   2.608  0.1147  0.4834  0.7553
  108ACTN    C3 1534   1.978   1.371   2.698  0.1646  0.3267  0.6713
  108ACTN    H4 1535   1.991   1.446   2.776 -0.7698  1.9032 -0.6479
  108ACTN    H5 1536   1.871   1.354   2.683  0.4101 -1.8317  1.1767
  108ACTN    C2 1537   2.066   1.255   2.726 -0.1508 -0.1103  1.0208
  108ACTN    O1 1538   2.026   1.141   2.700  0.3642 -0.1436 -0.0692
  108ACTN    C1 1539   2.199   1.287   2.775 -0.1882  0.0593  0.3597
  108ACTN    H1 1540   2.211   1.348   2.864  3.1180  0.5184 -0.3095
  108ACTN    H2 1541   2.256   1.341   2.699 -1.8683  0.6940 -0.4617
  108ACTN    H3 1542   2.256   1.196   2.793 -0.6749  0.0612  1.9958
  109ACTN    H6 1543   7.614   7.514   3.317  0.1937 -0.3103 -1.6416
  109ACTN    C3 1544   7.659   7.419   3.346  0.2501  0.2236  0.0362
  109ACTN    H4 1545   7.576   7.367   3.394 -0.1072  0.4692 -0.3139
  109ACTN    H5 1546   7.697   7.359   3.263  0.4584 -0.2555  0.4724
  109ACTN    C2 1547   7.778   7.438   3.439 -0.4536 -0.3831  0.0849
  109ACTN    O1 1548   7.882   7.490   3.403  0.0003 -0.5324 -0.3969
  109ACTN    C1 1549   7.780   7.368   3.566 -0.4885  0.8783  0.1468
  109ACTN    H1 1550   7.840   7.277   3.575  0.3039  1.3303 -0.5383
  109ACTN    H2 1551   7.677   7.337   3.586 -0.3040 -0.2609 -0.6228
  109ACTN    H3 1552   7.805   7.440   3.644  1.1207  0.9828 -0.4573
  110ACTN    H6 1553   2.151   7.395   0.218 -2.0817 -0.3367  0.6022
  110ACTN    C3 1554   2.138   7.438   0.119  0.0685  0.0356  0.4648
  110ACTN    H4 1555   2.116   7.544   0.133 -0.6338  0.1751 -1.5121
  110ACTN    H5 1556   2.230   7.437   0.060  0.3274  1.0390  0.8425
  110ACTN    C2 1557   2.018   7.363   0.068 -0.1086  0.1096  0.2907
  110ACTN    O1 1558   2.013   7.324  -0.047 -0.0775  0.0558 -0.2723
  110ACTN    C1 1559   1.910   7.335   0.163 -0.2309 -0.0052 -0.2177
  110ACTN    H1 1560   1.843   7.420   0.171 -0.8754 -0.7042  2.2145
  110ACTN    H2 1561   1.936   7.310   0.266 -0.5648  2.5913  0.5276
  110ACTN    H3 1562   1.852   7.249   0.128  0.8887 -0.4965 -0.9153
  111ACTN    H6 1563   8.751   1.432   2.801 -1.7046  0.6645 -0.0457
  111ACTN    C3 1564   8.693   1.348   2.841 -0.0994 -0.0643  0.7739
  111ACTN    H4 1565   8.591   1.383   2.830  0.4519  1.2378 -0.3694
  111ACTN    H5 1566   8.702   1.263   2.773  3.0367  0.4694  0.3961
  111ACTN    C2 1567   8.718   1.329   2.983  0.1417  0.0822 -0.3486
  111ACTN    O1 1568   8.697   1.416   3.062 -0.3548 -0.3162 -0.2857
  111ACTN    C1 1569   8.758   1.188   3.030  0.0930 -0.3808 -0.2817
  111ACTN    H1 1570   8.743   1.122   2.944 -4.3580  0.8701 -0.5953
  111ACTN    H2 1571   8.697   1.142   3.108 -0.7389 -1.1657 -1.3589
  111ACTN    H3 1572   8.859   1.180   3.070 -0.3226  1.9534  1.3235
  112ACTN    H6 1573   8.842   2.173   8.687  0.2022  0.8457 -4.4976
  112ACTN    C3 1574   8.735   2.196   8.692  0.1916  0.1872 -0.0871
  112ACTN    H4 1575   8.709   2.260   8.776  1.4963 -1.9220  2.0249
  112ACTN    H5 1576   8.708   2.244   8.599 -1.9875  1.7932  1.3352
  112ACTN    C2 1577   8.670   2.066   8.698  0.2785 -0.6724  0.1392
  112ACTN    O1 1578   8.627   2.023   8.595  0.4545  0.0454  0.2849
  112ACTN    C1 1579   8.689   1.977   8.814  0.2644  0.0631 -0.0048
  112ACTN    H1 1580   8.605   1.909   8.823  2.7204 -2.9872  0.9405
  112ACTN    H2 1581   8.697   2.040   8.903 -4.0917 -0.6753  1.0194
  112ACTN    H3 1582   8.780   1.916   8.804 -0.6172 -1.0460 -1.4437
  113ACTN    H6 1583   8.050   1.983   4.375 -0.7083 -0.0923 -0.1229
  113ACTN    C3 1584   8.114   1.905   4.417 -0.0500  0.4574 -0.0856
  113ACTN    H4 1585   8.041   1.836   4.461 -0.0533  0.0690 -0.6938
  113ACTN    H5 1586   8.170   1.957   4.494  2.2940  2.2973 -2.9709
  113ACTN    C2 1587   8.213   1.841   4.327 -0.9984 -0.3379 -0.5510
  113ACTN    O1 1588   8.195   1.731   4.286 -0.3205  0.1236 -0.0806
  113ACTN    C1 1589   8.330   1.924   4.281  0.4032  0.2108 -0.4665
  113ACTN    H1 1590   8.330   1.935   4.172 -0.4657  1.3985 -0.3662
  113ACTN    H2 1591   8.426   1.885   4.312 -0.2293 -0.5609  0.5314
  113ACTN    H3 1592   8.301   2.026   4.306 -2.1464 -0.0096 -2.1989
  114ACTN    H6 1593   7.148   5.314   6.017 -2.8288 -1.8263  1.1230
  114ACTN    C3 1594   7.130   5.272   5.919  0.5184  0.1796 -0.4405
  114ACTN    H4 1595   7.131   5.350   5.843  0.5596 -0.2188 -0.8534
  114ACTN    H5 1596   7.214   5.205   5.902  1.7607  1.0546  2.0171
  114ACTN    C2 1597   6.992   5.207   5.915  0.3947 -0.0441  0.0373
  114ACTN    O1 1598   6.900   5.266   5.857  0.3833  0.1467  0.1172
  114ACTN    C1 1599   6.978   5.063   5.949 -0.0724  0.1956  0.2893
  114ACTN    H1 1600   6.875   5.031   5.933 -0.5426  0.4468  2.7218
  114ACTN    H2 1601   6.992   5.043   6.055 -0.2872  1.3429  0.5339
  114ACTN    H3 1602   7.051   5.013   5.885 -0.9598 -2.4275  1.2321
  115ACTN    H6 1603   8.859   7.396   6.548 -0.3412 -0.3000  1.0908
  115ACTN    C3 1604   8.910   7.309   6.508 -0.4064  0.2172 -0.1394
  115ACTN    H4 1605   8.984   7.272   6.579  0.5572  0.8112 -0.8222
  115ACTN    H5 1606   8.840   7.226   6.494  1.1936 -0.8206 -2.3674
  115ACTN    C2 1607   8.990   7.326   6.383  0.0353  0.0735 -0.3834
  115ACTN    O1 1608   8.970   7.417   6.301  0.2326  0.0357 -0.5225
  115ACTN    C1 1609   9.075   7.206   6.348 -0.1031 -0.5588  0.0444
  115ACTN    H1 1610   9.112   7.196   6.246  3.0952 -2.1956  1.3029
  115ACTN    H2 1611   9.022   7.111   6.359 -1.9637  0.4832  0.4133
  115ACTN    H3 1612   9.158   7.200   6.418  0.6262  0.5745 -0.7100
  116ACTN    H6 1613   6.921   4.466   3.349 -2.8852  3.9820  0.9636
  116ACTN    C3 1614   6.909   4.482   3.242  0.3087  0.2273 -0.0607
  116ACTN    H4 1615   6.846   4.405   3.197 -0.1568  1.0465 -0.8185
  116ACTN    H5 1616   6.861   4.579   3.241 -2.4218 -1.0821 -1.1315
  116ACTN    C2 1617   7.047   4.471   3.180  0.8361  0.3716 -0.3039
  116ACTN    O1 1618   7.118   4.567   3.161 -0.6533  0.2310  0.7683
  116ACTN    C1 1619   7.075   4.342   3.107  0.9070 -0.5475 -0.5188
  116ACTN    H1 1620   7.013   4.343   3.017 -0.6236  0.4154  0.5246
  116ACTN    H2 1621   7.045   4.259   3.171 -1.8744  0.5878 -0.2727
  116ACTN    H3 1622   7.176   4.325   3.070 -0.1374  0.6836 -4.1488
  117ACTN    H6 1623   6.973   0.762   6.585 -0.9726 -1.6643 -1.4222
  117ACTN    C3 1624   6.938   0.841   6.518  0.0146  0.4256  0.4650
  117ACTN    H4 1625   6.927   0.925   6.587 -3.2849 -0.2262  0.8153
  117ACTN    H5 1626   7.022   0.859   6.451  1.1795  0.9065  2.0218
  117ACTN    C2 1627   6.817   0.803   6.451  0.4000 -0.1472  0.2319
  117ACTN    O1 1628   6.734   0.732   6.507  0.9988  0.3413  0.0736
  117ACTN    C1 1629   6.774   0.886   6.332  0.5727 -0.7802 -0.3691
  117ACTN    H1 1630   6.787   0.993   6.345  0.1213 -0.6394 -1.0247
  117ACTN    H2 1631   6.668   0.866   6.315  0.6297 -1.6068  0.2214
  117ACTN    H3 1632   6.833   0.852   6.248 -0.5352 -1.3839 -0.9170
  118ACTN    H6 1633   0.041   2.620   5.370 -0.2822  0.4156  2.3656
  118ACTN    C3 1634   0.108   2.702   5.347 -0.1073 -0.3477  0.0506
  118ACTN    H4 1635   0.199   2.663   5.393  1.2594  2.2155 -0.3511
  118ACTN    H5 1636   0.129   2.717   5.241  1.2734  1.4318  0.5442
  118ACTN    C2 1637   0.055   2.827   5.408 -0.3392 -0.1754 -0.0952
  118ACTN    O1 1638   0.132   2.921   5.425  0.3097  0.2041 -0.1719
  118ACTN    C1 1639  -0.089   2.854   5.425  0.9221  0.7750  0.6704
  118ACTN    H1 1640  -0.134   2.827   5.521  0.5210 -0.1443  0.2256
  118ACTN    H2 1641  -0.153   2.812   5.347 -0.6979  1.3873  1.6567
  118ACTN    H3 1642  -0.100   2.962   5.420 -1.6071  0.5249  0.2633
  119ACTN    H6 1643   1.263   1.583   3.311  2.2365  1.1264  0.1841
  119ACTN    C3 1644   1.218   1.633   3.225  0.5731 -0.6094  0.0320
  119ACTN    H4 1645   1.178   1.553   3.161 -0.1418  0.2801 -0.6590
  119ACTN    H5 1646   1.147   1.708   3.260  0.7685 -0.6326  0.4702
  119ACTN    C2 1647   1.323   1.723   3.161  0.1757 -0.0266 -0.1402
  119ACTN    O1 1648   1.439   1.695   3.168  0.0539  0.0403  0.2068
  119ACTN    C1 1649   1.284   1.859   3.108  0.7579  0.0596 -0.4323
  119ACTN    H1 1650   1.346   1.880   3.021  1.2897  1.9675  0.3694
  119ACTN    H2 1651   1.309   1.937   3.180 -0.4301 -1.6719  1.9220
  119ACTN    H3 1652   1.180   1.872   3.077  0.6565 -1.6748 -0.8746
  120ACTN    H6 1653   7.571   0.946   4.646  0.3279  0.0942 -0.4491
  120ACTN    C3 1654   7.645   0.961   4.724  0.1116  0.0361 -0.2327
  120ACTN    H4 1655   7.722   1.021   4.677  0.3662 -1.0793 -1.2460
  120ACTN    H5 1656   7.600   1.022   4.803 -0.0842  0.1920 -0.4609
  120ACTN    C2 1657   7.698   0.827   4.781 -0.2366  0.3740  0.1257
  120ACTN    O1 1658   7.618   0.744   4.823 -0.1442  0.3382 -0.6845
  120ACTN    C1 1659   7.847   0.804   4.770 -0.9559 -0.0165 -0.5116
  120ACTN    H1 1660   7.871   0.704   4.735 -0.1903  0.2085 -0.6422
  120ACTN    H2 1661   7.896   0.818   4.866 -0.2911  3.4762 -1.2809
  120ACTN    H3 1662   7.897   0.875   4.704  0.6884  2.0909  2.8484
  121ACTN    H6 1663   6.534   0.511   0.756 -0.7268  0.8747 -0.5422
  121ACTN    C3 1664   6.586   0.579   0.824  0.0960  0.1425 -0.4254
  121ACTN    H4 1665   6.612   0.522   0.913 -1.1792 -0.9015 -0.7122
  121ACTN    H5 1666   6.680   0.614   0.779 -0.1907 -1.7565 -2.6079
  121ACTN    C2 1667   6.482   0.678   0.856  0.3755 -1.1014 -0.0506
  121ACTN    O1 1668   6.381   0.652   0.922  0.0846 -0.0212 -0.6581
  121ACTN    C1 1669   6.518   0.821   0.817  0.1508  0.3657  0.3434
  121ACTN    H1 1670   6.547   0.869   0.911  1.0221  0.9141 -0.1893
  121ACTN    H2 1671   6.431   0.872   0.775 -0.8991 -0.3032  1.6846
  121ACTN    H3 1672   6.607   0.832   0.754 -0.7336  1.8687 -0.6766
  122ACTN    H6 1673   6.252   2.275   4.392  1.3998  0.4115  0.0157
  122ACTN    C3 1674   6.244   2.223   4.488 -0.2053  0.1884 -0.2307
  122ACTN    H4 1675   6.326   2.153   4.502 -0.5300 -0.3376 -0.9538
  122ACTN    H5 1676   6.253   2.297   4.568  0.2417  0.5210 -0.5890
  122ACTN    C2 1677   6.106   2.160   4.502  0.0857 -1.2343  0.8264
  122ACTN    O1 1678   6.014   2.224   4.557  0.4306  0.1376  0.2793
  122ACTN    C1 1679   6.076   2.030   4.422  0.3898 -0.0658  0.5274
  122ACTN    H1 1680   5.980   2.034   4.369  0.8746 -1.1973 -0.4605
  122ACTN    H2 1681   6.078   1.948   4.494  2.3780 -1.8497 -1.4448
  122ACTN    H3 1682   6.149   2.025   4.341  0.7426  1.1701  0.7665
  123ACTN    H6 1683   3.243   0.915   4.325  0.7505  0.0573  0.0277
  123ACTN    C3 1684   3.289   0.990   4.389  0.7727  0.0748 -0.0098
  123ACTN    H4 1685   3.283   1.082   4.332 -2.0099 -0.2857 -0.3799
  123ACTN    H5 1686   3.219   1.014   4.469  0.6613 -1.1207  0.2639
  123ACTN    C2 1687   3.422   0.961   4.454  0.2579 -0.3022 -0.5061
  123ACTN    O1 1688   3.525   0.978   4.392  0.7144  0.3113  0.1416
  123ACTN    C1 1689   3.416   0.861   4.567 -0.0961  0.6832  0.3439
  123ACTN    H1 1690   3.367   0.909   4.652 -1.6172 -0.8069  0.3275
  123ACTN    H2 1691   3.519   0.835   4.592 -1.2897 -3.0388  1.7293
  123ACTN    H3 1692   3.353   0.775   4.547  0.9417 -0.5267  2.1482
  124ACTN    H6 1693   3.162   3.304   6.052  1.3268 -0.3789 -0.0675
  124ACTN    C3 1694   3.126   3.276   6.151  0.3509  0.2893 -0.2194
  124ACTN    H4 1695   3.218   3.252   6.206 -0.3652 -0.6210  0.6197
  124ACTN    H5 1696   3.069   3.356   6.197  0.2752 -0.4083  0.9296
  124ACTN    C2 1697   3.036   3.152   6.127 -0.2824 -0.0545 -0.4318
  124ACTN    O1 1698   3.036   3.096   6.019  0.3359  0.2804 -0.3837
  124ACTN    C1 1699   2.948   3.102   6.239  0.8752  0.4488  0.3129
  124ACTN    H1 1700   2.907   3.004   6.215  1.3773 -0.0745  1.5420
  124ACTN    H2 1701   2.872   3.171   6.274  1.6496  1.2436  0.4520
  124ACTN    H3 1702   3.007   3.081   6.329  0.3843  0.1910  0.5748
  125ACTN    H6 1703   7.150   3.793   5.565  1.5462  1.7412  0.7218
  125ACTN    C3 1704   7.090   3.824   5.651  0.3687 -0.6437  0.7909
  125ACTN    H4 1705   7.061   3.741   5.716 -0.4628  0.1960  1.4988
  125ACTN    H5 1706   7.000   3.877   5.619  0.2078 -0.2953  1.8275
  125ACTN    C2 1707   7.171   3.920   5.732  0.7732  0.6132  0.5370
  125ACTN    O1 1708   7.263   3.985   5.686  0.3531 -0.6077  0.3020
  125ACTN    C1 1709   7.120   3.959   5.865  0.0135 -0.4013  0.1580
  125ACTN    H1 1710   7.177   4.042   5.906 -0.1613 -0.4085  0.4197
  125ACTN    H2 1711   7.116   3.868   5.925  0.0766 -1.6017 -1.6239
  125ACTN    H3 1712   7.021   4.005   5.859  0.3545  0.2652 -0.3863
  126ACTN    H6 1713   5.595   8.787   6.423  1.6476  0.9161  0.7580
  126ACTN    C3 1714   5.584   8.815   6.318 -0.2070 -0.0471  0.6759
  126ACTN    H4 1715   5.549   8.736   6.253 -0.7889  1.5820 -1.0229
  126ACTN    H5 1716   5.500   8.885   6.324 -1.6841 -1.7809  0.4307
  126ACTN    C2 1717   5.707   8.885   6.256 -0.0086 -0.3939  0.1500
  126ACTN    O1 1718   5.811   8.821   6.238 -0.3074 -0.3088 -0.4765
  126ACTN    C1 1719   5.698   9.012   6.179 -0.2254 -0.3887  0.5261
  126ACTN    H1 1720   5.745   9.094   6.234  2.8091 -1.8076  0.1420
  126ACTN    H2 1721   5.597   9.046   6.157  0.8152  2.6286  0.1247
  126ACTN    H3 1722   5.763   8.997   6.093 -2.0897 -0.4839 -0.8881
  127ACTN    H6 1723   1.937   7.514   2.876 -0.6167  2.7678  1.9478
  127ACTN    C3 1724   2.035   7.562   2.867  0.4561  0.3449  0.2090
  127ACTN    H4 1725   2.096   7.536   2.954  2.5762  2.5730 -0.5691
  127ACTN    H5 1726   2.083   7.512   2.783  2.0450  0.4367  1.0368
  127ACTN    C2 1727   2.024   7.708   2.865 -0.1586 -0.3757 -0.0419
  127ACTN    O1 1728   2.111   7.769   2.931 -0.1700 -0.3029  0.0893
  127ACTN    C1 1729   1.925   7.784   2.771  0.2811  0.2649 -0.1716
  127ACTN    H1 1730   1.830   7.735   2.792  1.4402 -1.8289  0.3253
  127ACTN    H2 1731   1.949   7.764   2.666  0.2406 -1.1798  0.0875
  127ACTN    H3 1732   1.908   7.890   2.789 -1.1229  0.4958 -2.6029
  128ACTN    H6 1733   4.070   3.166   1.693 -1.3120  0.5102  0.5439
  128ACTN    C3 1734   4.117   3.086   1.751  0.4555  0.5615 -0.7771
  128ACTN    H4 1735   4.049   3.003   1.737 -1.5199  2.1587 -0.9435
  128ACTN    H5 1736   4.214   3.069   1.702  1.5227  0.8251  1.2038
  128ACTN    C2 1737   4.128   3.122   1.897  0.0725 -0.4224 -0.5989
  128ACTN    O1 1738   4.153   3.039   1.979  0.0963  0.1062  0.4590
  128ACTN    C1 1739   4.116   3.270   1.934 -0.0030  0.2100 -0.8590
  128ACTN    H1 1740   4.022   3.293   1.985 -0.1568 -3.1116  0.5163
  128ACTN    H2 1741   4.128   3.331   1.845 -0.6656  0.2447 -0.9322
  128ACTN    H3 1742   4.194   3.296   2.005  0.7769  3.0575 -2.6785
  129ACTN    H6 1743   6.423   3.329   5.169 -0.2196  0.6475 -0.5567
  129ACTN    C3 1744   6.384   3.279   5.258 -0.3652 -0.1352 -1.0493
  129ACTN    H4 1745   6.277   3.261   5.247 -0.7683  0.7337  1.1394
  129ACTN    H5 1746   6.435   3.184   5.252  0.6551  0.0022  3.5881
  129ACTN    C2 1747   6.428   3.339   5.392  0.7134 -0.3012 -0.1414
  129ACTN    O1 1748   6.541   3.311   5.426 -0.2257  0.4293 -0.1070
  129ACTN    C1 1749   6.321   3.398   5.479  0.4269 -0.6662 -0.6350
  129ACTN    H1 1750   6.360   3.475   5.546 -2.8743 -0.3893  1.0726
  129ACTN    H2 1751   6.264   3.326   5.539  1.5310  0.1509  1.4554
  129ACTN    H3 1752   6.252   3.458   5.420 -0.4090 -0.4473  0.5532
  130ACTN    H6 1753   3.302   8.313   2.633 -0.3970  1.1554 -0.8776
  130ACTN    C3 1754   3.199   8.318   2.667  0.0997 -0.4498  0.9458
  130ACTN    H4 1755   3.170   8.423   2.666 -2.0326 -1.0073 -0.6791
  130ACTN    H5 1756   3.128   8.274   2.597 -1.6639  1.1639  1.6547
  130ACTN    C2 1757   3.195   8.271   2.814  0.3732  0.5359 -0.1812
  130ACTN    O1 1758   3.189   8.345   2.908 -0.0633 -0.4803  0.3592
  130ACTN    C1 1759   3.197   8.119   2.837  0.1830  0.5623 -0.0190
  130ACTN    H1 1760   3.291   8.074   2.804 -0.1817  0.2980 -0.7007
  130ACTN    H2 1761   3.117   8.082   2.773  0.5176 -0.4243  0.1293
  130ACTN    H3 1762   3.170   8.099   2.940 -3.6858 -0.3332 -1.1236
  131ACTN    H6 1763   0.319   7.562   8.872 -2.1788  1.9116 -4.0397
  131ACTN    C3 1764   0.313   7.661   8.918 -0.4112  0.3714 -0.1973
  131ACTN    H4 1765   0.411   7.706   8.931  0.9977 -1.7701 -2.7177
  131ACTN    H5 1766   0.256   7.717   8.843 -0.1746  0.7719 -0.0778
  131ACTN    C2 1767   0.226   7.651   9.043  0.7382 -0.7623  1.2414
  131ACTN    O1 1768   0.193   7.755   9.101  0.1744  0.4933  0.5799
  131ACTN    C1 1769   0.161   7.527   9.092 -0.1341 -0.5360 -0.0472
  131ACTN    H1 1770   0.093   7.543   9.175 -0.2255 -1.1022 -0.0113
  131ACTN    H2 1771   0.249   7.478   9.132  0.4063 -0.3790 -1.0421
  131ACTN    H3 1772   0.111   7.457   9.024  0.7292 -0.3297 -0.9038
  132ACTN    H6 1773   7.758   3.293   6.735  0.0215  1.2205  0.1168
  132ACTN    C3 1774   7.824   3.237   6.669 -0.0212  1.0190  0.2477
  132ACTN    H4 1775   7.823   3.293   6.576  0.8559  1.1316  0.3056
  132ACTN    H5 1776   7.925   3.244   6.709  0.3064 -0.0458 -0.3699
  132ACTN    C2 1777   7.764   3.100   6.651  0.4337  0.4906 -0.5026
  132ACTN    O1 1778   7.642   3.086   6.643 -0.2908 -0.6275 -0.1287
  132ACTN    C1 1779   7.845   2.979   6.639 -0.2765 -0.0278 -0.6559
  132ACTN    H1 1780   7.950   2.998   6.617 -0.2221  1.0110  0.4343
  132ACTN    H2 1781   7.805   2.928   6.552  2.2778 -0.5755 -1.5366
  132ACTN    H3 1782   7.822   2.910   6.720 -0.5990 -1.5934 -2.0745
  133ACTN    H6 1783   2.754   0.669   3.944  2.1950  0.7850  1.1754
  133ACTN    C3 1784   2.747   0.777   3.949 -0.0217  0.7164  0.0317
  133ACTN    H4 1785   2.749   0.808   4.054  2.3026 -2.0601  0.8481
  133ACTN    H5 1786   2.826   0.826   3.893  0.1935 -3.2184 -3.2679
  133ACTN    C2 1787   2.613   0.824   3.905  0.4077  0.2230  0.0058
  133ACTN    O1 1788   2.574   0.789   3.796 -0.1374 -0.2607 -0.2510
  133ACTN    C1 1789   2.516   0.895   3.995 -0.3545 -0.0009 -0.4626
  133ACTN    H1 1790   2.442   0.831   4.043 -0.5814  1.3144  0.9482
  133ACTN    H2 1791   2.464   0.973   3.941 -0.9004  0.8470  1.2735
  133ACTN    H3 1792   2.569   0.948   4.074  2.2082 -0.3192 -1.8987
  134ACTN    H6 1793   2.077   1.287   3.589 -3.3688  0.2387 -1.1450
  134ACTN    C3 1794   2.076   1.180   3.567  0.5368 -0.1768  0.4813
  134ACTN    H4 1795   1.981   1.148   3.525  0.3057  0.8475  0.2086
  134ACTN    H5 1796   2.157   1.168   3.495 -1.1769  0.9999 -1.6814
  134ACTN    C2 1797   2.112   1.081   3.675  0.0850 -0.6828  0.0394
  134ACTN    O1 1798   2.033   0.995   3.711 -0.0505  0.1537  0.5978
  134ACTN    C1 1799   2.239   1.097   3.746  0.3073  0.1020 -0.1622
  134ACTN    H1 1800   2.237   1.194   3.795  1.9523 -0.2337  0.6108
  134ACTN    H2 1801   2.316   1.098   3.669  0.0611  0.7736 -0.4081
  134ACTN    H3 1802   2.260   1.024   3.825 -0.1408  0.3858  0.2211
  135ACTN    H6 1803   2.878   2.148   2.846 -2.1719  2.2180  1.1752
  135ACTN    C3 1804   2.944   2.175   2.929  0.2234 -0.1696  0.1037
  135ACTN    H4 1805   2.910   2.147   3.029  0.9199  0.2347  0.4545
  135ACTN    H5 1806   3.034   2.118   2.904 -0.4491 -0.5056 -1.6865
  135ACTN    C2 1807   2.988   2.317   2.921 -0.4550  0.9266 -0.1853
  135ACTN    O1 1808   2.917   2.403   2.964  0.4874 -0.3413 -0.4278
  135ACTN    C1 1809   3.107   2.360   2.843 -0.0005  0.0521  0.3298
  135ACTN    H1 1810   3.114   2.297   2.755 -1.0625  0.6368 -0.1844
  135ACTN    H2 1811   3.197   2.352   2.904 -0.3158 -0.1761  0.7666
  135ACTN    H3 1812   3.105   2.466   2.817 -1.9276 -0.2574 -0.8746
  136ACTN    H6 1813   1.857   6.165   3.601  2.5481 -0.7919 -2.6163
  136ACTN    C3 1814   1.790   6.085   3.571  0.3454 -0.0757  0.2489
  136ACTN    H4 1815   1.837   6.049   3.480 -1.0371  0.5963 -0.7482
  136ACTN    H5 1816   1.783   6.002   3.642 -1.8899  0.0681  0.2286
  136ACTN    C2 1817   1.650   6.126   3.541  0.4205  0.1694 -0.4053
  136ACTN    O1 1818   1.585   6.214   3.604  0.0673 -0.6478  0.4672
  136ACTN    C1 1819   1.580   6.024   3.452  0.1437 -0.2918  0.1821
  136ACTN    H1 1820   1.473   6.039   3.464  0.0676 -1.9114  1.8318
  136ACTN    H2 1821   1.602   5.920   3.478 -1.2181 -1.3961 -2.8130
  136ACTN    H3 1822   1.599   6.044   3.347 -2.2289 -0.9259 -0.4038
  137ACTN    H6 1823   6.044   3.226   4.001 -1.7587  0.2113  1.0377
  137ACTN    C3 1824   5.993   3.276   3.919  0.1131 -0.4237 -0.5459
  137ACTN    H4 1825   5.906   3.330   3.956  1.0891 -0.4807  1.9437
  137ACTN    H5 1826   6.058   3.349   3.869 -0.5005  0.4487 -0.0795
  137ACTN    C2 1827   5.954   3.159   3.829 -0.2907 -0.4045  0.3291
  137ACTN    O1 1828   6.030   3.115   3.743 -0.2717  0.3133 -0.5927
  137ACTN    C1 1829   5.845   3.065   3.884 -0.4644 -0.6395 -0.4479
  137ACTN    H1 1830   5.842   3.069   3.993 -0.7684 -2.2137 -0.3825
  137ACTN    H2 1831   5.874   2.963   3.859  0.6622 -0.3043 -0.5186
  137ACTN    H3 1832   5.746   3.095   3.850  0.8737  1.3023 -2.7879
  138ACTN    H6 1833   4.512   5.702   6.982 -1.8745  1.4936  0.8075
  138ACTN    C3 1834   4.464   5.629   7.047 -0.6245  0.1044  0.1886
  138ACTN    H4 1835   4.465   5.538   6.988 -0.4841 -0.3937  0.9477
  138ACTN    H5 1836   4.532   5.620   7.132  0.4226 -2.0658 -0.8209
  138ACTN    C2 1837   4.332   5.671   7.087 -0.5545 -0.1904  0.4634
  138ACTN    O1 1838   4.251   5.670   6.998 -0.4791  0.5041 -0.1921
  138ACTN    C1 1839   4.296   5.700   7.228 -0.2790  0.4450  0.5223
  138ACTN    H1 1840   4.281   5.808   7.238 -1.8280  0.2867  0.0550
  138ACTN    H2 1841   4.371   5.667   7.300 -1.8424 -1.1201  1.4401
  138ACTN    H3 1842   4.208   5.647   7.262  0.5092 -1.4523 -0.3170
  139ACTN    H6 1843   7.736   0.479   2.586  0.1600  0.2944  0.1671
  139ACTN    C3 1844   7.637   0.497   2.544  0.2028  0.2150  0.0304
  139ACTN    H4 1845   7.574   0.523   2.629  2.0136  0.0906  1.4532
  139ACTN    H5 1846   7.651   0.585   2.482  2.1696 -0.4552 -0.5077
  139ACTN    C2 1847   7.572   0.391   2.466 -0.5353 -0.4351 -1.1094
  139ACTN    O1 1848   7.610   0.278   2.461  0.4712  0.0988 -0.2930
  139ACTN    C1 1849   7.449   0.425   2.383  1.0586  0.4738  0.2364
  139ACTN    H1 1850   7.364   0.370   2.422  1.6399 -0.6585 -0.0800
  139ACTN    H2 1851   7.448   0.403   2.276 -4.6171 -3.0161  0.8242
  139ACTN    H3 1852   7.432   0.533   2.387  1.1945  0.5699 -1.2960
  140ACTN    H6 1853   6.632   1.536   1.669  2.4509 -0.0805  1.0902
  140ACTN    C3 1854   6.704   1.553   1.589  0.0322 -0.5257 -1.2142
  140ACTN    H4 1855   6.686   1.644   1.532 -0.5420  0.4569  0.5263
  140ACTN    H5 1856   6.800   1.567   1.638 -0.9914  5.1944 -0.4986
  140ACTN    C2 1857   6.719   1.436   1.497 -0.2087 -0.1774 -0.2318
  140ACTN    O1 1858   6.624   1.383   1.447  0.2090  0.2521  0.3839
  140ACTN    C1 1859   6.853   1.434   1.429  0.3024  0.1802 -0.2297
  140ACTN    H1 1860   6.858   1.338   1.376 -1.2081  0.5800 -1.1267
  140ACTN    H2 1861   6.939   1.452   1.494  0.3475 -0.8338 -0.0007
  140ACTN    H3 1862   6.858   1.507   1.348 -0.9289 -1.5667 -1.9281
  141ACTN    H6 1863   6.652   6.553   4.304  0.8013 -0.6388  0.6964
  141ACTN    C3 1864   6.562   6.512   4.350  0.0719  0.1609  0.0039
  141ACTN    H4 1865   6.518   6.574   4.428  0.6387 -2.2237  2.2961
  141ACTN    H5 1866   6.499   6.484   4.267 -0.3498 -2.5492  1.1913
  141ACTN    C2 1867   6.590   6.391   4.421  0.0784 -0.3096  0.5709
  141ACTN    O1 1868   6.496   6.312   4.432 -0.4620  0.4646  0.0552
  141ACTN    C1 1869   6.728   6.343   4.436  0.5684  0.3356 -0.4931
  141ACTN    H1 1870   6.727   6.242   4.479  1.3271  0.1188 -0.9804
  141ACTN    H2 1871   6.779   6.401   4.513  0.7442  1.2736 -1.3172
  141ACTN    H3 1872   6.782   6.355   4.342 -2.4840 -1.0916 -2.5110
  142ACTN    H6 1873   2.866   8.933   4.271  2.1369  0.1939 -0.7727
  142ACTN    C3 1874   2.843   8.891   4.174  0.4354  0.2577 -0.4096
  142ACTN    H4 1875   2.896   8.797   4.158 -0.0778 -0.0673 -0.2274
  142ACTN    H5 1876   2.881   8.957   4.096  1.3116 -0.1355 -0.3274
  142ACTN    C2 1877   2.693   8.861   4.175  0.1293 -0.8743  0.4347
  142ACTN    O1 1878   2.615   8.879   4.270  0.7268  0.4990  0.4939
  142ACTN    C1 1879   2.636   8.830   4.043 -0.4600 -0.5140 -0.0463
  142ACTN    H1 1880   2.535   8.790   4.054 -0.3346 -1.1895 -1.3443
  142ACTN    H2 1881   2.704   8.758   3.998  0.3240 -0.1549  0.5469
  142ACTN    H3 1882   2.623   8.906   3.966 -0.1938 -2.5339 -2.1299
  143ACTN    H6 1883   8.224   0.415   7.597  1.6649 -0.0341  0.0822
  143ACTN    C3 1884   8.229   0.339   7.519  0.2036 -0.0935  0.0304
  143ACTN    H4 1885   8.129   0.341   7.475 -0.4454  1.6245  1.5013
  143ACTN    H5 1886   8.311   0.380   7.459 -0.5977  1.0014 -0.3286
  143ACTN    C2 1887   8.259   0.201   7.565  0.0041 -0.0328 -0.0599
  143ACTN    O1 1888   8.173   0.118   7.555 -0.2306 -0.0490  0.2348
  143ACTN    C1 1889   8.398   0.172   7.625  0.1391 -0.1746  0.0662
  143ACTN    H1 1890   8.426   0.066   7.622 -0.0338 -0.3703  3.3015
  143ACTN    H2 1891   8.401   0.193   7.732 -0.4669 -0.1832  0.0876
  143ACTN    H3 1892   8.473   0.232   7.575  0.2837 -1.3895 -1.2253
  144ACTN    H6 1893   8.773   8.490   5.477 -1.7650 -0.3497  0.0837
  144ACTN    C3 1894   8.802   8.439   5.386 -0.1751 -0.1790  0.4781
  144ACTN    H4 1895   8.881   8.366   5.404  0.9989  1.5719  2.6210
  144ACTN    H5 1896   8.715   8.384   5.350 -0.1379  1.3093 -2.0730
  144ACTN    C2 1897   8.839   8.541   5.294 -0.0520 -0.1487  0.4843
  144ACTN    O1 1898   8.880   8.507   5.185 -0.1685 -0.9494 -0.2373
  144ACTN    C1 1899   8.801   8.680   5.320  0.4353 -1.0361 -1.2807
  144ACTN    H1 1900   8.737   8.724   5.243  0.1102  0.8628  0.0489
  144ACTN    H2 1901   8.893   8.738   5.321  0.0401 -0.4095  0.4653
  144ACTN    H3 1902   8.757   8.704   5.417  1.8951 -1.4214 -0.4995
  145ACTN    H6 1903   7.884   6.503   3.239  0.5949 -0.8569 -1.0879
  145ACTN    C3 1904   7.928   6.515   3.140  0.6947  0.5075 -0.8861
  145ACTN    H4 1905   8.036   6.521   3.150  0.4822  0.7374  1.8098
  145ACTN    H5 1906   7.902   6.426   3.084  2.8463  0.0846 -1.2254
  145ACTN    C2 1907   7.886   6.638   3.081  0.5398  0.0392  1.0317
  145ACTN    O1 1908   7.790   6.697   3.130  0.1775 -0.1091  0.1315
  145ACTN    C1 1909   7.947   6.685   2.953 -0.8135  0.0994  0.1298
  145ACTN    H1 1910   7.927   6.618   2.870 -1.5683 -0.0333  0.4130
  145ACTN    H2 1911   8.055   6.682   2.971 -0.9615 -0.5843  0.9236
  145ACTN    H3 1912   7.910   6.785   2.931  0.3316  0.8400  1.4517
  146ACTN    H6 1913   8.225   5.547   1.765  0.5107 -1.1204 -1.6802
  146ACTN    C3 1914   8.299   5.624   1.787 -0.7828 -0.3888  0.2466
  146ACTN    H4 1915   8.400   5.586   1.770 -0.2951  1.1090 -0.2531
  146ACTN    H5 1916   8.283   5.641   1.894  0.7798 -2.2530  0.8054
  146ACTN    C2 1917   8.287   5.754   1.719 -0.4805  0.4612  0.2952
  146ACTN    O1 1918   8.248   5.855   1.779  0.0695  0.6572  0.4884
  146ACTN    C1 1919   8.259   5.749   1.568  0.4476 -0.2998  0.3822
  146ACTN    H1 1920   8.337   5.779   1.498 -0.6704  0.8726 -0.3745
  146ACTN    H2 1921   8.171   5.810   1.547  0.6748 -0.4490 -1.0353
  146ACTN    H3 1922   8.230   5.648   1.538 -1.9017  0.0229  1.4116
  147ACTN    H6 1923   6.650   1.174   3.303  0.4618  0.4711 -1.3831
  147ACTN    C3 1924   6.557   1.208   3.256 -0.5064 -0.9397 -0.5475
  147ACTN    H4 1925   6.565   1.180   3.151  0.5589  1.0697 -1.0339
  147ACTN    H5 1926   6.469   1.160   3.298  0.2177 -0.1240  1.9955
  147ACTN    C2 1927   6.550   1.363   3.268 -0.3173 -0.3501  0.5779
  147ACTN    O1 1928   6.446   1.407   3.228  0.4657  1.1029 -0.1530
  147ACTN    C1 1929   6.645   1.448   3.346  0.2748  0.9581 -0.0322
  147ACTN    H1 1930   6.604   1.480   3.442  0.4341  1.1210 -0.0190
  147ACTN    H2 1931   6.675   1.536   3.289  2.9789  0.6673  0.8549
  147ACTN    H3 1932   6.736   1.392   3.365  0.4875  1.7752  1.4496
  148ACTN    H6 1933   0.827   1.129   2.252 -4.2535 -0.2179 -0.6494
  148ACTN    C3 1934   0.813   1.130   2.360  0.1259  0.8699  0.0073
  148ACTN    H4 1935   0.871   1.215   2.396 -2.4149  1.4373  2.9586
  148ACTN    H5 1936   0.712   1.169   2.367 -0.8750 -1.6317 -0.0403
  148ACTN    C2 1937   0.824   1.006   2.446 -0.2328 -0.6303  0.2210
  148ACTN    O1 1938   0.786   0.898   2.400  0.1408 -0.3934  0.0589
  148ACTN    C1 1939   0.862   1.022   2.596 -0.0072  0.3469 -0.5009
  148ACTN    H1 1940   0.779   0.985   2.655 -0.1068  0.3732 -0.6257
  148ACTN    H2 1941   0.874   1.128   2.620 -2.2540  0.1524  1.6746
  148ACTN    H3 1942   0.954   0.972   2.627 -0.3883 -0.3291 -0.4494
  149ACTN    H6 1943   5.491   4.181   3.354 -0.1596 -0.4181  0.8703
  149ACTN    C3 1944   5.546   4.273   3.376 -0.7190  0.1830 -0.2222
  149ACTN    H4 1945   5.555   4.316   3.276 -0.2868 -0.7332 -0.5849
  149ACTN    H5 1946   5.492   4.339   3.444 -0.6085  0.6754 -0.6114
  149ACTN    C2 1947   5.681   4.224   3.416  0.1110 -0.3253  0.0166
  149ACTN    O1 1948   5.748   4.134   3.363 -0.0196  0.5762  0.5350
  149ACTN    C1 1949   5.727   4.278   3.538 -0.2654  0.7957 -0.3446
  149ACTN    H1 1950   5.833   4.275   3.564 -1.0588 -2.2311  2.9688
  149ACTN    H2 1951   5.672   4.226   3.616 -0.6235 -1.4658 -2.0498
  149ACTN    H3 1952   5.696   4.382   3.542 -0.9960  0.5704 -0.1787
  150ACTN    H6 1953   7.615   3.544   6.013 -1.4239  0.6227 -0.8636
  150ACTN    C3 1954   7.543   3.559   6.093 -0.8302  0.0815 -0.2267
  150ACTN    H4 1955   7.471   3.478   6.088  0.6912 -1.4553  1.9865
  150ACTN    H5 1956   7.601   3.556   6.185  0.0427  2.6188 -0.6298
  150ACTN    C2 1957   7.477   3.685   6.091  0.1374 -0.0794 -0.0620
  150ACTN    O1 1958   7.539   3.785   6.063  0.2561 -0.2582  0.1719
  150ACTN    C1 1959   7.346   3.688   6.151 -0.6758 -0.2036 -0.3760
  150ACTN    H1 1960   7.368   3.746   6.240 -1.3637  0.7680 -0.8335
  150ACTN    H2 1961   7.311   3.588   6.175 -0.2649  0.0402  1.2465
  150ACTN    H3 1962   7.274   3.745   6.093 -2.3965 -0.8262  1.1075
  151ACTN    H6 1963   7.391   2.725   6.568  0.7591  0.3606 -0.6284
  151ACTN    C3 1964   7.409   2.618   6.556  0.1728  0.2374 -0.4247
  151ACTN    H4 1965   7.341   2.577   6.630 -0.4057 -0.8676 -1.5548
  151ACTN    H5 1966   7.383   2.587   6.455 -0.9180 -0.8101  0.1640
  151ACTN    C2 1967   7.550   2.586   6.595 -0.1493  0.7172 -0.1143
  151ACTN    O1 1968   7.602   2.477   6.569  0.3849  0.0224 -0.4033
  151ACTN    C1 1969   7.633   2.696   6.648  0.3573 -0.0421  0.9967
  151ACTN    H1 1970   7.572   2.771   6.699 -1.0066 -1.1313  0.9963
  151ACTN    H2 1971   7.688   2.742   6.567 -0.6949 -0.6379 -0.0767
  151ACTN    H3 1972   7.707   2.651   6.715  0.2522 -4.8697 -1.8839
  152ACTN    H6 1973   2.878   0.255   4.403  0.9525  1.4225  0.3772
  152ACTN    C3 1974   2.861   0.285   4.299 -0.1073  0.2321  0.2046
  152ACTN    H4 1975   2.946   0.257   4.238 -1.0815 -3.1525  0.2878
  152ACTN    H5 1976   2.778   0.227   4.258  1.3967 -0.5328 -1.8358
  152ACTN    C2 1977   2.837   0.437   4.288 -0.0966  0.7373  0.3466
  152ACTN    O1 1978   2.777   0.480   4.191  0.6613 -0.0771  0.3315
  152ACTN    C1 1979   2.889   0.537   4.387 -0.0297  0.4181  0.4758
  152ACTN    H1 1980   2.828   0.531   4.476  0.7748 -1.8002  0.8981
  152ACTN    H2 1981   2.883   0.637   4.344  2.9880  0.3914 -0.1268
  152ACTN    H3 1982   2.992   0.520   4.420  0.3165  0.9414 -0.3029
  153ACTN    H6 1983   2.000   4.846   4.263 -0.3877 -1.2754  0.3940
  153ACTN    C3 1984   1.892   4.848   4.273 -0.4322  0.1745 -0.2472
  153ACTN    H4 1985   1.851   4.944   4.243  0.3462  0.4199 -0.5283
  153ACTN    H5 1986   1.871   4.829   4.378  0.4438 -0.5186 -0.1900
  153ACTN    C2 1987   1.838   4.733   4.191  0.2712 -0.4343  0.5969
  153ACTN    O1 1988   1.908   4.669   4.112 -0.3481  0.0753 -0.4010
  153ACTN    C1 1989   1.692   4.699   4.209 -0.2129 -0.4030 -0.3186
  153ACTN    H1 1990   1.664   4.611   4.151  0.5390 -1.7543  1.2934
  153ACTN    H2 1991   1.621   4.779   4.193  0.6818  0.5868  0.5646
  153ACTN    H3 1992   1.681   4.669   4.313  3.4585  0.5169  0.4322
  154ACTN    H6 1993   5.165   8.613   6.485  0.9844 -0.4943  1.4823
  154ACTN    C3 1994   5.226   8.631   6.396 -0.9884 -0.1569  0.1767
  154ACTN    H4 1995   5.327   8.599   6.420  0.7041  3.2410 -2.0254
  154ACTN    H5 1996   5.227   8.738   6.378  1.9252 -0.7444 -4.0520
  154ACTN    C2 1997   5.177   8.567   6.273 -0.1563 -0.4062  0.3531
  154ACTN    O1 1998   5.095   8.618   6.195 -0.1400 -0.7325  0.0519
  154ACTN    C1 1999   5.199   8.414   6.280  0.7519  0.8598  0.2961
  154ACTN    H1 2000   5.306   8.397   6.291  0.4014  0.1085  2.6867
  154ACTN    H2 2001   5.168   8.352   6.196  0.0538 -1.2021  2.0353
  154ACTN    H3 2002   5.141   8.373   6.362 -0.2941 -0.3737 -1.0170
  155ACTN    H6 2003   8.221   4.997   0.165 -0.1142  0.9805 -2.0121
  155ACTN    C3 2004   8.311   4.940   0.144 -0.1625 -0.0383  0.3529
  155ACTN    H4 2005   8.288   4.834   0.136  2.0085 -0.5216  0.1345
  155ACTN    H5 2006   8.342   4.978   0.046 -2.1381 -2.9111 -1.4519
  155ACTN    C2 2007   8.409   4.987   0.253  0.6428  0.2115  0.6663
  155ACTN    O1 2008   8.384   4.972   0.375  0.2881 -0.5796  0.1070
  155ACTN    C1 2009   8.512   5.084   0.208 -0.0356  0.0060  0.0675
  155ACTN    H1 2010   8.489   5.133   0.114  0.5013  1.5893  0.7555
  155ACTN    H2 2011   8.601   5.025   0.187 -0.6056 -1.5580  1.8608
  155ACTN    H3 2012   8.530   5.168   0.274 -3.1517  1.6863 -1.1156
  156ACTN    H6 2013   6.087   6.089   0.852  0.1164  0.8046 -0.5309
  156ACTN    C3 2014   6.021   6.159   0.801 -0.9412 -0.2863 -0.7067
  156ACTN    H4 2015   6.006   6.113   0.703 -0.3240 -0.3772 -0.7647
  156ACTN    H5 2016   5.922   6.163   0.846 -0.4459 -1.3754  0.5027
  156ACTN    C2 2017   6.076   6.300   0.786  0.6373 -1.0478  0.2725
  156ACTN    O1 2018   6.084   6.376   0.882  0.0157 -0.6134  0.2156
  156ACTN    C1 2019   6.123   6.345   0.653  0.2728 -0.0665 -0.2765
  156ACTN    H1 2020   6.209   6.410   0.667  0.2509 -0.2396  0.6821
  156ACTN    H2 2021   6.035   6.398   0.617 -1.4491 -0.3537  3.3635
  156ACTN    H3 2022   6.139   6.269   0.577  2.3705  2.0476 -2.0331
  157ACTN    H6 2023   5.105   0.754   5.277  0.8519 -1.4464 -1.6944
  157ACTN    C3 2024   5.121   0.803   5.181  0.7070  0.1312 -0.9257
  157ACTN    H4 2025   5.051   0.886   5.169  1.4971  1.3548  2.2109
  157ACTN    H5 2026   5.106   0.728   5.104  1.3675 -0.1486 -0.7807
  157ACTN    C2 2027   5.257   0.869   5.183 -0.6865 -0.0850 -0.5699
  157ACTN    O1 2028   5.294   0.952   5.105  0.6167  0.3835 -0.2016
  157ACTN    C1 2029   5.341   0.845   5.303 -0.3940  0.5027 -0.6549
  157ACTN    H1 2030   5.350   0.737   5.310 -4.8467  0.1957  2.7734
  157ACTN    H2 2031   5.281   0.874   5.389  2.6137  1.5320  1.1908
  157ACTN    H3 2032   5.434   0.902   5.298 -0.5179  0.8857  1.1636
  158ACTN    H6 2033   5.067   6.597   6.743 -0.7801 -1.7436 -0.0846
  158ACTN    C3 2034   5.158   6.596   6.683 -0.7630 -0.3322 -0.1000
  158ACTN    H4 2035   5.245   6.561   6.738 -1.5047 -3.2094 -0.6779
  158ACTN    H5 2036   5.144   6.519   6.607  1.0950 -1.3829  0.5855
  158ACTN    C2 2037   5.178   6.731   6.624  0.2505 -1.0979 -0.2787
  158ACTN    O1 2038   5.094   6.779   6.559  0.5147 -0.3034  0.0456
  158ACTN    C1 2039   5.295   6.813   6.668  0.5807  0.0371 -0.3672
  158ACTN    H1 2040   5.352   6.773   6.751  1.1291 -0.0030 -0.7547
  158ACTN    H2 2041   5.267   6.914   6.698 -0.1278 -0.2227 -0.1558
  158ACTN    H3 2042   5.375   6.815   6.593  0.5827  0.5445 -0.3539
  159ACTN    H6 2043   1.293   0.869   4.899  2.5778 -0.6728  2.2449
  159ACTN    C3 2044   1.261   0.969   4.930  0.3426 -0.4938 -0.4063
  159ACTN    H4 2045   1.254   0.972   5.039  2.2238 -0.9597 -0.2548
  159ACTN    H5 2046   1.336   1.043   4.903 -0.3721 -0.0376 -1.1558
  159ACTN    C2 2047   1.136   1.002   4.861 -0.0212  0.4647  0.5223
  159ACTN    O1 2048   1.135   1.018   4.737  0.7601 -0.3844 -0.1662
  159ACTN    C1 2049   1.011   1.006   4.940 -0.5400 -0.6024 -0.1911
  159ACTN    H1 2050   1.005   0.915   4.999  0.6078  0.9060  2.3328
  159ACTN    H2 2051   0.921   1.021   4.880 -1.4032 -0.4904  1.1111
  159ACTN    H3 2052   1.029   1.093   5.004  1.6044 -2.5972  2.0444
  160ACTN    H6 2053   5.329   8.563   2.853  0.2037 -0.1030 -0.3195
  160ACTN    C3 2054   5.371   8.635   2.924 -0.5009  0.4925 -0.5089
  160ACTN    H4 2055   5.353   8.734   2.882 -1.9408  0.6374  0.4150
  160ACTN    H5 2056   5.319   8.621   3.018 -1.7056  1.1667 -1.0602
  160ACTN    C2 2057   5.518   8.611   2.956  0.0799  0.1688  0.2499
  160ACTN    O1 2058   5.595   8.710   2.957 -0.2791 -0.6252 -0.2040
  160ACTN    C1 2059   5.557   8.470   2.953  0.3673  0.2821  0.3321
  160ACTN    H1 2060   5.558   8.440   2.849  0.3172  0.1101  0.3808
  160ACTN    H2 2061   5.477   8.412   3.000 -0.7895  1.2606 -0.3823
  160ACTN    H3 2062   5.658   8.453   2.989  0.4295 -1.1393 -0.4985
  161ACTN    H6 2063   6.324   8.277   5.257  0.0104  2.7268 -1.0046
  161ACTN    C3 2064   6.364   8.274   5.359 -0.3737 -0.8919 -0.8984
  161ACTN    H4 2065   6.284   8.300   5.428  1.5234 -0.6763  1.2899
  161ACTN    H5 2066   6.395   8.171   5.374 -0.0361 -0.4744  1.4307
  161ACTN    C2 2067   6.490   8.362   5.375 -0.3232 -0.5259  0.3236
  161ACTN    O1 2068   6.567   8.378   5.283  0.2114 -0.2988  0.0102
  161ACTN    C1 2069   6.529   8.406   5.515 -0.2964  0.4818 -0.3591
  161ACTN    H1 2070   6.541   8.323   5.586  1.8055 -0.0201 -1.2468
  161ACTN    H2 2071   6.459   8.482   5.551  0.4606  1.3099 -0.6260
  161ACTN    H3 2072   6.626   8.453   5.499  0.5780 -0.3979  2.0104
  162ACTN    H6 2073   2.030   5.629   0.357  0.4791  2.9375  0.0630
  162ACTN    C3 2074   1.928   5.632   0.397  0.3209  0.0509 -0.0469
  162ACTN    H4 2075   1.926   5.703   0.479  0.3526  0.8163 -0.7000
  162ACTN    H5 2076   1.859   5.679   0.327 -0.8838  0.3732  1.3540
  162ACTN    C2 2077   1.880   5.491   0.421  0.3452 -0.3555  0.1906
  162ACTN    O1 2078   1.930   5.419   0.510 -0.1459 -0.9449  0.5238
  162ACTN    C1 2079   1.782   5.418   0.325  0.2490 -0.0098  0.2217
  162ACTN    H1 2080   1.684   5.454   0.356  0.5163  0.3490  0.6628
  162ACTN    H2 2081   1.784   5.309   0.333 -2.1584 -0.1388 -0.8129
  162ACTN    H3 2082   1.802   5.454   0.224 -2.3694  2.3947  0.5146
  163ACTN    H6 2083   8.669   0.577   2.492  1.9499 -0.4041  0.0623
  163ACTN    C3 2084   8.667   0.501   2.415  0.3171 -0.3086 -0.0154
  163ACTN    H4 2085   8.708   0.544   2.324 -1.8551  0.5178 -0.6406
  163ACTN    H5 2086   8.747   0.430   2.438  0.8004 -0.3896 -1.8954
  163ACTN    C2 2087   8.531   0.440   2.392  0.1530  0.6944  0.6714
  163ACTN    O1 2088   8.516   0.318   2.413 -0.1206 -0.8086  0.1075
  163ACTN    C1 2089   8.425   0.525   2.324  0.6923 -0.3270  0.5540
  163ACTN    H1 2090   8.419   0.512   2.216 -0.7262 -1.5451  0.7622
  163ACTN    H2 2091   8.441   0.632   2.331 -2.5827  0.2807 -0.2839
  163ACTN    H3 2092   8.328   0.511   2.372 -0.5804  0.0672 -1.8088
  164ACTN    H6 2093   1.649   2.983   8.276  0.3346  0.8988  0.1840
  164ACTN    C3 2094   1.744   2.929   8.276  0.0897  0.4599  0.0369
  164ACTN    H4 2095   1.813   2.984   8.211  0.0236 -0.7572 -1.0764
  164ACTN    H5 2096   1.724   2.827   8.243 -1.1313  0.5224  0.5731
  164ACTN    C2 2097   1.792   2.934   8.421 -0.4623  0.1264 -0.0890
  164ACTN    O1 2098   1.841   3.039   8.460 -0.3379  0.0156  0.5212
  164ACTN    C1 2099   1.800   2.811   8.502  0.0763  0.5146  0.0230
  164ACTN    H1 2100   1.854   2.729   8.456  1.1835  1.2957 -0.0785
  164ACTN    H2 2101   1.699   2.786   8.535 -0.1306  0.7381 -0.4412
  164ACTN    H3 2102   1.855   2.835   8.593  2.3339  0.6505 -1.3340
  165ACTN    H6 2103   5.420   0.037   1.362  0.8056 -0.0873 -0.6735
  165ACTN    C3 2104   5.485   0.118   1.395 -0.7381  0.7349  0.4113
  165ACTN    H4 2105   5.443   0.213   1.361  2.9541  2.1872 -0.3404
  165ACTN    H5 2106   5.488   0.107   1.503  1.0927  0.4361  0.3400
  165ACTN    C2 2107   5.619   0.100   1.343  0.6560 -0.0208  0.2659
  165ACTN    O1 2108   5.715   0.071   1.410 -0.2664 -0.3147 -0.1283
  165ACTN    C1 2109   5.638   0.115   1.194 -0.2751  0.7389 -0.0409
  165ACTN    H1 2110   5.735   0.137   1.150  0.2885 -0.1740  0.7293
  165ACTN    H2 2111   5.570   0.193   1.159 -0.4389 -0.5809 -2.7487
  165ACTN    H3 2112   5.594   0.029   1.145 -0.3073  0.2107  0.9020
  166ACTN    H6 2113   7.587   8.682   6.509 -3.5305  0.0362 -0.7249
  166ACTN    C3 2114   7.580   8.588   6.563 -0.2257 -0.2660 -0.6753
  166ACTN    H4 2115   7.473   8.565   6.569 -0.5673  1.6754  1.1327
  166ACTN    H5 2116   7.631   8.506   6.512  0.2925  0.1856 -0.8834
  166ACTN    C2 2117   7.630   8.592   6.706  0.0187 -0.0838 -0.6128
  166ACTN    O1 2118   7.685   8.695   6.749  0.6509  0.2871 -0.9474
  166ACTN    C1 2119   7.608   8.475   6.793 -0.0567 -0.0516 -0.3846
  166ACTN    H1 2120   7.530   8.412   6.749  0.2626 -0.2904 -0.6145
  166ACTN    H2 2121   7.578   8.512   6.891 -2.5184  1.5461 -1.6979
  166ACTN    H3 2122   7.699   8.418   6.813 -0.3343 -0.4130 -0.1363
  167ACTN    H6 2123   5.723   3.256   4.886 -0.5959 -0.0543  0.1566
  167ACTN    C3 2124   5.716   3.346   4.948 -0.3790  0.1770 -0.1490
  167ACTN    H4 2125   5.752   3.314   5.045 -2.6738  0.3342  0.7905
  167ACTN    H5 2126   5.777   3.427   4.909 -0.2580  0.5603  0.8326
  167ACTN    C2 2127   5.569   3.390   4.966  0.4885 -0.0317  0.0186
  167ACTN    O1 2128   5.549   3.499   4.916 -0.4174 -0.6025 -0.0329
  167ACTN    C1 2129   5.452   3.309   5.018 -0.5326 -0.5075  0.7039
  167ACTN    H1 2130   5.362   3.320   4.958 -0.6293  1.3710  1.1383
  167ACTN    H2 2131   5.435   3.341   5.121  0.8293  1.9048  0.2078
  167ACTN    H3 2132   5.489   3.207   5.016  0.2355 -0.2241 -0.0945
  168ACTN    H6 2133   1.881   7.886   3.427  1.7233 -0.3762 -2.1080
  168ACTN    C3 2134   1.926   7.984   3.445 -0.2085  0.1506  0.1546
  168ACTN    H4 2135   2.031   7.972   3.474 -0.3180  2.0822  1.3708
  168ACTN    H5 2136   1.917   8.040   3.352  2.9423  2.2307  0.9954
  168ACTN    C2 2137   1.851   8.071   3.542 -0.0654 -0.4984 -0.1563
  168ACTN    O1 2138   1.870   8.194   3.533 -0.1340 -0.3416 -0.4766
  168ACTN    C1 2139   1.748   8.013   3.633  0.2046 -0.7055  0.2948
  168ACTN    H1 2140   1.764   7.909   3.660 -0.6717 -0.8905  0.1222
  168ACTN    H2 2141   1.644   8.027   3.601  0.4202 -3.2996 -1.6232
  168ACTN    H3 2142   1.757   8.068   3.727 -1.5721  0.9695 -0.4764
  169ACTN    H6 2143   7.782   2.696   5.702  0.0143 -0.1742 -0.1238
  169ACTN    C3 2144   7.683   2.718   5.741 -0.0970 -0.4325 -0.2539
  169ACTN    H4 2145   7.685   2.679   5.843  0.1514 -0.6656 -0.3489
  169ACTN    H5 2146   7.665   2.826   5.744 -3.0943 -0.9059  0.2275
  169ACTN    C2 2147   7.591   2.636   5.655 -0.1165  0.2124 -0.5190
  169ACTN    O1 2148   7.545   2.694   5.557  0.3100  0.1943  0.4270
  169ACTN    C1 2149   7.577   2.488   5.684  0.4516 -0.6440 -0.3665
  169ACTN    H1 2150   7.473   2.457   5.688  0.2092  0.2637  0.5723
  169ACTN    H2 2151   7.621   2.458   5.780 -1.8313 -0.8724  0.6384
  169ACTN    H3 2152   7.623   2.425   5.608  0.3343 -0.9237 -0.2061
  170ACTN    H6 2153   7.622   2.694   6.182 -1.3322  0.1742  1.5531
  170ACTN    C3 2154   7.529   2.715   6.129 -0.2021  1.0167 -0.1619
  170ACTN    H4 2155   7.461   2.747   6.208  0.0824  2.6768 -0.5790
  170ACTN    H5 2156   7.542   2.800   6.063  1.3220 -1.6090 -3.3567
  170ACTN    C2 2157   7.475   2.602   6.056 -0.4285  0.3072 -0.7241
  170ACTN    O1 2158   7.546   2.504   6.042 -0.4174  0.9192  0.3581
  170ACTN    C1 2159   7.345   2.604   5.989  0.0295 -1.3123 -0.7754
  170ACTN    H1 2160   7.328   2.508   5.941 -1.4178 -1.0706 -0.7428
  170ACTN    H2 2161   7.342   2.682   5.913  0.0796 -0.6525 -0.1174
  170ACTN    H3 2162   7.263   2.614   6.060 -0.1882  0.8651 -1.3001
  171ACTN    H6 2163   4.121   5.925   4.812  1.6466  0.1831 -1.7683
  171ACTN    C3 2164   4.047   5.990   4.766  0.1351 -0.3195 -0.1286
  171ACTN    H4 2165   3.950   5.942   4.774 -0.4344  0.6850 -0.8989
  171ACTN    H5 2166   4.046   6.086   4.818 -0.8101  0.3620 -1.3798
  171ACTN    C2 2167   4.097   6.002   4.618  0.1173  0.0072  0.2321
  171ACTN    O1 2168   4.011   5.991   4.532  0.6936 -0.1910  0.2947
  171ACTN    C1 2169   4.243   6.006   4.589 -0.3018 -0.1724  0.2372
  171ACTN    H1 2170   4.265   6.069   4.502  1.7550 -0.9875  0.1197
  171ACTN    H2 2171   4.271   5.905   4.559  2.8738  1.1130 -1.4480
  171ACTN    H3 2172   4.310   6.028   4.673 -0.7635  1.4908  0.1933
  172ACTN    H6 2173   1.487   6.091   5.986 -1.2697  0.9047 -0.4859
  172ACTN    C3 2174   1.469   6.013   5.913  0.3654  0.2168 -0.1724
  172ACTN    H4 2175   1.542   6.026   5.833  0.0549  3.3371 -0.0062
  172ACTN    H5 2176   1.488   5.916   5.959  0.2166  0.7634  1.0543
  172ACTN    C2 2177   1.332   6.010   5.864 -0.9944  0.5502  0.0573
  172ACTN    O1 2178   1.290   5.930   5.785  0.1758  0.3240 -0.0136
  172ACTN    C1 2179   1.239   6.088   5.956  1.0783  0.8317 -0.0829
  172ACTN    H1 2180   1.145   6.037   5.981  0.5572  2.5388  1.5654
  172ACTN    H2 2181   1.208   6.177   5.901 -1.5001 -0.2477 -0.4562
  172ACTN    H3 2182   1.285   6.123   6.048  0.4368  0.8447  0.2390
  173ACTN    H6 2183   6.326   3.021   4.425 -0.7338  2.1221  0.8794
  173ACTN    C3 2184   6.416   3.058   4.375 -0.3445  0.0964  0.0220
  173ACTN    H4 2185   6.461   3.133   4.440 -0.5648  2.0197 -2.0024
  173ACTN    H5 2186   6.481   2.970   4.377 -0.3893  0.0750  0.6605
  173ACTN    C2 2187   6.394   3.100   4.233 -0.9614  0.1843  0.8275
  173ACTN    O1 2188   6.494   3.125   4.168 -0.6171 -0.9384 -0.1412
  173ACTN    C1 2189   6.260   3.144   4.189 -0.2815  0.1801  0.4435
  173ACTN    H1 2190   6.269   3.177   4.086  4.2167 -0.2078  0.6090
  173ACTN    H2 2191   6.222   3.224   4.252  3.3530  2.5087 -0.1579
  173ACTN    H3 2192   6.193   3.060   4.210 -0.5363 -0.0586 -1.2688
  174ACTN    H6 2193   0.870   1.642   0.420  1.5899  0.3251  0.0003
  174ACTN    C3 2194   0.877   1.659   0.313  0.5105  0.0545 -0.1197
  174ACTN    H4 2195   0.932   1.576   0.267 -0.5277 -0.4448 -0.4878
  174ACTN    H5 2196   0.775   1.657   0.275  0.7986 -0.0540 -0.9047
  174ACTN    C2 2197   0.950   1.785   0.292 -0.3131 -0.2016  0.5155
  174ACTN    O1 2198   0.879   1.877   0.263  0.1451 -0.1625  0.4144
  174ACTN    C1 2199   1.102   1.800   0.297  0.5412 -0.4727  0.2826
  174ACTN    H1 2200   1.144   1.869   0.224 -1.7855  1.0817  0.3559
  174ACTN    H2 2201   1.151   1.706   0.274  2.3978  0.6961 -0.6630
  174ACTN    H3 2202   1.140   1.835   0.393  0.9740 -0.7117  0.1974
  175ACTN    H6 2203   5.611   8.991   5.405 -0.2432 -1.6526  1.9885
  175ACTN    C3 2204   5.553   9.038   5.484 -0.8675 -0.0423  0.5925
  175ACTN    H4 2205   5.452   9.002   5.467 -1.0024  0.6280 -0.0281
  175ACTN    H5 2206   5.593   9.007   5.581 -0.3583 -2.4672 -0.3618
  175ACTN    C2 2207   5.538   9.180   5.470 -0.0168 -0.1874  0.3797
  175ACTN    O1 2208   5.488   9.241   5.557  0.4343  0.6393  0.6259
  175ACTN    C1 2209   5.616   9.256   5.361  0.1151  0.8259 -0.7684
  175ACTN    H1 2210   5.528   9.298   5.314 -1.9681 -3.7388 -1.2700
  175ACTN    H2 2211   5.671   9.188   5.295 -0.5934 -1.0509  0.5353
  175ACTN    H3 2212   5.689   9.329   5.394  1.7353 -1.7162  1.4413
  176ACTN    H6 2213   0.566   2.157   5.870  0.9443 -1.1142 -0.4195
  176ACTN    C3 2214   0.649   2.203   5.816 -0.3946  0.6216 -1.0687
  176ACTN    H4 2215   0.630   2.309   5.801 -1.4322  0.0946 -3.7982
  176ACTN    H5 2216   0.743   2.192   5.869 -0.2161 -2.3294 -1.8805
  176ACTN    C2 2217   0.655   2.131   5.684 -0.1529  0.2685 -0.5520
  176ACTN    O1 2218   0.722   2.022   5.685  0.3057 -0.3063 -0.5932
  176ACTN    C1 2219   0.557   2.170   5.585  0.1577  0.0750  0.7806
  176ACTN    H1 2220   0.481   2.241   5.618  0.8036  1.4288 -0.5724
  176ACTN    H2 2221   0.516   2.081   5.539  1.4718 -0.3631  0.4241
  176ACTN    H3 2222   0.606   2.227   5.505  1.8958 -1.8707  0.4221
  177ACTN    H6 2223   5.505   1.655   6.703 -0.3114 -0.4300 -0.2424
  177ACTN    C3 2224   5.495   1.612   6.803 -0.9380 -0.1494 -0.1797
  177ACTN    H4 2225   5.390   1.632   6.824 -0.9806  1.4765 -1.8017
  177ACTN    H5 2226   5.514   1.505   6.805 -2.2201 -0.3648  0.9806
  177ACTN    C2 2227   5.579   1.688   6.904 -0.4063  0.6780 -0.1283
  177ACTN    O1 2228   5.672   1.756   6.856  0.0091  0.2031  0.5603
  177ACTN    C1 2229   5.575   1.653   7.050 -0.1760  0.0127 -0.2296
  177ACTN    H1 2230   5.679   1.632   7.074 -1.1084 -2.6541  1.6625
  177ACTN    H2 2231   5.514   1.567   7.079 -0.9071  0.0683 -1.5327
  177ACTN    H3 2232   5.539   1.741   7.103  0.7493 -0.2952  0.9101
  178ACTN    H6 2233   1.062   7.329   4.846 -0.3516 -0.0942  0.7042
  178ACTN    C3 2234   0.979   7.277   4.894 -0.8156  0.1044  0.1261
  178ACTN    H4 2235   0.970   7.177   4.850  2.7946 -0.1395 -0.2248
  178ACTN    H5 2236   0.887   7.334   4.899 -2.6181 -2.7238  0.2193
  178ACTN    C2 2237   1.012   7.247   5.039  0.2609 -0.2711  0.1284
  178ACTN    O1 2238   1.052   7.331   5.120 -0.1310 -0.2469  0.1042
  178ACTN    C1 2239   1.002   7.099   5.077 -0.2453  0.5405  0.4504
  178ACTN    H1 2240   0.922   7.057   5.017  1.8493 -2.2521 -0.4775
  178ACTN    H2 2241   0.972   7.091   5.181  1.6159  0.2363  0.9895
  178ACTN    H3 2242   1.095   7.045   5.060  0.2544  1.3959  0.4528
  179ACTN    H6 2243   0.763   4.964   2.893 -1.4146  0.8731 -0.2536
  179ACTN    C3 2244   0.836   5.042   2.913 -0.4899 -0.0026 -0.1787
  179ACTN    H4 2245   0.781   5.134   2.934 -0.7983 -0.1509 -0.3294
  179ACTN    H5 2246   0.889   5.014   3.004 -0.7463  0.7156  0.1997
  179ACTN    C2 2247   0.939   5.061   2.803  0.1209 -0.7468  0.3628
  179ACTN    O1 2248   0.946   4.985   2.707 -0.5321  0.6801  0.0257
  179ACTN    C1 2249   0.990   5.197   2.793 -0.9416 -0.1271 -0.2938
  179ACTN    H1 2250   0.904   5.263   2.790 -2.0680 -1.6169 -1.5626
  179ACTN    H2 2251   1.060   5.214   2.711  0.5259  1.5163  1.2478
  179ACTN    H3 2252   1.048   5.213   2.884 -1.6942  0.0793  0.1479
  180ACTN    H6 2253   4.781   8.455   6.321 -0.3805 -0.8374  0.1030
  180ACTN    C3 2254   4.722   8.536   6.277  0.2471 -0.4859 -0.1084
  180ACTN    H4 2255   4.745   8.551   6.172 -0.4949 -1.7925 -0.4673
  180ACTN    H5 2256   4.615   8.515   6.285  0.1928 -0.5098 -0.8988
  180ACTN    C2 2257   4.761   8.655   6.350  0.9962  0.2346  0.2105
  180ACTN    O1 2258   4.741   8.769   6.306 -0.1553  0.0315 -0.4263
  180ACTN    C1 2259   4.830   8.642   6.479 -0.1117 -0.0218  0.0424
  180ACTN    H1 2260   4.938   8.651   6.471 -0.1212 -0.3771 -0.4993
  180ACTN    H2 2261   4.799   8.549   6.527  2.5548 -2.2142 -2.3501
  180ACTN    H3 2262   4.793   8.717   6.550  1.0884 -1.1801  1.9513
  181ACTN    H6 2263   0.648   0.929   4.125 -2.4742  2.4032  0.6196
  181ACTN    C3 2264   0.615   0.897   4.224 -0.6085  0.0791  0.5368
  181ACTN    H4 2265   0.558   0.807   4.198 -1.0907  1.0905 -2.1771
  181ACTN    H5 2266   0.699   0.872   4.288 -1.4027  0.4526  1.7320
  181ACTN    C2 2267   0.523   1.005   4.281  0.5048 -0.1391  0.4551
  181ACTN    O1 2268   0.454   0.989   4.382 -0.5539 -0.0576 -0.0790
  181ACTN    C1 2269   0.541   1.144   4.226 -0.8992  0.0825  0.4745
  181ACTN    H1 2270   0.498   1.225   4.286  0.7772  1.5358 -0.2442
  181ACTN    H2 2271   0.500   1.149   4.126 -2.0278 -0.6968  0.8821
  181ACTN    H3 2272   0.647   1.158   4.204 -1.8245  1.2896 -3.5993
  182ACTN    H6 2273   7.834   8.683   7.863 -0.4355  0.7631 -0.7593
  182ACTN    C3 2274   7.829   8.672   7.971 -0.1707 -0.0235 -0.8203
  182ACTN    H4 2275   7.934   8.686   7.999 -0.5426 -2.8476  2.2146
  182ACTN    H5 2276   7.773   8.752   8.019  2.2910  0.5676  1.2203
  182ACTN    C2 2277   7.762   8.535   8.004  0.1565  0.1193  0.0806
  182ACTN    O1 2278   7.834   8.433   7.989 -0.3769  0.6710 -0.1129
  182ACTN    C1 2279   7.647   8.529   8.098 -0.4334 -0.1581 -0.4657
  182ACTN    H1 2280   7.608   8.429   8.118  0.2066 -0.2000  0.5998
  182ACTN    H2 2281   7.561   8.577   8.052 -1.8641 -2.1369  0.0900
  182ACTN    H3 2282   7.661   8.580   8.193  0.0398 -2.3504  0.6932
  183ACTN    H6 2283   7.529   0.253   6.119  0.8186 -0.4881  0.9864
  183ACTN    C3 2284   7.459   0.197   6.181  0.3698 -0.6889  0.2963
  183ACTN    H4 2285   7.407   0.282   6.226  1.4365  0.3856 -0.4358
  183ACTN    H5 2286   7.396   0.137   6.116  0.8092  0.4048 -1.1715
  183ACTN    C2 2287   7.521   0.118   6.288  1.2575  0.0154  0.0006
  183ACTN    O1 2288   7.472   0.116   6.401 -0.0847 -0.3986 -0.0390
  183ACTN    C1 2289   7.647   0.055   6.252 -0.1340 -0.3379 -0.6870
  183ACTN    H1 2290   7.629  -0.027   6.183 -2.4706 -0.0951 -0.3891
  183ACTN    H2 2291   7.697   0.012   6.339 -0.5990  1.0113  0.2600
  183ACTN    H3 2292   7.721   0.116   6.201 -0.0087  0.4635  0.4319
  184ACTN    H6 2293   5.497   1.819   5.314 -1.8181  0.4385 -1.1448
  184ACTN    C3 2294   5.503   1.746   5.394 -0.1656  1.2732 -0.4857
  184ACTN    H4 2295   5.512   1.646   5.350 -0.6170  1.7881 -1.7782
  184ACTN    H5 2296   5.597   1.763   5.445 -0.4453  0.4566  0.3241
  184ACTN    C2 2297   5.384   1.765   5.486 -0.3810 -0.1964 -0.5803
  184ACTN    O1 2298   5.364   1.878   5.527  0.1338 -0.3369  0.2712
  184ACTN    C1 2299   5.304   1.659   5.543 -0.3809  0.3770  0.1881
  184ACTN    H1 2300   5.235   1.694   5.620 -1.7433  2.4226 -1.8937
  184ACTN    H2 2301   5.358   1.572   5.583  0.1432  0.6722  0.1245
  184ACTN    H3 2302   5.244   1.622   5.460  0.2565 -0.3225  0.0347
  185ACTN    H6 2303   4.820   8.023   2.984  2.3399  1.5023  0.3621
  185ACTN    C3 2304   4.842   7.975   3.079  0.1719 -0.1157  0.0909
  185ACTN    H4 2305   4.758   8.004   3.142 -1.4337 -3.2585 -0.5422
  185ACTN    H5 2306   4.857   7.870   3.055 -0.2747 -0.1011 -0.2548
  185ACTN    C2 2307   4.976   8.040   3.121 -0.0212 -0.2560  0.5897
  185ACTN    O1 2308   5.053   8.083   3.042 -0.2038  0.2286  0.2788
  185ACTN    C1 2309   5.003   8.057   3.262 -0.0351  0.7083  0.0783
  185ACTN    H1 2310   4.912   8.037   3.318 -0.2846 -0.5306 -0.7524
  185ACTN    H2 2311   5.074   7.984   3.301 -3.2743 -1.5246  1.9778
  185ACTN    H3 2312   5.053   8.152   3.283 -0.7647  1.0059  0.4644
  186ACTN    H6 2313   8.192   0.924   8.123 -1.5179  0.1916  2.0037
  186ACTN    C3 2314   8.124   0.997   8.079 -0.8842 -0.3907  0.0229
  186ACTN    H4 2315   8.169   1.019   7.982 -2.3185 -1.3464 -0.8874
  186ACTN    H5 2316   8.026   0.952   8.060 -0.2865 -0.4516 -3.2381
  186ACTN    C2 2317   8.121   1.118   8.167 -0.6579  0.0211 -0.3407
  186ACTN    O1 2318   8.160   1.111   8.283 -0.8634 -0.1602  0.4315
  186ACTN    C1 2319   8.043   1.235   8.112  0.3153  0.3214 -0.2630
  186ACTN    H1 2320   7.954   1.200   8.060  2.4155 -2.3390 -2.1837
  186ACTN    H2 2321   8.099   1.284   8.032  0.0013  0.0700 -0.6389
  186ACTN    H3 2322   8.005   1.305   8.187  0.7751 -1.6995  1.8889
  187ACTN    H6 2323   1.788   0.662   6.028  0.2432 -0.3617 -1.4687
  187ACTN    C3 2324   1.682   0.687   6.037  0.4872  0.2573 -0.1977
  187ACTN    H4 2325   1.687   0.796   6.024 -1.7118  0.3374 -0.5404
  187ACTN    H5 2326   1.609   0.662   5.960  1.2825 -2.7632 -0.0026
  187ACTN    C2 2327   1.633   0.658   6.170  0.3523  0.5750 -0.6333
  187ACTN    O1 2328   1.607   0.541   6.198 -0.8273 -0.2067 -0.4305
  187ACTN    C1 2329   1.616   0.769   6.265  0.3769  0.0961 -0.2449
  187ACTN    H1 2330   1.546   0.836   6.214 -1.1120 -0.2632  1.2606
  187ACTN    H2 2331   1.701   0.832   6.288 -0.1155  0.7794 -0.2686
  187ACTN    H3 2332   1.569   0.730   6.355  0.4684  0.5424 -0.0020
  188ACTN    H6 2333   5.582   0.364   6.726 -1.7041 -2.5611 -0.7101
  188ACTN    C3 2334   5.531   0.394   6.634 -0.4342  0.5959 -0.4426
  188ACTN    H4 2335   5.426   0.383   6.661 -0.5866  1.7858 -0.5249
  188ACTN    H5 2336   5.536   0.496   6.596 -1.3735  0.7007 -0.3092
  188ACTN    C2 2337   5.566   0.286   6.531 -0.1275 -0.0130  0.0888
  188ACTN    O1 2338   5.656   0.208   6.560 -0.3021  0.0515  0.3043
  188ACTN    C1 2339   5.473   0.233   6.416  0.0399  0.5422  0.7256
  188ACTN    H1 2340   5.522   0.170   6.342 -0.5260  1.6143 -0.5848
  188ACTN    H2 2341   5.456   0.324   6.358  0.6343 -1.5568 -2.9237
  188ACTN    H3 2342   5.378   0.184   6.437  1.1650 -2.3763 -0.7261
  189ACTN    H6 2343   1.853   4.561   3.788  0.0204  0.5921 -0.2841
  189ACTN    C3 2344   1.858   4.573   3.680 -0.2179  0.8387 -0.2680
  189ACTN    H4 2345   1.777   4.635   3.640 -0.1682  1.1377  0.0934
  189ACTN    H5 2346   1.951   4.621   3.649 -0.3076  1.0212 -0.2563
  189ACTN    C2 2347   1.843   4.431   3.621 -0.3887  0.5456 -0.0383
  189ACTN    O1 2348   1.861   4.328   3.686  0.3446 -0.2821  0.2318
  189ACTN    C1 2349   1.791   4.415   3.478 -0.4958  0.1605 -0.4361
  189ACTN    H1 2350   1.694   4.366   3.482  0.2150 -1.3547 -1.1752
  189ACTN    H2 2351   1.867   4.366   3.417 -0.7072  0.7010 -1.1326
  189ACTN    H3 2352   1.786   4.516   3.438  1.0179  1.2844  2.0277
  190ACTN    H6 2353   7.844   3.048   4.682 -1.5213  1.5995 -0.8600
  190ACTN    C3 2354   7.934   3.109   4.672  0.1431 -0.5867  0.2539
  190ACTN    H4 2355   8.019   3.075   4.731  0.6622  2.6179  1.4597
  190ACTN    H5 2356   7.957   3.081   4.570  0.0770 -1.3186  0.4406
  190ACTN    C2 2357   7.915   3.264   4.690  0.4986 -0.3636  0.4660
  190ACTN    O1 2358   7.840   3.327   4.615 -0.3163  0.5618 -0.0785
  190ACTN    C1 2359   7.963   3.339   4.803 -0.2552 -0.8530  1.1660
  190ACTN    H1 2360   8.012   3.274   4.876  2.1604  0.0779  0.3991
  190ACTN    H2 2361   7.883   3.394   4.851  1.0719  1.6287  0.6009
  190ACTN    H3 2362   8.042   3.407   4.771 -2.5655  1.1782 -0.4421
  191ACTN    H6 2363   5.222   3.023   6.129 -0.5444 -0.4954  1.3120
  191ACTN    C3 2364   5.118   3.056   6.138 -0.5146 -0.0052 -0.0273
  191ACTN    H4 2365   5.109   3.164   6.126  2.3504  0.3866  0.8729
  191ACTN    H5 2366   5.061   3.011   6.056 -2.6743  2.5811  0.0112
  191ACTN    C2 2367   5.067   3.007   6.266  0.0352 -0.0326  0.5444
  191ACTN    O1 2368   5.088   2.889   6.298 -0.3471 -0.9714 -0.1338
  191ACTN    C1 2369   5.000   3.106   6.361 -1.1108  0.4378  0.2222
  191ACTN    H1 2370   5.037   3.208   6.346  0.5586 -0.0227  1.0423
  191ACTN    H2 2371   5.026   3.080   6.464  0.6712 -0.9077 -0.5558
  191ACTN    H3 2372   4.892   3.096   6.356 -1.2466  0.2020  2.9693
  192ACTN    H6 2373   3.355   4.350   7.594  0.3446  1.4735 -0.0830
  192ACTN    C3 2374   3.294   4.371   7.682 -0.6263 -0.7010 -0.2000
  192ACTN    H4 2375   3.200   4.412   7.647 -0.2630 -0.1676 -0.5595
  192ACTN    H5 2376   3.277   4.274   7.730  1.9318 -2.5825 -2.9084
  192ACTN    C2 2377   3.344   4.467   7.783  0.0650 -0.2843  0.8494
  192ACTN    O1 2378   3.288   4.576   7.792  0.2058  0.2692  0.0753
  192ACTN    C1 2379   3.430   4.421   7.900  0.5442  0.4780  0.6950
  192ACTN    H1 2380   3.373   4.363   7.972  0.8198  1.3776  1.6587
  192ACTN    H2 2381   3.480   4.502   7.954  3.4939 -1.2239  0.6110
  192ACTN    H3 2382   3.506   4.352   7.863  2.5586  2.5725  0.7436
  193ACTN    H6 2383   5.821   1.404   6.756 -1.2534 -1.8026  0.1818
  193ACTN    C3 2384   5.766   1.433   6.667 -0.1054  0.1428  0.0806
  193ACTN    H4 2385   5.691   1.355   6.653  0.9116 -0.6363 -1.1937
  193ACTN    H5 2386   5.721   1.530   6.689  2.1213  1.3803 -0.6238
  193ACTN    C2 2387   5.858   1.433   6.547 -0.2189  0.5404 -0.1780
  193ACTN    O1 2388   5.969   1.385   6.548 -0.1616  0.1277  0.2718
  193ACTN    C1 2389   5.787   1.479   6.420  0.1353 -0.3998  0.7102
  193ACTN    H1 2390   5.745   1.578   6.437  0.5028 -0.5325  2.5585
  193ACTN    H2 2391   5.705   1.408   6.409 -0.1597  0.1432 -0.6192
  193ACTN    H3 2392   5.853   1.474   6.334 -0.0212  1.1702  0.4901
  194ACTN    H6 2393   3.171   8.902   2.970  1.1051  1.1778 -0.2541
  194ACTN    C3 2394   3.227   8.819   3.014 -0.2766  0.3499 -0.0110
  194ACTN    H4 2395   3.169   8.776   3.095 -1.7954 -0.4568 -1.4970
  194ACTN    H5 2396   3.248   8.743   2.938  3.2191  1.1173  0.0609
  194ACTN    C2 2397   3.361   8.864   3.062  0.4892 -0.9011 -0.9345
  194ACTN    O1 2398   3.389   8.841   3.181 -0.2258 -0.1954 -0.1146
  194ACTN    C1 2399   3.456   8.949   2.975  0.3793 -0.5431 -0.2094
  194ACTN    H1 2400   3.444   9.057   2.988 -1.0246 -0.7122 -0.1362
  194ACTN    H2 2401   3.431   8.930   2.871  0.5211  0.7598 -0.4918
  194ACTN    H3 2402   3.563   8.928   2.987 -0.0986 -2.5830  0.7307
  195ACTN    H6 2403   8.751   5.000   5.438 -1.6582  1.1598 -1.6701
  195ACTN    C3 2404   8.843   5.029   5.388  0.0496  0.2280  0.8417
  195ACTN    H4 2405   8.923   4.960   5.415 -1.7113 -2.4623 -0.5747
  195ACTN    H5 2406   8.828   5.014   5.281  0.6243  1.3367  0.5934
  195ACTN    C2 2407   8.880   5.170   5.423  0.3919 -0.7241  0.5137
  195ACTN    O1 2408   8.795   5.255   5.439  0.3856  0.2764 -0.0764
  195ACTN    C1 2409   9.026   5.201   5.468 -0.3590  0.5253  0.4057
  195ACTN    H1 2410   9.040   5.308   5.450  2.4775  0.5175  2.2038
  195ACTN    H2 2411   9.095   5.146   5.404 -1.5443 -0.5778  0.0678
  195ACTN    H3 2412   9.045   5.166   5.569  0.1553  1.3503  0.5990
  196ACTN    H6 2413   5.539   3.814   4.929 -3.0271  0.0838  0.7466
  196ACTN    C3 2414   5.579   3.793   5.029 -0.7617  0.5793 -0.0407
  196ACTN    H4 2415   5.571   3.888   5.082  1.8901  0.0324  1.4288
  196ACTN    H5 2416   5.518   3.713   5.070 -0.3003  1.4057  2.3048
  196ACTN    C2 2417   5.731   3.755   5.012  0.0496  0.4429  0.4699
  196ACTN    O1 2418   5.789   3.699   5.103 -0.3510  0.0004  0.1829
  196ACTN    C1 2419   5.804   3.790   4.884 -0.9272 -0.0760 -0.0858
  196ACTN    H1 2420   5.908   3.762   4.874 -1.3453 -1.0111 -1.9755
  196ACTN    H2 2421   5.799   3.898   4.866 -0.2085 -0.2524 -1.3687
  196ACTN    H3 2422   5.747   3.738   4.807 -2.4158  0.6153  0.5042
  197ACTN    H6 2423   5.637   2.932   8.501  0.5713  1.1464 -0.5657
  197ACTN    C3 2424   5.594   2.969   8.408 -0.2791  0.4892 -0.4372
  197ACTN    H4 2425   5.524   2.889   8.383  1.6143 -1.5492  0.6575
  197ACTN    H5 2426   5.536   3.060   8.422  0.1219  0.4908  1.2644
  197ACTN    C2 2427   5.719   2.983   8.319 -0.1153  0.3842  0.4182
  197ACTN    O1 2428   5.789   3.083   8.324  0.1681 -0.1281  0.5195
  197ACTN    C1 2429   5.758   2.865   8.236 -0.1481 -0.2398 -0.4735
  197ACTN    H1 2430   5.810   2.795   8.301  0.3484  1.5171  1.0927
  197ACTN    H2 2431   5.833   2.901   8.165 -0.5229  0.3968 -0.5508
  197ACTN    H3 2432   5.666   2.828   8.193 -0.5351  1.0609 -0.8059
  198ACTN    H6 2433   4.206   7.691   3.903  2.0485 -1.5490  2.6620
  198ACTN    C3 2434   4.235   7.781   3.958  0.0607  0.4940  0.4940
  198ACTN    H4 2435   4.292   7.746   4.044 -1.0002  2.0800  1.8609
  198ACTN    H5 2436   4.303   7.834   3.892  0.6351 -2.3793 -1.3488
  198ACTN    C2 2437   4.120   7.864   4.007  0.8069  0.5931 -0.2163
  198ACTN    O1 2438   4.008   7.828   3.978  0.0299 -0.3874 -0.3157
  198ACTN    C1 2439   4.144   7.988   4.094 -0.3552  0.6902 -0.1553
  198ACTN    H1 2440   4.091   8.067   4.041  0.8734  0.3549 -1.9461
  198ACTN    H2 2441   4.250   8.014   4.091  0.0145 -0.9140 -1.8821
  198ACTN    H3 2442   4.114   7.977   4.198 -1.4930  0.0809 -0.5485
  199ACTN    H6 2443   5.954   2.198   5.157  0.2462  0.2136 -0.2223
  199ACTN    C3 2444   5.907   2.262   5.083 -0.4354 -0.2612 -0.2094
  199ACTN    H4 2445   5.857   2.197   5.011 -0.6530 -2.1695  1.6211
  199ACTN    H5 2446   5.830   2.313   5.141 -1.3797 -2.2497  0.3111
  199ACTN    C2 2447   6.010   2.351   5.031  1.0045  0.4863 -0.3716
  199ACTN    O1 2448   6.075   2.417   5.108  0.0424 -0.2769 -0.0768
  199ACTN    C1 2449   6.009   2.373   4.886  0.6127 -0.0115 -0.3125
  199ACTN    H1 2450   5.920   2.329   4.841  1.1657  0.1879 -1.6221
  199ACTN    H2 2451   6.092   2.317   4.843  0.8218  1.2211 -1.5279
  199ACTN    H3 2452   6.005   2.479   4.861  0.2297 -0.0920 -0.5969
  200ACTN    H6 2453   2.110   7.238   3.291  0.3639 -0.7788  0.0334
  200ACTN    C3 2454   2.197   7.212   3.350  0.4815  0.0162  0.2034
  200ACTN    H4 2455   2.276   7.219   3.275 -0.3176 -1.4014 -0.7717
  200ACTN    H5 2456   2.216   7.287   3.428  0.7008  1.0588 -0.8442
  200ACTN    C2 2457   2.176   7.080   3.417  0.0164  0.5131 -0.5316
  200ACTN    O1 2458   2.095   7.059   3.503  0.2571  0.3629  0.3599
  200ACTN    C1 2459   2.272   6.978   3.374  0.2249 -0.2159  0.2235
  200ACTN    H1 2460   2.366   7.023   3.342  0.4846 -1.5806 -1.0321
  200ACTN    H2 2461   2.235   6.914   3.294 -1.1485  0.3523  0.3900
  200ACTN    H3 2462   2.299   6.922   3.463 -2.2051  0.5006  1.4383
  201ACTN    H6 2463   0.456   4.313   0.455 -1.5309  0.0621 -1.9154
  201ACTN    C3 2464   0.550   4.272   0.418 -0.6016  0.3160  0.0677
  201ACTN    H4 2465   0.606   4.223   0.498 -1.1535 -1.4583 -0.6079
  201ACTN    H5 2466   0.522   4.197   0.344  1.3824 -1.3492  0.9484
  201ACTN    C2 2467   0.628   4.385   0.359  0.3266  0.1621 -1.2005
  201ACTN    O1 2468   0.577   4.490   0.320  0.5446 -0.0231 -0.1866
  201ACTN    C1 2469   0.776   4.364   0.336 -0.2765 -0.5994  0.4906
  201ACTN    H1 2470   0.807   4.269   0.379  2.4253 -0.6193 -1.3631
  201ACTN    H2 2471   0.843   4.442   0.372  0.0342 -1.0068  0.8016
  201ACTN    H3 2472   0.783   4.347   0.228 -1.1010 -0.9310  0.4851
  202ACTN    H6 2473   7.710   3.233   2.264 -0.7364 -0.6402  1.1211
  202ACTN    C3 2474   7.765   3.309   2.319  0.1841 -0.1188 -0.4827
  202ACTN    H4 2475   7.864   3.319   2.276  0.4403 -1.2754 -0.1626
  202ACTN    H5 2476   7.717   3.407   2.317  1.3473  0.5540  2.5009
  202ACTN    C2 2477   7.783   3.273   2.464  0.2717 -0.1224 -0.3470
  202ACTN    O1 2478   7.758   3.163   2.499 -0.0738  0.7731  0.0388
  202ACTN    C1 2479   7.825   3.375   2.566  0.6782 -0.4768  0.2888
  202ACTN    H1 2480   7.920   3.351   2.614  1.2115  0.5721 -0.2266
  202ACTN    H2 2481   7.753   3.376   2.648  0.8195 -0.8102  0.4179
  202ACTN    H3 2482   7.833   3.476   2.527  2.5097 -0.5038  0.5590
  203ACTN    H6 2483   6.350   8.208   2.553 -0.3715  2.5684  0.8741
  203ACTN    C3 2484   6.426   8.264   2.500 -0.0550  1.3224 -0.0048
  203ACTN    H4 2485   6.389   8.343   2.434  0.5291  2.2538  0.7798
  203ACTN    H5 2486   6.477   8.319   2.578 -0.3038  1.7964 -0.1769
  203ACTN    C2 2487   6.521   8.186   2.413 -1.3739 -0.4046  0.1652
  203ACTN    O1 2488   6.476   8.135   2.314  0.0730 -0.4777 -0.1820
  203ACTN    C1 2489   6.669   8.193   2.432 -0.2562  0.1393  0.2225
  203ACTN    H1 2490   6.686   8.234   2.532 -2.2257 -0.4011  0.8006
  203ACTN    H2 2491   6.712   8.251   2.351 -1.1455  1.0815  0.4112
  203ACTN    H3 2492   6.716   8.095   2.432  1.5734  1.0032  0.1438
  204ACTN    H6 2493   4.072   3.486   7.083 -1.2492  1.1446  1.7423
  204ACTN    C3 2494   4.067   3.394   7.141  0.2736  0.0825  0.2447
  204ACTN    H4 2495   4.018   3.421   7.235  0.6889  2.3359 -0.1535
  204ACTN    H5 2496   4.007   3.321   7.088  1.8384 -0.9454 -0.1325
  204ACTN    C2 2497   4.204   3.335   7.175  0.0850 -0.3934  0.2421
  204ACTN    O1 2498   4.248   3.235   7.119  0.2250  0.2358  0.2069
  204ACTN    C1 2499   4.292   3.413   7.275  0.2463 -0.2357  0.0628
  204ACTN    H1 2500   4.343   3.353   7.350 -0.2482 -0.5509  0.1491
  204ACTN    H2 2501   4.236   3.492   7.325  3.4928  2.5166 -0.4967
  204ACTN    H3 2502   4.372   3.472   7.230  0.2860 -0.1609  0.2314
  205ACTN    H6 2503   5.964   8.760   3.603  0.5862  2.9948  1.3802
  205ACTN    C3 2504   5.908   8.794   3.516  0.0560  0.2311  0.5886
  205ACTN    H4 2505   5.969   8.878   3.481  0.4763 -0.2032  0.2725
  205ACTN    H5 2506   5.922   8.718   3.439 -2.6846  0.3874 -0.1114
  205ACTN    C2 2507   5.768   8.823   3.549 -0.1889 -0.2502  0.4396
  205ACTN    O1 2508   5.731   8.844   3.660 -0.2540 -0.0857  0.0021
  205ACTN    C1 2509   5.695   8.867   3.432  0.6952 -0.0636  0.9886
  205ACTN    H1 2510   5.723   8.970   3.413  0.9211 -0.2830  0.1356
  205ACTN    H2 2511   5.587   8.859   3.449 -0.0416 -1.4332 -3.5422
  205ACTN    H3 2512   5.720   8.811   3.342  1.0637  2.2269 -0.3732
  206ACTN    H6 2513   1.900   4.806   8.844  0.2606  0.8690  1.4024
  206ACTN    C3 2514   1.818   4.776   8.908 -0.7096  0.1602 -0.1400
  206ACTN    H4 2515   1.810   4.668   8.923  2.9876 -0.1090  0.3170
  206ACTN    H5 2516   1.835   4.824   9.005  1.6810  0.2567 -0.5862
  206ACTN    C2 2517   1.693   4.826   8.855 -0.3910 -0.1428  0.2391
  206ACTN    O1 2518   1.639   4.776   8.760 -0.0243 -0.5508 -0.0852
  206ACTN    C1 2519   1.635   4.952   8.917 -0.2051 -0.0766 -0.1816
  206ACTN    H1 2520   1.561   4.936   8.996 -0.9948  0.6909 -0.7471
  206ACTN    H2 2521   1.587   5.013   8.841  1.0684  0.5470 -0.4964
  206ACTN    H3 2522   1.707   5.014   8.969 -0.4338 -0.4761  0.6226
  207ACTN    H6 2523   5.052   0.998   6.674 -2.6312 -1.7987 -0.9991
  207ACTN    C3 2524   5.117   0.967   6.593 -0.5121 -0.7070  0.2479
  207ACTN    H4 2525   5.209   0.929   6.638 -1.0417  0.6838  2.5962
  207ACTN    H5 2526   5.075   0.886   6.534 -2.1665  0.0868  0.3203
  207ACTN    C2 2527   5.131   1.078   6.495 -0.1561  0.0017 -0.1132
  207ACTN    O1 2528   5.072   1.070   6.386 -0.2203  0.1351  0.0430
  207ACTN    C1 2529   5.202   1.206   6.517  0.5035  0.0638  0.1067
  207ACTN    H1 2530   5.308   1.186   6.532  0.6398  1.2639  0.7435
  207ACTN    H2 2531   5.149   1.243   6.604 -0.8480 -1.0540 -0.2197
  207ACTN    H3 2532   5.194   1.282   6.439 -0.9318 -0.6363 -0.4546
  208ACTN    H6 2533   1.476   8.158   3.393 -0.4589 -0.1664  0.3212
  208ACTN    C3 2534   1.416   8.135   3.305  0.2036  0.0406 -0.1897
  208ACTN    H4 2535   1.404   8.228   3.250 -0.2751  0.6499  0.9404
  208ACTN    H5 2536   1.470   8.060   3.247 -0.4368 -0.1748 -0.5106
  208ACTN    C2 2537   1.282   8.090   3.346 -0.5289  0.0024  0.6921
  208ACTN    O1 2538   1.243   7.976   3.324 -0.1087  0.2199  0.3564
  208ACTN    C1 2539   1.194   8.187   3.402  0.0714 -0.1992 -0.4052
  208ACTN    H1 2540   1.237   8.227   3.494  1.3357 -0.8006 -0.7213
  208ACTN    H2 2541   1.091   8.157   3.417  0.1419 -0.6887 -0.8906
  208ACTN    H3 2542   1.200   8.268   3.329  2.1410  1.2788  1.3490
  209ACTN    H6 2543   1.441   7.632   3.195 -0.2743  0.8071  2.7695
  209ACTN    C3 2544   1.488   7.729   3.177  0.1526  0.1162 -0.0971
  209ACTN    H4 2545   1.464   7.750   3.072 -2.2621 -1.5830  0.0643
  209ACTN    H5 2546   1.440   7.800   3.245 -0.8623 -0.8314  0.1863
  209ACTN    C2 2547   1.637   7.722   3.202  0.0162  0.1563  1.0145
  209ACTN    O1 2548   1.686   7.725   3.310 -0.4867  0.5092  0.1846
  209ACTN    C1 2549   1.732   7.721   3.081 -0.2848 -0.2421  0.8855
  209ACTN    H1 2550   1.837   7.728   3.109  0.4994 -2.8603 -1.1497
  209ACTN    H2 2551   1.714   7.811   3.021  0.3029 -0.9345 -0.3561
  209ACTN    H3 2552   1.720   7.642   3.007 -2.3559 -1.2310  2.2361
  210ACTN    H6 2553   0.028   7.432   8.243  3.2426 -0.4521 -0.2613
  210ACTN    C3 2554   0.043   7.496   8.156 -0.1097 -0.1640 -0.6641
  210ACTN    H4 2555   0.151   7.505   8.150 -0.0780  0.2563  0.3743
  210ACTN    H5 2556   0.002   7.433   8.076 -4.5399  0.0875  1.2245
  210ACTN    C2 2557  -0.027   7.625   8.160 -0.0119 -0.2417 -0.4931
  210ACTN    O1 2558  -0.086   7.665   8.071  0.0276 -0.0697  0.4881
  210ACTN    C1 2559   0.002   7.704   8.280  0.3931  0.8680 -0.1268
  210ACTN    H1 2560  -0.089   7.752   8.317  1.3010  2.5237  0.0017
  210ACTN    H2 2561   0.073   7.780   8.249  0.3502  0.7231 -0.5798
  210ACTN    H3 2562   0.041   7.640   8.359 -3.4338  0.2093  1.3315
  211ACTN    H6 2563   1.977   7.121   4.800 -1.0689  0.4078 -0.5198
  211ACTN    C3 2564   1.982   7.187   4.713  0.7092  0.5995 -0.2952
  211ACTN    H4 2565   1.951   7.283   4.754 -1.0928  0.7810 -2.0110
  211ACTN    H5 2566   2.089   7.189   4.693  0.5781  0.0223 -1.0608
  211ACTN    C2 2567   1.898   7.149   4.595  0.1117  0.8226  0.2626
  211ACTN    O1 2568   1.814   7.060   4.615  0.5877  0.6174  0.0959
  211ACTN    C1 2569   1.914   7.209   4.454 -0.8996  0.2360 -0.3788
  211ACTN    H1 2570   1.997   7.279   4.450 -2.0384  1.5216 -2.2872
  211ACTN    H2 2571   1.823   7.265   4.433 -0.9773  0.3188  0.1494
  211ACTN    H3 2572   1.925   7.133   4.377 -1.9717 -2.0753  1.6653
  212ACTN    H6 2573   6.257   4.103   7.380 -2.0827  1.8242  2.9289
  212ACTN    C3 2574   6.340   4.173   7.386 -0.1859 -0.1318  0.4416
  212ACTN    H4 2575   6.327   4.226   7.480  2.0641 -1.3634  1.4944
  212ACTN    H5 2576   6.432   4.118   7.405  0.5659  0.2481 -1.8737
  212ACTN    C2 2577   6.353   4.258   7.267  0.2948  0.0633  0.2904
  212ACTN    O1 2578   6.281   4.357   7.252 -0.3174 -0.0916  0.6440
  212ACTN    C1 2579   6.465   4.231   7.180  0.0451 -0.5668  0.3496
  212ACTN    H1 2580   6.431   4.195   7.083 -0.1868 -0.2074  0.2991
  212ACTN    H2 2581   6.535   4.165   7.233 -1.1131 -2.2859 -0.2322
  212ACTN    H3 2582   6.523   4.320   7.154  0.6668 -0.6886  1.2932
  213ACTN    H6 2583   3.575   7.461   6.761  0.3622  0.0429  0.0268
  213ACTN    C3 2584   3.662   7.410   6.720 -0.1041 -0.5032 -0.2892
  213ACTN    H4 2585   3.688   7.459   6.627  1.9668 -0.3016  0.3606
  213ACTN    H5 2586   3.743   7.418   6.793 -3.1382 -0.2931  3.2506
  213ACTN    C2 2587   3.615   7.272   6.706  0.6038 -0.2035  0.0642
  213ACTN    O1 2588   3.547   7.252   6.606 -0.4251 -0.0712 -0.3642
  213ACTN    C1 2589   3.630   7.158   6.808  0.5024  0.0874  0.0710
  213ACTN    H1 2590   3.720   7.163   6.869  0.0083 -1.1554  0.9207
  213ACTN    H2 2591   3.630   7.063   6.754  1.4521 -0.0441  0.2916
  213ACTN    H3 2592   3.540   7.166   6.868  0.4045  0.2211 -0.0928
  214ACTN    H6 2593   6.114   7.561   0.104 -1.4317  0.6100 -2.1982
  214ACTN    C3 2594   6.171   7.485   0.050 -0.1094 -0.2255  0.3253
  214ACTN    H4 2595   6.124   7.480  -0.048  2.3832  0.3488 -0.9375
  214ACTN    H5 2596   6.271   7.523   0.029 -0.4356  1.0932  1.0610
  214ACTN    C2 2597   6.179   7.341   0.104  0.1465 -0.1395  0.4936
  214ACTN    O1 2598   6.157   7.324   0.223 -0.4389 -0.5291 -0.1343
  214ACTN    C1 2599   6.180   7.238  -0.001 -0.7672  0.0300  0.0739
  214ACTN    H1 2600   6.252   7.267  -0.078 -1.2940 -0.6206 -0.6632
  214ACTN    H2 2601   6.081   7.222  -0.043  1.4209 -2.6002 -4.5117
  214ACTN    H3 2602   6.219   7.148   0.045  0.5337  0.6113  0.1410
  215ACTN    H6 2603   8.548   6.499   4.693 -0.6230  0.2878  0.4590
  215ACTN    C3 2604   8.615   6.575   4.734  0.5431  0.0236 -0.8959
  215ACTN    H4 2605   8.721   6.562   4.713  1.5175  1.0735  3.0462
  215ACTN    H5 2606   8.592   6.672   4.690 -0.2093  0.1634 -0.2136
  215ACTN    C2 2607   8.583   6.571   4.877 -0.8510  0.4806  0.1757
  215ACTN    O1 2608   8.614   6.476   4.946  0.1020 -0.8131  0.1949
  215ACTN    C1 2609   8.542   6.710   4.925  0.1799 -0.7784  0.3704
  215ACTN    H1 2610   8.624   6.746   4.988  0.9508  0.6014 -1.3872
  215ACTN    H2 2611   8.447   6.698   4.978 -0.0925  0.0643  0.0767
  215ACTN    H3 2612   8.531   6.783   4.845  1.4640  0.1582  1.0197
  216ACTN    H6 2613   4.255   8.184   6.097 -1.8475  1.0089  0.1542
  216ACTN    C3 2614   4.269   8.112   6.178 -0.3975  0.4419 -0.5835
  216ACTN    H4 2615   4.311   8.168   6.261  0.6382  1.1973 -1.6002
  216ACTN    H5 2616   4.170   8.070   6.199  0.8321 -1.2272  2.1044
  216ACTN    C2 2617   4.360   7.992   6.150 -0.5594 -0.6041  0.8740
  216ACTN    O1 2618   4.349   7.927   6.046 -0.0966  0.5402 -0.3627
  216ACTN    C1 2619   4.487   7.974   6.231 -0.1195 -0.2288  0.4231
  216ACTN    H1 2620   4.479   7.942   6.335  0.2429  0.2819  0.6088
  216ACTN    H2 2621   4.547   8.065   6.243  0.2404 -0.2214 -1.2686
  216ACTN    H3 2622   4.549   7.897   6.184 -0.6921 -0.1683 -0.4243
  217ACTN    H6 2623   2.904   5.797   8.745  2.0606 -1.9289  1.4388
  217ACTN    C3 2624   2.811   5.741   8.754  0.1670  0.9149  0.2939
  217ACTN    H4 2625   2.725   5.808   8.750  0.1900  0.8645 -1.4057
  217ACTN    H5 2626   2.814   5.693   8.852  0.8284  0.2740 -0.0301
  217ACTN    C2 2627   2.798   5.629   8.656 -0.1229  0.3003 -0.1644
  217ACTN    O1 2628   2.695   5.566   8.629 -0.4011  0.0711 -0.3952
  217ACTN    C1 2629   2.911   5.596   8.564 -0.2368  0.3598  0.6491
  217ACTN    H1 2630   2.895   5.659   8.476 -2.9440  0.7298  1.3506
  217ACTN    H2 2631   2.910   5.492   8.532  1.9979  0.9740 -1.5374
  217ACTN    H3 2632   3.005   5.622   8.612 -0.2672  1.1155  0.2958
  218ACTN    H6 2633   5.392   6.860   7.122  0.1423 -2.1404 -1.9858
  218ACTN    C3 2634   5.419   6.799   7.208 -0.0839  1.2273  0.5865
  218ACTN    H4 2635   5.357   6.710   7.203 -0.7511  1.6251  1.5247
  218ACTN    H5 2636   5.522   6.768   7.190 -0.8447 -0.7489 -0.5438
  218ACTN    C2 2637   5.404   6.878   7.335  0.3503 -0.2297 -0.6902
  218ACTN    O1 2638   5.291   6.878   7.381 -0.3021 -0.0473  0.8412
  218ACTN    C1 2639   5.522   6.936   7.407 -0.4172  0.3794 -0.0461
  218ACTN    H1 2640   5.526   6.931   7.515 -2.0388  1.9103  0.1111
  218ACTN    H2 2641   5.535   7.040   7.375  1.0356 -0.0192 -0.8031
  218ACTN    H3 2642   5.612   6.896   7.360 -1.7170 -1.0465 -1.4167
  219ACTN    H6 2643   5.012   0.841   3.514 -0.2333  0.5200 -2.1994
  219ACTN    C3 2644   5.110   0.809   3.478  0.0373 -0.6956 -0.4496
  219ACTN    H4 2645   5.111   0.752   3.385 -0.6779  1.3241 -1.7191
  219ACTN    H5 2646   5.153   0.907   3.462 -1.5481  0.0196 -0.4392
  219ACTN    C2 2647   5.179   0.742   3.596 -0.1129  0.4557  0.0616
  219ACTN    O1 2648   5.112   0.654   3.651  0.0711 -0.1078  0.3807
  219ACTN    C1 2649   5.330   0.736   3.597  0.0855  0.0408  0.2456
  219ACTN    H1 2650   5.354   0.649   3.659  1.1807 -0.6939 -1.1647
  219ACTN    H2 2651   5.371   0.828   3.639  0.6407 -0.6606  1.2635
  219ACTN    H3 2652   5.376   0.720   3.500 -0.4395  0.1276 -0.0168
  220ACTN    H6 2653   3.596   2.975   3.794 -0.9517 -0.5381  1.5877
  220ACTN    C3 2654   3.667   2.892   3.786 -0.4055  0.0555  0.1082
  220ACTN    H4 2655   3.752   2.894   3.853  0.4149  0.8706 -0.9416
  220ACTN    H5 2656   3.619   2.798   3.814  1.0233 -0.8604 -0.4813
  220ACTN    C2 2657   3.705   2.863   3.648 -0.1037  0.1454 -0.0341
  220ACTN    O1 2658   3.817   2.815   3.623 -0.1916 -0.7377 -0.3601
  220ACTN    C1 2659   3.612   2.892   3.532  0.0233  0.0075  0.5831
  220ACTN    H1 2660   3.557   2.982   3.561  1.0319  0.5527  0.8055
  220ACTN    H2 2661   3.539   2.811   3.534 -2.6902  2.3658  2.7639
  220ACTN    H3 2662   3.673   2.915   3.445 -1.2380  2.3467  0.2474
  221ACTN    H6 2663   8.695   0.880   1.451 -0.2676  0.6761  1.8350
  221ACTN    C3 2664   8.800   0.870   1.423 -0.4937  0.4327  1.0401
  221ACTN    H4 2665   8.851   0.961   1.391 -2.0766  0.9862 -0.0117
  221ACTN    H5 2666   8.845   0.839   1.517 -1.6448  2.3103  2.2584
  221ACTN    C2 2667   8.821   0.765   1.319 -1.0662 -0.1058 -0.1360
  221ACTN    O1 2668   8.929   0.739   1.262 -0.5618 -0.5944  0.0399
  221ACTN    C1 2669   8.691   0.707   1.264  0.2830  0.0530  0.6914
  221ACTN    H1 2670   8.707   0.638   1.181 -1.9286  1.0452 -0.6108
  221ACTN    H2 2671   8.634   0.790   1.222 -0.3961  0.8413  3.1025
  221ACTN    H3 2672   8.632   0.663   1.344 -2.0996 -1.2806 -1.6935
  222ACTN    H6 2673   4.234   0.671   1.707 -2.8905  0.5210  1.1267
  222ACTN    C3 2674   4.246   0.566   1.731  0.4664  0.4222 -0.6196
  222ACTN    H4 2675   4.346   0.551   1.771 -0.0248  1.4468  1.0828
  222ACTN    H5 2676   4.216   0.506   1.645 -1.7171 -0.0958  0.4440
  222ACTN    C2 2677   4.151   0.536   1.851  0.4095  0.2778 -0.2795
  222ACTN    O1 2678   4.123   0.423   1.886 -0.4274  0.1906  0.7093
  222ACTN    C1 2679   4.100   0.657   1.928  0.2358 -0.0540  0.3658
  222ACTN    H1 2680   4.102   0.745   1.863  1.5572 -1.1332 -1.0911
  222ACTN    H2 2681   4.168   0.686   2.009  1.1515 -1.2483  0.0373
  222ACTN    H3 2682   4.002   0.645   1.975  1.0710 -0.9339  1.9403
  223ACTN    H6 2683   4.317   6.133   5.159  2.0048 -1.1895  2.4899
  223ACTN    C3 2684   4.399   6.192   5.117  0.0668  0.0600  0.3174
  223ACTN    H4 2685   4.437   6.257   5.195  0.9719  0.1959 -0.2260
  223ACTN    H5 2686   4.484   6.127   5.093  0.6369  1.2210 -0.8881
  223ACTN    C2 2687   4.350   6.276   5.002 -0.4462  0.0217 -0.1086
  223ACTN    O1 2688   4.267   6.247   4.921  0.2341  0.8496 -0.0240
  223ACTN    C1 2689   4.391   6.413   5.008 -0.4145  0.4170  0.6114
  223ACTN    H1 2690   4.500   6.413   5.015 -0.4804 -1.1334  2.1898
  223ACTN    H2 2691   4.354   6.442   5.106 -1.0110 -0.0636  0.5336
  223ACTN    H3 2692   4.346   6.471   4.928 -0.7218 -0.6419  0.0009
  224ACTN    H6 2693   6.514   2.716   5.940  1.6844  2.1527  0.1157
  224ACTN    C3 2694   6.425   2.738   5.880  1.0585  0.0509  0.2418
  224ACTN    H4 2695   6.451   2.755   5.776  0.8496 -2.2648 -0.2271
  224ACTN    H5 2696   6.380   2.827   5.924  2.0424  0.4356  0.4815
  224ACTN    C2 2697   6.334   2.622   5.889 -0.9044 -0.2802  0.3108
  224ACTN    O1 2698   6.379   2.507   5.883 -0.1114 -0.0016  0.7465
  224ACTN    C1 2699   6.185   2.639   5.894 -0.0681  0.2884 -0.3413
  224ACTN    H1 2700   6.142   2.675   5.987 -1.9169  1.6706 -1.6939
  224ACTN    H2 2701   6.140   2.547   5.856  0.8764  0.3935 -1.7635
  224ACTN    H3 2702   6.169   2.713   5.816 -0.8093 -0.6852 -1.1193
  225ACTN    H6 2703   2.411   1.233   0.101 -0.3188  1.0298  0.6213
  225ACTN    C3 2704   2.474   1.179   0.171 -0.1503 -0.0608 -0.3533
  225ACTN    H4 2705   2.420   1.178   0.266  0.1004 -0.7929 -0.2105
  225ACTN    H5 2706   2.471   1.074   0.141  0.4101  0.8854 -3.8968
  225ACTN    C2 2707   2.607   1.233   0.185  0.7901  0.0878 -0.0703
  225ACTN    O1 2708   2.692   1.165   0.242  0.0233  0.6123 -0.6718
  225ACTN    C1 2709   2.651   1.340   0.098 -0.1324 -0.5306 -0.6689
  225ACTN    H1 2710   2.587   1.427   0.094  0.3396 -0.2312 -1.9474
  225ACTN    H2 2711   2.655   1.308  -0.006 -1.4997 -1.8112 -0.3463
  225ACTN    H3 2712   2.746   1.377   0.136  0.1780 -1.5340 -0.4359
  226ACTN    H6 2713   6.195   7.544   3.287  1.6499  0.1287  2.1840
  226ACTN    C3 2714   6.127   7.622   3.322  0.1535 -0.3872  0.5255
  226ACTN    H4 2715   6.156   7.656   3.422  0.6943 -0.8474  0.5295
  226ACTN    H5 2716   6.138   7.701   3.248 -2.1688  0.7626  1.3560
  226ACTN    C2 2717   5.985   7.565   3.324 -0.5470  0.2504  0.7663
  226ACTN    O1 2718   5.975   7.443   3.330  0.6388  0.0155 -0.4462
  226ACTN    C1 2719   5.874   7.652   3.361  0.7080  0.0041  0.6378
  226ACTN    H1 2720   5.845   7.726   3.286  0.4358  1.9167  2.5864
  226ACTN    H2 2721   5.911   7.711   3.445 -0.6808  0.9886  0.5773
  226ACTN    H3 2722   5.788   7.592   3.390 -0.5450  2.5168  2.4017
  227ACTN    H6 2723   3.298   1.415   6.462  0.3994 -0.4567  0.3602
  227ACTN    C3 2724   3.235   1.461   6.538  0.0111  0.1652 -0.3234
  227ACTN    H4 2725   3.301   1.501   6.616  2.1181 -1.7213 -1.0798
  227ACTN    H5 2726   3.191   1.551   6.494  1.2074  1.3404  0.8294
  227ACTN    C2 2727   3.127   1.364   6.589  0.8357  0.3844 -0.5219
  227ACTN    O1 2728   3.074   1.286   6.510 -0.4250 -0.3031 -0.0194
  227ACTN    C1 2729   3.082   1.367   6.733 -0.1638 -0.3268  0.1341
  227ACTN    H1 2730   3.076   1.474   6.751 -0.8886 -0.2382 -0.5815
  227ACTN    H2 2731   3.158   1.330   6.801  0.7701  0.5118 -0.4371
  227ACTN    H3 2732   2.982   1.326   6.746 -0.6818  0.6387 -0.7262
  228ACTN    H6 2733   1.547   6.476   7.366  1.1061 -0.0792  0.5117
  228ACTN    C3 2734   1.500   6.378   7.371 -0.3158  0.5437 -0.3979
  228ACTN    H4 2735   1.471   6.340   7.273  0.3985 -0.2293 -0.3192
  228ACTN    H5 2736   1.571   6.313   7.421 -3.5208  0.5049  4.4036
  228ACTN    C2 2737   1.378   6.372   7.445  0.6709 -0.7221  0.1809
  228ACTN    O1 2738   1.381   6.408   7.562 -0.0200 -0.1262 -0.1686
  228ACTN    C1 2739   1.259   6.297   7.390  0.2909  0.1093 -0.7243
  228ACTN    H1 2740   1.260   6.195   7.428  1.0888 -0.7464 -2.9604
  228ACTN    H2 2741   1.264   6.309   7.282  1.0850 -1.7377 -0.9023
  228ACTN    H3 2742   1.164   6.339   7.426  0.3126  1.3729 -2.0872
  229ACTN    H6 2743   3.082   5.313   7.530 -1.1279 -2.1984 -1.6944
  229ACTN    C3 2744   3.028   5.276   7.617  0.1020 -0.4299 -0.1324
  229ACTN    H4 2745   3.067   5.305   7.714  0.3680 -0.5241 -0.2106
  229ACTN    H5 2746   2.924   5.308   7.619  0.6127  1.1827  2.1135
  229ACTN    C2 2747   3.036   5.128   7.607 -0.1902 -0.5605  0.2096
  229ACTN    O1 2748   3.015   5.074   7.495  0.4154 -0.1173  0.8525
  229ACTN    C1 2749   3.028   5.041   7.731 -0.2108  0.5263 -0.0881
  229ACTN    H1 2750   3.016   5.111   7.814  0.2842  1.5643 -0.8814
  229ACTN    H2 2751   3.119   4.984   7.749  1.1570  2.4968 -0.5235
  229ACTN    H3 2752   2.939   4.977   7.727  0.6820 -0.6471 -2.1875
  230ACTN    H6 2753   1.752   5.085   6.062 -0.6633 -0.0841 -1.6166
  230ACTN    C3 2754   1.781   4.984   6.033 -0.0357 -0.3887 -0.0184
  230ACTN    H4 2755   1.889   4.976   6.028 -0.0039  0.2646 -0.4740
  230ACTN    H5 2756   1.735   4.915   6.103  0.8785 -1.7799 -0.7652
  230ACTN    C2 2757   1.721   4.960   5.898 -0.4729 -0.1929  0.0950
  230ACTN    O1 2758   1.760   5.013   5.794 -0.4258  0.0871  0.0588
  230ACTN    C1 2759   1.585   4.892   5.903 -0.4592 -0.0001 -0.2735
  230ACTN    H1 2760   1.517   4.959   5.955  1.8053  1.3637  1.0494
  230ACTN    H2 2761   1.594   4.796   5.953  2.3045 -0.5129 -1.6444
  230ACTN    H3 2762   1.542   4.869   5.806  0.7377 -0.9572 -0.5926
  231ACTN    H6 2763   2.896   3.252   8.395  1.0943  0.1635  0.5096
  231ACTN    C3 2764   2.988   3.283   8.346  0.5739 -0.2153 -0.7196
  231ACTN    H4 2765   2.970   3.271   8.239  3.3571 -4.7822 -0.7878
  231ACTN    H5 2766   3.007   3.388   8.370  0.8089 -0.2627 -0.7032
  231ACTN    C2 2767   3.092   3.193   8.395  0.6491 -0.4837 -0.0233
  231ACTN    O1 2768   3.120   3.196   8.512 -0.1460 -0.2639 -0.1754
  231ACTN    C1 2769   3.192   3.136   8.300  0.5461  1.0943 -0.2441
  231ACTN    H1 2770   3.295   3.170   8.315  1.0180 -0.4596  0.0721
  231ACTN    H2 2771   3.162   3.155   8.197 -0.6198  1.3003  0.1263
  231ACTN    H3 2772   3.208   3.029   8.312  1.7850  1.3592  0.5712
  232ACTN    H6 2773   2.208   5.853   8.461  0.5038 -0.5461 -0.1676
  232ACTN    C3 2774   2.168   5.754   8.440  0.3173 -0.5328  0.1227
  232ACTN    H4 2775   2.250   5.684   8.425 -0.2036 -1.7443  2.7565
  232ACTN    H5 2776   2.120   5.727   8.534  0.7915 -1.2094  0.1681
  232ACTN    C2 2777   2.074   5.761   8.324  0.8043  0.7282  0.2720
  232ACTN    O1 2778   1.998   5.853   8.313  0.8890  0.3099 -0.2501
  232ACTN    C1 2779   2.084   5.662   8.210  0.2786 -0.5073  0.5342
  232ACTN    H1 2780   2.153   5.691   8.130  0.4195  1.8787  1.4710
  232ACTN    H2 2781   1.988   5.661   8.159 -0.4521 -1.4623  1.9108
  232ACTN    H3 2782   2.098   5.557   8.235 -4.6790 -1.1878  0.8409
  233ACTN    H6 2783   5.318   2.485   7.615 -0.0624 -1.7570  0.6599
  233ACTN    C3 2784   5.242   2.518   7.686 -0.0461 -0.4650  0.0911
  233ACTN    H4 2785   5.144   2.519   7.639  0.8287 -1.1385 -1.7987
  233ACTN    H5 2786   5.230   2.450   7.770  0.9253 -0.3432  0.3331
  233ACTN    C2 2787   5.263   2.655   7.736  0.1907  0.6638 -0.1505
  233ACTN    O1 2788   5.361   2.682   7.808  0.5474 -0.4235  0.0125
  233ACTN    C1 2789   5.143   2.745   7.730  0.6281  0.4691  0.4270
  233ACTN    H1 2790   5.064   2.717   7.799  0.5067 -0.9284 -0.2591
  233ACTN    H2 2791   5.092   2.745   7.634 -1.9760  0.1797  1.7745
  233ACTN    H3 2792   5.161   2.847   7.766 -0.9072  0.9249 -0.0821
  234ACTN    H6 2793   7.831   1.782   6.734  0.3204  0.9404 -0.1292
  234ACTN    C3 2794   7.892   1.702   6.693 -0.2686  0.6413 -0.4467
  234ACTN    H4 2795   7.956   1.656   6.769  1.2486 -0.0867 -2.1191
  234ACTN    H5 2796   7.825   1.627   6.652  1.5459 -1.2853  0.0100
  234ACTN    C2 2797   7.984   1.746   6.582  0.0229  0.4940  0.5074
  234ACTN    O1 2798   7.986   1.687   6.471  0.0851 -0.9412  0.2032
  234ACTN    C1 2799   8.063   1.874   6.589  1.0996 -0.8687  1.3328
  234ACTN    H1 2800   8.060   1.914   6.690  0.0532  0.3766  0.8315
  234ACTN    H2 2801   8.036   1.956   6.521  0.1382 -0.3275  2.3461
  234ACTN    H3 2802   8.169   1.851   6.577  1.3782  1.0606 -0.2196
  235ACTN    H6 2803   4.141   7.859   3.278  0.6366  0.0692  1.0545
  235ACTN    C3 2804   4.123   7.752   3.292 -0.3455 -0.0021 -0.6382
  235ACTN    H4 2805   4.015   7.743   3.280 -0.5427  1.3847  0.0132
  235ACTN    H5 2806   4.172   7.701   3.209 -1.6053  1.8500 -2.5707
  235ACTN    C2 2807   4.175   7.715   3.422  0.9461 -0.5931 -0.9282
  235ACTN    O1 2808   4.293   7.689   3.440 -0.5628 -0.7264  0.0548
  235ACTN    C1 2809   4.091   7.716   3.543  0.7149  0.3379 -0.2949
  235ACTN    H1 2810   3.988   7.711   3.507  0.1366 -0.2716  1.3882
  235ACTN    H2 2811   4.110   7.801   3.608  0.0313 -0.8862  1.5201
  235ACTN    H3 2812   4.114   7.621   3.591 -1.6778 -0.7339 -1.1775
  236ACTN    H6 2813   3.280   4.973   1.821 -0.1306 -0.3011 -1.1289
  236ACTN    C3 2814   3.386   4.969   1.845 -0.3920 -0.1360  0.0855
  236ACTN    H4 2815   3.407   4.867   1.880 -1.8182 -0.6364 -0.5098
  236ACTN    H5 2816   3.419   5.042   1.919  1.0848  1.6945 -2.3109
  236ACTN    C2 2817   3.465   4.993   1.718 -1.2857 -0.3696  0.2588
  236ACTN    O1 2818   3.401   4.961   1.615 -0.2433  0.1374 -0.2445
  236ACTN    C1 2819   3.602   5.058   1.716  0.9711 -0.6810 -1.0803
  236ACTN    H1 2820   3.640   5.065   1.818  0.2864  0.3326 -0.8950
  236ACTN    H2 2821   3.603   5.157   1.670  0.2230 -0.4983 -0.7077
  236ACTN    H3 2822   3.673   4.991   1.667  1.7620 -0.7929  0.1804
  237ACTN    H6 2823   6.169   0.685   4.538  0.6988  1.0354  0.8004
  237ACTN    C3 2824   6.074   0.692   4.589 -0.1119 -0.3625 -0.4720
  237ACTN    H4 2825   6.083   0.741   4.686 -3.3619 -0.8776  0.1592
  237ACTN    H5 2826   6.010   0.757   4.529 -0.0933 -0.9439 -1.1254
  237ACTN    C2 2827   6.014   0.556   4.581 -0.7731 -0.1002  0.8187
  237ACTN    O1 2828   6.025   0.486   4.682  0.5687 -0.1939  0.1247
  237ACTN    C1 2829   5.966   0.495   4.453  0.3075 -0.3518  0.8682
  237ACTN    H1 2830   6.000   0.392   4.444 -2.2129 -1.1977  0.7881
  237ACTN    H2 2831   6.006   0.550   4.369 -2.1548  1.1215  0.6072
  237ACTN    H3 2832   5.857   0.497   4.460  0.3655  1.8539  1.5715
  238ACTN    H6 2833   1.161   7.427   6.477 -0.4936  0.1759  1.2133
  238ACTN    C3 2834   1.083   7.503   6.465  0.3231  0.9286  0.6357
  238ACTN    H4 2835   1.000   7.444   6.504  1.8358 -1.3098  0.5967
  238ACTN    H5 2836   1.096   7.576   6.544  0.6949  0.2727  1.1851
  238ACTN    C2 2837   1.071   7.553   6.332  0.2168 -1.1659 -0.2895
  238ACTN    O1 2838   1.159   7.632   6.293 -0.0310  0.1247 -0.2324
  238ACTN    C1 2839   0.981   7.478   6.237 -0.1107  0.1000  0.1915
  238ACTN    H1 2840   1.029   7.426   6.154  0.7957 -0.1638  0.8758
  238ACTN    H2 2841   0.906   7.542   6.189 -0.3349  0.0897  0.5310
  238ACTN    H3 2842   0.932   7.395   6.286 -0.4122  0.1580 -0.0103
  239ACTN    H6 2843   1.105   5.178   0.345  0.8124 -1.6161 -0.6177
  239ACTN    C3 2844   1.211   5.197   0.357  0.4887 -0.0454 -0.1413
  239ACTN    H4 2845   1.219   5.255   0.450  1.7108 -0.7541  0.2131
  239ACTN    H5 2846   1.261   5.104   0.383  1.0677 -0.1637 -1.6399
  239ACTN    C2 2847   1.258   5.281   0.244 -0.7769  0.1084  0.5764
  239ACTN    O1 2848   1.222   5.400   0.236  0.1541  0.8908  0.3990
  239ACTN    C1 2849   1.354   5.217   0.151 -0.1788  0.3635  0.5016
  239ACTN    H1 2850   1.454   5.229   0.191 -0.1868 -0.2981  0.7306
  239ACTN    H2 2851   1.351   5.272   0.057  1.0105 -0.1278  0.1643
  239ACTN    H3 2852   1.332   5.111   0.138 -0.5528  0.3975  0.8504
  240ACTN    H6 2853   3.199   0.085   6.147 -0.8947  1.7978 -0.5090
  240ACTN    C3 2854   3.226   0.072   6.042  0.8098  0.0402  0.1163
  240ACTN    H4 2855   3.204  -0.033   6.020 -1.0002  0.7372 -1.5707
  240ACTN    H5 2856   3.160   0.133   5.981 -2.2737 -0.3530  2.8881
  240ACTN    C2 2857   3.368   0.094   6.028  0.3821  0.7595  0.2746
  240ACTN    O1 2858   3.431   0.157   6.115  0.1694  0.3989 -0.6491
  240ACTN    C1 2859   3.439   0.032   5.910 -0.3601 -0.2139 -0.1750
  240ACTN    H1 2860   3.491  -0.057   5.947 -1.4618 -0.4771  0.7553
  240ACTN    H2 2861   3.517   0.101   5.879 -0.5309 -0.7038 -1.7673
  240ACTN    H3 2862   3.378   0.004   5.825  1.0950 -1.0127 -0.9806
  241ACTN    H6 2863   6.671   4.306   5.772  1.6942  0.0572  0.2497
  241ACTN    C3 2864   6.619   4.367   5.847 -0.6417 -1.1479 -0.3540
  241ACTN    H4 2865   6.511   4.363   5.832 -1.2021  0.0339  3.0265
  241ACTN    H5 2866   6.631   4.331   5.949  1.0233  0.5000  0.0465
  241ACTN    C2 2867   6.663   4.506   5.829  0.9344 -0.0192  0.8145
  241ACTN    O1 2868   6.671   4.577   5.931 -0.7894 -1.1586 -0.1684
  241ACTN    C1 2869   6.659   4.569   5.693 -0.2490  0.4415 -0.4979
  241ACTN    H1 2870   6.636   4.496   5.616 -0.9630  0.0056  0.1137
  241ACTN    H2 2871   6.757   4.613   5.674  0.5427 -1.2618 -0.4229
  241ACTN    H3 2872   6.583   4.648   5.693 -1.4318 -0.6503  1.2873
  242ACTN    H6 2873   2.678   6.984   2.548 -2.1492 -0.5815  0.9965
  242ACTN    C3 2874   2.651   6.895   2.491 -0.3659 -0.7430  0.3671
  242ACTN    H4 2875   2.686   6.810   2.548 -0.7528 -0.8127  0.4979
  242ACTN    H5 2876   2.543   6.889   2.508 -0.4453  1.7463  0.9562
  242ACTN    C2 2877   2.692   6.897   2.350 -0.5504  0.3493  0.0719
  242ACTN    O1 2878   2.634   6.825   2.272 -0.2159  0.5461  0.2754
  242ACTN    C1 2879   2.827   6.952   2.308  0.2940  0.2938 -0.4605
  242ACTN    H1 2880   2.858   7.008   2.396  0.0763 -0.6599  0.2438
  242ACTN    H2 2881   2.816   7.021   2.225  3.5231  1.3677 -0.0395
  242ACTN    H3 2882   2.894   6.868   2.288 -0.9571 -1.2642  1.6575
  243ACTN    H6 2883   3.309   8.978   2.403 -0.7603 -2.3729  0.4290
  243ACTN    C3 2884   3.262   8.989   2.501 -0.3890  0.0698  0.3757
  243ACTN    H4 2885   3.326   8.944   2.577  2.1525 -1.3011 -2.4609
  243ACTN    H5 2886   3.260   9.096   2.520  0.5974  0.3436 -0.9385
  243ACTN    C2 2887   3.130   8.924   2.495 -0.1897 -0.8006 -0.1698
  243ACTN    O1 2888   3.117   8.810   2.531  0.5972  0.3509  0.2716
  243ACTN    C1 2889   3.029   9.002   2.422  0.6217  0.5281 -0.8383
  243ACTN    H1 2890   2.955   8.934   2.379  1.1884 -0.1747 -0.7069
  243ACTN    H2 2891   3.067   9.062   2.339  2.7942  2.0866  1.2120
  243ACTN    H3 2892   2.977   9.073   2.486 -3.0000 -2.0672 -0.7807
  244ACTN    H6 2893   1.303   1.737   6.357  0.1320 -1.0835  0.0705
  244ACTN    C3 2894   1.235   1.757   6.440  0.2620  0.1692 -0.1157
  244ACTN    H4 2895   1.250   1.863   6.459  1.7847 -0.0151 -0.2359
  244ACTN    H5 2896   1.134   1.725   6.413  0.7129 -1.6102  0.2332
  244ACTN    C2 2897   1.277   1.673   6.557 -0.2728 -0.4004  0.1836
  244ACTN    O1 2898   1.245   1.701   6.677 -0.6517  0.0643  0.5198
  244ACTN    C1 2899   1.334   1.529   6.529  0.9007 -0.2964  0.0941
  244ACTN    H1 2900   1.362   1.478   6.621  3.1893  0.6702 -0.0130
  244ACTN    H2 2901   1.418   1.527   6.458 -0.9794  1.0166 -2.2435
  244ACTN    H3 2902   1.255   1.473   6.480  1.1193 -1.0718  0.6257
  245ACTN    H6 2903   0.046   0.465   4.244 -0.4924  2.5432 -2.0319
  245ACTN    C3 2904   0.096   0.538   4.307  0.0670  0.8980 -0.5170
  245ACTN    H4 2905   0.065   0.637   4.273  0.9649  1.8465  1.3826
  245ACTN    H5 2906   0.061   0.528   4.409  2.0475  0.7445  0.1772
  245ACTN    C2 2907   0.242   0.523   4.314 -0.3898 -1.2835  0.1074
  245ACTN    O1 2908   0.295   0.431   4.251 -0.1631 -0.2649  0.1807
  245ACTN    C1 2909   0.311   0.622   4.397 -0.7101  0.0550 -0.4572
  245ACTN    H1 2910   0.409   0.578   4.417 -1.1280 -0.3357  0.8084
  245ACTN    H2 2911   0.250   0.646   4.484 -0.9389  0.2040 -0.6578
  245ACTN    H3 2912   0.330   0.712   4.338  1.2864  0.5639  0.9058
  246ACTN    H6 2913   2.591   7.148   6.636 -0.1262  2.0951 -1.2075
  246ACTN    C3 2914   2.578   7.201   6.731 -0.6871  0.1855 -0.1942
  246ACTN    H4 2915   2.492   7.268   6.729  1.4145  2.9565 -0.9878
  246ACTN    H5 2916   2.553   7.125   6.805  0.0737 -0.6540 -0.7786
  246ACTN    C2 2917   2.692   7.274   6.781 -0.1652 -0.0501  0.0792
  246ACTN    O1 2918   2.760   7.239   6.879 -0.4667  0.0801  0.6129
  246ACTN    C1 2919   2.738   7.395   6.708  0.1123  0.2921 -0.2171
  246ACTN    H1 2920   2.654   7.413   6.641 -1.3557 -1.9518  0.9625
  246ACTN    H2 2921   2.827   7.380   6.647 -1.8268  0.8419 -3.3120
  246ACTN    H3 2922   2.754   7.473   6.783 -0.6764 -0.4935  0.7830
  247ACTN    H6 2923   5.195   1.663   6.320  1.4046  1.0743  1.1927
  247ACTN    C3 2924   5.279   1.606   6.281  0.3471  0.1088  0.2891
  247ACTN    H4 2925   5.249   1.545   6.196  2.2206 -2.1300  1.1644
  247ACTN    H5 2926   5.359   1.673   6.251 -0.4525  2.2215  2.7075
  247ACTN    C2 2927   5.338   1.520   6.390  0.1151 -0.2337 -0.4315
  247ACTN    O1 2928   5.287   1.528   6.502 -0.1870 -0.1566  0.3715
  247ACTN    C1 2929   5.450   1.428   6.358 -0.0071  0.0086 -0.0383
  247ACTN    H1 2930   5.419   1.343   6.297 -0.4228 -0.2949  0.5912
  247ACTN    H2 2931   5.488   1.389   6.453 -0.1698 -0.9155 -0.3445
  247ACTN    H3 2932   5.525   1.490   6.309  0.0292 -0.2750 -0.3442
  248ACTN    H6 2933   4.722   3.235   3.174  0.3098  1.1628 -1.1800
  248ACTN    C3 2934   4.718   3.146   3.111  0.1829 -0.1678  0.7005
  248ACTN    H4 2935   4.789   3.075   3.155 -0.1237 -0.0391  1.4115
  248ACTN    H5 2936   4.765   3.187   3.022 -1.9290  0.8713  0.0372
  248ACTN    C2 2937   4.582   3.087   3.095  0.2101 -0.5850  0.4123
  248ACTN    O1 2938   4.519   3.129   3.006 -0.1018 -0.3173  0.3667
  248ACTN    C1 2939   4.543   2.964   3.168 -0.2674 -0.1039  0.1590
  248ACTN    H1 2940   4.624   2.930   3.233  0.6411 -1.5166 -1.6645
  248ACTN    H2 2941   4.515   2.882   3.103  0.6442 -0.6882  0.4870
  248ACTN    H3 2942   4.451   2.982   3.225 -0.1009  0.4815  0.2487
  249ACTN    H6 2943   7.231   2.889   3.978 -1.3340 -3.0692 -0.7136
  249ACTN    C3 2944   7.132   2.934   3.964  0.0609  0.4682  0.2620
  249ACTN    H4 2945   7.056   2.860   3.990 -0.0180  0.8204  1.0356
  249ACTN    H5 2946   7.134   3.016   4.035 -2.2800  0.6555  0.1443
  249ACTN    C2 2947   7.131   2.983   3.823  0.7873  0.0864 -0.1633
  249ACTN    O1 2948   7.109   3.104   3.807 -0.3231  0.0470 -0.2418
  249ACTN    C1 2949   7.153   2.888   3.720  0.0628 -0.3085 -0.1475
  249ACTN    H1 2950   7.063   2.827   3.721  0.9070 -1.6121  1.5664
  249ACTN    H2 2951   7.244   2.830   3.738  0.0193 -0.2763  0.1755
  249ACTN    H3 2952   7.151   2.936   3.623 -0.7814  1.7532  0.8621
  250ACTN    H6 2953   1.929   7.844   5.340  0.9957 -0.5087 -1.3985
  250ACTN    C3 2954   2.037   7.853   5.353  0.6643  0.6067  0.8380
  250ACTN    H4 2955   2.083   7.758   5.328 -0.7527  0.1165  0.0195
  250ACTN    H5 2956   2.068   7.925   5.277  0.8450 -0.2952  0.0436
  250ACTN    C2 2957   2.057   7.906   5.482  0.4532  0.5246  0.3686
  250ACTN    O1 2958   2.128   7.852   5.564 -0.0750  0.2669  0.3329
  250ACTN    C1 2959   1.990   8.032   5.530  0.4739 -0.3364 -0.1319
  250ACTN    H1 2960   1.945   8.086   5.446  0.6311  1.0142  0.6399
  250ACTN    H2 2961   2.060   8.097   5.582  3.5914 -3.0461 -0.7496
  250ACTN    H3 2962   1.905   8.014   5.596  0.1690  0.5208 -0.2776
  251ACTN    H6 2963   4.355   2.482   1.605  0.3989 -0.4687  1.3509
  251ACTN    C3 2964   4.453   2.487   1.557  0.1007 -0.4864  0.7315
  251ACTN    H4 2965   4.492   2.387   1.537 -1.4742 -0.9917  0.1352
  251ACTN    H5 2966   4.522   2.541   1.623 -1.0562  0.3407  1.3000
  251ACTN    C2 2967   4.444   2.564   1.426  0.1975 -0.5783  0.3609
  251ACTN    O1 2968   4.364   2.661   1.413  0.4682 -0.1800  0.2993
  251ACTN    C1 2969   4.528   2.516   1.315  0.2195  0.2074  0.0982
  251ACTN    H1 2970   4.634   2.524   1.341  0.5053  1.6556 -1.4076
  251ACTN    H2 2971   4.506   2.572   1.224 -1.5536 -0.2647  0.2230
  251ACTN    H3 2972   4.498   2.413   1.297 -0.6648  0.4558  0.1454
  252ACTN    H6 2973   5.520   3.489   0.510 -2.1481 -0.8993  0.5071
  252ACTN    C3 2974   5.549   3.473   0.614 -0.2811 -0.3562  0.0992
  252ACTN    H4 2975   5.656   3.484   0.628 -0.5044  1.8303  0.2494
  252ACTN    H5 2976   5.504   3.558   0.667  1.6840  0.9502 -0.2817
  252ACTN    C2 2977   5.502   3.350   0.676 -0.3871 -0.4895 -0.1745
  252ACTN    O1 2978   5.412   3.350   0.761  0.2106 -0.0315 -0.2509
  252ACTN    C1 2979   5.558   3.226   0.621 -0.2523  0.0505 -0.1156
  252ACTN    H1 2980   5.472   3.159   0.627  0.5498 -0.9937 -0.1791
  252ACTN    H2 2981   5.640   3.172   0.669  0.0337  1.3367  0.8722
  252ACTN    H3 2982   5.581   3.242   0.516  0.5665  1.9473  0.3308
  253ACTN    H6 2983   4.179   3.555   0.369  1.6719  0.1813  1.6503
  253ACTN    C3 2984   4.144   3.658   0.367  0.3799 -0.2744  0.1129
  253ACTN    H4 2985   4.070   3.680   0.444 -0.2611 -0.6898 -0.3780
  253ACTN    H5 2986   4.236   3.712   0.388  0.9470 -1.0386 -0.3426
  253ACTN    C2 2987   4.101   3.688   0.231 -0.1618 -0.0195  0.2564
  253ACTN    O1 2988   4.054   3.801   0.215  0.0832 -0.0884  0.3740
  253ACTN    C1 2989   4.112   3.573   0.131 -0.8343  1.0321 -0.1068
  253ACTN    H1 2990   4.037   3.505   0.171  0.1041 -0.0655 -0.1721
  253ACTN    H2 2991   4.213   3.532   0.122 -0.5745  2.0301 -1.8745
  253ACTN    H3 2992   4.087   3.598   0.028 -2.4813 -0.4963 -0.0981
  254ACTN    H6 2993   4.102   4.102   2.389 -1.3501  0.6817  0.8788
  254ACTN    C3 2994   4.088   4.157   2.296 -0.0279  0.1661  0.3588
  254ACTN    H4 2995   3.994   4.207   2.319  0.3834  0.9808  0.2729
  254ACTN    H5 2996   4.169   4.229   2.280  1.1449 -1.0314  0.8214
  254ACTN    C2 2997   4.064   4.067   2.182 -0.4540 -0.4207  0.4881
  254ACTN    O1 2998   4.102   4.099   2.074 -0.3418  0.3327  0.1698
  254ACTN    C1 2999   4.004   3.928   2.204 -0.2535 -0.4995 -0.0965
  254ACTN    H1 3000   3.994   3.907   2.310  0.1219  2.0671  0.4944
  254ACTN    H2 3001   4.069   3.853   2.161 -0.4514 -0.1373 -1.0468
  254ACTN    H3 3002   3.906   3.916   2.157 -1.1476 -0.6783  1.7756
  255ACTN    H6 3003   7.244   0.220   0.153  0.3067  0.1821  0.5936
  255ACTN    C3 3004   7.311   0.242   0.069  0.0829 -0.3890  0.2635
  255ACTN    H4 3005   7.255   0.270  -0.020 -1.1477  2.7906  1.9477
  255ACTN    H5 3006   7.374   0.328   0.091  1.2981 -1.5660  1.4651
  255ACTN    C2 3007   7.396   0.116   0.042  0.3129  0.0557  0.5174
  255ACTN    O1 3008   7.336   0.019   0.008 -0.0282  0.1689 -0.6241
  255ACTN    C1 3009   7.533   0.115   0.002  0.7386 -0.2003 -0.3191
  255ACTN    H1 3010   7.559   0.066  -0.092 -1.9055 -1.5351 -0.4089
  255ACTN    H2 3011   7.594   0.068   0.079  2.1022  1.2035 -0.5218
  255ACTN    H3 3012   7.574   0.215   0.014  1.8639 -0.6259 -0.5163
  256ACTN    H6 3013   8.719   2.553   8.210  0.7926  1.3472  0.1252
  256ACTN    C3 3014   8.688   2.596   8.305 -0.0280  0.5959  0.1998
  256ACTN    H4 3015   8.774   2.591   8.371  1.1563  0.2322 -1.3443
  256ACTN    H5 3016   8.667   2.701   8.284  0.1763  0.7174  0.5979
  256ACTN    C2 3017   8.567   2.530   8.356  0.5917  0.1288 -0.3552
  256ACTN    O1 3018   8.487   2.589   8.430  0.0219 -0.0853 -0.6504
  256ACTN    C1 3019   8.562   2.376   8.356 -0.4793  0.2954 -0.4369
  256ACTN    H1 3020   8.513   2.352   8.261  0.1365 -3.7343  0.1507
  256ACTN    H2 3021   8.509   2.338   8.443 -3.1693  1.1098 -1.6804
  256ACTN    H3 3022   8.665   2.341   8.363 -0.6133 -0.0950 -0.4286
  257ACTN    H6 3023   6.792   3.512   5.527  1.8509  2.1756 -1.0161
  257ACTN    C3 3024   6.877   3.445   5.516  0.2948 -0.0327 -0.0122
  257ACTN    H4 3025   6.849   3.354   5.464 -1.3781  1.3555 -1.5999
  257ACTN    H5 3026   6.943   3.506   5.454 -1.6091  0.7396 -1.3182
  257ACTN    C2 3027   6.940   3.405   5.648 -0.4115  0.0942 -0.1580
  257ACTN    O1 3028   7.036   3.468   5.690 -0.2690 -0.3717  0.0277
  257ACTN    C1 3029   6.904   3.282   5.721  0.0880 -0.0837 -0.1146
  257ACTN    H1 3030   6.841   3.223   5.654 -0.4096  2.1005 -1.5973
  257ACTN    H2 3031   6.845   3.308   5.809  0.6664  1.6819 -0.2337
  257ACTN    H3 3032   6.984   3.214   5.750 -1.5765 -2.2427 -0.4096
  258ACTN    H6 3033   8.862   0.288   3.634 -1.8002  1.0942 -2.2163
  258ACTN    C3 3034   8.811   0.197   3.605  0.3109 -0.8687 -0.0619
  258ACTN    H4 3035   8.880   0.147   3.537 -1.3830 -1.5144 -1.3641
  258ACTN    H5 3036   8.799   0.146   3.701  0.4916 -1.5858 -0.4145
  258ACTN    C2 3037   8.683   0.226   3.526 -0.4341  0.1011  0.4626
  258ACTN    O1 3038   8.697   0.295   3.426  0.0933 -0.0223  0.0608
  258ACTN    C1 3039   8.554   0.186   3.590  0.0704  0.0599  0.2596
  258ACTN    H1 3040   8.536   0.245   3.680 -0.1045  0.0904  0.2050
  258ACTN    H2 3041   8.558   0.081   3.620  1.7765 -0.2145 -0.9213
  258ACTN    H3 3042   8.466   0.203   3.527 -0.1170  1.5150  0.8779
  259ACTN    H6 3043   8.121   1.547   4.553 -1.9817  0.7534 -0.1140
  259ACTN    C3 3044   8.160   1.621   4.623  0.2159 -0.3507 -0.1200
  259ACTN    H4 3045   8.068   1.672   4.654 -0.2852 -0.5285 -1.2931
  259ACTN    H5 3046   8.222   1.693   4.569  0.3702 -1.6330 -1.6856
  259ACTN    C2 3047   8.241   1.559   4.730 -0.2684  0.1421 -0.8933
  259ACTN    O1 3048   8.228   1.439   4.755  0.6855 -0.0211  0.2000
  259ACTN    C1 3049   8.346   1.632   4.798 -0.1488 -0.1007 -0.5478
  259ACTN    H1 3050   8.414   1.676   4.725 -0.6333  0.0879 -0.8854
  259ACTN    H2 3051   8.395   1.566   4.870 -2.1969 -0.0113  0.9614
  259ACTN    H3 3052   8.302   1.708   4.861 -0.8129  0.5886 -1.8246
  260ACTN    H6 3053   3.548   0.648   3.049  0.3707 -0.1815 -1.4481
  260ACTN    C3 3054   3.474   0.576   3.014 -0.0947 -0.4474  0.0404
  260ACTN    H4 3055   3.378   0.607   3.053 -0.0698  1.4332 -1.3278
  260ACTN    H5 3056   3.471   0.572   2.905  1.4480  0.0560 -0.0356
  260ACTN    C2 3057   3.506   0.439   3.068  0.4238  0.8333 -0.6026
  260ACTN    O1 3058   3.489   0.336   3.002 -0.6465 -0.0719 -0.1900
  260ACTN    C1 3059   3.574   0.423   3.202 -0.2137  0.4613 -0.2989
  260ACTN    H1 3060   3.502   0.420   3.284  0.6150 -0.8912  0.3954
  260ACTN    H2 3061   3.646   0.503   3.222 -1.7744  1.0417  3.3505
  260ACTN    H3 3062   3.631   0.331   3.209 -1.0075  0.0065  0.2426
  261ACTN    H6 3063   7.652   8.041   0.682 -0.3930  0.8311  0.7007
  261ACTN    C3 3064   7.723   7.975   0.732 -0.2775  0.8074  0.5065
  261ACTN    H4 3065   7.765   7.912   0.654 -1.6770  1.6982 -1.0131
  261ACTN    H5 3066   7.797   8.041   0.777 -0.1414  0.3844  0.8958
  261ACTN    C2 3067   7.656   7.895   0.840  0.3857 -0.2615 -0.4933
  261ACTN    O1 3068   7.687   7.929   0.951 -0.3463 -0.2534 -0.1672
  261ACTN    C1 3069   7.520   7.831   0.801  0.5937  0.4528 -1.2289
  261ACTN    H1 3070   7.523   7.722   0.798 -1.5653  0.3912 -1.9945
  261ACTN    H2 3071   7.499   7.868   0.701  0.7826  0.3863 -1.2942
  261ACTN    H3 3072   7.441   7.856   0.872  1.2182  0.0367 -0.3759
  262ACTN    H6 3073   0.730   6.154   2.877  0.5882  2.6899  2.8344
  262ACTN    C3 3074   0.696   6.232   2.809  0.3464  0.1746 -0.0406
  262ACTN    H4 3075   0.602   6.187   2.777 -0.5303  2.5703 -0.9549
  262ACTN    H5 3076   0.683   6.319   2.875  2.0866  1.1162 -0.9188
  262ACTN    C2 3077   0.782   6.261   2.696 -0.2152  0.3497  0.6536
  262ACTN    O1 3078   0.755   6.208   2.586  0.5998 -0.1108 -0.5567
  262ACTN    C1 3079   0.920   6.309   2.728 -0.6043 -0.4201 -0.2809
  262ACTN    H1 3080   0.978   6.233   2.780  1.4493  0.7683 -0.7554
  262ACTN    H2 3081   0.903   6.385   2.804 -1.5070  1.3816 -2.2073
  262ACTN    H3 3082   0.968   6.361   2.645 -0.1753  2.3902  1.6863
  263ACTN    H6 3083   5.571   2.213   7.168 -0.0141  1.5149 -1.4543
  263ACTN    C3 3084   5.465   2.234   7.156 -0.3745  0.5792 -0.0519
  263ACTN    H4 3085   5.446   2.335   7.194 -1.9317  0.2407  0.1140
  263ACTN    H5 3086   5.430   2.229   7.053  0.6607  0.1554 -0.3842
  263ACTN    C2 3087   5.394   2.141   7.252  0.1206 -0.3646  0.4427
  263ACTN    O1 3088   5.288   2.088   7.220  0.1093  1.3567  0.2739
  263ACTN    C1 3089   5.436   2.125   7.393  0.4468  0.2287  0.1721
  263ACTN    H1 3090   5.463   2.022   7.416  0.2383 -0.5812 -2.8816
  263ACTN    H2 3091   5.353   2.159   7.454 -1.5602 -0.9461 -1.8046
  263ACTN    H3 3092   5.522   2.188   7.415  1.5695 -0.5586 -1.7529
  264ACTN    H6 3093   7.508   4.207   2.700  1.0403 -3.1092  0.1056
  264ACTN    C3 3094   7.471   4.202   2.802 -0.9913  0.3649 -0.3824
  264ACTN    H4 3095   7.518   4.122   2.860 -1.6973 -0.6395 -1.1852
  264ACTN    H5 3096   7.489   4.296   2.855  0.6216 -0.7673  1.1492
  264ACTN    C2 3097   7.324   4.189   2.782  0.1865 -0.3128 -0.0483
  264ACTN    O1 3098   7.255   4.124   2.859 -0.3357  0.0322  1.0350
  264ACTN    C1 3099   7.266   4.285   2.688 -0.0476 -0.4744 -0.2823
  264ACTN    H1 3100   7.311   4.384   2.695 -0.5801 -0.2673  0.2438
  264ACTN    H2 3101   7.164   4.293   2.725  0.2070  1.6217  0.0410
  264ACTN    H3 3102   7.264   4.253   2.584  4.4593  1.4336 -1.0661
  265ACTN    H6 3103   4.725   1.276   4.361  0.4096  0.5531  0.1413
  265ACTN    C3 3104   4.796   1.194   4.375 -0.0823  0.0420 -0.3292
  265ACTN    H4 3105   4.823   1.190   4.481  1.4610 -0.2678 -0.7239
  265ACTN    H5 3106   4.736   1.108   4.346 -1.0631 -0.5930  3.2817
  265ACTN    C2 3107   4.920   1.215   4.295 -0.6003  0.3942 -0.2459
  265ACTN    O1 3108   4.919   1.276   4.191  0.2626 -0.6996 -0.4169
  265ACTN    C1 3109   5.039   1.151   4.344  0.3071  0.6683  0.1132
  265ACTN    H1 3110   5.070   1.213   4.428  1.1617 -0.2075  0.4598
  265ACTN    H2 3111   5.119   1.144   4.270  0.0370 -1.8921 -0.0087
  265ACTN    H3 3112   5.015   1.048   4.373 -7.1654  2.3224  0.8020
  266ACTN    H6 3113   6.687   6.049   4.414  0.2118 -0.4917  0.2626
  266ACTN    C3 3114   6.667   5.967   4.345 -0.3104 -0.5351  0.4621
  266ACTN    H4 3115   6.697   5.994   4.243  0.3691 -1.5095  0.4018
  266ACTN    H5 3116   6.561   5.940   4.354  0.0050 -2.0418 -0.2806
  266ACTN    C2 3117   6.746   5.847   4.399  0.0925  0.2126  0.2103
  266ACTN    O1 3118   6.857   5.830   4.375 -0.2965 -0.3217 -0.0005
  266ACTN    C1 3119   6.692   5.761   4.503 -0.2341 -0.6761 -0.6106
  266ACTN    H1 3120   6.584   5.776   4.508 -0.1556  0.0416 -1.0917
  266ACTN    H2 3121   6.728   5.785   4.603 -1.9438  0.3579 -0.2240
  266ACTN    H3 3122   6.712   5.656   4.480 -1.6708 -0.6667 -2.0775
  267ACTN    H6 3123   3.423   4.960   2.862  1.0069  0.4184  0.0413
  267ACTN    C3 3124   3.384   5.039   2.798  0.2747  0.0950  0.0921
  267ACTN    H4 3125   3.470   5.092   2.758  0.3703 -0.1807 -0.0727
  267ACTN    H5 3126   3.325   4.988   2.722  0.5284  0.6948 -0.5099
  267ACTN    C2 3127   3.303   5.142   2.872 -0.6369  0.6461 -0.7127
  267ACTN    O1 3128   3.188   5.178   2.853 -0.2589 -0.5347 -0.5924
  267ACTN    C1 3129   3.374   5.191   2.996  0.2249  0.0076  0.1588
  267ACTN    H1 3130   3.480   5.193   2.973 -0.2222  2.0170 -1.9393
  267ACTN    H2 3131   3.355   5.125   3.081  1.3589 -0.2268  0.2312
  267ACTN    H3 3132   3.342   5.289   3.030 -1.9068  0.3065 -2.4846
  268ACTN    H6 3133   0.906   2.331   6.493 -1.5068 -1.1442 -1.2768
  268ACTN    C3 3134   0.975   2.250   6.468 -0.2004 -0.3698 -0.2570
  268ACTN    H4 3135   1.045   2.290   6.395 -0.6510 -1.4984 -1.3298
  268ACTN    H5 3136   1.036   2.215   6.551 -0.5720 -0.9882 -0.2354
  268ACTN    C2 3137   0.911   2.133   6.399 -0.2463  1.0843  0.3545
  268ACTN    O1 3138   0.789   2.126   6.397  1.0302 -0.1778  0.2350
  268ACTN    C1 3139   0.999   2.012   6.389 -0.1129 -0.1009  0.6448
  268ACTN    H1 3140   1.031   1.972   6.485  0.7027 -1.3727 -0.1355
  268ACTN    H2 3141   1.091   2.039   6.337  1.2902 -2.6312  1.7262
  268ACTN    H3 3142   0.950   1.933   6.332 -2.6982  1.6417  0.3511
  269ACTN    H6 3143   7.460   4.535   5.830 -2.1835 -0.9313  1.8530
  269ACTN    C3 3144   7.505   4.541   5.929  0.6989 -0.3671  0.5693
  269ACTN    H4 3145   7.612   4.559   5.917  0.6096 -0.7461 -0.9861
  269ACTN    H5 3146   7.469   4.615   6.001 -1.8175 -1.6439  0.6998
  269ACTN    C2 3147   7.476   4.412   6.005 -1.0027  0.1846 -0.5028
  269ACTN    O1 3148   7.380   4.410   6.085  0.3004  0.7187  0.0288
  269ACTN    C1 3149   7.575   4.297   6.002 -0.2490 -0.5089 -0.6147
  269ACTN    H1 3150   7.639   4.294   5.914 -0.8392 -3.7875 -1.0006
  269ACTN    H2 3151   7.520   4.204   6.018  0.2077 -0.5658  0.7180
  269ACTN    H3 3152   7.642   4.297   6.088 -0.2147 -3.7674 -0.5882
  270ACTN    H6 3153   1.227   1.921   6.812  1.5031 -0.0705  1.7920
  270ACTN    C3 3154   1.150   1.936   6.888  0.1863  0.0780  0.4559
  270ACTN    H4 3155   1.062   1.884   6.852  0.6151  0.0868 -0.6172
  270ACTN    H5 3156   1.192   1.884   6.974 -0.1113 -0.3791  0.3271
  270ACTN    C2 3157   1.130   2.081   6.915  0.0132 -0.0062 -0.1480
  270ACTN    O1 3158   1.225   2.153   6.922 -0.1487 -0.6084  0.1766
  270ACTN    C1 3159   0.991   2.138   6.932  0.3442 -0.2532  0.4395
  270ACTN    H1 3160   1.003   2.237   6.977  1.0377 -0.3242  0.4178
  270ACTN    H2 3161   0.934   2.071   6.996  0.0390 -1.6615 -1.2916
  270ACTN    H3 3162   0.935   2.145   6.840  0.3814  2.3946  0.5620
  271ACTN    H6 3163   6.608   4.982   6.201  1.8646  1.1775  1.0744
  271ACTN    C3 3164   6.674   4.896   6.213  0.2632 -0.2010  0.1859
  271ACTN    H4 3165   6.610   4.809   6.227  0.1456 -0.0807  0.3939
  271ACTN    H5 3166   6.723   4.883   6.117 -3.5649 -1.3731 -1.7337
  271ACTN    C2 3167   6.768   4.926   6.316 -0.4530 -0.0128  0.3621
  271ACTN    O1 3168   6.872   4.861   6.313 -0.0810 -0.3538  0.0919
  271ACTN    C1 3169   6.725   4.998   6.433 -0.7789  0.6112  0.1466
  271ACTN    H1 3170   6.669   4.936   6.503 -1.1433  0.5947 -0.1585
  271ACTN    H2 3171   6.665   5.082   6.396  1.3839  2.4734  0.7553
  271ACTN    H3 3172   6.801   5.054   6.487  1.8876 -1.9131 -0.8947
  272ACTN    H6 3173   6.225   4.197   1.759  1.6111  0.5033  1.9676
  272ACTN    C3 3174   6.135   4.212   1.818 -0.0456  0.2336 -0.4325
  272ACTN    H4 3175   6.162   4.188   1.920 -1.0666 -0.9547 -0.4183
  272ACTN    H5 3176   6.121   4.320   1.815  0.4126  0.2862 -0.6911
  272ACTN    C2 3177   6.020   4.141   1.746  0.5799 -0.5069  0.4862
  272ACTN    O1 3178   5.929   4.096   1.813  0.3083  0.5136 -0.6564
  272ACTN    C1 3179   6.041   4.089   1.607 -0.3647 -1.1904 -0.3364
  272ACTN    H1 3180   5.958   4.105   1.539  2.0132 -0.0097 -3.0818
  272ACTN    H2 3181   6.064   3.983   1.618  0.5458 -1.0952 -1.2716
  272ACTN    H3 3182   6.135   4.127   1.567 -0.0609  1.0035  2.2857
  273ACTN    H6 3183   7.720   2.500   5.164 -1.9037 -0.8697 -1.1352
  273ACTN    C3 3184   7.653   2.585   5.170 -0.2818  0.3648 -0.0141
  273ACTN    H4 3185   7.675   2.648   5.256  0.6360 -0.0726  0.0773
  273ACTN    H5 3186   7.675   2.650   5.085 -0.9558  0.4258 -0.1424
  273ACTN    C2 3187   7.512   2.531   5.177  0.3356  0.3953 -0.2329
  273ACTN    O1 3188   7.440   2.550   5.080  0.5177 -0.3009 -0.7484
  273ACTN    C1 3189   7.468   2.437   5.287 -0.1034  0.7407 -0.0558
  273ACTN    H1 3190   7.471   2.335   5.250 -0.0297  1.3312 -1.7270
  273ACTN    H2 3191   7.365   2.458   5.316  0.0922  1.6127  0.0232
  273ACTN    H3 3192   7.535   2.445   5.372  2.3640 -1.5385 -1.7149
  274ACTN    H6 3193   6.211   0.142   4.748  0.4493 -0.7895 -0.0107
  274ACTN    C3 3194   6.132   0.104   4.683 -0.5151  0.4643  0.4033
  274ACTN    H4 3195   6.125   0.159   4.589  0.5653  0.4966  0.3369
  274ACTN    H5 3196   6.161   0.001   4.662  0.9755  0.4823  2.2787
  274ACTN    C2 3197   6.003   0.119   4.757  0.2747 -0.7373  0.0019
  274ACTN    O1 3198   6.008   0.124   4.876 -0.1420  0.0464 -0.0188
  274ACTN    C1 3199   5.880   0.174   4.688 -0.4317  0.7804  0.2084
  274ACTN    H1 3200   5.816   0.088   4.667 -0.6656  0.8081  0.7962
  274ACTN    H2 3201   5.909   0.232   4.601  2.0749  0.8133  1.0156
  274ACTN    H3 3202   5.814   0.238   4.747 -1.3919  1.0685 -1.1675
  275ACTN    H6 3203   8.284   8.529   3.488 -0.4703 -1.1793 -1.5222
  275ACTN    C3 3204   8.177   8.543   3.475 -0.5294 -0.0725  0.0922
  275ACTN    H4 3205   8.134   8.524   3.573  2.4354  0.2581  1.5182
  275ACTN    H5 3206   8.150   8.463   3.406  2.2072 -1.8810  1.0480
  275ACTN    C2 3207   8.133   8.679   3.420 -0.3592  0.0134  0.0335
  275ACTN    O1 3208   8.018   8.687   3.375  0.2213  0.6146 -0.9000
  275ACTN    C1 3209   8.233   8.787   3.444  0.1603  0.0134  0.1673
  275ACTN    H1 3210   8.191   8.884   3.418 -0.6755  0.0187  1.4811
  275ACTN    H2 3211   8.324   8.763   3.389 -0.2048  1.3498 -1.0675
  275ACTN    H3 3212   8.267   8.778   3.547 -0.2737 -2.2205  0.1384
  276ACTN    H6 3213   6.443   0.019   5.350  1.4999 -1.1825  0.2591
  276ACTN    C3 3214   6.378  -0.038   5.283  0.0656  0.6156  0.0885
  276ACTN    H4 3215   6.403  -0.006   5.182 -1.6934  1.0950 -0.2140
  276ACTN    H5 3216   6.400  -0.144   5.296 -0.1330  0.6366  0.5961
  276ACTN    C2 3217   6.223  -0.023   5.322  0.5752 -0.2060  0.2858
  276ACTN    O1 3218   6.161   0.076   5.278  0.4355  0.8121 -0.1510
  276ACTN    C1 3219   6.157  -0.108   5.434  0.1451  0.0062  1.2513
  276ACTN    H1 3220   6.052  -0.081   5.441 -0.0107  0.5377 -2.2440
  276ACTN    H2 3221   6.213  -0.083   5.524  0.7465  4.0814 -0.1557
  276ACTN    H3 3222   6.164  -0.212   5.400 -1.8551 -0.1466  1.2950
  277ACTN    H6 3223   5.929   4.585   6.866 -3.4046  0.6009  0.8837
  277ACTN    C3 3224   5.896   4.542   6.772 -0.0209 -0.8119  0.2826
  277ACTN    H4 3225   5.959   4.455   6.756  2.0329  0.5511  0.8546
  277ACTN    H5 3226   5.798   4.501   6.798 -0.7777  1.4560  1.0772
  277ACTN    C2 3227   5.892   4.641   6.659 -0.1092  0.4075 -0.4845
  277ACTN    O1 3228   5.983   4.643   6.573  0.1591 -0.6021 -0.5678
  277ACTN    C1 3229   5.756   4.708   6.627  0.1476  0.1934 -0.3273
  277ACTN    H1 3230   5.726   4.674   6.528 -0.3512  0.5984 -0.3170
  277ACTN    H2 3231   5.756   4.817   6.632  0.4338  0.1160  1.9501
  277ACTN    H3 3232   5.673   4.679   6.692  0.0287 -0.1769 -0.6409
  278ACTN    H6 3233   0.423   0.653   1.613  0.0894 -0.5031 -0.7685
  278ACTN    C3 3234   0.363   0.581   1.669  0.0368  0.2451  0.1471
  278ACTN    H4 3235   0.304   0.632   1.745 -0.0699  0.3377  0.0010
  278ACTN    H5 3236   0.283   0.546   1.604  1.1375 -1.3239 -0.3961
  278ACTN    C2 3237   0.447   0.472   1.738  0.0898 -0.9113 -0.5921
  278ACTN    O1 3238   0.392   0.380   1.798  0.4753  0.2743 -0.1547
  278ACTN    C1 3239   0.600   0.467   1.740  0.3471 -0.0481 -0.2575
  278ACTN    H1 3240   0.627   0.503   1.839 -1.9405  1.7116 -0.2179
  278ACTN    H2 3241   0.640   0.524   1.657  0.0604 -0.6924 -0.8437
  278ACTN    H3 3242   0.629   0.363   1.727 -1.7811 -0.7777  0.6751
  279ACTN    H6 3243   8.049   1.572   0.689 -1.8397  0.4374 -0.8223
  279ACTN    C3 3244   8.005   1.621   0.776  0.2336 -0.1444  0.5917
  279ACTN    H4 3245   7.896   1.621   0.766  0.5089 -1.2269 -2.7370
  279ACTN    H5 3246   8.036   1.576   0.871 -2.4009 -2.7010  0.3074
  279ACTN    C2 3247   8.042   1.770   0.781  1.2321 -0.6313 -0.3318
  279ACTN    O1 3248   8.094   1.810   0.885  0.0388 -0.0577  0.2679
  279ACTN    C1 3249   7.973   1.864   0.682 -0.1896 -0.5458  0.1372
  279ACTN    H1 3250   7.905   1.814   0.613 -0.8261  1.4063 -0.6754
  279ACTN    H2 3251   8.051   1.917   0.627 -1.2674  0.3269 -0.5437
  279ACTN    H3 3252   7.921   1.939   0.741  3.2112  0.6375  1.7474
  280ACTN    H6 3253   2.737   5.088   7.278  2.1426 -0.8336  1.1074
  280ACTN    C3 3254   2.798   5.137   7.202 -0.1869 -0.0516 -0.3514
  280ACTN    H4 3255   2.803   5.243   7.224 -0.3568 -0.0231 -0.4575
  280ACTN    H5 3256   2.900   5.101   7.218  0.2551  1.1046 -0.5429
  280ACTN    C2 3257   2.745   5.105   7.064 -0.2263 -0.2847 -0.1077
  280ACTN    O1 3258   2.630   5.083   7.052  0.5858 -0.6176  0.0333
  280ACTN    C1 3259   2.839   5.094   6.957 -0.0109 -0.1924 -0.0761
  280ACTN    H1 3260   2.806   5.158   6.875  0.5057  2.8009  1.9571
  280ACTN    H2 3261   2.865   4.992   6.929 -0.7580 -0.3928 -0.0564
  280ACTN    H3 3262   2.931   5.136   6.997 -0.6719  1.9761 -0.7658
  281ACTN    H6 3263   0.568   2.616   2.792  0.7445 -0.5881  1.8053
  281ACTN    C3 3264   0.563   2.507   2.786 -0.3060 -0.4756  0.0004
  281ACTN    H4 3265   0.595   2.465   2.691 -2.1680 -1.7873 -0.0664
  281ACTN    H5 3266   0.649   2.478   2.847 -0.1379  0.3272  0.1568
  281ACTN    C2 3267   0.430   2.456   2.839 -0.3882 -0.1854  0.0314
  281ACTN    O1 3268   0.342   2.406   2.766 -0.4264  0.5136  0.0240
  281ACTN    C1 3269   0.400   2.513   2.976  0.2654 -0.0453 -0.2324
  281ACTN    H1 3270   0.316   2.459   3.020  0.9181  0.2864  1.4379
  281ACTN    H2 3271   0.379   2.619   2.964 -0.7668 -0.0570  1.4595
  281ACTN    H3 3272   0.494   2.505   3.031  0.4528 -0.6402 -0.6214
  282ACTN    H6 3273   4.510   5.310   5.042 -0.4509 -0.6285 -0.1653
  282ACTN    C3 3274   4.610   5.272   5.020 -0.1566 -0.1266  0.2982
  282ACTN    H4 3275   4.678   5.351   5.052  1.0957 -0.5654 -1.2515
  282ACTN    H5 3276   4.629   5.187   5.086 -1.5775 -1.5843 -1.0942
  282ACTN    C2 3277   4.633   5.228   4.881  0.0881  0.3209  0.3536
  282ACTN    O1 3278   4.576   5.286   4.791  0.1657  0.5884  0.1751
  282ACTN    C1 3279   4.731   5.116   4.852  0.1908  0.3889 -0.7079
  282ACTN    H1 3280   4.828   5.140   4.895 -0.2183 -0.0228  0.4610
  282ACTN    H2 3281   4.747   5.114   4.744  0.5781  0.2378 -0.6499
  282ACTN    H3 3282   4.691   5.025   4.897 -1.2259  1.0162 -0.7002
  283ACTN    H6 3283   4.169   0.849   8.798 -0.2627 -0.2839  0.2342
  283ACTN    C3 3284   4.198   0.785   8.715 -0.0460  0.4345 -0.2466
  283ACTN    H4 3285   4.306   0.769   8.723 -0.2893 -0.7834  0.7910
  283ACTN    H5 3286   4.152   0.686   8.725  2.4406 -0.6839  0.5222
  283ACTN    C2 3287   4.158   0.827   8.575  0.2579 -0.3240 -0.0154
  283ACTN    O1 3288   4.114   0.936   8.557  0.0695 -0.2107  0.0263
  283ACTN    C1 3289   4.177   0.741   8.454 -0.1529 -0.2432 -0.6711
  283ACTN    H1 3290   4.083   0.726   8.401  0.2984 -1.5139 -1.1401
  283ACTN    H2 3291   4.219   0.645   8.486 -1.4222 -0.5836  0.0384
  283ACTN    H3 3292   4.244   0.789   8.383  0.2332  0.2616  0.0321
  284ACTN    H6 3293   7.858   5.698   7.626 -1.1215  1.4605 -0.2047
  284ACTN    C3 3294   7.907   5.750   7.709  0.3504 -0.1311 -0.0490
  284ACTN    H4 3295   7.834   5.810   7.764  1.7031  1.0792  0.4669
  284ACTN    H5 3296   7.942   5.668   7.772 -2.2976 -2.2533 -1.2540
  284ACTN    C2 3297   8.024   5.833   7.670  0.1874 -0.0747  0.0164
  284ACTN    O1 3298   8.084   5.908   7.748  0.4636  0.2653  0.8525
  284ACTN    C1 3299   8.090   5.789   7.542  0.1400 -0.1013 -0.3521
  284ACTN    H1 3300   8.024   5.809   7.458  0.5388 -1.6060 -1.0336
  284ACTN    H2 3301   8.102   5.681   7.535 -0.0167 -0.0843 -0.8972
  284ACTN    H3 3302   8.184   5.842   7.527 -1.1091  2.1251 -0.6509
  285ACTN    H6 3303   5.483   1.733   5.934  0.1025 -0.9612  0.6416
  285ACTN    C3 3304   5.538   1.645   5.900  0.4272 -0.5679  0.1266
  285ACTN    H4 3305   5.475   1.560   5.927  2.7045 -2.2115  0.3695
  285ACTN    H5 3306   5.554   1.659   5.793 -1.2126  0.5776  0.0024
  285ACTN    C2 3307   5.668   1.642   5.979  0.7231 -0.8507  0.2698
  285ACTN    O1 3308   5.705   1.544   6.045  0.1175 -0.1884 -0.1278
  285ACTN    C1 3309   5.769   1.750   5.962 -0.0148 -0.1335 -0.4253
  285ACTN    H1 3310   5.721   1.838   6.005  0.5183 -0.3619  0.6473
  285ACTN    H2 3311   5.795   1.767   5.857  0.0485 -0.2588 -0.4303
  285ACTN    H3 3312   5.859   1.731   6.021  0.0122 -1.6764 -0.9377
  286ACTN    H6 3313   5.565   1.681   7.866  0.0535  0.5998  0.6976
  286ACTN    C3 3314   5.652   1.730   7.911  0.6376  0.1080  0.1236
  286ACTN    H4 3315   5.694   1.656   7.979 -1.4687 -0.2857  1.0440
  286ACTN    H5 3316   5.711   1.755   7.824 -2.8193  1.4010 -1.9598
  286ACTN    C2 3317   5.601   1.845   7.986 -0.3925 -0.2642  0.5057
  286ACTN    O1 3318   5.669   1.934   8.035  0.2454  0.0402 -0.2012
  286ACTN    C1 3319   5.451   1.873   7.987 -0.2204 -0.2907  0.1837
  286ACTN    H1 3320   5.416   1.791   8.050  1.6053 -1.7973 -0.6869
  286ACTN    H2 3321   5.410   1.852   7.889  0.3679 -2.2629  0.3331
  286ACTN    H3 3322   5.430   1.974   8.022  0.4952  0.5861 -1.8615
  287ACTN    H6 3323   6.724   5.822   8.274  0.8245  1.2244  0.5376
  287ACTN    C3 3324   6.764   5.756   8.352  0.0893  0.1996  0.0642
  287ACTN    H4 3325   6.816   5.675   8.300  1.3624  1.6468 -0.9612
  287ACTN    H5 3326   6.689   5.727   8.425 -0.6433  0.5395 -0.5492
  287ACTN    C2 3327   6.857   5.851   8.429 -0.0407  0.0963  0.4908
  287ACTN    O1 3328   6.949   5.801   8.485 -0.4936 -0.5077  0.0018
  287ACTN    C1 3329   6.846   6.000   8.414  0.2350  0.7685  0.8452
  287ACTN    H1 3330   6.891   6.045   8.503 -0.5169  1.9896  0.6120
  287ACTN    H2 3331   6.746   6.038   8.394  0.2478 -0.0461 -0.8298
  287ACTN    H3 3332   6.902   6.031   8.326  0.7788 -0.1640  0.8520
  288ACTN    H6 3333   1.771   8.971   2.249 -2.1439  2.5492 -1.1771
  288ACTN    C3 3334   1.809   9.032   2.331 -0.4572 -0.1351  0.0833
  288ACTN    H4 3335   1.878   9.104   2.289  0.4623  0.1896  2.1112
  288ACTN    H5 3336   1.726   9.088   2.375 -2.2669 -2.4786 -0.2502
  288ACTN    C2 3337   1.852   8.939   2.443 -0.1022 -0.3645  0.1732
  288ACTN    O1 3338   1.854   8.979   2.556 -0.2784 -0.4033  0.0390
  288ACTN    C1 3339   1.901   8.802   2.408 -0.7123  1.1871 -0.3212
  288ACTN    H1 3340   1.966   8.765   2.487 -0.8027 -0.7230 -1.1265
  288ACTN    H2 3341   1.968   8.799   2.322 -0.1329 -1.3975  0.1810
  288ACTN    H3 3342   1.826   8.724   2.401  0.9375 -0.4379 -0.3186
  289ACTN    H6 3343   4.128   6.372   0.393  0.7630 -2.4769 -0.2060
  289ACTN    C3 3344   4.030   6.352   0.350  0.0986  0.0430  0.0386
  289ACTN    H4 3345   4.047   6.323   0.246 -0.8686  0.8009 -0.3437
  289ACTN    H5 3346   3.993   6.260   0.395 -0.2759 -0.4047 -1.1578
  289ACTN    C2 3347   3.937   6.475   0.350  0.5701  0.8409  0.6710
  289ACTN    O1 3348   3.817   6.449   0.382  0.1878 -0.2935  0.0998
  289ACTN    C1 3349   3.991   6.607   0.365  1.1068  0.5779 -0.0215
  289ACTN    H1 3350   4.015   6.617   0.471 -0.7365  0.0110  0.4739
  289ACTN    H2 3351   3.926   6.691   0.338 -1.8147 -1.7096 -0.3812
  289ACTN    H3 3352   4.078   6.606   0.300  0.3183 -0.8805 -1.0789
  290ACTN    H6 3353   7.844   1.836   3.656  0.4024 -2.5489 -3.3577
  290ACTN    C3 3354   7.784   1.757   3.701 -0.4432 -0.3918 -0.6214
  290ACTN    H4 3355   7.842   1.696   3.771 -1.1283 -0.8125 -0.4238
  290ACTN    H5 3356   7.700   1.800   3.756  0.6647  1.0698 -0.0122
  290ACTN    C2 3357   7.746   1.669   3.581  0.1155 -0.1573 -0.2924
  290ACTN    O1 3358   7.645   1.700   3.524  0.4868 -0.6485  0.2742
  290ACTN    C1 3359   7.832   1.558   3.541  0.3400 -0.5064 -0.1962
  290ACTN    H1 3360   7.932   1.600   3.533 -0.1466  0.5988 -0.5395
  290ACTN    H2 3361   7.812   1.531   3.437  1.7717 -0.2900 -0.5425
  290ACTN    H3 3362   7.823   1.469   3.604 -2.0953  0.7195  1.2908
  291ACTN    H6 3363   8.609   2.670   4.727  3.2965 -2.4025  3.1745
  291ACTN    C3 3364   8.675   2.744   4.683 -1.0505  0.0606  0.4392
  291ACTN    H4 3365   8.656   2.844   4.723 -1.1044 -0.2989  1.3030
  291ACTN    H5 3366   8.780   2.719   4.702 -0.2124  1.8841 -1.4959
  291ACTN    C2 3367   8.671   2.739   4.530  0.3370 -0.7181 -0.7857
  291ACTN    O1 3368   8.766   2.707   4.455 -0.1142  0.4702  0.2929
  291ACTN    C1 3369   8.542   2.786   4.476 -0.4142 -0.6615 -0.3104
  291ACTN    H1 3370   8.528   2.893   4.492  1.4124 -0.4900  0.3128
  291ACTN    H2 3371   8.458   2.742   4.529 -3.1611  2.4669 -1.8903
  291ACTN    H3 3372   8.535   2.758   4.371  1.7736 -0.1940 -0.6251
  292ACTN    H6 3373   4.544   3.802   0.020 -1.0278  1.2984  0.7803
  292ACTN    C3 3374   4.472   3.759   0.090  0.2269 -0.5502  0.9501
  292ACTN    H4 3375   4.393   3.832   0.107 -0.0556 -0.9707  1.4638
  292ACTN    H5 3376   4.420   3.669   0.055 -1.4863  1.3709 -1.6504
  292ACTN    C2 3377   4.544   3.722   0.213  0.6508 -0.1190 -0.5441
  292ACTN    O1 3378   4.609   3.620   0.224  0.1750  0.6870  0.1385
  292ACTN    C1 3379   4.529   3.808   0.338 -0.7915  0.4168  0.1753
  292ACTN    H1 3380   4.425   3.818   0.367 -0.2922  1.5840  1.6055
  292ACTN    H2 3381   4.559   3.910   0.314  1.2139 -0.2013 -0.0436
  292ACTN    H3 3382   4.599   3.771   0.412 -0.8402  0.2322  0.1311
  293ACTN    H6 3383   1.455   5.806   3.658  0.2160 -0.0268 -1.6783
  293ACTN    C3 3384   1.395   5.715   3.652 -0.1083  0.0196  0.5055
  293ACTN    H4 3385   1.465   5.638   3.622  1.2232 -0.0361  3.5630
  293ACTN    H5 3386   1.355   5.691   3.751 -2.9576 -0.1482 -0.6166
  293ACTN    C2 3387   1.279   5.720   3.558  0.7690  0.4156  0.2427
  293ACTN    O1 3388   1.162   5.734   3.603  0.9031 -0.2931 -0.0140
  293ACTN    C1 3389   1.309   5.705   3.417  0.5463  0.4521  0.0206
  293ACTN    H1 3390   1.412   5.737   3.398  0.5096 -0.3609 -1.6433
  293ACTN    H2 3391   1.239   5.767   3.362  0.1531 -0.4823 -0.5412
  293ACTN    H3 3392   1.284   5.605   3.381 -0.2435 -0.2240  2.3631
  294ACTN    H6 3393   1.867   0.818   4.709 -1.6761 -0.2970 -0.8597
  294ACTN    C3 3394   1.791   0.883   4.753 -0.2817  0.2794  0.7530
  294ACTN    H4 3395   1.792   0.966   4.682 -0.5136 -1.3378 -1.1890
  294ACTN    H5 3396   1.688   0.849   4.752 -0.4956  0.9056  1.1596
  294ACTN    C2 3397   1.817   0.933   4.893 -0.3909  0.0671  0.2273
  294ACTN    O1 3398   1.859   1.044   4.921 -0.4124 -0.1826  0.3027
  294ACTN    C1 3399   1.796   0.840   5.002 -1.0396 -0.3332  0.2423
  294ACTN    H1 3400   1.690   0.813   4.999 -0.7308 -1.7152  1.2092
  294ACTN    H2 3401   1.821   0.867   5.104 -0.3293 -2.8777  0.7846
  294ACTN    H3 3402   1.838   0.742   4.980 -1.7905 -0.9608  1.4933
  295ACTN    H6 3403   0.855   1.822   6.976 -1.4773  0.1853 -2.4572
  295ACTN    C3 3404   0.831   1.717   6.993  0.0289  0.2604  0.4277
  295ACTN    H4 3405   0.776   1.685   6.904  1.3357 -0.3677 -0.1622
  295ACTN    H5 3406   0.920   1.655   7.004 -0.9224 -1.2282 -0.0559
  295ACTN    C2 3407   0.736   1.707   7.109 -0.1464  0.0155  0.9313
  295ACTN    O1 3408   0.692   1.807   7.164 -0.9686  0.2026 -0.5285
  295ACTN    C1 3409   0.685   1.568   7.145 -0.8304  0.3523 -0.3098
  295ACTN    H1 3410   0.726   1.544   7.243 -0.5914  1.3308 -0.1680
  295ACTN    H2 3411   0.711   1.491   7.072 -0.6309 -0.9467  1.1028
  295ACTN    H3 3412   0.576   1.562   7.148 -0.8917  1.0320 -1.1849
  296ACTN    H6 3413   6.410   8.972   4.450 -1.4983  2.3203 -0.9808
  296ACTN    C3 3414   6.506   9.021   4.466 -0.4730 -0.1223  0.6053
  296ACTN    H4 3415   6.522   9.020   4.573  3.4160 -1.4915  0.1192
  296ACTN    H5 3416   6.586   8.961   4.421  0.0592  0.9538  0.0969
  296ACTN    C2 3417   6.503   9.157   4.406 -0.0544 -0.0772 -0.8119
  296ACTN    O1 3418   6.529   9.183   4.290 -0.6181  0.2986  0.0050
  296ACTN    C1 3419   6.460   9.258   4.509 -0.1316 -0.7961 -0.6309
  296ACTN    H1 3420   6.352   9.263   4.517 -0.0620 -0.0690 -0.0298
  296ACTN    H2 3421   6.489   9.355   4.470  2.0802 -0.0587  2.6185
  296ACTN    H3 3422   6.498   9.242   4.611 -2.9101 -0.9412  0.4187
  297ACTN    H6 3423   1.525   5.322   3.767 -2.7961  1.7710 -0.1048
  297ACTN    C3 3424   1.518   5.325   3.659  0.0922 -0.2100 -0.4144
  297ACTN    H4 3425   1.568   5.413   3.618  1.1768 -0.0193  1.2901
  297ACTN    H5 3426   1.572   5.241   3.615 -0.2510 -0.6179 -0.0645
  297ACTN    C2 3427   1.372   5.321   3.605  0.4565 -0.1594  0.0336
  297ACTN    O1 3428   1.350   5.266   3.496 -0.2951 -1.3837 -0.4149
  297ACTN    C1 3429   1.266   5.382   3.693  0.2609  0.6658  0.3005
  297ACTN    H1 3430   1.303   5.403   3.793  1.5440 -1.3751  0.2865
  297ACTN    H2 3431   1.184   5.310   3.701  0.1025  0.6536 -1.2567
  297ACTN    H3 3432   1.227   5.471   3.644 -0.2355  0.3408  0.0908
  298ACTN    H6 3433   4.445   4.589   0.997  0.1434  0.1560 -0.1828
  298ACTN    C3 3434   4.338   4.611   0.992  0.3734  1.2597 -0.3412
  298ACTN    H4 3435   4.333   4.719   1.005 -0.2468  1.1836  0.0755
  298ACTN    H5 3436   4.292   4.596   0.894  2.5792 -2.1655 -0.9490
  298ACTN    C2 3437   4.258   4.544   1.104 -0.4147  0.0215  0.1700
  298ACTN    O1 3438   4.239   4.421   1.092  0.5789  0.0176 -0.3580
  298ACTN    C1 3439   4.185   4.616   1.217  0.2335 -0.2844 -0.4111
  298ACTN    H1 3440   4.244   4.591   1.305 -0.8731  0.3855  0.5312
  298ACTN    H2 3441   4.082   4.587   1.240  0.8364 -0.7396  1.7582
  298ACTN    H3 3442   4.181   4.725   1.207  0.7848 -0.2058  0.2051
  299ACTN    H6 3443   0.810   1.279   2.068 -2.7110  1.5496 -0.9270
  299ACTN    C3 3444   0.786   1.233   1.972 -0.5540  0.2412 -0.8788
  299ACTN    H4 3445   0.690   1.272   1.938 -1.5449 -0.9772  0.4091
  299ACTN    H5 3446   0.868   1.264   1.907 -0.8262 -1.1331 -1.9183
  299ACTN    C2 3447   0.780   1.081   1.969 -0.0441 -0.4595 -0.1958
  299ACTN    O1 3448   0.713   1.021   2.057 -0.3436 -0.5273 -0.0258
  299ACTN    C1 3449   0.880   1.016   1.879  0.1326  0.9443  0.8422
  299ACTN    H1 3450   0.889   1.088   1.797  0.2846  0.7575  0.6930
  299ACTN    H2 3451   0.850   0.917   1.843  3.5027  0.1879 -0.0695
  299ACTN    H3 3452   0.977   0.994   1.923  1.4500  2.0388 -1.4222
  300ACTN    H6 3453   7.065   0.790   5.645 -2.6626 -0.2079  0.6442
  300ACTN    C3 3454   7.019   0.853   5.569 -0.4369  0.1547 -0.4558
  300ACTN    H4 3455   6.921   0.808   5.548  0.1073 -0.0896 -2.6400
  300ACTN    H5 3456   6.994   0.950   5.610 -1.2922 -1.1010  2.0954
  300ACTN    C2 3457   7.107   0.851   5.453  0.7495 -0.1539 -0.1901
  300ACTN    O1 3458   7.079   0.802   5.341 -0.1424 -0.6842  0.1305
  300ACTN    C1 3459   7.246   0.908   5.484  0.0054 -0.9117  0.7229
  300ACTN    H1 3460   7.232   1.013   5.509 -1.3011 -1.0456  0.6064
  300ACTN    H2 3461   7.306   0.907   5.393 -0.1478  0.8506  0.5882
  300ACTN    H3 3462   7.301   0.859   5.564  2.0956 -0.8918 -0.6539
  301ACTN    H6 3463   2.897   2.312   5.429  0.6775  0.5219 -0.4793
  301ACTN    C3 3464   2.882   2.354   5.329 -0.1448 -0.1394 -0.6397
  301ACTN    H4 3465   2.829   2.449   5.325  1.2376  0.7747  1.4187
  301ACTN    H5 3466   2.979   2.374   5.285  0.0556 -1.0794 -0.6394
  301ACTN    C2 3467   2.814   2.259   5.243  0.1977 -0.4752  1.0161
  301ACTN    O1 3468   2.879   2.187   5.163 -0.1512  0.0905  0.3567
  301ACTN    C1 3469   2.671   2.261   5.256 -0.7321  0.4506  0.1431
  301ACTN    H1 3470   2.644   2.273   5.361 -1.1144 -0.7398  0.1813
  301ACTN    H2 3471   2.617   2.176   5.214  0.9303 -0.1666 -0.7700
  301ACTN    H3 3472   2.632   2.347   5.201 -2.0567 -1.2320 -1.6139
  302ACTN    H6 3473   1.770   3.260   1.526 -0.0405 -0.7533  0.2260
  302ACTN    C3 3474   1.869   3.246   1.483  0.1558  0.5021  0.2338
  302ACTN    H4 3475   1.888   3.139   1.495 -0.5022  0.1745 -1.3579
  302ACTN    H5 3476   1.874   3.264   1.375 -2.1779  1.0922  0.1943
  302ACTN    C2 3477   1.972   3.321   1.550  0.1690  0.6236 -0.3207
  302ACTN    O1 3478   2.069   3.261   1.591  0.5662 -0.1635  0.1837
  302ACTN    C1 3479   1.937   3.464   1.590  0.0225 -0.0637 -0.5895
  302ACTN    H1 3480   1.837   3.464   1.633  0.3844  0.5492  0.2783
  302ACTN    H2 3481   1.928   3.536   1.509  0.0106 -0.8200 -1.2636
  302ACTN    H3 3482   2.008   3.498   1.666  0.7923 -2.2694 -0.2880
  303ACTN    H6 3483   7.194   0.182   4.537 -0.4960  0.4824  0.6776
  303ACTN    C3 3484   7.258   0.226   4.614  0.9025  0.1996 -0.2932
  303ACTN    H4 3485   7.202   0.309   4.659 -1.3223 -1.4807  0.1210
  303ACTN    H5 3486   7.270   0.154   4.694 -1.9291  0.0557  0.0756
  303ACTN    C2 3487   7.386   0.257   4.552 -0.1278 -0.5748 -0.1659
  303ACTN    O1 3488   7.420   0.371   4.522  0.5335  0.2567  0.1802
  303ACTN    C1 3489   7.481   0.150   4.528  0.9065  0.6650 -0.2348
  303ACTN    H1 3490   7.438   0.050   4.535 -1.2302  1.6107  0.4011
  303ACTN    H2 3491   7.562   0.166   4.600 -1.6403  0.9066  2.6811
  303ACTN    H3 3492   7.524   0.162   4.429 -1.2878  1.8124 -1.0819
  304ACTN    H6 3493   5.857   5.024   4.685  0.3828 -0.0971 -0.5647
  304ACTN    C3 3494   5.950   4.972   4.710  0.4735  0.2023 -0.2836
  304ACTN    H4 3495   6.037   5.021   4.667 -0.1221  1.6888  0.1602
  304ACTN    H5 3496   5.961   4.976   4.819 -0.8173  1.8400 -0.1773
  304ACTN    C2 3497   5.943   4.832   4.679 -0.3231  0.4162 -0.3284
  304ACTN    O1 3498   5.875   4.753   4.741 -0.0885 -0.0162 -0.2129
  304ACTN    C1 3499   6.050   4.777   4.588  0.4968  0.9158  0.0424
  304ACTN    H1 3500   6.116   4.707   4.639 -2.5349 -2.0820 -0.0505
  304ACTN    H2 3501   6.112   4.862   4.556  1.4325 -0.5128 -2.0651
  304ACTN    H3 3502   6.021   4.726   4.496 -1.8396  1.7480  0.2817
  305ACTN    H6 3503   8.844   8.353   3.727 -0.4730 -0.1806  1.1458
  305ACTN    C3 3504   8.766   8.320   3.658  0.2522 -0.4208  0.4419
  305ACTN    H4 3505   8.763   8.382   3.569 -1.9121 -0.2031  0.6507
  305ACTN    H5 3506   8.793   8.221   3.621 -1.0638  0.1851 -2.1970
  305ACTN    C2 3507   8.630   8.320   3.723 -0.2605 -0.1619 -0.5152
  305ACTN    O1 3508   8.617   8.397   3.817  0.0039  0.0691  0.3637
  305ACTN    C1 3509   8.513   8.249   3.675 -0.1571  0.7340  1.0264
  305ACTN    H1 3510   8.490   8.172   3.749 -0.0360 -1.0940 -0.7890
  305ACTN    H2 3511   8.516   8.194   3.581 -2.4573 -0.7424  1.7808
  305ACTN    H3 3512   8.431   8.320   3.671 -2.2612 -1.7514 -1.7405
  306ACTN    H6 3513   6.345   4.985   0.848 -1.1151 -0.6197  1.8676
  306ACTN    C3 3514   6.281   5.068   0.815  0.0360 -0.4038  0.1252
  306ACTN    H4 3515   6.178   5.033   0.820  0.4211 -2.0072 -2.4837
  306ACTN    H5 3516   6.287   5.148   0.889  1.1937 -0.6043  0.2656
  306ACTN    C2 3517   6.312   5.105   0.672  1.1421  0.4434  0.4804
  306ACTN    O1 3518   6.236   5.193   0.621  0.4962 -0.1899 -0.0036
  306ACTN    C1 3519   6.382   5.018   0.576 -0.0303  0.5164  0.0472
  306ACTN    H1 3520   6.330   5.015   0.480 -1.4792 -0.3756  0.8387
  306ACTN    H2 3521   6.391   4.917   0.616  1.2123  0.7784  0.4327
  306ACTN    H3 3522   6.485   5.052   0.566  0.4273 -0.1676  2.1770
  307ACTN    H6 3523   1.910   0.250   6.069  1.5097  3.1208 -1.3089
  307ACTN    C3 3524   1.848   0.327   6.115 -0.7194  0.0244  1.0657
  307ACTN    H4 3525   1.891   0.426   6.109 -2.7828  0.9060  0.0612
  307ACTN    H5 3526   1.760   0.335   6.050  0.8205  3.1033 -0.7342
  307ACTN    C2 3527   1.803   0.286   6.250  0.5734  0.2120  0.6474
  307ACTN    O1 3528   1.884   0.287   6.349  0.7414  0.1062 -0.0893
  307ACTN    C1 3529   1.679   0.198   6.244  0.4046  0.6403 -0.2761
  307ACTN    H1 3530   1.703   0.095   6.273  1.0099  0.3643 -1.7136
  307ACTN    H2 3531   1.623   0.197   6.150 -0.1953  1.8891  0.0568
  307ACTN    H3 3532   1.611   0.239   6.319  1.6185  2.1161  0.0315
  308ACTN    H6 3533   3.787   7.161   0.796  0.5798 -0.0368  0.1430
  308ACTN    C3 3534   3.852   7.221   0.859 -0.2680  1.1967 -0.1210
  308ACTN    H4 3535   3.860   7.320   0.814  0.3954  0.8777 -0.7196
  308ACTN    H5 3536   3.810   7.220   0.959  0.8073 -0.0296  0.3428
  308ACTN    C2 3537   3.991   7.157   0.875 -0.6762 -0.4143  0.2571
  308ACTN    O1 3538   4.029   7.104   0.979 -0.2982 -0.0598  0.0135
  308ACTN    C1 3539   4.071   7.137   0.750  0.5425  0.0211  0.4287
  308ACTN    H1 3540   4.176   7.117   0.773  0.3180  1.1058  2.6121
  308ACTN    H2 3541   4.084   7.226   0.689 -3.2878 -0.3101 -0.9431
  308ACTN    H3 3542   4.036   7.059   0.684  0.5114 -0.3470  0.8742
  309ACTN    H6 3543   6.968   4.947   3.814 -0.6354 -0.9891 -0.5282
  309ACTN    C3 3544   6.899   5.005   3.875  0.3868 -0.3714  0.0519
  309ACTN    H4 3545   6.946   5.065   3.952 -0.2424  0.8293 -0.4797
  309ACTN    H5 3546   6.836   5.060   3.804 -0.3087  2.7849  2.9842
  309ACTN    C2 3547   6.789   4.913   3.932 -0.9164 -0.0387  0.1981
  309ACTN    O1 3548   6.818   4.790   3.950  0.5960 -0.3079  0.7271
  309ACTN    C1 3549   6.685   4.979   4.006  0.2174 -0.1490  0.0466
  309ACTN    H1 3550   6.595   4.984   3.945 -0.8619 -1.1837  1.5177
  309ACTN    H2 3551   6.709   5.083   4.029 -0.0165  0.0676 -0.6736
  309ACTN    H3 3552   6.665   4.913   4.090  0.1724 -1.3147 -0.8741
  310ACTN    H6 3553   5.281   2.659   4.089  1.7764 -1.3961  0.2771
  310ACTN    C3 3554   5.227   2.583   4.032 -0.3551  0.4984 -0.3275
  310ACTN    H4 3555   5.176   2.515   4.100  0.3468 -0.5586 -0.8451
  310ACTN    H5 3556   5.157   2.637   3.968  0.0573  1.5066  0.0613
  310ACTN    C2 3557   5.321   2.515   3.933  0.4005 -0.1367  0.0031
  310ACTN    O1 3558   5.404   2.593   3.880  0.0590  0.0489  0.4251
  310ACTN    C1 3559   5.318   2.361   3.918 -0.1993 -0.5844  0.2277
  310ACTN    H1 3560   5.264   2.312   3.999  0.0363 -0.8695  0.2137
  310ACTN    H2 3561   5.418   2.318   3.919 -0.1454 -0.4597  0.1274
  310ACTN    H3 3562   5.275   2.334   3.821 -0.7818 -3.2039  1.1568
  311ACTN    H6 3563   5.444   8.824   1.757  1.3966  1.1556  0.9974
  311ACTN    C3 3564   5.503   8.733   1.750  0.0402  0.3021  0.5143
  311ACTN    H4 3565   5.503   8.683   1.847 -0.6351  0.6235  0.6833
  311ACTN    H5 3566   5.458   8.670   1.673  0.2038  0.7988  0.0090
  311ACTN    C2 3567   5.645   8.749   1.706 -1.2177  0.3269 -0.1439
  311ACTN    O1 3568   5.700   8.703   1.608  0.7034  0.0450 -0.1353
  311ACTN    C1 3569   5.721   8.849   1.780  0.2460 -0.0503 -0.2833
  311ACTN    H1 3570   5.759   8.929   1.717  0.1181 -1.1098 -1.7254
  311ACTN    H2 3571   5.808   8.802   1.828 -0.7930 -1.2501  0.4551
  311ACTN    H3 3572   5.660   8.897   1.857 -2.0967  0.5289 -2.4595
  312ACTN    H6 3573   0.965   8.710   0.467 -0.9888  1.7627 -3.1206
  312ACTN    C3 3574   1.008   8.618   0.428 -0.7349  0.3956  0.2605
  312ACTN    H4 3575   0.995   8.538   0.501  1.0278  0.5928  0.8147
  312ACTN    H5 3576   0.957   8.592   0.335  1.9804 -0.4557 -1.0377
  312ACTN    C2 3577   1.149   8.629   0.393  0.7445  0.1714 -0.1678
  312ACTN    O1 3578   1.231   8.540   0.412 -0.2922 -0.3947  0.3874
  312ACTN    C1 3579   1.182   8.741   0.301  0.1334  0.0100  0.5132
  312ACTN    H1 3580   1.290   8.728   0.286  0.0562 -1.5393  1.2154
  312ACTN    H2 3581   1.157   8.839   0.342  0.8236 -0.2350  1.5319
  312ACTN    H3 3582   1.139   8.733   0.201  0.4005  0.6554  0.3403
  313ACTN    H6 3583   2.527   6.277   6.007 -0.8758  0.5535 -1.0393
  313ACTN    C3 3584   2.442   6.315   6.063 -0.5498  0.4666 -0.4777
  313ACTN    H4 3585   2.465   6.413   6.105  1.3873  1.0885 -2.8403
  313ACTN    H5 3586   2.366   6.344   5.990 -0.8042  0.9572 -0.0193
  313ACTN    C2 3587   2.414   6.220   6.171 -0.0850 -0.2360 -0.0468
  313ACTN    O1 3588   2.471   6.229   6.281 -0.7872 -0.1559  0.7553
  313ACTN    C1 3589   2.298   6.122   6.154  0.8074  0.1845 -0.0025
  313ACTN    H1 3590   2.253   6.106   6.252  0.0965  0.5930 -0.2612
  313ACTN    H2 3591   2.333   6.026   6.117 -0.0278  0.2076 -0.8544
  313ACTN    H3 3592   2.232   6.164   6.078  2.3694  0.2316 -1.3777
  314ACTN    H6 3593   4.304   8.482   6.742 -1.1926  1.0666 -0.4828
  314ACTN    C3 3594   4.232   8.402   6.727 -0.2849  0.2028 -0.2748
  314ACTN    H4 3595   4.239   8.340   6.816 -3.1725 -0.0973 -0.2190
  314ACTN    H5 3596   4.136   8.455   6.724 -0.5826 -0.2995  0.3073
  314ACTN    C2 3597   4.264   8.328   6.599  0.0629  0.5629 -0.1817
  314ACTN    O1 3598   4.296   8.208   6.598  0.3298 -0.4368 -0.1855
  314ACTN    C1 3599   4.259   8.395   6.466  0.4944  0.0537  0.6602
  314ACTN    H1 3600   4.316   8.346   6.387  3.4898  5.0612 -0.5699
  314ACTN    H2 3601   4.299   8.497   6.472 -0.5890  0.5266 -0.1097
  314ACTN    H3 3602   4.158   8.396   6.426  1.2712  2.8092 -1.4022
  315ACTN    H6 3603   4.466   3.623   5.768  0.8960 -1.8474 -1.2042
  315ACTN    C3 3604   4.376   3.627   5.707  0.1951  0.1817 -0.0950
  315ACTN    H4 3605   4.342   3.729   5.690  1.4185  0.3741 -1.4090
  315ACTN    H5 3606   4.388   3.574   5.612  2.3856  1.5921 -0.6230
  315ACTN    C2 3607   4.262   3.566   5.793  0.1806 -0.8024  0.1972
  315ACTN    O1 3608   4.281   3.460   5.843  0.7903  0.2637 -0.5870
  315ACTN    C1 3609   4.130   3.634   5.800 -0.7912  0.0599  0.5647
  315ACTN    H1 3610   4.111   3.650   5.906  0.6163 -0.0240  0.8415
  315ACTN    H2 3611   4.061   3.568   5.747  1.8453 -2.0167 -0.4176
  315ACTN    H3 3612   4.136   3.727   5.744 -0.1935 -0.3327 -0.0408
  316ACTN    H6 3613   5.611   3.938   4.718 -1.0969  0.0120  0.4438
  316ACTN    C3 3614   5.551   3.920   4.628  0.1379 -0.8043 -0.2277
  316ACTN    H4 3615   5.568   3.814   4.607 -1.6777 -0.8980 -1.3276
  316ACTN    H5 3616   5.448   3.939   4.656 -0.0401 -0.1801 -1.2878
  316ACTN    C2 3617   5.596   4.023   4.521  0.3922  0.3134  0.2585
  316ACTN    O1 3618   5.665   4.120   4.551  0.0517  0.3632  0.7525
  316ACTN    C1 3619   5.582   3.977   4.385 -0.6724 -0.0154  0.8527
  316ACTN    H1 3620   5.489   4.010   4.339  0.8581 -1.9247 -3.8628
  316ACTN    H2 3621   5.594   3.870   4.370 -0.4412 -0.0538  1.2957
  316ACTN    H3 3622   5.659   4.020   4.321 -0.8138 -0.1535  0.5928
  317ACTN    H6 3623   0.091   1.389   0.607  0.1041  1.6165  0.4871
  317ACTN    C3 3624  -0.006   1.435   0.589 -0.5650 -0.0609 -0.3077
  317ACTN    H4 3625  -0.013   1.432   0.480  0.4205  3.4048 -0.5543
  317ACTN    H5 3626  -0.091   1.397   0.646  0.3691 -0.5189  0.7949
  317ACTN    C2 3627   0.011   1.585   0.630 -0.5384 -0.0122  0.3120
  317ACTN    O1 3628  -0.087   1.662   0.629  0.0589  0.3007  0.4255
  317ACTN    C1 3629   0.148   1.637   0.668  0.2988  0.3681 -0.0066
  317ACTN    H1 3630   0.141   1.671   0.771 -2.4728 -0.7267  0.2163
  317ACTN    H2 3631   0.165   1.723   0.604  1.4587 -1.0012 -1.5737
  317ACTN    H3 3632   0.223   1.560   0.649 -0.0329 -0.0407  0.3336
  318ACTN    H6 3633   5.162   1.446   5.396 -0.9660 -0.0706  0.9683
  318ACTN    C3 3634   5.093   1.363   5.408 -0.8907 -0.3328 -0.2625
  318ACTN    H4 3635   5.009   1.385   5.475 -2.2484  0.2564 -2.1340
  318ACTN    H5 3636   5.047   1.342   5.312  2.2894 -1.5886 -1.5886
  318ACTN    C2 3637   5.163   1.250   5.470  0.0620  0.1392  0.1957
  318ACTN    O1 3638   5.247   1.263   5.560  0.4224 -0.7106 -0.4860
  318ACTN    C1 3639   5.126   1.117   5.427 -0.8531 -0.9635 -0.5028
  318ACTN    H1 3640   5.217   1.079   5.381  0.0790  0.0266  0.5242
  318ACTN    H2 3641   5.045   1.111   5.354 -2.6769  2.0608  1.1781
  318ACTN    H3 3642   5.098   1.055   5.512  0.4379 -0.0167  0.6094
  319ACTN    H6 3643   7.633   6.704   7.015 -0.9125 -1.3843 -2.1740
  319ACTN    C3 3644   7.646   6.613   7.074 -0.3355  0.3642  0.4776
  319ACTN    H4 3645   7.552   6.603   7.129 -0.5773  0.0050  0.0102
  319ACTN    H5 3646   7.674   6.528   7.011 -2.0162  1.2165 -1.5122
  319ACTN    C2 3647   7.762   6.632   7.168 -0.0251 -0.1651  0.2240
  319ACTN    O1 3648   7.767   6.740   7.227  0.6451  0.3316  0.7600
  319ACTN    C1 3649   7.872   6.530   7.168  0.4666  0.6823 -0.1013
  319ACTN    H1 3650   7.888   6.499   7.064  0.4906 -0.4151  0.2266
  319ACTN    H2 3651   7.844   6.443   7.227  0.5619  2.0686  2.0148
  319ACTN    H3 3652   7.969   6.562   7.206 -0.6516  2.5857  1.1726
  320ACTN    H6 3653   4.692   1.063   1.317  0.4663  2.1259 -0.3598
  320ACTN    C3 3654   4.601   1.110   1.354 -0.1329  0.3331  0.4835
  320ACTN    H4 3655   4.546   1.177   1.288 -1.4031 -1.8982 -0.7951
  320ACTN    H5 3656   4.537   1.027   1.385  0.2446  0.5187  1.8092
  320ACTN    C2 3657   4.630   1.182   1.482  0.1084 -0.2221 -0.2309
  320ACTN    O1 3658   4.667   1.110   1.574 -0.1488  0.4897 -0.1770
  320ACTN    C1 3659   4.596   1.330   1.507  0.1936 -0.1001  0.7094
  320ACTN    H1 3660   4.684   1.394   1.500  1.1509 -1.2286  2.0475
  320ACTN    H2 3661   4.553   1.342   1.606  1.8029  1.2774  1.2797
  320ACTN    H3 3662   4.520   1.365   1.438 -0.4974  1.1996  2.1075
  321ACTN    H6 3663   2.275   8.124   2.805  1.2341 -1.7448  0.6948
  321ACTN    C3 3664   2.220   8.057   2.739  0.2494 -0.1308 -0.1576
  321ACTN    H4 3665   2.291   8.039   2.658  2.2215  1.9074  1.0528
  321ACTN    H5 3666   2.200   7.965   2.794 -2.1714  0.7669  0.5338
  321ACTN    C2 3667   2.116   8.134   2.674 -0.6403  0.2750 -0.0784
  321ACTN    O1 3668   2.032   8.074   2.605  0.4182  0.8818 -0.1705
  321ACTN    C1 3669   2.120   8.286   2.680 -0.0100  0.1963 -0.7482
  321ACTN    H1 3670   2.029   8.322   2.729 -1.3000 -0.5728 -2.5257
  321ACTN    H2 3671   2.129   8.327   2.579  1.0981 -1.5636 -1.3786
  321ACTN    H3 3672   2.206   8.320   2.738  0.5610 -0.2985 -1.3025
  322ACTN    H6 3673   6.498   1.801   0.591 -0.3979  0.2893 -1.9745
  322ACTN    C3 3674   6.517   1.694   0.584  0.3910  0.2347  0.3894
  322ACTN    H4 3675   6.428   1.632   0.585  0.1090  0.5805 -1.0872
  322ACTN    H5 3676   6.559   1.679   0.484  0.5277  1.6781  0.2239
  322ACTN    C2 3677   6.618   1.644   0.680  0.4924 -0.9652 -0.0156
  322ACTN    O1 3678   6.576   1.573   0.770  0.1315 -0.2360  0.1410
  322ACTN    C1 3679   6.753   1.720   0.690 -0.3420 -0.7990  1.2558
  322ACTN    H1 3680   6.755   1.806   0.622 -2.1645  0.5838  2.9138
  322ACTN    H2 3681   6.839   1.656   0.669 -1.4047 -1.6599 -0.5753
  322ACTN    H3 3682   6.765   1.756   0.792  0.3774 -1.1669  1.3055
  323ACTN    H6 3683   8.926   6.838   5.205  0.9414  1.3480  1.4303
  323ACTN    C3 3684   8.877   6.821   5.301 -0.1390  0.0793  0.6555
  323ACTN    H4 3685   8.768   6.826   5.299 -0.3002 -2.4976  0.4042
  323ACTN    H5 3686   8.904   6.717   5.320 -0.8398 -0.5821 -1.7010
  323ACTN    C2 3687   8.926   6.922   5.410 -0.0023 -0.2960 -0.1420
  323ACTN    O1 3688   8.878   7.030   5.408 -0.3878 -0.0520  0.5131
  323ACTN    C1 3689   9.024   6.878   5.513 -0.3070 -0.0345 -0.0728
  323ACTN    H1 3690   9.116   6.933   5.498  0.2056 -0.0901  2.6791
  323ACTN    H2 3691   9.038   6.770   5.504 -1.1353 -0.0874 -0.8326
  323ACTN    H3 3692   8.996   6.903   5.615 -1.3332  0.3567 -0.4431
  324ACTN    H6 3693   2.591   7.025   3.779  1.5073  0.4524 -0.0495
  324ACTN    C3 3694   2.570   7.131   3.766 -0.5742  0.1607  0.7325
  324ACTN    H4 3695   2.635   7.165   3.685  0.7894  0.0410  1.7591
  324ACTN    H5 3696   2.465   7.137   3.738 -0.3882 -3.9412 -1.2445
  324ACTN    C2 3697   2.599   7.200   3.892  0.1487  0.1970 -0.3114
  324ACTN    O1 3698   2.612   7.138   3.991 -0.2935  0.5830 -0.2809
  324ACTN    C1 3699   2.618   7.345   3.887  0.4713 -0.4906 -0.1138
  324ACTN    H1 3700   2.581   7.386   3.794 -1.0281 -2.6549 -0.5006
  324ACTN    H2 3701   2.714   7.392   3.910 -0.4981  1.0363  0.8949
  324ACTN    H3 3702   2.553   7.388   3.963 -0.9757  0.6067 -1.9567
  325ACTN    H6 3703   5.481   3.260   3.318 -1.9366 -0.8995  0.3445
  325ACTN    C3 3704   5.503   3.243   3.424 -0.0093  0.4251  0.1896
  325ACTN    H4 3705   5.512   3.135   3.438 -0.0404  0.3823 -0.1202
  325ACTN    H5 3706   5.599   3.291   3.441 -0.4222  1.5777 -0.6770
  325ACTN    C2 3707   5.408   3.298   3.523 -0.9538 -0.4197  0.9192
  325ACTN    O1 3708   5.395   3.242   3.630 -0.6234  0.0539 -0.4221
  325ACTN    C1 3709   5.361   3.444   3.504  0.2991  0.0828  0.0801
  325ACTN    H1 3710   5.341   3.458   3.397  1.8902  3.7506  0.1840
  325ACTN    H2 3711   5.444   3.512   3.521  1.8245 -1.2756 -1.6953
  325ACTN    H3 3712   5.274   3.479   3.559 -0.6136 -1.8446 -0.1050
  326ACTN    H6 3713   7.923   2.976   4.938 -0.5920  0.4928 -0.2217
  326ACTN    C3 3714   7.875   2.884   4.972 -0.6848  0.5751 -0.1292
  326ACTN    H4 3715   7.780   2.915   5.015 -0.1425  0.7339  0.9968
  326ACTN    H5 3716   7.864   2.818   4.886  0.2202  2.5441 -1.7965
  326ACTN    C2 3717   7.950   2.819   5.084 -0.4428 -0.1775  0.6936
  326ACTN    O1 3718   7.968   2.696   5.074  0.0165  0.5240  0.8475
  326ACTN    C1 3719   7.976   2.895   5.210 -0.4296  0.2465 -0.5416
  326ACTN    H1 3720   7.931   2.843   5.295 -1.7103  0.6969 -0.9348
  326ACTN    H2 3721   7.941   2.998   5.210  0.3202  0.5080  0.3687
  326ACTN    H3 3722   8.083   2.896   5.231 -0.6221 -0.4085  0.4657
  327ACTN    H6 3723   3.783   8.555   3.960 -1.3777  0.9960 -0.6858
  327ACTN    C3 3724   3.809   8.594   3.861  0.5390  0.0383 -0.5692
  327ACTN    H4 3725   3.794   8.509   3.794  0.5893  1.3308 -2.2522
  327ACTN    H5 3726   3.736   8.667   3.828  0.7977  1.6920  2.3657
  327ACTN    C2 3727   3.946   8.654   3.846 -0.0055 -0.1042  0.2609
  327ACTN    O1 3728   3.975   8.713   3.746  0.2945 -0.0799  0.1037
  327ACTN    C1 3729   4.061   8.613   3.945 -0.2986  0.3335  0.3363
  327ACTN    H1 3730   4.153   8.669   3.932  0.9787 -1.5920  1.0004
  327ACTN    H2 3731   4.098   8.518   3.907 -1.4710 -0.3864  0.9566
  327ACTN    H3 3732   4.023   8.600   4.046 -0.3397  0.0488  0.2840
  328ACTN    H6 3733   3.166   1.559   8.907 -1.9148 -0.7222 -0.8511
  328ACTN    C3 3734   3.187   1.575   8.801  0.1825 -0.3438 -0.3991
  328ACTN    H4 3735   3.108   1.533   8.738 -1.8994  0.3168  1.6957
  328ACTN    H5 3736   3.193   1.682   8.781  1.9938 -0.9286 -3.2947
  328ACTN    C2 3737   3.307   1.493   8.767 -0.9858 -0.5797 -0.5262
  328ACTN    O1 3738   3.402   1.542   8.715  0.3640 -0.8475  0.5252
  328ACTN    C1 3739   3.319   1.352   8.813  0.3335  0.5847  0.0392
  328ACTN    H1 3740   3.320   1.281   8.730 -1.3323  2.1437 -1.3520
  328ACTN    H2 3741   3.236   1.331   8.881  0.9330 -1.3342  0.2130
  328ACTN    H3 3742   3.414   1.338   8.865 -0.0335 -1.9767  0.1153
  329ACTN    H6 3743   4.599   0.334   7.071 -2.3055  0.0640 -1.0316
  329ACTN    C3 3744   4.545   0.380   7.153 -0.3139  0.1851  0.2419
  329ACTN    H4 3745   4.481   0.310   7.206 -2.3223  2.0479  0.3678
  329ACTN    H5 3746   4.620   0.415   7.224 -1.2000 -0.2239  1.3965
  329ACTN    C2 3747   4.453   0.489   7.100  0.1600 -0.7778 -0.4315
  329ACTN    O1 3748   4.470   0.539   6.987 -0.2651  0.1348 -0.5974
  329ACTN    C1 3749   4.354   0.547   7.190 -0.3978  0.2337 -0.1350
  329ACTN    H1 3750   4.280   0.468   7.206 -0.0814 -0.0490 -0.0466
  329ACTN    H2 3751   4.300   0.627   7.140  0.4859 -0.5404 -2.3860
  329ACTN    H3 3752   4.398   0.578   7.285  0.1660  0.4413 -0.4635
  330ACTN    H6 3753   2.332   7.501   0.869  0.2465 -0.0918 -0.8360
  330ACTN    C3 3754   2.329   7.609   0.880 -0.4474 -0.1433 -0.5678
  330ACTN    H4 3755   2.321   7.654   0.781 -0.6273 -1.3692 -1.1199
  330ACTN    H5 3756   2.239   7.640   0.933  0.3998  0.1082  0.7489
  330ACTN    C2 3757   2.451   7.669   0.950  0.1995 -0.4946 -0.9016
  330ACTN    O1 3758   2.520   7.749   0.888 -0.6453  0.5634 -0.4112
  330ACTN    C1 3759   2.476   7.640   1.090  0.3963  0.9406 -0.3929
  330ACTN    H1 3760   2.550   7.560   1.101  0.6185  1.1535 -0.3425
  330ACTN    H2 3761   2.381   7.612   1.137  1.5322 -2.9750 -0.2107
  330ACTN    H3 3762   2.504   7.723   1.155 -2.1558  0.3194  1.6183
  331ACTN    H6 3763   1.424   6.402   3.397  0.7922  0.2546 -1.1209
  331ACTN    C3 3764   1.338   6.428   3.335 -0.3175  0.1396  0.3443
  331ACTN    H4 3765   1.319   6.535   3.343  0.5231  0.5748 -2.7895
  331ACTN    H5 3766   1.360   6.409   3.230 -2.3850  1.5338 -0.3535
  331ACTN    C2 3767   1.207   6.362   3.358  0.7025  0.9822 -0.0686
  331ACTN    O1 3768   1.114   6.425   3.406 -0.2815 -0.3401  0.2391
  331ACTN    C1 3769   1.203   6.213   3.355  0.1233 -0.0436 -0.0140
  331ACTN    H1 3770   1.098   6.185   3.363  0.1345 -0.6864 -1.8289
  331ACTN    H2 3771   1.265   6.167   3.431  2.0802 -0.5714 -1.8790
  331ACTN    H3 3772   1.232   6.173   3.258  1.1747 -1.9523  1.0655
  332ACTN    H6 3773   0.523   0.798   5.281  1.6871  0.8420  0.2548
  332ACTN    C3 3774   0.483   0.800   5.382  0.0465  0.8140 -0.3886
  332ACTN    H4 3775   0.444   0.698   5.393 -1.2858  1.4886  1.2610
  332ACTN    H5 3776   0.568   0.818   5.447 -0.7031  1.1215  0.5270
  332ACTN    C2 3777   0.383   0.913   5.411 -0.0683 -0.1132 -0.4270
  332ACTN    O1 3778   0.275   0.887   5.461  0.3100  0.5500 -0.3275
  332ACTN    C1 3779   0.399   1.053   5.346  0.1727  0.4528  0.7126
  332ACTN    H1 3780   0.303   1.100   5.330  0.8905  1.8368  0.3673
  332ACTN    H2 3781   0.458   1.050   5.255 -0.8363  1.0284  0.0363
  332ACTN    H3 3782   0.447   1.111   5.425 -0.4089  2.2550 -0.2459
  333ACTN    H6 3783   1.630   5.147   0.780  1.3477  0.7417  0.6314
  333ACTN    C3 3784   1.665   5.211   0.699  0.2709 -0.1301 -0.5474
  333ACTN    H4 3785   1.730   5.289   0.740  2.6087 -2.1147 -0.3382
  333ACTN    H5 3786   1.724   5.142   0.639  0.6919 -1.2844  1.1392
  333ACTN    C2 3787   1.563   5.270   0.606  0.2494 -0.2646  0.1462
  333ACTN    O1 3788   1.501   5.202   0.526 -0.5153 -0.2379 -0.5054
  333ACTN    C1 3789   1.535   5.419   0.602 -0.5923  0.5233 -0.1963
  333ACTN    H1 3790   1.436   5.429   0.648  0.2238  0.0555  1.7192
  333ACTN    H2 3791   1.532   5.460   0.501  3.7009  1.0938 -0.2030
  333ACTN    H3 3792   1.606   5.468   0.668 -1.4905 -0.2146  1.3423
  334ACTN    H6 3793   0.652   6.783   3.238 -0.0809 -1.1193 -1.7222
  334ACTN    C3 3794   0.548   6.798   3.266  0.4115 -0.4356 -0.1760
  334ACTN    H4 3795   0.486   6.723   3.216 -1.3153  0.4617  0.5691
  334ACTN    H5 3796   0.539   6.776   3.372 -1.4766 -3.4868 -0.8783
  334ACTN    C2 3797   0.505   6.935   3.231  0.2222 -0.3476  0.4394
  334ACTN    O1 3798   0.545   6.988   3.130 -0.3066 -0.4017 -0.2486
  334ACTN    C1 3799   0.392   7.005   3.302 -1.1935 -0.0933  0.2191
  334ACTN    H1 3800   0.302   6.946   3.286 -0.7277 -1.4312  2.3318
  334ACTN    H2 3801   0.379   7.106   3.264  0.7579 -0.7242 -2.3121
  334ACTN    H3 3802   0.420   7.007   3.407 -1.2619  1.9903  0.2156
  335ACTN    H6 3803   5.212   8.325   3.427 -2.3117 -1.1620  0.7969
  335ACTN    C3 3804   5.260   8.245   3.483 -0.0392 -0.1676  0.3436
  335ACTN    H4 3805   5.282   8.278   3.584 -3.6596  1.7686  0.5934
  335ACTN    H5 3806   5.196   8.157   3.495 -0.2678 -0.0895 -0.3040
  335ACTN    C2 3807   5.372   8.188   3.406  0.0375  0.3531 -0.2334
  335ACTN    O1 3808   5.402   8.236   3.298 -0.5862 -0.1751  0.2229
  335ACTN    C1 3809   5.461   8.093   3.477  0.2423 -0.1440 -0.4209
  335ACTN    H1 3810   5.504   8.136   3.567 -0.6236 -0.3368  0.0839
  335ACTN    H2 3811   5.543   8.070   3.409  0.9373 -0.9404  0.6716
  335ACTN    H3 3812   5.412   8.001   3.510  0.4293 -0.8069 -1.9343
  336ACTN    H6 3813   8.423   6.013   8.974 -0.0352 -0.4726 -0.9151
  336ACTN    C3 3814   8.414   5.904   8.977  0.0605 -0.4558  0.3271
  336ACTN    H4 3815   8.447   5.866   9.073  1.9957  1.8391  0.6233
  336ACTN    H5 3816   8.487   5.871   8.902  0.4887  3.0502 -0.9023
  336ACTN    C2 3817   8.282   5.864   8.938  0.4373  0.0794  0.0543
  336ACTN    O1 3818   8.237   5.924   8.842 -0.4466 -0.2558 -0.1804
  336ACTN    C1 3819   8.233   5.734   8.992  0.5136 -0.3577  0.3554
  336ACTN    H1 3820   8.260   5.698   9.092  0.5062  0.7860  0.7707
  336ACTN    H2 3821   8.262   5.657   8.920 -1.3982 -0.2245 -0.5612
  336ACTN    H3 3822   8.125   5.730   8.985  0.2787  2.4403  1.9868
  337ACTN    H6 3823   6.176   8.078   4.761 -4.2494  1.7035  2.0187
  337ACTN    C3 3824   6.109   8.048   4.681 -1.3826  0.4056  0.0101
  337ACTN    H4 3825   6.135   7.944   4.662  3.3666  1.3910  0.6434
  337ACTN    H5 3826   6.007   8.054   4.719 -1.0259 -0.9182  1.2140
  337ACTN    C2 3827   6.125   8.137   4.560 -0.3970  0.2128 -0.3689
  337ACTN    O1 3828   6.197   8.095   4.472  0.3493 -0.0142  0.2141
  337ACTN    C1 3829   6.054   8.265   4.550  0.1937  0.3243  0.3343
  337ACTN    H1 3830   6.036   8.301   4.652 -0.5712  1.8841 -0.3405
  337ACTN    H2 3831   5.955   8.261   4.506 -0.2327 -4.0683  1.4538
  337ACTN    H3 3832   6.114   8.344   4.504  3.3265 -1.5664  1.0617
  338ACTN    H6 3833   0.396   8.890   1.372 -0.9080  1.1936 -0.4775
  338ACTN    C3 3834   0.490   8.927   1.333 -0.3191  0.8165  0.5733
  338ACTN    H4 3835   0.452   8.964   1.238 -2.1483 -1.6147  0.3107
  338ACTN    H5 3836   0.531   9.008   1.394 -3.1245  4.1669 -1.7895
  338ACTN    C2 3837   0.586   8.815   1.314 -1.0111 -0.2340 -0.8169
  338ACTN    O1 3838   0.691   8.820   1.246  0.7557 -0.1535 -0.5655
  338ACTN    C1 3839   0.548   8.685   1.372 -0.0384 -0.0434 -0.0158
  338ACTN    H1 3840   0.441   8.683   1.395 -0.2523  1.7831 -0.7365
  338ACTN    H2 3841   0.600   8.662   1.464  1.1279  1.9736 -0.1439
  338ACTN    H3 3842   0.566   8.601   1.304  0.6678 -0.5015  0.7384
  339ACTN    H6 3843   6.219   1.417   2.217 -0.3259 -1.7654 -1.5901
  339ACTN    C3 3844   6.294   1.469   2.157  0.2378 -0.7229 -0.0314
  339ACTN    H4 3845   6.388   1.417   2.173 -1.1137 -3.3722 -0.4623
  339ACTN    H5 3846   6.273   1.458   2.051  1.2651 -0.5944 -0.2546
  339ACTN    C2 3847   6.292   1.616   2.178 -0.1444  0.2186  0.1554
  339ACTN    O1 3848   6.367   1.662   2.265 -0.1419 -0.6661 -0.0443
  339ACTN    C1 3849   6.165   1.684   2.137  0.3389 -1.0719  0.0775
  339ACTN    H1 3850   6.092   1.651   2.211 -1.9203 -0.2199 -1.7237
  339ACTN    H2 3851   6.123   1.662   2.039  0.7171 -1.3194 -0.0308
  339ACTN    H3 3852   6.174   1.792   2.145  1.4004 -1.1087 -0.4727
  340ACTN    H6 3853   7.981   1.610   2.783 -1.2418  2.4546 -0.2624
  340ACTN    C3 3854   7.939   1.593   2.684 -0.2382  0.7927 -0.4266
  340ACTN    H4 3855   8.012   1.530   2.633 -0.0396  2.0223 -1.7126
  340ACTN    H5 3856   7.844   1.540   2.686  0.7542 -0.9720  1.3764
  340ACTN    C2 3857   7.923   1.720   2.608  0.4828 -0.1645 -0.4626
  340ACTN    O1 3858   8.007   1.811   2.605 -0.2090  0.8980 -0.3285
  340ACTN    C1 3859   7.795   1.742   2.540  0.0355 -0.2645  0.5806
  340ACTN    H1 3860   7.782   1.665   2.463 -1.0683 -1.2442  1.7227
  340ACTN    H2 3861   7.792   1.841   2.494  0.8374 -0.4035  0.2135
  340ACTN    H3 3862   7.712   1.732   2.610 -1.2824 -1.5988 -1.0992
  341ACTN    H6 3863   1.573   8.605   0.918  0.4481 -0.3814  0.5491
  341ACTN    C3 3864   1.652   8.542   0.958  0.1819 -1.0368  0.0466
  341ACTN    H4 3865   1.724   8.610   1.003 -2.8933  1.5901  1.1782
  341ACTN    H5 3866   1.619   8.473   1.036 -0.4759  1.6327  2.1895
  341ACTN    C2 3867   1.727   8.475   0.844 -0.5576  0.2238  0.8333
  341ACTN    O1 3868   1.739   8.352   0.845  0.6226 -0.3965  0.7974
  341ACTN    C1 3869   1.810   8.542   0.738 -0.5014  0.4541  0.6761
  341ACTN    H1 3870   1.747   8.601   0.673  1.0618 -0.4035 -1.6668
  341ACTN    H2 3871   1.863   8.475   0.671 -2.8892 -1.3052  0.4726
  341ACTN    H3 3872   1.883   8.609   0.785 -0.3818  0.0937  1.0093
  342ACTN    H6 3873   5.851   4.886   0.117  1.5028  2.5603 -2.0167
  342ACTN    C3 3874   5.942   4.836   0.148 -0.4244  0.0332 -0.2419
  342ACTN    H4 3875   5.925   4.728   0.149  2.3941 -0.4559 -0.4047
  342ACTN    H5 3876   6.019   4.868   0.078  1.8246  0.0396  2.1534
  342ACTN    C2 3877   5.974   4.863   0.295 -0.0890 -0.2093 -0.6501
  342ACTN    O1 3878   5.907   4.820   0.386  0.8395 -0.2963 -0.2262
  342ACTN    C1 3879   6.082   4.969   0.317  0.3965  0.2741  0.4620
  342ACTN    H1 3880   6.181   4.937   0.283  0.8085  0.8578  1.0947
  342ACTN    H2 3881   6.090   4.995   0.422  3.3571 -1.2525  0.6666
  342ACTN    H3 3882   6.058   5.059   0.261  1.5051  1.0592  1.2264
  343ACTN    H6 3883   0.182   3.394   1.494  1.4941 -0.4650 -3.6534
  343ACTN    C3 3884   0.217   3.297   1.529 -0.3571  0.2280  0.4275
  343ACTN    H4 3885   0.274   3.310   1.621 -1.0527  4.9276  0.3083
  343ACTN    H5 3886   0.122   3.247   1.546 -0.3638  0.2138  0.3476
  343ACTN    C2 3887   0.288   3.229   1.417 -0.6143  0.4065  0.0759
  343ACTN    O1 3888   0.247   3.123   1.375 -0.3378 -0.4416 -0.1637
  343ACTN    C1 3889   0.401   3.297   1.355  0.3846  0.1652 -0.2173
  343ACTN    H1 3890   0.368   3.398   1.330 -2.9789 -0.7193  0.3725
  343ACTN    H2 3891   0.432   3.246   1.263  0.2105  0.1643 -0.2764
  343ACTN    H3 3892   0.489   3.293   1.418  0.8729 -1.8183 -0.9827
  344ACTN    H6 3893   2.478   5.492   0.984  1.7437 -1.3807  2.1025
  344ACTN    C3 3894   2.501   5.419   0.907  0.0116  0.1251  0.0752
  344ACTN    H4 3895   2.486   5.453   0.805  1.4940  1.4732  0.2914
  344ACTN    H5 3896   2.607   5.395   0.919  0.7242  3.3698  0.5670
  344ACTN    C2 3897   2.413   5.298   0.926  0.7028  0.8906 -0.1596
  344ACTN    O1 3898   2.400   5.224   0.830 -0.4373  0.3598 -0.3343
  344ACTN    C1 3899   2.332   5.285   1.046  0.0068 -0.2283  0.1675
  344ACTN    H1 3900   2.391   5.269   1.136  0.2658  1.7679  0.3929
  344ACTN    H2 3901   2.262   5.203   1.033  0.2874 -0.1760 -1.8094
  344ACTN    H3 3902   2.267   5.373   1.052 -0.1807 -0.3795  0.3321
  345ACTN    H6 3903   5.201   4.085   7.018  0.8690 -0.3036 -2.5644
  345ACTN    C3 3904   5.269   4.169   7.028 -0.3813  0.4699 -0.1308
  345ACTN    H4 3905   5.366   4.127   7.054 -0.1967  0.6087 -0.5896
  345ACTN    H5 3906   5.276   4.200   6.923  0.7643 -2.0851 -0.8461
  345ACTN    C2 3907   5.239   4.278   7.124 -0.1712 -0.0268 -0.2119
  345ACTN    O1 3908   5.162   4.365   7.102 -0.0871 -0.2292 -0.0542
  345ACTN    C1 3909   5.285   4.257   7.266  0.3854  0.0139 -0.0954
  345ACTN    H1 3910   5.242   4.324   7.340 -1.7145 -0.6549 -0.6617
  345ACTN    H2 3911   5.394   4.264   7.271  0.3369  0.4908  0.3208
  345ACTN    H3 3912   5.266   4.154   7.296 -0.2668  0.4124  0.8653
  346ACTN    H6 3913   4.908   2.462   4.218 -1.3090 -0.6050  0.5431
  346ACTN    C3 3914   4.839   2.535   4.176 -0.0072  0.0650 -0.5072
  346ACTN    H4 3915   4.741   2.488   4.183  0.1250 -0.1323  0.0432
  346ACTN    H5 3916   4.842   2.629   4.232 -2.0241 -0.0429 -0.1628
  346ACTN    C2 3917   4.873   2.566   4.030 -0.2362  0.3626 -0.3487
  346ACTN    O1 3918   4.868   2.687   3.991  0.3591 -0.0402 -0.3522
  346ACTN    C1 3919   4.911   2.458   3.942  0.1464  0.4673  0.1664
  346ACTN    H1 3920   5.010   2.419   3.966  0.1475  0.6420  0.4434
  346ACTN    H2 3921   4.925   2.493   3.840  2.2813 -0.1457  0.2265
  346ACTN    H3 3922   4.837   2.379   3.933 -0.4675  1.1308 -0.6759
  347ACTN    H6 3923   4.214   5.564   5.435  1.6435 -0.8124 -3.0617
  347ACTN    C3 3924   4.129   5.616   5.391  0.1168 -0.8213 -0.2088
  347ACTN    H4 3925   4.034   5.601   5.443 -0.7008 -0.0018 -1.4460
  347ACTN    H5 3926   4.155   5.722   5.387  2.5627 -1.4619 -2.7012
  347ACTN    C2 3927   4.113   5.573   5.252 -0.4752  0.9648 -0.4595
  347ACTN    O1 3928   4.018   5.617   5.180  0.1713 -0.1224 -0.4177
  347ACTN    C1 3929   4.192   5.450   5.208 -0.3555 -0.1759 -0.0184
  347ACTN    H1 3930   4.164   5.357   5.259  2.2180 -1.4019 -0.7476
  347ACTN    H2 3931   4.299   5.459   5.227 -0.6033 -1.3354  2.1455
  347ACTN    H3 3932   4.175   5.430   5.103 -0.2488  0.5616 -0.1773
  348ACTN    H6 3933   8.956   8.631   4.929  1.2547  3.2744  0.7607
  348ACTN    C3 3934   8.857   8.651   4.887  1.1021 -0.2921 -0.7300
  348ACTN    H4 3935   8.791   8.564   4.887  2.3665 -1.2679 -0.4816
  348ACTN    H5 3936   8.811   8.742   4.924  1.4426 -0.3757 -0.1077
  348ACTN    C2 3937   8.872   8.679   4.738 -0.9228  0.5668  0.6242
  348ACTN    O1 3938   8.818   8.775   4.686 -0.2985 -0.3086 -0.2517
  348ACTN    C1 3939   8.968   8.596   4.662  0.4195  0.3533  0.1586
  348ACTN    H1 3940   8.925   8.547   4.575  3.5548 -1.6246 -0.3595
  348ACTN    H2 3941   9.029   8.523   4.716  0.7153 -1.0095 -1.9471
  348ACTN    H3 3942   9.041   8.665   4.621  2.3114 -0.9951  1.1760
  349ACTN    H6 3943   0.948   1.498   6.802 -1.4443 -1.6949 -0.2991
  349ACTN    C3 3944   0.992   1.456   6.712  0.7780 -0.3123  0.1128
  349ACTN    H4 3945   0.963   1.352   6.705  1.7248 -0.5730  0.0001
  349ACTN    H5 3946   1.101   1.465   6.710  1.0106 -2.9042  0.5474
  349ACTN    C2 3947   0.943   1.524   6.589  0.2847 -0.3320  0.0576
  349ACTN    O1 3948   0.979   1.487   6.479  0.2598  0.2617  0.3127
  349ACTN    C1 3949   0.872   1.655   6.601  0.1285  0.2991  0.5027
  349ACTN    H1 3950   0.886   1.711   6.509 -3.1585 -0.6958 -0.6721
  349ACTN    H2 3951   0.907   1.720   6.681 -0.0188 -0.0732  0.8728
  349ACTN    H3 3952   0.763   1.647   6.609  0.0323 -0.1780 -1.1284
  350ACTN    H6 3953   5.104   1.431   3.123 -0.2953 -0.4337 -2.1232
  350ACTN    C3 3954   5.195   1.488   3.104 -0.1602  0.0747 -0.0373
  350ACTN    H4 3955   5.219   1.488   2.998 -0.2218  0.2745 -0.0517
  350ACTN    H5 3956   5.198   1.589   3.145 -0.6750 -0.5098  1.5035
  350ACTN    C2 3957   5.306   1.415   3.181  0.7756 -0.8524 -0.5501
  350ACTN    O1 3958   5.417   1.397   3.131  0.0738  0.0971 -0.3225
  350ACTN    C1 3959   5.299   1.434   3.324 -0.6417  0.0643 -0.4393
  350ACTN    H1 3960   5.340   1.531   3.350  0.5390 -0.6949  0.6112
  350ACTN    H2 3961   5.359   1.366   3.384 -0.4483  0.6060 -0.0273
  350ACTN    H3 3962   5.197   1.412   3.356 -1.2738  1.8755 -1.1085
  351ACTN    H6 3963   3.594   6.462   4.132 -2.0885 -2.4281  2.4252
  351ACTN    C3 3964   3.643   6.405   4.054 -1.0822  0.4559  0.8796
  351ACTN    H4 3965   3.632   6.452   3.956  0.5332  0.7085  0.7954
  351ACTN    H5 3966   3.747   6.389   4.083 -2.1489 -1.0808  4.0927
  351ACTN    C2 3967   3.574   6.279   4.020  0.3425 -0.4179 -0.3766
  351ACTN    O1 3968   3.634   6.177   4.029  0.3640  0.5186  0.3275
  351ACTN    C1 3969   3.426   6.276   3.993  0.3983  0.4061  0.8246
  351ACTN    H1 3970   3.375   6.358   4.042 -0.0820  1.7978 -1.9295
  351ACTN    H2 3971   3.381   6.178   4.008  1.2464  0.1308  1.6364
  351ACTN    H3 3972   3.420   6.304   3.888 -2.7403  1.0053  1.1264
  352ACTN    H6 3973   2.226   5.972   3.416  0.8303  1.4566  2.2492
  352ACTN    C3 3974   2.317   6.004   3.365  0.0294  0.2555  0.0202
  352ACTN    H4 3975   2.406   5.977   3.421  0.6286  1.3305 -0.4177
  352ACTN    H5 3976   2.333   5.959   3.267  1.0785 -1.0185  0.7568
  352ACTN    C2 3977   2.324   6.154   3.364 -0.1326 -0.6557 -0.4122
  352ACTN    O1 3978   2.288   6.213   3.461 -0.1762 -0.0409  0.1355
  352ACTN    C1 3979   2.375   6.229   3.245  0.2941 -0.3924 -0.0699
  352ACTN    H1 3980   2.465   6.279   3.280 -0.4320 -0.2079  1.6006
  352ACTN    H2 3981   2.302   6.303   3.212  0.3081 -1.0079 -1.5273
  352ACTN    H3 3982   2.397   6.163   3.161  2.7044  1.0680 -0.6440
  353ACTN    H6 3983   2.243   8.478   4.972  1.0895  3.2921  1.2340
  353ACTN    C3 3984   2.138   8.505   4.960  0.3271 -0.0284  0.1177
  353ACTN    H4 3985   2.079   8.454   5.036 -0.0438 -2.1001 -1.4993
  353ACTN    H5 3986   2.137   8.613   4.969  1.9681 -0.0629  0.8753
  353ACTN    C2 3987   2.102   8.451   4.827  0.9263  0.7102  0.8418
  353ACTN    O1 3988   2.001   8.503   4.771 -0.2153  0.1410  0.8439
  353ACTN    C1 3989   2.203   8.377   4.741  0.6007 -0.0026  0.0925
  353ACTN    H1 3990   2.153   8.292   4.693 -2.2397  1.6326  0.0277
  353ACTN    H2 3991   2.292   8.341   4.791 -0.3159 -1.5622  0.6362
  353ACTN    H3 3992   2.236   8.438   4.656 -1.1988 -0.8415 -1.2408
  354ACTN    H6 3993   6.356   5.075   7.497 -1.6033  0.3896  0.2659
  354ACTN    C3 3994   6.313   4.978   7.519 -0.4443 -0.2279 -0.1347
  354ACTN    H4 3995   6.324   4.912   7.432  0.1409 -0.0601 -0.1880
  354ACTN    H5 3996   6.360   4.931   7.605 -0.4012  0.8150  0.4173
  354ACTN    C2 3997   6.167   4.995   7.563 -0.6304  0.0401  0.7212
  354ACTN    O1 3998   6.121   4.904   7.630  0.0777 -0.1883 -0.3182
  354ACTN    C1 3999   6.083   5.112   7.536  0.1364 -0.0288  0.5651
  354ACTN    H1 4000   6.125   5.165   7.451 -1.0873 -0.3736 -0.2614
  354ACTN    H2 4001   6.091   5.187   7.616  1.0472  0.5181 -0.0283
  354ACTN    H3 4002   5.977   5.089   7.523  0.7571 -2.4759 -0.4189
  355ACTN    H6 4003   4.085   0.645   5.108 -0.0870  1.8969  0.5315
  355ACTN    C3 4004   3.977   0.651   5.097 -0.1149  0.2017 -0.3562
  355ACTN    H4 4005   3.928   0.553   5.096 -0.8776  0.5792 -1.1666
  355ACTN    H5 4006   3.934   0.705   5.181 -0.5961 -0.4178 -0.1935
  355ACTN    C2 4007   3.960   0.725   4.969  0.9847 -0.0864  0.1894
  355ACTN    O1 4008   3.946   0.845   4.976  0.0573 -0.0120 -0.0933
  355ACTN    C1 4009   3.928   0.658   4.842  0.5918 -0.0574  0.6191
  355ACTN    H1 4010   3.878   0.715   4.764  0.4314  0.4199  1.0711
  355ACTN    H2 4011   4.007   0.600   4.795  3.0428  3.5306  0.1339
  355ACTN    H3 4012   3.848   0.586   4.864 -0.1524  1.5763  3.4313
  356ACTN    H6 4013   5.964   3.061   1.340 -0.9323 -0.5056 -0.5174
  356ACTN    C3 4014   5.893   3.124   1.287  0.2393  0.1663 -1.2973
  356ACTN    H4 4015   5.812   3.149   1.355 -0.0609  0.8000 -1.8860
  356ACTN    H5 4016   5.933   3.220   1.253 -0.1721  0.5055 -0.8228
  356ACTN    C2 4017   5.831   3.047   1.175  0.3742 -0.4830  0.2888
  356ACTN    O1 4018   5.778   2.934   1.187 -0.3092 -0.6334 -0.2686
  356ACTN    C1 4019   5.843   3.109   1.033  0.3167  0.3244  0.0316
  356ACTN    H1 4020   5.928   3.177   1.025  1.0685 -0.7463 -1.1018
  356ACTN    H2 4021   5.752   3.167   1.015  0.3168  0.1648 -0.4772
  356ACTN    H3 4022   5.850   3.031   0.958  0.7240 -0.8330  1.2510
  357ACTN    H6 4023   4.490   4.170   3.222  0.3458  1.0603 -1.2038
  357ACTN    C3 4024   4.569   4.102   3.188  0.5179  0.6841 -0.0893
  357ACTN    H4 4025   4.656   4.159   3.156  1.6021 -1.0336 -0.2016
  357ACTN    H5 4026   4.595   4.041   3.274 -0.8351  0.9943  0.5673
  357ACTN    C2 4027   4.528   4.013   3.074 -0.0792  0.1584 -0.2756
  357ACTN    O1 4028   4.409   3.980   3.064 -0.3629 -0.2681  0.4480
  357ACTN    C1 4029   4.630   3.966   2.973  0.4465  0.2937 -0.1745
  357ACTN    H1 4030   4.698   3.901   3.028  1.1362  0.9894 -0.2082
  357ACTN    H2 4031   4.678   4.050   2.924 -1.3003  1.4965  0.1398
  357ACTN    H3 4032   4.576   3.911   2.896 -2.2373  0.5223  1.4742
  358ACTN    H6 4033   2.102   7.114   6.697 -2.3355 -1.6136  1.3113
  358ACTN    C3 4034   2.156   7.024   6.668  0.3417  0.2015  0.4390
  358ACTN    H4 4035   2.263   7.037   6.658  0.2344  1.5471  0.9656
  358ACTN    H5 4036   2.143   6.960   6.755  2.5220  1.0033  1.3775
  358ACTN    C2 4037   2.098   6.958   6.550 -0.0085 -0.5458  0.1459
  358ACTN    O1 4038   2.149   6.860   6.503 -0.3169 -0.2772 -0.7032
  358ACTN    C1 4039   1.955   6.991   6.500  0.1614  0.8800  0.0771
  358ACTN    H1 4040   1.897   6.900   6.515  0.3685  1.3115  3.9158
  358ACTN    H2 4041   1.956   7.020   6.395  1.6832  0.2933 -0.0877
  358ACTN    H3 4042   1.909   7.077   6.549 -1.3666  0.2360 -0.1966
  359ACTN    H6 4043   5.311   2.148   1.505  0.8251 -0.9209  1.0457
  359ACTN    C3 4044   5.400   2.127   1.445 -0.1667 -0.4621 -0.6038
  359ACTN    H4 4045   5.405   2.206   1.371 -0.0348  0.2241  0.1326
  359ACTN    H5 4046   5.488   2.145   1.506  1.0352 -1.5957 -1.9685
  359ACTN    C2 4047   5.384   1.989   1.396 -0.3036 -0.3209 -0.5429
  359ACTN    O1 4048   5.310   1.969   1.299 -0.6823 -1.0899 -0.2697
  359ACTN    C1 4049   5.453   1.878   1.475 -0.7589  0.1225 -0.1674
  359ACTN    H1 4050   5.387   1.799   1.511  0.7593 -1.2598 -0.3624
  359ACTN    H2 4051   5.522   1.903   1.555 -0.6832 -0.3679 -0.0757
  359ACTN    H3 4052   5.511   1.824   1.400  0.2093  1.0474 -0.0967
  360ACTN    H6 4053   0.896   5.230   7.760  0.5273  2.8519  0.4583
  360ACTN    C3 4054   0.978   5.178   7.710 -0.3131  0.9974  0.9438
  360ACTN    H4 4055   1.055   5.160   7.785  1.5965  0.0215 -1.1967
  360ACTN    H5 4056   0.941   5.082   7.676  1.0336  0.3820  1.2034
  360ACTN    C2 4057   1.041   5.259   7.600 -0.7955  0.4765  0.1458
  360ACTN    O1 4058   1.063   5.217   7.487  0.0697 -0.0762 -0.1813
  360ACTN    C1 4059   1.088   5.394   7.636 -0.4598  0.2747  0.6328
  360ACTN    H1 4060   1.061   5.403   7.742 -2.3256 -2.3884  0.4432
  360ACTN    H2 4061   1.045   5.478   7.582  0.9936 -0.2102 -1.2899
  360ACTN    H3 4062   1.197   5.389   7.630 -0.5886 -2.5651 -0.1200
  361ACTN    H6 4063   6.003   1.839   7.578  0.7075 -0.9113  1.5373
  361ACTN    C3 4064   5.965   1.920   7.640  0.1795 -0.0640  0.1236
  361ACTN    H4 4065   5.978   1.893   7.745  2.5839 -2.0839 -0.6573
  361ACTN    H5 4066   5.857   1.934   7.627  0.5705  1.1743 -1.9921
  361ACTN    C2 4067   6.042   2.049   7.614  0.7510 -0.1883  0.0190
  361ACTN    O1 4068   5.973   2.142   7.573  0.3656  0.5919 -0.3298
  361ACTN    C1 4069   6.180   2.057   7.641 -0.0263 -0.9085 -0.0895
  361ACTN    H1 4070   6.233   2.126   7.576  0.5298 -0.9985  0.2588
  361ACTN    H2 4071   6.222   1.958   7.623  2.4138  0.5910 -3.0987
  361ACTN    H3 4072   6.202   2.089   7.743 -2.4679  1.0345 -0.1191
  362ACTN    H6 4073   7.525   2.261   8.984  0.6586 -0.1680 -1.7198
  362ACTN    C3 4074   7.433   2.238   8.931 -0.1303  0.6199 -0.7019
  362ACTN    H4 4075   7.353   2.234   9.005  2.4970  1.0531  2.2320
  362ACTN    H5 4076   7.404   2.319   8.863  0.8285  1.1243 -0.5187
  362ACTN    C2 4077   7.444   2.113   8.851 -0.1776  0.0755 -0.1973
  362ACTN    O1 4078   7.383   2.009   8.880  0.1255  0.4507  0.1809
  362ACTN    C1 4079   7.539   2.101   8.736 -0.6433 -0.1372 -0.0358
  362ACTN    H1 4080   7.590   2.193   8.711 -0.3174  0.2902  2.1081
  362ACTN    H2 4081   7.492   2.055   8.648 -1.0064  1.2674 -0.5786
  362ACTN    H3 4082   7.626   2.038   8.759  1.6153  2.9084  0.0290
  363ACTN    H6 4083   5.611   1.720   0.449 -2.0123 -0.5670 -0.0822
  363ACTN    C3 4084   5.598   1.758   0.348  0.2315  0.2846 -0.0985
  363ACTN    H4 4085   5.496   1.729   0.320  0.4673 -1.4451  0.7295
  363ACTN    H5 4086   5.598   1.866   0.353 -0.7708  0.2121  1.8557
  363ACTN    C2 4087   5.695   1.713   0.246 -0.2053 -0.3898 -0.5666
  363ACTN    O1 4088   5.671   1.735   0.134 -0.2084  0.0677 -0.2325
  363ACTN    C1 4089   5.839   1.690   0.286  0.4878  0.4945  0.0251
  363ACTN    H1 4090   5.906   1.751   0.226  1.9972 -1.0829  0.0807
  363ACTN    H2 4091   5.865   1.586   0.266  1.2708  0.9000 -1.1003
  363ACTN    H3 4092   5.847   1.715   0.391  0.2921  1.1947 -0.1257
  364ACTN    H6 4093   8.161   4.445   0.820 -0.4407 -0.1076 -0.2047
  364ACTN    C3 4094   8.232   4.409   0.746 -0.4901 -0.1738 -0.2179
  364ACTN    H4 4095   8.261   4.305   0.764 -0.4380  0.3076  2.5977
  364ACTN    H5 4096   8.327   4.461   0.746 -0.2981 -0.5218 -0.4119
  364ACTN    C2 4097   8.183   4.408   0.607 -0.2402  0.1151 -0.4363
  364ACTN    O1 4098   8.201   4.306   0.538  0.2662  0.5598  0.3480
  364ACTN    C1 4099   8.145   4.534   0.549 -0.4056 -0.9281  0.2236
  364ACTN    H1 4100   8.053   4.526   0.492 -0.4218  0.5715  0.0051
  364ACTN    H2 4101   8.227   4.554   0.480 -2.5998  0.4178 -2.1063
  364ACTN    H3 4102   8.135   4.615   0.621  0.4968 -1.7844  1.3243
  365ACTN    H6 4103   2.490   6.522   2.910 -0.3029 -1.4247  0.5591
  365ACTN    C3 4104   2.414   6.598   2.928  0.8947  0.0109 -0.2264
  365ACTN    H4 4105   2.413   6.671   2.847 -0.7266 -0.7141 -0.8891
  365ACTN    H5 4106   2.314   6.554   2.920  0.3174  1.1842  0.4984
  365ACTN    C2 4107   2.430   6.672   3.062 -0.2781  0.5592 -0.6093
  365ACTN    O1 4108   2.361   6.774   3.072  0.2960  0.1109  0.2141
  365ACTN    C1 4109   2.510   6.603   3.175  0.5868  0.6942  0.2093
  365ACTN    H1 4110   2.610   6.643   3.191  0.9002  0.2784 -0.6303
  365ACTN    H2 4111   2.530   6.496   3.162 -1.1748  0.6226 -2.2620
  365ACTN    H3 4112   2.450   6.616   3.265  3.9230  1.2181  2.4403
  366ACTN    H6 4113   0.610   6.688   6.537  1.2716 -0.4780  0.5539
  366ACTN    C3 4114   0.668   6.763   6.484  0.3782 -0.3525 -0.2735
  366ACTN    H4 4115   0.755   6.713   6.442  0.9426  0.8434 -0.5630
  366ACTN    H5 4116   0.601   6.806   6.410  2.5269  2.8810 -0.4515
  366ACTN    C2 4117   0.696   6.880   6.577 -1.0741 -0.0807 -0.7776
  366ACTN    O1 4118   0.647   6.995   6.562  0.1113  0.3287 -0.6460
  366ACTN    C1 4119   0.798   6.851   6.686 -0.1710 -0.0776  0.1204
  366ACTN    H1 4120   0.896   6.874   6.644 -0.2582 -0.0618 -0.0745
  366ACTN    H2 4121   0.801   6.744   6.709 -0.8629  0.0229  0.7292
  366ACTN    H3 4122   0.793   6.912   6.776  2.6965 -0.0342  0.2768
  367ACTN    H6 4123   7.347   7.615   2.967 -2.4028  0.2826 -0.1752
  367ACTN    C3 4124   7.361   7.711   3.016 -0.3868  0.0626 -0.2820
  367ACTN    H4 4125   7.468   7.729   3.019 -0.2335 -0.4623 -1.9437
  367ACTN    H5 4126   7.320   7.786   2.948  0.4007  0.2440 -0.5638
  367ACTN    C2 4127   7.306   7.711   3.156 -0.0244 -0.0939  1.0134
  367ACTN    O1 4128   7.380   7.678   3.248 -0.0457 -0.5605 -0.3252
  367ACTN    C1 4129   7.159   7.722   3.183 -0.2264 -0.8399 -0.0819
  367ACTN    H1 4130   7.147   7.801   3.256  1.8778 -1.1499  0.6103
  367ACTN    H2 4131   7.129   7.626   3.228 -0.4537 -1.0683 -0.7099
  367ACTN    H3 4132   7.103   7.739   3.091  0.1793 -0.0030 -0.1749
  368ACTN    H6 4133   8.878   1.061   3.374 -1.4259 -0.3205  0.3719
  368ACTN    C3 4134   8.893   1.037   3.479  0.8753 -0.2993  0.0866
  368ACTN    H4 4135   8.894   1.127   3.541  2.0758 -0.1516 -0.1477
  368ACTN    H5 4136   8.802   0.980   3.498  1.2914 -0.8367  0.4970
  368ACTN    C2 4137   9.008   0.952   3.502  0.0951 -0.2695 -0.6075
  368ACTN    O1 4138   9.036   0.920   3.616 -0.1879 -0.1127 -0.3650
  368ACTN    C1 4139   9.090   0.897   3.391  0.5299  0.5911  0.6283
  368ACTN    H1 4140   9.187   0.866   3.429 -0.8498 -2.9161  1.4847
  368ACTN    H2 4141   9.107   0.967   3.309 -1.1427  0.5075  0.1883
  368ACTN    H3 4142   9.053   0.807   3.340  0.7378  0.4521  0.7206
  369ACTN    H6 4143   3.735   4.252   7.097 -2.0276 -1.6132 -0.4474
  369ACTN    C3 4144   3.783   4.191   7.173  0.3741  0.3089 -0.3738
  369ACTN    H4 4145   3.811   4.251   7.260 -1.0712  2.2106 -1.2064
  369ACTN    H5 4146   3.707   4.116   7.198 -1.3165  2.8912  2.6700
  369ACTN    C2 4147   3.904   4.130   7.108  0.5140  0.1272 -0.1238
  369ACTN    O1 4148   3.884   4.040   7.023 -0.1706  0.2010 -0.8861
  369ACTN    C1 4149   4.045   4.148   7.155 -0.0118 -0.4344 -0.7297
  369ACTN    H1 4150   4.121   4.127   7.080  0.0543  2.2944 -1.4697
  369ACTN    H2 4151   4.065   4.091   7.246  0.2686  1.8030  0.6671
  369ACTN    H3 4152   4.058   4.250   7.191 -0.3407 -1.4234  2.3623
  370ACTN    H6 4153   1.468   1.527   6.909  0.7021 -0.0167  1.0654
  370ACTN    C3 4154   1.550   1.526   6.838  0.2006 -0.2839  0.4865
  370ACTN    H4 4155   1.559   1.425   6.798  0.1843  0.3304 -1.1423
  370ACTN    H5 4156   1.525   1.576   6.744 -0.5554 -0.9448  0.3269
  370ACTN    C2 4157   1.675   1.574   6.897  0.3037  0.4194  0.2042
  370ACTN    O1 4158   1.771   1.590   6.828  0.0782 -0.1076 -0.0086
  370ACTN    C1 4159   1.687   1.611   7.037  0.0411  0.3184 -0.4146
  370ACTN    H1 4160   1.789   1.643   7.058  0.0313  0.6986 -0.9287
  370ACTN    H2 4161   1.657   1.528   7.101  0.2871  1.1233  0.7554
  370ACTN    H3 4162   1.631   1.701   7.064 -2.1533 -1.1142 -0.0623
  371ACTN    H6 4163   8.265   8.818   3.813 -0.0818 -0.4947 -0.0181
  371ACTN    C3 4164   8.162   8.819   3.849  0.0010 -0.2559  0.2221
  371ACTN    H4 4165   8.101   8.840   3.761  0.9646  0.0333 -0.3839
  371ACTN    H5 4166   8.142   8.717   3.882 -0.0357 -0.3806 -0.1887
  371ACTN    C2 4167   8.132   8.911   3.959  0.1604  0.1444 -0.3518
  371ACTN    O1 4168   8.120   8.872   4.070  0.1186 -0.5174  0.4416
  371ACTN    C1 4169   8.111   9.059   3.929 -0.1035  0.2024 -0.6611
  371ACTN    H1 4170   8.199   9.087   3.870  0.7415  1.8839  1.3404
  371ACTN    H2 4171   8.094   9.119   4.018  0.4208 -1.6417  0.6995
  371ACTN    H3 4172   8.019   9.069   3.871 -0.1842 -2.9998 -1.1718
  372ACTN    H6 4173   6.555   6.902   1.596 -0.5465  1.8097 -1.6715
  372ACTN    C3 4174   6.532   6.956   1.688  0.0764  0.7465 -0.8839
  372ACTN    H4 4175   6.622   6.982   1.743 -1.7215  0.7284  2.1516
  372ACTN    H5 4176   6.480   7.050   1.666  1.8578  2.1965  0.9611
  372ACTN    C2 4177   6.434   6.880   1.774 -0.1726 -0.2938  0.1154
  372ACTN    O1 4178   6.316   6.897   1.749 -0.4742 -0.1347 -0.5731
  372ACTN    C1 4179   6.478   6.803   1.890  0.3018  0.0974  0.0259
  372ACTN    H1 4180   6.396   6.771   1.954  1.3503 -1.3284  0.6847
  372ACTN    H2 4181   6.541   6.870   1.949  1.3717 -2.2083  1.5909
  372ACTN    H3 4182   6.533   6.714   1.858  2.4162  1.4592 -0.2789
  373ACTN    H6 4183   7.118   8.528   5.562  0.2770 -0.9343  0.4204
  373ACTN    C3 4184   7.162   8.602   5.629 -0.7271  0.0094  0.0522
  373ACTN    H4 4185   7.083   8.675   5.649 -0.3835  0.3173  0.2969
  373ACTN    H5 4186   7.194   8.548   5.718  0.0033 -0.6895 -0.6237
  373ACTN    C2 4187   7.291   8.648   5.560  0.1355 -0.2270 -0.5254
  373ACTN    O1 4188   7.397   8.649   5.624  0.5073 -0.0208  0.3648
  373ACTN    C1 4189   7.284   8.660   5.413 -0.3406  0.7996  0.2926
  373ACTN    H1 4190   7.233   8.578   5.363 -0.1103  0.5512  0.4664
  373ACTN    H2 4191   7.387   8.652   5.378 -0.5808  1.2428 -0.5500
  373ACTN    H3 4192   7.246   8.755   5.375 -0.4082 -0.6423 -3.4630
  374ACTN    H6 4193   1.230   1.480   7.069 -2.0122 -1.1822  1.3116
  374ACTN    C3 4194   1.221   1.583   7.101  0.4602 -0.3013 -0.6792
  374ACTN    H4 4195   1.319   1.625   7.124  1.0329 -2.0489  0.1277
  374ACTN    H5 4196   1.187   1.638   7.013  0.3517  1.4436  0.4309
  374ACTN    C2 4197   1.143   1.600   7.223  0.5188 -0.6562  0.2649
  374ACTN    O1 4198   1.021   1.587   7.215  0.0005  0.5911 -0.4415
  374ACTN    C1 4199   1.198   1.654   7.351  0.1465  0.4519 -1.0008
  374ACTN    H1 4200   1.303   1.676   7.331  0.1609 -0.0263 -1.4782
  374ACTN    H2 4201   1.183   1.585   7.434  0.2384  4.0226  2.1308
  374ACTN    H3 4202   1.144   1.744   7.379 -0.1671  0.1313 -0.5692
  375ACTN    H6 4203   4.327   4.818   0.354  0.2918  1.2766  0.8472
  375ACTN    C3 4204   4.428   4.855   0.372  0.8958  0.3229 -0.4895
  375ACTN    H4 4205   4.464   4.840   0.474  0.0466  0.8162 -0.1154
  375ACTN    H5 4206   4.489   4.797   0.304  0.8335  1.1108 -1.2224
  375ACTN    C2 4207   4.429   5.005   0.352 -0.9264  0.5110  0.3684
  375ACTN    O1 4208   4.398   5.075   0.447 -0.0315 -0.2101 -0.0146
  375ACTN    C1 4209   4.498   5.066   0.237 -0.1764 -0.1703 -0.1786
  375ACTN    H1 4210   4.605   5.083   0.244 -0.5771  2.9787 -0.7325
  375ACTN    H2 4211   4.457   5.167   0.222 -1.3157 -0.1891  2.5944
  375ACTN    H3 4212   4.464   5.010   0.150 -1.2788 -0.1006  0.1932
  376ACTN    H6 4213   6.341   4.303   6.322 -1.8834 -0.8999 -0.4630
  376ACTN    C3 4214   6.372   4.229   6.395 -0.1615  0.5973  0.3665
  376ACTN    H4 4215   6.319   4.247   6.488  0.7124  4.3684  0.2267
  376ACTN    H5 4216   6.345   4.129   6.361  0.4665  0.4873  0.1835
  376ACTN    C2 4217   6.526   4.222   6.403  0.3649 -0.0772 -0.4521
  376ACTN    O1 4218   6.600   4.310   6.363  0.6054 -0.0531  0.8673
  376ACTN    C1 4219   6.586   4.128   6.497  0.7630  0.3708  1.1929
  376ACTN    H1 4220   6.629   4.042   6.444 -1.6801 -1.2184  1.6926
  376ACTN    H2 4221   6.509   4.093   6.566 -1.7698  1.1197 -1.1547
  376ACTN    H3 4222   6.661   4.173   6.561 -0.0460  0.9749  1.7269
  377ACTN    H6 4223   2.091   5.567   1.220  0.5711 -1.7626  1.1808
  377ACTN    C3 4224   1.989   5.577   1.257  0.2816 -0.1225  0.0116
  377ACTN    H4 4225   1.928   5.660   1.221  0.3548 -0.3052 -0.5406
  377ACTN    H5 4226   1.941   5.480   1.244  1.4845 -0.8887  1.2311
  377ACTN    C2 4227   1.997   5.607   1.405 -0.5681  0.4248 -0.7501
  377ACTN    O1 4228   1.968   5.525   1.496  0.0625 -0.5860  0.0807
  377ACTN    C1 4229   2.059   5.732   1.446  0.0103  0.2889 -0.4316
  377ACTN    H1 4230   2.168   5.720   1.440 -0.0314  0.1140 -0.8680
  377ACTN    H2 4231   2.037   5.748   1.551  0.0253 -1.3328 -0.1684
  377ACTN    H3 4232   2.037   5.822   1.388 -1.2090 -0.0717 -0.5328
  378ACTN    H6 4233   7.673   2.939   5.255  1.0796  2.5738 -1.5985
  378ACTN    C3 4234   7.590   2.989   5.306  0.3672 -0.6689  0.6096
  378ACTN    H4 4235   7.560   2.921   5.386  1.2541  0.2841  1.7708
  378ACTN    H5 4236   7.638   3.078   5.346 -1.9206  0.5089  0.8085
  378ACTN    C2 4237   7.479   3.019   5.216 -0.4074 -0.3267  0.0879
  378ACTN    O1 4238   7.430   3.129   5.224 -0.2062  0.0736 -0.1713
  378ACTN    C1 4239   7.405   2.915   5.150  0.1560  0.1338 -0.7968
  378ACTN    H1 4240   7.302   2.910   5.185  0.5800  2.2391  0.7974
  378ACTN    H2 4241   7.458   2.820   5.147  0.2949 -0.0310  3.6389
  378ACTN    H3 4242   7.406   2.933   5.042  2.0314  0.8121 -0.6785
  379ACTN    H6 4243   0.905   2.546   8.395  0.4249  1.6891 -0.6046
  379ACTN    C3 4244   0.802   2.552   8.361  0.3262  0.0349 -0.6570
  379ACTN    H4 4245   0.799   2.646   8.305  0.8663  1.2596  1.3146
  379ACTN    H5 4246   0.775   2.465   8.302  0.0199 -0.4825  0.2418
  379ACTN    C2 4247   0.711   2.569   8.479  0.2955  0.1192  0.3427
  379ACTN    O1 4248   0.589   2.551   8.478 -0.6304  0.8646  1.4704
  379ACTN    C1 4249   0.773   2.623   8.605 -0.6148 -0.0937 -0.0111
  379ACTN    H1 4250   0.708   2.695   8.656 -1.1867 -1.3209  1.0109
  379ACTN    H2 4251   0.869   2.667   8.578  0.1535 -3.3850 -2.8601
  379ACTN    H3 4252   0.798   2.537   8.667  2.1064 -0.6202 -1.7532
  380ACTN    H6 4253   3.345   8.760   4.562  0.6260 -1.1750  2.3398
  380ACTN    C3 4254   3.290   8.833   4.622 -0.4142 -0.7745  0.9096
  380ACTN    H4 4255   3.283   8.792   4.722  1.8626 -1.3051  0.8687
  380ACTN    H5 4256   3.336   8.932   4.625 -0.8408 -0.4854 -1.0299
  380ACTN    C2 4257   3.152   8.845   4.551 -0.9794 -0.0241 -0.6015
  380ACTN    O1 4258   3.096   8.953   4.555 -0.2687  0.8894  0.1907
  380ACTN    C1 4259   3.091   8.718   4.502  0.0192  0.1459  0.0030
  380ACTN    H1 4260   3.096   8.711   4.393  0.7926  1.0806 -0.0332
  380ACTN    H2 4261   2.986   8.714   4.533  0.0633  0.5314  0.2043
  380ACTN    H3 4262   3.142   8.630   4.541  1.1364  1.7674  2.3011
  381ACTN    H6 4263   8.535   1.387   1.828  0.5756  1.0122  0.7177
  381ACTN    C3 4264   8.529   1.314   1.909  0.3377  0.5061  0.2467
  381ACTN    H4 4265   8.558   1.220   1.863 -1.6165  0.2899 -0.6138
  381ACTN    H5 4266   8.601   1.357   1.979  0.0977  0.6583  0.3973
  381ACTN    C2 4267   8.399   1.306   1.970  0.4305 -0.5151 -0.1330
  381ACTN    O1 4268   8.351   1.384   2.049  0.0446  0.8594  0.0946
  381ACTN    C1 4269   8.325   1.180   1.937 -0.1311 -0.2458 -0.2484
  381ACTN    H1 4270   8.391   1.095   1.953  0.5251  0.2209 -0.4536
  381ACTN    H2 4271   8.289   1.179   1.834 -1.2973  3.4941  0.0347
  381ACTN    H3 4272   8.231   1.176   1.993  0.1917  1.3033  0.4251
  382ACTN    H6 4273   6.242   7.124   4.997 -0.4446 -0.1515  0.2789
  382ACTN    C3 4274   6.171   7.204   5.015  0.1839  0.4064  0.2944
  382ACTN    H4 4275   6.151   7.248   4.917  0.9171  1.8735  0.7802
  382ACTN    H5 4276   6.076   7.162   5.047  0.3443  0.6170  1.0478
  382ACTN    C2 4277   6.229   7.318   5.092  0.2863 -0.1316 -0.3195
  382ACTN    O1 4278   6.325   7.298   5.166  0.1241  0.5263  0.0457
  382ACTN    C1 4279   6.157   7.437   5.110  0.1963 -0.1134  0.2695
  382ACTN    H1 4280   6.163   7.491   5.015 -1.2866  1.7264  1.1891
  382ACTN    H2 4281   6.186   7.506   5.189 -1.8166  2.2976 -1.0446
  382ACTN    H3 4282   6.052   7.410   5.120  0.1489  0.1646  0.5428
  383ACTN    H6 4283   0.813   0.877   5.679  1.4624 -0.9676 -0.1701
  383ACTN    C3 4284   0.758   0.802   5.735  0.2700 -0.2252 -0.3336
  383ACTN    H4 4285   0.719   0.735   5.659  1.3253  1.0824 -2.0645
  383ACTN    H5 4286   0.828   0.752   5.802 -0.1528  0.4397  0.6144
  383ACTN    C2 4287   0.641   0.852   5.804  0.5893 -0.3123  0.1270
  383ACTN    O1 4288   0.657   0.940   5.891 -0.0235 -0.0437 -0.1144
  383ACTN    C1 4289   0.510   0.783   5.790  0.8408 -0.0330  0.5216
  383ACTN    H1 4290   0.443   0.832   5.861  1.2781  1.5550 -0.1305
  383ACTN    H2 4291   0.504   0.676   5.811 -1.1603 -0.0795 -0.1589
  383ACTN    H3 4292   0.470   0.807   5.691 -0.6090 -0.6128  0.9469
  384ACTN    H6 4293   0.203   8.055   3.069 -0.4376 -1.5722  2.0186
  384ACTN    C3 4294   0.192   8.150   3.121 -0.3723 -0.5500  0.2048
  384ACTN    H4 4295   0.094   8.134   3.166  0.2641 -0.2766  1.7474
  384ACTN    H5 4296   0.268   8.140   3.199 -0.7852 -2.1424  0.4328
  384ACTN    C2 4297   0.200   8.273   3.035  0.3947 -1.0299 -0.3101
  384ACTN    O1 4298   0.171   8.383   3.083  0.2308  0.6314 -0.2296
  384ACTN    C1 4299   0.241   8.251   2.897  0.3882  0.3011 -0.0414
  384ACTN    H1 4300   0.348   8.271   2.898  0.5243 -0.3864 -0.5575
  384ACTN    H2 4301   0.190   8.325   2.834 -2.3408 -1.9683 -0.6083
  384ACTN    H3 4302   0.221   8.151   2.859 -1.9101 -0.3072  2.5435
  385ACTN    H6 4303   3.635   6.551   2.849 -0.9993 -3.6331 -0.2250
  385ACTN    C3 4304   3.569   6.603   2.780 -0.3854 -0.5576  1.4303
  385ACTN    H4 4305   3.587   6.584   2.674 -0.1934 -1.4179  1.6156
  385ACTN    H5 4306   3.469   6.566   2.804 -1.5526  1.9723  0.6168
  385ACTN    C2 4307   3.583   6.747   2.812  0.2053 -0.0755 -0.4416
  385ACTN    O1 4308   3.693   6.800   2.801 -0.8098  0.1489  0.2738
  385ACTN    C1 4309   3.465   6.823   2.882  0.1004  0.0242  0.3395
  385ACTN    H1 4310   3.483   6.853   2.985 -2.0337  1.2554  0.3783
  385ACTN    H2 4311   3.375   6.764   2.896 -0.4093  0.7437  0.1190
  385ACTN    H3 4312   3.435   6.909   2.823  1.2344  0.3067  0.1665
  386ACTN    H6 4313   7.471   1.757   8.420 -0.3142  1.1611 -2.0723
  386ACTN    C3 4314   7.481   1.825   8.504 -0.4161 -0.6061 -0.6048
  386ACTN    H4 4315   7.407   1.901   8.482 -0.7484 -0.8883 -0.4699
  386ACTN    H5 4316   7.458   1.769   8.595  3.0961  0.7332  1.1935
  386ACTN    C2 4317   7.617   1.878   8.497  0.0864  0.1785  0.6288
  386ACTN    O1 4318   7.645   1.948   8.402  0.0333  0.1702 -0.7914
  386ACTN    C1 4319   7.717   1.822   8.589 -0.1350  0.1446 -0.0870
  386ACTN    H1 4320   7.671   1.780   8.679 -0.4652 -0.3747 -0.5036
  386ACTN    H2 4321   7.771   1.906   8.632 -0.1584 -0.7531  1.7681
  386ACTN    H3 4322   7.791   1.756   8.545  0.0754  0.9041 -0.8806
  387ACTN    H6 4323   4.972   2.135   5.138 -0.1068  0.3466  0.3579
  387ACTN    C3 4324   4.972   2.080   5.044 -0.3927 -0.2700  0.7150
  387ACTN    H4 4325   4.869   2.056   5.017 -0.3914 -0.4721  0.8846
  387ACTN    H5 4326   5.020   2.138   4.965 -1.6697  0.3118  0.3598
  387ACTN    C2 4327   5.054   1.952   5.059  0.7502 -0.8796  0.3114
  387ACTN    O1 4328   5.013   1.843   5.033 -0.7935  0.1984  0.3564
  387ACTN    C1 4329   5.199   1.983   5.081 -0.2829 -0.0849  0.3627
  387ACTN    H1 4330   5.238   2.004   4.982 -1.3000  1.7163  0.3253
  387ACTN    H2 4331   5.249   1.893   5.117 -0.5073 -1.2649 -2.1679
  387ACTN    H3 4332   5.209   2.067   5.150  0.7478  1.5008 -1.6676
  388ACTN    H6 4333   0.949   0.314   7.500 -1.4186  0.1647  0.3736
  388ACTN    C3 4334   0.975   0.209   7.509  0.0649  0.4776 -0.1392
  388ACTN    H4 4335   0.883   0.155   7.531  0.1311 -0.0660 -1.1512
  388ACTN    H5 4336   1.044   0.206   7.594 -2.4686 -3.3925  1.9486
  388ACTN    C2 4337   1.035   0.155   7.390 -0.2732  0.2144  0.0109
  388ACTN    O1 4338   1.140   0.202   7.346  0.0908  0.5535 -0.2743
  388ACTN    C1 4339   0.962   0.058   7.307  0.2307  0.1625  0.0310
  388ACTN    H1 4340   0.860   0.094   7.305 -0.0171 -0.2993  2.5850
  388ACTN    H2 4341   0.968  -0.046   7.340  1.5439 -0.3633 -1.7494
  388ACTN    H3 4342   0.998   0.065   7.204 -1.5205 -0.3051 -0.6288
  389ACTN    H6 4343   7.276   0.402   5.456 -0.0322  1.4803 -0.3532
  389ACTN    C3 4344   7.198   0.414   5.531 -0.1574 -0.0391 -0.2166
  389ACTN    H4 4345   7.198   0.327   5.596 -0.9388 -0.2408 -0.4738
  389ACTN    H5 4346   7.221   0.503   5.590 -3.1793  1.0714 -0.6130
  389ACTN    C2 4347   7.067   0.436   5.458 -0.7657 -0.9981  0.1026
  389ACTN    O1 4348   7.043   0.376   5.354 -0.0277 -0.0377  0.3858
  389ACTN    C1 4349   6.963   0.522   5.526  0.4118  0.3576 -0.4056
  389ACTN    H1 4350   7.009   0.584   5.602 -0.3531 -0.1914  0.5117
  389ACTN    H2 4351   6.891   0.453   5.570 -0.7639  1.6406 -0.2733
  389ACTN    H3 4352   6.914   0.589   5.454 -2.7662 -1.0109  0.3698
  390ACTN    H6 4353   5.012   2.302   3.528 -0.6536  0.5725  1.8610
  390ACTN    C3 4354   5.094   2.328   3.595  1.1976 -0.7331  0.1541
  390ACTN    H4 4355   5.048   2.318   3.693 -2.0140  0.3459 -1.1817
  390ACTN    H5 4356   5.171   2.252   3.583 -0.1028 -2.2243  1.0383
  390ACTN    C2 4357   5.147   2.460   3.547 -0.4001 -0.6294  0.1105
  390ACTN    O1 4358   5.240   2.518   3.607 -0.8319  0.0591  0.1509
  390ACTN    C1 4359   5.101   2.519   3.425 -0.2482 -1.4552  0.4004
  390ACTN    H1 4360   5.184   2.521   3.355 -1.0099  1.2180 -0.4912
  390ACTN    H2 4361   5.070   2.621   3.445 -0.7478 -1.4571 -0.3821
  390ACTN    H3 4362   5.014   2.465   3.388 -1.8594  1.4255 -0.1151
  391ACTN    H6 4363   8.124   4.886   5.324  0.1140  0.3992 -0.3272
  391ACTN    C3 4364   8.106   4.987   5.360 -0.0943  0.2026  0.1236
  391ACTN    H4 4365   8.190   5.023   5.419  2.0654 -0.6828 -2.2992
  391ACTN    H5 4366   8.111   5.049   5.270 -0.7043  0.5534  0.3301
  391ACTN    C2 4367   7.975   5.002   5.423 -0.3774 -0.2650 -0.1230
  391ACTN    O1 4368   7.973   5.033   5.540  0.2992 -0.0030 -0.2761
  391ACTN    C1 4369   7.857   4.957   5.342  0.1240  0.7849 -0.0732
  391ACTN    H1 4370   7.869   5.002   5.244  1.2086 -1.1029 -0.8377
  391ACTN    H2 4371   7.761   4.983   5.388  0.8841  1.2072  1.3228
  391ACTN    H3 4372   7.859   4.848   5.334  0.0550  0.8036 -0.3159
  392ACTN    H6 4373   7.069   0.264   3.891 -0.9778  1.4772 -1.6190
  392ACTN    C3 4374   7.163   0.315   3.909 -0.7011  0.3214  0.3263
  392ACTN    H4 4375   7.202   0.348   3.813 -0.4670  0.4740  0.4719
  392ACTN    H5 4376   7.122   0.405   3.954 -0.5950 -0.4477  2.0151
  392ACTN    C2 4377   7.255   0.241   4.004  0.1753 -0.8648  0.2873
  392ACTN    O1 4378   7.351   0.168   3.968  0.2938 -0.4367 -0.2043
  392ACTN    C1 4379   7.206   0.226   4.144 -0.2344 -0.1369  0.5452
  392ACTN    H1 4380   7.248   0.141   4.199 -2.1918 -1.1029  0.6281
  392ACTN    H2 4381   7.099   0.203   4.150 -0.1616 -0.4687  0.5620
  392ACTN    H3 4382   7.219   0.321   4.195 -0.4736  1.0932 -1.6662
  393ACTN    H6 4383   7.529   7.414   7.957  0.1624 -1.5563  0.0107
  393ACTN    C3 4384   7.541   7.409   8.066 -0.2800  0.8093  0.2009
  393ACTN    H4 4385   7.608   7.486   8.105  1.3587 -0.6122  0.2829
  393ACTN    H5 4386   7.441   7.421   8.106 -1.1464  1.9338 -2.1888
  393ACTN    C2 4387   7.603   7.275   8.102  0.8003 -0.8138  0.0373
  393ACTN    O1 4388   7.699   7.271   8.177  0.0784  0.5272 -0.1889
  393ACTN    C1 4389   7.547   7.144   8.034 -0.7325  0.4101 -0.6299
  393ACTN    H1 4390   7.452   7.115   8.079 -0.9901  3.7918  1.1994
  393ACTN    H2 4391   7.625   7.068   8.037 -0.1732  0.9590 -1.2989
  393ACTN    H3 4392   7.521   7.166   7.931  1.5117 -0.6625 -1.4484
  394ACTN    H6 4393   0.741   7.920   6.223 -0.7685  0.4202 -0.6402
  394ACTN    C3 4394   0.653   7.915   6.287 -0.4243  0.0157 -0.1898
  394ACTN    H4 4395   0.696   7.944   6.383 -0.2625  2.9791 -1.1024
  394ACTN    H5 4396   0.576   7.988   6.263  1.4175  0.8574 -4.0073
  394ACTN    C2 4397   0.594   7.779   6.288  0.7062 -0.8298 -0.5995
  394ACTN    O1 4398   0.499   7.750   6.225  0.2301 -0.3732 -0.3989
  394ACTN    C1 4399   0.665   7.673   6.364 -0.1293 -0.0092  0.4869
  394ACTN    H1 4400   0.767   7.705   6.383 -0.3299  1.2574 -0.5265
  394ACTN    H2 4401   0.655   7.586   6.299 -3.8960  0.8933 -0.2560
  394ACTN    H3 4402   0.604   7.669   6.454  0.3422 -0.3058  0.7923
  395ACTN    H6 4403   5.506   1.810   7.590  0.4059 -0.1269 -3.8552
  395ACTN    C3 4404   5.421   1.752   7.552 -0.7872 -0.7782 -0.3937
  395ACTN    H4 4405   5.447   1.722   7.450  4.4574  1.4971  0.1077
  395ACTN    H5 4406   5.406   1.665   7.615 -1.6090 -1.7585 -1.9243
  395ACTN    C2 4407   5.287   1.814   7.554  0.4528 -0.6382  0.2535
  395ACTN    O1 4408   5.221   1.816   7.657  0.1012 -0.6041 -0.2486
  395ACTN    C1 4409   5.216   1.848   7.427  0.4294  0.8247  0.2938
  395ACTN    H1 4410   5.163   1.942   7.438 -0.0830  0.5883 -0.1734
  395ACTN    H2 4411   5.141   1.774   7.399 -0.5526  2.2658 -0.9342
  395ACTN    H3 4412   5.281   1.853   7.340  0.3726  0.5295  0.2319
  396ACTN    H6 4413   8.912   5.701   1.920 -1.2601 -3.6834 -1.0283
  396ACTN    C3 4414   8.879   5.744   1.825 -0.7702  0.0068  0.4037
  396ACTN    H4 4415   8.920   5.845   1.816  0.3839 -0.5960 -1.5261
  396ACTN    H5 4416   8.924   5.682   1.747 -0.1171 -0.4162  1.1031
  396ACTN    C2 4417   8.729   5.746   1.816  0.3108 -0.3228  1.0164
  396ACTN    O1 4418   8.666   5.784   1.715  0.3215 -0.3987  0.4419
  396ACTN    C1 4419   8.652   5.693   1.935  0.7313 -0.3605  0.4910
  396ACTN    H1 4420   8.675   5.754   2.023  2.5682  0.5365 -0.5784
  396ACTN    H2 4421   8.664   5.587   1.958  0.5737 -0.1647  1.5109
  396ACTN    H3 4422   8.545   5.709   1.922  0.5780 -2.3543 -0.8747
  397ACTN    H6 4423   1.127   8.347   1.322  1.0302  0.6951 -0.4354
  397ACTN    C3 4424   1.182   8.368   1.414  0.0486 -0.0250  0.3217
  397ACTN    H4 4425   1.105   8.401   1.484 -0.0349  0.9791 -0.2314
  397ACTN    H5 4426   1.218   8.273   1.451  2.0902  0.1256 -1.1646
  397ACTN    C2 4427   1.285   8.474   1.391 -0.1550 -1.1525 -0.0904
  397ACTN    O1 4428   1.383   8.447   1.324  0.1144  0.3856  0.4488
  397ACTN    C1 4429   1.281   8.611   1.461 -0.5803  0.0791  0.3337
  397ACTN    H1 4430   1.179   8.646   1.446 -0.1039  1.1071 -0.5469
  397ACTN    H2 4431   1.342   8.689   1.415 -2.0470 -0.4298 -2.5919
  397ACTN    H3 4432   1.295   8.607   1.569 -1.8911  1.2094  0.5582
  398ACTN    H6 4433   0.316   0.521   0.513  0.1255  0.7500  1.5874
  398ACTN    C3 4434   0.409   0.548   0.462 -0.6213  0.3544 -0.0314
  398ACTN    H4 4435   0.469   0.611   0.527  1.1382  0.3783 -1.6518
  398ACTN    H5 4436   0.452   0.449   0.450 -0.5573  0.2992  0.6379
  398ACTN    C2 4437   0.373   0.594   0.325  0.6236  0.4739 -0.0810
  398ACTN    O1 4438   0.323   0.712   0.315 -0.6277  0.0431  0.7187
  398ACTN    C1 4439   0.360   0.493   0.219 -0.7530  0.2174  0.2634
  398ACTN    H1 4440   0.364   0.393   0.261  5.4666  0.1154 -0.0805
  398ACTN    H2 4441   0.443   0.507   0.150 -2.2774 -0.2873 -1.7052
  398ACTN    H3 4442   0.269   0.509   0.162 -0.1193 -0.4786 -0.9466
  399ACTN    H6 4443   2.322   7.917   3.913 -0.1121 -1.4437  1.5734
  399ACTN    C3 4444   2.297   7.997   3.982 -0.1158 -0.0691  0.0167
  399ACTN    H4 4445   2.360   8.084   3.963  0.7874 -0.3217  1.7309
  399ACTN    H5 4446   2.199   8.039   3.958 -0.4918  0.7331  2.7498
  399ACTN    C2 4447   2.297   7.951   4.127  0.8738  0.6935 -0.0607
  399ACTN    O1 4448   2.240   8.014   4.211 -0.3414  0.5918  0.2237
  399ACTN    C1 4449   2.324   7.806   4.149 -0.1600  0.4559  0.3577
  399ACTN    H1 4450   2.366   7.781   4.247  1.2862  2.2986  0.2421
  399ACTN    H2 4451   2.402   7.768   4.083  1.9659  1.3387  2.2705
  399ACTN    H3 4452   2.230   7.752   4.139  0.8963 -1.2805 -0.5437
  400ACTN    H6 4453   2.417   0.896   3.088  0.9410 -1.6370  2.7031
  400ACTN    C3 4454   2.520   0.910   3.055 -0.4252  0.4780 -0.9618
  400ACTN    H4 4455   2.581   0.899   3.145 -0.2634 -1.3550 -1.2757
  400ACTN    H5 4456   2.547   0.832   2.984 -1.2365  0.5618 -1.3671
  400ACTN    C2 4457   2.543   1.042   2.993 -0.4059 -0.3274 -0.1391
  400ACTN    O1 4458   2.620   1.062   2.897 -0.8306 -0.5295 -0.5553
  400ACTN    C1 4459   2.432   1.140   3.000 -0.0426 -0.1050 -0.1782
  400ACTN    H1 4460   2.362   1.110   2.922  1.0347 -2.5550 -0.2391
  400ACTN    H2 4461   2.462   1.244   2.988  0.6429 -0.3789 -0.9032
  400ACTN    H3 4462   2.375   1.124   3.091 -2.3843 -0.4436 -1.6620
  401ACTN    H6 4463   5.882   8.180   4.302 -1.3351 -0.4424 -0.5921
  401ACTN    C3 4464   5.896   8.227   4.204 -0.1551 -0.1005 -0.2686
  401ACTN    H4 4465   5.993   8.277   4.205 -0.6922  0.9380  0.3352
  401ACTN    H5 4466   5.897   8.152   4.125  1.4812 -0.5398  0.1602
  401ACTN    C2 4467   5.777   8.324   4.185  0.0107  0.2537 -0.3368
  401ACTN    O1 4468   5.677   8.310   4.255 -0.3011 -0.0934 -0.5454
  401ACTN    C1 4469   5.778   8.389   4.048 -0.9828 -0.6088 -0.7419
  401ACTN    H1 4470   5.878   8.381   4.005  0.5538 -0.8970  2.7207
  401ACTN    H2 4471   5.753   8.493   4.069  3.3949  0.0965  1.7242
  401ACTN    H3 4472   5.706   8.359   3.973 -1.4695 -2.2053  0.3535
  402ACTN    H6 4473   8.285   3.936   2.087 -0.0326 -1.6360 -1.2508
  402ACTN    C3 4474   8.224   3.929   2.177  0.7022 -0.8556 -0.6805
  402ACTN    H4 4475   8.182   3.831   2.201 -0.3606 -0.8004 -2.2339
  402ACTN    H5 4476   8.287   3.958   2.260  1.0248  0.7280 -1.4609
  402ACTN    C2 4477   8.115   4.023   2.154  1.4433 -0.9212 -0.5728
  402ACTN    O1 4478   8.030   3.987   2.075  0.2093 -0.7124  0.5168
  402ACTN    C1 4479   8.095   4.146   2.237  0.2362 -0.5869  0.4266
  402ACTN    H1 4480   8.170   4.214   2.198 -1.4044  1.5172  0.8535
  402ACTN    H2 4481   8.121   4.136   2.342 -1.4997  2.6635  1.2356
  402ACTN    H3 4482   7.998   4.192   2.218  0.3280 -1.2179 -1.6667
  403ACTN    H6 4483   5.518   6.850   2.501 -1.3329 -0.1436 -0.6861
  403ACTN    C3 4484   5.506   6.957   2.515  0.3529 -0.0887  0.4416
  403ACTN    H4 4485   5.598   7.003   2.478  0.3144 -0.4318 -0.0744
  403ACTN    H5 4486   5.425   6.993   2.453 -1.0935 -0.8870  1.8328
  403ACTN    C2 4487   5.482   6.996   2.652 -0.8738  1.3937 -0.6987
  403ACTN    O1 4488   5.382   6.954   2.709  0.3110  0.6195 -0.2193
  403ACTN    C1 4489   5.570   7.098   2.723  0.6576  0.1290  0.2759
  403ACTN    H1 4490   5.556   7.100   2.831 -0.3422  0.6297  0.1429
  403ACTN    H2 4491   5.543   7.202   2.704  0.4007 -0.0615 -0.4461
  403ACTN    H3 4492   5.677   7.088   2.709  0.5633 -0.5166  0.0035
  404ACTN    H6 4493   2.521   2.084   1.451  0.2926 -0.4848  1.0057
  404ACTN    C3 4494   2.426   2.040   1.421  0.3746  0.1601 -0.2685
  404ACTN    H4 4495   2.367   2.130   1.406 -0.5117 -0.2540  0.6472
  404ACTN    H5 4496   2.439   1.979   1.332  1.5237 -1.4575  0.9598
  404ACTN    C2 4497   2.385   1.971   1.549 -0.1878 -0.6467 -0.1021
  404ACTN    O1 4498   2.277   1.993   1.603 -0.3207  0.0217  0.9112
  404ACTN    C1 4499   2.478   1.862   1.595  0.3870 -0.4083  0.7049
  404ACTN    H1 4500   2.557   1.848   1.521  0.1627  0.8986  0.1959
  404ACTN    H2 4501   2.417   1.771   1.594  0.8855 -0.7518  1.1920
  404ACTN    H3 4502   2.514   1.872   1.697  0.4573 -0.9959  0.7428
  405ACTN    H6 4503   0.960   7.503   1.725 -1.3643 -0.1125 -2.1139
  405ACTN    C3 4504   0.876   7.443   1.759  0.1000 -0.5938  0.8888
  405ACTN    H4 4505   0.893   7.338   1.736  1.1448 -0.7593  2.3843
  405ACTN    H5 4506   0.855   7.452   1.865 -0.7936 -0.0316  0.6724
  405ACTN    C2 4507   0.754   7.489   1.681  0.8278  0.6026 -0.2473
  405ACTN    O1 4508   0.649   7.422   1.673 -0.1107 -0.6780  0.1573
  405ACTN    C1 4509   0.768   7.603   1.594  0.4302  0.0544 -0.0135
  405ACTN    H1 4510   0.675   7.624   1.543  0.3523  2.0515  0.9016
  405ACTN    H2 4511   0.838   7.576   1.515 -2.6036 -0.4093 -2.6143
  405ACTN    H3 4512   0.810   7.695   1.636 -0.0836  0.6238 -0.7475
  406ACTN    H6 4513   4.202   2.463   8.851  2.0575 -0.0616  0.9638
  406ACTN    C3 4514   4.242   2.408   8.766  0.2153  0.0059  0.0318
  406ACTN    H4 4515   4.171   2.336   8.725 -1.9772  1.9109  0.4289
  406ACTN    H5 4516   4.258   2.477   8.683 -0.4392 -0.3905 -0.4309
  406ACTN    C2 4517   4.376   2.358   8.807  0.8570 -0.2480 -0.0739
  406ACTN    O1 4518   4.385   2.319   8.921 -0.6551  0.5863 -0.6787
  406ACTN    C1 4519   4.484   2.327   8.707 -0.4340  0.5350  0.5264
  406ACTN    H1 4520   4.448   2.324   8.604 -1.9010  0.0818  1.0334
  406ACTN    H2 4521   4.513   2.223   8.722  1.1716  0.7065 -1.2186
  406ACTN    H3 4522   4.570   2.394   8.716  0.6711 -1.1438  3.0571
  407ACTN    H6 4523   1.464   8.234   4.047  0.3577  0.2111  0.7610
  407ACTN    C3 4524   1.376   8.178   4.015  0.6292  0.1494  0.1115
  407ACTN    H4 4525   1.391   8.071   4.020 -1.3057 -0.2575 -2.1169
  407ACTN    H5 4526   1.301   8.201   4.091  1.4908  1.5811  0.5467
  407ACTN    C2 4527   1.332   8.229   3.881  0.3092  0.4551 -0.1241
  407ACTN    O1 4528   1.349   8.347   3.852  0.7048  0.5073 -0.3556
  407ACTN    C1 4529   1.221   8.147   3.808  0.0113  0.1403 -0.1620
  407ACTN    H1 4530   1.245   8.041   3.807 -0.3066  0.0648  0.2638
  407ACTN    H2 4531   1.205   8.180   3.705 -0.0853  4.5646  1.1674
  407ACTN    H3 4532   1.125   8.152   3.859  0.9147  1.1014  1.4963
  408ACTN    H6 4533   7.358   6.270   3.284 -0.8345  1.1115 -1.0541
  408ACTN    C3 4534   7.400   6.368   3.305  0.1182  0.4646  0.1167
  408ACTN    H4 4535   7.481   6.388   3.235 -0.8558  0.1045 -1.1144
  408ACTN    H5 4536   7.320   6.437   3.280 -0.2330  0.1677  0.4234
  408ACTN    C2 4537   7.446   6.383   3.449  0.5900 -0.1452  0.2471
  408ACTN    O1 4538   7.523   6.304   3.487 -0.2442  0.5407  0.0282
  408ACTN    C1 4539   7.404   6.498   3.534  0.2178 -0.0696  0.1744
  408ACTN    H1 4540   7.372   6.465   3.633 -0.1370  2.4548  0.9315
  408ACTN    H2 4541   7.321   6.550   3.488  0.1058 -0.0306  0.4206
  408ACTN    H3 4542   7.484   6.573   3.539 -0.7888  0.9920  0.5005
  409ACTN    H6 4543   0.701   1.466   5.984  0.3571  1.3855 -0.9985
  409ACTN    C3 4544   0.596   1.494   5.993  0.1334  0.3023 -0.2050
  409ACTN    H4 4545   0.536   1.403   5.987 -0.1531  0.1153  3.8912
  409ACTN    H5 4546   0.580   1.537   6.092  0.9975  0.3798 -0.1000
  409ACTN    C2 4547   0.570   1.588   5.882 -0.1315  0.4627 -1.0169
  409ACTN    O1 4548   0.545   1.706   5.906  0.2507  0.3569  0.3898
  409ACTN    C1 4549   0.621   1.556   5.750  0.0052  0.4484  0.3516
  409ACTN    H1 4550   0.634   1.450   5.726  2.2130 -0.1177  3.6829
  409ACTN    H2 4551   0.714   1.604   5.720 -0.1671  0.3884 -0.2814
  409ACTN    H3 4552   0.545   1.596   5.683  0.0996 -0.5276 -0.3500
  410ACTN    H6 4553   7.662   7.105   3.024 -0.2053  0.0696 -0.6058
  410ACTN    C3 4554   7.612   7.201   3.018 -0.5332 -0.1010 -0.6213
  410ACTN    H4 4555   7.537   7.204   3.098 -0.7919  1.7445 -0.9174
  410ACTN    H5 4556   7.679   7.283   3.043 -0.3405  0.1671 -2.0127
  410ACTN    C2 4557   7.549   7.229   2.885 -0.3939 -0.0567  1.0592
  410ACTN    O1 4558   7.540   7.151   2.793 -0.1359 -0.0298 -0.2870
  410ACTN    C1 4559   7.495   7.362   2.860 -0.5168  0.1589  0.2789
  410ACTN    H1 4560   7.570   7.439   2.871  1.2415 -1.5290  0.3457
  410ACTN    H2 4561   7.426   7.389   2.940  2.5264 -2.0881  3.8122
  410ACTN    H3 4562   7.450   7.373   2.762 -0.9840 -1.6137  0.2771
  411ACTN    H6 4563   6.602   0.495   5.210  1.1308  1.1521 -2.9064
  411ACTN    C3 4564   6.674   0.413   5.222 -0.5150  0.0039 -0.4050
  411ACTN    H4 4565   6.666   0.346   5.136 -1.6830 -3.5570  2.3622
  411ACTN    H5 4566   6.774   0.456   5.225 -0.4766  0.0101 -1.4644
  411ACTN    C2 4567   6.646   0.336   5.339  0.9100  0.1638 -0.1310
  411ACTN    O1 4568   6.571   0.372   5.429 -0.1474 -0.4372  0.9569
  411ACTN    C1 4569   6.720   0.202   5.344  0.1529 -0.7867  0.3722
  411ACTN    H1 4570   6.729   0.162   5.243  0.1936  0.4360 -0.1131
  411ACTN    H2 4571   6.666   0.128   5.403 -1.3898 -0.1430 -0.2117
  411ACTN    H3 4572   6.825   0.209   5.373  0.9730 -0.3820 -2.4623
  412ACTN    H6 4573   1.832   3.600   8.002  0.7168 -0.9441  0.0947
  412ACTN    C3 4574   1.811   3.560   7.903 -0.0675  0.8194 -0.4778
  412ACTN    H4 4575   1.910   3.546   7.857  1.0568  2.5133  1.3537
  412ACTN    H5 4576   1.782   3.455   7.910 -0.9108  0.9532 -1.8090
  412ACTN    C2 4577   1.700   3.628   7.825 -0.2961 -0.1342 -0.2067
  412ACTN    O1 4578   1.689   3.594   7.703 -0.1358  0.3612 -0.0858
  412ACTN    C1 4579   1.598   3.722   7.892 -0.1387  0.1892 -0.3499
  412ACTN    H1 4580   1.644   3.797   7.956 -0.3708  1.2101 -1.3434
  412ACTN    H2 4581   1.529   3.659   7.947  0.8522 -1.5172 -1.0341
  412ACTN    H3 4582   1.538   3.777   7.818 -0.3479  0.5693  0.1009
  413ACTN    H6 4583   0.331   7.410   4.369  0.8115 -0.3407 -0.1378
  413ACTN    C3 4584   0.309   7.313   4.413 -1.1854 -0.0396 -0.4211
  413ACTN    H4 4585   0.381   7.283   4.489  0.6261  0.1790 -2.0225
  413ACTN    H5 4586   0.211   7.323   4.460 -0.5949 -0.7596  0.9940
  413ACTN    C2 4587   0.305   7.195   4.313 -0.7092 -0.7488  0.1488
  413ACTN    O1 4588   0.285   7.084   4.354  0.4421  0.5661  0.6242
  413ACTN    C1 4589   0.347   7.222   4.172 -1.0881  0.2034 -0.6059
  413ACTN    H1 4590   0.441   7.276   4.180 -0.8051  0.0376 -2.5997
  413ACTN    H2 4591   0.263   7.255   4.112 -1.7571  1.1363  0.8215
  413ACTN    H3 4592   0.371   7.123   4.133 -1.3786 -0.6138  1.2138
  414ACTN    H6 4593   3.839   7.520   0.687 -1.5791 -2.3935 -1.0022
  414ACTN    C3 4594   3.931   7.507   0.631 -0.4161 -0.0084  0.2888
  414ACTN    H4 4595   3.994   7.595   0.624  0.7427 -0.7726  0.9622
  414ACTN    H5 4596   3.991   7.437   0.690 -0.3041  0.4752  0.7501
  414ACTN    C2 4597   3.889   7.460   0.497 -0.2210  0.0324 -0.3837
  414ACTN    O1 4598   3.892   7.341   0.477 -0.1408  0.7019 -0.4040
  414ACTN    C1 4599   3.843   7.561   0.386  0.1792  0.0623  0.4950
  414ACTN    H1 4600   3.936   7.613   0.361  1.2516 -1.0470  2.0962
  414ACTN    H2 4601   3.774   7.632   0.432  0.6352  0.2603  0.8776
  414ACTN    H3 4602   3.797   7.516   0.298  1.8391  0.3239 -0.5449
  415ACTN    H6 4603   7.549   7.452   8.548 -1.8611 -1.3084  1.2276
  415ACTN    C3 4604   7.505   7.375   8.484 -0.9308 -0.4882 -0.4331
  415ACTN    H4 4605   7.413   7.419   8.448 -0.7659 -0.1973 -0.5018
  415ACTN    H5 4606   7.570   7.349   8.400 -1.3875 -3.6513  0.1162
  415ACTN    C2 4607   7.487   7.251   8.561 -0.0164  0.7240 -0.2311
  415ACTN    O1 4608   7.576   7.213   8.645  0.5968 -0.5516  0.5023
  415ACTN    C1 4609   7.393   7.147   8.512 -0.2852  0.1655 -0.1642
  415ACTN    H1 4610   7.430   7.122   8.413  0.7472 -0.6034  0.4178
  415ACTN    H2 4611   7.290   7.180   8.498 -1.6420 -3.5992  0.4562
  415ACTN    H3 4612   7.394   7.054   8.568 -0.8323 -0.8003 -1.7334
  416ACTN    H6 4613   4.282   3.761   2.424  0.6546 -1.7143  0.3702
  416ACTN    C3 4614   4.349   3.842   2.399 -0.1872 -1.2646 -0.4634
  416ACTN    H4 4615   4.309   3.876   2.303 -1.5854 -1.7394 -0.0538
  416ACTN    H5 4616   4.455   3.817   2.397  0.4964  1.4446 -1.5754
  416ACTN    C2 4617   4.339   3.947   2.503 -0.5868 -1.2411 -0.4922
  416ACTN    O1 4618   4.338   4.067   2.461 -0.2014  0.5189 -0.3682
  416ACTN    C1 4619   4.324   3.916   2.642 -0.2636  0.3344  0.9119
  416ACTN    H1 4620   4.306   4.013   2.689 -2.4938  0.0266  0.7721
  416ACTN    H2 4621   4.402   3.858   2.692 -0.2401  1.4178  2.1710
  416ACTN    H3 4622   4.230   3.866   2.665 -0.2014 -0.0446  0.3369
  417ACTN    H6 4623   6.460   3.644   3.607 -0.1228 -0.4781  0.0323
  417ACTN    C3 4624   6.517   3.689   3.527 -0.5628 -0.1008 -0.0741
  417ACTN    H4 4625   6.461   3.671   3.435  0.0482  0.1097 -0.4944
  417ACTN    H5 4626   6.519   3.795   3.552  2.1594 -0.1546  0.1455
  417ACTN    C2 4627   6.656   3.625   3.523 -0.0338  0.5793 -0.8177
  417ACTN    O1 4628   6.703   3.597   3.411 -0.2985  0.1776  0.1175
  417ACTN    C1 4629   6.745   3.642   3.641 -0.1049 -0.8329 -0.5949
  417ACTN    H1 4630   6.690   3.650   3.734 -0.7403  1.6957 -1.1579
  417ACTN    H2 4631   6.809   3.731   3.635  2.0269 -2.1708  1.3246
  417ACTN    H3 4632   6.814   3.558   3.655  0.7371  0.2103  1.6982
  418ACTN    H6 4633   1.385   2.750   2.585  1.2605  2.3491 -0.4852
  418ACTN    C3 4634   1.465   2.693   2.537 -0.4505 -0.3226 -0.2668
  418ACTN    H4 4635   1.411   2.614   2.485 -1.4213  0.5613 -0.6173
  418ACTN    H5 4636   1.524   2.645   2.615 -1.2230 -0.8773 -0.0210
  418ACTN    C2 4637   1.552   2.771   2.439 -0.1901  0.0543 -0.8847
  418ACTN    O1 4638   1.492   2.864   2.381  0.3828 -0.8502  0.5049
  418ACTN    C1 4639   1.700   2.787   2.463  0.0968  0.8174 -0.1340
  418ACTN    H1 4640   1.718   2.785   2.571 -1.9133 -0.2887  0.2057
  418ACTN    H2 4641   1.733   2.886   2.430 -3.0673  1.1819 -2.5205
  418ACTN    H3 4642   1.755   2.701   2.427 -1.8600  0.5461 -2.6009
  419ACTN    H6 4643   2.754   3.369   2.611 -0.0733  0.7381 -1.1562
  419ACTN    C3 4644   2.823   3.322   2.541  0.3755 -0.3418 -0.0136
  419ACTN    H4 4645   2.869   3.230   2.576  0.4800  0.0207  0.8089
  419ACTN    H5 4646   2.771   3.305   2.447  0.7176 -1.4816 -0.0015
  419ACTN    C2 4647   2.938   3.409   2.526 -0.4375  0.1309  0.2255
  419ACTN    O1 4648   2.970   3.490   2.610  0.0485 -0.8096 -0.4799
  419ACTN    C1 4649   3.036   3.382   2.407 -0.2305  0.0510  0.9109
  419ACTN    H1 4650   3.017   3.290   2.351 -0.4493  1.6642 -1.7464
  419ACTN    H2 4651   3.139   3.388   2.440 -1.2296  1.5289  4.0139
  419ACTN    H3 4652   3.039   3.459   2.331  4.2388 -0.0041  0.9104
  420ACTN    H6 4653   7.963   7.619   2.913  1.2526 -0.1902 -0.0318
  420ACTN    C3 4654   7.978   7.547   2.833 -0.4839 -0.0156 -0.5459
  420ACTN    H4 4655   8.056   7.591   2.772  0.7800  0.7974  1.5765
  420ACTN    H5 4656   8.020   7.455   2.875  0.8751  0.4378 -0.9020
  420ACTN    C2 4657   7.861   7.517   2.745  0.4760 -0.1222 -0.1129
  420ACTN    O1 4658   7.872   7.416   2.677 -0.0412  0.1732  0.9374
  420ACTN    C1 4659   7.733   7.597   2.747 -0.1340  0.3360 -0.3970
  420ACTN    H1 4660   7.747   7.700   2.714 -0.4332  0.6574  0.4603
  420ACTN    H2 4661   7.700   7.601   2.850  1.7895 -2.0338  0.3626
  420ACTN    H3 4662   7.654   7.552   2.686  0.8776  0.0568 -1.5181
  421ACTN    H6 4663   0.055   0.393   7.824 -0.1044  0.3363 -0.2390
  421ACTN    C3 4664   0.155   0.430   7.802 -0.4225  0.8009 -0.9111
  421ACTN    H4 4665   0.199   0.464   7.896 -1.4830  1.3594 -0.6054
  421ACTN    H5 4666   0.220   0.347   7.776 -1.1445 -0.3564  0.8875
  421ACTN    C2 4667   0.157   0.547   7.710  0.5846  0.1064 -0.7006
  421ACTN    O1 4668   0.131   0.528   7.591  0.0296 -0.1571 -0.1914
  421ACTN    C1 4669   0.198   0.688   7.759 -0.5145 -0.6222  0.0548
  421ACTN    H1 4670   0.199   0.687   7.868  1.8860 -0.2408  0.0583
  421ACTN    H2 4671   0.129   0.763   7.719 -1.4671 -1.9937 -0.9373
  421ACTN    H3 4672   0.296   0.726   7.730  0.4680 -2.1150  1.3729
  422ACTN    H6 4673   8.150   0.184   8.711  0.8795 -0.1784 -1.1082
  422ACTN    C3 4674   8.193   0.100   8.766  0.4279  0.3560  0.0892
  422ACTN    H4 4675   8.302   0.110   8.770  0.3685  1.5517 -0.7769
  422ACTN    H5 4676   8.160   0.093   8.869 -0.7429 -2.7636 -0.4438
  422ACTN    C2 4677   8.166  -0.025   8.691  0.1387  0.0349 -0.1485
  422ACTN    O1 4678   8.232  -0.126   8.710 -0.3783  0.2207  0.5836
  422ACTN    C1 4679   8.060  -0.013   8.583 -0.2711 -0.6312 -0.2404
  422ACTN    H1 4680   7.990   0.069   8.601 -1.3325 -1.7700  0.9451
  422ACTN    H2 4681   7.999  -0.103   8.585 -1.2044 -0.0052  1.1090
  422ACTN    H3 4682   8.119  -0.010   8.492 -1.9024 -0.2992 -1.2916
  423ACTN    H6 4683   5.320   1.678   4.855  0.6071 -0.3934  0.4481
  423ACTN    C3 4684   5.403   1.663   4.785  0.3473 -0.4720  0.1553
  423ACTN    H4 4685   5.498   1.665   4.837  1.0897  0.3109 -1.2192
  423ACTN    H5 4686   5.395   1.560   4.749  0.6925 -0.6589  0.6112
  423ACTN    C2 4687   5.401   1.754   4.663  0.3171 -0.1219 -0.3505
  423ACTN    O1 4688   5.351   1.868   4.667  0.1984 -0.0797  0.0487
  423ACTN    C1 4689   5.468   1.698   4.533 -0.0074  0.2288 -0.0079
  423ACTN    H1 4690   5.565   1.742   4.511 -0.1392  1.2073  1.2560
  423ACTN    H2 4691   5.406   1.718   4.446 -0.5935  2.6969  0.9212
  423ACTN    H3 4692   5.482   1.591   4.548 -1.2220  0.0099 -0.3715
  424ACTN    H6 4693   7.358   1.205   3.699  0.8429  0.4479  1.0688
  424ACTN    C3 4694   7.326   1.179   3.800 -0.0978  0.1306  0.6983
  424ACTN    H4 4695   7.402   1.127   3.859  0.5719 -0.8202 -0.9795
  424ACTN    H5 4696   7.314   1.280   3.840 -0.6815 -0.5033  2.1460
  424ACTN    C2 4697   7.202   1.098   3.788  0.2705  0.0426  1.1172
  424ACTN    O1 4698   7.114   1.117   3.872  0.1766  0.2480 -0.1446
  424ACTN    C1 4699   7.197   0.992   3.689  0.3864 -0.5391 -0.4410
  424ACTN    H1 4700   7.143   1.028   3.602 -1.2481  0.3045  0.8965
  424ACTN    H2 4701   7.149   0.901   3.726  2.2806 -1.7028 -0.7472
  424ACTN    H3 4702   7.294   0.963   3.648 -1.0279 -0.9096 -3.6137
  425ACTN    H6 4703   6.325   1.047   3.470 -2.2653  0.6923 -0.2433
  425ACTN    C3 4704   6.325   1.082   3.573 -0.3407  0.8619 -0.2767
  425ACTN    H4 4705   6.235   1.059   3.630  0.7827  1.3647  1.7438
  425ACTN    H5 4706   6.407   1.031   3.622 -1.9395 -0.8056  0.7281
  425ACTN    C2 4707   6.336   1.237   3.561  0.2066  0.8339  0.4829
  425ACTN    O1 4708   6.424   1.294   3.630 -0.2818 -0.3822 -0.2990
  425ACTN    C1 4709   6.218   1.321   3.506  0.7504  0.1604 -0.0745
  425ACTN    H1 4710   6.249   1.368   3.413 -1.4750  0.2318 -0.8261
  425ACTN    H2 4711   6.193   1.405   3.571  1.5971  0.9545 -0.7596
  425ACTN    H3 4712   6.132   1.255   3.489  1.3243 -0.2805 -1.3646
  426ACTN    H6 4713   2.479   8.601   5.919 -0.0543  0.8470  2.9226
  426ACTN    C3 4714   2.393   8.662   5.895  0.0540 -0.1436 -0.2909
  426ACTN    H4 4715   2.419   8.716   5.804  0.4914 -1.0954 -0.7338
  426ACTN    H5 4716   2.316   8.589   5.869 -0.0625 -1.0537  2.4263
  426ACTN    C2 4717   2.354   8.750   6.013 -0.2266  0.5265  0.3900
  426ACTN    O1 4718   2.256   8.732   6.082 -0.1313  0.1437 -0.6271
  426ACTN    C1 4719   2.459   8.858   6.047  0.4095  0.7734  0.0180
  426ACTN    H1 4720   2.407   8.951   6.067 -0.2409  0.3908  0.1065
  426ACTN    H2 4721   2.519   8.893   5.963 -0.9286  1.5140 -0.6443
  426ACTN    H3 4722   2.526   8.827   6.127  0.2533  0.5177  0.0518
  427ACTN    H6 4723   0.275   6.821   7.991 -1.1606  0.9378  1.6824
  427ACTN    C3 4724   0.215   6.741   8.033 -0.3210 -0.4940  0.2026
  427ACTN    H4 4725   0.173   6.677   7.954  1.2131 -1.0664 -0.1601
  427ACTN    H5 4726   0.132   6.788   8.086  0.8901  1.1852  0.6223
  427ACTN    C2 4727   0.312   6.645   8.113 -1.1169  0.2617  0.0400
  427ACTN    O1 4728   0.264   6.589   8.208  0.2582  0.8160  0.6320
  427ACTN    C1 4729   0.451   6.606   8.064  0.0234 -0.4415 -0.2686
  427ACTN    H1 4730   0.495   6.536   8.134 -0.8807  0.1800  0.9502
  427ACTN    H2 4731   0.522   6.689   8.065 -1.4639  0.8587  2.0874
  427ACTN    H3 4732   0.447   6.559   7.966 -0.6982 -1.3511  0.1922
  428ACTN    H6 4733   2.462   8.694   5.539  2.0728  0.7620 -3.1745
  428ACTN    C3 4734   2.362   8.707   5.498  0.7269  0.3846 -0.1468
  428ACTN    H4 4735   2.376   8.726   5.391  1.6535 -0.2649 -0.1453
  428ACTN    H5 4736   2.307   8.613   5.497 -3.4815  2.7451 -0.7224
  428ACTN    C2 4737   2.285   8.802   5.583 -1.1519 -0.6380 -0.5690
  428ACTN    O1 4738   2.339   8.909   5.617 -0.3651 -0.0345  0.5462
  428ACTN    C1 4739   2.144   8.761   5.616 -0.0184  0.6332 -0.4637
  428ACTN    H1 4740   2.119   8.785   5.719  1.4775 -0.4151  0.1621
  428ACTN    H2 4741   2.137   8.654   5.596  0.7913  0.2867  1.0423
  428ACTN    H3 4742   2.077   8.820   5.554  0.6661  0.5774 -1.2716
  429ACTN    H6 4743   2.188   7.875   3.208 -0.6059  1.2349  1.1371
  429ACTN    C3 4744   2.283   7.921   3.234  0.4703  0.0265 -0.5554
  429ACTN    H4 4745   2.279   7.959   3.336  0.0460  0.1497 -0.6158
  429ACTN    H5 4746   2.359   7.842   3.237 -1.3230 -1.6956  2.4840
  429ACTN    C2 4747   2.309   8.029   3.149  0.3078 -0.0530 -0.2616
  429ACTN    O1 4748   2.229   8.118   3.141 -0.7917  0.1616 -0.1511
  429ACTN    C1 4749   2.449   8.056   3.111 -0.1956  0.4799 -0.1112
  429ACTN    H1 4750   2.472   8.163   3.115  0.7498  0.2940 -0.6098
  429ACTN    H2 4751   2.456   8.038   3.004 -0.4311 -2.8129  0.3756
  429ACTN    H3 4752   2.533   8.001   3.154 -0.9883 -1.0871 -0.5342
  430ACTN    H6 4753   4.021   5.298   6.118 -1.9183 -1.2673  1.9230
  430ACTN    C3 4754   3.976   5.393   6.147 -1.0332 -0.3795  0.4835
  430ACTN    H4 4755   4.014   5.423   6.244 -0.1482 -2.4995  0.8270
  430ACTN    H5 4756   3.998   5.464   6.068  0.6441 -0.7895  0.5715
  430ACTN    C2 4757   3.829   5.376   6.166  0.6019  0.4973 -0.0408
  430ACTN    O1 4758   3.759   5.471   6.130 -0.5349 -0.1731  0.0621
  430ACTN    C1 4759   3.759   5.247   6.207  0.1925  0.2200 -0.2900
  430ACTN    H1 4760   3.709   5.255   6.303 -1.1124  1.1740 -1.0342
  430ACTN    H2 4761   3.831   5.165   6.212 -0.4310 -0.2784  0.5545
  430ACTN    H3 4762   3.686   5.217   6.131 -0.4253 -0.6717  0.6414
  431ACTN    H6 4763   5.490   7.010   4.219  0.5108  2.6984  0.7137
  431ACTN    C3 4764   5.461   6.991   4.322  0.2424 -0.2639  0.1413
  431ACTN    H4 4765   5.498   7.072   4.385 -1.5750  0.1358  0.7284
  431ACTN    H5 4766   5.352   6.994   4.333  0.4199  1.1664  1.6673
  431ACTN    C2 4767   5.489   6.850   4.371 -1.2940 -0.0026  0.3156
  431ACTN    O1 4768   5.522   6.836   4.490  0.6412 -0.3520  0.1996
  431ACTN    C1 4769   5.448   6.737   4.294 -0.2599  0.2155  0.1186
  431ACTN    H1 4770   5.373   6.679   4.349  1.0434  0.0763  1.7959
  431ACTN    H2 4771   5.527   6.668   4.263 -1.8193 -0.9533 -1.3492
  431ACTN    H3 4772   5.394   6.771   4.206 -1.6295  0.3650  0.9962
  432ACTN    H6 4773   1.599   6.786   6.055 -0.6542  0.4930 -0.1587
  432ACTN    C3 4774   1.529   6.729   6.117 -0.1169  0.2514  0.2371
  432ACTN    H4 4775   1.519   6.628   6.078  0.2194  0.4045 -0.2432
  432ACTN    H5 4776   1.428   6.770   6.123 -0.3803 -0.5755  1.5619
  432ACTN    C2 4777   1.584   6.723   6.259  0.0890  0.3164  0.4222
  432ACTN    O1 4778   1.631   6.616   6.296 -0.1542 -1.0951 -0.3721
  432ACTN    C1 4779   1.609   6.842   6.349 -0.3018  0.1946 -0.1816
  432ACTN    H1 4780   1.705   6.877   6.313 -0.0207 -0.0218  0.3598
  432ACTN    H2 4781   1.617   6.819   6.455  1.7738 -0.7564 -0.5360
  432ACTN    H3 4782   1.536   6.923   6.340  0.3686  0.7118 -0.9703
  433ACTN    H6 4783   8.916   8.437   3.162  2.1602 -0.9442 -0.8535
  433ACTN    C3 4784   8.834   8.397   3.102  0.5015  0.1568  0.6141
  433ACTN    H4 4785   8.774   8.481   3.068 -1.3735  0.0712  3.5464
  433ACTN    H5 4786   8.889   8.344   3.024  1.7788  1.8406  0.3385
  433ACTN    C2 4787   8.748   8.311   3.193  0.2298  0.9011  0.3100
  433ACTN    O1 4788   8.792   8.274   3.302 -0.0395  0.3073 -0.2125
  433ACTN    C1 4789   8.608   8.275   3.155 -0.3525 -0.1501 -0.4218
  433ACTN    H1 4790   8.594   8.229   3.058  1.9742 -1.6970 -0.0586
  433ACTN    H2 4791   8.556   8.370   3.141  0.5324 -0.0753 -3.3376
  433ACTN    H3 4792   8.557   8.213   3.230  0.2930  0.5150  0.5858
  434ACTN    H6 4793   8.005   7.702   5.098  0.9222  0.6312 -0.7496
  434ACTN    C3 4794   7.936   7.736   5.021  0.4584  0.4038 -0.4371
  434ACTN    H4 4795   7.885   7.656   4.969  0.3958  1.0628 -1.3920
  434ACTN    H5 4796   7.865   7.793   5.082  1.0203  0.0434  0.5728
  434ACTN    C2 4797   8.014   7.807   4.913  0.0062 -0.4396  0.4110
  434ACTN    O1 4798   7.987   7.926   4.893 -0.2544 -0.5524 -0.6872
  434ACTN    C1 4799   8.115   7.733   4.824 -0.2511 -0.9164  0.5871
  434ACTN    H1 4800   8.210   7.784   4.808 -0.3825 -0.6150  0.7700
  434ACTN    H2 4801   8.064   7.721   4.727 -0.6693  1.3245  0.5102
  434ACTN    H3 4802   8.134   7.632   4.859  0.9280 -1.2943 -1.0785
  435ACTN    H6 4803   8.669   7.227   2.172  1.2831  0.0583  0.0364
  435ACTN    C3 4804   8.672   7.283   2.078  0.6226  0.1209  0.0515
  435ACTN    H4 4805   8.627   7.224   1.999  0.5004 -1.3450  1.1804
  435ACTN    H5 4806   8.614   7.374   2.096  3.2114  1.9186 -0.4220
  435ACTN    C2 4807   8.807   7.325   2.044  0.5277  0.9400  0.1838
  435ACTN    O1 4808   8.844   7.336   1.925 -0.0920  0.1719 -0.1752
  435ACTN    C1 4809   8.887   7.374   2.159 -0.1315 -0.0573 -0.2733
  435ACTN    H1 4810   8.982   7.320   2.156  0.4658  0.9680  0.0619
  435ACTN    H2 4811   8.834   7.357   2.253 -0.6288 -0.8425 -0.6940
  435ACTN    H3 4812   8.917   7.478   2.153  0.6955 -0.2199  0.9312
  436ACTN    H6 4813   3.106   1.703   1.409  2.5456 -0.2893  1.2889
  436ACTN    C3 4814   3.153   1.734   1.316 -0.1714  0.2956  0.0626
  436ACTN    H4 4815   3.096   1.707   1.227 -1.7742  1.9159  0.5820
  436ACTN    H5 4816   3.158   1.843   1.310  1.9921  0.2685  0.8950
  436ACTN    C2 4817   3.296   1.681   1.284 -0.3463 -0.4270  0.4908
  436ACTN    O1 4818   3.380   1.672   1.371 -0.4090  0.0776 -0.5143
  436ACTN    C1 4819   3.316   1.602   1.162 -0.3171 -0.5937  0.2657
  436ACTN    H1 4820   3.280   1.501   1.182  1.7688 -1.0995  1.6428
  436ACTN    H2 4821   3.422   1.602   1.137 -0.8085  4.1846 -2.4972
  436ACTN    H3 4822   3.253   1.648   1.086  0.6056 -1.0038 -0.7585
  437ACTN    H6 4823   2.103   5.219   7.486 -0.0997  0.2539  0.6075
  437ACTN    C3 4824   2.105   5.318   7.532 -0.4116  0.3119  0.4969
  437ACTN    H4 4825   2.007   5.365   7.542 -0.5734  0.6869 -2.3115
  437ACTN    H5 4826   2.135   5.311   7.636  2.0882 -0.5837 -0.2390
  437ACTN    C2 4827   2.206   5.415   7.468  0.1558  0.1947  0.3606
  437ACTN    O1 4828   2.224   5.534   7.498 -0.1168  0.5187 -0.4755
  437ACTN    C1 4829   2.266   5.364   7.342  0.4749 -0.6065  0.0773
  437ACTN    H1 4830   2.240   5.440   7.268 -1.4196 -0.8051  0.5127
  437ACTN    H2 4831   2.224   5.271   7.303  2.3644 -1.5260  0.1887
  437ACTN    H3 4832   2.375   5.363   7.342  0.4777 -0.4282  0.2875
  438ACTN    H6 4833   2.985   4.861   0.738 -1.9307  3.2799  2.9096
  438ACTN    C3 4834   2.954   4.933   0.662  0.0798 -0.0589 -1.2123
  438ACTN    H4 4835   2.921   5.019   0.720 -3.3861 -1.5447 -0.8647
  438ACTN    H5 4836   3.040   4.964   0.603  0.0436 -1.0706 -1.8117
  438ACTN    C2 4837   2.838   4.884   0.580  0.8615  0.1448 -0.3285
  438ACTN    O1 4838   2.779   4.966   0.518 -0.4111 -0.6038  0.3770
  438ACTN    C1 4839   2.793   4.743   0.602 -0.8209  0.5476  0.4155
  438ACTN    H1 4840   2.703   4.739   0.663  0.8245  0.0002  2.8571
  438ACTN    H2 4841   2.869   4.682   0.649  0.1379  0.3361 -1.3601
  438ACTN    H3 4842   2.774   4.680   0.515 -1.3197  0.1886  0.7854
  439ACTN    H6 4843   1.501   1.762   2.806  0.0324 -0.4437  3.9957
  439ACTN    C3 4844   1.538   1.864   2.811 -0.5050  0.0282 -0.0112
  439ACTN    H4 4845   1.519   1.915   2.906  2.6978  2.5774 -0.6320
  439ACTN    H5 4846   1.646   1.850   2.805 -0.3090 -0.0928  3.1031
  439ACTN    C2 4847   1.487   1.950   2.702 -0.5401  0.0766 -0.1955
  439ACTN    O1 4848   1.384   1.913   2.644 -0.3858 -0.1845  0.0872
  439ACTN    C1 4849   1.543   2.090   2.693 -0.2473  0.0236 -0.1231
  439ACTN    H1 4850   1.651   2.088   2.680 -0.3398  2.0344 -1.4430
  439ACTN    H2 4851   1.523   2.156   2.777  0.4049 -0.8983  0.7757
  439ACTN    H3 4852   1.499   2.138   2.606 -0.7651  0.1152  0.1860
  440ACTN    H6 4853   8.498   8.718   5.536  0.1331 -0.1107 -0.2573
  440ACTN    C3 4854   8.432   8.724   5.623  0.3653 -0.5520 -0.0476
  440ACTN    H4 4855   8.331   8.718   5.583  0.8802 -3.1609 -1.0529
  440ACTN    H5 4856   8.445   8.633   5.682 -1.7351 -0.6882  0.2425
  440ACTN    C2 4857   8.443   8.846   5.707 -0.1762  0.0490  0.7888
  440ACTN    O1 4858   8.475   8.836   5.823  0.6388  0.3895 -0.2928
  440ACTN    C1 4859   8.418   8.976   5.639  0.1082  0.0238  0.2968
  440ACTN    H1 4860   8.501   9.045   5.655 -1.0840  1.4206  0.5338
  440ACTN    H2 4861   8.327   9.017   5.683  0.5295 -1.0204  2.1714
  440ACTN    H3 4862   8.400   8.955   5.533 -3.1635 -1.5763  1.1148
  441ACTN    H6 4863   0.552   7.431   3.291  2.1766 -0.0604  0.8341
  441ACTN    C3 4864   0.617   7.359   3.241  0.6172 -0.5759 -0.4985
  441ACTN    H4 4865   0.561   7.267   3.224  0.3096  0.0405 -2.9912
  441ACTN    H5 4866   0.655   7.385   3.142 -0.8020  0.7529 -0.7228
  441ACTN    C2 4867   0.733   7.338   3.330 -0.0709  0.2784  0.1984
  441ACTN    O1 4868   0.822   7.422   3.350  0.0624 -0.1045 -0.1341
  441ACTN    C1 4869   0.713   7.232   3.422 -0.0331  0.3538 -0.4564
  441ACTN    H1 4870   0.734   7.132   3.384  1.5138 -0.8367  3.3173
  441ACTN    H2 4871   0.609   7.235   3.456 -0.4850 -0.9640 -1.6374
  441ACTN    H3 4872   0.769   7.243   3.514 -2.1328 -1.5028  1.0965
  442ACTN    H6 4873   0.924   0.580   5.970  0.5406  2.2263 -0.2473
  442ACTN    C3 4874   1.019   0.535   5.940 -0.0831  0.4220  0.4268
  442ACTN    H4 4875   1.072   0.611   5.884  1.0285  0.4162  1.4538
  442ACTN    H5 4876   1.072   0.506   6.031 -1.0304 -3.4956 -0.1851
  442ACTN    C2 4877   0.982   0.421   5.856  0.3784  0.3982 -0.4135
  442ACTN    O1 4878   0.932   0.440   5.745 -0.0071 -0.0375  0.0058
  442ACTN    C1 4879   1.013   0.274   5.902  0.0201 -0.1213  0.4174
  442ACTN    H1 4880   0.948   0.208   5.844  0.9243 -0.1185 -0.6075
  442ACTN    H2 4881   0.984   0.272   6.007  0.5505  0.5432  0.5773
  442ACTN    H3 4882   1.118   0.252   5.888 -0.3604 -2.0763  0.4652
  443ACTN    H6 4883   8.295   2.648   6.111  0.0920 -0.8607 -0.0109
  443ACTN    C3 4884   8.403   2.656   6.112 -0.0053  0.6406  0.4876
  443ACTN    H4 4885   8.452   2.610   6.198 -1.4563 -0.1562  0.8989
  443ACTN    H5 4886   8.432   2.594   6.027 -0.8073 -0.8169  1.2630
  443ACTN    C2 4887   8.439   2.796   6.084 -0.2207 -0.4793  0.4530
  443ACTN    O1 4888   8.370   2.891   6.134  0.1068 -0.0584  0.3440
  443ACTN    C1 4889   8.558   2.822   5.999 -0.1695  0.5883  1.0020
  443ACTN    H1 4890   8.632   2.742   6.004  1.8817  2.3717 -0.1522
  443ACTN    H2 4891   8.610   2.913   6.027  1.5242  0.2556 -0.9215
  443ACTN    H3 4892   8.527   2.836   5.895 -0.1860  0.2215  0.9567
  444ACTN    H6 4893   0.429   7.003   2.157 -1.4449 -0.2534 -0.3445
  444ACTN    C3 4894   0.426   7.066   2.068  0.2073  0.6352  0.1913
  444ACTN    H4 4895   0.525   7.110   2.055  1.0206 -0.6734  1.7273
  444ACTN    H5 4896   0.408   7.002   1.981 -1.8714  0.9101  0.4003
  444ACTN    C2 4897   0.327   7.183   2.073 -0.2602  0.2337 -0.1790
  444ACTN    O1 4898   0.320   7.269   1.984 -0.2717 -0.3949 -0.2860
  444ACTN    C1 4899   0.226   7.194   2.182  0.5209  0.8522  0.2038
  444ACTN    H1 4900   0.145   7.124   2.160  1.8410 -0.1713 -1.4128
  444ACTN    H2 4901   0.196   7.297   2.202 -2.8523 -0.1661  0.8013
  444ACTN    H3 4902   0.263   7.172   2.282  0.7190  0.1508 -0.0250
  445ACTN    H6 4903   0.320   1.465   0.840  0.2468 -1.9155 -1.1588
  445ACTN    C3 4904   0.315   1.427   0.942  0.0314  0.4649 -0.2352
  445ACTN    H4 4905   0.414   1.389   0.967  1.0368  0.4647 -3.9374
  445ACTN    H5 4906   0.283   1.507   1.008  1.6071 -1.4491  3.0070
  445ACTN    C2 4907   0.214   1.315   0.952  0.2464  0.8396  0.2100
  445ACTN    O1 4908   0.200   1.226   0.873  0.6327 -0.0384 -1.0023
  445ACTN    C1 4909   0.119   1.326   1.063  0.1562  0.4217 -0.8941
  445ACTN    H1 4910   0.079   1.231   1.100 -0.9604  1.8807  1.8076
  445ACTN    H2 4911   0.040   1.399   1.042  0.3435  1.5932  2.1821
  445ACTN    H3 4912   0.173   1.358   1.152  1.7716  0.8533 -2.0125
  446ACTN    H6 4913   5.054   1.140   5.903  1.6897 -1.8958  0.7184
  446ACTN    C3 4914   5.131   1.202   5.858  0.1836 -0.2276  0.3790
  446ACTN    H4 4915   5.168   1.147   5.771 -0.4574 -0.8816  0.5208
  446ACTN    H5 4916   5.081   1.294   5.829  1.6675  0.1263 -1.1287
  446ACTN    C2 4917   5.228   1.224   5.961 -0.2917 -0.4773 -0.5565
  446ACTN    O1 4918   5.291   1.328   5.958  0.2675 -0.2368 -0.0957
  446ACTN    C1 4919   5.257   1.134   6.076  0.4343 -0.0888  0.3197
  446ACTN    H1 4920   5.362   1.138   6.102  0.6231  0.5819 -0.5319
  446ACTN    H2 4921   5.242   1.027   6.063 -0.2123 -0.7562  5.3909
  446ACTN    H3 4922   5.199   1.153   6.167  0.0830  1.7420 -0.2659
  447ACTN    H6 4923   2.295   2.076   6.434 -0.1133  0.1171 -0.0976
  447ACTN    C3 4924   2.393   2.089   6.389 -0.4153 -0.1430 -0.8323
  447ACTN    H4 4925   2.407   2.195   6.368  0.5091 -0.4167 -1.6563
  447ACTN    H5 4926   2.477   2.076   6.457 -0.0127  0.9473 -1.1139
  447ACTN    C2 4927   2.406   2.006   6.267  0.1203  0.2729  0.3053
  447ACTN    O1 4928   2.522   1.962   6.242 -0.8527 -0.2501  0.3160
  447ACTN    C1 4929   2.295   2.005   6.167 -0.0026  0.0262 -1.2000
  447ACTN    H1 4930   2.262   2.106   6.143  2.1026  0.3700 -2.8407
  447ACTN    H2 4931   2.216   1.942   6.207 -0.5941  1.4741 -0.0418
  447ACTN    H3 4932   2.328   1.959   6.073 -2.0999 -0.0313 -1.9369
  448ACTN    H6 4933   1.885   4.005   3.962  1.0934 -0.2474  1.0353
  448ACTN    C3 4934   1.854   4.105   3.993  0.4978 -0.2339  0.4150
  448ACTN    H4 4935   1.781   4.149   3.926  1.8411 -1.8486 -2.2027
  448ACTN    H5 4936   1.827   4.102   4.098 -2.2959  0.2756 -0.2621
  448ACTN    C2 4937   1.982   4.189   3.979 -0.5476  0.3806 -0.9047
  448ACTN    O1 4938   2.067   4.150   3.903  0.1731 -0.3664 -0.1344
  448ACTN    C1 4939   2.000   4.308   4.073  0.4275 -0.1678  0.0720
  448ACTN    H1 4940   1.905   4.326   4.124  0.6505  0.1313  0.3875
  448ACTN    H2 4941   2.011   4.399   4.013  1.1303  0.0682  0.5566
  448ACTN    H3 4942   2.081   4.298   4.145  0.9065  0.3976 -0.3770
  449ACTN    H6 4943   6.996   8.588   4.850 -1.2419  1.4002 -0.2080
  449ACTN    C3 4944   6.990   8.544   4.750  0.3275  0.4570  0.0993
  449ACTN    H4 4945   6.890   8.502   4.739 -0.1853  1.1640  1.8374
  449ACTN    H5 4946   6.998   8.627   4.680 -1.3038  0.7503  0.2527
  449ACTN    C2 4947   7.102   8.436   4.732  0.7020  0.0251  0.7030
  449ACTN    O1 4948   7.080   8.343   4.654 -1.0285  0.0226 -0.8705
  449ACTN    C1 4949   7.231   8.443   4.813  0.0836  0.3685  0.5835
  449ACTN    H1 4950   7.301   8.371   4.770  0.6656  1.2971 -0.0424
  449ACTN    H2 4951   7.216   8.416   4.918 -2.2883  0.2479  0.2266
  449ACTN    H3 4952   7.272   8.543   4.799 -0.7238  0.6407  0.1881
  450ACTN    H6 4953   8.542   8.530   0.867 -1.2132  0.2941 -0.0080
  450ACTN    C3 4954   8.515   8.463   0.949 -0.0962 -0.1906 -0.0399
  450ACTN    H4 4955   8.511   8.365   0.902  0.4062 -1.3265  2.2171
  450ACTN    H5 4956   8.603   8.464   1.014 -1.0255  1.2284  1.2320
  450ACTN    C2 4957   8.394   8.507   1.028  1.1574 -0.8279 -0.0844
  450ACTN    O1 4958   8.414   8.609   1.093 -0.6171 -0.1032 -0.3163
  450ACTN    C1 4959   8.265   8.479   0.960  0.6758  0.1446  0.4163
  450ACTN    H1 4960   8.265   8.522   0.860  0.5954 -2.0147 -0.5213
  450ACTN    H2 4961   8.176   8.511   1.015  0.2018  0.1628 -0.3434
  450ACTN    H3 4962   8.257   8.371   0.949 -2.7130  0.1289  2.3927
  451ACTN    H6 4963   6.550   2.506   8.140  1.1460  0.1297  0.7356
  451ACTN    C3 4964   6.563   2.482   8.034  0.2056  0.2588  0.5836
  451ACTN    H4 4965   6.539   2.576   7.985 -0.5567 -0.2340 -0.0091
  451ACTN    H5 4966   6.669   2.457   8.025  0.5114  1.5746  0.4533
  451ACTN    C2 4967   6.469   2.369   7.998 -0.3199  0.0662  0.0842
  451ACTN    O1 4968   6.447   2.348   7.881 -0.9017  0.1145 -0.5505
  451ACTN    C1 4969   6.403   2.294   8.106  0.4899  0.2673 -0.1968
  451ACTN    H1 4970   6.327   2.363   8.144 -0.5105 -0.6477 -0.5240
  451ACTN    H2 4971   6.473   2.273   8.187 -0.5931 -1.9458  0.1917
  451ACTN    H3 4972   6.354   2.206   8.064 -0.0965  0.2233  0.5687
  452ACTN    H6 4973   6.804   5.214   4.283 -0.6782 -1.1249  0.3290
  452ACTN    C3 4974   6.798   5.233   4.390  1.0388 -0.1578  0.2713
  452ACTN    H4 4975   6.807   5.341   4.406  1.3172 -0.0472 -0.5848
  452ACTN    H5 4976   6.705   5.194   4.430  0.7663 -0.4304 -0.6246
  452ACTN    C2 4977   6.918   5.183   4.467 -0.6625 -0.2185 -0.4431
  452ACTN    O1 4978   7.025   5.203   4.403 -0.5717 -0.0565 -0.7573
  452ACTN    C1 4979   6.898   5.104   4.584  0.4149  0.0660  0.0274
  452ACTN    H1 4980   6.794   5.073   4.590  0.6754 -0.6384  1.1002
  452ACTN    H2 4981   6.917   5.157   4.678 -2.5058  0.2283  0.5889
  452ACTN    H3 4982   6.967   5.020   4.583  0.7660  0.3715 -1.5300
  453ACTN    H6 4983   3.630   3.628   3.327  1.7063 -1.9992 -0.1492
  453ACTN    C3 4984   3.561   3.583   3.399  0.5439 -0.0775 -0.0446
  453ACTN    H4 4985   3.458   3.609   3.376  0.3068 -0.8863  0.1127
  453ACTN    H5 4986   3.584   3.477   3.405 -0.2156 -0.2168  0.4467
  453ACTN    C2 4987   3.593   3.652   3.527  0.0216  0.2588  0.1278
  453ACTN    O1 4988   3.692   3.723   3.527 -0.2569  0.0395 -0.0496
  453ACTN    C1 4989   3.539   3.585   3.655 -0.2535  0.2209  0.3243
  453ACTN    H1 4990   3.547   3.648   3.744  0.8989  0.1852  0.2573
  453ACTN    H2 4991   3.602   3.499   3.680 -0.3953 -0.9067 -2.9637
  453ACTN    H3 4992   3.438   3.549   3.641  0.8900 -2.5200 -1.2262
  454ACTN    H6 4993   1.290   0.640   4.211 -0.6797 -0.6144 -1.5046
  454ACTN    C3 4994   1.319   0.547   4.260 -0.4450  0.4521  0.4220
  454ACTN    H4 4995   1.347   0.569   4.363  0.6806 -2.3428  0.7732
  454ACTN    H5 4996   1.239   0.474   4.258 -0.2592  0.0959  3.1167
  454ACTN    C2 4997   1.444   0.492   4.193 -0.1614  0.6614 -0.3278
  454ACTN    O1 4998   1.548   0.556   4.191 -0.2062  0.1364  0.6620
  454ACTN    C1 4999   1.432   0.363   4.111 -0.0978  0.4539 -0.1893
  454ACTN    H1 5000   1.532   0.327   4.088  0.7585  3.2054 -0.9284
  454ACTN    H2 5001   1.365   0.369   4.025 -1.2723  0.6975  0.7240
  454ACTN    H3 5002   1.388   0.288   4.177  0.6132  1.1437  1.0760
  455ACTN    H6 5003   0.638   8.363   5.126 -0.5694  0.1380  1.4440
  455ACTN    C3 5004   0.561   8.312   5.070  0.0447  0.0938  0.6291
  455ACTN    H4 5005   0.587   8.208   5.051 -0.3418  0.4162 -1.8464
  455ACTN    H5 5006   0.470   8.320   5.130 -0.3655 -2.3225  0.3952
  455ACTN    C2 5007   0.533   8.375   4.932 -0.1488 -0.1131  0.2926
  455ACTN    O1 5008   0.629   8.420   4.868 -0.7643  0.5576 -0.3398
  455ACTN    C1 5009   0.399   8.338   4.866  0.0846  0.3760  0.2811
  455ACTN    H1 5010   0.320   8.354   4.938  2.0893 -1.4724  3.0112
  455ACTN    H2 5011   0.398   8.231   4.842 -0.6129  0.1321  1.3576
  455ACTN    H3 5012   0.374   8.378   4.768  1.4615 -1.0453 -0.6978
  456ACTN    H6 5013   8.883   6.111   1.401 -0.0270 -0.6719 -0.6404
  456ACTN    C3 5014   8.919   6.048   1.482 -0.6071 -0.5040 -0.2444
  456ACTN    H4 5015   8.833   6.008   1.535 -0.4308 -1.7091 -0.8490
  456ACTN    H5 5016   8.962   6.114   1.558 -0.9029 -2.9051  2.1137
  456ACTN    C2 5017   9.023   5.953   1.442 -0.8868  0.4393  0.0201
  456ACTN    O1 5018   9.133   5.956   1.497 -0.7776  0.4289 -0.2608
  456ACTN    C1 5019   8.996   5.867   1.325 -0.2342  0.7848  0.2574
  456ACTN    H1 5020   8.908   5.888   1.266  0.1334  1.4278 -0.0681
  456ACTN    H2 5021   8.983   5.772   1.379 -1.2830 -0.2651 -1.7944
  456ACTN    H3 5022   9.084   5.861   1.260 -1.0547  3.5196 -1.1504
  457ACTN    H6 5023   3.874   0.466   3.533 -0.0686 -2.6604  0.4678
  457ACTN    C3 5024   3.982   0.457   3.546  0.1141 -0.7333  0.5205
  457ACTN    H4 5025   4.013   0.352   3.551 -2.4583 -1.5066  1.1882
  457ACTN    H5 5026   4.030   0.495   3.457  1.0619 -2.6925  0.1632
  457ACTN    C2 5027   4.035   0.535   3.658 -0.5843 -0.2804 -0.6635
  457ACTN    O1 5028   4.092   0.645   3.645  0.5868  0.2094 -0.3487
  457ACTN    C1 5029   4.003   0.482   3.797  0.2921 -0.0201 -0.2790
  457ACTN    H1 5030   3.897   0.488   3.822  0.2669 -2.2347  0.2386
  457ACTN    H2 5031   4.057   0.543   3.869  1.3307 -0.6289 -0.5348
  457ACTN    H3 5032   4.026   0.376   3.804 -0.9832 -0.3027 -0.2467
  458ACTN    H6 5033   6.617   3.550   5.697 -1.6828  1.3396 -2.3172
  458ACTN    C3 5034   6.530   3.535   5.760  0.1335 -0.0303 -0.0894
  458ACTN    H4 5035   6.457   3.611   5.735  0.8658 -0.7476 -4.7497
  458ACTN    H5 5036   6.483   3.443   5.725 -0.5350  0.6607 -1.0243
  458ACTN    C2 5037   6.549   3.542   5.912  0.1287 -0.1349  0.9676
  458ACTN    O1 5038   6.587   3.648   5.964  0.8858 -0.1805 -0.3207
  458ACTN    C1 5039   6.526   3.432   5.999  0.0863 -0.4815  0.4855
  458ACTN    H1 5040   6.573   3.441   6.097  1.8864  0.0373 -0.4074
  458ACTN    H2 5041   6.562   3.341   5.953 -0.6107 -0.2032 -0.6383
  458ACTN    H3 5042   6.417   3.436   6.011 -0.0713  1.3232 -1.2067
  459ACTN    H6 5043   4.667   0.279   8.161 -0.6962  3.7392 -1.3330
  459ACTN    C3 5044   4.766   0.281   8.114  0.1678 -0.5717  0.0357
  459ACTN    H4 5045   4.844   0.260   8.187  2.8043  1.5549 -2.0589
  459ACTN    H5 5046   4.776   0.201   8.041 -1.0571  0.8844 -1.7861
  459ACTN    C2 5047   4.774   0.415   8.055 -0.4770  0.2884  0.6246
  459ACTN    O1 5048   4.872   0.486   8.073 -0.6109  0.6492  0.3080
  459ACTN    C1 5049   4.658   0.459   7.968 -0.1793 -0.1985  0.2329
  459ACTN    H1 5050   4.624   0.377   7.904 -0.3729 -0.3667  0.5501
  459ACTN    H2 5051   4.673   0.557   7.923 -1.0739 -0.5049 -0.7733
  459ACTN    H3 5052   4.571   0.480   8.030 -0.2523  0.7035 -0.1554
  460ACTN    H6 5053   8.697   1.221   3.912  0.2087  1.2239  0.0825
  460ACTN    C3 5054   8.595   1.187   3.926  0.8750 -0.5579  0.7808
  460ACTN    H4 5055   8.582   1.084   3.960 -0.3849 -0.9457 -0.8296
  460ACTN    H5 5056   8.560   1.245   4.011  1.5485  0.8160  0.1259
  460ACTN    C2 5057   8.523   1.203   3.796  0.3952  0.8964  0.7131
  460ACTN    O1 5058   8.411   1.248   3.794 -0.4029 -0.2803 -0.6561
  460ACTN    C1 5059   8.567   1.147   3.663  0.3395  0.1500  0.1039
  460ACTN    H1 5060   8.668   1.109   3.675  0.8675  1.4830 -0.1459
  460ACTN    H2 5061   8.552   1.223   3.587 -3.4686 -0.8458 -0.2717
  460ACTN    H3 5062   8.510   1.057   3.639  2.6191 -0.7966 -1.9536
  461ACTN    H6 5063   1.096   6.160   2.114 -1.5235 -2.1314  1.0055
  461ACTN    C3 5064   1.119   6.197   2.214  0.2212 -0.4043 -0.0015
  461ACTN    H4 5065   1.062   6.155   2.297  1.6703 -1.4004  0.5182
  461ACTN    H5 5066   1.224   6.172   2.229  0.8962  0.6901 -2.6515
  461ACTN    C2 5067   1.111   6.347   2.212 -0.4025  0.4326 -0.9502
  461ACTN    O1 5068   1.047   6.400   2.299 -0.8161 -0.0215 -0.1300
  461ACTN    C1 5069   1.170   6.430   2.105  0.0625  0.3636 -0.4105
  461ACTN    H1 5070   1.261   6.481   2.137  0.8824  0.6352 -3.0515
  461ACTN    H2 5071   1.102   6.510   2.073  0.1110  0.6280  0.1464
  461ACTN    H3 5072   1.199   6.370   2.018  1.8408 -0.8127  0.9606
  462ACTN    H6 5073   0.197   0.325   2.495 -0.1706  1.1787 -0.0359
  462ACTN    C3 5074   0.197   0.337   2.387 -0.0173 -0.6175 -0.2340
  462ACTN    H4 5075   0.207   0.441   2.358  0.7514 -0.2152  1.4273
  462ACTN    H5 5076   0.288   0.287   2.352 -0.7075 -0.6092 -2.0997
  462ACTN    C2 5077   0.066   0.284   2.343 -0.4902 -0.4589 -0.2077
  462ACTN    O1 5078  -0.028   0.361   2.324 -0.0027 -0.2344  0.0939
  462ACTN    C1 5079   0.046   0.144   2.324 -0.2015 -0.4267  0.4202
  462ACTN    H1 5080   0.007   0.123   2.224 -0.1214  1.1527  0.0558
  462ACTN    H2 5081  -0.019   0.107   2.403  0.7537 -2.5957  0.2414
  462ACTN    H3 5082   0.134   0.086   2.351  1.2933  2.0322  0.9848
  463ACTN    H6 5083   6.798   0.336   0.944  0.2564 -0.5309  0.1013
  463ACTN    C3 5084   6.868   0.291   0.872  0.7628  0.1476  0.1646
  463ACTN    H4 5085   6.960   0.280   0.929  0.4697 -2.7005  0.1535
  463ACTN    H5 5086   6.838   0.191   0.842  0.3206  0.2053  0.3984
  463ACTN    C2 5087   6.893   0.370   0.747 -0.4039  0.6365 -0.6314
  463ACTN    O1 5088   6.939   0.482   0.761 -0.4265  0.4818  0.0117
  463ACTN    C1 5089   6.897   0.305   0.616 -0.2236  0.4166 -0.1674
  463ACTN    H1 5090   6.991   0.251   0.604  1.5899  3.5552 -0.5265
  463ACTN    H2 5091   6.908   0.376   0.535  1.6814 -0.0376 -0.3249
  463ACTN    H3 5092   6.807   0.243   0.614  0.0315 -0.1258  2.6162
  464ACTN    H6 5093   0.982   1.509   0.807 -2.8484 -1.5129 -0.3771
  464ACTN    C3 5094   0.980   1.526   0.914  0.9154 -0.3676 -0.4147
  464ACTN    H4 5095   0.905   1.604   0.922  2.1300  0.7226  0.6164
  464ACTN    H5 5096   0.939   1.437   0.962 -0.3589 -0.9274 -2.5014
  464ACTN    C2 5097   1.107   1.581   0.964 -0.2021 -0.1339 -0.1149
  464ACTN    O1 5098   1.208   1.526   0.939 -0.3097 -0.3250 -0.0002
  464ACTN    C1 5099   1.115   1.718   1.003  0.6318 -0.4267 -0.5618
  464ACTN    H1 5100   1.014   1.746   1.033  0.0605 -2.5317 -0.4678
  464ACTN    H2 5101   1.150   1.780   0.920 -3.1472  2.8903  0.1687
  464ACTN    H3 5102   1.174   1.734   1.093  2.3532 -2.9672 -1.1800
  465ACTN    H6 5103   4.790   7.595   4.172  2.7911 -0.5340  2.5073
  465ACTN    C3 5104   4.720   7.638   4.243  0.1705 -0.5699  0.0439
  465ACTN    H4 5105   4.689   7.737   4.208  2.6673  0.2939  0.2071
  465ACTN    H5 5106   4.629   7.580   4.230  0.4131 -0.6861 -1.1924
  465ACTN    C2 5107   4.763   7.641   4.387 -0.1395 -0.6931  0.5919
  465ACTN    O1 5108   4.775   7.531   4.437 -0.2351 -0.0063 -0.2735
  465ACTN    C1 5109   4.804   7.765   4.459  0.6575 -0.6170 -0.4689
  465ACTN    H1 5110   4.755   7.770   4.557  0.4509 -0.7837 -0.5623
  465ACTN    H2 5111   4.777   7.848   4.394 -1.7881 -0.0656  1.1754
  465ACTN    H3 5112   4.913   7.763   4.471  0.7253  1.0186 -0.6962
  466ACTN    H6 5113   5.080   4.179   2.369 -2.1809  2.3809 -0.5985
  466ACTN    C3 5114   5.070   4.149   2.265  0.1233  0.0684 -0.2119
  466ACTN    H4 5115   5.035   4.048   2.243  0.2238  0.1950 -0.9753
  466ACTN    H5 5116   4.989   4.213   2.231  0.2119  0.6790  0.7146
  466ACTN    C2 5117   5.189   4.189   2.179 -0.0145  0.3523 -0.1810
  466ACTN    O1 5118   5.235   4.125   2.085 -0.4354  0.3831 -0.5111
  466ACTN    C1 5119   5.245   4.319   2.218 -0.2384 -0.1864  0.4343
  466ACTN    H1 5120   5.347   4.328   2.181 -0.4771  0.6400 -0.0378
  466ACTN    H2 5121   5.233   4.341   2.324  1.6732 -1.7405  1.0121
  466ACTN    H3 5122   5.185   4.392   2.164  0.6211  0.8318  0.8344
  467ACTN    H6 5123   0.506   8.923   2.510  0.8949  4.3574 -1.4953
  467ACTN    C3 5124   0.415   8.960   2.557 -0.5195 -0.1439 -0.4392
  467ACTN    H4 5125   0.350   9.006   2.483 -0.1311 -1.0610 -1.3648
  467ACTN    H5 5126   0.369   8.875   2.608  2.2615 -1.5993 -0.2527
  467ACTN    C2 5127   0.455   9.072   2.648  0.7784  0.2457  0.6962
  467ACTN    O1 5128   0.555   9.058   2.717  0.0767  0.1550  0.3628
  467ACTN    C1 5129   0.379   9.194   2.651 -0.0013  0.5276 -0.1146
  467ACTN    H1 5130   0.277   9.184   2.687 -0.5020  2.5603 -0.9302
  467ACTN    H2 5131   0.380   9.234   2.550  1.9199  0.8139 -0.0034
  467ACTN    H3 5132   0.429   9.267   2.715  1.2267 -0.3600 -0.0358
  468ACTN    H6 5133   0.976   0.261   0.894  2.0204  0.4378 -0.4940
  468ACTN    C3 5134   0.981   0.214   0.992  0.2252  1.0476 -0.1006
  468ACTN    H4 5135   1.075   0.242   1.039  1.8929 -1.9052 -1.5349
  468ACTN    H5 5136   0.897   0.252   1.051  1.2380  1.1866  1.2976
  468ACTN    C2 5137   0.975   0.065   0.985 -0.4903 -0.2609 -0.2976
  468ACTN    O1 5138   0.958   0.009   0.876  0.9466  0.3379 -0.0386
  468ACTN    C1 5139   0.973  -0.018   1.114  0.2259 -0.1270  0.0024
  468ACTN    H1 5140   0.879  -0.072   1.121  0.6666 -0.8488  0.4785
  468ACTN    H2 5141   0.975   0.042   1.206 -3.0967 -0.7712  0.5448
  468ACTN    H3 5142   1.059  -0.084   1.108  2.3356  2.6282 -1.0528
  469ACTN    H6 5143   7.901   2.266   7.883 -1.2880  0.9378 -0.7218
  469ACTN    C3 5144   7.880   2.327   7.970 -0.3542  0.4511 -0.1511
  469ACTN    H4 5145   7.943   2.287   8.050  0.4110 -1.9980 -1.9327
  469ACTN    H5 5146   7.915   2.430   7.959  0.3080  0.2293 -0.1634
  469ACTN    C2 5147   7.737   2.332   8.016 -0.3456 -0.6878 -0.5237
  469ACTN    O1 5148   7.709   2.306   8.135  0.2630 -0.9494 -0.7509
  469ACTN    C1 5149   7.645   2.405   7.931  0.3582  0.4300 -0.8648
  469ACTN    H1 5150   7.552   2.352   7.911 -0.6617  2.0834 -0.6164
  469ACTN    H2 5151   7.694   2.432   7.837  1.0974 -0.8017 -0.8458
  469ACTN    H3 5152   7.610   2.496   7.981  0.9405  0.2287 -0.0687
  470ACTN    H6 5153   2.329   6.197   3.967 -1.6008  1.0088 -1.8287
  470ACTN    C3 5154   2.237   6.166   4.017 -0.2473  0.4337  0.3268
  470ACTN    H4 5155   2.252   6.199   4.120  1.4998 -0.6245  0.4298
  470ACTN    H5 5156   2.246   6.058   4.013  0.1913  0.5511 -2.8519
  470ACTN    C2 5157   2.113   6.228   3.955  0.4378  0.7308 -0.5069
  470ACTN    O1 5158   2.065   6.336   3.992  0.2487 -0.0544 -0.4672
  470ACTN    C1 5159   2.052   6.155   3.845  0.0625 -0.4563 -0.1392
  470ACTN    H1 5160   2.051   6.218   3.756 -0.1549  2.1844  1.6759
  470ACTN    H2 5161   1.951   6.133   3.879  0.2592 -1.4881 -0.2043
  470ACTN    H3 5162   2.108   6.062   3.835 -2.3751 -2.1602  1.4915
  471ACTN    H6 5163   3.355   0.177   3.990 -0.4962 -1.5602  2.4436
  471ACTN    C3 5164   3.299   0.269   4.008  0.2223 -0.5344 -0.3302
  471ACTN    H4 5165   3.313   0.340   3.926 -2.0102 -0.1562 -0.3919
  471ACTN    H5 5166   3.197   0.231   4.011 -0.0579  0.0003 -2.2205
  471ACTN    C2 5167   3.334   0.320   4.142  0.5265 -0.5632  0.2947
  471ACTN    O1 5168   3.261   0.408   4.193  0.3881  0.2838 -0.2920
  471ACTN    C1 5169   3.425   0.232   4.230  0.1582  0.3222 -0.0153
  471ACTN    H1 5170   3.466   0.144   4.181  1.1581 -0.2123  1.7218
  471ACTN    H2 5171   3.381   0.188   4.320 -0.6477 -0.7837 -0.9369
  471ACTN    H3 5172   3.516   0.289   4.249  0.5398  0.0014 -0.8537
  472ACTN    H6 5173   8.802   7.040   3.438 -0.5163  0.1758 -1.6121
  472ACTN    C3 5174   8.901   7.086   3.429 -0.1561 -0.1353  0.6019
  472ACTN    H4 5175   8.888   7.182   3.378  3.5930  0.0573 -0.1403
  472ACTN    H5 5176   8.947   7.099   3.527 -1.6110 -1.8102  1.5522
  472ACTN    C2 5177   9.006   6.993   3.360  0.6409 -0.3394  0.5793
  472ACTN    O1 5178   9.055   7.033   3.262 -0.4333 -0.2827 -0.2334
  472ACTN    C1 5179   8.994   6.842   3.374 -0.1802 -0.8373  0.0119
  472ACTN    H1 5180   9.031   6.797   3.282  1.1160  0.9695 -0.3942
  472ACTN    H2 5181   8.892   6.810   3.396 -1.2938  0.4565 -3.0194
  472ACTN    H3 5182   9.062   6.824   3.458 -0.3941  1.2557  0.6886
  473ACTN    H6 5183   7.073   4.947   4.770  1.1584  0.3552  0.5121
  473ACTN    C3 5184   7.056   4.840   4.785 -0.3734  0.4931 -0.1744
  473ACTN    H4 5185   7.061   4.820   4.892  0.5094  1.4303 -0.0383
  473ACTN    H5 5186   6.952   4.825   4.755  0.4486  0.5250 -3.1798
  473ACTN    C2 5187   7.157   4.761   4.709 -0.0659 -0.4301  0.4588
  473ACTN    O1 5188   7.121   4.693   4.614 -0.0380  0.0182  0.5117
  473ACTN    C1 5189   7.300   4.781   4.744 -0.5187  0.3741 -0.1134
  473ACTN    H1 5190   7.312   4.844   4.831 -0.0211 -0.3452  0.3451
  473ACTN    H2 5191   7.355   4.828   4.662  1.6066 -2.6702 -0.5242
  473ACTN    H3 5192   7.347   4.683   4.754 -2.3196 -0.9077 -3.2013
  474ACTN    H6 5193   4.138   0.075   4.004  2.9529 -0.0001 -2.4224
  474ACTN    C3 5194   4.205   0.091   4.088  0.1428 -0.5661  0.0469
  474ACTN    H4 5195   4.241   0.193   4.100 -1.2882 -0.3622  3.1372
  474ACTN    H5 5196   4.158   0.071   4.184  0.2041  1.9943  0.6342
  474ACTN    C2 5197   4.316  -0.005   4.079 -0.1076  0.7313 -0.0344
  474ACTN    O1 5198   4.360  -0.055   4.181 -0.6488 -0.2200 -0.0043
  474ACTN    C1 5199   4.374  -0.059   3.950  0.4538  0.6819 -0.0972
  474ACTN    H1 5200   4.317  -0.026   3.863 -3.3769  0.8859  2.3914
  474ACTN    H2 5201   4.375  -0.168   3.957  0.8275  0.8407  3.2594
  474ACTN    H3 5202   4.475  -0.022   3.929 -0.1988  1.0978 -2.6398
  475ACTN    H6 5203   0.885   4.710   1.290 -0.5157 -1.0684  0.7415
  475ACTN    C3 5204   0.906   4.659   1.195  0.0662  0.1875  0.1795
  475ACTN    H4 5205   0.823   4.592   1.173 -0.5594  0.5790  1.2584
  475ACTN    H5 5206   0.898   4.739   1.121 -1.8213  0.4314  0.6011
  475ACTN    C2 5207   1.036   4.587   1.189  0.2131  0.6532 -0.9173
  475ACTN    O1 5208   1.105   4.566   1.089 -0.0155  0.5815  0.1059
  475ACTN    C1 5209   1.064   4.488   1.307 -0.0995 -0.0719  0.2342
  475ACTN    H1 5210   1.166   4.486   1.343  0.2313 -0.1591 -0.6878
  475ACTN    H2 5211   1.036   4.387   1.277 -1.5831  0.7109 -1.1029
  475ACTN    H3 5212   0.999   4.514   1.390 -1.5993  0.0354 -0.9388
  476ACTN    H6 5213   4.597   1.933   5.291  1.0962  0.1212  2.4042
  476ACTN    C3 5214   4.666   1.863   5.243 -0.7155 -0.0467 -0.0457
  476ACTN    H4 5215   4.609   1.775   5.213 -1.3016  0.5080 -0.5888
  476ACTN    H5 5216   4.723   1.900   5.158 -2.1520  1.5060 -0.3615
  476ACTN    C2 5217   4.763   1.832   5.350  0.4530 -0.4130 -0.2645
  476ACTN    O1 5218   4.853   1.915   5.377  0.2394 -0.0492  0.0605
  476ACTN    C1 5219   4.750   1.707   5.425  0.6989 -1.2023  0.8026
  476ACTN    H1 5220   4.831   1.639   5.398  1.3904  0.5012 -1.6708
  476ACTN    H2 5221   4.649   1.670   5.408  0.0610  1.1134 -0.6939
  476ACTN    H3 5222   4.760   1.744   5.527 -1.7881  1.0945  0.2737
  477ACTN    H6 5223   7.385   8.093   1.905  2.6413  1.5401  1.2345
  477ACTN    C3 5224   7.409   8.119   1.802  0.1970  0.1122  0.2704
  477ACTN    H4 5225   7.449   8.220   1.792 -0.1868  0.0531 -2.1416
  477ACTN    H5 5226   7.494   8.056   1.775  2.3894  2.3965  1.5901
  477ACTN    C2 5227   7.297   8.104   1.704  0.2079 -0.0721 -0.0389
  477ACTN    O1 5228   7.253   8.205   1.643  0.0805 -0.2988 -0.4179
  477ACTN    C1 5229   7.219   7.975   1.709  0.2823 -0.7496  0.3255
  477ACTN    H1 5230   7.117   7.995   1.676  0.7403  0.5083 -0.3518
  477ACTN    H2 5231   7.208   7.949   1.815 -1.9733  0.1771  0.3338
  477ACTN    H3 5232   7.264   7.889   1.659  1.8981  0.5083 -0.4075
  478ACTN    H6 5233   7.498   8.393   3.533  3.2463  0.5428 -0.6028
  478ACTN    C3 5234   7.493   8.499   3.556 -0.3108  0.4728 -0.7390
  478ACTN    H4 5235   7.593   8.538   3.538  0.4425 -0.3114  1.6206
  478ACTN    H5 5236   7.466   8.539   3.654 -1.5046 -0.2266 -0.7735
  478ACTN    C2 5237   7.400   8.549   3.455  0.4166  0.1854 -0.7320
  478ACTN    O1 5238   7.436   8.648   3.389  0.5969  0.3081 -0.0217
  478ACTN    C1 5239   7.272   8.473   3.423  0.1044 -0.6743  0.6584
  478ACTN    H1 5240   7.294   8.377   3.378  2.6122 -0.3703  1.1605
  478ACTN    H2 5241   7.209   8.528   3.353  1.1222 -1.8681 -1.2104
  478ACTN    H3 5242   7.214   8.449   3.512  0.2707  1.7821  1.4795
  479ACTN    H6 5243   0.161   3.750   1.192  0.6878  0.5037 -2.3564
  479ACTN    C3 5244   0.253   3.708   1.230 -0.4876  0.0602  0.1101
  479ACTN    H4 5245   0.292   3.771   1.310  1.8770  0.7054 -1.4790
  479ACTN    H5 5246   0.230   3.611   1.276  0.1334  0.5261  1.4532
  479ACTN    C2 5247   0.372   3.686   1.127  1.0646 -0.3496 -0.5820
  479ACTN    O1 5248   0.357   3.722   1.008  0.0209  0.3065  0.1671
  479ACTN    C1 5249   0.490   3.607   1.168 -0.5293 -0.4733 -0.4077
  479ACTN    H1 5250   0.503   3.606   1.277  0.6768  2.8663 -0.4409
  479ACTN    H2 5251   0.575   3.668   1.136 -0.8371  0.4527  0.5133
  479ACTN    H3 5252   0.503   3.509   1.122  2.5908 -0.1044 -0.4133
  480ACTN    H6 5253   8.948   8.813   6.753  2.1079  0.3403 -1.0935
  480ACTN    C3 5254   8.948   8.711   6.790  0.1426  0.5355 -0.4920
  480ACTN    H4 5255   8.992   8.640   6.721  0.8230  1.8487 -1.4144
  480ACTN    H5 5256   9.019   8.713   6.873 -0.3655  1.9159 -0.0845
  480ACTN    C2 5257   8.801   8.676   6.833  0.2991  0.5457 -0.7844
  480ACTN    O1 5258   8.780   8.659   6.953  0.1807  0.5280  0.2895
  480ACTN    C1 5259   8.710   8.625   6.717  0.3048  0.1469  0.4131
  480ACTN    H1 5260   8.612   8.670   6.729  0.1361 -0.2134  0.3916
  480ACTN    H2 5261   8.706   8.516   6.717  1.3818  0.0287 -3.9381
  480ACTN    H3 5262   8.752   8.648   6.620 -1.7945 -0.2270 -0.6094
  481ACTN    H6 5263   1.732   7.518   3.923  1.3767 -1.7468  0.9966
  481ACTN    C3 5264   1.823   7.522   3.864  0.5027 -0.0342 -0.2866
  481ACTN    H4 5265   1.883   7.601   3.909 -1.3166  0.5009  1.2707
  481ACTN    H5 5266   1.874   7.427   3.881 -0.9114 -0.8143 -0.3585
  481ACTN    C2 5267   1.805   7.552   3.722  0.4962  0.5363  0.1487
  481ACTN    O1 5268   1.900   7.598   3.662  0.1210 -0.2856 -0.3905
  481ACTN    C1 5269   1.689   7.512   3.629  0.1581  0.9727  0.3452
  481ACTN    H1 5270   1.593   7.496   3.678 -1.2715  1.9741 -2.0414
  481ACTN    H2 5271   1.719   7.422   3.575 -0.9349  0.7177  0.1691
  481ACTN    H3 5272   1.649   7.581   3.556  0.2281  3.0723  2.2474
  482ACTN    H6 5273   8.216   7.604   3.409  2.7342  0.8092  2.1833
  482ACTN    C3 5274   8.243   7.681   3.337 -0.2364 -0.1855 -0.1004
  482ACTN    H4 5275   8.164   7.756   3.333  0.2646  0.3142 -0.7140
  482ACTN    H5 5276   8.332   7.726   3.379 -1.0644  0.3276  1.1299
  482ACTN    C2 5277   8.260   7.620   3.198  0.1693  1.0164  0.0326
  482ACTN    O1 5278   8.355   7.560   3.169 -0.5105 -0.6043 -0.4441
  482ACTN    C1 5279   8.143   7.632   3.109  0.1048 -0.2584  0.2007
  482ACTN    H1 5280   8.180   7.691   3.025  1.1167 -2.3905 -0.8763
  482ACTN    H2 5281   8.060   7.690   3.150  0.0428  0.0513 -0.3659
  482ACTN    H3 5282   8.111   7.533   3.075 -1.9532 -0.8529  3.6230
  483ACTN    H6 5283   7.363   3.478   6.607 -0.4399  1.1703  0.3137
  483ACTN    C3 5284   7.357   3.501   6.500 -0.1477  0.3357  0.1173
  483ACTN    H4 5285   7.254   3.496   6.463  0.2309  1.5390 -1.1222
  483ACTN    H5 5286   7.381   3.606   6.491 -1.1673  0.6207  0.5799
  483ACTN    C2 5287   7.447   3.407   6.423  0.1779  0.1031  0.1571
  483ACTN    O1 5288   7.399   3.355   6.322  0.4696  0.5462 -0.1050
  483ACTN    C1 5289   7.586   3.378   6.465  0.0385  0.3145 -0.6642
  483ACTN    H1 5290   7.584   3.337   6.566 -0.2889 -0.0963 -0.8388
  483ACTN    H2 5291   7.644   3.471   6.466  1.5201 -0.6031  0.7330
  483ACTN    H3 5292   7.638   3.306   6.403  1.2693 -1.1257  1.9458
  484ACTN    H6 5293   8.319   6.249   2.978  0.2773 -0.4139 -0.7948
  484ACTN    C3 5294   8.313   6.358   2.979  0.3710 -0.4117  0.0606
  484ACTN    H4 5295   8.336   6.388   2.877  0.2523  0.9715  0.4249
  484ACTN    H5 5296   8.209   6.381   3.002 -0.7975 -3.5661 -1.7550
  484ACTN    C2 5297   8.412   6.421   3.072  0.1374  0.2142 -0.2824
  484ACTN    O1 5298   8.429   6.540   3.080  0.0676 -0.0381 -0.0160
  484ACTN    C1 5299   8.486   6.333   3.169  0.2099  0.1497  0.2490
  484ACTN    H1 5300   8.565   6.282   3.113 -0.7889 -0.5499 -0.5430
  484ACTN    H2 5301   8.413   6.260   3.203 -0.3326  0.1152 -0.9840
  484ACTN    H3 5302   8.518   6.379   3.263  0.9416  0.3031 -0.0699
  485ACTN    H6 5303   6.287   3.417   3.113 -2.3940 -0.7440  0.5144
  485ACTN    C3 5304   6.267   3.399   3.007 -0.4239  1.0488 -0.2183
  485ACTN    H4 5305   6.250   3.292   2.994 -0.9655  1.2037 -0.7973
  485ACTN    H5 5306   6.178   3.457   2.981  0.8188  1.5155 -3.6458
  485ACTN    C2 5307   6.389   3.439   2.922  0.1085  0.3230  0.3325
  485ACTN    O1 5308   6.430   3.370   2.829  0.8650 -0.6679 -0.0327
  485ACTN    C1 5309   6.485   3.546   2.966 -0.3210 -0.2544  0.0047
  485ACTN    H1 5310   6.576   3.501   3.006 -0.4675  0.7060  1.4413
  485ACTN    H2 5311   6.429   3.604   3.039 -0.7564 -1.1897  0.4180
  485ACTN    H3 5312   6.506   3.608   2.879 -1.6748 -1.0114 -0.8777
  486ACTN    H6 5313   8.953   1.216   7.323  2.6926  0.0467  2.0823
  486ACTN    C3 5314   8.915   1.116   7.339 -0.3365  0.6541 -0.7148
  486ACTN    H4 5315   8.989   1.040   7.312 -1.6483  0.1162 -2.9108
  486ACTN    H5 5316   8.885   1.098   7.443  0.4565 -1.4625 -0.8167
  486ACTN    C2 5317   8.796   1.097   7.252 -0.2314  0.5159  0.2142
  486ACTN    O1 5318   8.707   1.019   7.290 -0.1821  0.3591  0.6357
  486ACTN    C1 5319   8.803   1.129   7.101  0.6427  0.7984  0.0030
  486ACTN    H1 5320   8.864   1.214   7.070 -0.8231  2.0921  0.6178
  486ACTN    H2 5321   8.705   1.134   7.054  0.3870  0.3312  0.4778
  486ACTN    H3 5322   8.855   1.041   7.062  0.0022  0.5726 -0.3318
  487ACTN    H6 5323   7.573   4.375   8.007 -0.2693 -0.3367  2.3989
  487ACTN    C3 5324   7.485   4.438   7.992  0.2470 -0.1110  0.2100
  487ACTN    H4 5325   7.506   4.515   7.918  1.0928  0.3479  0.9230
  487ACTN    H5 5326   7.399   4.383   7.953 -0.0382 -0.2547  1.0385
  487ACTN    C2 5327   7.440   4.501   8.120  0.2293 -0.6684 -0.3304
  487ACTN    O1 5328   7.394   4.614   8.134  0.5961 -0.0663  0.0947
  487ACTN    C1 5329   7.434   4.400   8.230 -1.0027  0.3573  0.6679
  487ACTN    H1 5330   7.425   4.447   8.327 -1.6484 -1.0623  1.3069
  487ACTN    H2 5331   7.520   4.334   8.237 -1.0893  0.1843  0.1421
  487ACTN    H3 5332   7.348   4.337   8.209 -0.1868 -0.5432 -0.0334
  488ACTN    H6 5333   7.115   7.577   5.545 -3.4759  1.3210 -0.6182
  488ACTN    C3 5334   7.143   7.624   5.452  0.8801 -0.3271 -0.2322
  488ACTN    H4 5335   7.206   7.710   5.477 -0.3492  0.5944 -0.2548
  488ACTN    H5 5336   7.189   7.553   5.383  1.3635 -0.4499  0.2112
  488ACTN    C2 5337   7.013   7.663   5.389 -0.2417  1.2984  0.0224
  488ACTN    O1 5338   6.943   7.574   5.341  0.2567 -0.3151  0.4021
  488ACTN    C1 5339   6.967   7.805   5.380  0.4322  0.0829  0.9621
  488ACTN    H1 5340   6.944   7.827   5.484 -2.2983 -0.2575  0.4557
  488ACTN    H2 5341   6.871   7.816   5.330  1.2684  0.3603 -0.6408
  488ACTN    H3 5342   7.041   7.872   5.336 -1.1993  0.6742 -0.9718
  489ACTN    H6 5343   5.954   0.957   2.754 -0.3091  2.5565  0.0692
  489ACTN    C3 5344   6.016   0.970   2.843 -0.1279  0.4440  0.2813
  489ACTN    H4 5345   5.954   0.954   2.931  0.1341 -1.0464  0.2050
  489ACTN    H5 5346   6.083   0.884   2.847 -0.1517  0.4260  0.2876
  489ACTN    C2 5347   6.081   1.103   2.838  0.4189  0.3153 -0.6289
  489ACTN    O1 5348   6.125   1.143   2.735 -0.5324  0.3311 -0.2273
  489ACTN    C1 5349   6.082   1.194   2.962  0.0738 -0.3035 -0.3347
  489ACTN    H1 5350   6.138   1.286   2.947 -0.6826 -0.2933 -3.5192
  489ACTN    H2 5351   6.115   1.144   3.053 -3.0792  0.5720  1.3631
  489ACTN    H3 5352   5.980   1.227   2.979 -0.5075 -1.5273 -1.3674
  490ACTN    H6 5353   6.665   3.313   3.980  1.6267 -1.4777  0.6601
  490ACTN    C3 5354   6.620   3.266   3.893 -0.0424 -0.5339  1.0011
  490ACTN    H4 5355   6.533   3.205   3.917  1.3987 -2.3081  1.7185
  490ACTN    H5 5356   6.579   3.350   3.836 -0.0163  1.1640  3.4187
  490ACTN    C2 5357   6.712   3.187   3.816  0.4557 -0.2342  0.0895
  490ACTN    O1 5358   6.748   3.213   3.704 -0.6997 -0.5509 -0.3358
  490ACTN    C1 5359   6.763   3.064   3.888 -0.1289  0.1322  0.2221
  490ACTN    H1 5360   6.724   3.038   3.986 -1.6785  0.3474 -0.3294
  490ACTN    H2 5361   6.872   3.069   3.888 -0.1231  0.0987  1.0921
  490ACTN    H3 5362   6.734   2.973   3.835 -1.5085  1.4960 -1.3727
  491ACTN    H6 5363   6.160   3.735   1.829  0.2339 -0.8031 -0.5427
  491ACTN    C3 5364   6.268   3.732   1.847  0.1053 -0.4180  0.3077
  491ACTN    H4 5365   6.286   3.815   1.916  1.4449 -1.0872  0.7711
  491ACTN    H5 5366   6.296   3.642   1.902 -3.0729 -1.2781  0.6517
  491ACTN    C2 5367   6.353   3.753   1.723  0.9750 -0.5991  0.6102
  491ACTN    O1 5368   6.433   3.845   1.717 -0.0431 -0.1983 -0.0072
  491ACTN    C1 5369   6.343   3.649   1.621  0.9262  0.8793 -0.6070
  491ACTN    H1 5370   6.409   3.564   1.641 -0.8632 -0.5896 -0.7817
  491ACTN    H2 5371   6.359   3.690   1.522 -1.0129 -1.0737 -1.7842
  491ACTN    H3 5372   6.244   3.603   1.621  0.5188  1.6905 -3.1826
  492ACTN    H6 5373   5.161   8.033   7.178 -1.4896  1.2030 -0.0660
  492ACTN    C3 5374   5.088   7.962   7.138 -0.6385  0.0234  0.4305
  492ACTN    H4 5375   5.078   7.968   7.029 -0.4454  0.0465  0.4143
  492ACTN    H5 5376   5.126   7.863   7.164 -3.1964 -0.9517  0.5971
  492ACTN    C2 5377   4.957   7.997   7.196 -0.2074  0.7878  0.2242
  492ACTN    O1 5378   4.913   8.110   7.177 -0.0526  0.4123  0.4815
  492ACTN    C1 5379   4.911   7.930   7.321  0.0267 -0.1583  0.3123
  492ACTN    H1 5380   4.933   7.824   7.328 -0.8206 -0.3117  0.7045
  492ACTN    H2 5381   4.804   7.941   7.342 -0.0278 -2.9115  1.5483
  492ACTN    H3 5382   4.958   7.987   7.401 -4.0161  2.4213  1.0504
  493ACTN    H6 5383   1.152   4.914   5.385  0.5961 -0.0458 -0.3401
  493ACTN    C3 5384   1.173   4.825   5.445  0.0921  0.3198  0.3792
  493ACTN    H4 5385   1.100   4.803   5.523 -1.2242  0.5329 -0.7779
  493ACTN    H5 5386   1.171   4.736   5.384 -1.1771 -1.2846  2.6838
  493ACTN    C2 5387   1.301   4.849   5.520  0.2056 -0.2521  0.1027
  493ACTN    O1 5388   1.306   4.961   5.579  0.2221  0.1784 -0.3256
  493ACTN    C1 5389   1.420   4.791   5.463 -0.8890  0.7935  0.0830
  493ACTN    H1 5390   1.409   4.683   5.471  0.5413  0.7931  2.8874
  493ACTN    H2 5391   1.513   4.811   5.517 -0.6061  0.8319 -0.4176
  493ACTN    H3 5392   1.441   4.818   5.360  0.8749  0.8005  0.4261
  494ACTN    H6 5393   7.585   0.970   3.424  1.9062  1.4932 -1.1280
  494ACTN    C3 5394   7.539   0.947   3.328  0.0703  0.0004  0.0558
  494ACTN    H4 5395   7.579   1.016   3.253 -0.9697  0.0153 -0.4886
  494ACTN    H5 5396   7.558   0.841   3.309 -2.5244 -0.2337 -1.5042
  494ACTN    C2 5397   7.394   0.975   3.342 -0.1826 -0.6906 -0.9640
  494ACTN    O1 5398   7.320   0.899   3.406  0.5206  0.1213  0.4146
  494ACTN    C1 5399   7.317   1.054   3.241  0.3623 -0.2890  0.3627
  494ACTN    H1 5400   7.369   1.148   3.221 -2.1860  1.2256  0.6306
  494ACTN    H2 5401   7.216   1.072   3.278  0.1572 -1.2586  0.2987
  494ACTN    H3 5402   7.310   0.995   3.150  0.4692  0.6562 -0.2658
  495ACTN    H6 5403   2.176   1.197   4.542 -0.2855  0.4372 -2.5359
  495ACTN    C3 5404   2.166   1.089   4.545 -0.5770  0.4894  0.4125
  495ACTN    H4 5405   2.097   1.064   4.625  0.9314  1.1150  1.9308
  495ACTN    H5 5406   2.119   1.048   4.455 -1.2508 -1.0607  1.4377
  495ACTN    C2 5407   2.298   1.026   4.566 -0.5930  0.3764  0.2892
  495ACTN    O1 5408   2.401   1.095   4.568 -0.1022  0.1545  0.3637
  495ACTN    C1 5409   2.312   0.878   4.567  0.3289  0.2238  0.4096
  495ACTN    H1 5410   2.215   0.831   4.584  0.4291  0.2641  1.1329
  495ACTN    H2 5411   2.398   0.853   4.630  1.4048  0.6041 -0.8800
  495ACTN    H3 5412   2.326   0.849   4.463  0.6853 -2.0973  1.0835
  496ACTN    H6 5413   5.972   8.258   5.675 -3.2613  0.0832  0.6908
  496ACTN    C3 5414   5.976   8.362   5.642  0.2304 -0.2940 -0.3289
  496ACTN    H4 5415   6.042   8.419   5.707  1.3152 -1.7380 -0.1350
  496ACTN    H5 5416   6.018   8.374   5.542 -0.1970 -1.2432 -0.6306
  496ACTN    C2 5417   5.834   8.420   5.664 -0.1464  0.3839  0.1052
  496ACTN    O1 5418   5.758   8.471   5.580  0.6682  0.0295  0.5976
  496ACTN    C1 5419   5.820   8.443   5.812 -0.3643 -1.1266  0.6371
  496ACTN    H1 5420   5.723   8.489   5.832  1.3825  1.5991  3.2897
  496ACTN    H2 5421   5.900   8.502   5.858  0.9269 -1.0149 -1.6959
  496ACTN    H3 5422   5.821   8.345   5.860 -1.4876 -1.2009  0.5184
  497ACTN    H6 5423   1.318   4.110   8.355 -1.1557 -1.7895 -0.8069
  497ACTN    C3 5424   1.240   4.138   8.427  0.6658  0.8409  0.2132
  497ACTN    H4 5425   1.269   4.106   8.527  0.5477 -2.6382 -0.7977
  497ACTN    H5 5426   1.222   4.245   8.419 -0.0525  0.5075 -3.2579
  497ACTN    C2 5427   1.102   4.077   8.404  0.2107  0.2029  0.1255
  497ACTN    O1 5428   1.086   3.974   8.348 -0.2342  0.5472 -0.4388
  497ACTN    C1 5429   0.985   4.164   8.426  0.0458 -0.4513  0.1229
  497ACTN    H1 5430   0.937   4.120   8.514  2.4787 -2.7382  0.3757
  497ACTN    H2 5431   0.911   4.159   8.345 -0.8180 -0.1129  0.8809
  497ACTN    H3 5432   0.998   4.271   8.439 -1.7840 -0.4521  2.1681
  498ACTN    H6 5433   0.420   0.131   7.161 -0.5956 -2.1146  0.3122
  498ACTN    C3 5434   0.311   0.135   7.167 -0.5444 -0.3807  0.2801
  498ACTN    H4 5435   0.274   0.112   7.267 -3.4914  0.3181 -0.6266
  498ACTN    H5 5436   0.285   0.234   7.131 -1.3893 -0.8663 -0.4611
  498ACTN    C2 5437   0.255   0.034   7.078  0.1989  0.5658  0.6638
  498ACTN    O1 5438   0.142   0.016   7.078  0.3331  0.9137 -0.7923
  498ACTN    C1 5439   0.349  -0.031   6.984 -0.4363  0.2301  0.2043
  498ACTN    H1 5440   0.449   0.012   6.984 -0.0141 -0.6968 -1.2704
  498ACTN    H2 5441   0.314  -0.027   6.881 -0.7256 -0.6266  0.2618
  498ACTN    H3 5442   0.352  -0.138   7.005 -1.5997  0.9690  4.6403
  499ACTN    H6 5443   4.718   1.311   6.900  6.6000  1.2055 -2.6916
  499ACTN    C3 5444   4.678   1.271   6.807  0.2842  0.6953 -0.0240
  499ACTN    H4 5445   4.658   1.164   6.821 -2.6221  1.5657  3.1343
  499ACTN    H5 5446   4.594   1.333   6.775 -1.4560 -0.1624  2.6471
  499ACTN    C2 5447   4.792   1.286   6.717  0.1026  0.3451  0.0854
  499ACTN    O1 5448   4.890   1.212   6.725  0.0698 -0.0162  0.2673
  499ACTN    C1 5449   4.767   1.363   6.588 -0.8197 -0.4832 -0.7855
  499ACTN    H1 5450   4.693   1.317   6.523 -0.4005  1.3692 -2.6161
  499ACTN    H2 5451   4.858   1.363   6.529 -0.8321 -1.8831 -0.8370
  499ACTN    H3 5452   4.742   1.464   6.620  1.4340 -0.1143 -0.0713
  500ACTN    H6 5453   0.196   1.504   2.929  2.0344 -1.5221 -2.3691
  500ACTN    C3 5454   0.219   1.432   3.008 -0.2084 -0.2212 -0.4594
  500ACTN    H4 5455   0.305   1.375   2.971 -0.0976 -0.3690  0.0236
  500ACTN    H5 5456   0.250   1.491   3.094 -0.0628  2.8330 -2.5222
  500ACTN    C2 5457   0.109   1.337   3.039 -0.8768  0.1637 -0.5766
  500ACTN    O1 5458   0.066   1.271   2.950  0.2190  0.0290  0.1399
  500ACTN    C1 5459   0.046   1.353   3.173  0.1344  0.4572 -0.2119
  500ACTN    H1 5460  -0.063   1.350   3.168  0.1600  1.1835 -1.3265
  500ACTN    H2 5461   0.073   1.452   3.211  1.3032  0.5999 -1.3813
  500ACTN    H3 5462   0.076   1.277   3.246 -0.2100  0.2725 -0.2609
  501ACTN    H6 5463   2.945   6.868   5.334 -0.6579 -0.6687  0.1334
  501ACTN    C3 5464   2.938   6.817   5.238  0.1475  0.5021 -0.5590
  501ACTN    H4 5465   2.833   6.796   5.218  0.7495 -2.9511 -0.2888
  501ACTN    H5 5466   2.967   6.882   5.155  1.0305 -0.4647 -1.0134
  501ACTN    C2 5467   3.022   6.686   5.236 -0.1732  0.0770  0.2532
  501ACTN    O1 5468   3.003   6.588   5.306  0.4596 -0.1969  0.0757
  501ACTN    C1 5469   3.141   6.683   5.143  0.3940 -0.2111  0.1061
  501ACTN    H1 5470   3.170   6.780   5.102  1.7193 -0.3761  0.6149
  501ACTN    H2 5471   3.113   6.632   5.051  0.8990  0.8216 -0.6351
  501ACTN    H3 5472   3.231   6.632   5.178  0.7626 -0.9753 -1.9200
  502ACTN    H6 5473   5.592   7.740   1.327 -1.3168  3.1925 -2.3202
  502ACTN    C3 5474   5.507   7.756   1.394 -0.5712  0.3349 -0.5847
  502ACTN    H4 5475   5.525   7.690   1.478 -2.0401  0.9291  0.2208
  502ACTN    H5 5476   5.511   7.862   1.422 -3.7928 -0.0266  1.4192
  502ACTN    C2 5477   5.383   7.722   1.328  0.2079 -0.4086 -0.1004
  502ACTN    O1 5478   5.321   7.628   1.382 -0.7198 -0.1681  0.2949
  502ACTN    C1 5479   5.348   7.785   1.197  1.0248 -0.4846 -0.0652
  502ACTN    H1 5480   5.333   7.712   1.117 -1.5071  0.0730 -0.1358
  502ACTN    H2 5481   5.416   7.864   1.165  1.2726 -1.0547 -0.9735
  502ACTN    H3 5482   5.249   7.828   1.210  0.8104 -1.5770  2.0782
  503ACTN    H6 5483   4.957   2.849   7.484  1.0351  0.9482 -1.9272
  503ACTN    C3 5484   4.877   2.918   7.511 -0.0140 -0.7291 -0.6723
  503ACTN    H4 5485   4.914   2.979   7.594 -0.7932 -0.4374 -0.5364
  503ACTN    H5 5486   4.847   2.985   7.431 -0.4148 -0.7231 -0.5194
  503ACTN    C2 5487   4.760   2.836   7.547  0.1800 -0.0505 -0.3804
  503ACTN    O1 5488   4.717   2.827   7.661  0.9377 -0.5115 -0.0170
  503ACTN    C1 5489   4.733   2.725   7.450  0.3453 -0.0009 -0.3006
  503ACTN    H1 5490   4.782   2.736   7.353 -0.1922 -1.1850 -0.7135
  503ACTN    H2 5491   4.627   2.720   7.426  0.3414 -0.2364 -0.2254
  503ACTN    H3 5492   4.760   2.626   7.487  0.1413  0.9387  2.4343
  504ACTN    H6 5493   0.085   8.926   4.928 -1.0465 -2.9671 -0.8418
  504ACTN    C3 5494   0.151   8.918   4.842 -0.1151 -0.3241 -0.3966
  504ACTN    H4 5495   0.229   8.845   4.864 -0.0485  0.1085  0.8880
  504ACTN    H5 5496   0.090   8.869   4.767 -1.6343  2.1950 -0.8866
  504ACTN    C2 5497   0.207   9.037   4.778 -0.4330 -0.2271 -0.1067
  504ACTN    O1 5498   0.151   9.094   4.684 -0.0158  0.1750  0.6111
  504ACTN    C1 5499   0.346   9.063   4.819  0.6598 -0.1789  0.1273
  504ACTN    H1 5500   0.355   9.171   4.822 -0.3734 -0.0683 -0.5086
  504ACTN    H2 5501   0.418   9.034   4.742 -0.9308  0.3145 -1.5889
  504ACTN    H3 5502   0.375   9.028   4.918 -0.7693 -2.8505 -0.3230
  505ACTN    H6 5503   2.731   1.979   4.193  0.9541  0.9282 -2.6940
  505ACTN    C3 5504   2.793   1.889   4.189 -0.0644  0.1106 -0.3174
  505ACTN    H4 5505   2.795   1.858   4.085  0.4765  0.6577 -0.4666
  505ACTN    H5 5506   2.895   1.908   4.222 -0.1363  2.8056 -1.5971
  505ACTN    C2 5507   2.736   1.775   4.269 -0.3616  0.9380  0.0159
  505ACTN    O1 5508   2.724   1.785   4.391  0.0997 -0.3483  0.6617
  505ACTN    C1 5509   2.682   1.652   4.211  0.2002 -0.0179 -0.0629
  505ACTN    H1 5510   2.582   1.626   4.245  0.6039 -1.5910 -0.0526
  505ACTN    H2 5511   2.742   1.571   4.251 -1.7167 -0.9617  0.9999
  505ACTN    H3 5512   2.692   1.652   4.103  0.1586  0.2670 -0.0664
  506ACTN    H6 5513   0.967   7.189   6.443 -0.8637 -0.3367  0.5812
  506ACTN    C3 5514   0.911   7.141   6.363 -0.0561  0.1094 -0.2542
  506ACTN    H4 5515   0.902   7.039   6.399  4.3758 -0.0162  0.7096
  506ACTN    H5 5516   0.979   7.133   6.278 -1.0104  1.1398 -1.1395
  506ACTN    C2 5517   0.786   7.202   6.329  0.3577  0.1014 -0.2358
  506ACTN    O1 5518   0.740   7.297   6.386  0.4478  0.0085  0.5724
  506ACTN    C1 5519   0.710   7.151   6.207 -0.0456  0.0118  0.0280
  506ACTN    H1 5520   0.669   7.053   6.230  0.9538  0.0979  2.2771
  506ACTN    H2 5521   0.768   7.143   6.114  1.9588  1.2443  1.1233
  506ACTN    H3 5522   0.630   7.219   6.179 -0.1783 -0.6915 -1.3921
  507ACTN    H6 5523   4.863   2.261   2.716  4.9224 -0.4240 -3.4526
  507ACTN    C3 5524   4.919   2.256   2.809 -0.4074  0.4489  0.0460
  507ACTN    H4 5525   4.855   2.227   2.892  0.5728  1.7532  1.2904
  507ACTN    H5 5526   4.966   2.354   2.820  1.7942 -0.6012  0.3471
  507ACTN    C2 5527   5.020   2.154   2.789 -0.1394 -0.0042  0.1316
  507ACTN    O1 5528   5.124   2.165   2.849 -0.1325  1.2164 -0.1905
  507ACTN    C1 5529   4.971   2.015   2.751  0.5701  0.2237  0.0372
  507ACTN    H1 5530   4.915   2.032   2.659  1.0638 -1.6801 -0.6459
  507ACTN    H2 5531   4.897   1.969   2.816  0.1123  0.3534 -0.3908
  507ACTN    H3 5532   5.058   1.951   2.732  1.3042  1.0932  0.4313
  508ACTN    H6 5533   7.281   2.758   4.958 -0.2490 -1.6926 -0.5758
  508ACTN    C3 5534   7.198   2.774   4.888 -0.5583 -0.5880  0.0298
  508ACTN    H4 5535   7.209   2.875   4.848 -2.5608 -0.6906 -0.8336
  508ACTN    H5 5536   7.104   2.776   4.942  0.2499 -1.4928  1.5148
  508ACTN    C2 5537   7.191   2.675   4.777 -0.3105 -0.1839 -0.5521
  508ACTN    O1 5538   7.102   2.680   4.703  0.1264  0.1681  0.5841
  508ACTN    C1 5539   7.305   2.588   4.745 -0.2923  0.3057 -0.5964
  508ACTN    H1 5540   7.286   2.487   4.780  1.1826  0.3223  0.2875
  508ACTN    H2 5541   7.396   2.631   4.790 -0.5310  0.4611 -0.2595
  508ACTN    H3 5542   7.316   2.588   4.637  3.3726 -0.4293 -0.2959
  509ACTN    H6 5543   8.299   8.663   2.373 -2.1880  2.0814  0.3553
  509ACTN    C3 5544   8.216   8.602   2.410 -0.7102 -0.3773 -0.2887
  509ACTN    H4 5545   8.224   8.508   2.356  2.0272 -0.7666  0.6961
  509ACTN    H5 5546   8.230   8.583   2.517 -2.3930  1.3202  0.2602
  509ACTN    C2 5547   8.092   8.670   2.385 -0.4789 -0.3454 -0.4306
  509ACTN    O1 5548   8.081   8.726   2.276 -0.3785 -0.1287 -0.0481
  509ACTN    C1 5549   7.991   8.684   2.500 -0.2730  0.3075  0.1831
  509ACTN    H1 5550   7.989   8.783   2.544 -1.5376  1.7546 -2.9585
  509ACTN    H2 5551   8.019   8.613   2.578  3.3323 -1.1770 -2.3074
  509ACTN    H3 5552   7.900   8.657   2.446  1.1951 -0.7315 -1.8349
  510ACTN    H6 5553   2.198   1.439   8.841  0.0594  1.8217 -0.5036
  510ACTN    C3 5554   2.272   1.465   8.766  0.4542 -0.0266 -0.7951
  510ACTN    H4 5555   2.377   1.439   8.782  0.9377  1.5051 -1.3513
  510ACTN    H5 5556   2.245   1.424   8.669  2.4982  1.4740 -2.0498
  510ACTN    C2 5557   2.279   1.612   8.734 -0.3525  0.1909  0.4249
  510ACTN    O1 5558   2.196   1.692   8.783  0.1112 -0.3821 -0.1668
  510ACTN    C1 5559   2.386   1.651   8.635  0.2008 -0.6369 -0.1481
  510ACTN    H1 5560   2.429   1.748   8.660 -0.7562 -0.9107  2.7936
  510ACTN    H2 5561   2.336   1.647   8.538 -0.7944  0.3596  0.3004
  510ACTN    H3 5562   2.476   1.592   8.647  1.8033  2.1705  2.3835
  511ACTN    H6 5563   2.790   3.232   0.958  0.0276 -0.3172 -1.9175
  511ACTN    C3 5564   2.739   3.137   0.969  0.6320 -0.4378 -0.0986
  511ACTN    H4 5565   2.762   3.082   0.878 -1.7557 -2.4093  0.4370
  511ACTN    H5 5566   2.780   3.075   1.049 -0.1322 -1.8473 -0.7782
  511ACTN    C2 5567   2.591   3.145   0.980 -0.0747  0.3630 -0.8885
  511ACTN    O1 5568   2.524   3.189   0.885 -0.0103 -0.0204  0.1867
  511ACTN    C1 5569   2.517   3.124   1.109 -0.2577  1.0122 -0.3838
  511ACTN    H1 5570   2.579   3.186   1.174 -0.6764  1.1656 -0.1278
  511ACTN    H2 5571   2.521   3.020   1.142  0.2762  1.8959  2.4939
  511ACTN    H3 5572   2.413   3.158   1.106 -0.9032 -0.6951  1.5717
  512ACTN    H6 5573   6.239   0.730   3.497  2.9671 -0.1598  0.2529
  512ACTN    C3 5574   6.228   0.707   3.391 -0.7982  0.0694  0.5375
  512ACTN    H4 5575   6.281   0.789   3.343 -0.6041 -1.3891 -1.8753
  512ACTN    H5 5576   6.295   0.627   3.359 -1.0556 -0.0273  0.2363
  512ACTN    C2 5577   6.084   0.685   3.339  0.2965  0.1702  0.5736
  512ACTN    O1 5578   6.012   0.780   3.307  0.1697  0.3569 -0.5279
  512ACTN    C1 5579   6.013   0.556   3.359 -0.6113 -0.2745  0.4801
  512ACTN    H1 5580   5.929   0.553   3.428 -1.0603 -1.6149 -0.1067
  512ACTN    H2 5581   6.089   0.494   3.407 -0.0379  0.5474  0.6376
  512ACTN    H3 5582   5.973   0.503   3.272  1.1234  1.2159 -1.2620
  513ACTN    H6 5583   3.129   4.637   2.795 -2.6312 -0.3697 -0.8325
  513ACTN    C3 5584   3.119   4.705   2.880  0.4614 -0.0250 -0.7068
  513ACTN    H4 5585   3.135   4.651   2.973 -2.2427  0.2244 -0.0665
  513ACTN    H5 5586   3.195   4.782   2.871  0.8600 -0.1689  1.2467
  513ACTN    C2 5587   2.991   4.781   2.887  0.7020  0.0532  0.6290
  513ACTN    O1 5588   2.978   4.904   2.870  0.2969 -0.3975 -0.2513
  513ACTN    C1 5589   2.873   4.706   2.915  1.0156 -0.9289 -0.4196
  513ACTN    H1 5590   2.809   4.706   2.828 -0.3396  1.8186  0.5176
  513ACTN    H2 5591   2.822   4.745   3.003  0.9916  0.6713 -1.1433
  513ACTN    H3 5592   2.901   4.600   2.925  0.6383 -1.1369 -1.5916
  514ACTN    H6 5593   5.617   1.982   5.166  0.1017  0.9782  0.7548
  514ACTN    C3 5594   5.539   2.056   5.144 -0.5493  0.1922  0.3739
  514ACTN    H4 5595   5.452   2.001   5.107  0.7759  0.8929 -4.0548
  514ACTN    H5 5596   5.573   2.125   5.067  1.0203 -1.0846 -0.1022
  514ACTN    C2 5597   5.495   2.125   5.273  0.0641  0.3460  0.6582
  514ACTN    O1 5598   5.397   2.202   5.277 -0.2446 -0.9014 -0.5653
  514ACTN    C1 5599   5.583   2.111   5.389  0.4084  0.0805  0.2292
  514ACTN    H1 5600   5.685   2.098   5.355 -0.2968 -0.3083 -1.7970
  514ACTN    H2 5601   5.550   2.022   5.443  0.7727 -1.3444 -1.8460
  514ACTN    H3 5602   5.581   2.200   5.452 -0.2768 -1.1730  2.0250
  515ACTN    H6 5603   2.513   7.373   5.777 -0.0871  0.7059  1.0834
  515ACTN    C3 5604   2.510   7.268   5.805  0.5612  0.4379  0.1734
  515ACTN    H4 5605   2.473   7.221   5.713  2.8105  2.6116 -1.8904
  515ACTN    H5 5606   2.613   7.240   5.827  0.6995 -1.1894 -2.3390
  515ACTN    C2 5607   2.439   7.229   5.931  0.1099 -0.0469  0.4966
  515ACTN    O1 5608   2.445   7.117   5.980  0.5633 -0.0390 -0.0392
  515ACTN    C1 5609   2.369   7.338   6.008  0.4867 -0.2797 -0.2089
  515ACTN    H1 5610   2.371   7.431   5.953  2.8931  0.2509  0.7329
  515ACTN    H2 5611   2.428   7.357   6.098  0.8820  1.5107 -0.8299
  515ACTN    H3 5612   2.264   7.308   6.021 -0.0921  1.1983 -1.3949
  516ACTN    H6 5613   1.372   8.533   1.791  0.3276 -0.7988  1.6202
  516ACTN    C3 5614   1.453   8.605   1.799  0.0007 -0.1531 -0.6183
  516ACTN    H4 5615   1.471   8.640   1.697 -0.2157 -2.2878 -1.4223
  516ACTN    H5 5616   1.443   8.679   1.878  0.3091  0.2853 -0.9845
  516ACTN    C2 5617   1.567   8.522   1.837 -0.1575  0.4278 -0.3125
  516ACTN    O1 5618   1.669   8.576   1.878 -0.2407 -0.7100 -0.0137
  516ACTN    C1 5619   1.559   8.374   1.792  0.6466 -0.1153  0.4763
  516ACTN    H1 5620   1.587   8.316   1.880 -0.4726 -2.5155 -0.6956
  516ACTN    H2 5621   1.637   8.356   1.718  0.6150 -4.6026  1.3913
  516ACTN    H3 5622   1.464   8.338   1.751  0.8514 -1.1287  0.8627
  517ACTN    H6 5623   3.882   4.871   6.318  0.3148  0.6972 -0.7805
  517ACTN    C3 5624   3.949   4.864   6.404  0.2169 -0.0961 -0.7652
  517ACTN    H4 5625   4.003   4.769   6.397 -0.2269 -0.3338 -0.9632
  517ACTN    H5 5626   4.023   4.944   6.395  2.7299 -2.4543 -2.0327
  517ACTN    C2 5627   3.886   4.866   6.538  0.1072  0.2714 -0.0431
  517ACTN    O1 5628   3.792   4.790   6.560  0.3747 -0.5077  0.5454
  517ACTN    C1 5629   3.944   4.957   6.641 -0.2478 -0.0116 -0.0469
  517ACTN    H1 5630   3.927   4.920   6.741 -2.2991 -1.3418 -0.8579
  517ACTN    H2 5631   3.899   5.055   6.619  4.5374  2.6352  1.3556
  517ACTN    H3 5632   4.052   4.961   6.628 -0.3110  1.6406 -0.2004
  518ACTN    H6 5633   6.318   8.993   7.463 -0.2831 -0.3561 -0.1006
  518ACTN    C3 5634   6.255   9.082   7.468 -0.1340 -0.2716  0.3128
  518ACTN    H4 5635   6.157   9.051   7.505  0.0709 -1.2507  0.0717
  518ACTN    H5 5636   6.292   9.151   7.543  1.0396 -0.0547 -0.4429
  518ACTN    C2 5637   6.251   9.150   7.336 -0.0971 -0.2910 -0.3700
  518ACTN    O1 5638   6.210   9.099   7.232 -0.1754  0.6457 -0.7041
  518ACTN    C1 5639   6.267   9.298   7.331 -0.9917 -0.4171 -0.0946
  518ACTN    H1 5640   6.228   9.347   7.421  1.3758  1.2137  0.0768
  518ACTN    H2 5641   6.235   9.341   7.236 -1.4261  2.1947  1.1763
  518ACTN    H3 5642   6.374   9.315   7.337 -1.4214  1.9005  2.1071
  519ACTN    H6 5643   7.679   1.889   6.959 -1.2879  2.2120  0.9609
  519ACTN    C3 5644   7.699   1.864   7.063 -0.4363 -0.3880  0.2061
  519ACTN    H4 5645   7.652   1.941   7.124  1.4722  1.4859 -0.6118
  519ACTN    H5 5646   7.661   1.763   7.078 -1.4225  0.3707  2.9166
  519ACTN    C2 5647   7.844   1.868   7.076 -0.5692  0.4655 -0.2446
  519ACTN    O1 5648   7.907   1.970   7.102 -0.3656  0.0393 -0.0393
  519ACTN    C1 5649   7.906   1.740   7.114 -0.7576 -0.1028  0.5385
  519ACTN    H1 5650   8.008   1.740   7.074 -1.2148  0.4381 -0.6518
  519ACTN    H2 5651   7.843   1.665   7.067 -1.2501 -1.0500  2.6643
  519ACTN    H3 5652   7.912   1.722   7.222 -1.3830  2.7101  1.0787
  520ACTN    H6 5653   7.863   4.381   2.586 -0.4903  0.8142 -1.3013
  520ACTN    C3 5654   7.945   4.312   2.562  0.0367  0.9578  0.0129
  520ACTN    H4 5655   7.900   4.249   2.485 -0.9310  1.7658 -0.0979
  520ACTN    H5 5656   8.017   4.373   2.508 -0.5699  0.7675 -1.0347
  520ACTN    C2 5657   8.000   4.232   2.677  0.4587 -0.1004  0.3465
  520ACTN    O1 5658   8.103   4.268   2.733 -0.5370 -0.2948 -0.2922
  520ACTN    C1 5659   7.904   4.131   2.731 -0.5972  0.1501  0.3131
  520ACTN    H1 5660   7.947   4.032   2.745  0.0880  0.7427  2.7471
  520ACTN    H2 5661   7.818   4.125   2.665 -0.3845  2.8091 -0.2749
  520ACTN    H3 5662   7.877   4.170   2.830 -1.3417 -1.0113  0.5764
  521ACTN    H6 5663   5.132   7.657   2.947 -0.9118  2.4971  1.4006
  521ACTN    C3 5664   5.029   7.621   2.949 -0.1996  0.2204 -0.2037
  521ACTN    H4 5665   5.041   7.533   3.012 -0.6401  0.1785 -0.1738
  521ACTN    H5 5666   4.968   7.697   2.998  0.6186  0.0772  1.0654
  521ACTN    C2 5667   4.986   7.574   2.808  0.2925  0.0552  0.1681
  521ACTN    O1 5668   5.056   7.524   2.721 -0.1461  0.0872  0.4797
  521ACTN    C1 5669   4.846   7.615   2.767 -0.1945 -0.0450 -0.3164
  521ACTN    H1 5670   4.776   7.588   2.846 -1.2987  1.8163 -0.6188
  521ACTN    H2 5671   4.821   7.549   2.684  1.4494 -0.4612 -0.4928
  521ACTN    H3 5672   4.848   7.721   2.742 -0.0265  0.1600  0.5611
  522ACTN    H6 5673   4.646   0.127   5.248  0.4758 -3.3841 -0.3802
  522ACTN    C3 5674   4.582   0.133   5.160  0.0450  0.2071  0.0936
  522ACTN    H4 5675   4.480   0.142   5.195 -0.3395 -1.8975 -0.4065
  522ACTN    H5 5676   4.604   0.223   5.102  2.3826 -0.4948 -0.1615
  522ACTN    C2 5677   4.606   0.010   5.071 -0.7095  0.5933 -0.4392
  522ACTN    O1 5678   4.521  -0.067   5.063 -0.2338  0.3873 -0.5735
  522ACTN    C1 5679   4.728  -0.002   4.989  0.9623 -0.0337  0.3038
  522ACTN    H1 5680   4.783   0.092   4.988  1.5169 -0.3506  0.4155
  522ACTN    H2 5681   4.707  -0.035   4.888 -1.4025  4.2287 -0.6899
  522ACTN    H3 5682   4.801  -0.072   5.030  2.0155 -1.1472 -3.2878
  523ACTN    H6 5683   8.411   8.887   7.832 -0.5419 -1.1563 -2.5683
  523ACTN    C3 5684   8.308   8.892   7.865  0.0550  0.1139 -0.7941
  523ACTN    H4 5685   8.293   8.969   7.940 -0.0514 -0.8318  0.1555
  523ACTN    H5 5686   8.241   8.918   7.783 -0.9891  0.7189  0.2349
  523ACTN    C2 5687   8.283   8.757   7.940  0.3201 -0.0603  0.3073
  523ACTN    O1 5688   8.194   8.679   7.909  0.0553 -0.3122 -0.2188
  523ACTN    C1 5689   8.374   8.732   8.052 -0.0579  0.2942  0.3257
  523ACTN    H1 5690   8.417   8.830   8.075 -1.4883  1.1983 -0.7612
  523ACTN    H2 5691   8.452   8.663   8.023  0.0511  0.2589  0.6914
  523ACTN    H3 5692   8.328   8.686   8.140  2.0674 -2.9071 -0.1748
  524ACTN    H6 5693   4.982   1.780   3.687 -0.2450 -2.1383  1.0544
  524ACTN    C3 5694   4.953   1.812   3.787 -0.0523 -0.4493  0.5881
  524ACTN    H4 5695   4.982   1.735   3.859  1.8251 -0.1932  0.1494
  524ACTN    H5 5696   4.846   1.826   3.797 -0.0723  0.3582 -0.6768
  524ACTN    C2 5697   5.019   1.941   3.826  0.0951  0.5110 -0.5342
  524ACTN    O1 5698   5.046   1.956   3.945 -0.1877  0.6743  0.2093
  524ACTN    C1 5699   5.008   2.063   3.741  0.1809 -0.2305  0.2816
  524ACTN    H1 5700   4.977   2.149   3.799 -0.2709  0.5063 -1.0522
  524ACTN    H2 5701   4.934   2.038   3.666  1.5265  1.7828 -1.7511
  524ACTN    H3 5702   5.104   2.078   3.692  0.3445 -1.6883  0.1046
  525ACTN    H6 5703   5.827   7.384   2.107 -2.4484  1.4320 -0.4272
  525ACTN    C3 5704   5.855   7.366   2.003  0.3150  0.1502  0.4855
  525ACTN    H4 5705   5.963   7.380   1.996  0.6223 -1.4083  1.7333
  525ACTN    H5 5706   5.839   7.261   1.978  0.2268  0.7278 -1.9616
  525ACTN    C2 5707   5.784   7.461   1.915 -0.7594  0.2261 -0.6255
  525ACTN    O1 5708   5.819   7.575   1.892 -0.7676  0.1246 -0.3071
  525ACTN    C1 5709   5.654   7.417   1.868  0.1324 -0.9957 -0.1183
  525ACTN    H1 5710   5.630   7.310   1.873 -1.0677 -0.8510 -2.1419
  525ACTN    H2 5711   5.652   7.441   1.762 -0.5631 -1.1114 -0.1309
  525ACTN    H3 5712   5.568   7.465   1.914  0.7539  0.2252 -0.2206
  526ACTN    H6 5713   5.590   2.615   1.956 -0.6491 -2.2902 -0.5791
  526ACTN    C3 5714   5.523   2.605   2.041 -0.1317 -0.2259  0.0764
  526ACTN    H4 5715   5.578   2.610   2.135  1.5847 -1.6628 -0.8237
  526ACTN    H5 5716   5.447   2.684   2.039 -1.2797 -1.3473 -0.9068
  526ACTN    C2 5717   5.449   2.475   2.024  0.4042 -1.2271  0.1853
  526ACTN    O1 5718   5.361   2.466   1.932 -0.6583 -0.0101 -0.1208
  526ACTN    C1 5719   5.450   2.376   2.129  0.0719 -0.2924  1.0823
  526ACTN    H1 5720   5.504   2.407   2.218 -0.0977  1.3942  0.6218
  526ACTN    H2 5721   5.495   2.281   2.102 -1.7480 -1.0451  0.5783
  526ACTN    H3 5722   5.352   2.367   2.177 -0.5553  3.7298  0.7342
  527ACTN    H6 5723   6.512   8.605   5.040  1.2310  0.0497 -1.1842
  527ACTN    C3 5724   6.510   8.701   4.989  0.2756  0.2056 -0.8623
  527ACTN    H4 5725   6.511   8.681   4.882  0.2199 -1.5485 -0.5472
  527ACTN    H5 5726   6.416   8.746   5.020  0.5020  0.1579 -0.0732
  527ACTN    C2 5727   6.633   8.763   5.030 -0.0735  0.0445 -0.2542
  527ACTN    O1 5728   6.628   8.880   5.056  0.7903 -0.7430  0.3822
  527ACTN    C1 5729   6.759   8.693   4.989 -1.1475 -0.0740 -0.1715
  527ACTN    H1 5730   6.821   8.760   4.930 -0.5612 -1.2290 -0.8809
  527ACTN    H2 5731   6.737   8.600   4.936 -0.9794  1.1951 -2.5544
  527ACTN    H3 5732   6.815   8.656   5.075  0.0036  0.8204 -0.5246
  528ACTN    H6 5733   1.308   3.013   2.918 -0.3897 -4.9608 -0.9323
  528ACTN    C3 5734   1.402   2.983   2.965  0.6026 -0.4902  0.1070
  528ACTN    H4 5735   1.418   3.029   3.063  2.0742  1.2801 -0.9229
  528ACTN    H5 5736   1.400   2.875   2.976 -2.3329 -0.3356  1.6742
  528ACTN    C2 5737   1.522   3.021   2.874  0.3510  0.2501 -0.5540
  528ACTN    O1 5738   1.639   3.028   2.917  0.9438 -0.5896 -0.0693
  528ACTN    C1 5739   1.496   3.082   2.744 -0.1450 -0.1073  0.3822
  528ACTN    H1 5740   1.588   3.115   2.696 -0.4583  1.3657  0.7748
  528ACTN    H2 5741   1.431   3.168   2.759  0.3634  0.2100  0.7897
  528ACTN    H3 5742   1.439   3.019   2.676 -1.5358 -0.7805  2.1221
  529ACTN    H6 5743   1.252   0.029   2.687 -0.5172  2.3891 -1.9176
  529ACTN    C3 5744   1.315  -0.029   2.619 -0.1032  0.3714  0.1333
  529ACTN    H4 5745   1.248  -0.065   2.542 -0.6175 -1.2890  1.3425
  529ACTN    H5 5746   1.360  -0.111   2.675  1.1974  0.7904 -0.2841
  529ACTN    C2 5747   1.427   0.053   2.562  0.1249  0.0718 -0.9187
  529ACTN    O1 5748   1.500  -0.001   2.476  0.5574 -0.3882  0.1175
  529ACTN    C1 5749   1.435   0.199   2.606 -0.0322 -0.1486 -0.1524
  529ACTN    H1 5750   1.481   0.260   2.529  0.1758  1.5291  1.2574
  529ACTN    H2 5751   1.478   0.216   2.705 -2.2802 -2.5948  1.2981
  529ACTN    H3 5752   1.338   0.249   2.620  0.3226  0.7085 -0.7291
  530ACTN    H6 5753   2.737   3.150   6.910  0.0953 -0.2094  0.5573
  530ACTN    C3 5754   2.795   3.242   6.904 -0.2262  0.0013  0.6805
  530ACTN    H4 5755   2.896   3.201   6.912  1.0306  2.1106 -3.2845
  530ACTN    H5 5756   2.776   3.281   6.804 -0.8239  0.8577  1.1244
  530ACTN    C2 5757   2.758   3.343   7.007  0.1005  0.1460  0.2753
  530ACTN    O1 5758   2.709   3.449   6.975 -0.0228  0.0366  0.1474
  530ACTN    C1 5759   2.785   3.306   7.154  0.0545  0.2335 -0.8180
  530ACTN    H1 5760   2.880   3.254   7.160 -0.2492 -0.3800 -1.2641
  530ACTN    H2 5761   2.710   3.241   7.198  0.8229 -0.1092 -0.0144
  530ACTN    H3 5762   2.793   3.393   7.219  0.4559 -2.1004  2.3345
  531ACTN    H6 5763   7.338   7.940   4.681 -1.0520  0.1782 -0.8924
  531ACTN    C3 5764   7.431   7.929   4.624 -0.4069 -0.4835  0.2734
  531ACTN    H4 5765   7.416   7.850   4.551 -1.3542  0.8460 -1.0099
  531ACTN    H5 5766   7.458   8.019   4.570 -1.5443 -1.7777 -2.5399
  531ACTN    C2 5767   7.548   7.884   4.714  0.0595  0.1438 -0.4085
  531ACTN    O1 5768   7.527   7.888   4.836 -0.2549 -0.1307 -0.6304
  531ACTN    C1 5769   7.680   7.860   4.647 -0.2130 -0.0108 -0.5301
  531ACTN    H1 5770   7.681   7.758   4.610  3.5904 -0.7439  1.3652
  531ACTN    H2 5771   7.764   7.876   4.714 -1.0359  0.6012  0.3793
  531ACTN    H3 5772   7.695   7.923   4.560 -0.8230 -0.0516 -0.6707
  532ACTN    H6 5773   4.316   3.908   4.464 -0.6880 -0.6838 -0.9892
  532ACTN    C3 5774   4.354   3.982   4.393  0.1884 -0.2983 -0.1418
  532ACTN    H4 5775   4.327   3.950   4.292  3.3725  1.1178 -1.5097
  532ACTN    H5 5776   4.303   4.075   4.418  0.2064 -1.3738  4.3118
  532ACTN    C2 5777   4.495   3.994   4.388 -0.7369 -0.5151 -0.4233
  532ACTN    O1 5778   4.547   4.075   4.471  0.4918 -0.0673 -0.7318
  532ACTN    C1 5779   4.574   3.971   4.260  0.2980 -0.4610 -0.1798
  532ACTN    H1 5780   4.681   3.971   4.283  0.3952  2.4014 -0.5120
  532ACTN    H2 5781   4.556   4.058   4.197 -0.9717 -0.5473  0.0610
  532ACTN    H3 5782   4.537   3.881   4.212  1.2359 -0.8729 -0.1471
  533ACTN    H6 5783   6.945   0.185   1.189 -0.6785 -0.1342  0.5420
  533ACTN    C3 5784   6.921   0.140   1.285  0.3765 -0.0856  0.8413
  533ACTN    H4 5785   6.815   0.153   1.308  0.3488  1.8042 -0.2749
  533ACTN    H5 5786   6.935   0.032   1.285  1.9000  0.1070 -0.3406
  533ACTN    C2 5787   7.003   0.204   1.382 -0.2446  0.1696 -0.3953
  533ACTN    O1 5788   6.969   0.304   1.451  0.4502  0.3651  0.4184
  533ACTN    C1 5789   7.145   0.159   1.385  0.2402  0.0528 -0.3483
  533ACTN    H1 5790   7.209   0.241   1.351 -1.0087  1.6362  1.0416
  533ACTN    H2 5791   7.157   0.072   1.320  0.2381  0.3610 -0.7655
  533ACTN    H3 5792   7.171   0.123   1.485 -2.4564 -1.2034 -0.0670
  534ACTN    H6 5793   7.096   7.573   2.279 -0.1063  2.3867  0.6985
  534ACTN    C3 5794   7.165   7.555   2.362 -0.4916  0.1358  0.5635
  534ACTN    H4 5795   7.156   7.639   2.431 -1.6885 -1.8184  2.8692
  534ACTN    H5 5796   7.133   7.463   2.411  0.8506 -0.3876  0.4797
  534ACTN    C2 5797   7.310   7.535   2.317  0.3028  1.0611  0.1410
  534ACTN    O1 5798   7.388   7.606   2.370  0.7817  0.2385  0.5203
  534ACTN    C1 5799   7.338   7.466   2.184  0.0455  0.5392 -0.6206
  534ACTN    H1 5800   7.443   7.467   2.156 -0.0760  1.5862 -1.0499
  534ACTN    H2 5801   7.282   7.506   2.099 -0.1995 -1.2701 -1.3353
  534ACTN    H3 5802   7.309   7.361   2.182  1.2048  0.2158 -1.4695
  535ACTN    H6 5803   3.142   8.473   1.041  1.0937  1.8270  0.4167
  535ACTN    C3 5804   3.194   8.426   1.124  0.0065  0.0682  0.1271
  535ACTN    H4 5805   3.300   8.453   1.127  0.3618 -1.2854  0.2685
  535ACTN    H5 5806   3.152   8.475   1.212 -0.5453 -1.1674  0.5688
  535ACTN    C2 5807   3.175   8.272   1.133  0.6719 -0.4763 -0.3220
  535ACTN    O1 5808   3.234   8.204   1.215  0.1435 -0.0773 -0.2386
  535ACTN    C1 5809   3.073   8.214   1.031 -0.3168 -0.8252  1.3214
  535ACTN    H1 5810   3.068   8.106   1.027 -1.4444 -0.7653  1.0453
  535ACTN    H2 5811   3.102   8.260   0.937 -2.1648 -0.4875  0.8954
  535ACTN    H3 5812   2.967   8.238   1.038 -0.4359  1.1228 -4.6809
  536ACTN    H6 5813   5.385   5.804   0.258 -0.4628 -0.6353  1.1870
  536ACTN    C3 5814   5.298   5.868   0.243  0.0050 -0.2006  0.2751
  536ACTN    H4 5815   5.318   5.962   0.295  1.4353 -0.1635 -0.3366
  536ACTN    H5 5816   5.295   5.880   0.135  1.1237 -2.3560 -0.0222
  536ACTN    C2 5817   5.171   5.810   0.300  0.0361 -0.1400  0.2995
  536ACTN    O1 5818   5.175   5.772   0.415  0.2819 -0.4823  0.1942
  536ACTN    C1 5819   5.047   5.806   0.219  0.2636 -0.3484  0.0840
  536ACTN    H1 5820   4.993   5.712   0.219 -0.5000  0.0395  2.8374
  536ACTN    H2 5821   5.071   5.832   0.116 -0.7993  3.2277  0.6391
  536ACTN    H3 5822   4.986   5.887   0.260  0.5950  0.2872 -0.6556
  537ACTN    H6 5823   0.082   1.981   8.335  0.8802  0.1513  0.4236
  537ACTN    C3 5824   0.053   2.057   8.263  0.4818 -0.2823  0.1256
  537ACTN    H4 5825  -0.049   2.029   8.234  0.6264 -1.0147  0.3323
  537ACTN    H5 5826   0.057   2.152   8.317  0.6045  1.8935 -3.5223
  537ACTN    C2 5827   0.144   2.048   8.146 -0.3066  0.3733 -0.3038
  537ACTN    O1 5828   0.110   2.094   8.043  0.4005  0.3131 -0.0809
  537ACTN    C1 5829   0.263   1.952   8.161 -0.0873 -0.0462  0.0952
  537ACTN    H1 5830   0.319   1.973   8.252 -1.5163  0.1614  0.9468
  537ACTN    H2 5831   0.331   1.958   8.077 -0.0721  1.1009  0.1712
  537ACTN    H3 5832   0.228   1.849   8.164 -1.9172  0.5906  3.3620
  538ACTN    H6 5833   0.561   2.167   2.394  0.3758  2.3233 -1.5420
  538ACTN    C3 5834   0.608   2.225   2.473  0.1688  0.3817  0.0535
  538ACTN    H4 5835   0.553   2.319   2.476  0.2222  0.4243 -0.2501
  538ACTN    H5 5836   0.594   2.169   2.566 -1.6666  3.1580  1.4974
  538ACTN    C2 5837   0.750   2.272   2.444  1.1196  0.1279  0.4892
  538ACTN    O1 5838   0.825   2.298   2.537  0.4186 -0.5021  0.4110
  538ACTN    C1 5839   0.805   2.277   2.306  0.9748  0.1384 -0.4405
  538ACTN    H1 5840   0.906   2.318   2.303  1.5701 -0.9004  3.1785
  538ACTN    H2 5841   0.735   2.331   2.243  0.0719 -0.3930  0.0938
  538ACTN    H3 5842   0.818   2.176   2.265 -0.4677  0.1980 -1.0702
  539ACTN    H6 5843   5.745   4.671   5.266 -1.5361 -0.8046  1.9360
  539ACTN    C3 5844   5.763   4.564   5.267  0.2727 -0.5494  0.2717
  539ACTN    H4 5845   5.749   4.536   5.163 -0.3322  2.3378 -0.4740
  539ACTN    H5 5846   5.864   4.544   5.302  0.1333 -2.0152 -0.1027
  539ACTN    C2 5847   5.655   4.500   5.348 -0.4153  0.6361 -0.0026
  539ACTN    O1 5848   5.631   4.384   5.330 -0.9145  0.1243 -0.4731
  539ACTN    C1 5849   5.572   4.594   5.429 -0.1964  0.5677  0.6071
  539ACTN    H1 5850   5.533   4.665   5.357  2.6900  1.2750 -0.2796
  539ACTN    H2 5851   5.628   4.651   5.503 -0.7524 -1.2901  2.5500
  539ACTN    H3 5852   5.482   4.548   5.472 -0.1202 -1.3187 -1.1573
  540ACTN    H6 5853   2.380   7.010   6.424  0.2804 -1.5429 -0.7304
  540ACTN    C3 5854   2.462   7.055   6.367  0.0309 -0.1464 -0.0080
  540ACTN    H4 5855   2.550   7.003   6.402 -0.3334 -0.3772  0.5722
  540ACTN    H5 5856   2.460   7.036   6.260 -1.0770  1.7417 -0.3469
  540ACTN    C2 5857   2.463   7.206   6.379 -0.0753 -0.1035  0.1681
  540ACTN    O1 5858   2.569   7.265   6.406  0.4981 -0.6155 -0.1932
  540ACTN    C1 5859   2.328   7.271   6.383 -0.4095  0.0354 -0.0093
  540ACTN    H1 5860   2.254   7.213   6.437 -0.4096 -0.5366 -0.6275
  540ACTN    H2 5861   2.304   7.323   6.290 -0.8926  1.1864  0.7445
  540ACTN    H3 5862   2.343   7.355   6.452 -0.6609  1.3332 -1.5169
  541ACTN    H6 5863   2.474   5.468   7.599  0.8850  2.1506 -0.6834
  541ACTN    C3 5864   2.571   5.427   7.626 -0.0114  0.4639  0.0439
  541ACTN    H4 5865   2.561   5.393   7.729 -1.6632 -0.5720 -0.4440
  541ACTN    H5 5866   2.651   5.502   7.622  2.3218 -1.8444  1.3620
  541ACTN    C2 5867   2.603   5.315   7.525 -0.4097 -0.0196 -0.1474
  541ACTN    O1 5868   2.639   5.350   7.412  0.1395 -0.2800  0.0941
  541ACTN    C1 5869   2.546   5.180   7.547  0.4789  0.3720 -0.0723
  541ACTN    H1 5870   2.570   5.134   7.643 -1.6271  0.1708  0.3778
  541ACTN    H2 5871   2.592   5.110   7.478 -0.0049  0.8471 -0.8789
  541ACTN    H3 5872   2.439   5.182   7.526  0.3817  0.0128  0.3698
  542ACTN    H6 5873   1.431   4.844   7.118 -0.1747 -0.6971  0.6148
  542ACTN    C3 5874   1.353   4.877   7.188  0.0567  1.2231 -0.0002
  542ACTN    H4 5875   1.263   4.818   7.168  0.0879  0.3272  2.3532
  542ACTN    H5 5876   1.377   4.849   7.290  0.3782  2.0530  0.1516
  542ACTN    C2 5877   1.331   5.028   7.171  0.0426  0.1797 -0.3660
  542ACTN    O1 5878   1.264   5.070   7.077 -0.1933  0.2117  0.3020
  542ACTN    C1 5879   1.382   5.109   7.286 -0.1925  0.1031  0.4238
  542ACTN    H1 5880   1.420   5.052   7.370 -0.1207 -0.2572  0.1451
  542ACTN    H2 5881   1.308   5.184   7.315 -1.1856 -1.1848  1.2948
  542ACTN    H3 5882   1.466   5.167   7.248 -0.1290 -0.7370 -0.7384
  543ACTN    H6 5883   0.520   2.178   4.277  0.2105  0.7923 -1.2679
  543ACTN    C3 5884   0.604   2.111   4.256  0.3184  0.6307 -0.3286
  543ACTN    H4 5885   0.595   2.055   4.163  2.5213  1.8837 -1.3099
  543ACTN    H5 5886   0.691   2.176   4.251 -0.4304  1.8490  1.7052
  543ACTN    C2 5887   0.611   2.011   4.370  0.6541 -0.3614  0.2483
  543ACTN    O1 5888   0.528   1.922   4.379  0.1441  0.2458  0.4679
  543ACTN    C1 5889   0.710   2.027   4.476 -0.0364  0.5792  0.0920
  543ACTN    H1 5890   0.776   1.940   4.478  0.3227  0.8570  0.6447
  543ACTN    H2 5891   0.657   2.020   4.571 -0.7419 -5.1054 -0.5577
  543ACTN    H3 5892   0.761   2.123   4.462  0.6165  0.3229  0.6558
  544ACTN    H6 5893   3.855   3.146   3.597 -1.0652  0.7866 -2.0731
  544ACTN    C3 5894   3.866   3.251   3.623 -0.1313  0.3868 -0.8047
  544ACTN    H4 5895   3.957   3.295   3.580  0.0816  1.2037  0.4626
  544ACTN    H5 5896   3.786   3.302   3.570  0.0960  2.3555  0.6951
  544ACTN    C2 5897   3.865   3.276   3.776  0.1703 -0.1741  0.8686
  544ACTN    O1 5898   3.790   3.349   3.833 -0.1297 -0.6591 -0.6150
  544ACTN    C1 5899   3.979   3.206   3.849 -0.0428 -0.2336  0.9238
  544ACTN    H1 5900   3.944   3.165   3.944  0.0752  0.8591  1.4443
  544ACTN    H2 5901   4.043   3.292   3.871 -1.0479  0.5081  0.9511
  544ACTN    H3 5902   4.033   3.128   3.796 -0.9929  1.1526 -2.2204
  545ACTN    H6 5903   4.799   1.104   3.641 -0.2252 -0.3963  0.7506
  545ACTN    C3 5904   4.882   1.055   3.591 -0.6457 -0.5502  0.1959
  545ACTN    H4 5905   4.876   0.950   3.620  1.5704 -0.8077 -0.2160
  545ACTN    H5 5906   4.852   1.055   3.487 -0.1658 -0.7151  0.0585
  545ACTN    C2 5907   5.013   1.120   3.624  0.0948 -0.1718 -0.3037
  545ACTN    O1 5908   5.070   1.086   3.725 -0.3692 -0.3406 -0.0774
  545ACTN    C1 5909   5.085   1.197   3.518  0.1027  0.4641  0.0489
  545ACTN    H1 5910   5.187   1.214   3.551  0.7376 -2.6849 -0.1925
  545ACTN    H2 5911   5.029   1.288   3.494 -4.5906 -2.6927 -1.6213
  545ACTN    H3 5912   5.089   1.146   3.422 -0.4067 -0.1200  0.3300
  546ACTN    H6 5913   0.600   3.889   5.917  0.3878 -0.7854  0.5883
  546ACTN    C3 5914   0.569   3.788   5.889 -1.0255 -0.1975 -0.0407
  546ACTN    H4 5915   0.536   3.743   5.983 -0.9123  2.3979  1.2701
  546ACTN    H5 5916   0.653   3.729   5.852 -0.3529  1.7047 -1.5739
  546ACTN    C2 5917   0.454   3.789   5.792  0.2770 -0.5828  0.1907
  546ACTN    O1 5918   0.342   3.773   5.832 -0.0420  0.0347  0.4847
  546ACTN    C1 5919   0.468   3.841   5.652  0.2244  1.6459  0.3612
  546ACTN    H1 5920   0.401   3.926   5.643  1.2448  2.2590 -1.4634
  546ACTN    H2 5921   0.429   3.766   5.584  0.0262 -0.5431  2.7745
  546ACTN    H3 5922   0.571   3.852   5.618  0.6549 -1.3546  0.4876
  547ACTN    H6 5923   5.880   3.925   2.644 -0.1207  0.2337  2.2148
  547ACTN    C3 5924   5.783   3.976   2.640  0.0595  0.5142  1.1821
  547ACTN    H4 5925   5.702   3.903   2.645 -0.7053  1.2491 -0.3494
  547ACTN    H5 5926   5.771   4.029   2.735 -2.0757  2.5955 -0.2230
  547ACTN    C2 5927   5.775   4.067   2.525  0.0676  0.4276  0.5255
  547ACTN    O1 5928   5.858   4.153   2.521  0.5342 -0.1877 -1.1140
  547ACTN    C1 5929   5.672   4.057   2.413  0.7752  0.2314  0.4764
  547ACTN    H1 5930   5.695   3.976   2.344 -0.7204  0.1170  0.0991
  547ACTN    H2 5931   5.662   4.149   2.355  1.1945  0.4162  0.6907
  547ACTN    H3 5932   5.581   4.032   2.468  0.5367 -0.1987 -0.1095
  548ACTN    H6 5933   6.220   8.386   3.070  3.5163 -0.2684 -0.7312
  548ACTN    C3 5934   6.240   8.468   3.138 -0.0321  0.0118  0.0841
  548ACTN    H4 5935   6.242   8.562   3.081 -1.0624  0.2253  0.3947
  548ACTN    H5 5936   6.163   8.493   3.211  2.1916  0.7087  2.2791
  548ACTN    C2 5937   6.377   8.452   3.178 -1.5487 -0.2783  0.4376
  548ACTN    O1 5938   6.409   8.352   3.244 -0.5860  0.2909 -0.6171
  548ACTN    C1 5939   6.477   8.565   3.165  0.3290  0.4052 -0.4089
  548ACTN    H1 5940   6.429   8.660   3.190  1.8281  1.2983 -0.8645
  548ACTN    H2 5941   6.501   8.562   3.059 -1.4962 -5.2269 -0.8307
  548ACTN    H3 5942   6.570   8.546   3.219 -0.6250  0.6134  1.3580
  549ACTN    H6 5943   4.240   7.255   7.134 -1.9635  0.1937  2.0598
  549ACTN    C3 5944   4.184   7.161   7.133 -0.4890 -0.6918  0.0903
  549ACTN    H4 5945   4.149   7.151   7.030  1.0742  3.1420 -0.9448
  549ACTN    H5 5946   4.250   7.079   7.161 -2.0084 -1.6633  0.8340
  549ACTN    C2 5947   4.068   7.181   7.226  0.6961 -0.2931 -0.1386
  549ACTN    O1 5948   4.084   7.183   7.351  0.4340  0.2099  0.0336
  549ACTN    C1 5949   3.934   7.195   7.159  0.3676 -0.0653  0.0336
  549ACTN    H1 5950   3.911   7.092   7.131 -0.9298 -0.1476  1.3063
  549ACTN    H2 5951   3.953   7.264   7.077 -0.8283 -1.5982 -1.5801
  549ACTN    H3 5952   3.856   7.232   7.227 -2.1604 -2.4116 -1.4618
  550ACTN    H6 5953   7.492   8.398   2.814  1.2384 -0.7878  0.0949
  550ACTN    C3 5954   7.470   8.359   2.914  0.3963 -0.1924  0.1415
  550ACTN    H4 5955   7.520   8.411   2.995  0.0193  0.6760 -0.1684
  550ACTN    H5 5956   7.503   8.256   2.921 -1.8237 -0.9557 -0.1516
  550ACTN    C2 5957   7.321   8.378   2.936  0.4817 -0.0280  0.1900
  550ACTN    O1 5958   7.282   8.478   2.991 -0.0833  0.1761  0.3955
  550ACTN    C1 5959   7.230   8.260   2.927 -0.8549  0.4738  0.0628
  550ACTN    H1 5960   7.219   8.216   3.026 -0.4644 -0.5262 -0.3291
  550ACTN    H2 5961   7.279   8.185   2.866  0.3720 -0.7380  2.4850
  550ACTN    H3 5962   7.133   8.295   2.890 -0.0991  2.8881  0.3091
  551ACTN    H6 5963   1.445   6.983   5.547 -0.7881 -2.0251 -2.0472
  551ACTN    C3 5964   1.507   7.051   5.489 -0.3677 -0.0081  0.6341
  551ACTN    H4 5965   1.586   6.989   5.446 -3.1663 -1.5741 -2.5469
  551ACTN    H5 5966   1.558   7.117   5.558 -0.7664  0.8888  0.0798
  551ACTN    C2 5967   1.444   7.114   5.375  0.2218 -1.0610  0.6081
  551ACTN    O1 5968   1.367   7.058   5.296 -0.2232 -0.4834  0.1540
  551ACTN    C1 5969   1.460   7.261   5.369  0.4293  0.0698 -0.5454
  551ACTN    H1 5970   1.421   7.292   5.272  0.2836  3.3641  0.5243
  551ACTN    H2 5971   1.566   7.286   5.375  0.5337 -0.0208 -1.9427
  551ACTN    H3 5972   1.410   7.302   5.456 -0.5090  0.8427 -1.4485
  552ACTN    H6 5973   0.485   0.953   2.598  0.5117 -0.3660  0.5547
  552ACTN    C3 5974   0.443   0.895   2.515  0.3444 -0.0434  0.4164
  552ACTN    H4 5975   0.516   0.898   2.435 -1.0721 -0.1975 -0.9014
  552ACTN    H5 5976   0.431   0.790   2.540  1.0145 -0.4808 -1.0678
  552ACTN    C2 5977   0.317   0.958   2.465  0.2616 -0.2979 -0.1182
  552ACTN    O1 5978   0.209   0.924   2.506 -0.3738  0.4494  0.6804
  552ACTN    C1 5979   0.329   1.074   2.366 -0.3538 -0.7839  0.2289
  552ACTN    H1 5980   0.372   1.047   2.270  0.8962  1.0010  0.2705
  552ACTN    H2 5981   0.368   1.167   2.407 -3.7028  0.3616  0.9956
  552ACTN    H3 5982   0.227   1.107   2.342  0.4982  0.4374 -1.8056
  553ACTN    H6 5983   8.944   0.124   7.285 -0.7404  0.1088 -0.5454
  553ACTN    C3 5984   8.944   0.194   7.368  0.8457 -0.1388 -0.3156
  553ACTN    H4 5985   9.026   0.165   7.434  0.9292 -0.3658 -0.5221
  553ACTN    H5 5986   8.972   0.295   7.337  0.9564  0.4551  1.6042
  553ACTN    C2 5987   8.814   0.195   7.435  0.6696 -0.0525  0.2810
  553ACTN    O1 5988   8.804   0.249   7.542  0.0227 -0.0753  0.1853
  553ACTN    C1 5989   8.697   0.116   7.384  0.5359 -0.0985 -0.7368
  553ACTN    H1 5990   8.598   0.160   7.374  0.7271  0.5823  0.2594
  553ACTN    H2 5991   8.681   0.043   7.464  2.1943 -0.2546 -0.5198
  553ACTN    H3 5992   8.721   0.055   7.297  2.7539 -2.0535  1.1386
  554ACTN    H6 5993   8.833   7.381   1.211  1.1500  1.5784  0.6946
  554ACTN    C3 5994   8.917   7.359   1.146  0.2105  0.4095 -0.1434
  554ACTN    H4 5995   8.949   7.450   1.097  4.2148 -0.1310  1.2803
  554ACTN    H5 5996   8.882   7.290   1.069  3.1991 -0.5605 -0.6894
  554ACTN    C2 5997   9.023   7.284   1.214  0.5985  1.0349 -0.4718
  554ACTN    O1 5998   9.038   7.164   1.196 -0.1227 -0.5975 -0.4636
  554ACTN    C1 5999   9.138   7.353   1.284  0.0414  0.6671 -0.6429
  554ACTN    H1 6000   9.116   7.455   1.313  2.5624  1.2842 -0.8049
  554ACTN    H2 6001   9.221   7.350   1.214  2.0635 -0.2498  1.6872
  554ACTN    H3 6002   9.179   7.307   1.375  1.3427  2.0354 -0.5317
  555ACTN    H6 6003   0.453   0.481   1.258  2.0251  1.9117  3.4983
  555ACTN    C3 6004   0.354   0.466   1.301  0.6933  0.3915  0.0859
  555ACTN    H4 6005   0.362   0.468   1.410  0.5841 -0.1188  0.1080
  555ACTN    H5 6006   0.283   0.545   1.277 -1.2611 -0.7202  1.9708
  555ACTN    C2 6007   0.298   0.335   1.263 -0.2107  0.6771  0.3581
  555ACTN    O1 6008   0.308   0.291   1.145 -0.1135  0.4153  0.6265
  555ACTN    C1 6009   0.243   0.242   1.367  0.0836  0.3278  0.3709
  555ACTN    H1 6010   0.321   0.181   1.412  0.7898  0.2926 -0.8851
  555ACTN    H2 6011   0.175   0.167   1.325  1.2913 -1.6778  1.8909
  555ACTN    H3 6012   0.199   0.306   1.443  0.0046  0.4432  0.2278
  556ACTN    H6 6013   6.539   2.998   1.116 -0.3398 -0.9263 -0.4290
  556ACTN    C3 6014   6.480   2.919   1.070  0.0436 -1.0683 -0.6846
  556ACTN    H4 6015   6.458   2.947   0.967 -0.9171  1.5746  0.1917
  556ACTN    H5 6016   6.551   2.838   1.057  0.9463 -0.3770 -0.1420
  556ACTN    C2 6017   6.367   2.875   1.144 -0.3668  0.5234  0.1962
  556ACTN    O1 6018   6.373   2.769   1.209 -0.4660  0.4654 -0.2779
  556ACTN    C1 6019   6.251   2.966   1.150  0.8462  0.1520 -0.7075
  556ACTN    H1 6020   6.269   3.044   1.224  0.0573 -0.3551  0.0356
  556ACTN    H2 6021   6.156   2.914   1.161  0.3901  1.0322 -0.4383
  556ACTN    H3 6022   6.241   3.009   1.051 -3.2276  3.1417  0.8242
  557ACTN    H6 6023   6.638   6.740   5.097 -0.4899 -0.7875 -0.4386
  557ACTN    C3 6024   6.584   6.740   5.002 -0.2973 -0.2334 -0.5495
  557ACTN    H4 6025   6.641   6.697   4.919 -1.7795 -1.3201 -1.0179
  557ACTN    H5 6026   6.490   6.687   5.011 -0.9084  1.1698  1.7470
  557ACTN    C2 6027   6.535   6.874   4.950 -0.3282  0.0768 -0.0097
  557ACTN    O1 6028   6.482   6.886   4.842  0.2903  0.2716  0.0398
  557ACTN    C1 6029   6.552   6.996   5.038  0.1382 -0.4091 -0.3089
  557ACTN    H1 6030   6.504   7.083   4.993 -0.2013 -1.5791 -2.3119
  557ACTN    H2 6031   6.658   7.012   5.054  0.2320 -0.5958 -0.7351
  557ACTN    H3 6032   6.505   6.970   5.133  1.4642 -1.3801  0.1078
  558ACTN    H6 6033   1.501   4.148   5.906 -2.4063 -0.6990  2.6809
  558ACTN    C3 6034   1.438   4.230   5.872 -0.1455 -0.2031 -0.5823
  558ACTN    H4 6035   1.454   4.316   5.938 -0.8084 -0.6150  0.1216
  558ACTN    H5 6036   1.464   4.268   5.773 -0.5292  0.5694 -0.3933
  558ACTN    C2 6037   1.291   4.195   5.886  0.1312  1.4746 -0.6820
  558ACTN    O1 6038   1.200   4.225   5.813 -0.5079 -0.0042  0.1747
  558ACTN    C1 6039   1.264   4.089   5.997  0.0311 -0.8598  0.2146
  558ACTN    H1 6040   1.170   4.037   5.981  1.3356 -2.4459 -2.8880
  558ACTN    H2 6041   1.273   4.143   6.091 -1.8069  0.0735 -0.1299
  558ACTN    H3 6042   1.345   4.016   5.997  0.7678 -0.1010 -1.8839
  559ACTN    H6 6043   0.389   3.367   0.339 -1.4838  2.3680  0.8992
  559ACTN    C3 6044   0.336   3.321   0.422 -0.3836  0.5600  0.6164
  559ACTN    H4 6045   0.228   3.327   0.406 -0.2102  1.1329 -0.3802
  559ACTN    H5 6046   0.358   3.214   0.425 -2.0332  0.2010  0.5277
  559ACTN    C2 6047   0.378   3.382   0.556  0.2303  0.0706  0.2368
  559ACTN    O1 6048   0.399   3.317   0.658  0.0926 -0.1391 -0.4830
  559ACTN    C1 6049   0.363   3.523   0.580  0.5599 -0.4285 -0.2305
  559ACTN    H1 6050   0.325   3.568   0.488  0.4631  0.1186  0.0705
  559ACTN    H2 6051   0.463   3.562   0.599  0.6212 -1.5704  1.9088
  559ACTN    H3 6052   0.293   3.537   0.662 -0.8419 -0.0146 -1.4870
  560ACTN    H6 6053   3.177   5.915   7.699  1.8276 -0.2356  1.3395
  560ACTN    C3 6054   3.111   5.976   7.760  0.8182  0.3580 -0.2883
  560ACTN    H4 6055   3.160   6.073   7.774 -0.8037  1.3185 -1.2456
  560ACTN    H5 6056   3.018   5.985   7.705  0.3353  0.2318  0.4873
  560ACTN    C2 6057   3.088   5.896   7.886 -0.0331 -0.1030  0.0610
  560ACTN    O1 6058   3.055   5.779   7.886 -0.0824 -0.4739  0.4083
  560ACTN    C1 6059   3.117   5.973   8.017 -0.6322 -0.7134  0.4749
  560ACTN    H1 6060   3.226   5.980   8.022 -0.6736  0.9325 -0.5027
  560ACTN    H2 6061   3.076   5.924   8.105 -2.9653  0.9942  0.3828
  560ACTN    H3 6062   3.077   6.073   8.005 -3.2873 -2.0057 -1.9868
  561ACTN    H6 6063   0.906   2.076   2.764  0.6962 -0.5099  0.3530
  561ACTN    C3 6064   0.867   1.975   2.748  0.1814 -0.2447 -0.0624
  561ACTN    H4 6065   0.792   1.976   2.668 -0.6975 -3.0482  0.6783
  561ACTN    H5 6066   0.952   1.920   2.708  0.6648  0.2830  0.2411
  561ACTN    C2 6067   0.805   1.917   2.876 -0.0244 -0.3198  0.2709
  561ACTN    O1 6068   0.686   1.920   2.896 -0.5327 -0.8522 -0.1595
  561ACTN    C1 6069   0.887   1.823   2.962 -0.4548 -0.2373  0.2776
  561ACTN    H1 6070   0.866   1.846   3.067  2.6863 -0.5493  1.0303
  561ACTN    H2 6071   0.995   1.828   2.945 -0.4423 -1.6933 -0.0973
  561ACTN    H3 6072   0.862   1.719   2.942 -0.2682 -0.5778  1.7371
  562ACTN    H6 6073   5.603   1.139   0.905 -1.7680 -0.1904 -0.0113
  562ACTN    C3 6074   5.605   1.030   0.912 -0.0298 -0.2219 -0.5464
  562ACTN    H4 6075   5.513   0.995   0.960  0.3751 -0.3464  0.1494
  562ACTN    H5 6076   5.605   0.995   0.809  1.8760 -0.4398 -0.4785
  562ACTN    C2 6077   5.732   0.999   0.977 -0.2223  0.2834 -0.0665
  562ACTN    O1 6078   5.733   0.928   1.078  0.2908  0.0236  0.0811
  562ACTN    C1 6079   5.855   1.049   0.910  0.2503 -0.5891 -0.1387
  562ACTN    H1 6080   5.897   0.968   0.850  0.5955  0.1570 -0.9061
  562ACTN    H2 6081   5.924   1.082   0.988 -3.2287  1.1732  2.3147
  562ACTN    H3 6082   5.841   1.128   0.837 -0.3240 -2.0529 -1.6441
  563ACTN    H6 6083   0.458   8.545   2.398  0.1742 -1.0842  0.4441
  563ACTN    C3 6084   0.551   8.586   2.435 -0.1894  0.0772  0.0851
  563ACTN    H4 6085   0.527   8.691   2.452 -0.0453  0.2014 -0.4729
  563ACTN    H5 6086   0.574   8.535   2.528  3.8860  0.5274 -0.5406
  563ACTN    C2 6087   0.672   8.557   2.350  0.4393 -0.0984 -0.8708
  563ACTN    O1 6088   0.671   8.453   2.281 -0.6546 -0.2610 -0.5238
  563ACTN    C1 6089   0.767   8.662   2.312 -0.3220 -0.5813  0.4914
  563ACTN    H1 6090   0.741   8.681   2.207  0.5320 -0.9942  0.2012
  563ACTN    H2 6091   0.870   8.626   2.313  1.2161  3.4855 -1.4214
  563ACTN    H3 6092   0.767   8.751   2.375 -3.3648  0.9196 -1.5160
  564ACTN    H6 6093   0.223   1.239   5.029  0.8360 -0.4727  0.5526
  564ACTN    C3 6094   0.242   1.344   5.050  0.3285 -0.1868 -0.3919
  564ACTN    H4 6095   0.179   1.401   4.981  0.1239  0.9121  0.6888
  564ACTN    H5 6096   0.349   1.362   5.041 -0.0292  1.7544 -0.8961
  564ACTN    C2 6097   0.213   1.392   5.190 -0.0977 -0.0907 -0.0725
  564ACTN    O1 6098   0.301   1.391   5.279  0.0291  0.3660 -0.1152
  564ACTN    C1 6099   0.087   1.466   5.214 -0.8802  0.1890 -0.2250
  564ACTN    H1 6100   0.111   1.570   5.192  0.3778 -0.0921 -0.1840
  564ACTN    H2 6101   0.061   1.460   5.320  0.6804 -0.9665  0.0962
  564ACTN    H3 6102   0.006   1.431   5.150  0.9828 -1.8366 -1.5125
  565ACTN    H6 6103   3.288   3.360   2.215  1.4986  0.8937 -0.0063
  565ACTN    C3 6104   3.275   3.369   2.107 -0.1556  0.3855  0.1444
  565ACTN    H4 6105   3.272   3.473   2.076  1.7130 -0.4240 -2.9977
  565ACTN    H5 6106   3.352   3.320   2.047 -0.6608 -0.1800 -0.0550
  565ACTN    C2 6107   3.156   3.292   2.074 -1.2594  0.2479 -0.1617
  565ACTN    O1 6108   3.048   3.343   2.043 -0.3111  0.2338  0.4872
  565ACTN    C1 6109   3.153   3.147   2.098  0.0243  0.5739  0.5313
  565ACTN    H1 6110   3.249   3.104   2.130 -0.8937 -1.6882  0.3225
  565ACTN    H2 6111   3.127   3.093   2.007 -0.4033 -1.8953  2.0661
  565ACTN    H3 6112   3.091   3.117   2.182 -0.4787  1.6785  0.5551
  566ACTN    H6 6113   3.102   3.533   7.780  0.5150 -0.9152 -1.4622
  566ACTN    C3 6114   3.157   3.460   7.839 -0.3037 -0.3383  0.0348
  566ACTN    H4 6115   3.090   3.404   7.904 -0.2107 -0.0038  0.4248
  566ACTN    H5 6116   3.188   3.395   7.757  2.5135  3.1120 -1.7713
  566ACTN    C2 6117   3.268   3.525   7.911 -0.7023 -0.9644 -0.2845
  566ACTN    O1 6118   3.243   3.573   8.018 -0.4703 -0.5288 -0.5804
  566ACTN    C1 6119   3.410   3.524   7.854 -0.3229  0.1959  0.1449
  566ACTN    H1 6120   3.483   3.580   7.912 -0.2320 -1.4717  1.6602
  566ACTN    H2 6121   3.410   3.556   7.749  1.6756 -1.0402 -0.2442
  566ACTN    H3 6122   3.443   3.420   7.852 -0.8629  0.0245  0.0392
  567ACTN    H6 6123   0.094   2.810   7.315 -1.6668  0.7283 -0.4654
  567ACTN    C3 6124   0.098   2.886   7.393 -0.2917 -0.2252  0.4141
  567ACTN    H4 6125   0.163   2.857   7.475  1.9899  0.2094 -1.1964
  567ACTN    H5 6126   0.130   2.986   7.363 -0.1240  0.2482  2.1196
  567ACTN    C2 6127  -0.042   2.903   7.446  0.4564  0.5585  0.4337
  567ACTN    O1 6128  -0.060   2.860   7.559  0.1453 -0.9267  0.1186
  567ACTN    C1 6129  -0.154   2.952   7.366 -0.6154 -0.3843 -0.1427
  567ACTN    H1 6130  -0.246   2.963   7.423 -1.1666  1.5191 -1.3106
  567ACTN    H2 6131  -0.179   2.877   7.290  2.0277 -0.5524 -0.8903
  567ACTN    H3 6132  -0.121   3.048   7.326  2.6090 -0.7232  1.6032
  568ACTN    H6 6133   2.604   7.202   3.245  1.1170  1.1275 -0.2531
  568ACTN    C3 6134   2.629   7.201   3.351  0.1078  0.3637 -0.0144
  568ACTN    H4 6135   2.582   7.114   3.398  1.3344 -0.3695 -0.1175
  568ACTN    H5 6136   2.735   7.175   3.359  0.3633  0.4350 -2.7315
  568ACTN    C2 6137   2.578   7.327   3.423  0.6603 -0.3350  0.4340
  568ACTN    O1 6138   2.475   7.318   3.490 -0.1086 -0.3061 -0.4082
  568ACTN    C1 6139   2.646   7.455   3.421 -0.6959 -0.2343 -0.1428
  568ACTN    H1 6140   2.753   7.433   3.432 -1.2540 -1.8800  2.3701
  568ACTN    H2 6141   2.615   7.517   3.505  0.5121 -1.6611  1.3873
  568ACTN    H3 6142   2.639   7.510   3.327 -1.3888  0.2458  0.1951
  569ACTN    H6 6143   3.961   3.499   1.172  0.7820  1.4957 -1.2513
  569ACTN    C3 6144   4.054   3.445   1.157 -0.0216 -0.4265  0.3215
  569ACTN    H4 6145   4.044   3.367   1.232 -0.0144  1.2716  2.1281
  569ACTN    H5 6146   4.049   3.408   1.054  0.7694  1.8191 -0.5738
  569ACTN    C2 6147   4.166   3.545   1.171  0.0142  0.3061  0.5500
  569ACTN    O1 6148   4.188   3.587   1.285 -0.7431  0.1869  0.1839
  569ACTN    C1 6149   4.248   3.592   1.049 -0.0634  0.0796 -0.4900
  569ACTN    H1 6150   4.287   3.507   0.994  0.5487 -0.1303  0.2575
  569ACTN    H2 6151   4.334   3.656   1.068 -1.0436  1.4087 -0.4416
  569ACTN    H3 6152   4.179   3.642   0.981 -0.8106 -0.6514 -0.2888
  570ACTN    H6 6153   7.132   4.496   5.368 -2.7836  1.6168 -0.3152
  570ACTN    C3 6154   7.186   4.583   5.330 -0.3379  0.2192 -0.1607
  570ACTN    H4 6155   7.220   4.649   5.410 -1.1752  1.8557 -1.1193
  570ACTN    H5 6156   7.279   4.555   5.281 -0.1421 -1.2516  0.9995
  570ACTN    C2 6157   7.096   4.664   5.232  0.0797  0.4772  0.3145
  570ACTN    O1 6158   7.042   4.603   5.139  0.8143  0.5644 -0.4408
  570ACTN    C1 6159   7.061   4.802   5.263 -0.6576  0.0207 -0.2690
  570ACTN    H1 6160   7.014   4.863   5.186  0.7563  1.1287 -0.2591
  570ACTN    H2 6161   7.141   4.864   5.304 -0.2111 -1.0151  0.4493
  570ACTN    H3 6162   6.987   4.796   5.343 -0.1638 -0.2051  0.1657
  571ACTN    H6 6163   1.909   8.105   4.979  0.8991  1.1046 -0.6636
  571ACTN    C3 6164   1.963   8.039   4.912 -0.0537  0.1454 -0.4950
  571ACTN    H4 6165   2.069   8.064   4.917  0.4615 -1.3912 -2.7368
  571ACTN    H5 6166   1.954   7.937   4.951  0.4838 -0.3594 -1.6552
  571ACTN    C2 6167   1.919   8.052   4.762 -0.3333 -0.2823  0.5520
  571ACTN    O1 6168   1.981   8.109   4.672  0.0579  0.0402 -0.5798
  571ACTN    C1 6169   1.787   7.990   4.732 -0.0845 -0.4374 -0.2578
  571ACTN    H1 6170   1.801   7.885   4.759  1.2463 -0.0634  0.5419
  571ACTN    H2 6171   1.769   7.995   4.625  3.2129  2.1446 -0.7665
  571ACTN    H3 6172   1.702   8.023   4.792  0.9783 -0.5351  1.3222
  572ACTN    H6 6173   6.883   0.950   4.339 -0.9651  0.6196 -0.7299
  572ACTN    C3 6174   6.846   0.849   4.320  0.3231 -0.0051 -0.0119
  572ACTN    H4 6175   6.749   0.839   4.369 -0.4816  0.7969 -1.4194
  572ACTN    H5 6176   6.820   0.828   4.216  0.7257 -1.8139  0.2296
  572ACTN    C2 6177   6.957   0.752   4.344  0.3047  0.6948 -0.5511
  572ACTN    O1 6178   7.030   0.696   4.261  0.2462 -1.2273  0.2714
  572ACTN    C1 6179   6.992   0.747   4.490  0.1132 -0.6298 -0.0923
  572ACTN    H1 6180   6.909   0.764   4.557  0.4623 -0.7085  0.3610
  572ACTN    H2 6181   7.071   0.820   4.508 -1.8764  1.0396  2.1563
  572ACTN    H3 6182   7.034   0.652   4.524  1.1884  0.8014  2.7217
  573ACTN    H6 6183   1.926   0.598   5.781  1.3431 -1.3750 -0.2556
  573ACTN    C3 6184   1.926   0.637   5.679  0.7311 -0.0963  0.2221
  573ACTN    H4 6185   1.824   0.619   5.647  1.2333 -1.6107 -0.5859
  573ACTN    H5 6186   1.942   0.745   5.674 -0.2166  0.1808  2.6534
  573ACTN    C2 6187   2.027   0.578   5.583  0.5307  0.1505 -0.1753
  573ACTN    O1 6188   2.120   0.511   5.632 -0.4363 -0.3042  0.6365
  573ACTN    C1 6189   1.985   0.561   5.436  0.2975 -0.8487  0.1006
  573ACTN    H1 6190   1.932   0.650   5.401  2.2440  0.3527  0.1428
  573ACTN    H2 6191   1.931   0.472   5.404  1.2665 -2.0783  1.8180
  573ACTN    H3 6192   2.073   0.566   5.373 -0.3101  2.4067 -0.5969
  574ACTN    H6 6193   2.393   7.513   2.057 -1.0843  1.4791  0.6491
  574ACTN    C3 6194   2.300   7.479   2.012 -0.1710 -0.2271  0.0046
  574ACTN    H4 6195   2.304   7.373   1.989  1.4189  0.0411 -1.0176
  574ACTN    H5 6196   2.221   7.492   2.087 -0.1300  0.0816 -0.0060
  574ACTN    C2 6197   2.266   7.569   1.891  0.3961  0.5960  0.4288
  574ACTN    O1 6198   2.337   7.656   1.844  0.1111 -0.1092 -0.5384
  574ACTN    C1 6199   2.148   7.522   1.814  0.2593 -1.2351  0.3109
  574ACTN    H1 6200   2.111   7.598   1.744 -0.7188 -0.1606  1.9694
  574ACTN    H2 6201   2.060   7.493   1.872 -0.0855 -0.4210  0.2129
  574ACTN    H3 6202   2.174   7.430   1.762 -3.5257 -2.1113 -0.2271
  575ACTN    H6 6203   5.235   5.401   1.083 -0.2939  0.9872  0.5467
  575ACTN    C3 6204   5.334   5.356   1.068 -0.8838 -0.1782  0.1211
  575ACTN    H4 6205   5.378   5.352   1.167  0.6185  2.1639 -0.4179
  575ACTN    H5 6206   5.327   5.250   1.042 -0.5859 -0.1657 -0.0007
  575ACTN    C2 6207   5.438   5.424   0.983  0.8000 -0.1896 -0.0430
  575ACTN    O1 6208   5.503   5.367   0.904  0.3801 -0.7966  0.0516
  575ACTN    C1 6209   5.432   5.580   0.976 -0.1163  0.5753  0.7206
  575ACTN    H1 6210   5.522   5.626   0.936 -0.9149  1.9015  0.4166
  575ACTN    H2 6211   5.414   5.619   1.076  0.3888  3.1592 -0.1516
  575ACTN    H3 6212   5.344   5.602   0.916 -1.3630  1.7421  2.9020
  576ACTN    H6 6213   4.589   3.515   3.573 -0.2692  2.9866 -0.3274
  576ACTN    C3 6214   4.688   3.537   3.613  0.3562 -0.2187 -0.0159
  576ACTN    H4 6215   4.701   3.645   3.615  0.4197 -0.1737 -1.6023
  576ACTN    H5 6216   4.697   3.498   3.714 -0.9340  1.7103  0.8704
  576ACTN    C2 6217   4.803   3.499   3.525 -0.1740 -0.5428  0.0224
  576ACTN    O1 6218   4.815   3.564   3.425  0.4082 -0.1002  0.3025
  576ACTN    C1 6219   4.919   3.415   3.575  0.3655  0.3118 -0.2056
  576ACTN    H1 6220   4.902   3.312   3.545  3.2939 -0.3786  0.3271
  576ACTN    H2 6221   4.912   3.415   3.684 -1.1949 -2.5330 -0.2634
  576ACTN    H3 6222   5.017   3.446   3.538  0.9099 -1.4196 -0.2623
  577ACTN    H6 6223   6.080   4.686   8.502  1.3171 -0.1966 -0.9185
  577ACTN    C3 6224   6.115   4.587   8.474 -0.0663 -0.9004 -0.2300
  577ACTN    H4 6225   6.030   4.544   8.422 -1.0418  0.2146  0.4188
  577ACTN    H5 6226   6.198   4.590   8.403 -0.4306  1.2989 -0.5849
  577ACTN    C2 6227   6.149   4.515   8.598 -0.2778  0.2858 -0.4687
  577ACTN    O1 6228   6.239   4.429   8.594  0.3788  0.6041  0.2080
  577ACTN    C1 6229   6.082   4.547   8.728 -0.1648 -0.4087  0.1352
  577ACTN    H1 6230   6.141   4.619   8.785  0.7204 -0.7554 -0.3275
  577ACTN    H2 6231   6.077   4.461   8.795  1.3216  1.0800  2.1872
  577ACTN    H3 6232   5.983   4.589   8.709 -1.1315 -2.6487  0.0206
  578ACTN    H6 6233   6.030   2.798   6.348  0.7935  0.9924  1.2409
  578ACTN    C3 6234   6.092   2.856   6.279  0.2763 -0.2141 -0.2846
  578ACTN    H4 6235   6.194   2.823   6.296  0.8524  2.1931  1.1810
  578ACTN    H5 6236   6.056   2.835   6.178 -2.3407  2.2904  0.0385
  578ACTN    C2 6237   6.072   3.003   6.306  0.4673 -0.5698  0.5278
  578ACTN    O1 6238   6.056   3.075   6.212 -0.4120 -0.2832 -0.1682
  578ACTN    C1 6239   6.098   3.063   6.440  0.5816  0.4247 -0.3210
  578ACTN    H1 6240   6.016   3.132   6.460  1.5169  0.6793  3.0070
  578ACTN    H2 6241   6.188   3.124   6.448  0.2304  0.7380  1.4661
  578ACTN    H3 6242   6.105   2.985   6.516  2.2639  1.4330  0.6019
  579ACTN    H6 6243   6.785   5.727   7.646 -0.7601 -1.2590  3.6075
  579ACTN    C3 6244   6.743   5.634   7.609  0.3130 -0.2326 -0.5066
  579ACTN    H4 6245   6.696   5.648   7.512 -3.4873 -2.9603  0.8255
  579ACTN    H5 6246   6.825   5.562   7.599 -0.4641 -1.1167 -0.5933
  579ACTN    C2 6247   6.629   5.594   7.694  1.3767 -0.1810 -0.3740
  579ACTN    O1 6248   6.644   5.543   7.806  0.0192 -0.7531 -0.3054
  579ACTN    C1 6249   6.492   5.653   7.675 -0.1343 -0.2981  0.5925
  579ACTN    H1 6250   6.485   5.733   7.748  1.4071  1.5111 -1.1864
  579ACTN    H2 6251   6.410   5.582   7.686 -0.1767 -0.5649 -1.2733
  579ACTN    H3 6252   6.477   5.698   7.577  1.3683 -1.0173  0.0195
  580ACTN    H6 6253   6.498   5.662   6.547  3.7530  1.7776  0.9760
  580ACTN    C3 6254   6.553   5.599   6.478  0.3361 -0.2674 -0.0307
  580ACTN    H4 6255   6.582   5.504   6.523  1.1314  0.1012  0.2472
  580ACTN    H5 6256   6.502   5.585   6.383 -0.6406  0.7507  0.3349
  580ACTN    C2 6257   6.672   5.678   6.442  0.8854 -0.0649 -0.1522
  580ACTN    O1 6258   6.730   5.654   6.333  0.4029 -0.6827  0.2080
  580ACTN    C1 6259   6.729   5.780   6.533  0.9611 -0.5365  0.0156
  580ACTN    H1 6260   6.684   5.766   6.632 -1.0327  2.4660 -0.3957
  580ACTN    H2 6261   6.700   5.881   6.504 -1.4806 -1.0475  0.5126
  580ACTN    H3 6262   6.837   5.779   6.538  0.9246 -3.4869  1.3465
  581ACTN    H6 6263   1.329   3.011   6.542  0.3829  0.1573  0.2696
  581ACTN    C3 6264   1.296   2.943   6.464 -0.1006  0.4836  0.1911
  581ACTN    H4 6265   1.260   2.854   6.516  0.6220  0.2961  0.3810
  581ACTN    H5 6266   1.208   2.996   6.427  0.3366 -0.0443 -1.6609
  581ACTN    C2 6267   1.404   2.929   6.361 -0.6616  0.3576 -0.5815
  581ACTN    O1 6268   1.519   2.931   6.393 -0.4627 -0.2264 -0.2053
  581ACTN    C1 6269   1.351   2.886   6.232  0.3174  0.3084 -0.3390
  581ACTN    H1 6270   1.374   2.780   6.222 -2.3294 -0.4536  1.1350
  581ACTN    H2 6271   1.400   2.938   6.150  0.2198 -1.0710 -1.2968
  581ACTN    H3 6272   1.244   2.900   6.223 -0.2840 -2.6423  1.4057
  582ACTN    H6 6273   8.199   1.613   7.030 -1.6845  0.3889  0.8916
  582ACTN    C3 6274   8.166   1.546   6.950 -0.0468  0.2408  0.3149
  582ACTN    H4 6275   8.059   1.563   6.943  0.3355  3.0598  0.8754
  582ACTN    H5 6276   8.204   1.576   6.853 -0.0753  1.6974  0.7459
  582ACTN    C2 6277   8.199   1.400   6.968  0.3958  0.2242 -0.2040
  582ACTN    O1 6278   8.302   1.350   6.933 -0.7708 -0.5858  0.3845
  582ACTN    C1 6279   8.078   1.311   6.993 -0.2817 -0.1308 -0.7408
  582ACTN    H1 6280   8.110   1.208   7.008 -0.8916 -0.3029 -0.5938
  582ACTN    H2 6281   8.003   1.323   6.914  0.4146 -0.2588 -1.4292
  582ACTN    H3 6282   8.035   1.343   7.088  2.0037 -0.3609  0.4015
  583ACTN    H6 6283   3.536   4.211   2.829 -0.5971  1.3491  1.5255
  583ACTN    C3 6284   3.570   4.302   2.781 -0.2162  0.5196  0.1953
  583ACTN    H4 6285   3.602   4.370   2.860 -3.8369  0.6116  1.6761
  583ACTN    H5 6286   3.665   4.275   2.733 -0.0599  0.8900  0.2895
  583ACTN    C2 6287   3.466   4.333   2.683 -1.3253 -0.0853  0.8552
  583ACTN    O1 6288   3.472   4.294   2.569  0.9211 -0.2172  0.1248
  583ACTN    C1 6289   3.385   4.453   2.719  0.2640  0.6511 -0.3854
  583ACTN    H1 6290   3.448   4.518   2.780 -1.9563 -0.4931  3.3335
  583ACTN    H2 6291   3.304   4.418   2.783  0.6903  0.7562  0.2142
  583ACTN    H3 6292   3.342   4.508   2.636 -0.2369 -1.1479 -1.3340
  584ACTN    H6 6293   7.430   0.494   3.309  0.0129  0.5165 -0.1997
  584ACTN    C3 6294   7.460   0.515   3.206 -0.4660 -0.2311 -0.4942
  584ACTN    H4 6295   7.537   0.591   3.204 -2.0447  1.4129 -0.3769
  584ACTN    H5 6296   7.493   0.423   3.156 -0.4961 -0.9393  0.7645
  584ACTN    C2 6297   7.336   0.566   3.135 -0.6504  0.3652 -0.5145
  584ACTN    O1 6298   7.360   0.622   3.026  0.2441  0.1602  0.0485
  584ACTN    C1 6299   7.220   0.614   3.203  0.5094 -0.3052 -0.0346
  584ACTN    H1 6300   7.251   0.660   3.296  1.2805 -1.1435  0.1323
  584ACTN    H2 6301   7.161   0.525   3.225 -1.5105  1.1542  0.5172
  584ACTN    H3 6302   7.160   0.679   3.138 -0.5336 -1.4542 -0.2410
  585ACTN    H6 6303   2.520   4.212   8.173 -0.3268 -0.2094  2.1614
  585ACTN    C3 6304   2.613   4.256   8.210  0.1840  0.1565  0.4769
  585ACTN    H4 6305   2.661   4.182   8.273  0.6645  0.1679  0.1237
  585ACTN    H5 6306   2.682   4.274   8.128  0.2633 -3.0686 -0.1957
  585ACTN    C2 6307   2.585   4.387   8.275 -0.4552  0.5628  0.7344
  585ACTN    O1 6308   2.641   4.415   8.381  0.2134  0.7499 -0.3155
  585ACTN    C1 6309   2.479   4.474   8.208  0.0923 -0.2268 -0.2804
  585ACTN    H1 6310   2.448   4.431   8.113  0.0566  0.6580 -0.6678
  585ACTN    H2 6311   2.511   4.576   8.187 -0.2976  0.0108  0.2956
  585ACTN    H3 6312   2.388   4.474   8.267  0.3379 -1.8042  0.1231
  586ACTN    H6 6313   4.445   6.739   5.241 -1.4937  2.9082  0.5960
  586ACTN    C3 6314   4.444   6.713   5.347 -0.6349 -0.1361 -0.1109
  586ACTN    H4 6315   4.514   6.636   5.380 -0.3830 -0.0110 -0.3490
  586ACTN    H5 6316   4.480   6.804   5.395 -1.8251  2.0482 -3.2201
  586ACTN    C2 6317   4.299   6.697   5.388  0.0733 -0.9425  0.3804
  586ACTN    O1 6318   4.214   6.766   5.336  0.0446  0.7386 -0.2063
  586ACTN    C1 6319   4.263   6.593   5.483  0.6050  0.2125  0.2270
  586ACTN    H1 6320   4.334   6.600   5.565 -0.6775 -1.6906  1.5318
  586ACTN    H2 6321   4.279   6.499   5.432 -2.4803 -0.1403 -0.2322
  586ACTN    H3 6322   4.161   6.596   5.523  1.0041 -2.1781  1.5190
  587ACTN    H6 6323   4.297   5.916   7.492  0.0774 -0.3777 -0.6555
  587ACTN    C3 6324   4.199   5.960   7.509  0.2613  0.0709 -0.7463
  587ACTN    H4 6325   4.128   5.907   7.445  0.8588 -0.2598 -1.1432
  587ACTN    H5 6326   4.170   5.927   7.609 -0.4137 -0.9922 -1.2826
  587ACTN    C2 6327   4.186   6.108   7.494  0.1613  0.4694 -0.6005
  587ACTN    O1 6328   4.272   6.179   7.553  0.8051  0.1522 -0.1104
  587ACTN    C1 6329   4.068   6.166   7.417 -0.1650 -0.3414  0.3086
  587ACTN    H1 6330   4.075   6.274   7.413 -0.4607 -0.3492 -0.5159
  587ACTN    H2 6331   3.978   6.141   7.473 -1.5613  0.3130 -1.5867
  587ACTN    H3 6332   4.065   6.127   7.315  2.3773  0.3684 -0.0743
  588ACTN    H6 6333   8.240   0.082   2.701  1.6451  3.2975  0.4188
  588ACTN    C3 6334   8.323   0.018   2.671 -0.8258 -0.0373  0.3481
  588ACTN    H4 6335   8.303   0.007   2.565  1.9889 -0.8231 -0.1545
  588ACTN    H5 6336   8.422   0.063   2.684 -0.4990  0.1962 -2.6092
  588ACTN    C2 6337   8.316  -0.124   2.724  0.0650  0.4384 -0.3795
  588ACTN    O1 6338   8.222  -0.171   2.786 -0.2595 -0.0638  0.0151
  588ACTN    C1 6339   8.403  -0.216   2.655 -0.2487 -0.1447 -0.2991
  588ACTN    H1 6340   8.506  -0.194   2.683  0.0559  0.0591 -1.5356
  588ACTN    H2 6341   8.413  -0.190   2.550  1.0832  1.3288  0.1714
  588ACTN    H3 6342   8.379  -0.322   2.667 -4.6769  0.8814  0.5709
  589ACTN    H6 6343   2.543   8.773   2.016 -0.5580 -0.0760 -2.4469
  589ACTN    C3 6344   2.435   8.784   2.025 -0.3595  0.0528  0.2875
  589ACTN    H4 6345   2.411   8.812   2.127  2.0557 -0.8869  1.1499
  589ACTN    H5 6346   2.377   8.696   1.996 -1.1391  0.7994 -0.4540
  589ACTN    C2 6347   2.391   8.887   1.930  0.0371  0.3610 -0.7228
  589ACTN    O1 6348   2.278   8.897   1.890  0.2813  0.4788 -0.6699
  589ACTN    C1 6349   2.498   8.973   1.858  0.0392  0.1853 -0.0229
  589ACTN    H1 6350   2.535   8.947   1.759  0.1305  0.3622 -0.0361
  589ACTN    H2 6351   2.584   8.971   1.924 -0.4884 -2.7003  0.6145
  589ACTN    H3 6352   2.456   9.074   1.859 -2.7408 -0.9416  0.4572
  590ACTN    H6 6353   3.552   0.348   6.478  1.0494  1.6832 -2.2809
  590ACTN    C3 6354   3.616   0.409   6.541  0.3000 -0.4414  0.6807
  590ACTN    H4 6355   3.550   0.471   6.602  0.0154  0.0692 -0.1324
  590ACTN    H5 6356   3.689   0.343   6.589  1.1631  0.2765  0.3707
  590ACTN    C2 6357   3.684   0.502   6.451  0.0484  0.2295  0.0361
  590ACTN    O1 6358   3.759   0.595   6.485 -0.1947 -0.0347 -0.2201
  590ACTN    C1 6359   3.664   0.488   6.304  0.6226  0.3436  0.5016
  590ACTN    H1 6360   3.587   0.414   6.286  1.0016  0.1035 -0.1425
  590ACTN    H2 6361   3.748   0.450   6.245 -1.1557  1.7515 -3.0803
  590ACTN    H3 6362   3.632   0.585   6.266  0.2764  0.1375  0.2692
  591ACTN    H6 6363   8.268   8.033   5.236  2.3246  1.3360 -2.0828
  591ACTN    C3 6364   8.218   7.973   5.160  0.3407  0.1631  0.0799
  591ACTN    H4 6365   8.141   7.908   5.202 -1.0525  0.3923 -2.0492
  591ACTN    H5 6366   8.174   8.044   5.090  4.0555  0.9798 -1.5515
  591ACTN    C2 6367   8.320   7.888   5.096  0.1247  0.3158 -0.0108
  591ACTN    O1 6368   8.300   7.768   5.074 -0.3184 -0.5328 -0.5989
  591ACTN    C1 6369   8.443   7.954   5.047  0.1752 -0.6133 -0.1094
  591ACTN    H1 6370   8.423   8.061   5.042 -0.6197 -0.7301  0.4632
  591ACTN    H2 6371   8.470   7.916   4.949  1.0388 -0.1289 -0.0639
  591ACTN    H3 6372   8.516   7.926   5.124  1.3635  1.8523 -0.2804
  592ACTN    H6 6373   7.036   8.151   3.517 -0.2586 -0.6394  0.4357
  592ACTN    C3 6374   7.125   8.112   3.467 -0.3229  0.0716 -0.2502
  592ACTN    H4 6375   7.220   8.154   3.501  0.4070 -1.1682 -0.6984
  592ACTN    H5 6376   7.133   8.004   3.481 -0.7326  0.2655  1.4984
  592ACTN    C2 6377   7.117   8.132   3.320 -0.2381  0.0878  0.8300
  592ACTN    O1 6378   7.215   8.129   3.248 -0.5744  0.6516 -0.0803
  592ACTN    C1 6379   6.977   8.157   3.261  0.6390  0.2664 -0.0351
  592ACTN    H1 6380   6.954   8.080   3.188  1.0116  0.6003 -0.5122
  592ACTN    H2 6381   6.974   8.257   3.217  0.5072  0.6076  0.7281
  592ACTN    H3 6382   6.907   8.153   3.344 -1.0850 -0.7106 -1.5051
  593ACTN    H6 6383   4.959   6.271   4.488  0.0865  0.9724 -0.8292
  593ACTN    C3 6384   4.934   6.225   4.393  0.0863  0.0272 -0.3735
  593ACTN    H4 6385   4.826   6.228   4.379  0.0628  0.1711 -0.1670
  593ACTN    H5 6386   4.979   6.285   4.314  0.1382 -0.3642 -0.6462
  593ACTN    C2 6387   4.968   6.075   4.390  0.0008 -0.4354 -0.4781
  593ACTN    O1 6388   4.961   6.011   4.497  1.0078  0.2219  0.0614
  593ACTN    C1 6389   5.033   6.017   4.266  0.3098  0.4414 -0.7839
  593ACTN    H1 6390   4.974   5.935   4.224 -0.1544 -0.3550  1.3360
  593ACTN    H2 6391   5.134   5.988   4.295 -0.7227  0.5013  3.2387
  593ACTN    H3 6392   5.028   6.102   4.198  1.4131  0.8107 -0.4033
  594ACTN    H6 6393   5.370   8.223   5.543  0.9718  1.4867  0.1303
  594ACTN    C3 6394   5.402   8.224   5.439  0.4514 -0.0275 -0.0627
  594ACTN    H4 6395   5.427   8.326   5.409  1.1916 -0.5561 -1.2829
  594ACTN    H5 6396   5.498   8.173   5.427  1.5582  1.1355  3.2425
  594ACTN    C2 6397   5.312   8.150   5.343 -1.0752 -0.4966 -0.2672
  594ACTN    O1 6398   5.304   8.178   5.224  0.1261 -0.2830 -0.1967
  594ACTN    C1 6399   5.247   8.040   5.414  0.2341  0.5872  0.4248
  594ACTN    H1 6400   5.280   8.033   5.517  0.6258  0.4270  0.2870
  594ACTN    H2 6401   5.268   7.948   5.360 -1.0786 -0.1330  1.1063
  594ACTN    H3 6402   5.143   8.066   5.394  0.2468  1.0038  0.8783
  595ACTN    H6 6403   4.091   4.794   0.309  0.1869 -0.9344 -0.9548
  595ACTN    C3 6404   4.003   4.858   0.297  0.6223 -0.1780 -0.1855
  595ACTN    H4 6405   3.925   4.818   0.232  1.0485 -1.3904  0.0368
  595ACTN    H5 6406   3.961   4.871   0.397 -1.5728 -2.6340 -0.7210
  595ACTN    C2 6407   4.060   4.990   0.245  0.8735 -0.1265 -1.1190
  595ACTN    O1 6408   4.146   4.975   0.161 -0.2221  0.0015 -0.4457
  595ACTN    C1 6409   4.031   5.109   0.326 -0.2851 -0.3137 -0.3192
  595ACTN    H1 6410   3.922   5.110   0.330 -0.4631 -0.6029 -3.5476
  595ACTN    H2 6411   4.076   5.203   0.295 -1.8932  0.1224 -1.4325
  595ACTN    H3 6412   4.072   5.092   0.425 -0.4878 -2.6843 -0.6089
  596ACTN    H6 6413   0.623   8.779   3.456 -0.7845 -0.4579  0.7678
  596ACTN    C3 6414   0.601   8.760   3.351  0.1808  0.5492  0.3658
  596ACTN    H4 6415   0.500   8.782   3.318  1.0195  0.7002 -2.2210
  596ACTN    H5 6416   0.659   8.836   3.299  1.0296  0.5796  1.3214
  596ACTN    C2 6417   0.652   8.631   3.303  0.0533  0.0461  0.1730
  596ACTN    O1 6418   0.604   8.569   3.211  0.2954  0.1204 -0.0562
  596ACTN    C1 6419   0.786   8.589   3.356 -0.8761  0.9775  0.3152
  596ACTN    H1 6420   0.804   8.584   3.463 -3.8937  1.5663  0.8856
  596ACTN    H2 6421   0.862   8.649   3.306 -0.5082  0.0365 -0.2786
  596ACTN    H3 6422   0.809   8.485   3.330  3.2383  1.5699  1.1551
  597ACTN    H6 6423   6.491   8.025   4.326  1.4627  0.5505 -1.2465
  597ACTN    C3 6424   6.501   7.974   4.422 -0.3436  1.3781 -0.5881
  597ACTN    H4 6425   6.602   7.986   4.462 -0.6405  0.3713  0.5132
  597ACTN    H5 6426   6.435   8.024   4.493 -0.8306  0.3534 -0.3060
  597ACTN    C2 6427   6.475   7.828   4.399 -0.3703  0.4754 -0.9540
  597ACTN    O1 6428   6.503   7.763   4.297  0.2460 -0.1939  0.2084
  597ACTN    C1 6429   6.428   7.752   4.521 -0.4327 -0.1287 -0.5485
  597ACTN    H1 6430   6.390   7.817   4.600  1.5723  0.7589 -0.2804
  597ACTN    H2 6431   6.517   7.701   4.559 -0.9203  1.1341  2.4131
  597ACTN    H3 6432   6.352   7.683   4.485  0.1078 -0.1499 -1.6533
  598ACTN    H6 6433   2.097   7.459   3.237  0.7752 -0.8658 -0.2331
  598ACTN    C3 6434   2.138   7.559   3.243 -0.7600 -0.2457  0.2448
  598ACTN    H4 6435   2.089   7.619   3.167 -3.4184 -2.4906  0.1045
  598ACTN    H5 6436   2.104   7.606   3.336 -0.5800  0.7650 -0.2007
  598ACTN    C2 6437   2.288   7.561   3.237 -0.1347  0.2671  0.7995
  598ACTN    O1 6438   2.353   7.615   3.317 -0.0436  0.2818  0.6605
  598ACTN    C1 6439   2.358   7.501   3.118  0.2941 -1.1668 -0.4874
  598ACTN    H1 6440   2.404   7.585   3.067  1.3590 -1.0397  0.6524
  598ACTN    H2 6441   2.295   7.441   3.053  0.1331 -1.1822 -0.3180
  598ACTN    H3 6442   2.434   7.436   3.161 -0.2847 -0.5012  1.6348
  599ACTN    H6 6443   2.488   6.716   3.908 -0.1196  1.7035 -0.2418
  599ACTN    C3 6444   2.544   6.732   4.000  0.3072  0.4116 -0.2727
  599ACTN    H4 6445   2.551   6.840   4.000 -2.8343  0.6716  1.4920
  599ACTN    H5 6446   2.484   6.706   4.087  0.4930  1.2349  0.1077
  599ACTN    C2 6447   2.674   6.657   4.004 -0.5595 -0.0369  0.5642
  599ACTN    O1 6448   2.683   6.550   3.949  0.1078  0.0768  0.3218
  599ACTN    C1 6449   2.781   6.707   4.093  0.0062 -0.0246 -0.7913
  599ACTN    H1 6450   2.776   6.643   4.181  0.8586 -0.1249 -0.8170
  599ACTN    H2 6451   2.773   6.810   4.128  0.6227 -1.3731  3.6002
  599ACTN    H3 6452   2.880   6.693   4.050  0.4056 -0.3707  0.2500
  600ACTN    H6 6453   5.651   1.409   2.539 -1.2397 -0.6131 -1.2209
  600ACTN    C3 6454   5.626   1.316   2.588 -0.3811 -0.2547 -0.0899
  600ACTN    H4 6455   5.644   1.229   2.525  1.4346 -1.5221  2.0707
  600ACTN    H5 6456   5.518   1.330   2.590 -0.3437  0.2415 -1.3706
  600ACTN    C2 6457   5.691   1.301   2.722  1.1361 -0.1512 -0.3864
  600ACTN    O1 6458   5.661   1.375   2.818 -0.3432  0.2634 -0.4424
  600ACTN    C1 6459   5.768   1.177   2.739  0.0157  0.2079 -0.5259
  600ACTN    H1 6460   5.748   1.110   2.656 -0.8988 -0.1746 -0.0029
  600ACTN    H2 6461   5.742   1.126   2.832  1.3130 -0.9957 -0.8151
  600ACTN    H3 6462   5.875   1.196   2.734  0.0957  0.0024  0.4281
  601ACTN    H6 6463   5.225   3.050   1.065  1.9490  0.8056 -3.7669
  601ACTN    C3 6464   5.307   3.074   1.133 -0.0408  0.0648 -1.0338
  601ACTN    H4 6465   5.404   3.069   1.084  0.0820  0.1854 -0.8006
  601ACTN    H5 6466   5.290   3.172   1.177 -0.6214 -1.1243  1.5227
  601ACTN    C2 6467   5.309   2.974   1.248 -0.2975  0.0761  0.1139
  601ACTN    O1 6468   5.418   2.931   1.292 -0.3930  0.4021  0.5048
  601ACTN    C1 6469   5.181   2.924   1.301 -0.3067 -0.2573  0.8114
  601ACTN    H1 6470   5.173   2.954   1.405 -0.3570 -0.4127  0.8523
  601ACTN    H2 6471   5.174   2.815   1.309 -1.3453 -0.2085  0.5695
  601ACTN    H3 6472   5.089   2.967   1.261 -0.6235 -0.1544  1.6433
  602ACTN    H6 6473   4.941   4.957   7.597 -0.7408 -0.1554 -0.9340
  602ACTN    C3 6474   5.017   4.880   7.609 -0.5807  0.1880  0.2839
  602ACTN    H4 6475   5.058   4.869   7.509 -0.9293  0.3202  0.1273
  602ACTN    H5 6476   5.089   4.923   7.679 -1.2179  2.5265 -0.4562
  602ACTN    C2 6477   4.975   4.746   7.663  0.7742 -0.7198  0.8530
  602ACTN    O1 6478   4.867   4.737   7.714  0.4066 -0.2415 -0.2171
  602ACTN    C1 6479   5.066   4.636   7.637 -0.6087 -0.4881 -0.2122
  602ACTN    H1 6480   5.093   4.633   7.531  1.2191 -0.1782  0.2245
  602ACTN    H2 6481   5.011   4.543   7.649 -0.4998 -0.3581  1.4482
  602ACTN    H3 6482   5.163   4.650   7.685 -1.3807  1.3626  0.8217
  603ACTN    H6 6483   3.587   0.499   4.023 -3.9610  1.2522 -0.5221
  603ACTN    C3 6484   3.636   0.596   4.027  0.1848 -0.7336 -0.0456
  603ACTN    H4 6485   3.735   0.582   4.070 -0.2185 -1.1157  0.7656
  603ACTN    H5 6486   3.641   0.638   3.926  0.7241 -1.0783 -0.1617
  603ACTN    C2 6487   3.552   0.689   4.114 -0.2216 -0.4349  0.3897
  603ACTN    O1 6488   3.509   0.797   4.068  0.1556  0.8621  0.4677
  603ACTN    C1 6489   3.534   0.662   4.262 -0.1226 -0.2919  0.3599
  603ACTN    H1 6490   3.586   0.568   4.280 -1.0086 -0.9521 -0.4835
  603ACTN    H2 6491   3.434   0.646   4.301 -0.4283  0.0746 -0.2780
  603ACTN    H3 6492   3.590   0.738   4.318 -0.2995  0.1829 -0.1102
  604ACTN    H6 6493   5.572   7.522   3.623 -1.0686 -0.8987  1.3672
  604ACTN    C3 6494   5.606   7.456   3.543 -0.6324  0.5240  0.3662
  604ACTN    H4 6495   5.592   7.507   3.447 -1.4104 -0.0862  0.1495
  604ACTN    H5 6496   5.712   7.431   3.535 -0.7463  0.6823 -1.9185
  604ACTN    C2 6497   5.531   7.325   3.536 -0.6861 -0.0009  0.9580
  604ACTN    O1 6498   5.556   7.251   3.437  0.1028 -0.3095  0.9403
  604ACTN    C1 6499   5.448   7.276   3.649 -0.0003 -0.4132 -0.3830
  604ACTN    H1 6500   5.379   7.355   3.678  0.2353 -0.1391 -0.5675
  604ACTN    H2 6501   5.520   7.253   3.728 -0.3704 -0.1735  0.0252
  604ACTN    H3 6502   5.387   7.188   3.627  1.3322 -1.0356 -1.6688
  605ACTN    H6 6503   6.275   5.349   7.078 -0.9967 -0.0834  0.2538
  605ACTN    C3 6504   6.297   5.262   7.141 -0.2813 -0.2867 -0.2716
  605ACTN    H4 6505   6.404   5.259   7.161 -0.4148  0.8047  0.6797
  605ACTN    H5 6506   6.253   5.291   7.237  0.4628 -0.9213  0.2645
  605ACTN    C2 6507   6.251   5.136   7.079  0.3880  0.5156  0.9167
  605ACTN    O1 6508   6.247   5.031   7.142  0.5357  0.4065 -0.4557
  605ACTN    C1 6509   6.243   5.124   6.931 -0.4604  0.7273  0.6632
  605ACTN    H1 6510   6.305   5.043   6.894 -2.3460  0.5401 -2.3306
  605ACTN    H2 6511   6.267   5.222   6.890  2.9823 -0.0256  0.7807
  605ACTN    H3 6512   6.142   5.098   6.897 -0.3826  3.1340 -1.5556
  606ACTN    H6 6513   0.704   4.285   7.090  0.6666 -0.3974  0.8171
  606ACTN    C3 6514   0.666   4.369   7.148  0.0648 -0.3222  0.3233
  606ACTN    H4 6515   0.731   4.398   7.231  0.6795  1.7111 -0.8242
  606ACTN    H5 6516   0.662   4.457   7.084  1.5171  1.2224  2.2968
  606ACTN    C2 6517   0.537   4.328   7.194  0.2101 -0.2700 -0.5810
  606ACTN    O1 6518   0.438   4.398   7.188 -0.3759 -0.2007  0.4520
  606ACTN    C1 6519   0.521   4.197   7.266  0.5325 -0.2779 -0.2229
  606ACTN    H1 6520   0.442   4.204   7.341  1.3983 -0.7938  0.7390
  606ACTN    H2 6521   0.613   4.166   7.315  1.0291  0.9253 -0.3596
  606ACTN    H3 6522   0.496   4.118   7.195 -0.9042  0.3831 -0.4796
  607ACTN    H6 6523   8.880   5.403   4.588 -0.5677  0.7243  0.1832
  607ACTN    C3 6524   8.931   5.480   4.531  0.4260  0.2686  0.4398
  607ACTN    H4 6525   8.970   5.457   4.432 -1.6193  0.3882 -0.4337
  607ACTN    H5 6526   8.863   5.564   4.513 -0.8659 -0.9797 -0.7012
  607ACTN    C2 6527   9.039   5.538   4.620  0.0949 -0.4264  0.4413
  607ACTN    O1 6528   9.131   5.473   4.669 -0.3738  0.0378 -0.1111
  607ACTN    C1 6529   9.049   5.690   4.626  0.2266  0.1004  0.0055
  607ACTN    H1 6530   9.131   5.718   4.559 -0.0413 -1.4049 -0.9690
  607ACTN    H2 6531   9.071   5.717   4.729 -0.2598 -1.8298  0.6431
  607ACTN    H3 6532   8.954   5.734   4.595  0.2526 -0.0785 -0.3390
  608ACTN    H6 6533   4.936   3.043   3.689  0.6277  1.9711 -3.5778
  608ACTN    C3 6534   4.959   2.943   3.650 -0.5215 -0.0788  0.7066
  608ACTN    H4 6535   4.913   2.866   3.711  0.6570  0.1932  1.9901
  608ACTN    H5 6536   4.920   2.935   3.549  1.6223 -0.4243 -0.1227
  608ACTN    C2 6537   5.100   2.911   3.652  0.0428 -0.3100  0.6729
  608ACTN    O1 6538   5.168   2.936   3.558  0.4703 -0.0719 -1.0782
  608ACTN    C1 6539   5.154   2.845   3.777  0.1102  0.3855 -1.1303
  608ACTN    H1 6540   5.202   2.753   3.743  0.9099  0.1528  0.6184
  608ACTN    H2 6541   5.071   2.819   3.843  1.9586 -0.9335  0.7364
  608ACTN    H3 6542   5.233   2.895   3.833  0.4308 -1.3101 -0.0294
  609ACTN    H6 6543   6.994   4.918   4.266 -1.7187  0.0788  0.5703
  609ACTN    C3 6544   6.975   4.840   4.340 -0.1545 -0.6287  0.2630
  609ACTN    H4 6545   7.025   4.747   4.313  1.9146  0.1451  1.3818
  609ACTN    H5 6546   7.019   4.872   4.434 -1.2152 -1.6664  1.1379
  609ACTN    C2 6547   6.830   4.810   4.353  0.1569  0.2108 -1.0468
  609ACTN    O1 6548   6.748   4.898   4.349  0.4251  0.1356  0.3465
  609ACTN    C1 6549   6.790   4.668   4.373  0.6600 -0.8417 -0.1472
  609ACTN    H1 6550   6.683   4.648   4.368  0.9897 -2.7749  0.2642
  609ACTN    H2 6551   6.831   4.629   4.466 -0.3846 -1.2457  0.1464
  609ACTN    H3 6552   6.837   4.614   4.291  1.9207  1.7581 -1.1953
  610ACTN    H6 6553   1.134   6.918   2.851 -0.6061  0.2474  0.7765
  610ACTN    C3 6554   1.241   6.936   2.866 -0.4374 -0.0428 -0.0885
  610ACTN    H4 6555   1.248   7.013   2.943  0.5401 -1.7235  1.5267
  610ACTN    H5 6556   1.293   6.848   2.903  1.5585  0.3019 -2.0055
  610ACTN    C2 6557   1.285   6.967   2.730  0.3930  0.1610 -0.2511
  610ACTN    O1 6558   1.407   6.983   2.713  0.1031  0.2077 -0.2288
  610ACTN    C1 6559   1.193   6.968   2.609 -0.3740  0.3652 -0.6632
  610ACTN    H1 6560   1.214   6.882   2.545 -0.3913 -0.0527 -0.1168
  610ACTN    H2 6561   1.219   7.061   2.559  2.1346 -0.9090 -1.8164
  610ACTN    H3 6562   1.088   6.965   2.637 -0.3828 -0.3707 -0.7643
  611ACTN    H6 6563   6.202   8.742   6.820  0.3936  1.5745  0.0792
  611ACTN    C3 6564   6.170   8.802   6.735 -0.0020  0.3780 -0.6367
  611ACTN    H4 6565   6.160   8.740   6.646  0.3960  1.0444 -1.1503
  611ACTN    H5 6566   6.071   8.841   6.756  0.3918  0.8349  0.4703
  611ACTN    C2 6567   6.278   8.904   6.705  0.1337 -0.1061 -0.2726
  611ACTN    O1 6568   6.270   9.024   6.729  0.0520  0.1853 -0.1997
  611ACTN    C1 6569   6.416   8.849   6.658  0.7024  0.0978 -0.9440
  611ACTN    H1 6570   6.470   8.800   6.739  0.3838  3.1101  1.1378
  611ACTN    H2 6571   6.474   8.929   6.614  0.8659  0.2449 -0.4576
  611ACTN    H3 6572   6.391   8.770   6.586 -1.3784 -1.6816  1.6207
  612ACTN    H6 6573   5.267   5.427   8.145 -1.0675 -0.5096 -0.3782
  612ACTN    C3 6574   5.312   5.515   8.100 -0.3128 -0.2456  0.8711
  612ACTN    H4 6575   5.264   5.602   8.144 -0.3763  1.5521 -2.5661
  612ACTN    H5 6576   5.417   5.518   8.129  0.0486  0.1584 -0.4227
  612ACTN    C2 6577   5.299   5.512   7.950 -0.2083  0.6758 -0.8627
  612ACTN    O1 6578   5.374   5.579   7.882  0.4392  0.0081  0.1524
  612ACTN    C1 6579   5.246   5.381   7.895 -0.2992  0.4026 -0.1404
  612ACTN    H1 6580   5.305   5.306   7.947  0.3330  0.9222 -0.0877
  612ACTN    H2 6581   5.261   5.384   7.787 -1.6459 -0.1819 -0.3448
  612ACTN    H3 6582   5.141   5.372   7.921  0.3290 -1.0146  2.0621
  613ACTN    H6 6583   2.973   5.337   1.029 -1.5410 -3.7431  1.0432
  613ACTN    C3 6584   3.073   5.297   1.015  0.0591  0.4268 -0.0576
  613ACTN    H4 6585   3.098   5.291   0.909  1.6363 -1.1856  0.3672
  613ACTN    H5 6586   3.142   5.363   1.069  0.4481 -0.6091  0.7269
  613ACTN    C2 6587   3.079   5.168   1.086 -0.0196  0.2193  0.0722
  613ACTN    O1 6588   3.048   5.170   1.204  0.2951 -0.0534 -0.3683
  613ACTN    C1 6589   3.104   5.048   1.013 -0.1634  0.3559  0.2306
  613ACTN    H1 6590   3.028   5.025   0.939  1.2009 -0.6319 -0.8824
  613ACTN    H2 6591   3.127   4.960   1.073  0.5727  0.4697  0.1197
  613ACTN    H3 6592   3.200   5.068   0.966 -1.2603  1.8701 -1.4012
  614ACTN    H6 6593   0.051   5.384   5.918  1.0618 -1.4199 -0.4449
  614ACTN    C3 6594  -0.023   5.305   5.903 -0.2821 -0.3936  0.6144
  614ACTN    H4 6595  -0.022   5.300   5.794 -0.2746 -0.7583  0.6329
  614ACTN    H5 6596   0.021   5.224   5.961 -1.6976 -0.1494  2.0518
  614ACTN    C2 6597  -0.165   5.341   5.930 -0.4526 -0.4106  0.4089
  614ACTN    O1 6598  -0.203   5.454   5.898 -0.0680  0.1918 -0.7117
  614ACTN    C1 6599  -0.247   5.245   6.010  0.0820 -0.3185 -0.3518
  614ACTN    H1 6600  -0.262   5.153   5.954 -2.1455 -1.7898  2.5240
  614ACTN    H2 6601  -0.342   5.286   6.046 -1.7376 -2.7094 -2.2886
  614ACTN    H3 6602  -0.199   5.220   6.104  1.2321 -2.3708 -1.4603
  615ACTN    H6 6603   4.503   3.389   1.693 -1.5177  0.6146  0.5008
  615ACTN    C3 6604   4.429   3.376   1.614  0.1711 -0.6407 -0.9120
  615ACTN    H4 6605   4.334   3.410   1.654  0.7319 -0.5882  0.3811
  615ACTN    H5 6606   4.460   3.439   1.530 -0.4423 -0.2395 -0.8400
  615ACTN    C2 6607   4.400   3.236   1.572 -0.2633  0.9240 -0.4558
  615ACTN    O1 6608   4.463   3.147   1.620  0.4268 -0.1767 -0.1544
  615ACTN    C1 6609   4.309   3.201   1.460 -0.7448  0.0674  0.2674
  615ACTN    H1 6610   4.226   3.271   1.455 -1.0109 -0.1771  1.2032
  615ACTN    H2 6611   4.262   3.104   1.476 -0.3374  0.0863  1.5734
  615ACTN    H3 6612   4.364   3.209   1.366 -0.2185  0.0952  0.5792
  616ACTN    H6 6613   7.254   4.438   8.930 -0.2352  0.7208  0.4284
  616ACTN    C3 6614   7.327   4.516   8.955  0.9161 -0.1583 -0.1452
  616ACTN    H4 6615   7.403   4.516   8.877  1.2787 -0.8364  0.2060
  616ACTN    H5 6616   7.276   4.612   8.957  1.0391 -0.1061  0.4583
  616ACTN    C2 6617   7.382   4.483   9.085  0.3167  0.9797  0.3557
  616ACTN    O1 6618   7.453   4.554   9.154 -0.4221 -0.3601 -0.4031
  616ACTN    C1 6619   7.386   4.333   9.111 -0.0804  0.3744 -0.2367
  616ACTN    H1 6620   7.435   4.278   9.031  2.0598  1.9819 -0.0708
  616ACTN    H2 6621   7.282   4.303   9.129 -0.0954 -1.7272 -3.5770
  616ACTN    H3 6622   7.441   4.318   9.204  0.7651  1.0258 -0.6258
  617ACTN    H6 6623   8.449   6.804   8.748  0.4228  0.4735 -1.3930
  617ACTN    C3 6624   8.542   6.857   8.766  0.2131  0.3228  0.2122
  617ACTN    H4 6625   8.620   6.782   8.781  0.1115 -0.3070 -2.1598
  617ACTN    H5 6626   8.562   6.887   8.663  1.9636  1.3104  0.8154
  617ACTN    C2 6627   8.554   6.992   8.838 -0.3744  0.1050 -0.2378
  617ACTN    O1 6628   8.461   7.068   8.823  0.2970  0.0624 -0.3976
  617ACTN    C1 6629   8.678   7.031   8.915  0.6931  0.0330  0.3669
  617ACTN    H1 6630   8.714   7.128   8.880 -2.5351  1.8331  1.8349
  617ACTN    H2 6631   8.751   6.958   8.881  0.9096  0.7168 -0.6675
  617ACTN    H3 6632   8.671   7.031   9.023  1.1218  1.1137  0.4085
  618ACTN    H6 6633   0.178   4.332   4.559  1.2404 -1.7244 -0.8520
  618ACTN    C3 6634   0.177   4.362   4.455  0.1504  0.0206 -0.3539
  618ACTN    H4 6635   0.119   4.292   4.395 -1.8279  0.8044  0.6173
  618ACTN    H5 6636   0.116   4.452   4.449  1.7360  1.0258 -2.1046
  618ACTN    C2 6637   0.316   4.377   4.406 -0.8069  0.4982  0.4342
  618ACTN    O1 6638   0.413   4.411   4.477 -0.0139  0.3869 -0.3789
  618ACTN    C1 6639   0.327   4.360   4.261  0.3455 -0.2386 -0.0697
  618ACTN    H1 6640   0.433   4.344   4.241  0.1774 -1.1140 -0.3058
  618ACTN    H2 6641   0.281   4.442   4.206 -1.7638  0.6711  2.9485
  618ACTN    H3 6642   0.267   4.274   4.231 -1.9097  1.0823  0.5258
  619ACTN    H6 6643   1.011   1.753   2.502  1.8296  0.0353  1.4312
  619ACTN    C3 6644   1.048   1.653   2.482 -0.4131 -0.4462 -0.4952
  619ACTN    H4 6645   0.959   1.597   2.453  0.7082 -2.3538 -0.3489
  619ACTN    H5 6646   1.119   1.657   2.399  0.3922 -2.1725  0.0866
  619ACTN    C2 6647   1.110   1.619   2.614 -0.4312 -0.0946 -0.5157
  619ACTN    O1 6648   1.034   1.612   2.712 -0.3399 -0.4145  0.6299
  619ACTN    C1 6649   1.247   1.560   2.623  0.5316  0.1162 -0.0837
  619ACTN    H1 6650   1.287   1.531   2.526  0.8997  1.9975 -0.5105
  619ACTN    H2 6651   1.237   1.476   2.692  1.6077  0.5250  0.5729
  619ACTN    H3 6652   1.310   1.630   2.678  1.2790  0.5978 -1.5347
  620ACTN    H6 6653   7.911   2.066   8.188  0.4468  0.6959  0.4138
  620ACTN    C3 6654   7.997   2.011   8.151 -0.2686 -0.0518 -0.1743
  620ACTN    H4 6655   7.999   2.034   8.044 -0.9820  2.8770  0.3925
  620ACTN    H5 6656   8.082   2.065   8.194  0.3746 -0.8602 -0.4222
  620ACTN    C2 6657   7.999   1.864   8.172 -1.2440 -0.8906 -0.0146
  620ACTN    O1 6658   8.107   1.813   8.203  0.4174 -0.4636 -0.2250
  620ACTN    C1 6659   7.875   1.777   8.170 -0.2682  0.0256 -0.2277
  620ACTN    H1 6660   7.805   1.822   8.240  1.1921  0.6722  0.8303
  620ACTN    H2 6661   7.905   1.681   8.212  0.4553 -0.0804 -0.9646
  620ACTN    H3 6662   7.832   1.763   8.071 -3.1007  0.5930  0.8829
  621ACTN    H6 6663   2.902   5.755   0.150  0.1598 -2.4663 -0.2958
  621ACTN    C3 6664   3.003   5.783   0.119 -0.4834  0.1472 -0.1499
  621ACTN    H4 6665   3.007   5.793   0.011 -1.4635  0.0128 -0.2085
  621ACTN    H5 6666   3.030   5.877   0.166 -0.9839  0.4850 -0.5404
  621ACTN    C2 6667   3.112   5.685   0.163  0.6022 -0.4224 -0.2058
  621ACTN    O1 6668   3.162   5.599   0.090 -0.4184 -0.5698  0.0782
  621ACTN    C1 6669   3.156   5.688   0.309  0.1786 -0.5185 -0.8259
  621ACTN    H1 6670   3.077   5.637   0.364 -1.1530  2.7969  0.4753
  621ACTN    H2 6671   3.160   5.786   0.357  1.0395 -0.9386 -0.0198
  621ACTN    H3 6672   3.248   5.631   0.323  0.6186  0.6451  1.1924
  622ACTN    H6 6673   8.603   8.186   4.817  0.7938 -0.2585 -3.4057
  622ACTN    C3 6674   8.681   8.260   4.836 -0.0172 -0.2189  0.1188
  622ACTN    H4 6675   8.627   8.354   4.849  0.6089  0.1706 -0.0731
  622ACTN    H5 6676   8.735   8.238   4.928 -0.3006 -0.3682  0.2517
  622ACTN    C2 6677   8.773   8.294   4.718 -0.2590  0.5183 -0.3854
  622ACTN    O1 6678   8.893   8.269   4.715 -0.1453 -0.2193  0.8205
  622ACTN    C1 6679   8.707   8.351   4.597 -0.0115  0.1653 -0.8024
  622ACTN    H1 6680   8.666   8.449   4.621  0.1576 -0.1168  0.6370
  622ACTN    H2 6681   8.619   8.297   4.562 -0.6329  1.4069 -1.2019
  622ACTN    H3 6682   8.773   8.358   4.510 -1.3722 -0.9361 -1.9607
  623ACTN    H6 6683   6.463   6.901   0.977  1.6094  2.3682 -1.3585
  623ACTN    C3 6684   6.367   6.948   0.998  0.6597 -0.4209  0.8493
  623ACTN    H4 6685   6.400   7.049   1.024  0.8841  0.0626 -1.2305
  623ACTN    H5 6686   6.309   6.939   0.907  0.1500 -1.8788  1.3150
  623ACTN    C2 6687   6.288   6.890   1.112 -0.4154  0.3692 -0.1477
  623ACTN    O1 6688   6.260   6.775   1.104  0.1511 -0.0412  0.0662
  623ACTN    C1 6689   6.263   6.959   1.236  0.2108 -0.3698 -0.4063
  623ACTN    H1 6690   6.162   7.001   1.231 -0.3994 -1.7640  0.1193
  623ACTN    H2 6691   6.328   7.047   1.236 -1.1415  0.6794 -2.7994
  623ACTN    H3 6692   6.281   6.905   1.329  0.4834  0.2187 -0.1134
  624ACTN    H6 6693   3.291   1.039   2.813  0.7525  0.6978 -0.5907
  624ACTN    C3 6694   3.249   1.042   2.914 -0.0086 -0.3175 -0.8730
  624ACTN    H4 6695   3.302   1.110   2.981 -2.0022 -0.9221  1.3674
  624ACTN    H5 6696   3.144   1.062   2.893 -1.4858 -2.3225  4.0287
  624ACTN    C2 6697   3.274   0.912   2.979  1.1218 -0.1314 -0.2483
  624ACTN    O1 6698   3.290   0.897   3.099 -0.3483  0.2932  0.5186
  624ACTN    C1 6699   3.288   0.802   2.882 -0.8297 -0.2369  0.4554
  624ACTN    H1 6700   3.234   0.715   2.921  0.0297 -0.6434  0.7606
  624ACTN    H2 6701   3.394   0.778   2.884 -0.5911  0.6809 -0.9439
  624ACTN    H3 6702   3.271   0.816   2.776  1.0830  0.3912  0.2183
  625ACTN    H6 6703   4.633   2.157   6.121 -0.6399 -1.4279  1.7151
  625ACTN    C3 6704   4.644   2.065   6.064  0.2196  0.1427 -0.7124
  625ACTN    H4 6705   4.747   2.054   6.030 -0.1910  1.1661 -2.3422
  625ACTN    H5 6706   4.644   1.981   6.133  1.4683 -1.9100 -3.1173
  625ACTN    C2 6707   4.542   2.052   5.957 -0.4145 -1.0729 -0.4674
  625ACTN    O1 6708   4.550   2.122   5.850  0.0435 -0.2833 -0.1877
  625ACTN    C1 6709   4.455   1.928   5.966 -1.0020 -0.5313  0.5247
  625ACTN    H1 6710   4.520   1.843   5.988  1.2800  0.8103 -0.7808
  625ACTN    H2 6711   4.402   1.904   5.874 -2.3532 -0.1287  1.1860
  625ACTN    H3 6712   4.387   1.949   6.048 -0.7649  1.3036  0.2824
  626ACTN    H6 6713   2.182   0.756   3.968  0.9906 -0.1237  0.5411
  626ACTN    C3 6714   2.124   0.830   4.024  0.3512 -0.3288  0.1525
  626ACTN    H4 6715   2.156   0.933   4.010  4.7444 -1.0947  3.4382
  626ACTN    H5 6716   2.018   0.815   4.000  0.3483 -2.0195  1.1618
  626ACTN    C2 6717   2.139   0.791   4.167 -0.4570 -0.0906  0.1420
  626ACTN    O1 6718   2.160   0.875   4.256  0.2902 -0.4750 -0.9258
  626ACTN    C1 6719   2.137   0.649   4.200 -0.3573  1.0629 -0.3464
  626ACTN    H1 6720   2.220   0.621   4.265 -0.9385  0.9750  0.3682
  626ACTN    H2 6721   2.140   0.599   4.104 -0.6549  2.3567 -1.0425
  626ACTN    H3 6722   2.041   0.620   4.244 -0.6416  2.2814 -0.1365
  627ACTN    H6 6723   6.590   1.870   4.002 -0.3007  2.3004 -0.9770
  627ACTN    C3 6724   6.536   1.797   3.941  0.3984  0.3874  0.6235
  627ACTN    H4 6725   6.562   1.697   3.976  0.0165 -1.0284 -2.9365
  627ACTN    H5 6726   6.428   1.810   3.951  0.0304  0.0460 -2.3031
  627ACTN    C2 6727   6.566   1.815   3.799  0.0468  0.2178  0.1451
  627ACTN    O1 6728   6.608   1.719   3.734 -0.4352 -0.3505  0.1653
  627ACTN    C1 6729   6.548   1.951   3.739 -0.7603 -0.0133 -0.6677
  627ACTN    H1 6730   6.575   1.961   3.634 -2.9227 -1.4137 -1.3995
  627ACTN    H2 6731   6.603   2.026   3.796 -0.4136 -0.6485 -0.1690
  627ACTN    H3 6732   6.441   1.974   3.744 -0.1417  2.8915  0.3113
  628ACTN    H6 6733   5.666   2.618   5.479  3.2455  1.5681  0.1107
  628ACTN    C3 6734   5.699   2.551   5.558  0.3951  0.3186  0.2830
  628ACTN    H4 6735   5.627   2.469   5.550  0.6552 -0.0617  1.6226
  628ACTN    H5 6736   5.792   2.501   5.533 -0.7427 -0.7671 -1.9461
  628ACTN    C2 6737   5.693   2.600   5.699 -0.2981 -0.4165 -0.4757
  628ACTN    O1 6738   5.664   2.536   5.801  0.1195  0.1673 -0.3686
  628ACTN    C1 6739   5.748   2.743   5.719  0.3032  0.1643  1.0831
  628ACTN    H1 6740   5.707   2.781   5.813 -0.6573  2.7845 -0.3410
  628ACTN    H2 6741   5.704   2.804   5.640 -0.8938  0.9505  2.3307
  628ACTN    H3 6742   5.857   2.742   5.710  0.2863 -1.8988  0.9825
  629ACTN    H6 6743   0.660   0.727   6.070 -0.7625 -0.6554 -0.3543
  629ACTN    C3 6744   0.704   0.701   6.167 -0.4861  0.3223 -0.2167
  629ACTN    H4 6745   0.622   0.676   6.234  2.4915 -4.2115  1.9474
  629ACTN    H5 6746   0.762   0.613   6.141 -0.3809  0.5203 -0.6657
  629ACTN    C2 6747   0.789   0.815   6.215  0.1654 -0.5360 -0.2736
  629ACTN    O1 6748   0.898   0.797   6.260 -0.7875 -0.2961 -0.3648
  629ACTN    C1 6749   0.743   0.961   6.206 -0.7256  0.4839 -0.5353
  629ACTN    H1 6750   0.797   0.999   6.119 -0.7859  0.3307 -0.6389
  629ACTN    H2 6751   0.775   1.016   6.294  0.4319  1.5801 -1.6238
  629ACTN    H3 6752   0.636   0.972   6.187 -0.6780 -3.0903 -3.6728
  630ACTN    H6 6753   0.327   2.945   0.263  0.4872 -0.4789  1.3366
  630ACTN    C3 6754   0.251   2.921   0.188  0.8190  0.0179  0.8418
  630ACTN    H4 6755   0.304   2.884   0.101  0.8801  0.0513  0.8645
  630ACTN    H5 6756   0.195   2.834   0.221 -2.9103  1.6608 -0.8989
  630ACTN    C2 6757   0.165   3.034   0.164 -0.8340 -0.5468 -0.2237
  630ACTN    O1 6758   0.215   3.143   0.133 -0.4691 -0.3479 -0.5374
  630ACTN    C1 6759   0.019   3.022   0.179  0.2685 -0.0969 -0.3924
  630ACTN    H1 6760  -0.017   3.108   0.235  1.3757  0.1120 -0.0001
  630ACTN    H2 6761  -0.006   2.937   0.243  0.3718 -0.3109 -0.6316
  630ACTN    H3 6762  -0.033   3.007   0.084  0.8296  0.6353 -0.8175
  631ACTN    H6 6763   8.819   4.384   5.398  2.9875 -0.7650  1.7606
  631ACTN    C3 6764   8.882   4.409   5.313  0.5219 -0.4944 -0.0484
  631ACTN    H4 6765   8.974   4.452   5.353  0.6414  0.8606 -1.7118
  631ACTN    H5 6766   8.840   4.486   5.249  0.3815  1.6436  2.5087
  631ACTN    C2 6767   8.927   4.296   5.223  0.5776  0.9863  0.6094
  631ACTN    O1 6768   8.999   4.321   5.128 -0.3356 -0.0246  0.0476
  631ACTN    C1 6769   8.876   4.166   5.251  0.3968  0.2351 -0.4282
  631ACTN    H1 6770   8.916   4.094   5.179 -2.1566  0.3408 -2.0063
  631ACTN    H2 6771   8.768   4.177   5.239  0.1917  0.2832  1.3570
  631ACTN    H3 6772   8.897   4.136   5.354 -2.4433 -1.3887 -0.2585
  632ACTN    H6 6773   2.538   1.891   8.951  0.7836 -3.1506 -0.0239
  632ACTN    C3 6774   2.438   1.860   8.984  0.2026 -0.9735  0.3779
  632ACTN    H4 6775   2.420   1.909   9.079 -2.0710  0.1299 -0.5970
  632ACTN    H5 6776   2.359   1.891   8.915 -0.6112 -2.4372  0.6242
  632ACTN    C2 6777   2.439   1.713   9.003  0.4434 -0.0211  0.7859
  632ACTN    O1 6778   2.521   1.633   8.958 -0.1239  0.1136  0.0159
  632ACTN    C1 6779   2.318   1.655   9.080 -0.3515  0.0888 -0.5360
  632ACTN    H1 6780   2.225   1.667   9.024 -0.0026 -1.9253 -1.5982
  632ACTN    H2 6781   2.302   1.709   9.173  1.1288  0.9408 -0.7548
  632ACTN    H3 6782   2.328   1.549   9.105 -1.2484  0.0775 -0.2214
  633ACTN    H6 6783   7.184   0.816   7.819 -0.3341 -0.4009 -0.5010
  633ACTN    C3 6784   7.287   0.846   7.799 -0.2730  0.0035  0.3900
  633ACTN    H4 6785   7.333   0.887   7.889 -0.2437 -0.6483  0.6723
  633ACTN    H5 6786   7.342   0.762   7.759  0.5259  0.6332  0.1462
  633ACTN    C2 6787   7.295   0.948   7.693  0.3288  0.2347  1.3882
  633ACTN    O1 6788   7.214   0.944   7.602  0.4348  0.3061  0.3166
  633ACTN    C1 6789   7.404   1.043   7.698 -0.3036  0.1157  0.4631
  633ACTN    H1 6790   7.450   1.036   7.797 -1.8996  2.5835  1.4157
  633ACTN    H2 6791   7.367   1.145   7.691 -0.2668  0.1092  0.1753
  633ACTN    H3 6792   7.477   1.018   7.621  1.4943  3.0306  1.1392
  634ACTN    H6 6793   1.536   3.831   8.940 -0.1335 -0.0437  0.8062
  634ACTN    C3 6794   1.461   3.757   8.911 -0.0432  0.0287  0.3829
  634ACTN    H4 6795   1.516   3.668   8.941  2.1432  1.2948  0.2956
  634ACTN    H5 6796   1.384   3.773   8.987 -2.0570 -1.7517 -1.2195
  634ACTN    C2 6797   1.414   3.784   8.765  0.4867 -0.0612  0.5377
  634ACTN    O1 6798   1.354   3.697   8.701  0.2262  0.4845  0.7755
  634ACTN    C1 6799   1.418   3.921   8.712  0.6418 -0.1776  0.3155
  634ACTN    H1 6800   1.358   3.991   8.770  2.0851  0.2889  1.2819
  634ACTN    H2 6801   1.376   3.938   8.613 -1.2512 -0.0635  1.1170
  634ACTN    H3 6802   1.521   3.959   8.707  0.4615  0.3228  0.3359
  635ACTN    H6 6803   8.359   4.355   4.078  1.3869 -0.6559  1.2588
  635ACTN    C3 6804   8.395   4.306   3.987  0.3368  0.0930  0.4364
  635ACTN    H4 6805   8.388   4.379   3.907  0.9608 -0.6336 -0.2818
  635ACTN    H5 6806   8.497   4.270   3.996  2.2307  4.4967 -1.6615
  635ACTN    C2 6807   8.313   4.190   3.956  0.6601 -0.3504  0.2433
  635ACTN    O1 6808   8.351   4.084   4.005  0.4283 -0.2927 -0.0820
  635ACTN    C1 6809   8.229   4.164   3.843  0.0960 -0.4462 -0.3546
  635ACTN    H1 6810   8.134   4.218   3.846  0.5051  0.2239  1.2481
  635ACTN    H2 6811   8.210   4.058   3.827  3.3508 -1.5576  2.5958
  635ACTN    H3 6812   8.279   4.198   3.752  0.6608 -0.4711 -0.0570
  636ACTN    H6 6813   2.447   4.106   8.709  0.6237 -0.0099  0.2617
  636ACTN    C3 6814   2.507   4.025   8.668  0.2063 -0.1044 -0.1705
  636ACTN    H4 6815   2.612   4.044   8.686 -0.3359  2.1821  0.6864
  636ACTN    H5 6816   2.488   3.939   8.733  0.9802 -0.7087 -0.7389
  636ACTN    C2 6817   2.489   3.992   8.527 -0.0976  0.7735  0.0454
  636ACTN    O1 6818   2.553   3.902   8.463  0.0073 -0.4646 -0.5771
  636ACTN    C1 6819   2.386   4.089   8.460 -0.1726 -0.1747  0.1191
  636ACTN    H1 6820   2.355   4.170   8.525  2.1445  1.1669 -0.3934
  636ACTN    H2 6821   2.304   4.021   8.436 -1.8652  1.1695  1.9270
  636ACTN    H3 6822   2.421   4.136   8.368  1.6943 -0.4156  0.6808
  637ACTN    H6 6823   8.046   6.949   3.069 -0.0742  1.0293  0.0286
  637ACTN    C3 6824   8.009   6.945   3.172  0.4761  0.0169  0.1947
  637ACTN    H4 6825   7.911   6.992   3.171 -0.3855 -1.7638  0.5769
  637ACTN    H5 6826   8.003   6.843   3.208 -1.4078  0.4005  1.0010
  637ACTN    C2 6827   8.112   7.030   3.246 -0.8765 -0.5542  0.7795
  637ACTN    O1 6828   8.212   6.977   3.303  0.1770 -0.1423 -0.0483
  637ACTN    C1 6829   8.101   7.179   3.248  0.2646  0.2888  0.5303
  637ACTN    H1 6830   8.017   7.205   3.183 -0.2215 -2.8283 -0.2046
  637ACTN    H2 6831   8.195   7.207   3.202  0.0472  1.2638  0.6731
  637ACTN    H3 6832   8.085   7.211   3.351 -0.9873 -0.1605  0.4963
  638ACTN    H6 6833   2.816   0.149   2.724  0.3072 -2.0903 -0.7668
  638ACTN    C3 6834   2.729   0.161   2.660 -0.1422 -0.7737  0.0599
  638ACTN    H4 6835   2.730   0.093   2.575  4.0621  0.1147 -0.7423
  638ACTN    H5 6836   2.634   0.158   2.713  1.3085  0.8180  2.8382
  638ACTN    C2 6837   2.747   0.299   2.602 -0.5607  0.3029  0.0500
  638ACTN    O1 6838   2.783   0.313   2.483 -0.1972 -0.4445 -0.7935
  638ACTN    C1 6839   2.772   0.420   2.694  0.0668 -0.3405  0.8373
  638ACTN    H1 6840   2.848   0.392   2.767  1.0824  3.1623  1.2183
  638ACTN    H2 6841   2.679   0.441   2.747 -0.6729  0.6139 -0.7842
  638ACTN    H3 6842   2.814   0.508   2.646  1.4651 -1.3243  0.2224
  639ACTN    H6 6843   3.321   7.015   2.351  0.7445  2.1183  1.1632
  639ACTN    C3 6844   3.244   7.079   2.308 -0.5342  0.0035  0.2755
  639ACTN    H4 6845   3.147   7.054   2.352 -0.3840 -1.2771 -0.0808
  639ACTN    H5 6846   3.274   7.177   2.343  0.3880 -1.5497  4.0430
  639ACTN    C2 6847   3.262   7.049   2.160 -0.2664 -0.0683  0.8626
  639ACTN    O1 6848   3.244   7.136   2.079  0.0767  0.8700 -0.2535
  639ACTN    C1 6849   3.263   6.905   2.110 -0.3453 -0.6954  0.3722
  639ACTN    H1 6850   3.244   6.893   2.004 -1.0933 -0.0911  0.4259
  639ACTN    H2 6851   3.185   6.850   2.164  1.6011 -2.1461  1.7907
  639ACTN    H3 6852   3.364   6.871   2.133  0.5217  0.8257 -1.1119
  640ACTN    H6 6853   2.554   0.986   0.552 -0.9776  0.6691  3.4538
  640ACTN    C3 6854   2.602   0.892   0.579 -0.5272 -0.0915  0.1842
  640ACTN    H4 6855   2.706   0.889   0.547 -0.4804 -0.1296  0.3420
  640ACTN    H5 6856   2.596   0.874   0.686  0.3260 -1.5152  0.0096
  640ACTN    C2 6857   2.534   0.790   0.493 -0.1427  0.4275  0.0695
  640ACTN    O1 6858   2.489   0.685   0.534 -0.6000  0.3038 -0.5134
  640ACTN    C1 6859   2.527   0.804   0.341  0.0907 -0.1743 -0.0482
  640ACTN    H1 6860   2.582   0.725   0.289  1.6573  0.5958  0.4345
  640ACTN    H2 6861   2.575   0.895   0.307 -1.7961  0.5125 -0.9399
  640ACTN    H3 6862   2.424   0.801   0.305  0.0272  0.7564  0.0637
  641ACTN    H6 6863   1.802   4.836   4.981  2.1794 -1.1888  0.6206
  641ACTN    C3 6864   1.751   4.783   5.061 -0.5655  0.1301 -0.1745
  641ACTN    H4 6865   1.801   4.689   5.083 -1.8449 -0.2283  1.2529
  641ACTN    H5 6866   1.655   4.755   5.019 -0.4977 -0.7326  0.2346
  641ACTN    C2 6867   1.750   4.859   5.190  0.0057  0.0760  0.4641
  641ACTN    O1 6868   1.698   4.967   5.191  0.2948  0.3892 -0.2719
  641ACTN    C1 6869   1.820   4.797   5.311  0.1164 -0.3093 -0.4399
  641ACTN    H1 6870   1.750   4.809   5.394  2.9845  2.0222  1.7069
  641ACTN    H2 6871   1.914   4.848   5.326  0.3124 -0.9743  0.6479
  641ACTN    H3 6872   1.843   4.691   5.296 -0.9488 -0.5119 -0.7144
  642ACTN    H6 6873   7.268   2.160   8.559 -1.2486 -1.2191  0.3321
  642ACTN    C3 6874   7.210   2.242   8.600 -0.4513 -0.3117 -0.3395
  642ACTN    H4 6875   7.165   2.195   8.688  1.6061  0.8124  1.3742
  642ACTN    H5 6876   7.270   2.328   8.632 -0.3059 -1.0932  1.5407
  642ACTN    C2 6877   7.100   2.274   8.506 -0.1437  0.3598  0.4878
  642ACTN    O1 6878   7.127   2.336   8.404 -0.0040  0.0401  0.5390
  642ACTN    C1 6879   6.963   2.243   8.543 -0.4530 -0.0036  0.6791
  642ACTN    H1 6880   6.883   2.265   8.472  0.4718  4.1624  0.8066
  642ACTN    H2 6881   6.931   2.286   8.638  0.6001 -1.2026  1.5790
  642ACTN    H3 6882   6.955   2.135   8.549 -1.8677 -0.0817 -1.8039
  643ACTN    H6 6883   3.570   7.305   2.785 -2.5384  1.6605 -2.0776
  643ACTN    C3 6884   3.577   7.213   2.727  0.1234  0.2931  0.2480
  643ACTN    H4 6885   3.635   7.141   2.784 -0.4648 -0.8068 -0.5358
  643ACTN    H5 6886   3.476   7.172   2.716 -0.1246  0.4832  1.6781
  643ACTN    C2 6887   3.645   7.242   2.597  0.1549 -0.6578 -0.1133
  643ACTN    O1 6888   3.646   7.357   2.559 -0.0877  0.2792  0.1283
  643ACTN    C1 6889   3.724   7.136   2.530  0.3321 -0.8228 -0.3501
  643ACTN    H1 6890   3.700   7.137   2.424 -3.9313  0.6385  0.5146
  643ACTN    H2 6891   3.695   7.037   2.563  1.5474 -2.4352 -3.9189
  643ACTN    H3 6892   3.831   7.150   2.546  0.1171  1.4832 -0.6404
  644ACTN    H6 6893   0.197   4.838   7.396  0.8037  3.2543 -2.2776
  644ACTN    C3 6894   0.155   4.915   7.461  0.1101  0.6706  0.4335
  644ACTN    H4 6895   0.208   5.009   7.446 -1.3635  1.3897 -0.4014
  644ACTN    H5 6896   0.048   4.932   7.454 -0.4309 -1.8779  1.6863
  644ACTN    C2 6897   0.171   4.868   7.607 -0.3252  0.3755 -0.4055
  644ACTN    O1 6898   0.111   4.934   7.688  0.3166  0.2770  0.1043
  644ACTN    C1 6899   0.224   4.731   7.640 -0.4704  0.2248 -0.4282
  644ACTN    H1 6900   0.253   4.668   7.556  1.7433  0.5643  0.0459
  644ACTN    H2 6901   0.150   4.677   7.699 -0.5719  0.1442 -0.6293
  644ACTN    H3 6902   0.312   4.741   7.703 -1.4175  0.4699  0.8628
  645ACTN    H6 6903   7.174   7.600   6.439  3.6521  0.5643  3.9589
  645ACTN    C3 6904   7.168   7.708   6.435  0.3883  0.3546 -0.2967
  645ACTN    H4 6905   7.083   7.732   6.370  0.5425 -0.4552 -0.8117
  645ACTN    H5 6906   7.139   7.747   6.532  3.9876 -2.2500  1.9311
  645ACTN    C2 6907   7.302   7.759   6.395  0.8150 -0.0316 -0.0737
  645ACTN    O1 6908   7.322   7.875   6.346 -0.1357 -0.5775  0.2956
  645ACTN    C1 6909   7.417   7.665   6.413  0.0917  0.6811 -0.1202
  645ACTN    H1 6910   7.471   7.655   6.318  0.1229  0.0004 -0.0314
  645ACTN    H2 6911   7.396   7.563   6.446  0.8839  0.7682  0.6794
  645ACTN    H3 6912   7.493   7.709   6.478 -0.1369 -0.7901  1.1642
  646ACTN    H6 6913   7.621   8.599   3.120 -0.3668 -0.0309  0.3326
  646ACTN    C3 6914   7.675   8.693   3.109  0.5274 -0.5218  0.5633
  646ACTN    H4 6915   7.615   8.778   3.139  1.0107  0.6530 -1.6626
  646ACTN    H5 6916   7.757   8.685   3.181 -0.0757  1.4261  1.4983
  646ACTN    C2 6917   7.734   8.722   2.971 -0.5328  0.5020  1.2536
  646ACTN    O1 6918   7.662   8.704   2.872  0.6637 -0.3353 -0.1102
  646ACTN    C1 6919   7.870   8.782   2.943  0.8203 -0.3392 -0.5313
  646ACTN    H1 6920   7.917   8.783   3.042 -1.1569  2.9070  0.4477
  646ACTN    H2 6921   7.865   8.887   2.914  2.2090  0.1683  0.9993
  646ACTN    H3 6922   7.938   8.730   2.876  2.8256 -0.4112  1.4945
  647ACTN    H6 6923   6.299   3.636   5.045  0.3592 -0.3166  0.8773
  647ACTN    C3 6924   6.245   3.730   5.039  0.0614 -0.5279  0.2389
  647ACTN    H4 6925   6.153   3.703   4.987  0.5974  0.3405 -1.2066
  647ACTN    H5 6926   6.314   3.787   4.976  0.0663  0.2839  0.9696
  647ACTN    C2 6927   6.214   3.797   5.170  0.2357 -0.4695  0.1987
  647ACTN    O1 6928   6.278   3.764   5.267  0.0922 -0.3434 -0.0293
  647ACTN    C1 6929   6.098   3.902   5.188 -0.1730 -0.0224 -0.4167
  647ACTN    H1 6930   6.005   3.879   5.136 -2.6082  0.4014  3.4814
  647ACTN    H2 6931   6.129   4.004   5.168  0.3657  0.3552  2.1723
  647ACTN    H3 6932   6.078   3.902   5.296  2.0977 -1.7511  0.0512
  648ACTN    H6 6933   7.612   6.825   4.492  0.3846 -0.0601  1.0170
  648ACTN    C3 6934   7.576   6.858   4.590 -0.0118  0.9126  0.5596
  648ACTN    H4 6935   7.586   6.775   4.660 -0.0146  0.0305 -0.4656
  648ACTN    H5 6936   7.645   6.934   4.626  0.0917  0.2020  1.8884
  648ACTN    C2 6937   7.449   6.929   4.601  0.4731  0.0425 -0.4104
  648ACTN    O1 6938   7.402   6.954   4.716 -0.3377  0.2747 -0.5776
  648ACTN    C1 6939   7.388   6.989   4.481  0.2371 -0.1986  0.1646
  648ACTN    H1 6940   7.405   7.097   4.487  0.9130 -0.3139  0.3947
  648ACTN    H2 6941   7.282   6.975   4.499  0.2381  0.7382  1.0102
  648ACTN    H3 6942   7.419   6.948   4.385 -1.6185 -0.7041 -0.2225
  649ACTN    H6 6943   8.954   2.480   1.347  0.4835  0.8189  0.8967
  649ACTN    C3 6944   9.010   2.483   1.253  0.0834 -0.4677  0.6104
  649ACTN    H4 6945   8.947   2.529   1.177  2.7541 -0.3846 -1.5988
  649ACTN    H5 6946   9.096   2.548   1.261 -1.3660  1.5598  0.1932
  649ACTN    C2 6947   9.057   2.350   1.200 -0.2073  0.1158  0.1011
  649ACTN    O1 6948   9.171   2.326   1.173  0.3255 -0.2013  0.0391
  649ACTN    C1 6949   8.961   2.247   1.157 -0.5623 -0.4016 -0.1381
  649ACTN    H1 6950   8.975   2.141   1.178  1.5731 -0.1580 -0.2594
  649ACTN    H2 6951   8.948   2.251   1.049  1.2400 -1.4044 -0.4051
  649ACTN    H3 6952   8.857   2.265   1.187 -0.7754 -1.4798 -0.2199
  650ACTN    H6 6953   1.740   8.147   7.993 -0.8012 -0.4781  2.3573
  650ACTN    C3 6954   1.816   8.075   7.963 -0.7406  0.2930  0.6288
  650ACTN    H4 6955   1.909   8.132   7.958 -1.7628  1.8950 -0.5419
  650ACTN    H5 6956   1.824   7.997   8.039 -1.6779 -1.3323 -0.9065
  650ACTN    C2 6957   1.781   8.010   7.827 -0.4076  0.1162  0.4991
  650ACTN    O1 6958   1.740   7.898   7.819  0.0799 -0.0156 -0.5485
  650ACTN    C1 6959   1.809   8.093   7.703 -0.8259  0.0087  0.4023
  650ACTN    H1 6960   1.910   8.133   7.708 -0.0723 -2.0973  3.4063
  650ACTN    H2 6961   1.735   8.174   7.712  0.0024  0.9826 -1.3901
  650ACTN    H3 6962   1.792   8.041   7.609 -1.7721 -0.8445  1.0367
  651ACTN    H6 6963   2.932   6.387   4.210 -1.4722 -0.1293  3.3377
  651ACTN    C3 6964   2.863   6.332   4.145  0.2458  0.6251  0.7910
  651ACTN    H4 6965   2.786   6.408   4.133  0.4157  0.9482  1.7126
  651ACTN    H5 6966   2.917   6.318   4.051 -1.5123 -1.1122  0.0050
  651ACTN    C2 6967   2.804   6.199   4.178  0.4769  0.3479 -0.1912
  651ACTN    O1 6968   2.865   6.118   4.249 -0.0189 -0.1297  0.2040
  651ACTN    C1 6969   2.694   6.150   4.089 -0.0421 -0.2514  0.3767
  651ACTN    H1 6970   2.603   6.152   4.150  0.9526 -1.8224  1.9340
  651ACTN    H2 6971   2.702   6.051   4.045 -0.8009  0.1598 -0.7089
  651ACTN    H3 6972   2.678   6.223   4.010  0.2500  1.0808  1.5230
  652ACTN    H6 6973   4.944   7.399   6.393  0.0051 -0.3048  0.7360
  652ACTN    C3 6974   4.841   7.383   6.424 -0.3306 -0.0941 -0.2673
  652ACTN    H4 6975   4.837   7.396   6.532 -0.2618 -0.3592 -0.2314
  652ACTN    H5 6976   4.785   7.465   6.378  2.3697  1.0604 -1.6118
  652ACTN    C2 6977   4.794   7.242   6.399  0.3257  0.1378 -0.8076
  652ACTN    O1 6978   4.804   7.152   6.483 -0.2219  0.2022  0.0870
  652ACTN    C1 6979   4.739   7.210   6.266  1.0109  0.4319 -0.0358
  652ACTN    H1 6980   4.647   7.153   6.272  2.3304 -1.6019  1.7262
  652ACTN    H2 6981   4.813   7.165   6.199  1.8291  1.9926 -0.2062
  652ACTN    H3 6982   4.713   7.301   6.212 -1.1753 -0.5412 -0.6794
  653ACTN    H6 6983   0.788   8.996   3.891 -0.1359  2.4494 -0.4810
  653ACTN    C3 6984   0.719   8.997   3.975  0.4505  0.0322  0.0665
  653ACTN    H4 6985   0.636   8.932   3.945 -0.1998  1.3692 -1.1549
  653ACTN    H5 6986   0.762   8.953   4.064  0.8930  0.9010  0.2876
  653ACTN    C2 6987   0.672   9.146   4.008  0.6720  0.6438  0.0917
  653ACTN    O1 6988   0.727   9.212   4.096  0.7680 -0.3352  0.7073
  653ACTN    C1 6989   0.554   9.202   3.935 -0.2990  0.0049 -0.4663
  653ACTN    H1 6990   0.575   9.306   3.909 -3.2891  0.5673 -0.8515
  653ACTN    H2 6991   0.460   9.203   3.991 -2.0047  0.5940 -3.2519
  653ACTN    H3 6992   0.527   9.149   3.844 -0.7081 -0.6342  0.0234
  654ACTN    H6 6993   7.444   7.141   1.579  0.9278 -1.7910 -0.2066
  654ACTN    C3 6994   7.548   7.173   1.589  0.4257 -0.1851  0.0038
  654ACTN    H4 6995   7.564   7.214   1.689  1.3466 -1.4497  0.3855
  654ACTN    H5 6996   7.616   7.088   1.597 -2.0030 -2.3505 -1.4101
  654ACTN    C2 6997   7.587   7.257   1.486  0.1194  0.3644  0.6606
  654ACTN    O1 6998   7.664   7.352   1.505  0.2864  0.4426 -0.2389
  654ACTN    C1 6999   7.524   7.251   1.351 -0.0578 -0.4545 -0.6920
  654ACTN    H1 7000   7.599   7.270   1.275  0.7376 -3.6681 -0.8037
  654ACTN    H2 7001   7.448   7.329   1.344  2.2009  1.8460 -0.0745
  654ACTN    H3 7002   7.477   7.152   1.346 -3.5728  1.0533  0.9081
  655ACTN    H6 7003   8.909   1.511   7.201  1.3706 -2.9373  0.1336
  655ACTN    C3 7004   8.952   1.498   7.101  0.0300  0.1188 -0.8973
  655ACTN    H4 7005   9.029   1.572   7.077  0.9178 -0.3453  0.4811
  655ACTN    H5 7006   9.005   1.403   7.101  0.0476  0.1108  0.9029
  655ACTN    C2 7007   8.847   1.507   6.986  0.1010  0.0680 -0.6526
  655ACTN    O1 7008   8.759   1.422   6.986 -0.4345  0.0019 -0.5648
  655ACTN    C1 7009   8.835   1.637   6.917 -0.4111 -0.2913  0.5180
  655ACTN    H1 7010   8.777   1.705   6.980  0.3171 -0.6644  1.6022
  655ACTN    H2 7011   8.777   1.633   6.824 -2.0188  0.1898  1.4849
  655ACTN    H3 7012   8.929   1.685   6.890  0.2536 -0.1358  3.0425
  656ACTN    H6 7013   7.577   5.721   8.306  1.5431 -0.4088 -0.5023
  656ACTN    C3 7014   7.553   5.712   8.200  0.1385 -0.4914 -0.1759
  656ACTN    H4 7015   7.549   5.613   8.155  1.4052 -0.1979 -0.9509
  656ACTN    H5 7016   7.460   5.767   8.183  0.8620  1.0570  0.7473
  656ACTN    C2 7017   7.659   5.784   8.120 -0.0509 -0.1726  0.2518
  656ACTN    O1 7018   7.701   5.736   8.016  0.3240 -0.0933 -0.1572
  656ACTN    C1 7019   7.727   5.901   8.175  0.4280 -0.5719  0.1314
  656ACTN    H1 7020   7.789   5.870   8.260  1.5039  0.8100 -0.1312
  656ACTN    H2 7021   7.659   5.980   8.208 -0.3275 -0.4005 -1.7680
  656ACTN    H3 7022   7.795   5.941   8.100  1.5829 -1.4794  0.6850
  657ACTN    H6 7023   6.652   4.556   2.504 -0.2902  0.6555  0.4421
  657ACTN    C3 7024   6.594   4.624   2.441  0.4791  0.2122 -0.7705
  657ACTN    H4 7025   6.571   4.582   2.343 -0.5126  0.1239 -0.5004
  657ACTN    H5 7026   6.499   4.645   2.490  1.3743  0.6604  0.8121
  657ACTN    C2 7027   6.676   4.751   2.424 -0.8953  0.1685 -0.0690
  657ACTN    O1 7028   6.636   4.854   2.483 -0.3876  0.0784  0.3845
  657ACTN    C1 7029   6.803   4.742   2.345  0.0000 -0.8077  0.4490
  657ACTN    H1 7030   6.885   4.693   2.397  0.4919  1.5211  1.9186
  657ACTN    H2 7031   6.839   4.844   2.334 -1.1979 -0.5220 -0.9996
  657ACTN    H3 7032   6.795   4.692   2.248  1.0924 -0.0056 -0.0701
  658ACTN    H6 7033   6.154   7.855   4.261 -0.6314  0.5920  1.0128
  658ACTN    C3 7034   6.052   7.822   4.241 -0.2804 -0.1626  0.4729
  658ACTN    H4 7035   6.008   7.770   4.326  2.6023 -2.6557  0.5708
  658ACTN    H5 7036   5.990   7.902   4.202 -1.1722 -0.8458  0.4650
  658ACTN    C2 7037   6.059   7.709   4.141 -0.7630 -0.3078  0.0638
  658ACTN    O1 7038   5.964   7.634   4.117 -0.1521 -0.1493  0.2954
  658ACTN    C1 7039   6.170   7.729   4.034 -0.3075  0.2327  0.6318
  658ACTN    H1 7040   6.267   7.717   4.082 -0.1566  1.7983  0.7422
  658ACTN    H2 7041   6.174   7.824   3.982 -1.3512 -0.4251 -0.6816
  658ACTN    H3 7042   6.165   7.653   3.956 -0.6515  1.1952 -0.2948
  659ACTN    H6 7043   8.446   7.641   3.756  0.6845  0.4578 -2.6172
  659ACTN    C3 7044   8.361   7.588   3.714 -0.6261 -0.0405  0.5501
  659ACTN    H4 7045   8.278   7.649   3.750 -0.1367 -0.0751  1.7850
  659ACTN    H5 7046   8.381   7.600   3.608  1.3744 -1.1671  0.7746
  659ACTN    C2 7047   8.351   7.442   3.755 -0.1727  0.7355 -0.6302
  659ACTN    O1 7048   8.261   7.375   3.700  0.1300 -0.3104  0.3732
  659ACTN    C1 7049   8.452   7.380   3.846  0.7941 -0.6096  0.1491
  659ACTN    H1 7050   8.408   7.334   3.935 -2.6286  0.9518 -0.6773
  659ACTN    H2 7051   8.519   7.459   3.881  1.8135 -1.2296 -0.3742
  659ACTN    H3 7052   8.512   7.307   3.792 -1.2300 -0.1735 -2.7912
  660ACTN    H6 7053   5.006   8.107   0.928  0.3952 -1.0200  0.4180
  660ACTN    C3 7054   5.051   8.041   0.854 -0.0014 -1.0268  0.1800
  660ACTN    H4 7055   4.983   7.957   0.838 -1.8174  0.7383 -1.7938
  660ACTN    H5 7056   5.051   8.090   0.756 -0.3342  1.2382  1.2820
  660ACTN    C2 7057   5.195   8.004   0.893  0.3887 -0.2699 -0.1784
  660ACTN    O1 7058   5.227   7.893   0.926  0.3101 -0.1211 -0.0931
  660ACTN    C1 7059   5.291   8.110   0.893 -0.0472  0.2606  0.1426
  660ACTN    H1 7060   5.367   8.101   0.816  0.2159 -0.5369  0.4926
  660ACTN    H2 7061   5.345   8.116   0.987  0.1782  2.4417 -0.1190
  660ACTN    H3 7062   5.235   8.203   0.882 -1.9876 -0.9444 -0.5279
  661ACTN    H6 7063   8.126   6.345   3.812 -1.6903 -0.2647  0.3320
  661ACTN    C3 7064   8.146   6.238   3.802  0.5219  0.1156  0.4151
  661ACTN    H4 7065   8.234   6.219   3.741 -0.6361 -3.8670 -0.1403
  661ACTN    H5 7066   8.169   6.201   3.902  0.1020  1.3294  0.9687
  661ACTN    C2 7067   8.023   6.169   3.740 -0.2351 -0.7795  0.3747
  661ACTN    O1 7068   8.011   6.178   3.616 -0.2123 -0.1892 -0.0652
  661ACTN    C1 7069   7.895   6.134   3.818  0.0904 -0.0902  0.6200
  661ACTN    H1 7070   7.816   6.105   3.749 -1.5942  1.7538  1.6986
  661ACTN    H2 7071   7.857   6.223   3.869  2.5291  0.5851  1.3117
  661ACTN    H3 7072   7.920   6.065   3.899  2.8009  0.4883  0.3099
  662ACTN    H6 7073   7.650   4.560   2.646  1.1197  1.7735 -1.3441
  662ACTN    C3 7074   7.552   4.606   2.641  0.1340 -0.1381 -0.4078
  662ACTN    H4 7075   7.491   4.561   2.563  1.1317 -0.5435 -0.9609
  662ACTN    H5 7076   7.497   4.595   2.735  2.3378  0.9574  1.0664
  662ACTN    C2 7077   7.572   4.751   2.604  0.1819 -0.0316 -0.2894
  662ACTN    O1 7078   7.618   4.783   2.496  0.1315  0.5180  0.4029
  662ACTN    C1 7079   7.504   4.855   2.697 -0.4161 -0.5909 -0.7396
  662ACTN    H1 7080   7.580   4.916   2.747 -2.4341  2.9851 -1.9037
  662ACTN    H2 7081   7.446   4.814   2.780  1.7461 -0.6953  0.7954
  662ACTN    H3 7082   7.440   4.917   2.635  2.3126  2.0894 -0.9796
  663ACTN    H6 7083   4.102   6.604   4.358 -3.3205 -0.5143 -3.0857
  663ACTN    C3 7084   4.085   6.504   4.397  0.0198  0.1057  0.2757
  663ACTN    H4 7085   4.170   6.450   4.357  1.1971  0.9985  1.5280
  663ACTN    H5 7086   4.098   6.496   4.505 -1.3004 -0.5778  0.3919
  663ACTN    C2 7087   3.957   6.444   4.359  0.1663  0.5295  0.2379
  663ACTN    O1 7088   3.943   6.327   4.330 -0.2040  0.3445 -0.6313
  663ACTN    C1 7089   3.826   6.512   4.407  0.2395  0.5311  0.1101
  663ACTN    H1 7090   3.838   6.577   4.493  0.9455  1.0328 -0.3536
  663ACTN    H2 7091   3.760   6.433   4.443  0.2000 -0.1181 -1.3179
  663ACTN    H3 7092   3.779   6.561   4.321 -2.1063  1.3308  1.7956
  664ACTN    H6 7093   6.198   1.930   1.306  1.4541 -0.3430 -0.5668
  664ACTN    C3 7094   6.220   2.037   1.317 -0.4171 -0.0311  0.3018
  664ACTN    H4 7095   6.152   2.093   1.253  0.2643  1.4267  0.8358
  664ACTN    H5 7096   6.210   2.076   1.418 -1.8241  0.1001  0.1288
  664ACTN    C2 7097   6.360   2.057   1.267 -0.0556 -0.1056 -0.9564
  664ACTN    O1 7098   6.450   2.090   1.340 -0.5019  0.0430 -0.2814
  664ACTN    C1 7099   6.385   2.038   1.123 -0.4440  0.7342  0.2936
  664ACTN    H1 7100   6.491   2.033   1.100 -0.8280  2.5024 -2.0925
  664ACTN    H2 7101   6.330   2.114   1.066 -2.2621 -0.7230  0.0529
  664ACTN    H3 7102   6.334   1.944   1.102 -2.4587  2.1937 -1.6937
  665ACTN    H6 7103   3.738   3.765   0.097 -1.9462 -0.7835  0.4019
  665ACTN    C3 7104   3.722   3.753   0.204  0.3663 -0.3312  0.8380
  665ACTN    H4 7105   3.677   3.655   0.221 -1.3794  0.4654  0.9618
  665ACTN    H5 7106   3.819   3.769   0.250  0.8493 -1.1335  0.1175
  665ACTN    C2 7107   3.617   3.852   0.241 -0.3291 -0.5074 -0.0634
  665ACTN    O1 7108   3.551   3.842   0.341  0.4052 -0.0021  0.2690
  665ACTN    C1 7109   3.574   3.944   0.130 -0.1380 -0.3367  0.7939
  665ACTN    H1 7110   3.479   3.997   0.142  0.0855  0.4929 -0.9133
  665ACTN    H2 7111   3.568   3.886   0.038  1.2982  1.7462 -0.6316
  665ACTN    H3 7112   3.650   4.020   0.115  1.9068 -2.2428  1.2661
  666ACTN    H6 7113   3.543   4.464   0.833  2.2130 -0.1160  1.4609
  666ACTN    C3 7114   3.583   4.543   0.770 -0.0295  0.0302  0.1558
  666ACTN    H4 7115   3.512   4.577   0.695  1.1298 -0.6923 -1.2929
  666ACTN    H5 7116   3.609   4.627   0.835 -0.5673  0.3349 -0.0202
  666ACTN    C2 7117   3.694   4.463   0.707 -0.0028 -0.4482  0.6905
  666ACTN    O1 7118   3.785   4.427   0.779 -0.3257  0.1940 -0.6230
  666ACTN    C1 7119   3.682   4.437   0.561  0.4401 -0.6131 -0.3695
  666ACTN    H1 7120   3.763   4.495   0.516  0.0002  0.0060 -0.3623
  666ACTN    H2 7121   3.591   4.480   0.520 -1.7266 -1.7513  3.0366
  666ACTN    H3 7122   3.697   4.335   0.527 -0.3499 -1.0029  0.4367
  667ACTN    H6 7123   1.689   2.111   3.079 -0.1639  0.9664 -0.2404
  667ACTN    C3 7124   1.796   2.090   3.078 -0.2854  0.3479 -0.0482
  667ACTN    H4 7125   1.847   2.170   3.025 -0.2331  0.5076  0.2438
  667ACTN    H5 7126   1.830   2.085   3.182  0.2060  0.2694 -0.2139
  667ACTN    C2 7127   1.835   1.957   3.023 -0.1432 -0.3675  0.6604
  667ACTN    O1 7128   1.938   1.946   2.959 -0.3950  0.1844 -0.0727
  667ACTN    C1 7129   1.751   1.840   3.044  0.5374 -0.0840 -0.0346
  667ACTN    H1 7130   1.749   1.781   2.952  2.7361 -0.9975  0.4718
  667ACTN    H2 7131   1.646   1.859   3.062 -0.4710 -4.0702 -1.1803
  667ACTN    H3 7132   1.787   1.778   3.126  1.3447 -0.0575 -0.3605
  668ACTN    H6 7133   5.481   2.953   0.690 -0.7776 -1.9933 -0.3333
  668ACTN    C3 7134   5.507   2.932   0.794  0.0735 -0.2908 -0.1940
  668ACTN    H4 7135   5.583   2.996   0.838 -0.2002  0.3947 -0.7017
  668ACTN    H5 7136   5.418   2.947   0.855  0.7783 -0.7500  0.9530
  668ACTN    C2 7137   5.558   2.787   0.798 -0.9606 -0.3543  0.1809
  668ACTN    O1 7138   5.510   2.692   0.730  0.0716  0.4418 -0.0509
  668ACTN    C1 7139   5.668   2.752   0.889 -0.5601 -0.8557  0.4149
  668ACTN    H1 7140   5.630   2.706   0.981  0.2702 -1.4540  0.4651
  668ACTN    H2 7141   5.731   2.838   0.912  1.7337 -2.3918 -0.0224
  668ACTN    H3 7142   5.746   2.689   0.847  0.1193  0.3255 -0.1067
  669ACTN    H6 7143   7.289   2.176   6.827  0.1546  2.2583 -0.5412
  669ACTN    C3 7144   7.350   2.180   6.737  0.4994  0.2976 -0.4167
  669ACTN    H4 7145   7.289   2.225   6.659 -2.4468 -0.0003  1.6478
  669ACTN    H5 7146   7.441   2.234   6.765  0.8453 -0.2121 -0.5445
  669ACTN    C2 7147   7.377   2.031   6.714 -0.6368  0.3059 -0.4649
  669ACTN    O1 7148   7.365   1.984   6.602 -0.7909  0.1642 -0.1001
  669ACTN    C1 7149   7.386   1.934   6.829 -0.1451 -0.0517  0.0709
  669ACTN    H1 7150   7.446   1.851   6.793  0.6220 -0.0973  1.4221
  669ACTN    H2 7151   7.286   1.903   6.858  0.2661 -1.6961 -0.2500
  669ACTN    H3 7152   7.450   1.978   6.905 -1.1420  1.1812  0.2195
  670ACTN    H6 7153   7.885   0.990   4.036  0.3088 -0.1307  0.1093
  670ACTN    C3 7154   7.821   0.904   4.020  0.1701 -0.0296  0.1212
  670ACTN    H4 7155   7.856   0.840   3.939 -1.1895  0.8248 -1.1618
  670ACTN    H5 7156   7.824   0.844   4.111 -0.9589 -0.1064  0.1134
  670ACTN    C2 7157   7.684   0.951   3.996  0.1786 -0.3226 -0.7223
  670ACTN    O1 7158   7.663   1.051   3.928  0.2773  0.1767 -0.2262
  670ACTN    C1 7159   7.567   0.874   4.058  0.1525  0.3788 -0.0785
  670ACTN    H1 7160   7.591   0.857   4.163 -2.2658 -0.1661  0.4248
  670ACTN    H2 7161   7.532   0.778   4.019  1.2936  0.1403 -0.5231
  670ACTN    H3 7162   7.479   0.937   4.053 -0.1321  0.2574  2.4137
  671ACTN    H6 7163   4.880   5.400   0.615  0.6178 -1.1468  0.6271
  671ACTN    C3 7164   4.945   5.455   0.546 -0.4649  0.1214  0.5991
  671ACTN    H4 7165   4.966   5.553   0.588  3.0251 -0.9521  1.4847
  671ACTN    H5 7166   5.032   5.396   0.519 -0.0497  1.1321 -0.2780
  671ACTN    C2 7167   4.860   5.467   0.418  0.4569 -0.3157 -0.6459
  671ACTN    O1 7168   4.749   5.523   0.412  0.0617  0.6234  0.3143
  671ACTN    C1 7169   4.892   5.382   0.305  0.8346  0.4510  0.2584
  671ACTN    H1 7170   4.920   5.427   0.210 -1.0214 -1.4314 -1.2587
  671ACTN    H2 7171   4.807   5.318   0.277  1.2781 -0.1258  0.2151
  671ACTN    H3 7172   4.976   5.317   0.330  0.8606 -0.0936 -1.1805
  672ACTN    H6 7173   1.458   0.538   0.821 -1.3836  1.2219  0.2404
  672ACTN    C3 7174   1.497   0.584   0.731  0.9894  0.3893  0.8028
  672ACTN    H4 7175   1.516   0.507   0.656  0.0335  0.2426  0.7040
  672ACTN    H5 7176   1.416   0.649   0.698  2.2814  0.9820 -1.3637
  672ACTN    C2 7177   1.608   0.678   0.753 -0.1952 -0.3994  0.0122
  672ACTN    O1 7178   1.680   0.723   0.665  0.5275 -0.3782  0.2256
  672ACTN    C1 7179   1.609   0.753   0.883  0.3885 -0.2592 -0.1512
  672ACTN    H1 7180   1.689   0.827   0.891 -0.5675  0.5497  2.3840
  672ACTN    H2 7181   1.627   0.693   0.971 -1.1927  0.2282  0.5281
  672ACTN    H3 7182   1.509   0.796   0.893 -0.2161 -1.5739 -0.4330
  673ACTN    H6 7183   1.435   7.616   5.136 -2.8017 -2.4671 -1.4504
  673ACTN    C3 7184   1.500   7.556   5.072  0.4159  0.3791 -0.9530
  673ACTN    H4 7185   1.450   7.459   5.072 -0.2677  0.7201  0.6798
  673ACTN    H5 7186   1.489   7.597   4.971 -3.9457  1.8474  0.0294
  673ACTN    C2 7187   1.638   7.548   5.116 -0.8174 -0.1314 -0.0362
  673ACTN    O1 7188   1.666   7.503   5.225 -0.6653  0.0512 -0.0873
  673ACTN    C1 7189   1.750   7.596   5.029  0.1517  0.0219  0.5576
  673ACTN    H1 7190   1.813   7.517   4.987 -0.4011  1.2022 -2.6685
  673ACTN    H2 7191   1.821   7.656   5.085 -0.7016  0.3721  1.2692
  673ACTN    H3 7192   1.708   7.648   4.943 -0.1677  0.0341  0.7226
  674ACTN    H6 7193   4.936   2.592   1.913 -2.7732 -1.2765 -0.7991
  674ACTN    C3 7194   4.970   2.529   1.995  0.5372  0.3597 -0.8099
  674ACTN    H4 7195   4.879   2.475   2.023 -0.1533  0.7526 -2.2224
  674ACTN    H5 7196   5.039   2.455   1.955 -0.8634 -0.4744 -1.7492
  674ACTN    C2 7197   5.034   2.596   2.111  0.5291  0.0894 -0.4160
  674ACTN    O1 7198   5.051   2.537   2.219  0.1340  0.0603  0.7354
  674ACTN    C1 7199   5.099   2.731   2.096 -0.6716  0.1546 -0.7087
  674ACTN    H1 7200   5.186   2.714   2.033  1.0322  2.6205  0.8986
  674ACTN    H2 7201   5.138   2.776   2.187  0.2890  0.7984 -1.4266
  674ACTN    H3 7202   5.037   2.807   2.047 -3.8566 -1.6682  0.3807
  675ACTN    H6 7203   2.505   8.709   8.503 -1.1948  2.3019 -2.2599
  675ACTN    C3 7204   2.451   8.630   8.451  0.0774 -0.1969  0.0573
  675ACTN    H4 7205   2.401   8.688   8.373  2.2400  0.8150 -0.5943
  675ACTN    H5 7206   2.521   8.564   8.400  0.2683  2.5765 -3.4748
  675ACTN    C2 7207   2.356   8.544   8.535  0.1796  0.0963  0.5029
  675ACTN    O1 7208   2.322   8.573   8.648  0.1342  0.3391  0.2686
  675ACTN    C1 7209   2.290   8.437   8.461  0.5268  0.2748 -0.8006
  675ACTN    H1 7210   2.224   8.483   8.388  1.0517 -1.5946 -2.4927
  675ACTN    H2 7211   2.229   8.377   8.529 -0.5645  0.6954 -1.4011
  675ACTN    H3 7212   2.355   8.369   8.405  0.5326  1.9332 -2.8457
  676ACTN    H6 7213   5.615   2.435   3.756 -1.2703  0.0779  0.9245
  676ACTN    C3 7214   5.706   2.387   3.792 -1.3276 -0.2716  0.5989
  676ACTN    H4 7215   5.669   2.301   3.847 -0.8852 -1.6372 -1.1786
  676ACTN    H5 7216   5.748   2.344   3.700 -0.5336  2.9257 -0.6153
  676ACTN    C2 7217   5.810   2.484   3.853 -0.0463  0.8236 -0.7504
  676ACTN    O1 7218   5.873   2.437   3.947 -0.0093  0.1094 -0.3326
  676ACTN    C1 7219   5.817   2.620   3.801  0.0889 -0.7481 -0.0267
  676ACTN    H1 7220   5.864   2.691   3.869  0.5868 -0.3559 -0.7733
  676ACTN    H2 7221   5.716   2.659   3.786  0.4927 -0.3282 -1.8442
  676ACTN    H3 7222   5.865   2.614   3.703 -1.3025  0.2767 -0.7920
  677ACTN    H6 7223   7.536   6.619   3.081  0.3378  0.6258 -0.7621
  677ACTN    C3 7224   7.528   6.556   2.992  0.3419 -0.4809  0.0009
  677ACTN    H4 7225   7.612   6.571   2.924 -0.8361 -1.8603 -1.8072
  677ACTN    H5 7226   7.527   6.452   3.022 -1.3994  0.1908  2.3809
  677ACTN    C2 7227   7.402   6.613   2.934 -0.6686  0.1759 -0.2170
  677ACTN    O1 7228   7.297   6.540   2.934 -0.6588 -0.0830  0.1101
  677ACTN    C1 7229   7.386   6.760   2.931 -0.1240  0.2821  0.6196
  677ACTN    H1 7230   7.310   6.790   2.858  0.0356  0.1730  0.4047
  677ACTN    H2 7231   7.480   6.804   2.897 -0.9445 -0.1047 -2.3397
  677ACTN    H3 7232   7.366   6.808   3.026 -2.0503  3.0988 -1.1037
  678ACTN    H6 7233   4.233   3.264   6.814  1.0483 -0.2862  0.1813
  678ACTN    C3 7234   4.161   3.228   6.740  0.2439  0.3026  0.6726
  678ACTN    H4 7235   4.212   3.188   6.653  1.5393 -0.7118  1.8875
  678ACTN    H5 7236   4.093   3.152   6.780  0.1875 -0.4575 -0.8508
  678ACTN    C2 7237   4.076   3.348   6.719  0.1705  0.1535 -0.0683
  678ACTN    O1 7238   4.096   3.449   6.787 -0.1647  0.3443 -0.0337
  678ACTN    C1 7239   3.994   3.359   6.600 -1.0092 -0.0460 -0.2163
  678ACTN    H1 7240   3.893   3.372   6.639 -0.1478  1.3543  1.6495
  678ACTN    H2 7241   3.996   3.264   6.547 -0.9457 -0.2144  0.0883
  678ACTN    H3 7242   4.020   3.433   6.524  0.6387 -0.3947 -0.0270
  679ACTN    H6 7243   7.186   1.405   6.006  0.1009  0.5898 -0.1719
  679ACTN    C3 7244   7.266   1.450   5.946  0.5695 -0.3516 -0.2743
  679ACTN    H4 7245   7.249   1.433   5.840 -0.3653  1.2374 -0.3977
  679ACTN    H5 7246   7.270   1.557   5.969  0.5110 -0.7245  1.5264
  679ACTN    C2 7247   7.405   1.392   5.970 -0.2534 -0.1383  0.7118
  679ACTN    O1 7248   7.459   1.301   5.911 -0.1117 -0.6298 -0.8957
  679ACTN    C1 7249   7.458   1.417   6.110 -0.4016  0.5311 -0.2145
  679ACTN    H1 7250   7.567   1.407   6.117 -0.2037  2.4169 -0.2899
  679ACTN    H2 7251   7.411   1.354   6.185  2.2322  0.0213  1.0966
  679ACTN    H3 7252   7.434   1.520   6.135 -0.4204  0.2515  0.9410
  680ACTN    H6 7253   2.498   0.631   3.461 -0.9747  1.0039  0.0403
  680ACTN    C3 7254   2.447   0.541   3.495 -0.0658  0.3964 -0.1875
  680ACTN    H4 7255   2.482   0.455   3.438  3.1939  1.5329 -0.0195
  680ACTN    H5 7256   2.450   0.529   3.603  1.3474  0.1260 -0.2442
  680ACTN    C2 7257   2.306   0.566   3.452  0.0563  0.5462  0.7774
  680ACTN    O1 7258   2.224   0.474   3.430  0.1319 -0.1761 -0.3798
  680ACTN    C1 7259   2.238   0.701   3.447  0.0317  0.4842 -0.2165
  680ACTN    H1 7260   2.306   0.781   3.478 -1.3229  0.3280  3.4555
  680ACTN    H2 7261   2.153   0.711   3.514 -2.7299 -1.1917 -3.3465
  680ACTN    H3 7262   2.193   0.716   3.349  1.0136  1.1554 -0.5745
  681ACTN    H6 7263   8.627   6.263   2.134  1.1845  1.5837  0.1035
  681ACTN    C3 7264   8.653   6.265   2.241  0.2616 -0.8134  0.3907
  681ACTN    H4 7265   8.598   6.189   2.297 -1.0698  0.8941  1.4301
  681ACTN    H5 7266   8.758   6.236   2.242  0.3381 -0.5924 -0.4945
  681ACTN    C2 7267   8.622   6.395   2.302 -0.1337  0.2301  0.0301
  681ACTN    O1 7268   8.588   6.495   2.230 -0.3701  0.5617 -0.3362
  681ACTN    C1 7269   8.619   6.399   2.450  0.5156 -0.2660 -0.0800
  681ACTN    H1 7270   8.669   6.310   2.487 -0.1035 -0.1377  1.0993
  681ACTN    H2 7271   8.515   6.404   2.485  1.1345 -0.4198  1.8131
  681ACTN    H3 7272   8.681   6.484   2.477  2.5174 -0.6745 -3.1456
  682ACTN    H6 7273   1.555   6.363   5.118  0.3643 -0.4024  0.0704
  682ACTN    C3 7274   1.588   6.393   5.218 -0.0218 -0.0818  0.1051
  682ACTN    H4 7275   1.535   6.348   5.301 -0.2392  0.7603  0.4303
  682ACTN    H5 7276   1.688   6.351   5.229 -0.5048 -1.5908 -1.1061
  682ACTN    C2 7277   1.596   6.545   5.215 -0.0424  0.0109  0.5277
  682ACTN    O1 7278   1.670   6.605   5.141 -0.6908  0.0882 -0.0376
  682ACTN    C1 7279   1.545   6.620   5.333 -0.8153  0.4782  0.4318
  682ACTN    H1 7280   1.544   6.724   5.301 -1.0970 -0.0160 -1.2177
  682ACTN    H2 7281   1.607   6.597   5.420  1.5946  0.1444 -1.3391
  682ACTN    H3 7282   1.442   6.587   5.348 -0.2698 -1.1140  0.8634
  683ACTN    H6 7283   5.259   1.936   6.659  1.5348 -2.6756 -0.0150
  683ACTN    C3 7284   5.344   1.970   6.718  0.2400 -0.1886  0.5094
  683ACTN    H4 7285   5.329   2.048   6.793 -0.3172 -0.6637  0.8968
  683ACTN    H5 7286   5.368   1.881   6.776 -0.3899  0.4238  1.7288
  683ACTN    C2 7287   5.454   1.998   6.623  0.9561  0.2543  0.2852
  683ACTN    O1 7288   5.477   2.111   6.597  0.4536  0.7644  0.5081
  683ACTN    C1 7289   5.508   1.882   6.545 -0.0953  0.6766 -0.0298
  683ACTN    H1 7290   5.429   1.812   6.518  3.3021 -2.6089 -2.1058
  683ACTN    H2 7291   5.585   1.837   6.607  1.7929  0.5672 -2.3527
  683ACTN    H3 7292   5.556   1.915   6.452 -0.3806  0.4974 -0.2428
  684ACTN    H6 7293   0.954   6.062   4.383  1.6562 -0.6278 -0.4892
  684ACTN    C3 7294   0.997   6.163   4.380 -0.7265  0.4349  0.0225
  684ACTN    H4 7295   0.950   6.221   4.300 -0.9063  0.5705  0.2251
  684ACTN    H5 7296   0.978   6.210   4.476 -0.6460  1.2878 -0.3794
  684ACTN    C2 7297   1.150   6.164   4.358  0.1325  0.0713  0.9187
  684ACTN    O1 7298   1.214   6.056   4.360 -0.0714 -0.0685 -0.1859
  684ACTN    C1 7299   1.219   6.295   4.330  0.0012  0.0156  0.3161
  684ACTN    H1 7300   1.270   6.328   4.420 -0.1882  1.4858 -0.1009
  684ACTN    H2 7301   1.146   6.366   4.291  0.2527 -0.3057 -0.7779
  684ACTN    H3 7302   1.301   6.279   4.259  0.8106  1.4988  0.9018
  685ACTN    H6 7303   7.547   4.798   4.954 -1.9937  1.8608 -1.8676
  685ACTN    C3 7304   7.571   4.888   5.010  0.0126  0.0702  0.2850
  685ACTN    H4 7305   7.677   4.912   5.005  0.7665 -3.2707 -0.6754
  685ACTN    H5 7306   7.509   4.962   4.959 -0.4892 -1.6016 -1.5735
  685ACTN    C2 7307   7.514   4.883   5.150  0.1311 -0.2562 -0.1470
  685ACTN    O1 7308   7.549   4.797   5.228  0.4144 -0.4764  0.3130
  685ACTN    C1 7309   7.417   4.994   5.191 -0.5134 -0.0523 -0.0627
  685ACTN    H1 7310   7.387   4.992   5.296  1.6901  0.3843  0.6238
  685ACTN    H2 7311   7.328   4.979   5.131 -1.2148  0.1340  0.9119
  685ACTN    H3 7312   7.468   5.091   5.181 -0.5861  0.0221  0.2579
  686ACTN    H6 7313   7.702   8.728   3.676 -0.5698  0.9701 -0.0676
  686ACTN    C3 7314   7.652   8.738   3.772 -0.0104  0.4604  0.2701
  686ACTN    H4 7315   7.545   8.752   3.762 -0.2391 -0.1751  1.6640
  686ACTN    H5 7316   7.666   8.643   3.824 -1.0064 -0.0976 -0.4863
  686ACTN    C2 7317   7.723   8.834   3.854  0.0040  0.2660  0.4020
  686ACTN    O1 7318   7.751   8.946   3.807  0.7223 -0.0375 -0.3921
  686ACTN    C1 7319   7.784   8.784   3.984  0.3329  0.4387 -0.7523
  686ACTN    H1 7320   7.883   8.741   3.971  1.0978  0.6134  3.7605
  686ACTN    H2 7321   7.732   8.704   4.036 -0.9867  2.2251  0.7606
  686ACTN    H3 7322   7.786   8.867   4.055 -3.2939  0.9125 -1.0861
  687ACTN    H6 7323   5.820   1.296   6.162  1.2093  0.9472  2.0821
  687ACTN    C3 7324   5.803   1.207   6.224  0.2591 -0.1324  0.3057
  687ACTN    H4 7325   5.880   1.133   6.204 -0.1923 -0.5933  0.2598
  687ACTN    H5 7326   5.823   1.230   6.328 -0.8960 -0.7150  0.6730
  687ACTN    C2 7327   5.670   1.138   6.209  0.2588  0.4144 -0.5702
  687ACTN    O1 7328   5.592   1.116   6.305  1.2389 -0.2804 -0.3730
  687ACTN    C1 7329   5.637   1.057   6.080  0.1724 -0.2251  0.5008
  687ACTN    H1 7330   5.546   0.998   6.092 -0.2824  0.7485  2.0130
  687ACTN    H2 7331   5.717   0.987   6.057  0.4704  0.6047 -1.0103
  687ACTN    H3 7332   5.628   1.125   5.996  2.9323 -0.7138 -0.2084
  688ACTN    H6 7333   7.293   6.331   2.355 -0.8112 -1.8860  1.5695
  688ACTN    C3 7334   7.339   6.366   2.448  0.6005  0.0656  0.1848
  688ACTN    H4 7335   7.284   6.315   2.527  0.8908 -3.5821 -1.8286
  688ACTN    H5 7336   7.433   6.310   2.453  0.5043 -0.0451  0.7261
  688ACTN    C2 7337   7.337   6.515   2.454 -0.3577  0.2040 -1.0755
  688ACTN    O1 7338   7.373   6.573   2.353  0.2952 -0.5898 -0.0597
  688ACTN    C1 7339   7.240   6.576   2.547 -0.3616 -0.4989  0.2515
  688ACTN    H1 7340   7.252   6.684   2.551  0.9982 -0.6756  1.2328
  688ACTN    H2 7341   7.266   6.542   2.647  0.9359 -0.9828 -0.2473
  688ACTN    H3 7342   7.137   6.548   2.525 -0.6086 -0.3689  1.2118
  689ACTN    H6 7343   7.048   0.389   2.804 -1.1201  0.2266 -1.0688
  689ACTN    C3 7344   7.119   0.431   2.733 -0.2066 -0.9064 -0.8535
  689ACTN    H4 7345   7.201   0.453   2.802 -1.0123 -0.5850  0.0225
  689ACTN    H5 7346   7.147   0.346   2.672  0.7205 -2.2697  1.4166
  689ACTN    C2 7347   7.058   0.544   2.660 -0.8557  0.0474 -0.0194
  689ACTN    O1 7348   7.072   0.661   2.693 -0.0268  0.0792 -0.2943
  689ACTN    C1 7349   6.957   0.502   2.558 -0.6536 -0.0905  0.7201
  689ACTN    H1 7350   7.005   0.439   2.483 -1.6001 -0.3709  0.3401
  689ACTN    H2 7351   6.929   0.588   2.498  0.7937 -1.1491 -1.5369
  689ACTN    H3 7352   6.864   0.453   2.590 -0.9684 -0.5102 -0.7965
  690ACTN    H6 7353   4.873   2.137   4.096  0.6351 -0.6203 -1.2508
  690ACTN    C3 7354   4.792   2.082   4.144  0.6152  0.6463  0.1751
  690ACTN    H4 7355   4.836   2.003   4.206 -0.7663  0.0949  0.4643
  690ACTN    H5 7356   4.743   2.148   4.216  0.4367  0.5220  0.1671
  690ACTN    C2 7357   4.700   2.040   4.039 -0.4828  0.9094 -0.0655
  690ACTN    O1 7358   4.649   2.119   3.964  0.2377  0.2998  0.7804
  690ACTN    C1 7359   4.657   1.890   4.032  0.2107  0.0650  0.5595
  690ACTN    H1 7360   4.739   1.828   3.995  0.3083 -0.2471  1.2920
  690ACTN    H2 7361   4.583   1.883   3.952  0.4754  1.0248  0.2222
  690ACTN    H3 7362   4.624   1.858   4.131  0.1131 -0.7711  0.2663
  691ACTN    H6 7363   4.549   5.612   5.043  1.1210  0.0808  0.0330
  691ACTN    C3 7364   4.555   5.649   4.941 -0.0585  0.5292  0.1197
  691ACTN    H4 7365   4.613   5.742   4.935  0.1544  0.3049 -1.7493
  691ACTN    H5 7366   4.612   5.577   4.882  1.3693  2.7428 -1.3214
  691ACTN    C2 7367   4.424   5.682   4.874 -0.4884  0.2683  0.3204
  691ACTN    O1 7368   4.353   5.774   4.913  0.0703  0.5029 -0.4999
  691ACTN    C1 7369   4.383   5.595   4.755  0.0998  0.0086  0.0929
  691ACTN    H1 7370   4.468   5.587   4.688 -0.0848  1.5787 -0.3444
  691ACTN    H2 7371   4.292   5.639   4.714  0.4394  0.7398  0.1229
  691ACTN    H3 7372   4.362   5.494   4.792  0.6946  0.3659  1.4098
  692ACTN    H6 7373   1.710   5.120   2.609 -1.3090 -0.8648  1.8058
  692ACTN    C3 7374   1.798   5.093   2.667  0.2898  0.4337  0.0728
  692ACTN    H4 7375   1.763   5.003   2.718  2.9180 -0.4219  0.4239
  692ACTN    H5 7376   1.882   5.080   2.600  0.4577  0.4839  0.2713
  692ACTN    C2 7377   1.839   5.205   2.758 -0.0451 -0.1060 -0.5751
  692ACTN    O1 7378   1.925   5.290   2.739 -0.7036 -0.1986  0.3387
  692ACTN    C1 7379   1.755   5.228   2.880  0.6288 -0.1864 -0.1115
  692ACTN    H1 7380   1.678   5.152   2.895 -0.0073 -0.3562 -3.8543
  692ACTN    H2 7381   1.686   5.311   2.862 -0.1476  0.0513  3.4863
  692ACTN    H3 7382   1.808   5.252   2.972  0.7044 -0.9889  0.0592
  693ACTN    H6 7383   3.032   5.690   0.777 -1.3590  0.2321  0.7357
  693ACTN    C3 7384   3.077   5.608   0.834 -0.3561  0.2170 -0.0552
  693ACTN    H4 7385   3.141   5.653   0.909  0.6123  0.0779 -0.7995
  693ACTN    H5 7386   3.000   5.563   0.898 -0.2457 -0.5590 -0.4638
  693ACTN    C2 7387   3.148   5.509   0.756 -0.3974 -0.0141  0.2890
  693ACTN    O1 7388   3.267   5.482   0.774  0.4001  0.5490 -0.1483
  693ACTN    C1 7389   3.072   5.408   0.680 -0.2460  0.1700  0.1084
  693ACTN    H1 7390   2.974   5.410   0.727  0.3219  3.3592  1.2828
  693ACTN    H2 7391   3.124   5.312   0.686 -0.6307 -0.0392  0.0931
  693ACTN    H3 7392   3.059   5.438   0.576 -0.5954 -0.5547 -0.0558
  694ACTN    H6 7393   1.353   7.057   5.904  0.0101  1.6130  1.4740
  694ACTN    C3 7394   1.372   7.119   5.816 -0.8259 -0.1144  0.0205
  694ACTN    H4 7395   1.469   7.094   5.775 -1.5287 -1.3704 -0.9122
  694ACTN    H5 7396   1.382   7.220   5.856  3.6083 -1.0438  1.4842
  694ACTN    C2 7397   1.259   7.121   5.713 -0.2158  0.2344 -0.3807
  694ACTN    O1 7398   1.250   7.220   5.642  0.1714 -0.9172  0.6719
  694ACTN    C1 7399   1.172   6.996   5.696  0.6104  0.1048 -0.7484
  694ACTN    H1 7400   1.187   6.953   5.597  0.5058 -0.9940 -0.3038
  694ACTN    H2 7401   1.067   7.021   5.710  0.4221  0.1370 -2.1782
  694ACTN    H3 7402   1.201   6.922   5.772 -1.0095  0.8777  0.6514
  695ACTN    H6 7403   4.318   8.461   3.593  0.7984 -1.1376 -1.5669
  695ACTN    C3 7404   4.310   8.562   3.552  0.5116 -0.5383 -0.0910
  695ACTN    H4 7405   4.286   8.566   3.446  1.0670 -0.4632 -0.2190
  695ACTN    H5 7406   4.232   8.618   3.602  0.7242  0.0502 -0.4178
  695ACTN    C2 7407   4.435   8.634   3.554  0.5968 -0.4696  0.5405
  695ACTN    O1 7408   4.530   8.586   3.499  0.3642  0.0092 -0.1433
  695ACTN    C1 7409   4.442   8.777   3.605 -0.0487 -0.2670 -0.5137
  695ACTN    H1 7410   4.346   8.805   3.648  0.9153  1.9569  0.2913
  695ACTN    H2 7411   4.464   8.847   3.525 -2.1966  1.5711  0.4442
  695ACTN    H3 7412   4.519   8.791   3.681 -0.9039  2.8042 -0.1386
  696ACTN    H6 7413   4.237   0.737   4.884 -0.5658 -0.2611 -1.1019
  696ACTN    C3 7414   4.307   0.749   4.801 -0.0938  0.3110 -0.6237
  696ACTN    H4 7415   4.321   0.854   4.774 -0.0849  0.9143  1.6007
  696ACTN    H5 7416   4.408   0.724   4.833  0.3691 -0.7535 -2.8157
  696ACTN    C2 7417   4.265   0.668   4.682  0.4904  0.1837 -0.9757
  696ACTN    O1 7418   4.241   0.549   4.699  0.2765 -0.4425  0.1626
  696ACTN    C1 7419   4.269   0.721   4.543  0.4054  1.2986  0.0340
  696ACTN    H1 7420   4.292   0.827   4.552 -0.2159  1.3248  1.4090
  696ACTN    H2 7421   4.172   0.716   4.493 -0.3840  0.1517  1.6434
  696ACTN    H3 7422   4.355   0.673   4.496 -0.1489  1.8778 -1.5949
  697ACTN    H6 7423   1.371   3.309   6.216  1.3130  0.2310  0.7276
  697ACTN    C3 7424   1.420   3.366   6.138 -0.2286  0.5008 -0.0597
  697ACTN    H4 7425   1.346   3.405   6.068 -0.9993  1.9914  1.5539
  697ACTN    H5 7426   1.471   3.441   6.197  0.7651  1.0095 -1.5190
  697ACTN    C2 7427   1.519   3.280   6.070 -0.0905 -0.2121 -0.4715
  697ACTN    O1 7428   1.490   3.213   5.972  0.0884 -0.3280 -0.4763
  697ACTN    C1 7429   1.658   3.282   6.124  0.1269  0.5345 -0.0702
  697ACTN    H1 7430   1.671   3.366   6.192  1.3031 -0.5626  1.0944
  697ACTN    H2 7431   1.732   3.287   6.044  0.8155  0.8812  0.5773
  697ACTN    H3 7432   1.683   3.191   6.178  2.4743  0.0716 -1.8430
  698ACTN    H6 7433   2.225   5.385   6.545  1.2498 -2.3185  0.8739
  698ACTN    C3 7434   2.175   5.298   6.502 -0.1830 -0.9276 -0.3463
  698ACTN    H4 7435   2.167   5.223   6.580 -0.4182 -1.7550 -1.1461
  698ACTN    H5 7436   2.072   5.324   6.479 -0.9853 -1.8918  2.0755
  698ACTN    C2 7437   2.238   5.242   6.385 -0.1081  0.2541 -0.7360
  698ACTN    O1 7438   2.235   5.311   6.279  0.2894  0.3854  0.2760
  698ACTN    C1 7439   2.278   5.097   6.374 -0.2250 -0.1836  0.2403
  698ACTN    H1 7440   2.331   5.075   6.282 -1.6066  0.4660 -0.7253
  698ACTN    H2 7441   2.195   5.027   6.374  0.0789 -0.5481  0.7804
  698ACTN    H3 7442   2.347   5.074   6.455 -0.5107  1.9497  1.1467
  699ACTN    H6 7443   2.426   7.393   1.667  0.8874 -1.0577 -0.3072
  699ACTN    C3 7444   2.508   7.415   1.598  0.4083  0.0656 -0.5338
  699ACTN    H4 7445   2.575   7.475   1.660  1.1517 -0.5646 -0.7138
  699ACTN    H5 7446   2.562   7.330   1.556  2.9403  1.7662 -0.8456
  699ACTN    C2 7447   2.456   7.494   1.476 -0.3986 -0.0072  0.6331
  699ACTN    O1 7448   2.530   7.522   1.382 -0.7688 -0.1543 -0.0257
  699ACTN    C1 7449   2.324   7.563   1.487  0.0874  0.1230  0.0040
  699ACTN    H1 7450   2.320   7.630   1.573 -1.2661  0.7288 -0.5085
  699ACTN    H2 7451   2.252   7.486   1.516  0.1996 -0.1912 -0.5329
  699ACTN    H3 7452   2.296   7.610   1.392 -0.8465 -1.5204 -0.5680
  700ACTN    H6 7453   7.140   6.193   1.453  1.2691 -0.8446  0.5967
  700ACTN    C3 7454   7.180   6.289   1.486 -0.5026  0.2660 -0.4078
  700ACTN    H4 7455   7.287   6.280   1.504 -0.6426  2.0599  1.6610
  700ACTN    H5 7456   7.169   6.355   1.401  0.5633  1.6339  0.4946
  700ACTN    C2 7457   7.111   6.353   1.600  0.8913  0.2695 -0.2922
  700ACTN    O1 7458   7.147   6.322   1.712  1.3167  0.4731  0.3075
  700ACTN    C1 7459   6.982   6.434   1.590 -0.6054 -0.0413 -0.3065
  700ACTN    H1 7460   6.903   6.379   1.540  0.8033  0.3593 -3.0961
  700ACTN    H2 7461   6.994   6.525   1.530  0.2180  0.9550  1.3395
  700ACTN    H3 7462   6.947   6.459   1.690 -3.1264 -0.3823 -1.0752
  701ACTN    H6 7463   6.396   5.125   3.684  0.7168 -0.3629  0.3978
  701ACTN    C3 7464   6.423   5.203   3.756 -0.2963  0.0924  0.2821
  701ACTN    H4 7465   6.492   5.160   3.828  0.0194  0.4758  0.2078
  701ACTN    H5 7466   6.473   5.282   3.701 -3.0449  1.4653 -0.3370
  701ACTN    C2 7467   6.306   5.269   3.831  0.1355  0.1630 -0.0624
  701ACTN    O1 7468   6.321   5.319   3.943  0.0459 -0.0039  0.2246
  701ACTN    C1 7469   6.176   5.270   3.775  0.5163  0.5745  0.2968
  701ACTN    H1 7470   6.182   5.307   3.673  1.6855  0.4152  0.3018
  701ACTN    H2 7471   6.109   5.330   3.836  0.3708  1.2287 -0.5059
  701ACTN    H3 7472   6.132   5.170   3.778  0.4735  0.5345 -1.4417
  702ACTN    H6 7473   8.349   2.401   4.466 -1.1525 -0.7928 -2.4326
  702ACTN    C3 7474   8.272   2.399   4.543  0.5421 -0.2007 -0.6848
  702ACTN    H4 7475   8.320   2.358   4.632 -1.2410 -2.5496 -0.7585
  702ACTN    H5 7476   8.246   2.501   4.573 -2.1919 -0.8452 -0.6810
  702ACTN    C2 7477   8.153   2.326   4.490 -0.1447  0.6555  0.3659
  702ACTN    O1 7478   8.181   2.235   4.414 -0.1268  0.2182 -1.0966
  702ACTN    C1 7479   8.026   2.315   4.554  0.4023  0.3440 -0.2517
  702ACTN    H1 7480   7.968   2.396   4.510 -0.3223  0.1321  0.3031
  702ACTN    H2 7481   8.030   2.305   4.663  0.8321 -2.1351 -0.4672
  702ACTN    H3 7482   7.980   2.227   4.509 -1.0157  2.3851 -2.9386
  703ACTN    H6 7483   7.081   2.592   8.797 -0.0611 -1.0047  0.3987
  703ACTN    C3 7484   7.138   2.580   8.889  0.6222 -0.3068  0.0679
  703ACTN    H4 7485   7.158   2.475   8.908  1.0027 -0.1101  0.7974
  703ACTN    H5 7486   7.234   2.632   8.882  0.5943  0.0289  1.7973
  703ACTN    C2 7487   7.048   2.627   8.999  1.0874 -0.5226  0.5876
  703ACTN    O1 7488   6.929   2.596   8.995  0.1987 -0.5165 -0.0362
  703ACTN    C1 7489   7.099   2.749   9.077 -0.2199  0.7595  0.8225
  703ACTN    H1 7490   7.191   2.789   9.033  0.2465  0.4466  1.4980
  703ACTN    H2 7491   7.115   2.724   9.182 -1.9410  1.0456  1.1625
  703ACTN    H3 7492   7.026   2.830   9.079 -0.3941  0.6377 -0.3705
  704ACTN    H6 7493   7.546   3.228   6.166 -0.9163  1.0511 -1.2216
  704ACTN    C3 7494   7.640   3.233   6.112 -0.1433  0.2506  0.0191
  704ACTN    H4 7495   7.617   3.249   6.007  0.4804 -2.2664 -0.5320
  704ACTN    H5 7496   7.703   3.314   6.151 -1.9193  0.9812  1.4818
  704ACTN    C2 7497   7.702   3.097   6.118 -0.2361 -0.4097 -0.0995
  704ACTN    O1 7498   7.732   3.039   6.013 -0.1334  0.2653 -0.7201
  704ACTN    C1 7499   7.718   3.034   6.259 -0.2986 -0.3217 -0.1661
  704ACTN    H1 7500   7.640   3.079   6.321 -0.3937  2.2421 -2.0798
  704ACTN    H2 7501   7.815   3.049   6.307 -1.3711  2.6291  1.1666
  704ACTN    H3 7502   7.706   2.926   6.250 -0.5752 -0.2082 -1.1987
  705ACTN    H6 7503   4.605   3.008   1.455  1.2265  1.1552  0.7617
  705ACTN    C3 7504   4.627   3.034   1.352 -0.2717  0.1089  0.1652
  705ACTN    H4 7505   4.539   3.028   1.288 -0.8829  0.9278  0.9276
  705ACTN    H5 7506   4.679   3.129   1.359  0.1643 -0.3440  3.6938
  705ACTN    C2 7507   4.717   2.942   1.279 -0.8435  0.3243  0.0589
  705ACTN    O1 7508   4.839   2.952   1.297 -0.0655  0.4556  0.1569
  705ACTN    C1 7509   4.667   2.860   1.157  0.6203 -0.0660 -0.8836
  705ACTN    H1 7510   4.617   2.932   1.093  1.1260  1.4785  0.4163
  705ACTN    H2 7511   4.596   2.782   1.186  0.6378  0.9636  2.1649
  705ACTN    H3 7512   4.749   2.809   1.106  0.7260  0.0554 -0.8340
  706ACTN    H6 7513   1.104   0.672   3.745 -1.0230  2.6148  2.2853
  706ACTN    C3 7514   1.071   0.591   3.810 -0.2241  0.5212  0.1686
  706ACTN    H4 7515   1.143   0.510   3.800  0.3805  1.2124 -1.1330
  706ACTN    H5 7516   1.069   0.619   3.916 -0.2384 -1.0403  0.5909
  706ACTN    C2 7517   0.943   0.542   3.754 -0.7785 -0.6465 -0.5597
  706ACTN    O1 7518   0.944   0.508   3.637 -0.0846  0.3312  1.5766
  706ACTN    C1 7519   0.822   0.525   3.841  0.4719  0.1911  0.5482
  706ACTN    H1 7520   0.782   0.623   3.870 -0.0316 -0.2829  1.4890
  706ACTN    H2 7521   0.854   0.487   3.938 -2.5107 -3.3499  0.2766
  706ACTN    H3 7522   0.747   0.461   3.794 -0.4808  0.0155  2.2555
  707ACTN    H6 7523   1.062   2.265   1.600 -1.6979  0.9675 -2.0473
  707ACTN    C3 7524   1.132   2.246   1.518  0.1624 -0.8012 -0.1067
  707ACTN    H4 7525   1.087   2.221   1.422 -1.1130 -0.0786  0.2770
  707ACTN    H5 7526   1.184   2.339   1.497  1.9726 -1.6441  0.5766
  707ACTN    C2 7527   1.242   2.156   1.543 -0.5136 -0.1287  0.2905
  707ACTN    O1 7528   1.226   2.055   1.615  0.0146  0.2596 -0.3368
  707ACTN    C1 7529   1.359   2.165   1.448 -0.2563 -0.3094 -0.5480
  707ACTN    H1 7530   1.328   2.140   1.346 -0.8948  1.1407 -0.7246
  707ACTN    H2 7531   1.436   2.094   1.479 -1.4055 -0.4148  2.1790
  707ACTN    H3 7532   1.403   2.265   1.455 -0.7559  0.0702 -2.5723
  708ACTN    H6 7533   0.778   6.814   2.267 -2.8088  2.2568  1.7864
  708ACTN    C3 7534   0.767   6.898   2.198 -0.4513  0.8098 -0.4705
  708ACTN    H4 7535   0.673   6.949   2.220 -1.2275 -1.1722  0.9578
  708ACTN    H5 7536   0.849   6.968   2.217  0.2850  0.0475 -0.8190
  708ACTN    C2 7537   0.778   6.856   2.052 -0.3735  0.3364 -0.5487
  708ACTN    O1 7538   0.780   6.939   1.966  0.3710  0.1436 -0.1253
  708ACTN    C1 7539   0.750   6.715   2.027 -0.4871  0.9506 -0.0907
  708ACTN    H1 7540   0.806   6.653   2.097 -1.3572 -2.3706 -2.2261
  708ACTN    H2 7541   0.784   6.689   1.927 -0.0545 -1.3176  0.6093
  708ACTN    H3 7542   0.643   6.694   2.037 -0.0613 -1.3776  0.0260
  709ACTN    H6 7543   2.147   4.584   4.754  0.7097 -0.0533  0.3291
  709ACTN    C3 7544   2.155   4.645   4.844 -0.8915  0.5054  0.1061
  709ACTN    H4 7545   2.069   4.633   4.910 -0.6659 -0.4405  0.2410
  709ACTN    H5 7546   2.243   4.624   4.905  0.2575 -0.6521 -1.9382
  709ACTN    C2 7547   2.156   4.789   4.790 -0.6499 -0.4398  0.2781
  709ACTN    O1 7548   2.071   4.865   4.831 -0.1254 -0.1996  1.1381
  709ACTN    C1 7549   2.248   4.816   4.675  0.3229  0.3075 -0.8772
  709ACTN    H1 7550   2.348   4.800   4.715  0.5143  1.7946 -0.7098
  709ACTN    H2 7551   2.232   4.917   4.636 -0.0021  0.1296 -1.2022
  709ACTN    H3 7552   2.233   4.739   4.600 -2.7152 -1.5173  1.4987
  710ACTN    H6 7553   8.080   0.015   3.016  0.6979  1.0380  0.2374
  710ACTN    C3 7554   8.140   0.021   3.106  0.6318  1.0019  0.2836
  710ACTN    H4 7555   8.082   0.075   3.181 -2.0738 -1.9881  0.4706
  710ACTN    H5 7556   8.169  -0.075   3.149 -1.7828 -0.0831 -0.4723
  710ACTN    C2 7557   8.260   0.099   3.065  0.4341 -0.1496  0.1316
  710ACTN    O1 7558   8.237   0.197   2.990 -0.3059  0.0712 -0.5197
  710ACTN    C1 7559   8.395   0.060   3.103 -0.2034  0.0809 -0.3020
  710ACTN    H1 7560   8.431   0.002   3.019  0.4552 -1.2510  0.8846
  710ACTN    H2 7561   8.392  -0.008   3.189 -1.3166  0.7247  0.1919
  710ACTN    H3 7562   8.459   0.145   3.129 -0.3142  0.1464 -0.2442
  711ACTN    H6 7563   3.616   2.333   1.718 -0.3236 -0.0915 -0.3280
  711ACTN    C3 7564   3.703   2.290   1.668 -0.0617  0.1080 -0.0404
  711ACTN    H4 7565   3.791   2.336   1.714 -0.4015  0.0666  0.6504
  711ACTN    H5 7566   3.711   2.184   1.692  0.8699 -0.0887 -1.1979
  711ACTN    C2 7567   3.706   2.303   1.522  0.2991  0.4722 -0.2260
  711ACTN    O1 7568   3.804   2.265   1.461 -0.1678 -0.0110 -0.0540
  711ACTN    C1 7569   3.592   2.371   1.462  0.2826 -0.0638  0.3031
  711ACTN    H1 7570   3.519   2.405   1.535 -0.9585 -1.2645 -0.3605
  711ACTN    H2 7571   3.547   2.307   1.386 -1.9647  0.2561  1.3100
  711ACTN    H3 7572   3.636   2.456   1.409 -1.3836  0.6407  0.0054
  712ACTN    H6 7573   5.254   2.488   1.450 -1.6702 -0.0477 -2.6183
  712ACTN    C3 7574   5.171   2.422   1.479 -0.4551 -0.5043 -0.0237
  712ACTN    H4 7575   5.156   2.342   1.407  0.2164 -2.6576  2.1760
  712ACTN    H5 7576   5.190   2.384   1.579  0.9132 -2.2040 -0.9060
  712ACTN    C2 7577   5.050   2.514   1.476 -0.1475 -0.8639 -1.2218
  712ACTN    O1 7578   5.041   2.601   1.397  0.1943  0.0313 -0.7262
  712ACTN    C1 7579   4.945   2.488   1.578  0.3370  0.4607 -0.7392
  712ACTN    H1 7580   4.853   2.542   1.553  0.6496 -0.6246 -4.5598
  712ACTN    H2 7581   4.978   2.530   1.672 -0.0034 -1.4248  0.2499
  712ACTN    H3 7582   4.927   2.383   1.599 -0.0490  0.6102 -0.3105
  713ACTN    H6 7583   8.455   6.712   2.363 -1.5005  0.9682 -0.2286
  713ACTN    C3 7584   8.450   6.750   2.465 -0.4857  1.2425 -0.2777
  713ACTN    H4 7585   8.550   6.776   2.501 -0.4593  2.3800 -1.1413
  713ACTN    H5 7586   8.397   6.845   2.459 -0.6119  1.1449 -0.6840
  713ACTN    C2 7587   8.380   6.651   2.554 -0.2447  0.3995 -0.4304
  713ACTN    O1 7588   8.289   6.585   2.509 -0.0573  0.1795  0.0904
  713ACTN    C1 7589   8.428   6.643   2.698  0.3760  0.4056 -0.0198
  713ACTN    H1 7590   8.417   6.745   2.736  0.9476  0.3933  0.1894
  713ACTN    H2 7591   8.535   6.625   2.706  0.5628  0.3560 -2.3663
  713ACTN    H3 7592   8.374   6.569   2.757  1.4164 -0.7110 -0.4584
  714ACTN    H6 7593   0.182   8.657   3.863  0.8197  2.7009  1.1176
  714ACTN    C3 7594   0.225   8.702   3.773  0.6475  0.1514 -0.2979
  714ACTN    H4 7595   0.226   8.806   3.806 -1.2585 -0.4117  1.6543
  714ACTN    H5 7596   0.324   8.666   3.746  1.6397  2.3193  0.3454
  714ACTN    C2 7597   0.123   8.722   3.666  0.4551  0.8509 -0.2982
  714ACTN    O1 7598   0.004   8.703   3.684 -0.5034  0.2734 -0.8644
  714ACTN    C1 7599   0.179   8.776   3.539 -0.4149 -0.1510 -0.6307
  714ACTN    H1 7600   0.274   8.728   3.517  0.4780  1.8688 -1.2836
  714ACTN    H2 7601   0.190   8.884   3.537  1.9286 -0.2852  2.4479
  714ACTN    H3 7602   0.114   8.757   3.454  2.2248  2.4998 -3.3666
  715ACTN    H6 7603   3.854   5.613   7.709 -0.6402 -0.0886  1.9717
  715ACTN    C3 7604   3.953   5.569   7.717 -0.4000  0.1841  0.6107
  715ACTN    H4 7605   4.024   5.647   7.689  0.3487 -0.2867  1.1740
  715ACTN    H5 7606   3.971   5.545   7.822 -1.7940 -1.0296  0.6004
  715ACTN    C2 7607   3.965   5.442   7.642  0.3161 -0.0678 -0.0046
  715ACTN    O1 7608   3.872   5.402   7.569 -0.8457 -0.0619  0.0873
  715ACTN    C1 7609   4.101   5.374   7.655  0.2237  0.0497 -0.0794
  715ACTN    H1 7610   4.133   5.362   7.759  0.2562 -0.5299 -0.1572
  715ACTN    H2 7611   4.180   5.427   7.602  0.4789  0.6148  0.8460
  715ACTN    H3 7612   4.080   5.278   7.608 -0.5790  0.2127 -0.0737
  716ACTN    H6 7613   1.641   4.450   4.442  0.2665 -0.9137 -0.1561
  716ACTN    C3 7614   1.619   4.530   4.512 -0.2664 -0.8871 -0.3482
  716ACTN    H4 7615   1.557   4.608   4.467 -1.1035  0.5669  3.1503
  716ACTN    H5 7616   1.567   4.491   4.599  0.3989  2.3181  1.6023
  716ACTN    C2 7617   1.749   4.587   4.566 -0.0157 -0.6506 -0.0330
  716ACTN    O1 7618   1.856   4.523   4.551  0.4280  0.3681  0.1063
  716ACTN    C1 7619   1.758   4.709   4.642  0.0628 -0.5024  0.3129
  716ACTN    H1 7620   1.787   4.679   4.743  0.6723 -2.2363 -0.3638
  716ACTN    H2 7621   1.662   4.760   4.644 -1.7102 -3.5781 -1.4639
  716ACTN    H3 7622   1.834   4.772   4.598 -1.6673  1.5196  0.1385
  717ACTN    H6 7623   1.637   8.656   5.220 -0.5084 -0.4047 -0.1588
  717ACTN    C3 7624   1.622   8.554   5.258  0.4500 -0.4395  0.1449
  717ACTN    H4 7625   1.561   8.551   5.348 -0.4697  0.5671 -0.4256
  717ACTN    H5 7626   1.562   8.512   5.177  0.1926  3.1074 -1.6501
  717ACTN    C2 7627   1.750   8.485   5.264 -0.4660 -0.8543  1.3486
  717ACTN    O1 7628   1.829   8.494   5.358 -0.0893 -0.3860  0.3726
  717ACTN    C1 7629   1.773   8.391   5.151  0.0479 -0.2918  0.2348
  717ACTN    H1 7630   1.684   8.329   5.141  2.3507 -3.9448  0.9374
  717ACTN    H2 7631   1.859   8.326   5.172  1.4883  1.3553 -0.4797
  717ACTN    H3 7632   1.795   8.453   5.065 -1.9568 -1.9936 -1.5465
  718ACTN    H6 7633   5.551   5.471   0.333  2.3282 -1.6804 -0.2036
  718ACTN    C3 7634   5.494   5.385   0.372 -0.0197  0.1458  0.5223
  718ACTN    H4 7635   5.443   5.339   0.287  0.5278  1.3965 -0.5095
  718ACTN    H5 7636   5.569   5.311   0.400  1.1977  0.4366 -1.8165
  718ACTN    C2 7637   5.389   5.413   0.470 -0.9005  0.8401 -0.1047
  718ACTN    O1 7638   5.273   5.416   0.429  0.5796  0.1335 -0.0049
  718ACTN    C1 7639   5.417   5.480   0.604  0.9016 -0.3204  0.4490
  718ACTN    H1 7640   5.490   5.421   0.660  2.1712  0.0505 -0.7746
  718ACTN    H2 7641   5.334   5.500   0.671 -0.9091  1.6690 -2.2657
  718ACTN    H3 7642   5.456   5.581   0.587  0.2521 -0.4431 -1.9643
  719ACTN    H6 7643   7.275   0.706   5.141  0.3441  0.4869  2.1919
  719ACTN    C3 7644   7.380   0.678   5.142  0.3603  0.3317 -0.6387
  719ACTN    H4 7645   7.384   0.573   5.173 -0.7482 -0.1787 -2.1263
  719ACTN    H5 7646   7.428   0.675   5.044 -0.5399  1.4425 -1.1188
  719ACTN    C2 7647   7.459   0.765   5.242 -0.1006 -0.0259  0.0850
  719ACTN    O1 7648   7.493   0.727   5.350  0.4535  0.0130  0.1293
  719ACTN    C1 7649   7.502   0.905   5.203 -0.0958  0.5811 -0.1466
  719ACTN    H1 7650   7.477   0.919   5.098  0.7639  2.2558 -0.1358
  719ACTN    H2 7651   7.608   0.916   5.224  0.2954 -3.2829  0.3768
  719ACTN    H3 7652   7.455   0.981   5.265  0.1647 -1.5602  2.8227
  720ACTN    H6 7653   4.221   8.876   8.533  0.1865  0.9161 -0.1625
  720ACTN    C3 7654   4.222   8.822   8.439  0.3745  0.8540 -0.1249
  720ACTN    H4 7655   4.179   8.723   8.449 -0.5334  0.9020 -2.9986
  720ACTN    H5 7656   4.160   8.877   8.368 -0.0640 -2.6971 -2.6406
  720ACTN    C2 7657   4.360   8.795   8.393  0.1018 -0.3441 -0.0364
  720ACTN    O1 7658   4.374   8.782   8.270  0.2291 -0.0440 -0.0843
  720ACTN    C1 7659   4.475   8.767   8.482 -0.3032  0.2595 -0.1046
  720ACTN    H1 7660   4.501   8.858   8.537  1.2714 -1.0458  1.3684
  720ACTN    H2 7661   4.561   8.726   8.429 -0.1336 -0.5776  0.7958
  720ACTN    H3 7662   4.451   8.690   8.556  0.1327 -0.8779 -1.1495
  721ACTN    H6 7663   4.628   8.782   7.492  1.0901 -1.0593 -0.5517
  721ACTN    C3 7664   4.624   8.686   7.544 -0.1711 -0.2914  0.7908
  721ACTN    H4 7665   4.520   8.671   7.573  0.3135 -1.8433  1.8047
  721ACTN    H5 7666   4.655   8.603   7.481  2.8990 -0.4158  2.3682
  721ACTN    C2 7667   4.724   8.678   7.655 -0.5668 -0.5909  0.4756
  721ACTN    O1 7668   4.709   8.611   7.756 -0.1074  0.7197 -0.0677
  721ACTN    C1 7669   4.856   8.745   7.632  0.0320 -0.1736  0.4980
  721ACTN    H1 7670   4.869   8.830   7.700 -0.7400  0.6723 -0.4119
  721ACTN    H2 7671   4.861   8.777   7.528  0.0979  1.0272  0.8548
  721ACTN    H3 7672   4.939   8.674   7.636  0.2875  0.0441 -0.8783
  722ACTN    H6 7673   8.488   7.850   6.104 -0.1966 -0.0452  0.8802
  722ACTN    C3 7674   8.422   7.815   6.184 -0.7944  0.1714  0.4806
  722ACTN    H4 7675   8.466   7.717   6.202 -2.6876 -0.3648  2.2899
  722ACTN    H5 7676   8.423   7.874   6.275 -1.1525  0.6131  0.2019
  722ACTN    C2 7677   8.286   7.792   6.125 -0.5813 -0.5343 -0.5022
  722ACTN    O1 7678   8.247   7.688   6.073 -0.4034  0.4987  0.5176
  722ACTN    C1 7679   8.208   7.923   6.111 -0.3647 -0.1539  0.0134
  722ACTN    H1 7680   8.257   7.978   6.030 -0.4156  0.3074  0.2919
  722ACTN    H2 7681   8.213   7.983   6.202  1.8246  0.5949 -0.5643
  722ACTN    H3 7682   8.107   7.895   6.080 -0.9984  0.2746  1.6497
  723ACTN    H6 7683   6.633   5.091   7.277 -1.6643 -0.3445 -0.3156
  723ACTN    C3 7684   6.607   4.985   7.275 -0.5856 -0.6189 -0.3918
  723ACTN    H4 7685   6.499   4.996   7.288 -0.1935  1.5235  1.3003
  723ACTN    H5 7686   6.659   4.931   7.354  1.0347  1.5492  0.0654
  723ACTN    C2 7687   6.642   4.915   7.151  0.3635  0.0790 -0.1418
  723ACTN    O1 7688   6.705   4.810   7.163 -1.2771 -0.0881  0.2259
  723ACTN    C1 7689   6.589   4.962   7.017 -0.3558  0.4800 -0.5673
  723ACTN    H1 7690   6.586   4.885   6.940  1.3283  1.6902 -1.8870
  723ACTN    H2 7691   6.664   5.033   6.982  2.2061 -1.9668 -0.1762
  723ACTN    H3 7692   6.496   5.016   7.037  0.5206  1.1682  1.9151
  724ACTN    H6 7693   0.801   6.135   3.456  0.3041  0.0668 -1.9469
  724ACTN    C3 7694   0.806   6.026   3.450  0.1334 -0.0464 -0.3247
  724ACTN    H4 7695   0.909   5.992   3.452  1.0257  2.6103  1.8149
  724ACTN    H5 7696   0.749   5.980   3.530  2.5805 -0.3176  1.2992
  724ACTN    C2 7697   0.735   5.990   3.325 -0.3187  0.5066  0.4578
  724ACTN    O1 7698   0.708   6.077   3.242 -0.1943 -0.0075  0.6348
  724ACTN    C1 7699   0.705   5.842   3.286  0.1883 -0.1866  0.0549
  724ACTN    H1 7700   0.642   5.838   3.197  1.0741 -0.9185 -0.5466
  724ACTN    H2 7701   0.655   5.780   3.361  0.8219 -1.6222 -0.6836
  724ACTN    H3 7702   0.798   5.792   3.259  0.3460  0.7510 -1.1548
  725ACTN    H6 7703   3.178   5.715   4.865 -0.4315  0.2012  1.0466
  725ACTN    C3 7704   3.253   5.736   4.941  0.3502  0.3878  0.2313
  725ACTN    H4 7705   3.256   5.845   4.951 -0.3548  0.4952 -0.7779
  725ACTN    H5 7706   3.226   5.692   5.037 -0.9313 -0.3145 -0.4387
  725ACTN    C2 7707   3.384   5.667   4.901 -0.9031 -0.4002 -0.4225
  725ACTN    O1 7708   3.473   5.734   4.851 -0.1411 -0.4807 -0.0192
  725ACTN    C1 7709   3.400   5.524   4.926 -1.2739  0.7854 -0.6303
  725ACTN    H1 7710   3.306   5.470   4.933 -0.6140 -0.5391 -1.6962
  725ACTN    H2 7711   3.454   5.508   5.020  0.1817 -0.6212 -1.6719
  725ACTN    H3 7712   3.462   5.482   4.846  1.1460 -0.6336  1.8689
  726ACTN    H6 7713   1.136   1.134   5.240 -0.4230 -0.6305 -0.1931
  726ACTN    C3 7714   1.074   1.114   5.327 -0.4721 -0.3943 -0.1747
  726ACTN    H4 7715   1.089   1.198   5.395 -0.0298 -1.1000  0.6113
  726ACTN    H5 7716   0.967   1.110   5.304 -0.4097  3.0833 -1.4408
  726ACTN    C2 7717   1.114   0.986   5.389 -0.6041 -0.7914  0.3831
  726ACTN    O1 7718   1.203   0.920   5.340 -0.0345 -0.0038 -0.6310
  726ACTN    C1 7719   1.060   0.953   5.520  0.3372  0.1332 -0.3446
  726ACTN    H1 7720   1.069   0.846   5.541  0.0738  0.3913  1.0651
  726ACTN    H2 7721   0.953   0.974   5.528  0.7364  1.4057  1.8662
  726ACTN    H3 7722   1.108   1.010   5.599  1.9090  0.3359 -1.4019
  727ACTN    H6 7723   2.784   0.457   0.737 -0.7139 -0.2444 -1.5763
  727ACTN    C3 7724   2.789   0.350   0.757 -0.0063  0.0178 -0.3431
  727ACTN    H4 7725   2.847   0.294   0.684  0.5096 -2.7764  2.1114
  727ACTN    H5 7726   2.840   0.331   0.852 -1.1831 -2.7537 -0.2082
  727ACTN    C2 7727   2.650   0.311   0.752  0.0829 -1.1851 -0.2908
  727ACTN    O1 7728   2.586   0.327   0.649  0.4496 -0.6799 -0.0327
  727ACTN    C1 7729   2.600   0.212   0.856  0.3381 -0.1049  0.4894
  727ACTN    H1 7730   2.629   0.252   0.953  0.4516 -0.6817  0.6913
  727ACTN    H2 7731   2.637   0.111   0.843  2.2727  0.7877 -1.3700
  727ACTN    H3 7732   2.492   0.203   0.866  0.4310 -1.4862  0.3662
  728ACTN    H6 7733   3.274   4.940   3.427  1.7384  1.2141  0.5037
  728ACTN    C3 7734   3.321   4.958   3.330 -0.3183 -0.0721 -0.7516
  728ACTN    H4 7735   3.314   5.065   3.313  0.7293  0.1219  0.0119
  728ACTN    H5 7736   3.423   4.919   3.330 -1.0994 -2.2459  1.7197
  728ACTN    C2 7737   3.247   4.892   3.219 -0.5541  0.4562 -0.8216
  728ACTN    O1 7738   3.308   4.818   3.141 -0.2132 -0.3905 -0.2076
  728ACTN    C1 7739   3.098   4.875   3.227 -1.1422  0.5195  0.0681
  728ACTN    H1 7740   3.061   4.773   3.217  0.1361  0.2153 -1.9877
  728ACTN    H2 7741   3.057   4.934   3.145 -3.6818 -1.1076  0.0932
  728ACTN    H3 7742   3.057   4.918   3.318 -0.7565 -2.0097  1.4751
  729ACTN    H6 7743   8.022   8.583   4.477  2.7033 -1.8516  1.1628
  729ACTN    C3 7744   8.005   8.521   4.389 -0.6595  0.0696  0.3831
  729ACTN    H4 7745   8.079   8.544   4.311 -1.1441 -2.3752 -0.8385
  729ACTN    H5 7746   8.008   8.415   4.411 -1.9541  0.0981  0.7116
  729ACTN    C2 7747   7.874   8.547   4.335 -0.7115 -0.3314 -0.0474
  729ACTN    O1 7748   7.812   8.457   4.275 -0.2314 -0.2085 -0.6250
  729ACTN    C1 7749   7.819   8.683   4.334  0.2602  0.0561 -0.7449
  729ACTN    H1 7750   7.845   8.723   4.432  1.4235 -2.4659  0.0230
  729ACTN    H2 7751   7.711   8.668   4.332  0.4739 -1.5779 -0.6244
  729ACTN    H3 7752   7.862   8.746   4.257  3.0364 -0.2975  0.4762
  730ACTN    H6 7753   2.152   5.942   6.601  2.5192 -0.7055 -0.1070
  730ACTN    C3 7754   2.152   5.860   6.673  0.0404 -0.2726  0.4245
  730ACTN    H4 7755   2.244   5.880   6.729  1.1904  0.0631 -1.5335
  730ACTN    H5 7756   2.067   5.872   6.739  0.0848  0.5777  0.3278
  730ACTN    C2 7757   2.142   5.728   6.611  0.0026 -0.2883  0.5492
  730ACTN    O1 7758   2.243   5.673   6.578  0.6306  0.5392  0.4260
  730ACTN    C1 7759   2.013   5.671   6.577  0.3723 -0.1117 -0.0069
  730ACTN    H1 7760   1.938   5.749   6.566  0.9800  1.1576  3.8551
  730ACTN    H2 7761   1.968   5.606   6.653 -0.6866 -2.5626 -2.6366
  730ACTN    H3 7762   2.011   5.604   6.491 -3.2811 -0.7844  0.4881
  731ACTN    H6 7763   5.159   2.191   6.467  0.6406 -1.5308  1.4532
  731ACTN    C3 7764   5.153   2.297   6.494  0.3665 -0.9495 -0.8276
  731ACTN    H4 7765   5.235   2.356   6.454 -0.8644 -0.0359 -2.0444
  731ACTN    H5 7766   5.055   2.326   6.456  0.8768  0.4576 -1.0792
  731ACTN    C2 7767   5.168   2.319   6.642 -0.0841 -0.4328 -0.6400
  731ACTN    O1 7768   5.094   2.251   6.716 -0.2047 -0.1968  0.5464
  731ACTN    C1 7769   5.291   2.381   6.706 -0.3384  0.1407 -0.9716
  731ACTN    H1 7770   5.381   2.343   6.658  1.0465  2.9189 -0.6943
  731ACTN    H2 7771   5.292   2.383   6.815  0.6083 -0.7737 -0.9551
  731ACTN    H3 7772   5.293   2.489   6.689  0.7710  0.1972 -0.5382
  732ACTN    H6 7773   2.039   7.772   4.250  0.8644 -0.7020  1.6365
  732ACTN    C3 7774   1.972   7.834   4.310 -0.1785  0.0046 -0.2343
  732ACTN    H4 7775   1.939   7.766   4.388  0.3516 -0.1219 -0.1198
  732ACTN    H5 7776   2.037   7.912   4.348 -0.8537  0.0157  0.9056
  732ACTN    C2 7777   1.860   7.896   4.231  0.2613 -0.2826 -0.1996
  732ACTN    O1 7778   1.764   7.959   4.286 -0.3789  0.1599 -0.2578
  732ACTN    C1 7779   1.898   7.908   4.085  0.2440  0.0547 -0.1540
  732ACTN    H1 7780   1.992   7.960   4.068  0.6381  0.1221  2.0776
  732ACTN    H2 7781   1.817   7.958   4.031 -0.2485 -2.1420 -1.5016
  732ACTN    H3 7782   1.891   7.804   4.056 -1.5726 -0.1038  0.7788
  733ACTN    H6 7783   1.075   0.143   6.308 -0.5064 -1.3353 -0.2480
  733ACTN    C3 7784   0.970   0.134   6.336 -0.4727 -0.5036  0.1536
  733ACTN    H4 7785   0.935   0.219   6.394  1.4171 -0.8282  1.8268
  733ACTN    H5 7786   0.920   0.130   6.239  1.5973  1.4795 -1.0602
  733ACTN    C2 7787   0.964   0.007   6.419  0.5378 -0.4186  0.6614
  733ACTN    O1 7788   1.025   0.003   6.526 -0.3215 -0.9510 -0.1691
  733ACTN    C1 7789   0.902  -0.117   6.356  0.0268 -0.1418  0.5469
  733ACTN    H1 7790   0.901  -0.208   6.416  0.3751  0.5212  1.5818
  733ACTN    H2 7791   0.960  -0.141   6.267  0.7566  0.7517  0.7797
  733ACTN    H3 7792   0.800  -0.099   6.321 -0.1843 -0.2163  1.1175
  734ACTN    H6 7793   6.643   7.933   4.875 -0.2299  0.3599  1.6315
  734ACTN    C3 7794   6.734   7.874   4.878 -0.0698  0.4840 -0.0719
  734ACTN    H4 7795   6.761   7.869   4.984 -0.0662 -2.9377 -0.1598
  734ACTN    H5 7796   6.709   7.773   4.846 -0.8308  1.5565 -2.9382
  734ACTN    C2 7797   6.845   7.932   4.801  0.4764 -0.1117  0.6366
  734ACTN    O1 7798   6.828   7.966   4.684  0.4782  0.4136 -0.1103
  734ACTN    C1 7799   6.983   7.901   4.852  0.3259 -0.6098  0.0832
  734ACTN    H1 7800   7.068   7.927   4.789  0.7338  3.0605  1.9771
  734ACTN    H2 7801   6.996   7.797   4.880  2.6282  0.4415  3.2490
  734ACTN    H3 7802   6.995   7.969   4.936 -0.7307 -0.6069  0.2381
  735ACTN    H6 7803   5.287   0.238   1.489 -2.9301 -0.0686 -0.2177
  735ACTN    C3 7804   5.260   0.343   1.475  0.5604  0.8566 -0.3730
  735ACTN    H4 7805   5.270   0.398   1.568  1.1016 -2.0718  1.3736
  735ACTN    H5 7806   5.335   0.381   1.405  0.7746  1.0303 -0.0513
  735ACTN    C2 7807   5.117   0.364   1.426  0.5978 -0.1984  0.1628
  735ACTN    O1 7808   5.073   0.269   1.365  0.1296  0.9095  0.2523
  735ACTN    C1 7809   5.088   0.500   1.370 -0.2196 -0.0377  0.4308
  735ACTN    H1 7810   5.181   0.555   1.356 -0.7127  0.4151 -1.2048
  735ACTN    H2 7811   5.025   0.553   1.441  0.8173 -0.4649  1.6913
  735ACTN    H3 7812   5.035   0.490   1.275  0.9620 -0.3886 -0.2061
  736ACTN    H6 7813   3.086   6.854   2.879  1.5624 -0.7776 -3.8162
  736ACTN    C3 7814   3.043   6.947   2.843 -0.4120  0.0209  0.3597
  736ACTN    H4 7815   2.967   6.910   2.774 -0.6977  2.0623 -0.4598
  736ACTN    H5 7816   2.995   6.989   2.932 -2.5681 -0.0016 -0.7561
  736ACTN    C2 7817   3.144   7.031   2.776 -0.3558 -0.8516  0.9043
  736ACTN    O1 7818   3.243   7.072   2.838 -0.0586  0.0626  0.2262
  736ACTN    C1 7819   3.156   7.025   2.627  0.0444 -0.1235 -0.9851
  736ACTN    H1 7820   3.058   7.030   2.578 -0.4064  2.7175  0.0682
  736ACTN    H2 7821   3.207   6.936   2.592 -0.9630 -1.6976  1.3973
  736ACTN    H3 7822   3.212   7.114   2.597 -1.3642  0.5123 -1.8253
  737ACTN    H6 7823   0.473   0.905   4.917  0.4014 -1.2036  0.6347
  737ACTN    C3 7824   0.424   0.883   4.823  0.0162  1.1544  0.2468
  737ACTN    H4 7825   0.509   0.879   4.755 -1.7244 -0.6705 -1.9142
  737ACTN    H5 7826   0.373   0.786   4.827  0.0053  1.0981 -0.8679
  737ACTN    C2 7827   0.312   0.976   4.787 -0.1493  0.0476  0.3313
  737ACTN    O1 7828   0.294   1.086   4.835  1.2408  0.3762 -0.1109
  737ACTN    C1 7829   0.211   0.926   4.686 -0.3384 -0.2258  0.2409
  737ACTN    H1 7830   0.246   0.903   4.586 -2.1395  1.6354 -0.8630
  737ACTN    H2 7831   0.126   0.994   4.680  0.1634  0.3522 -0.4727
  737ACTN    H3 7832   0.171   0.837   4.734 -1.3539 -0.0602 -0.2826
  738ACTN    H6 7833   3.299   3.120   8.014  0.2755  0.1849 -1.2739
  738ACTN    C3 7834   3.381   3.186   8.042  0.3315 -0.2680 -0.3329
  738ACTN    H4 7835   3.334   3.284   8.028 -0.6165 -0.7364 -0.4724
  738ACTN    H5 7836   3.408   3.168   8.146  0.5866 -0.7554 -0.4829
  738ACTN    C2 7837   3.495   3.156   7.958 -0.3853 -0.9562 -0.8392
  738ACTN    O1 7838   3.593   3.230   7.960 -0.9340 -0.4986 -0.2124
  738ACTN    C1 7839   3.491   3.032   7.875  0.6682 -0.3465 -0.1980
  738ACTN    H1 7840   3.402   3.035   7.813 -0.0274  1.1812  0.8697
  738ACTN    H2 7841   3.481   2.939   7.931 -1.4783 -0.6659 -1.0763
  738ACTN    H3 7842   3.575   3.035   7.805 -0.4280  1.1433 -1.4565
  739ACTN    H6 7843   0.351   2.759   7.697  0.3054  0.0217  0.4010
  739ACTN    C3 7844   0.406   2.706   7.619  0.3494  1.2036 -0.3921
  739ACTN    H4 7845   0.441   2.768   7.537 -0.0178 -1.8974 -2.9792
  739ACTN    H5 7846   0.497   2.681   7.675  0.3703  1.5020 -0.2900
  739ACTN    C2 7847   0.354   2.574   7.553  0.4748  0.1929  0.5727
  739ACTN    O1 7848   0.256   2.522   7.600  0.1483  0.0889 -0.0398
  739ACTN    C1 7849   0.401   2.540   7.414 -0.3646  0.2462  0.1229
  739ACTN    H1 7850   0.318   2.565   7.348 -0.0100  3.7727  0.9107
  739ACTN    H2 7851   0.426   2.435   7.400  1.4048  1.0347 -3.2083
  739ACTN    H3 7852   0.487   2.602   7.391 -0.2108 -0.2050 -0.5069
  740ACTN    H6 7853   8.943   1.782   3.000  0.1745  0.1019  0.1724
  740ACTN    C3 7854   8.968   1.693   3.058  0.2055  0.2773  0.4314
  740ACTN    H4 7855   8.972   1.619   2.978  0.6411  1.0930 -0.3207
  740ACTN    H5 7856   9.068   1.700   3.101 -0.2166  1.7629  1.2085
  740ACTN    C2 7857   8.858   1.676   3.163 -0.6194 -0.8860  0.2548
  740ACTN    O1 7858   8.888   1.622   3.269 -0.3658 -0.6089  0.3272
  740ACTN    C1 7859   8.727   1.750   3.156 -0.1506  0.3110 -0.1672
  740ACTN    H1 7860   8.721   1.830   3.230 -2.5174 -0.6583  0.7212
  740ACTN    H2 7861   8.644   1.683   3.179 -1.7394  1.9031 -1.0842
  740ACTN    H3 7862   8.696   1.779   3.056 -2.4075 -0.8223  0.1744
  741ACTN    H6 7863   2.604   5.476   4.956  1.4409 -0.3145 -1.4530
  741ACTN    C3 7864   2.672   5.536   5.017  0.3356 -0.0907 -0.4136
  741ACTN    H4 7865   2.623   5.630   5.043 -1.5284 -1.8001  2.4603
  741ACTN    H5 7866   2.679   5.485   5.113  2.7005  0.0871 -0.4562
  741ACTN    C2 7867   2.803   5.553   4.949 -0.1356 -0.0956 -0.0221
  741ACTN    O1 7868   2.868   5.654   4.969  0.1527  0.4360 -0.7203
  741ACTN    C1 7869   2.874   5.439   4.876 -0.0063 -0.5341  0.2551
  741ACTN    H1 7870   2.812   5.353   4.900 -2.0599  1.0552  0.8425
  741ACTN    H2 7871   2.974   5.421   4.914  1.4638  1.5464 -2.4481
  741ACTN    H3 7872   2.883   5.451   4.768 -0.7135  0.2961  0.2851
  742ACTN    H6 7873   2.032   6.962   2.802  1.0091 -0.4861  3.8881
  742ACTN    C3 7874   1.931   6.928   2.827 -0.1659 -0.3266 -0.2276
  742ACTN    H4 7875   1.885   6.898   2.733 -3.0085 -0.1885  1.0651
  742ACTN    H5 7876   1.943   6.848   2.900  0.4395  0.4130  0.4816
  742ACTN    C2 7877   1.858   7.045   2.873 -0.0922 -0.2981 -0.3660
  742ACTN    O1 7878   1.920   7.147   2.901  0.6355  0.6349  0.2396
  742ACTN    C1 7879   1.712   7.039   2.885  0.0146  0.1870 -0.3728
  742ACTN    H1 7880   1.681   7.079   2.982  0.0887 -0.1652 -0.2053
  742ACTN    H2 7881   1.670   6.939   2.875 -0.3043  0.1309  1.4779
  742ACTN    H3 7882   1.666   7.111   2.816  0.6872 -0.3128 -1.3547
  743ACTN    H6 7883   0.233   5.420   0.622 -2.0721  1.3368  1.6188
  743ACTN    C3 7884   0.230   5.512   0.563  0.0683  0.1315 -0.4707
  743ACTN    H4 7885   0.321   5.565   0.591  1.0053 -1.7781  0.1756
  743ACTN    H5 7886   0.244   5.482   0.459 -1.6825  1.4988 -1.1229
  743ACTN    C2 7887   0.100   5.580   0.579 -0.3347 -0.3661 -0.0651
  743ACTN    O1 7888  -0.007   5.515   0.571  0.2644  0.5259  0.1535
  743ACTN    C1 7889   0.110   5.717   0.644 -0.4912 -0.2661  0.6558
  743ACTN    H1 7890   0.098   5.695   0.750 -1.8244 -0.1752  0.5348
  743ACTN    H2 7891   0.034   5.787   0.608  1.7727  1.0855 -1.7037
  743ACTN    H3 7892   0.210   5.759   0.634 -1.1995  1.4695  0.6531
  744ACTN    H6 7893   6.340   5.622   0.274 -2.3002 -0.4799 -0.6842
  744ACTN    C3 7894   6.315   5.662   0.372 -0.1117  0.0016 -0.2888
  744ACTN    H4 7895   6.245   5.743   0.353 -2.4890 -1.5504  1.5051
  744ACTN    H5 7896   6.267   5.582   0.429  0.0217  1.1460  1.4683
  744ACTN    C2 7897   6.437   5.709   0.432 -0.5838 -0.0339 -0.2465
  744ACTN    O1 7898   6.536   5.654   0.393  0.1515 -0.5142 -0.0338
  744ACTN    C1 7899   6.431   5.804   0.551  0.3187 -0.2652 -0.4806
  744ACTN    H1 7900   6.508   5.882   0.542  2.2191 -1.6781  2.7751
  744ACTN    H2 7901   6.448   5.743   0.639  0.3849  0.3336 -0.0782
  744ACTN    H3 7902   6.338   5.858   0.567  0.5112 -0.0677 -0.0268
  745ACTN    H6 7903   5.942   3.494   4.571 -1.4609 -0.7601  1.0316
  745ACTN    C3 7904   6.027   3.430   4.594 -0.5331 -0.0230 -0.2781
  745ACTN    H4 7905   5.975   3.339   4.625 -1.1545  0.6065  0.5510
  745ACTN    H5 7906   6.092   3.421   4.507 -2.7785 -0.3005 -1.9672
  745ACTN    C2 7907   6.114   3.486   4.703 -0.1543  0.8265  0.4209
  745ACTN    O1 7908   6.119   3.604   4.731 -0.4739 -0.3685  0.0704
  745ACTN    C1 7909   6.216   3.400   4.775  0.1798  0.4331  0.0593
  745ACTN    H1 7910   6.160   3.331   4.838  0.7767  0.1682  0.3008
  745ACTN    H2 7911   6.279   3.464   4.837  1.4782  0.1259 -0.9123
  745ACTN    H3 7912   6.276   3.343   4.704 -1.4968  0.5490 -1.4797
  746ACTN    H6 7913   5.125   8.315   3.875  0.5416  1.2450  0.4041
  746ACTN    C3 7914   5.057   8.399   3.866 -0.1050  0.5908 -0.8988
  746ACTN    H4 7915   4.966   8.362   3.912 -1.1743  1.0619 -2.5863
  746ACTN    H5 7916   5.089   8.485   3.926 -0.2205 -0.1086  0.1663
  746ACTN    C2 7917   5.024   8.443   3.728  0.5325  0.0841 -0.2934
  746ACTN    O1 7918   4.992   8.364   3.644  0.4951  0.3152 -0.2085
  746ACTN    C1 7919   5.054   8.584   3.691  0.6384  0.5284 -0.6333
  746ACTN    H1 7920   4.965   8.647   3.700 -0.5008 -0.9460 -1.3371
  746ACTN    H2 7921   5.080   8.586   3.586  0.5440  1.0358 -0.6512
  746ACTN    H3 7922   5.137   8.630   3.745 -1.1259  2.6649  0.3908
  747ACTN    H6 7923   7.002   8.293   7.142  3.9264  1.1609  0.4454
  747ACTN    C3 7924   7.019   8.262   7.039  0.2995 -0.5706  0.3121
  747ACTN    H4 7925   7.002   8.154   7.034 -2.8961 -0.1183  0.4426
  747ACTN    H5 7926   6.941   8.308   6.978 -0.2223 -2.3494 -0.3934
  747ACTN    C2 7927   7.153   8.295   6.977 -0.8652 -0.5899  0.2665
  747ACTN    O1 7928   7.173   8.349   6.874 -0.0311 -0.5595  0.3514
  747ACTN    C1 7929   7.273   8.234   7.043  0.5114 -0.4202  0.7125
  747ACTN    H1 7930   7.262   8.127   7.058  1.1130 -0.4341  1.0511
  747ACTN    H2 7931   7.280   8.284   7.140 -2.1242  0.1064  0.6552
  747ACTN    H3 7932   7.369   8.250   6.993 -0.9237  2.2420 -1.2864
  748ACTN    H6 7933   6.422   1.277   0.439 -0.7899 -0.1747  0.3863
  748ACTN    C3 7934   6.383   1.371   0.399  0.0450  0.3027  0.6623
  748ACTN    H4 7935   6.280   1.388   0.431 -0.0937  0.0001  0.3878
  748ACTN    H5 7936   6.452   1.445   0.437  0.2161  0.1980  0.5544
  748ACTN    C2 7937   6.395   1.359   0.246  0.1942 -0.3797 -0.1502
  748ACTN    O1 7938   6.504   1.348   0.195 -0.4837 -0.5630 -0.2863
  748ACTN    C1 7939   6.272   1.347   0.158 -0.0477 -0.2204 -0.4116
  748ACTN    H1 7940   6.269   1.243   0.126 -3.0159 -0.9375  1.9314
  748ACTN    H2 7941   6.282   1.410   0.069 -0.4886  1.2831  0.5842
  748ACTN    H3 7942   6.175   1.363   0.205 -0.7180 -0.7617 -1.5670
  749ACTN    H6 7943   8.066   1.821   8.549 -0.3944  2.0544  1.2604
  749ACTN    C3 7944   8.122   1.757   8.617 -0.2578  0.5468 -0.2231
  749ACTN    H4 7945   8.055   1.702   8.682  1.3891 -2.7244 -1.1669
  749ACTN    H5 7946   8.174   1.680   8.560  2.2477  1.3289  0.9387
  749ACTN    C2 7947   8.214   1.837   8.702  0.2632  0.2970  0.1764
  749ACTN    O1 7948   8.285   1.774   8.778  0.3043 -0.0286 -0.3348
  749ACTN    C1 7949   8.197   1.984   8.699  0.6317 -0.1501 -0.0157
  749ACTN    H1 7950   8.095   2.006   8.668 -0.3093 -1.2496  2.1582
  749ACTN    H2 7951   8.272   2.027   8.632 -0.9284 -0.0431 -1.7241
  749ACTN    H3 7952   8.223   2.016   8.800  0.7199 -0.7677  0.1593
  750ACTN    H6 7953   5.953   0.290   1.411 -1.5749  0.1696  0.8391
  750ACTN    C3 7954   6.004   0.386   1.419 -0.1422 -0.4869 -0.2898
  750ACTN    H4 7955   6.008   0.417   1.524  2.5156  1.5794 -0.9438
  750ACTN    H5 7956   6.109   0.374   1.392  0.1335  1.8333 -0.3718
  750ACTN    C2 7957   5.936   0.484   1.335 -0.1894 -0.8878  0.8011
  750ACTN    O1 7958   5.930   0.601   1.356 -0.2729  0.3488 -0.1736
  750ACTN    C1 7959   5.836   0.427   1.237  0.3801  0.4113 -0.5727
  750ACTN    H1 7960   5.874   0.330   1.204 -2.3920 -0.5687 -1.0352
  750ACTN    H2 7961   5.814   0.490   1.152 -0.5958  1.3174  0.3420
  750ACTN    H3 7962   5.739   0.400   1.279  0.4170 -0.2846 -0.9261
  751ACTN    H6 7963   4.105   3.199   4.321 -0.8548 -1.0234  0.7674
  751ACTN    C3 7964   4.031   3.228   4.246 -0.0618 -0.0864  0.3442
  751ACTN    H4 7965   4.080   3.212   4.150 -0.7553  2.2880 -0.4272
  751ACTN    H5 7966   3.951   3.156   4.261 -0.2639 -0.0837 -0.6722
  751ACTN    C2 7967   3.987   3.372   4.259  0.4833  0.2356  0.6313
  751ACTN    O1 7968   3.971   3.425   4.366 -0.6434  0.6279 -0.2559
  751ACTN    C1 7969   3.954   3.448   4.135  0.0782 -0.1206 -0.4259
  751ACTN    H1 7970   3.974   3.390   4.045 -1.7784 -1.5053  0.0118
  751ACTN    H2 7971   3.980   3.554   4.128 -0.6176  0.0402 -0.6357
  751ACTN    H3 7972   3.845   3.445   4.135 -0.0246  1.9635 -1.6887
  752ACTN    H6 7973   8.025   7.550   4.469 -0.0846  1.5476  2.5877
  752ACTN    C3 7974   8.118   7.604   4.487  0.8658  0.6157  0.6403
  752ACTN    H4 7975   8.152   7.570   4.585 -0.2694 -2.0095  0.1566
  752ACTN    H5 7976   8.187   7.561   4.415 -1.3992 -0.7551 -0.7873
  752ACTN    C2 7977   8.109   7.754   4.480  0.0747 -0.1082 -0.4868
  752ACTN    O1 7978   8.210   7.820   4.489  0.0964  0.8037 -0.2664
  752ACTN    C1 7979   7.977   7.822   4.463  0.7709 -0.1355  0.1637
  752ACTN    H1 7980   7.976   7.883   4.374 -2.1801 -0.3947 -0.0292
  752ACTN    H2 7981   7.952   7.868   4.559  1.6810  0.5964  0.0467
  752ACTN    H3 7982   7.905   7.741   4.445 -0.0985  0.5384  0.5664
  753ACTN    H6 7983   3.818   5.373   8.652 -0.2341 -0.3730 -0.5370
  753ACTN    C3 7984   3.853   5.356   8.753  0.2283  0.6354 -0.5250
  753ACTN    H4 7985   3.945   5.414   8.764  1.6019 -1.6409  0.5967
  753ACTN    H5 7986   3.788   5.397   8.830 -0.1966  0.5646 -0.8499
  753ACTN    C2 7987   3.881   5.213   8.764  0.4825 -0.2579 -0.5810
  753ACTN    O1 7988   3.793   5.131   8.772  0.6625  0.2242  0.1651
  753ACTN    C1 7989   4.018   5.181   8.807  0.1467  0.5675  0.5243
  753ACTN    H1 7990   4.016   5.166   8.916  0.3256 -0.9537  0.3385
  753ACTN    H2 7991   4.083   5.265   8.785  0.1219  0.5991  0.5715
  753ACTN    H3 7992   4.046   5.084   8.765 -0.3776 -0.6116  2.7748
  754ACTN    H6 7993   6.460   4.954   4.149  0.8687  0.1646  1.2960
  754ACTN    C3 7994   6.372   4.978   4.208  0.1364 -0.2277  0.3695
  754ACTN    H4 7995   6.379   4.917   4.298  1.0668 -1.7323 -0.7065
  754ACTN    H5 7996   6.396   5.081   4.234  0.4956 -0.3953  0.7062
  754ACTN    C2 7997   6.248   4.972   4.123 -0.2010 -0.6826 -0.7360
  754ACTN    O1 7998   6.142   5.028   4.169  0.4829  0.3898 -0.4869
  754ACTN    C1 7999   6.259   4.931   3.980  0.3097  0.5542  0.4169
  754ACTN    H1 8000   6.180   4.983   3.925 -0.8896  0.1830  1.7608
  754ACTN    H2 8001   6.241   4.824   3.970 -2.1864  1.0020 -0.4173
  754ACTN    H3 8002   6.355   4.958   3.936  0.6959  2.8429  2.5542
  755ACTN    H6 8003   1.937   0.539   2.333  0.0218  2.1018  1.3958
  755ACTN    C3 8004   1.830   0.558   2.341 -0.3492  0.3090  0.7895
  755ACTN    H4 8005   1.817   0.664   2.323  3.7617  0.7205 -0.1709
  755ACTN    H5 8006   1.773   0.512   2.260 -1.9969  1.1711  1.4329
  755ACTN    C2 8007   1.775   0.500   2.462  0.3086 -0.2743 -0.7341
  755ACTN    O1 8008   1.650   0.514   2.482  0.3050 -0.6436 -0.4419
  755ACTN    C1 8009   1.852   0.394   2.532 -0.6074  0.1524  0.7228
  755ACTN    H1 8010   1.785   0.316   2.570 -1.4840  0.3942 -0.3079
  755ACTN    H2 8011   1.908   0.431   2.618  1.6804 -1.2618 -0.1094
  755ACTN    H3 8012   1.930   0.359   2.464  0.0493  1.2891  0.8840
  756ACTN    H6 8013   2.457   0.440   2.536  0.6120  2.4153 -1.0263
  756ACTN    C3 8014   2.350   0.417   2.531  1.0243 -0.1363  1.3058
  756ACTN    H4 8015   2.322   0.383   2.431  1.1828  2.5887  0.3009
  756ACTN    H5 8016   2.333   0.333   2.598  1.7930  0.3628  2.1352
  756ACTN    C2 8017   2.264   0.531   2.574 -0.8488 -0.6837  0.1407
  756ACTN    O1 8018   2.230   0.613   2.488  0.1964 -0.3428  0.0658
  756ACTN    C1 8019   2.203   0.541   2.715  0.1544 -0.4707  0.0736
  756ACTN    H1 8020   2.247   0.464   2.778 -2.9433 -2.3813  0.0138
  756ACTN    H2 8021   2.096   0.520   2.721  0.3343 -0.8694  2.3728
  756ACTN    H3 8022   2.232   0.643   2.741 -0.9947  0.1351 -0.9728
  757ACTN    H6 8023   7.549   1.895   3.965  1.1874  2.9160 -1.6042
  757ACTN    C3 8024   7.537   1.949   4.059 -0.2224 -0.7839  0.4707
  757ACTN    H4 8025   7.535   1.880   4.143  2.3308 -1.9022 -0.3418
  757ACTN    H5 8026   7.627   2.010   4.071 -0.4586 -0.5571  1.0840
  757ACTN    C2 8027   7.417   2.038   4.064  0.8580  0.1300  0.5776
  757ACTN    O1 8028   7.314   2.007   4.000  0.8070 -0.3063 -0.6201
  757ACTN    C1 8029   7.401   2.142   4.169  0.5673  0.0440 -0.4529
  757ACTN    H1 8030   7.361   2.099   4.261  1.3754  0.4518  0.0932
  757ACTN    H2 8031   7.327   2.218   4.144  0.7023 -0.0291 -1.0889
  757ACTN    H3 8032   7.494   2.190   4.199  1.0914 -2.0495  1.4205
  758ACTN    H6 8033   8.964   1.756   1.250  1.9746 -1.2114 -0.9376
  758ACTN    C3 8034   9.019   1.729   1.340  0.8454  0.2371  0.2200
  758ACTN    H4 8035   9.115   1.683   1.315 -0.0227 -1.5874  0.1297
  758ACTN    H5 8036   9.035   1.810   1.411  0.1739  0.7888 -0.2612
  758ACTN    C2 8037   8.933   1.627   1.413 -0.3053  0.4085  0.4722
  758ACTN    O1 8038   8.946   1.505   1.400  0.0918  0.3330 -0.3047
  758ACTN    C1 8039   8.807   1.675   1.472 -1.1000 -0.0656 -1.3158
  758ACTN    H1 8040   8.783   1.777   1.440 -0.2177  0.3153 -0.7677
  758ACTN    H2 8041   8.825   1.684   1.579  1.3621  0.9250 -1.7759
  758ACTN    H3 8042   8.719   1.611   1.459 -1.5516  0.2177  0.2479
  759ACTN    H6 8043   6.561   7.820   3.437  1.4273 -2.1310  1.6196
  759ACTN    C3 8044   6.590   7.882   3.522 -0.1120  0.8585  0.0937
  759ACTN    H4 8045   6.548   7.982   3.524 -2.1170  0.0327  3.5204
  759ACTN    H5 8046   6.566   7.834   3.617  2.3815  0.9628  0.8144
  759ACTN    C2 8047   6.742   7.899   3.515  0.4743  0.4279  0.1088
  759ACTN    O1 8048   6.795   7.911   3.406  0.1032  0.2264  0.1861
  759ACTN    C1 8049   6.831   7.863   3.628  0.1547 -0.0603  0.0411
  759ACTN    H1 8050   6.767   7.832   3.711 -0.9824  2.0200 -0.0342
  759ACTN    H2 8051   6.893   7.945   3.663 -0.3511  0.0285  0.7512
  759ACTN    H3 8052   6.900   7.783   3.602  1.5933  1.1306  0.1444
  760ACTN    H6 8053   1.726   6.633   3.204 -0.8980  0.7099  0.3002
  760ACTN    C3 8054   1.707   6.739   3.190  0.2600  0.9410  0.4674
  760ACTN    H4 8055   1.670   6.757   3.088  0.2045  2.0433  0.6682
  760ACTN    H5 8056   1.618   6.769   3.244 -1.7673  0.7753 -2.6291
  760ACTN    C2 8057   1.807   6.848   3.212 -0.4547  0.7976  0.2578
  760ACTN    O1 8058   1.926   6.829   3.174 -0.0158 -0.0908  0.4503
  760ACTN    C1 8059   1.772   6.972   3.296  0.6421  0.7056  0.2909
  760ACTN    H1 8060   1.846   7.005   3.368  3.8699 -2.3012 -1.5028
  760ACTN    H2 8061   1.688   6.938   3.358  1.4129 -0.3272  0.7827
  760ACTN    H3 8062   1.741   7.059   3.238 -2.0967  0.4044  1.2098
  761ACTN    H6 8063   7.156   8.205   2.486 -0.9874  3.4991  1.8671
  761ACTN    C3 8064   7.159   8.165   2.587  0.5334  0.1630  0.5634
  761ACTN    H4 8065   7.166   8.247   2.658  0.7350  0.8318 -0.2303
  761ACTN    H5 8066   7.066   8.107   2.593 -0.3706  1.5636  0.2075
  761ACTN    C2 8067   7.278   8.076   2.603  0.0168 -0.2070  0.7200
  761ACTN    O1 8068   7.268   8.004   2.701 -0.6936  0.4344  0.1249
  761ACTN    C1 8069   7.370   8.039   2.490 -0.3590 -0.0014  0.0386
  761ACTN    H1 8070   7.332   8.088   2.401  0.7658 -0.8517 -0.9157
  761ACTN    H2 8071   7.384   7.931   2.488  0.7242  0.1570 -2.3800
  761ACTN    H3 8072   7.471   8.078   2.504 -0.0165  0.4359 -3.3508
  762ACTN    H6 8073   4.655   4.345   3.303  0.7055  1.3807  0.2198
  762ACTN    C3 8074   4.573   4.407   3.339 -0.8142 -0.1581 -0.5274
  762ACTN    H4 8075   4.500   4.396   3.259 -0.2652  0.5038 -1.1154
  762ACTN    H5 8076   4.538   4.361   3.432  0.4112  2.3051  1.2126
  762ACTN    C2 8077   4.641   4.546   3.353 -0.0430 -0.0845 -0.1354
  762ACTN    O1 8078   4.639   4.619   3.252  0.3267 -0.5469  0.3075
  762ACTN    C1 8079   4.725   4.589   3.471  0.2469  0.4718  0.4300
  762ACTN    H1 8080   4.670   4.603   3.563 -0.2550  2.0453 -0.0869
  762ACTN    H2 8081   4.778   4.682   3.451 -1.7800  1.8442  1.3237
  762ACTN    H3 8082   4.799   4.513   3.495  0.4302  0.5685  0.1815
  763ACTN    H6 8083   0.692   6.511   3.161  0.1748  0.1624  0.7342
  763ACTN    C3 8084   0.795   6.483   3.140 -0.0688 -0.3435  0.1915
  763ACTN    H4 8085   0.853   6.511   3.228 -0.1583  2.6117 -0.6274
  763ACTN    H5 8086   0.787   6.374   3.137 -2.2998 -0.1984  0.2699
  763ACTN    C2 8087   0.847   6.545   3.016  0.7508  0.3274 -0.0388
  763ACTN    O1 8088   0.772   6.555   2.916 -0.0292  0.4872 -0.5108
  763ACTN    C1 8089   0.997   6.571   3.008 -0.3532  0.0691 -0.3827
  763ACTN    H1 8090   1.014   6.678   2.993 -3.4225  0.7443  0.5337
  763ACTN    H2 8091   1.040   6.509   2.930 -2.8394 -2.0109 -0.1735
  763ACTN    H3 8092   1.056   6.541   3.094  0.8653 -1.1611 -1.6343
  764ACTN    H6 8093   4.350   2.869   4.021 -0.7415 -0.5129 -0.7248
  764ACTN    C3 8094   4.445   2.825   3.990 -0.3774  0.1347 -0.5453
  764ACTN    H4 8095   4.446   2.803   3.883 -0.5604 -1.5331 -0.2187
  764ACTN    H5 8096   4.513   2.907   4.011 -1.0535  0.3636  0.7949
  764ACTN    C2 8097   4.496   2.708   4.062  0.2100  1.1849 -0.1236
  764ACTN    O1 8098   4.563   2.722   4.167  0.8687 -0.3240 -0.7860
  764ACTN    C1 8099   4.442   2.575   4.039 -0.3609  0.3083 -0.2546
  764ACTN    H1 8100   4.460   2.550   3.935  1.5111  1.5832 -0.2603
  764ACTN    H2 8101   4.333   2.576   4.042 -0.3557 -0.2447  0.7483
  764ACTN    H3 8102   4.492   2.500   4.101  1.1931 -0.0521 -1.9337
  765ACTN    H6 8103   2.655   6.874   7.533 -0.7082  0.3647  1.1125
  765ACTN    C3 8104   2.612   6.921   7.445  0.1402  0.0665  0.5326
  765ACTN    H4 8105   2.573   7.018   7.478  0.6868 -0.5131  2.9912
  765ACTN    H5 8106   2.682   6.941   7.364 -1.7688 -2.5579 -1.8173
  765ACTN    C2 8107   2.502   6.839   7.387  0.2100 -0.1095 -0.5124
  765ACTN    O1 8108   2.520   6.729   7.342  0.1080  0.4676  0.0509
  765ACTN    C1 8109   2.365   6.888   7.399 -0.0566 -0.0036  0.5259
  765ACTN    H1 8110   2.355   6.992   7.430  0.0746  0.4454 -0.8757
  765ACTN    H2 8111   2.305   6.821   7.460 -0.7398 -0.4722 -0.6261
  765ACTN    H3 8112   2.319   6.884   7.300 -1.5717 -0.0768  1.2197
  766ACTN    H6 8113   8.048   6.232   0.313  0.2349 -1.8081  0.7231
  766ACTN    C3 8114   8.094   6.218   0.215 -0.1838  0.0943  0.2394
  766ACTN    H4 8115   8.046   6.279   0.137 -1.0704 -0.6832  0.1705
  766ACTN    H5 8116   8.200   6.241   0.227 -0.1487 -0.1447  0.3662
  766ACTN    C2 8117   8.077   6.071   0.179 -0.5700 -0.2953 -0.0349
  766ACTN    O1 8118   8.032   6.044   0.073  0.0043  0.5930  0.3325
  766ACTN    C1 8119   8.108   5.972   0.286  0.6713  0.8369 -0.4918
  766ACTN    H1 8120   8.053   5.881   0.263 -1.5483  2.7169 -2.8751
  766ACTN    H2 8121   8.078   6.009   0.384 -2.0789 -0.3635 -0.8347
  766ACTN    H3 8122   8.214   5.946   0.281 -0.0645 -2.2652 -0.9045
  767ACTN    H6 8123   5.597   0.236   5.777 -2.2678 -0.8463  1.4533
  767ACTN    C3 8124   5.647   0.291   5.857 -0.2020 -0.0039 -0.3536
  767ACTN    H4 8125   5.738   0.241   5.889 -1.9774 -1.7948  2.0497
  767ACTN    H5 8126   5.676   0.387   5.814 -1.3116  1.3317  1.7708
  767ACTN    C2 8127   5.577   0.325   5.983 -0.8489  0.2514  0.1709
  767ACTN    O1 8128   5.462   0.287   6.003  0.8168 -0.5244  0.6726
  767ACTN    C1 8129   5.647   0.416   6.083  0.1514  0.0183  0.7324
  767ACTN    H1 8130   5.584   0.439   6.168 -1.0854 -0.8507  0.0693
  767ACTN    H2 8131   5.664   0.510   6.031  0.3279 -0.6261 -0.4173
  767ACTN    H3 8132   5.745   0.379   6.114  0.3073  0.2729  0.5434
  768ACTN    H6 8133   6.219   1.600   2.653 -0.8494 -0.1099  0.1711
  768ACTN    C3 8134   6.158   1.549   2.728  0.4380  0.0615  1.3553
  768ACTN    H4 8135   6.224   1.463   2.739 -1.7720 -1.7570  0.8560
  768ACTN    H5 8136   6.151   1.621   2.809  0.8053 -1.2514  2.5612
  768ACTN    C2 8137   6.024   1.505   2.663 -0.5656 -0.1143  0.3784
  768ACTN    O1 8138   5.926   1.511   2.731 -0.2284 -0.1304 -0.2867
  768ACTN    C1 8139   6.008   1.485   2.513 -0.5451 -0.3002  0.9431
  768ACTN    H1 8140   6.096   1.522   2.461 -1.6078 -0.1326 -0.7866
  768ACTN    H2 8141   5.920   1.536   2.472  1.4382  2.5553  0.1051
  768ACTN    H3 8142   6.001   1.378   2.494 -2.1063  0.2572 -1.9652
  769ACTN    H6 8143   2.143   2.200   0.948 -0.2693 -1.1936 -0.5727
  769ACTN    C3 8144   2.244   2.165   0.926  0.0060 -0.7995  0.0625
  769ACTN    H4 8145   2.236   2.073   0.869  0.7916 -1.3924  0.8893
  769ACTN    H5 8146   2.292   2.245   0.870 -1.4180  2.1321  2.8301
  769ACTN    C2 8147   2.308   2.155   1.056 -0.0052  0.5382  0.2259
  769ACTN    O1 8148   2.380   2.056   1.082  0.1292  0.0442  0.4481
  769ACTN    C1 8149   2.303   2.268   1.151  0.1097 -0.0425  0.3202
  769ACTN    H1 8150   2.257   2.240   1.246  1.8719 -3.1471  0.3011
  769ACTN    H2 8151   2.249   2.358   1.118 -0.8074 -1.0810 -1.0719
  769ACTN    H3 8152   2.403   2.300   1.181  0.6703 -0.3613 -1.1574
  770ACTN    H6 8153   8.366   4.161   6.453 -2.2372 -0.2335  0.8548
  770ACTN    C3 8154   8.349   4.063   6.409 -0.2623 -0.0760 -0.3233
  770ACTN    H4 8155   8.370   3.992   6.490  1.7180  2.6475  1.6483
  770ACTN    H5 8156   8.247   4.053   6.372  0.0207 -1.2702 -0.8039
  770ACTN    C2 8157   8.450   4.056   6.296  0.2316 -0.4921 -0.4603
  770ACTN    O1 8158   8.445   3.964   6.221 -0.1076 -0.5785 -0.3565
  770ACTN    C1 8159   8.536   4.175   6.268  0.4419  0.4870 -0.0334
  770ACTN    H1 8160   8.633   4.162   6.316  0.5912  1.3689 -0.0740
  770ACTN    H2 8161   8.498   4.272   6.300  1.0035  0.2477  1.3979
  770ACTN    H3 8162   8.546   4.185   6.160 -1.4129 -0.0101 -0.2666
  771ACTN    H6 8163   4.257   4.105   1.392 -1.4156 -1.7234  0.5349
  771ACTN    C3 8164   4.244   4.115   1.285 -0.7205  0.1498  0.6010
  771ACTN    H4 8165   4.137   4.121   1.264 -0.3006  1.6821 -1.2563
  771ACTN    H5 8166   4.283   4.206   1.239  0.9880 -0.5092  0.7311
  771ACTN    C2 8167   4.295   3.997   1.210 -0.1571  0.6102  0.4590
  771ACTN    O1 8168   4.228   3.949   1.123 -0.2121 -0.2553  0.1050
  771ACTN    C1 8169   4.425   3.932   1.244 -0.0182  0.1507  0.0312
  771ACTN    H1 8170   4.477   3.899   1.154 -0.5877  0.6685 -0.4896
  771ACTN    H2 8171   4.414   3.846   1.310 -1.0188  0.8615  0.8105
  771ACTN    H3 8172   4.495   3.995   1.299  0.0315  0.1810 -0.0677
  772ACTN    H6 8173   1.968   1.114   8.497 -0.4346 -1.3543 -0.7241
  772ACTN    C3 8174   1.961   1.163   8.399  0.2010 -0.4346 -0.3141
  772ACTN    H4 8175   2.015   1.103   8.325 -0.5221 -0.4134 -0.8588
  772ACTN    H5 8176   1.859   1.176   8.365 -1.0517 -0.9994  3.0619
  772ACTN    C2 8177   2.032   1.292   8.400 -0.1229 -0.0012 -0.0814
  772ACTN    O1 8178   2.129   1.305   8.325  0.2762  0.7532  0.0628
  772ACTN    C1 8179   1.959   1.405   8.468 -0.1950  0.5795  0.4086
  772ACTN    H1 8180   1.861   1.379   8.509 -0.1444 -1.4338 -0.6844
  772ACTN    H2 8181   1.950   1.486   8.395 -0.7084  0.1412 -0.0184
  772ACTN    H3 8182   2.014   1.435   8.558 -1.5566  0.5999  1.2599
  773ACTN    H6 8183   5.935   2.723   4.674 -0.2204  0.0023 -0.3466
  773ACTN    C3 8184   5.914   2.805   4.743 -0.0105 -0.3685  0.1679
  773ACTN    H4 8185   5.810   2.823   4.767  0.7612  1.0260  2.6205
  773ACTN    H5 8186   5.974   2.797   4.833  0.1119 -1.6493 -0.0276
  773ACTN    C2 8187   5.955   2.930   4.676 -0.1748 -0.7329  0.4080
  773ACTN    O1 8188   6.043   3.004   4.714  0.4564 -0.3775 -0.0224
  773ACTN    C1 8189   5.884   2.976   4.558  0.6622 -0.0857  0.1395
  773ACTN    H1 8190   5.937   3.042   4.490  0.1849 -0.6822 -0.8369
  773ACTN    H2 8191   5.788   3.020   4.583  0.4643 -1.1508  1.2988
  773ACTN    H3 8192   5.852   2.890   4.498  1.3001 -0.3178  0.1289
  774ACTN    H6 8193   0.040   5.712   8.300 -1.3498  3.5777 -0.8883
  774ACTN    C3 8194   0.009   5.718   8.404 -1.0622  0.0860 -0.5673
  774ACTN    H4 8195   0.055   5.642   8.468 -2.0956 -0.7521 -0.7934
  774ACTN    H5 8196   0.039   5.815   8.443  1.3644 -1.1086  0.6386
  774ACTN    C2 8197  -0.139   5.703   8.396 -0.2879 -0.5035  0.2487
  774ACTN    O1 8198  -0.202   5.794   8.448 -0.0075  0.6528  0.4812
  774ACTN    C1 8199  -0.192   5.586   8.314  0.1846  0.2139 -0.0514
  774ACTN    H1 8200  -0.296   5.565   8.339  0.3968 -2.0725 -0.9882
  774ACTN    H2 8201  -0.127   5.503   8.340 -1.0035 -0.1296  1.9411
  774ACTN    H3 8202  -0.185   5.605   8.207  3.8193 -0.8458 -0.0797
  775ACTN    H6 8203   6.632   5.578   5.912 -0.6781 -0.6768 -0.0618
  775ACTN    C3 8204   6.615   5.475   5.940  0.3791 -0.8486 -0.0094
  775ACTN    H4 8205   6.601   5.419   5.847 -2.4269 -1.3096  0.6325
  775ACTN    H5 8206   6.702   5.439   5.995 -0.2019 -0.1586  1.3978
  775ACTN    C2 8207   6.487   5.467   6.029  0.1315  0.1848  0.2180
  775ACTN    O1 8208   6.385   5.541   6.012  0.3238 -0.3497 -0.0426
  775ACTN    C1 8209   6.461   5.356   6.129  0.3758 -0.0043  0.3399
  775ACTN    H1 8210   6.508   5.262   6.097 -0.1887 -0.8732  2.0030
  775ACTN    H2 8211   6.357   5.330   6.147  0.0184  1.0595 -0.1896
  775ACTN    H3 8212   6.509   5.378   6.224  1.2699 -0.1409 -0.0691
  776ACTN    H6 8213   8.956   8.861   5.966  1.9705 -1.3658 -0.2813
  776ACTN    C3 8214   8.926   8.757   5.978  0.2988 -0.8453  0.0898
  776ACTN    H4 8215   8.841   8.760   6.046  0.3253  0.9822  0.0619
  776ACTN    H5 8216   8.893   8.728   5.878 -0.0057 -1.2559  0.3078
  776ACTN    C2 8217   9.039   8.675   6.038  0.9514  0.6720  0.9357
  776ACTN    O1 8218   9.047   8.653   6.160  0.6383  0.3366  0.2403
  776ACTN    C1 8219   9.132   8.608   5.947 -0.4571  0.2890  0.5309
  776ACTN    H1 8220   9.234   8.621   5.983 -0.1664 -1.1997  0.2548
  776ACTN    H2 8221   9.112   8.643   5.845 -2.0492  0.8672  1.0171
  776ACTN    H3 8222   9.114   8.501   5.953 -1.0315  0.3995  0.8422
  777ACTN    H6 8223   2.944   1.156   2.615  1.8027  2.1545  2.2119
  777ACTN    C3 8224   2.866   1.231   2.616  0.4037  0.7703  0.4756
  777ACTN    H4 8225   2.889   1.297   2.700 -0.4730  1.9427 -0.1742
  777ACTN    H5 8226   2.768   1.188   2.633 -0.6283  3.2493  1.1340
  777ACTN    C2 8227   2.879   1.327   2.498  0.3450  0.5135 -0.3944
  777ACTN    O1 8228   2.984   1.339   2.443  0.0178  0.3030 -0.0603
  777ACTN    C1 8229   2.768   1.428   2.474  0.2795  0.0331 -0.0601
  777ACTN    H1 8230   2.675   1.377   2.499  0.2287 -0.3863 -1.0865
  777ACTN    H2 8231   2.771   1.453   2.368  1.7409 -0.9452 -0.2771
  777ACTN    H3 8232   2.795   1.515   2.534  0.6024 -0.7071  0.8906
  778ACTN    H6 8233   7.891   5.479   8.621 -0.4363 -0.5201 -0.2616
  778ACTN    C3 8234   7.933   5.578   8.602 -0.4149 -0.5037 -0.1229
  778ACTN    H4 8235   7.940   5.587   8.494  2.7188  0.5392  0.1135
  778ACTN    H5 8236   7.868   5.659   8.635  1.0055  0.8269 -0.5494
  778ACTN    C2 8237   8.071   5.577   8.660 -0.3967  0.1655  0.6335
  778ACTN    O1 8238   8.121   5.678   8.701 -0.1833  0.4656  0.3364
  778ACTN    C1 8239   8.163   5.461   8.630  1.1128  0.0926 -0.2962
  778ACTN    H1 8240   8.197   5.473   8.527  0.9724  0.1726 -0.3355
  778ACTN    H2 8241   8.117   5.363   8.638  0.6808  0.1692 -1.8405
  778ACTN    H3 8242   8.249   5.455   8.696  0.4217  1.9304  0.8225
  779ACTN    H6 8243   6.950   3.494   6.309  0.0628  1.1214  1.1153
  779ACTN    C3 8244   7.038   3.537   6.262  0.3143 -0.6858 -0.0935
  779ACTN    H4 8245   7.088   3.605   6.330 -1.6587  0.3323  0.3748
  779ACTN    H5 8246   7.112   3.464   6.231  0.0542 -0.5669 -1.0207
  779ACTN    C2 8247   6.991   3.616   6.142 -0.2247 -0.0395  0.0661
  779ACTN    O1 8248   6.999   3.736   6.133 -0.0402 -0.9661  0.3583
  779ACTN    C1 8249   6.931   3.541   6.031  0.4445 -0.6738  0.0769
  779ACTN    H1 8250   6.843   3.588   5.989  0.0674 -1.2660  0.1972
  779ACTN    H2 8251   6.903   3.440   6.063  1.0843 -1.0375 -0.4806
  779ACTN    H3 8252   7.009   3.526   5.955  0.0646 -0.7352 -0.3046
  780ACTN    H6 8253   5.274   4.423   7.934 -2.5448 -1.6492  1.7128
  780ACTN    C3 8254   5.214   4.391   7.849 -0.6864  0.3822 -0.4452
  780ACTN    H4 8255   5.110   4.419   7.866  0.2274  3.7871 -0.1731
  780ACTN    H5 8256   5.254   4.431   7.756 -0.7237 -1.0981 -1.1177
  780ACTN    C2 8257   5.215   4.239   7.843  0.1130  0.3129  0.6381
  780ACTN    O1 8258   5.180   4.184   7.944  0.4000 -0.2732 -0.6356
  780ACTN    C1 8259   5.230   4.162   7.713  0.2122 -0.3740 -0.0085
  780ACTN    H1 8260   5.158   4.198   7.640 -1.1658 -0.7787  1.1225
  780ACTN    H2 8261   5.197   4.060   7.731  0.2554 -0.4976 -0.6246
  780ACTN    H3 8262   5.331   4.158   7.672  1.4327 -1.1374  2.9442
  781ACTN    H6 8263   5.831   8.818   5.870 -0.3593  0.7164  0.1392
  781ACTN    C3 8264   5.737   8.856   5.828 -0.6720  0.4570  0.6040
  781ACTN    H4 8265   5.659   8.843   5.904 -1.0769 -0.4908  0.0408
  781ACTN    H5 8266   5.748   8.964   5.819  1.4717  0.2618  0.5054
  781ACTN    C2 8267   5.699   8.811   5.690 -0.2191  0.1357 -0.1627
  781ACTN    O1 8268   5.776   8.836   5.596  0.3229  0.7029  0.6519
  781ACTN    C1 8269   5.560   8.759   5.658  1.3668 -0.7316 -0.1181
  781ACTN    H1 8270   5.494   8.793   5.738  2.0727 -0.6359  0.4254
  781ACTN    H2 8271   5.565   8.651   5.676  2.7216 -0.5699  0.5102
  781ACTN    H3 8272   5.516   8.790   5.563 -1.8141 -1.8183  0.9228
  782ACTN    H6 8273   1.907   0.963   4.508 -3.1039 -2.7607  1.3997
  782ACTN    C3 8274   1.843   0.970   4.419  0.1673 -0.6527 -0.9045
  782ACTN    H4 8275   1.743   1.004   4.444 -0.3347 -2.7882  0.1765
  782ACTN    H5 8276   1.891   1.038   4.349  1.4064  1.3429  1.7675
  782ACTN    C2 8277   1.837   0.828   4.359 -0.5897 -0.2938  0.4141
  782ACTN    O1 8278   1.867   0.733   4.424  0.4693  0.1067 -0.1188
  782ACTN    C1 8279   1.774   0.805   4.232 -0.0106 -0.3661 -0.0784
  782ACTN    H1 8280   1.676   0.853   4.224 -0.3300 -0.4223  2.8481
  782ACTN    H2 8281   1.756   0.700   4.209  3.2862 -0.6545 -1.5878
  782ACTN    H3 8282   1.831   0.857   4.155 -0.5885 -1.6997 -1.4226
  783ACTN    H6 8283   1.536   5.167   6.401  0.3932  1.0584 -1.1811
  783ACTN    C3 8284   1.493   5.097   6.330 -0.0119  0.5063 -0.4029
  783ACTN    H4 8285   1.396   5.136   6.298  0.0084  0.5166 -0.4531
  783ACTN    H5 8286   1.559   5.108   6.244  1.1320 -2.5745  0.0053
  783ACTN    C2 8287   1.473   4.952   6.379  1.1716  0.2400  0.2142
  783ACTN    O1 8288   1.493   4.923   6.495  0.0061 -0.3344 -0.7923
  783ACTN    C1 8289   1.440   4.841   6.282 -0.9051 -0.5823 -0.5046
  783ACTN    H1 8290   1.380   4.871   6.196 -2.0889  0.0648  0.5290
  783ACTN    H2 8291   1.391   4.756   6.328 -1.4949 -1.0449 -1.9527
  783ACTN    H3 8292   1.542   4.818   6.250 -0.5133 -1.0225  1.0378
  784ACTN    H6 8293   6.289   8.017   0.646 -0.0083 -0.3859  2.2878
  784ACTN    C3 8294   6.229   8.098   0.687 -0.1402  0.4489  0.5079
  784ACTN    H4 8295   6.175   8.052   0.770 -0.0515 -1.3195 -0.3889
  784ACTN    H5 8296   6.300   8.176   0.716 -0.2576  0.6746  0.1838
  784ACTN    C2 8297   6.137   8.151   0.586  0.4408  0.2084 -0.0152
  784ACTN    O1 8298   6.013   8.161   0.605 -0.0334  0.5519  0.4307
  784ACTN    C1 8299   6.190   8.173   0.452  0.2482  0.8922  0.3357
  784ACTN    H1 8300   6.111   8.205   0.383  0.4941 -2.0548 -1.3914
  784ACTN    H2 8301   6.225   8.077   0.414 -2.6967 -0.6269  1.3180
  784ACTN    H3 8302   6.270   8.247   0.453 -0.1922  1.3511  2.0809
  785ACTN    H6 8303   7.443   8.910   4.950  0.5526  0.2370  0.2060
  785ACTN    C3 8304   7.396   8.891   5.046  0.1271 -0.3380 -0.1080
  785ACTN    H4 8305   7.482   8.874   5.112  1.6084  2.3999 -1.2539
  785ACTN    H5 8306   7.346   8.980   5.084  0.6755  0.8318 -2.0508
  785ACTN    C2 8307   7.306   8.769   5.058 -0.0413 -0.0894  0.0241
  785ACTN    O1 8308   7.343   8.655   5.037 -0.4750  0.3941  0.0275
  785ACTN    C1 8309   7.157   8.792   5.102 -0.2194  0.5184  0.0463
  785ACTN    H1 8310   7.103   8.712   5.153 -0.1440  0.6008  0.2582
  785ACTN    H2 8311   7.101   8.826   5.015  0.3085  2.9330  0.6295
  785ACTN    H3 8312   7.159   8.868   5.179 -0.5340  1.9877 -1.3741
  786ACTN    H6 8313   0.776   8.266   7.372 -0.4686  0.2614 -1.0882
  786ACTN    C3 8314   0.781   8.165   7.412 -0.3898  0.5301 -0.4210
  786ACTN    H4 8315   0.772   8.094   7.329  3.2172 -0.8582  0.2325
  786ACTN    H5 8316   0.881   8.138   7.448 -0.9135 -2.2042 -0.8858
  786ACTN    C2 8317   0.673   8.140   7.511 -0.2508  0.2709  0.5577
  786ACTN    O1 8318   0.586   8.228   7.523  0.6194 -0.5018  0.4844
  786ACTN    C1 8319   0.665   8.014   7.587 -0.8594  0.3262  0.2866
  786ACTN    H1 8320   0.608   7.945   7.525 -0.6255  0.9998 -0.6887
  786ACTN    H2 8321   0.615   8.012   7.683 -0.5621 -0.6044  0.4275
  786ACTN    H3 8322   0.763   7.967   7.600 -0.8942  0.2742  0.3591
  787ACTN    H6 8323   2.124   2.947   8.424  0.1798 -2.2692 -0.1384
  787ACTN    C3 8324   2.230   2.964   8.441  0.1108 -1.2142 -0.6854
  787ACTN    H4 8325   2.292   2.931   8.358  2.2804  1.4528 -0.1949
  787ACTN    H5 8326   2.242   3.072   8.446 -1.9792 -0.9344 -1.3538
  787ACTN    C2 8327   2.281   2.906   8.570 -0.6360  0.6349 -0.4448
  787ACTN    O1 8328   2.383   2.958   8.622 -0.5395 -0.2467 -0.2677
  787ACTN    C1 8329   2.202   2.788   8.627 -0.8180  0.2120  0.7516
  787ACTN    H1 8330   2.138   2.741   8.553 -1.6858  1.6008  0.6023
  787ACTN    H2 8331   2.151   2.814   8.719 -4.5248  0.5140 -1.3181
  787ACTN    H3 8332   2.278   2.716   8.659  0.0505  1.1900  0.9180
  788ACTN    H6 8333   8.168   4.613   6.870  0.5816 -0.2386 -2.0659
  788ACTN    C3 8334   8.135   4.512   6.845 -0.3420 -0.4205 -0.1509
  788ACTN    H4 8335   8.073   4.476   6.928  0.0776 -0.4172  0.1648
  788ACTN    H5 8336   8.068   4.516   6.759 -2.4690 -0.6264  1.4621
  788ACTN    C2 8337   8.247   4.415   6.819  0.2369 -0.1270  0.2490
  788ACTN    O1 8338   8.276   4.366   6.712  0.4477 -0.2613  0.8628
  788ACTN    C1 8339   8.325   4.378   6.940 -0.9393  0.1097  1.2834
  788ACTN    H1 8340   8.255   4.391   7.023 -3.0177 -1.2720 -0.2030
  788ACTN    H2 8341   8.411   4.445   6.948 -0.5901 -0.4616  2.4631
  788ACTN    H3 8342   8.346   4.272   6.926 -3.2294 -0.1379 -0.7109
  789ACTN    H6 8343   1.736   7.901   8.396  0.4613 -0.6486 -1.5334
  789ACTN    C3 8344   1.792   7.828   8.455 -0.4261 -0.0415  0.1107
  789ACTN    H4 8345   1.729   7.749   8.494 -1.7452  0.3217 -1.2213
  789ACTN    H5 8346   1.866   7.784   8.388 -1.8295 -1.7956 -0.3147
  789ACTN    C2 8347   1.856   7.895   8.569 -0.1732 -0.0791 -0.6086
  789ACTN    O1 8348   1.840   8.014   8.595 -0.2255 -0.2812  0.4825
  789ACTN    C1 8349   1.886   7.810   8.682 -0.2291 -0.3715  0.9792
  789ACTN    H1 8350   1.971   7.849   8.739  0.6667  2.0130 -1.8895
  789ACTN    H2 8351   1.923   7.714   8.645  2.0865  1.0470 -0.4947
  789ACTN    H3 8352   1.800   7.803   8.749  0.2578 -2.1711  1.4715
  790ACTN    H6 8353   4.955   7.840   8.665  1.3782  3.6655  0.5630
  790ACTN    C3 8354   5.004   7.793   8.750 -0.2949 -0.1942 -0.5054
  790ACTN    H4 8355   4.984   7.869   8.826 -0.9500  0.1667 -1.0306
  790ACTN    H5 8356   4.948   7.705   8.783 -1.1337 -0.6575 -3.1056
  790ACTN    C2 8357   5.146   7.768   8.718  0.5112  0.1011  0.3270
  790ACTN    O1 8358   5.186   7.794   8.605  0.2987  0.0675 -0.3011
  790ACTN    C1 8359   5.231   7.728   8.828  0.4959 -0.5388  0.3268
  790ACTN    H1 8360   5.256   7.803   8.903 -0.6331  1.7212 -1.4812
  790ACTN    H2 8361   5.327   7.685   8.800  0.4466 -2.5182  3.0087
  790ACTN    H3 8362   5.184   7.645   8.881 -1.2783  2.0412  2.9651
  791ACTN    H6 8363   0.685   2.047   1.224  0.9297 -0.6030  0.0741
  791ACTN    C3 8364   0.735   2.123   1.164  1.0579 -0.5102  0.2963
  791ACTN    H4 8365   0.841   2.135   1.183  1.1668  0.4206 -0.8216
  791ACTN    H5 8366   0.729   2.109   1.056  0.3163  0.8564  0.1488
  791ACTN    C2 8367   0.681   2.260   1.190 -0.2669  0.6075 -0.3425
  791ACTN    O1 8368   0.615   2.280   1.290 -0.2792  0.1688  0.0582
  791ACTN    C1 8369   0.677   2.369   1.084  0.5038  0.3900  0.1973
  791ACTN    H1 8370   0.771   2.368   1.028  1.1562  1.0808  1.2843
  791ACTN    H2 8371   0.666   2.464   1.135 -3.5201  0.4356 -0.6276
  791ACTN    H3 8372   0.593   2.345   1.018 -1.8149  0.4304  3.0670
  792ACTN    H6 8373   5.143   0.003   8.623 -0.8359 -1.4992 -0.5248
  792ACTN    C3 8374   5.172  -0.047   8.715 -0.1399  0.3973  0.3222
  792ACTN    H4 8375   5.095  -0.122   8.734  1.2622 -1.4583 -1.1613
  792ACTN    H5 8376   5.173   0.024   8.798 -3.5284  1.4590 -0.4365
  792ACTN    C2 8377   5.308  -0.115   8.726  0.7301 -0.1092 -0.1418
  792ACTN    O1 8378   5.356  -0.200   8.651 -0.6342 -0.0478 -0.1880
  792ACTN    C1 8379   5.397  -0.082   8.847 -0.0838 -0.2817  0.5026
  792ACTN    H1 8380   5.470  -0.158   8.874  1.7525  2.1005  2.4598
  792ACTN    H2 8381   5.334  -0.053   8.931 -1.0732  0.8036 -0.5932
  792ACTN    H3 8382   5.455   0.005   8.816 -1.2072 -0.2179 -1.5038
  793ACTN    H6 8383   5.729   8.839   2.371 -0.7114  0.5646 -0.2509
  793ACTN    C3 8384   5.770   8.934   2.405  0.0465  0.1153  0.0926
  793ACTN    H4 8385   5.742   9.012   2.334  2.5170  1.5684  0.6729
  793ACTN    H5 8386   5.734   8.949   2.507  1.1107 -0.6300  0.5907
  793ACTN    C2 8387   5.921   8.936   2.406  0.4239 -0.2378 -0.3780
  793ACTN    O1 8388   5.984   8.930   2.305 -0.1953  0.0307  0.1654
  793ACTN    C1 8389   5.991   8.981   2.534  0.4168  0.0215 -0.1555
  793ACTN    H1 8390   5.945   9.071   2.576 -0.0411  1.4000 -3.4777
  793ACTN    H2 8391   6.091   9.015   2.505  0.8518 -1.2333 -0.1470
  793ACTN    H3 8392   5.997   8.900   2.607  1.2322 -0.7713 -1.0909
  794ACTN    H6 8393   7.539   1.854   6.480 -0.3750 -2.1783  1.8852
  794ACTN    C3 8394   7.646   1.866   6.494 -0.3254 -0.1095  0.1278
  794ACTN    H4 8395   7.664   1.957   6.551  0.4938  0.0373 -0.3612
  794ACTN    H5 8396   7.686   1.779   6.548 -0.7862 -0.1456  0.4135
  794ACTN    C2 8397   7.715   1.882   6.363  0.8076  1.3496  0.5895
  794ACTN    O1 8398   7.680   1.808   6.271 -0.1845  0.1864 -0.1972
  794ACTN    C1 8399   7.792   2.003   6.332 -0.2064 -0.0946  0.1668
  794ACTN    H1 8400   7.879   1.994   6.266 -0.8573  0.5247 -0.7672
  794ACTN    H2 8401   7.812   2.050   6.429  0.8872  0.3055 -0.2406
  794ACTN    H3 8402   7.727   2.076   6.286 -0.8012 -1.0336 -0.5104
  795ACTN    H6 8403   2.279   7.647   2.330 -0.4659  1.2813 -1.5032
  795ACTN    C3 8404   2.199   7.677   2.398 -0.2110 -0.4936 -0.3786
  795ACTN    H4 8405   2.240   7.699   2.497 -0.1485 -0.5757 -0.3855
  795ACTN    H5 8406   2.165   7.773   2.360  2.7588  1.8108  2.4033
  795ACTN    C2 8407   2.083   7.581   2.413  1.0849 -0.9395 -0.4323
  795ACTN    O1 8408   2.086   7.473   2.467  0.3587 -0.0364 -0.4347
  795ACTN    C1 8409   1.948   7.615   2.353 -0.3080 -0.0168 -0.3571
  795ACTN    H1 8410   1.947   7.576   2.251 -0.7009 -1.3120  0.1422
  795ACTN    H2 8411   1.931   7.722   2.341  0.9100  0.0791 -1.3870
  795ACTN    H3 8412   1.868   7.563   2.405  0.2805 -1.1539 -0.5698
  796ACTN    H6 8413   2.441   3.559   4.628 -0.2763 -0.3692  0.7390
  796ACTN    C3 8414   2.508   3.637   4.594 -0.0899 -0.3885  1.0620
  796ACTN    H4 8415   2.556   3.683   4.681 -0.3104  0.2489  0.8504
  796ACTN    H5 8416   2.580   3.585   4.531 -0.9764  0.0637 -0.3368
  796ACTN    C2 8417   2.433   3.736   4.505  0.1293  0.0562  0.0850
  796ACTN    O1 8418   2.314   3.755   4.534 -0.0946  0.1043 -0.1202
  796ACTN    C1 8419   2.505   3.808   4.392  0.7656 -0.0743  0.5589
  796ACTN    H1 8420   2.596   3.753   4.368  1.1995  0.6982  0.4389
  796ACTN    H2 8421   2.530   3.908   4.427 -2.9012  1.7872 -1.8369
  796ACTN    H3 8422   2.439   3.810   4.305  1.5254 -2.5923 -0.1253
  797ACTN    H6 8423   2.592   4.357   6.417 -2.9991 -1.1116 -0.5229
  797ACTN    C3 8424   2.628   4.255   6.427 -0.1618 -0.0326  0.5510
  797ACTN    H4 8425   2.736   4.264   6.443  0.0429 -0.7433 -0.3884
  797ACTN    H5 8426   2.585   4.208   6.516 -0.0162 -0.2504  0.5069
  797ACTN    C2 8427   2.594   4.178   6.306 -0.7445  0.3408  0.2832
  797ACTN    O1 8428   2.601   4.058   6.294 -0.0203  0.6170  0.5576
  797ACTN    C1 8429   2.539   4.251   6.192  0.7918 -0.0898 -0.1426
  797ACTN    H1 8430   2.432   4.233   6.179  0.6366  1.2174 -0.8064
  797ACTN    H2 8431   2.601   4.224   6.107  1.2100  0.8434 -0.1402
  797ACTN    H3 8432   2.552   4.359   6.201  1.2756 -0.0971 -0.7614
  798ACTN    H6 8433   2.647   4.843   1.597 -1.2720 -0.4400 -0.6638
  798ACTN    C3 8434   2.606   4.770   1.666  0.0372 -0.4053  0.1879
  798ACTN    H4 8435   2.570   4.687   1.604  0.0765 -1.8975  2.1183
  798ACTN    H5 8436   2.685   4.733   1.731  0.0744 -0.5951  0.0365
  798ACTN    C2 8437   2.495   4.837   1.729  0.2272  0.5741 -0.6233
  798ACTN    O1 8438   2.378   4.818   1.702  0.3435 -0.3381 -0.0799
  798ACTN    C1 8439   2.523   4.936   1.842 -0.4390  0.0323  0.0845
  798ACTN    H1 8440   2.583   4.885   1.918  0.6087 -0.6849 -1.2026
  798ACTN    H2 8441   2.438   4.977   1.896 -0.4747  0.8747 -0.6071
  798ACTN    H3 8442   2.578   5.019   1.799 -0.6899 -0.7005 -1.7073
  799ACTN    H6 8443   1.357   3.386   1.433 -0.2140 -1.1594  2.1816
  799ACTN    C3 8444   1.431   3.459   1.467  0.2826  0.0245 -1.1911
  799ACTN    H4 8445   1.377   3.540   1.516  1.3687 -0.1110  0.2419
  799ACTN    H5 8446   1.495   3.414   1.543 -1.8782 -0.8751  0.1409
  799ACTN    C2 8447   1.511   3.504   1.360 -0.1534 -0.2209 -0.4468
  799ACTN    O1 8448   1.631   3.516   1.377  0.4553 -0.3058  0.2370
  799ACTN    C1 8449   1.456   3.573   1.239  0.4265 -0.1147 -0.1970
  799ACTN    H1 8450   1.539   3.610   1.178 -0.1879 -0.1578 -1.0653
  799ACTN    H2 8451   1.389   3.654   1.266 -2.6424 -2.3036 -1.0233
  799ACTN    H3 8452   1.399   3.503   1.176 -2.0517 -0.0565  1.9284
  800ACTN    H6 8453   2.738   1.888   4.900 -2.0667 -0.6060 -0.5108
  800ACTN    C3 8454   2.767   1.783   4.897  0.3123  0.0052 -0.2494
  800ACTN    H4 8455   2.828   1.763   4.985  0.2287  1.3921  0.1409
  800ACTN    H5 8456   2.677   1.726   4.920  1.1206  0.3837  4.2537
  800ACTN    C2 8457   2.843   1.743   4.776  0.6198 -0.1646 -0.9127
  800ACTN    O1 8458   2.880   1.629   4.756 -0.2069  0.3135 -0.5602
  800ACTN    C1 8459   2.882   1.853   4.685  0.1357  0.1719 -0.1783
  800ACTN    H1 8460   2.785   1.888   4.650  0.5360  0.9897 -0.4810
  800ACTN    H2 8461   2.940   1.819   4.599 -0.6647 -3.1761  0.5318
  800ACTN    H3 8462   2.944   1.927   4.734  0.9097 -1.1905  0.9222
  801ACTN    H6 8463   5.233   8.269   2.771  0.5944  0.2776  0.3684
  801ACTN    C3 8464   5.282   8.245   2.677  0.1673  0.9102 -0.0103
  801ACTN    H4 8465   5.322   8.335   2.628  0.2190  1.6366  1.3437
  801ACTN    H5 8466   5.216   8.192   2.608  3.4340 -2.4517 -0.6620
  801ACTN    C2 8467   5.403   8.160   2.712 -0.0333 -0.0078  0.4081
  801ACTN    O1 8468   5.520   8.199   2.710  0.0741 -0.9397  0.2107
  801ACTN    C1 8469   5.371   8.023   2.762 -0.0271  0.4612  0.0526
  801ACTN    H1 8470   5.438   8.003   2.845  0.4128  0.3964 -0.3138
  801ACTN    H2 8471   5.385   7.950   2.682 -1.7532  0.4288 -0.2377
  801ACTN    H3 8472   5.271   8.019   2.805  0.4200 -1.0405  0.9993
  802ACTN    H6 8473   6.892   7.656   8.964  0.4389 -0.6570  2.6897
  802ACTN    C3 8474   6.786   7.682   8.966  0.4767 -0.1181 -0.1024
  802ACTN    H4 8475   6.784   7.787   8.940 -0.1426  0.1367  0.9453
  802ACTN    H5 8476   6.744   7.629   8.880  0.8888  0.3902 -0.6204
  802ACTN    C2 8477   6.718   7.640   9.095 -0.2772  0.2946  0.5991
  802ACTN    O1 8478   6.673   7.729   9.167 -0.8788 -0.7354 -0.1420
  802ACTN    C1 8479   6.723   7.501   9.136  0.2925 -0.1891 -0.5088
  802ACTN    H1 8480   6.731   7.439   9.047 -0.3288  0.4934 -1.0348
  802ACTN    H2 8481   6.638   7.471   9.197  1.0395 -0.4332  0.4265
  802ACTN    H3 8482   6.816   7.476   9.188 -0.1497 -1.2712 -0.2098
  803ACTN    H6 8483   0.186   0.257   1.659  0.8822  0.9150  1.7598
  803ACTN    C3 8484   0.111   0.262   1.738 -0.2758 -0.3329  0.7534
  803ACTN    H4 8485   0.104   0.361   1.783  1.2194 -0.5509  1.4984
  803ACTN    H5 8486   0.012   0.235   1.702  0.1207  0.9884 -1.4000
  803ACTN    C2 8487   0.144   0.157   1.844  0.7029 -0.4068 -0.0976
  803ACTN    O1 8488   0.132   0.033   1.833 -0.7710 -0.1709  0.4571
  803ACTN    C1 8489   0.200   0.204   1.979  0.9139 -0.3537 -0.1869
  803ACTN    H1 8490   0.203   0.313   1.981 -1.2213 -0.2312 -2.0618
  803ACTN    H2 8491   0.305   0.173   1.986  1.0767 -0.0366 -1.1132
  803ACTN    H3 8492   0.155   0.157   2.066  2.2294 -0.9702  0.1703
  804ACTN    H6 8493   7.810   4.872   3.424  1.0719 -0.5624 -0.0988
  804ACTN    C3 8494   7.890   4.831   3.485  0.4153 -0.9053  0.5338
  804ACTN    H4 8495   7.970   4.904   3.496  0.1805 -0.7105  0.9672
  804ACTN    H5 8496   7.836   4.801   3.576 -1.1882  2.0265  0.6002
  804ACTN    C2 8497   7.930   4.711   3.414  0.8990  0.7853  0.1509
  804ACTN    O1 8498   8.007   4.721   3.317 -0.4454  0.2287 -0.1515
  804ACTN    C1 8499   7.848   4.587   3.432  0.8996  0.2843 -0.2657
  804ACTN    H1 8500   7.867   4.535   3.526 -0.1831 -0.8402 -0.6629
  804ACTN    H2 8501   7.859   4.520   3.347  1.2925  0.6370 -0.4954
  804ACTN    H3 8502   7.744   4.621   3.427  0.6764 -0.5530 -1.4851
  805ACTN    H6 8503   8.502   0.233   2.888 -0.5877  1.0428  0.4774
  805ACTN    C3 8504   8.557   0.321   2.923  0.3013  0.4325  0.6325
  805ACTN    H4 8505   8.489   0.378   2.986  0.2511 -0.0062  0.9764
  805ACTN    H5 8506   8.589   0.381   2.838  3.3224 -1.0934  0.6234
  805ACTN    C2 8507   8.684   0.290   2.993  0.1815 -0.0893 -0.0443
  805ACTN    O1 8508   8.741   0.184   2.974 -0.3487 -0.1206  0.5381
  805ACTN    C1 8509   8.757   0.397   3.063  0.1012  0.7110  0.0385
  805ACTN    H1 8510   8.744   0.497   3.024 -2.6192 -0.1864 -1.5156
  805ACTN    H2 8511   8.865   0.384   3.067  0.2228  2.0205  2.0862
  805ACTN    H3 8512   8.734   0.390   3.170  1.4315 -3.3448  0.1809
  806ACTN    H6 8513   7.745   2.324   1.178 -1.6246 -0.2862  1.7792
  806ACTN    C3 8514   7.659   2.302   1.115 -0.4815 -0.1324  0.1216
  806ACTN    H4 8515   7.627   2.392   1.062 -0.8909 -0.6177 -0.4581
  806ACTN    H5 8516   7.689   2.233   1.037 -0.4595  1.0191 -0.9024
  806ACTN    C2 8517   7.545   2.267   1.191 -0.4563 -0.0252 -0.4979
  806ACTN    O1 8518   7.476   2.359   1.231  0.5151  0.1478 -0.8585
  806ACTN    C1 8519   7.495   2.126   1.189 -0.6367  0.1459  0.4606
  806ACTN    H1 8520   7.561   2.046   1.156  0.5659  0.4863  1.9851
  806ACTN    H2 8521   7.403   2.123   1.130  0.9144  0.1380 -2.0024
  806ACTN    H3 8522   7.461   2.098   1.289 -2.2939  0.2388 -0.0646
  807ACTN    H6 8523   5.227   6.468   7.382 -2.3267 -3.2384  0.5270
  807ACTN    C3 8524   5.229   6.494   7.487  0.5133 -0.3285 -0.1673
  807ACTN    H4 8525   5.179   6.591   7.500  0.1215 -0.6018  0.4103
  807ACTN    H5 8526   5.177   6.419   7.547  0.1744 -0.3563 -0.4963
  807ACTN    C2 8527   5.369   6.510   7.517 -0.0301 -0.9502  0.0693
  807ACTN    O1 8528   5.420   6.623   7.535 -0.6441  0.2081 -0.0199
  807ACTN    C1 8529   5.446   6.393   7.557  0.2973 -1.2912  0.1570
  807ACTN    H1 8530   5.410   6.344   7.648  0.2554  2.4888  2.2880
  807ACTN    H2 8531   5.547   6.426   7.581 -0.0376  0.1545 -0.3831
  807ACTN    H3 8532   5.453   6.323   7.474  1.6939 -1.3045  0.2751
  808ACTN    H6 8533   2.818   0.911   4.402 -0.7647 -2.5116  0.1963
  808ACTN    C3 8534   2.712   0.912   4.377 -0.7965  0.0423  0.3652
  808ACTN    H4 8535   2.665   1.005   4.410  1.2532  0.9519  0.8030
  808ACTN    H5 8536   2.707   0.917   4.269 -0.2930  1.2978  0.3939
  808ACTN    C2 8537   2.638   0.789   4.422 -0.3881  0.1873  0.3656
  808ACTN    O1 8538   2.650   0.754   4.539 -0.3540 -0.4589 -0.5841
  808ACTN    C1 8539   2.563   0.709   4.321 -0.4092  0.3329 -0.1194
  808ACTN    H1 8540   2.475   0.764   4.287 -0.8696 -0.7342 -0.7036
  808ACTN    H2 8541   2.532   0.619   4.375  2.0167 -1.7188 -1.9999
  808ACTN    H3 8542   2.628   0.680   4.239 -0.3195  0.7942 -0.2136
  809ACTN    H6 8543   7.968   0.090   0.204 -1.0384  2.0372 -1.0419
  809ACTN    C3 8544   7.982   0.159   0.288 -0.5792 -0.0954  0.6695
  809ACTN    H4 8545   7.883   0.183   0.327 -0.5749  0.5828  0.2731
  809ACTN    H5 8546   8.025   0.103   0.371  0.0591 -3.0653 -1.5509
  809ACTN    C2 8547   8.068   0.265   0.237  0.0256  0.0341  0.5763
  809ACTN    O1 8548   8.048   0.334   0.143 -0.5438 -0.1460  0.1632
  809ACTN    C1 8549   8.183   0.305   0.321 -0.3250  0.6292 -0.2910
  809ACTN    H1 8550   8.195   0.236   0.404  0.7694 -0.6594 -1.4966
  809ACTN    H2 8551   8.161   0.407   0.354  0.2029  0.7055 -0.1741
  809ACTN    H3 8552   8.274   0.305   0.260  0.1838 -0.1307  0.4746
  810ACTN    H6 8553   3.567   4.596   6.333  0.2700  1.0274  0.7850
  810ACTN    C3 8554   3.628   4.523   6.386 -0.5766 -0.2359  0.0581
  810ACTN    H4 8555   3.732   4.543   6.359 -0.9559 -0.0715 -1.3050
  810ACTN    H5 8556   3.624   4.545   6.493 -1.8910 -1.5850  0.3067
  810ACTN    C2 8557   3.592   4.388   6.342 -0.8256 -0.0883  0.3329
  810ACTN    O1 8558   3.658   4.294   6.379 -0.1215 -0.2817 -0.1724
  810ACTN    C1 8559   3.450   4.374   6.289  0.1852 -0.4997 -0.2608
  810ACTN    H1 8560   3.387   4.407   6.372 -0.4060 -0.4524 -0.7274
  810ACTN    H2 8561   3.421   4.271   6.270  1.3828 -0.8602 -0.2026
  810ACTN    H3 8562   3.438   4.435   6.200  1.4523  1.7500  1.0507
  811ACTN    H6 8563   8.033   2.116   6.741 -1.8190 -1.5870 -1.7558
  811ACTN    C3 8564   7.963   2.182   6.792  0.4187 -0.1420 -0.4903
  811ACTN    H4 8565   7.996   2.179   6.896  2.3034 -1.6486 -1.1200
  811ACTN    H5 8566   7.981   2.282   6.752  0.4394  0.3463  0.7185
  811ACTN    C2 8567   7.815   2.152   6.783 -0.1455  0.0392 -0.5767
  811ACTN    O1 8568   7.771   2.039   6.760 -0.0743  1.2037 -0.1509
  811ACTN    C1 8569   7.723   2.259   6.800  0.2009 -0.6580  0.0654
  811ACTN    H1 8570   7.685   2.263   6.902  0.4525 -0.2627  0.1447
  811ACTN    H2 8571   7.641   2.256   6.729 -0.0306  0.9817  0.2596
  811ACTN    H3 8572   7.771   2.355   6.787 -1.6020  0.4061  1.0314
  812ACTN    H6 8573   2.244   8.184   5.326  0.5831  1.8978 -0.9962
  812ACTN    C3 8574   2.271   8.242   5.414 -0.4751  0.4461  0.2983
  812ACTN    H4 8575   2.269   8.175   5.500  3.2265  0.5481  0.5497
  812ACTN    H5 8576   2.374   8.274   5.402 -0.1961 -0.2358  0.7949
  812ACTN    C2 8577   2.176   8.356   5.422  0.2937 -0.5084 -0.4222
  812ACTN    O1 8578   2.162   8.420   5.320  0.4078 -0.5566  0.2720
  812ACTN    C1 8579   2.101   8.372   5.549 -1.1093 -0.1160  0.0833
  812ACTN    H1 8580   2.170   8.332   5.623  0.0939  0.4035 -0.7420
  812ACTN    H2 8581   2.013   8.308   5.549 -1.6981  0.6803 -0.7008
  812ACTN    H3 8582   2.068   8.475   5.563  0.3773  0.2330  1.0190
  813ACTN    H6 8583   4.306   3.708   3.664  3.0701  1.0757 -2.0796
  813ACTN    C3 8584   4.268   3.809   3.681  0.5660 -0.1502  0.0768
  813ACTN    H4 8585   4.168   3.815   3.724  0.6974  0.0346  0.3633
  813ACTN    H5 8586   4.341   3.852   3.751  1.3007 -1.2332 -0.0188
  813ACTN    C2 8587   4.291   3.883   3.553 -0.6140  0.3167 -0.2402
  813ACTN    O1 8588   4.317   4.003   3.549 -0.1647  0.3019  0.1736
  813ACTN    C1 8589   4.223   3.816   3.435  0.0265 -0.2255  0.2151
  813ACTN    H1 8590   4.119   3.793   3.460 -1.6172  1.8671 -4.0750
  813ACTN    H2 8591   4.269   3.723   3.402  0.5001  0.1573 -0.2207
  813ACTN    H3 8592   4.222   3.890   3.354  1.6025  0.6142  0.9334
  814ACTN    H6 8593   0.135   2.927   8.328 -1.6443 -0.9547 -0.2058
  814ACTN    C3 8594   0.124   2.894   8.431 -0.2631 -0.3645  0.1386
  814ACTN    H4 8595   0.101   2.788   8.423  0.4161 -0.4583 -0.6088
  814ACTN    H5 8596   0.222   2.903   8.478 -1.4351 -1.0344  2.8350
  814ACTN    C2 8597   0.021   2.978   8.494  0.1028  0.0264  0.6206
  814ACTN    O1 8598   0.038   3.100   8.501 -0.9118  0.1585 -0.2527
  814ACTN    C1 8599  -0.093   2.919   8.565  0.2635 -0.3416  0.0138
  814ACTN    H1 8600  -0.073   2.932   8.671  0.8347  2.6745 -0.4234
  814ACTN    H2 8601  -0.090   2.811   8.548 -0.7019 -0.4649  0.5453
  814ACTN    H3 8602  -0.190   2.966   8.548  0.4355 -0.3796 -1.1367
  815ACTN    H6 8603   3.082   1.050   3.186  0.2301  0.5267  0.3161
  815ACTN    C3 8604   3.081   1.087   3.289 -0.5120  0.5099  0.3198
  815ACTN    H4 8605   3.003   1.162   3.295 -0.0148  1.0436  0.0796
  815ACTN    H5 8606   3.058   1.007   3.359 -0.5520  0.1823 -0.0617
  815ACTN    C2 8607   3.214   1.141   3.318 -1.1256 -0.2606  0.3610
  815ACTN    O1 8608   3.285   1.096   3.407  0.1219 -1.2322 -0.5714
  815ACTN    C1 8609   3.252   1.252   3.229 -0.0061  0.1849  0.3442
  815ACTN    H1 8610   3.248   1.346   3.285  3.3473  2.0527 -2.3880
  815ACTN    H2 8611   3.178   1.254   3.149  0.6796 -0.3303 -0.3073
  815ACTN    H3 8612   3.349   1.239   3.181 -0.1492 -2.7114  0.7680
  816ACTN    H6 8613   0.893   8.981   3.066 -0.5189  0.7296 -0.1896
  816ACTN    C3 8614   0.791   8.991   3.031 -0.7549  0.1284  0.3243
  816ACTN    H4 8615   0.799   9.005   2.923  1.9771  2.5533  0.7999
  816ACTN    H5 8616   0.743   8.895   3.056  4.0257 -2.8506 -1.3350
  816ACTN    C2 8617   0.722   9.110   3.096  0.1758 -0.1006  0.2710
  816ACTN    O1 8618   0.750   9.137   3.210 -0.6063 -0.3495  0.2289
  816ACTN    C1 8619   0.597   9.154   3.036  1.2666 -0.1600 -0.1132
  816ACTN    H1 8620   0.548   9.071   2.986  0.7442  0.3344 -0.4323
  816ACTN    H2 8621   0.609   9.229   2.957 -0.6781  0.6052  0.2988
  816ACTN    H3 8622   0.525   9.198   3.105  0.9017  1.0260 -1.2209
  817ACTN    H6 8623   6.474   0.128   6.101  1.0243  1.7922 -0.3021
  817ACTN    C3 8624   6.560   0.074   6.062 -0.1015 -0.0639 -0.2863
  817ACTN    H4 8625   6.570  -0.025   6.104 -0.3293 -0.0207 -0.1311
  817ACTN    H5 8626   6.548   0.058   5.955 -1.1221  0.5266 -0.2719
  817ACTN    C2 8627   6.679   0.172   6.084  0.6131  0.0459  0.3288
  817ACTN    O1 8628   6.702   0.260   6.003  0.9912 -0.7836 -0.1167
  817ACTN    C1 8629   6.753   0.175   6.209 -0.2191 -0.0239  0.1672
  817ACTN    H1 8630   6.839   0.242   6.201 -0.2057 -0.1124 -0.4595
  817ACTN    H2 8631   6.808   0.082   6.223  1.0704  0.4815 -1.4374
  817ACTN    H3 8632   6.693   0.202   6.296  1.7936 -0.7737  1.8332
  818ACTN    H6 8633   3.303   2.841   1.015  0.9560  0.4634  0.0509
  818ACTN    C3 8634   3.282   2.820   1.120  0.1819  0.0215 -0.1946
  818ACTN    H4 8635   3.377   2.844   1.166 -0.3400  1.8394 -0.0406
  818ACTN    H5 8636   3.256   2.714   1.129  0.9293 -0.2308 -0.9029
  818ACTN    C2 8637   3.171   2.906   1.168  0.2153 -0.2103 -0.2547
  818ACTN    O1 8638   3.208   3.021   1.191  0.5416 -0.4063 -0.4310
  818ACTN    C1 8639   3.027   2.872   1.138 -0.1016  0.2825  0.0695
  818ACTN    H1 8640   3.006   2.784   1.077  0.2322  0.1973  0.0758
  818ACTN    H2 8641   2.968   2.953   1.094  0.4199 -0.1346 -1.4404
  818ACTN    H3 8642   2.981   2.844   1.232 -1.4802  1.2531 -0.2974
  819ACTN    H6 8643   7.515   5.572   1.295 -2.7821  1.6234 -0.6982
  819ACTN    C3 8644   7.471   5.474   1.275  0.7790 -0.1283 -0.2476
  819ACTN    H4 8645   7.417   5.439   1.363  0.4348 -0.7546 -0.7050
  819ACTN    H5 8646   7.405   5.478   1.188 -0.5619 -0.9663  0.7139
  819ACTN    C2 8647   7.575   5.373   1.236 -0.3437  0.1763 -0.3021
  819ACTN    O1 8648   7.625   5.301   1.322  0.0010  0.3558 -0.3708
  819ACTN    C1 8649   7.636   5.393   1.103 -0.1671 -0.4807 -0.1080
  819ACTN    H1 8650   7.563   5.388   1.022  0.0302  1.1029 -0.4073
  819ACTN    H2 8651   7.718   5.323   1.090 -0.6112 -0.9825 -0.2336
  819ACTN    H3 8652   7.674   5.495   1.103  1.9156 -1.2438 -0.8737
  820ACTN    H6 8653   3.073   0.264   3.722 -1.2486 -0.8664 -0.3390
  820ACTN    C3 8654   3.104   0.320   3.635 -0.2548 -0.0028  0.5653
  820ACTN    H4 8655   3.057   0.279   3.546  0.8251  0.1071 -0.0614
  820ACTN    H5 8656   3.077   0.426   3.643  1.0856  0.6970 -2.9875
  820ACTN    C2 8657   3.253   0.309   3.619 -0.5920 -0.1013  0.0788
  820ACTN    O1 8658   3.316   0.398   3.569 -0.1120 -0.2056  0.6275
  820ACTN    C1 8659   3.305   0.174   3.616 -0.3992  0.1894  0.4493
  820ACTN    H1 8660   3.343   0.160   3.515 -0.5231  1.5150  0.2141
  820ACTN    H2 8661   3.231   0.094   3.623  1.0248 -0.9111  4.7410
  820ACTN    H3 8662   3.398   0.160   3.671  0.4918  1.3344 -0.7376
  821ACTN    H6 8663   8.213   6.804   4.259 -0.4883 -0.1403 -0.3674
  821ACTN    C3 8664   8.260   6.902   4.254 -0.1661 -0.2781 -0.0896
  821ACTN    H4 8665   8.205   6.973   4.317 -1.4773 -0.2359 -1.2449
  821ACTN    H5 8666   8.364   6.890   4.284  0.1141 -0.9200 -1.3126
  821ACTN    C2 8667   8.242   6.947   4.106 -0.1909 -0.7251 -0.0329
  821ACTN    O1 8668   8.153   7.021   4.075  0.3272 -0.4038  0.8979
  821ACTN    C1 8669   8.323   6.880   4.000  0.3833  0.4971 -0.3685
  821ACTN    H1 8670   8.260   6.854   3.915 -1.2681 -2.4517  1.6643
  821ACTN    H2 8671   8.360   6.786   4.042  1.0528  0.9925  0.1607
  821ACTN    H3 8672   8.411   6.934   3.967  1.2806 -0.1230  0.9533
  822ACTN    H6 8673   3.691   8.895   4.633  0.6750  0.8514  2.0068
  822ACTN    C3 8674   3.702   8.996   4.593 -0.3456  0.1624 -0.1126
  822ACTN    H4 8675   3.794   9.002   4.535 -1.8373 -0.3249 -2.5806
  822ACTN    H5 8676   3.628   9.005   4.513  0.4183 -1.5593 -1.0469
  822ACTN    C2 8677   3.687   9.093   4.702  0.4546 -0.6673 -0.4277
  822ACTN    O1 8678   3.782   9.123   4.769 -0.1727 -0.4111 -0.7795
  822ACTN    C1 8679   3.569   9.178   4.701 -0.0064 -0.2397  0.1516
  822ACTN    H1 8680   3.607   9.280   4.708 -0.0652 -0.0988 -1.4426
  822ACTN    H2 8681   3.512   9.157   4.791  0.3180 -1.5862  0.0629
  822ACTN    H3 8682   3.505   9.167   4.613  0.0204  3.0006 -0.3150
  823ACTN    H6 8683   4.994   0.012   6.309 -1.0418  1.5770 -2.4508
  823ACTN    C3 8684   4.933   0.077   6.371  0.2385  0.6373 -0.1402
  823ACTN    H4 8685   4.832   0.058   6.334 -0.3314  2.2093  0.5843
  823ACTN    H5 8686   4.945   0.057   6.477  0.1751  0.6354 -0.1325
  823ACTN    C2 8687   4.975   0.219   6.334 -0.0628 -0.1560 -1.3567
  823ACTN    O1 8688   5.074   0.266   6.387  0.3962  0.3430 -0.5520
  823ACTN    C1 8689   4.909   0.286   6.208 -0.5799  0.2322  0.6726
  823ACTN    H1 8690   4.958   0.246   6.119  2.9654  3.0236  1.2326
  823ACTN    H2 8691   4.908   0.395   6.205 -2.7105  0.2725  1.4807
  823ACTN    H3 8692   4.803   0.263   6.195 -1.0118  3.0922 -1.3951
  824ACTN    H6 8693   3.116   1.167   3.760  1.3400  0.4218  0.0126
  824ACTN    C3 8694   3.096   1.229   3.848  0.1724  0.7797 -0.4988
  824ACTN    H4 8695   3.190   1.275   3.880  0.5608 -0.8264  0.7255
  824ACTN    H5 8696   3.027   1.310   3.823 -0.3391  0.9558  1.4451
  824ACTN    C2 8697   3.030   1.150   3.958 -0.4319  0.7464 -0.1729
  824ACTN    O1 8698   2.970   1.048   3.920 -0.5185 -0.1696 -0.3444
  824ACTN    C1 8699   3.088   1.159   4.094 -0.0612 -0.8173 -0.5048
  824ACTN    H1 8700   3.093   1.063   4.146 -2.9073 -0.6312  0.1594
  824ACTN    H2 8701   3.035   1.236   4.149 -0.1705 -1.6078  0.5263
  824ACTN    H3 8702   3.189   1.201   4.092  0.3823 -1.8432 -0.4488
  825ACTN    H6 8703   2.761   0.739   2.978 -1.7448 -0.1817  0.3187
  825ACTN    C3 8704   2.760   0.718   2.871 -0.1646 -0.1945  0.3067
  825ACTN    H4 8705   2.805   0.621   2.850 -0.0339 -0.0930  0.1181
  825ACTN    H5 8706   2.657   0.713   2.838  0.1183  0.8908 -0.7660
  825ACTN    C2 8707   2.842   0.817   2.795 -0.4430 -0.6827  0.7026
  825ACTN    O1 8708   2.937   0.880   2.843 -0.2117 -0.2542  0.1338
  825ACTN    C1 8709   2.820   0.835   2.642  0.3083 -0.1401  0.3343
  825ACTN    H1 8710   2.822   0.746   2.578 -1.6731  0.8610 -1.1581
  825ACTN    H2 8711   2.866   0.922   2.595  3.7506 -0.1648  3.3834
  825ACTN    H3 8712   2.716   0.867   2.639  0.8980  1.9775  1.4001
  826ACTN    H6 8713   0.370   0.080   7.818 -2.2684  0.9432 -0.1396
  826ACTN    C3 8714   0.335  -0.017   7.853 -0.2445 -0.1482 -1.0212
  826ACTN    H4 8715   0.310  -0.086   7.772 -1.6630  0.3071 -0.9950
  826ACTN    H5 8716   0.420  -0.062   7.904 -1.4277 -1.9172 -0.5705
  826ACTN    C2 8717   0.217   0.015   7.941  0.1031 -0.2198  0.1441
  826ACTN    O1 8718   0.116  -0.050   7.937 -0.1012 -0.8484  0.1657
  826ACTN    C1 8719   0.242   0.118   8.053 -0.2269  0.5871  1.2699
  826ACTN    H1 8720   0.148   0.147   8.101 -0.4497  0.2521  1.0390
  826ACTN    H2 8721   0.295   0.207   8.019  3.2885 -2.2674 -1.0985
  826ACTN    H3 8722   0.300   0.071   8.132  0.0764 -1.0252  0.1195
  827ACTN    H6 8723   2.248   6.852   1.799 -4.3228 -0.4909 -0.9135
  827ACTN    C3 8724   2.243   6.960   1.780 -0.3025 -0.0846 -0.1284
  827ACTN    H4 8725   2.345   6.992   1.759 -0.7970  1.0906 -0.7512
  827ACTN    H5 8726   2.186   6.973   1.688  0.7899 -0.4990 -0.8652
  827ACTN    C2 8727   2.177   7.039   1.886  0.2166 -0.3084 -0.0080
  827ACTN    O1 8728   2.140   7.152   1.864 -0.0954 -0.5017  0.0970
  827ACTN    C1 8729   2.155   6.975   2.020  0.2411 -0.1924  0.3553
  827ACTN    H1 8730   2.092   6.887   2.012 -1.5255  1.1418 -1.0391
  827ACTN    H2 8731   2.119   7.050   2.090  1.2900 -1.2821  2.0774
  827ACTN    H3 8732   2.250   6.945   2.064 -0.0914 -0.9707  0.5375
  828ACTN    H6 8733   8.690   8.599   7.244 -0.2560  0.2446  2.0236
  828ACTN    C3 8734   8.784   8.571   7.291  0.4493 -0.6846  0.1303
  828ACTN    H4 8735   8.772   8.587   7.398 -1.4107  1.1221 -0.3227
  828ACTN    H5 8736   8.795   8.463   7.281 -0.0822 -1.1385  3.7383
  828ACTN    C2 8737   8.898   8.651   7.252  0.0362  0.7298 -0.4141
  828ACTN    O1 8738   9.004   8.590   7.240 -0.1200 -0.2286 -0.4848
  828ACTN    C1 8739   8.882   8.797   7.264  0.5098 -0.2321  0.7645
  828ACTN    H1 8740   8.779   8.829   7.280  0.9155  0.4963  2.0227
  828ACTN    H2 8741   8.923   8.853   7.179  0.5490  0.1163  1.0121
  828ACTN    H3 8742   8.942   8.835   7.347  2.5512  1.1185 -1.2486
  829ACTN    H6 8743   2.620   6.780   1.981  0.0900 -0.2906 -0.4944
  829ACTN    C3 8744   2.690   6.737   1.909  0.6652 -0.0226 -0.0986
  829ACTN    H4 8745   2.734   6.817   1.850  1.8363  0.6902  1.6867
  829ACTN    H5 8746   2.772   6.690   1.963  1.1840 -1.7229 -2.2892
  829ACTN    C2 8747   2.634   6.646   1.799  0.3174 -0.0660 -0.5519
  829ACTN    O1 8748   2.695   6.635   1.695 -0.4147 -0.0067 -0.3233
  829ACTN    C1 8749   2.496   6.593   1.817  0.5481 -0.2002 -0.2578
  829ACTN    H1 8750   2.427   6.678   1.815  0.8161  0.0729  1.4114
  829ACTN    H2 8751   2.475   6.542   1.910  0.6003  0.6141  0.2028
  829ACTN    H3 8752   2.469   6.524   1.737 -0.8551 -0.6157  0.5635
  830ACTN    H6 8753   3.388   4.362   4.971 -1.3978 -0.0618  1.1891
  830ACTN    C3 8754   3.304   4.416   4.926 -0.6624  0.1041 -0.0017
  830ACTN    H4 8755   3.218   4.396   4.991  0.8615 -0.7556  1.8096
  830ACTN    H5 8756   3.333   4.520   4.938  0.4928 -0.0984 -1.0035
  830ACTN    C2 8757   3.274   4.377   4.786  0.3048 -0.4869  0.4220
  830ACTN    O1 8758   3.182   4.298   4.765  0.1027 -0.0360  0.0338
  830ACTN    C1 8759   3.356   4.432   4.668  0.5343 -0.1178 -0.5468
  830ACTN    H1 8760   3.450   4.479   4.697  1.9253 -2.2510 -1.4806
  830ACTN    H2 8761   3.300   4.502   4.607  0.8187  0.3968 -0.2200
  830ACTN    H3 8762   3.390   4.355   4.598  0.1905  0.4918 -1.3943
  831ACTN    H6 8763   2.941   2.587   1.610 -1.3003 -1.4669  0.6509
  831ACTN    C3 8764   2.930   2.545   1.510  0.2730 -0.4571  0.0351
  831ACTN    H4 8765   2.909   2.438   1.514 -0.2618 -0.3399  0.3164
  831ACTN    H5 8766   2.842   2.594   1.470  1.2585 -0.0653 -1.6902
  831ACTN    C2 8767   3.050   2.570   1.427 -0.1759  0.2068 -0.0542
  831ACTN    O1 8768   3.095   2.682   1.409 -0.1152  0.6486  0.1356
  831ACTN    C1 8769   3.160   2.467   1.413 -0.0153  0.8597  0.1255
  831ACTN    H1 8770   3.177   2.437   1.310 -0.1495  1.2747 -0.0183
  831ACTN    H2 8771   3.124   2.378   1.465 -2.0172  2.3893  1.4246
  831ACTN    H3 8772   3.253   2.505   1.455  0.2430 -1.4514  1.7525
  832ACTN    H6 8773   0.548   6.010   8.606  2.6794 -0.8558 -0.6464
  832ACTN    C3 8774   0.495   5.923   8.565  0.6036 -0.0366  0.2057
  832ACTN    H4 8775   0.574   5.858   8.528 -0.6340 -0.6905 -1.3201
  832ACTN    H5 8776   0.438   5.870   8.642  1.0609 -1.2918 -0.3098
  832ACTN    C2 8777   0.406   5.971   8.452 -0.3608  0.0964  0.2136
  832ACTN    O1 8778   0.362   5.886   8.379  0.6272  0.2754  0.6277
  832ACTN    C1 8779   0.387   6.115   8.426  0.2193 -0.3619 -0.3042
  832ACTN    H1 8780   0.465   6.158   8.364  1.0898 -0.6999  0.5318
  832ACTN    H2 8781   0.381   6.168   8.522 -1.5993 -1.2896  0.1061
  832ACTN    H3 8782   0.292   6.132   8.376 -1.0932  0.2377  2.3127
  833ACTN    H6 8783   8.576   7.336   6.575 -1.3111  0.2972 -0.2132
  833ACTN    C3 8784   8.538   7.305   6.478 -0.0746 -0.5671 -0.4400
  833ACTN    H4 8785   8.602   7.320   6.391 -1.3561  1.5612 -1.0643
  833ACTN    H5 8786   8.533   7.197   6.488 -1.9182 -0.7150 -2.5216
  833ACTN    C2 8787   8.409   7.375   6.453  0.6050 -0.3268 -0.3247
  833ACTN    O1 8788   8.303   7.311   6.462 -0.6241  0.8896 -0.3014
  833ACTN    C1 8789   8.404   7.524   6.435 -0.5721  0.6651  0.0648
  833ACTN    H1 8790   8.397   7.588   6.523  0.6724  0.6123  0.2156
  833ACTN    H2 8791   8.322   7.536   6.365 -2.3496 -2.6934  1.4790
  833ACTN    H3 8792   8.496   7.559   6.387  1.0978 -0.7204  2.1302
  834ACTN    H6 8793   5.784   6.217   2.785 -0.2363 -1.0208 -0.7753
  834ACTN    C3 8794   5.886   6.254   2.787 -0.6322  0.0493  0.1526
  834ACTN    H4 8795   5.939   6.167   2.825 -0.7924  0.0696  0.4193
  834ACTN    H5 8796   5.933   6.272   2.690 -2.8760  0.3972 -0.9038
  834ACTN    C2 8797   5.897   6.372   2.884 -0.1281  0.8813  0.0143
  834ACTN    O1 8798   6.009   6.414   2.905 -0.7522 -0.1724 -0.5887
  834ACTN    C1 8799   5.766   6.434   2.937 -0.4658 -0.1984 -0.2685
  834ACTN    H1 8800   5.745   6.519   2.873  2.8102  0.9940  0.1288
  834ACTN    H2 8801   5.775   6.465   3.041  0.4266 -0.5458 -0.2350
  834ACTN    H3 8802   5.687   6.359   2.934 -0.1443 -0.5749  0.3710
  835ACTN    H6 8803   4.883   1.917   6.685 -0.3467 -0.7091 -1.2305
  835ACTN    C3 8804   4.941   1.952   6.599  0.2427 -0.5483 -0.7687
  835ACTN    H4 8805   4.880   2.028   6.550  0.6423  0.2739 -0.0192
  835ACTN    H5 8806   5.026   2.004   6.645 -2.0428  2.4626  0.2680
  835ACTN    C2 8807   4.971   1.828   6.508 -0.1566  0.1845  0.2815
  835ACTN    O1 8808   5.036   1.854   6.409  0.2025  0.2194  0.0783
  835ACTN    C1 8809   4.878   1.712   6.503  0.2912  0.0946 -0.7380
  835ACTN    H1 8810   4.837   1.716   6.402 -0.8216  0.9056 -0.2625
  835ACTN    H2 8811   4.796   1.723   6.574 -0.4795 -0.7493 -1.4896
  835ACTN    H3 8812   4.926   1.616   6.521  1.2333  0.7267  0.1963
  836ACTN    H6 8813   2.252   0.963   5.065 -0.6636 -0.8320  1.9203
  836ACTN    C3 8814   2.276   0.880   4.999 -0.2866  1.1556 -0.5071
  836ACTN    H4 8815   2.312   0.922   4.905  0.4734  2.4252  0.3352
  836ACTN    H5 8816   2.358   0.822   5.041 -0.1789 -0.0158 -2.2424
  836ACTN    C2 8817   2.177   0.769   4.988  0.0895  0.8933 -0.1726
  836ACTN    O1 8818   2.110   0.756   4.887  0.3105  0.3497  0.5071
  836ACTN    C1 8819   2.149   0.694   5.120  0.2113 -0.2571  0.0792
  836ACTN    H1 8820   2.115   0.764   5.197 -0.6862 -0.8829  0.2590
  836ACTN    H2 8821   2.242   0.652   5.158  0.3695  1.3971  1.6130
  836ACTN    H3 8822   2.078   0.613   5.105 -3.6161  2.8369  0.5920
  837ACTN    H6 8823   1.746   3.428   7.017  0.3300 -1.0296 -0.0758
  837ACTN    C3 8824   1.638   3.417   7.013  0.2562 -0.4412  0.2837
  837ACTN    H4 8825   1.616   3.319   7.054  0.5077 -0.5718  0.1044
  837ACTN    H5 8826   1.601   3.489   7.086 -1.5703 -1.6221  0.5496
  837ACTN    C2 8827   1.585   3.448   6.876  0.0977  0.1577  0.4008
  837ACTN    O1 8828   1.466   3.472   6.854  0.3515 -0.0036 -0.3448
  837ACTN    C1 8829   1.683   3.517   6.785 -0.1010  0.1883  0.1636
  837ACTN    H1 8830   1.772   3.454   6.790  0.0210  0.4337  1.3797
  837ACTN    H2 8831   1.713   3.620   6.809  1.0221  0.2003 -1.2231
  837ACTN    H3 8832   1.658   3.521   6.680 -0.9758  2.5593  0.4303
  838ACTN    H6 8833   8.369   7.353   4.611  0.9448 -1.2098 -0.4717
  838ACTN    C3 8834   8.476   7.352   4.635  0.8585  0.9678  0.0926
  838ACTN    H4 8835   8.521   7.271   4.578 -0.2966 -1.2966  2.3023
  838ACTN    H5 8836   8.524   7.441   4.593 -0.1989  1.4890 -0.0331
  838ACTN    C2 8837   8.493   7.336   4.774 -0.2331  0.0938  0.1503
  838ACTN    O1 8838   8.440   7.243   4.836  0.2327  0.8580  0.2523
  838ACTN    C1 8839   8.548   7.457   4.842  0.2586 -0.1659 -0.6905
  838ACTN    H1 8840   8.642   7.483   4.794  1.2777 -2.2627  0.0837
  838ACTN    H2 8841   8.563   7.429   4.946 -0.9920  0.4437 -0.3419
  838ACTN    H3 8842   8.486   7.546   4.844  0.1505 -0.2712  1.3627
  839ACTN    H6 8843   8.458   7.684   2.364 -0.5875  0.4325 -0.1608
  839ACTN    C3 8844   8.480   7.790   2.367  0.2368  0.2555  0.2662
  839ACTN    H4 8845   8.393   7.847   2.333 -0.5799 -3.0155 -3.4546
  839ACTN    H5 8846   8.501   7.816   2.470 -0.2937  0.3059  0.3619
  839ACTN    C2 8847   8.616   7.823   2.294  0.1637 -0.6771 -0.2258
  839ACTN    O1 8848   8.712   7.742   2.307  0.3541 -0.2091 -1.0222
  839ACTN    C1 8849   8.622   7.927   2.187 -0.1683 -0.1437 -0.3361
  839ACTN    H1 8850   8.690   8.005   2.220  0.2158  0.7422 -3.0462
  839ACTN    H2 8851   8.519   7.963   2.175  0.4096  2.5338  2.3105
  839ACTN    H3 8852   8.642   7.889   2.087  0.7495  1.4329 -0.7614
  840ACTN    H6 8853   8.083   2.476   6.664  0.0953 -0.0652 -2.1226
  840ACTN    C3 8854   8.151   2.561   6.667 -0.4926  0.3599 -0.2721
  840ACTN    H4 8855   8.188   2.583   6.566 -0.8599  3.8368  0.2747
  840ACTN    H5 8856   8.095   2.650   6.698 -1.8000 -0.3656 -0.4815
  840ACTN    C2 8857   8.264   2.552   6.761 -0.3098 -0.2197  0.2091
  840ACTN    O1 8858   8.234   2.544   6.884  0.1623 -0.5132  0.4769
  840ACTN    C1 8859   8.413   2.547   6.737 -0.4231  0.4635  0.4858
  840ACTN    H1 8860   8.461   2.639   6.770  2.6207 -1.0411  0.4387
  840ACTN    H2 8861   8.435   2.533   6.632 -1.1760  2.4771  0.0346
  840ACTN    H3 8862   8.458   2.469   6.798  1.3984  0.0158 -1.3668
  841ACTN    H6 8863   3.892   3.968   2.552  0.5675  2.4868  0.3627
  841ACTN    C3 8864   3.908   3.979   2.659  0.1485 -0.1719  0.7462
  841ACTN    H4 8865   3.977   3.900   2.691 -0.3003 -1.0850 -0.5045
  841ACTN    H5 8866   3.945   4.081   2.667 -0.8226  0.1047  1.7527
  841ACTN    C2 8867   3.790   3.964   2.742 -0.7692  0.1142  0.0759
  841ACTN    O1 8868   3.776   4.035   2.839 -0.9432  0.0298 -0.2845
  841ACTN    C1 8869   3.681   3.870   2.699  0.0090 -0.3271 -0.1391
  841ACTN    H1 8870   3.709   3.830   2.602 -0.6208 -1.0178 -0.0413
  841ACTN    H2 8871   3.585   3.918   2.682  0.7906  1.3994  0.1913
  841ACTN    H3 8872   3.670   3.784   2.766  2.1427 -1.2769 -0.9811
  842ACTN    H6 8873   6.420   0.406   6.842  0.5946  1.8241  0.5822
  842ACTN    C3 8874   6.318   0.442   6.855 -0.1067 -0.1024  0.4806
  842ACTN    H4 8875   6.325   0.528   6.788  2.2359  0.2722  1.1837
  842ACTN    H5 8876   6.246   0.376   6.807  1.4705 -1.7826  0.3670
  842ACTN    C2 8877   6.278   0.486   6.988  1.2523 -0.1436  0.0329
  842ACTN    O1 8878   6.358   0.545   7.061 -0.1305  0.7844 -0.3423
  842ACTN    C1 8879   6.129   0.502   7.016  0.0461 -0.0793  0.1586
  842ACTN    H1 8880   6.118   0.566   7.104  1.2866  2.9011 -1.7860
  842ACTN    H2 8881   6.086   0.404   7.035 -0.1746 -0.0770 -0.3192
  842ACTN    H3 8882   6.081   0.555   6.933 -0.4120  0.7233  0.9217
  843ACTN    H6 8883   0.279   4.603   5.922  1.3540  0.7538 -1.1911
  843ACTN    C3 8884   0.191   4.665   5.906  0.4738 -0.2495 -0.3654
  843ACTN    H4 8885   0.130   4.618   5.829 -0.0279 -2.3152  1.2559
  843ACTN    H5 8886   0.141   4.679   6.002  0.7472 -3.2680  0.2636
  843ACTN    C2 8887   0.227   4.790   5.842  0.5420  0.5461 -0.3765
  843ACTN    O1 8888   0.191   4.894   5.886 -0.6513 -0.2918  0.1074
  843ACTN    C1 8889   0.317   4.773   5.719 -0.0209 -0.8227 -0.0147
  843ACTN    H1 8890   0.268   4.791   5.624  0.1564 -2.1910 -0.3689
  843ACTN    H2 8891   0.356   4.672   5.706 -1.6050 -1.3391 -0.8339
  843ACTN    H3 8892   0.404   4.838   5.727  1.9301 -3.5557  1.6242
  844ACTN    H6 8893   6.888   7.450   3.415 -1.5681  0.8371  0.0096
  844ACTN    C3 8894   6.948   7.497   3.493 -0.2688 -0.5174 -0.1326
  844ACTN    H4 8895   6.936   7.604   3.476 -0.8198 -0.7651 -1.3624
  844ACTN    H5 8896   6.904   7.467   3.588 -1.4862 -2.1355 -1.1830
  844ACTN    C2 8897   7.091   7.467   3.476  0.2252  0.1067 -0.0868
  844ACTN    O1 8898   7.134   7.429   3.368 -0.2895  0.0653  0.0794
  844ACTN    C1 8899   7.201   7.463   3.585  0.1325 -0.3403  0.1679
  844ACTN    H1 8900   7.217   7.362   3.622 -0.8810 -0.5680 -0.0002
  844ACTN    H2 8901   7.174   7.525   3.671  1.6485  1.1349 -0.3859
  844ACTN    H3 8902   7.298   7.495   3.547 -0.2123  1.0555  0.4206
  845ACTN    H6 8903   8.249   3.057   5.738  0.1335  2.4323  0.7627
  845ACTN    C3 8904   8.324   3.001   5.793 -0.3312  0.6651 -0.3496
  845ACTN    H4 8905   8.416   3.044   5.753 -0.9356  0.1155 -2.3954
  845ACTN    H5 8906   8.310   3.024   5.899 -1.2057 -0.7461 -0.1459
  845ACTN    C2 8907   8.308   2.852   5.755 -0.3379 -0.3094 -0.7190
  845ACTN    O1 8908   8.362   2.804   5.655 -0.3166 -0.4992  0.4558
  845ACTN    C1 8909   8.203   2.780   5.825 -0.3636 -0.6886 -0.1467
  845ACTN    H1 8910   8.227   2.675   5.842 -1.0842 -0.7969  0.2288
  845ACTN    H2 8911   8.109   2.790   5.770 -1.0956  2.3969  1.5779
  845ACTN    H3 8912   8.180   2.829   5.920 -1.7743  0.5416 -1.1127
  846ACTN    H6 8913   8.928   1.194   8.568 -0.1784 -3.0084  0.7189
  846ACTN    C3 8914   8.938   1.152   8.468 -0.0579 -0.3787 -0.4166
  846ACTN    H4 8915   8.874   1.066   8.449 -0.1254 -0.9598  2.2973
  846ACTN    H5 8916   8.911   1.231   8.397 -0.9177  1.1376  1.5736
  846ACTN    C2 8917   9.085   1.117   8.440  0.1300 -0.8165  0.0700
  846ACTN    O1 8918   9.172   1.204   8.456 -0.0205 -0.1342 -0.2745
  846ACTN    C1 8919   9.119   0.990   8.376 -0.3266 -0.6060 -0.1914
  846ACTN    H1 8920   9.039   0.948   8.315 -2.0737  1.3987  0.6569
  846ACTN    H2 8921   9.131   0.911   8.451  0.6882 -0.7553 -0.5063
  846ACTN    H3 8922   9.212   0.993   8.320  1.8822 -0.3450  3.3052
  847ACTN    H6 8923   3.323   0.461   5.097 -4.2410 -0.8090  0.2126
  847ACTN    C3 8924   3.306   0.551   5.039  0.3031 -0.2956 -0.5163
  847ACTN    H4 8925   3.237   0.532   4.956  1.4789 -1.3673 -1.2797
  847ACTN    H5 8926   3.256   0.623   5.103  0.2139 -0.4073 -0.4591
  847ACTN    C2 8927   3.431   0.601   4.979 -0.1852 -0.0686 -0.1032
  847ACTN    O1 8928   3.494   0.533   4.899 -0.6065 -0.5190  0.2407
  847ACTN    C1 8929   3.487   0.731   5.024  0.7556  0.5184  0.0596
  847ACTN    H1 8930   3.419   0.809   4.993 -0.7486 -0.4873  0.7500
  847ACTN    H2 8931   3.590   0.747   4.993  0.9185  0.6431  0.6575
  847ACTN    H3 8932   3.483   0.734   5.133 -1.5104  0.6891 -0.0176
  848ACTN    H6 8933   8.232   3.395   1.211  0.7142 -1.4883  0.7968
  848ACTN    C3 8934   8.289   3.471   1.264 -0.2224  0.4269 -0.8699
  848ACTN    H4 8935   8.250   3.515   1.356  2.9266 -2.6361  2.0946
  848ACTN    H5 8936   8.382   3.423   1.294 -0.2302  0.2538 -1.1321
  848ACTN    C2 8937   8.341   3.581   1.174 -0.1620  0.3048 -0.2451
  848ACTN    O1 8938   8.301   3.693   1.181  0.6121 -1.0270 -0.3858
  848ACTN    C1 8939   8.449   3.535   1.083 -0.2369 -0.0837 -0.5961
  848ACTN    H1 8940   8.542   3.592   1.087  0.2172 -0.8876  0.6125
  848ACTN    H2 8941   8.407   3.550   0.984 -1.1729 -1.3437 -0.4106
  848ACTN    H3 8942   8.481   3.432   1.098 -2.5713 -0.5805  1.3652
  849ACTN    H6 8943   8.487   1.591   8.516  1.6103 -0.8599 -1.6561
  849ACTN    C3 8944   8.549   1.547   8.594 -0.4270 -0.1006  0.4554
  849ACTN    H4 8945   8.489   1.531   8.683 -3.3285 -1.2148 -1.6025
  849ACTN    H5 8946   8.571   1.447   8.555 -1.2296  0.4925 -1.6028
  849ACTN    C2 8947   8.682   1.619   8.613 -0.0272 -0.6903  0.2838
  849ACTN    O1 8948   8.701   1.671   8.715 -0.1392 -0.0219 -0.6122
  849ACTN    C1 8949   8.774   1.631   8.491 -0.1984  0.0726  0.2861
  849ACTN    H1 8950   8.716   1.674   8.409  1.1793  0.1102 -0.6884
  849ACTN    H2 8951   8.815   1.535   8.460  0.9527  0.8872 -0.7615
  849ACTN    H3 8952   8.862   1.693   8.509  0.7587 -1.3556  0.5246
  850ACTN    H6 8953   8.905   0.859   3.063 -0.6288  1.3649 -0.4822
  850ACTN    C3 8954   8.998   0.900   3.024  0.0119 -0.2135 -0.6264
  850ACTN    H4 8955   9.075   0.825   3.043  0.3235 -0.0890 -1.3564
  850ACTN    H5 8956   9.026   0.989   3.080 -0.9566 -0.8882  0.9488
  850ACTN    C2 8957   8.980   0.929   2.882 -1.1136 -0.3071  0.2285
  850ACTN    O1 8958   8.890   0.880   2.823 -0.0006 -0.8091  0.0600
  850ACTN    C1 8959   9.096   0.988   2.816  0.1051 -0.1425  0.3437
  850ACTN    H1 8960   9.150   1.042   2.894  2.6662 -2.7365  0.4401
  850ACTN    H2 8961   9.069   1.054   2.734  0.3479  0.4092  0.7053
  850ACTN    H3 8962   9.165   0.913   2.778  0.8381 -0.4090  2.1651
  851ACTN    H6 8963   6.707   4.880   1.033 -0.6325 -1.3409  0.3236
  851ACTN    C3 8964   6.660   4.894   1.130  0.3054  0.3126  0.5650
  851ACTN    H4 8965   6.588   4.818   1.158  0.1513  0.0928 -0.4297
  851ACTN    H5 8966   6.737   4.906   1.206  0.4913 -0.4622  0.5002
  851ACTN    C2 8967   6.593   5.022   1.128 -0.2544 -0.2242 -0.5678
  851ACTN    O1 8968   6.471   5.025   1.155  0.4918 -0.5950 -0.3028
  851ACTN    C1 8969   6.672   5.147   1.086  0.2239 -0.3663  0.1305
  851ACTN    H1 8970   6.617   5.212   1.018  1.5025  1.8493  1.1277
  851ACTN    H2 8971   6.767   5.113   1.044  0.8591  0.1534  1.1201
  851ACTN    H3 8972   6.690   5.207   1.175 -1.1049 -0.6048  0.5585
  852ACTN    H6 8973   2.267   5.096   2.280 -0.6695 -2.8073  1.0774
  852ACTN    C3 8974   2.373   5.107   2.307 -0.5569  0.4437 -0.3928
  852ACTN    H4 8975   2.424   5.156   2.225 -2.4324  1.6734 -0.8641
  852ACTN    H5 8976   2.379   5.163   2.400  2.0884  1.0465 -0.9131
  852ACTN    C2 8977   2.435   4.972   2.329 -0.0830  0.7788 -0.3325
  852ACTN    O1 8978   2.485   4.946   2.441  0.3432  0.1871 -0.1160
  852ACTN    C1 8979   2.461   4.884   2.204  0.0506 -0.5713 -0.6785
  852ACTN    H1 8980   2.491   4.783   2.234 -1.5836 -0.8448  0.1024
  852ACTN    H2 8981   2.538   4.927   2.140 -0.6085  2.0228  0.2152
  852ACTN    H3 8982   2.365   4.884   2.151 -1.6086  0.5147  2.2423
  853ACTN    H6 8983   5.035   4.561   1.721 -0.0212  0.0008 -1.5753
  853ACTN    C3 8984   4.941   4.512   1.745  0.3303 -0.1193 -0.3945
  853ACTN    H4 8985   4.874   4.585   1.790  1.4189  1.6848 -1.5908
  853ACTN    H5 8986   4.892   4.485   1.651  0.0786 -0.6802 -0.1029
  853ACTN    C2 8987   4.944   4.393   1.837 -0.4624 -0.0155  0.0596
  853ACTN    O1 8988   4.987   4.401   1.950  0.8645 -0.2146 -0.0099
  853ACTN    C1 8989   4.883   4.274   1.780  0.3991 -0.1956  0.1166
  853ACTN    H1 8990   4.940   4.246   1.691 -3.1464 -2.9361 -1.4232
  853ACTN    H2 8991   4.781   4.300   1.752  1.0512  1.0070 -1.2063
  853ACTN    H3 8992   4.877   4.190   1.850  1.5376 -0.8902 -0.5911
  854ACTN    H6 8993   8.852   5.270   4.817  3.2620 -1.4815  1.2362
  854ACTN    C3 8994   8.853   5.356   4.885  0.3297  0.0132 -0.4961
  854ACTN    H4 8995   8.878   5.447   4.831 -3.0928  2.1172  1.3466
  854ACTN    H5 8996   8.753   5.371   4.926  0.4980 -2.3397  0.8822
  854ACTN    C2 8997   8.941   5.338   5.001 -0.3671  0.3902  0.2670
  854ACTN    O1 8998   8.928   5.400   5.103 -0.1961 -0.8887 -0.1787
  854ACTN    C1 8999   9.040   5.227   4.996 -0.0741 -0.3878 -0.7908
  854ACTN    H1 9000   9.047   5.179   4.898 -0.7812 -2.8233  0.3218
  854ACTN    H2 9001   8.990   5.149   5.053  0.7528 -0.5389 -0.2716
  854ACTN    H3 9002   9.136   5.247   5.043 -0.3737  1.2632 -0.8554
  855ACTN    H6 9003   7.876   0.330   3.861  0.5053  2.1801  0.5124
  855ACTN    C3 9004   7.871   0.306   3.968 -0.2669  0.8589  0.1880
  855ACTN    H4 9005   7.836   0.206   3.993  0.6264  0.7242  0.9170
  855ACTN    H5 9006   7.972   0.305   4.008 -1.4655  0.2426  3.2981
  855ACTN    C2 9007   7.797   0.422   4.041 -0.2067  0.1024  0.4994
  855ACTN    O1 9008   7.700   0.391   4.110 -0.0202 -0.4846  0.0873
  855ACTN    C1 9009   7.828   0.569   4.006  0.0523  0.6067 -0.4139
  855ACTN    H1 9010   7.740   0.620   3.967 -0.3815  0.3990  0.2800
  855ACTN    H2 9011   7.898   0.554   3.924  1.7175 -0.6175  1.2078
  855ACTN    H3 9012   7.875   0.621   4.089 -1.6028  0.9522  0.3194
  856ACTN    H6 9013   3.811   6.481   3.383 -2.2674 -0.1044  2.3277
  856ACTN    C3 9014   3.747   6.487   3.294  0.0441 -0.2066  0.6242
  856ACTN    H4 9015   3.674   6.409   3.314  0.2964 -0.8016 -0.7240
  856ACTN    H5 9016   3.693   6.582   3.288 -2.4074 -1.6136 -0.2066
  856ACTN    C2 9017   3.820   6.454   3.166 -0.2809 -0.3439  0.3370
  856ACTN    O1 9018   3.889   6.539   3.107  0.2748 -0.4102  0.1466
  856ACTN    C1 9019   3.801   6.317   3.108 -0.2975  0.2965  0.1098
  856ACTN    H1 9020   3.820   6.256   3.196 -0.6632  0.9010  0.6081
  856ACTN    H2 9021   3.878   6.292   3.035  1.3753  2.6119  1.0051
  856ACTN    H3 9022   3.698   6.299   3.078 -1.8184  0.9488  4.5693
  857ACTN    H6 9023   4.883   5.734   2.048  1.8251 -1.6551 -1.3662
  857ACTN    C3 9024   4.831   5.650   2.001 -0.6087 -0.5383 -0.7334
  857ACTN    H4 9025   4.826   5.567   2.071  0.2281 -0.5469 -0.6754
  857ACTN    H5 9026   4.736   5.687   1.963 -0.8032 -0.2184  0.0363
  857ACTN    C2 9027   4.910   5.609   1.877  0.2582  0.2932 -0.8993
  857ACTN    O1 9028   4.974   5.695   1.823  0.4849  0.3439 -0.2539
  857ACTN    C1 9029   4.924   5.472   1.857 -0.1094 -0.1623 -0.2210
  857ACTN    H1 9030   4.957   5.445   1.757 -1.2271  2.3243 -1.3027
  857ACTN    H2 9031   4.825   5.431   1.878  0.2859 -0.7377  0.5070
  857ACTN    H3 9032   4.990   5.444   1.939 -1.6113 -2.1121  0.3732
  858ACTN    H6 9033   1.837   6.540   3.631 -3.1293  0.0653 -0.1405
  858ACTN    C3 9034   1.815   6.646   3.647 -0.5706  0.5508  0.2862
  858ACTN    H4 9035   1.803   6.658   3.755 -0.6549 -0.0084  0.3413
  858ACTN    H5 9036   1.904   6.702   3.619 -0.6722 -1.2087 -3.8057
  858ACTN    C2 9037   1.693   6.685   3.567  0.3659  0.3074  1.0517
  858ACTN    O1 9038   1.643   6.793   3.586  0.2077 -0.1012  0.0179
  858ACTN    C1 9039   1.620   6.574   3.478 -1.2847 -0.3137  0.0588
  858ACTN    H1 9040   1.597   6.493   3.548 -0.5547  0.5653  1.3297
  858ACTN    H2 9041   1.683   6.536   3.398 -2.3047  2.5417 -2.1434
  858ACTN    H3 9042   1.532   6.613   3.429 -0.1167  1.0476 -0.9873
  859ACTN    H6 9043   8.823   1.084   5.389 -0.7026  0.8803 -0.5877
  859ACTN    C3 9044   8.899   1.006   5.392 -0.8899  0.7112 -0.2247
  859ACTN    H4 9045   8.962   1.013   5.481 -0.4863 -0.9007 -0.3632
  859ACTN    H5 9046   8.854   0.907   5.393 -0.5743  0.5772  1.6959
  859ACTN    C2 9047   8.995   1.014   5.281 -0.4824 -0.2055 -0.8219
  859ACTN    O1 9048   9.058   1.116   5.265  0.1826  0.1626  0.1047
  859ACTN    C1 9049   9.013   0.902   5.181 -0.0882  0.5463 -0.6035
  859ACTN    H1 9050   9.066   0.817   5.224 -2.3529 -0.2711  0.6345
  859ACTN    H2 9051   9.067   0.936   5.092  1.9848 -0.2514  0.3343
  859ACTN    H3 9052   8.917   0.857   5.154  1.1315 -1.9140 -0.9486
  860ACTN    H6 9053   3.788   8.063   3.822 -3.8546  1.4127 -1.0929
  860ACTN    C3 9054   3.832   8.101   3.730 -0.2785  0.7343  0.2488
  860ACTN    H4 9055   3.897   8.020   3.695 -0.0853 -0.3665  3.0816
  860ACTN    H5 9056   3.752   8.124   3.660 -1.0116  1.9929  1.4803
  860ACTN    C2 9057   3.909   8.227   3.769  0.2594 -0.1584  0.3084
  860ACTN    O1 9058   3.929   8.260   3.889  0.1357  0.2416 -0.0806
  860ACTN    C1 9059   3.974   8.308   3.660  0.4216 -0.0883 -0.7279
  860ACTN    H1 9060   3.954   8.266   3.562 -1.2544 -3.0076  0.7750
  860ACTN    H2 9061   4.081   8.303   3.679  0.4147  0.0908 -0.6406
  860ACTN    H3 9062   3.945   8.413   3.670  1.5461  0.2118 -0.4915
  861ACTN    H6 9063   7.286   8.230   7.571  2.3088 -1.1459  0.4325
  861ACTN    C3 9064   7.335   8.323   7.543 -0.0932  0.0317  0.0028
  861ACTN    H4 9065   7.268   8.409   7.555  0.7719  0.6487  0.5291
  861ACTN    H5 9066   7.416   8.348   7.612  0.0489 -0.4006 -0.0099
  861ACTN    C2 9067   7.400   8.307   7.414  0.1438 -0.2075  0.4467
  861ACTN    O1 9068   7.414   8.409   7.348 -0.5837 -0.3046  0.9125
  861ACTN    C1 9069   7.459   8.182   7.374 -0.9245 -0.4040 -0.1926
  861ACTN    H1 9070   7.459   8.106   7.452  0.1530  0.0160  0.2275
  861ACTN    H2 9071   7.561   8.200   7.341 -1.9367  2.0468 -2.0967
  861ACTN    H3 9072   7.394   8.143   7.295  0.6699 -2.3362 -0.5785
  862ACTN    H6 9073   4.143   4.245   5.916  0.8333  0.8921  0.7814
  862ACTN    C3 9074   4.093   4.218   6.009 -0.1211  0.2373  0.0850
  862ACTN    H4 9075   4.006   4.157   5.983 -0.1951  0.8469 -1.1616
  862ACTN    H5 9076   4.159   4.151   6.063  1.6577 -0.5354 -2.9138
  862ACTN    C2 9077   4.044   4.337   6.075  0.2509  0.2856  0.1507
  862ACTN    O1 9078   4.121   4.431   6.093 -0.0327  0.0951 -0.0426
  862ACTN    C1 9079   3.911   4.339   6.136  0.1213  0.2402 -0.2708
  862ACTN    H1 9080   3.884   4.430   6.191  0.5894  0.7607 -0.8936
  862ACTN    H2 9081   3.892   4.252   6.199 -1.5028 -0.2636 -1.4435
  862ACTN    H3 9082   3.839   4.331   6.055 -0.5541 -1.1139  0.4432
  863ACTN    H6 9083   1.350   1.118   5.519  0.0619 -2.1806 -0.3870
  863ACTN    C3 9084   1.457   1.129   5.502 -0.0642  0.2146  0.2797
  863ACTN    H4 9085   1.488   1.206   5.573 -0.9600 -0.5442  1.5245
  863ACTN    H5 9086   1.501   1.036   5.535  1.6712  1.3364  1.2033
  863ACTN    C2 9087   1.490   1.156   5.356  0.0576  0.3010 -0.0870
  863ACTN    O1 9088   1.418   1.229   5.293 -0.2221  0.0410 -0.5800
  863ACTN    C1 9089   1.573   1.053   5.276 -0.1900  0.2816  0.2155
  863ACTN    H1 9090   1.650   1.112   5.226  0.5347 -1.4708 -0.7540
  863ACTN    H2 9091   1.511   1.003   5.202 -1.9794  1.0262  1.1704
  863ACTN    H3 9092   1.621   0.977   5.338  1.3680  0.1089 -1.1742
  864ACTN    H6 9093   0.813   6.358   0.711 -0.7966  0.2002 -1.5485
  864ACTN    C3 9094   0.881   6.325   0.632 -0.3057 -0.5501 -0.8216
  864ACTN    H4 9095   0.970   6.285   0.680 -1.8446 -4.6854 -1.2536
  864ACTN    H5 9096   0.832   6.250   0.570 -2.0257  0.8591 -1.2218
  864ACTN    C2 9097   0.908   6.448   0.550  0.0173 -0.0114  0.0536
  864ACTN    O1 9098   0.983   6.439   0.457 -0.3382 -0.0460 -0.2415
  864ACTN    C1 9099   0.879   6.581   0.601  0.0479 -0.0086 -0.3034
  864ACTN    H1 9100   0.772   6.596   0.586  0.2589  2.2900  0.3363
  864ACTN    H2 9101   0.932   6.664   0.553 -2.8134  1.1855 -1.5417
  864ACTN    H3 9102   0.898   6.581   0.708 -0.8061 -2.5266 -0.1224
  865ACTN    H6 9103   4.094   3.106   1.049  0.7857 -0.0641  1.8161
  865ACTN    C3 9104   4.188   3.105   0.994 -0.4514  0.0570 -0.3468
  865ACTN    H4 9105   4.180   3.048   0.902 -1.6627 -1.6250  0.7620
  865ACTN    H5 9106   4.204   3.211   0.977 -1.4062  0.1221 -0.9108
  865ACTN    C2 9107   4.305   3.047   1.074  0.2290 -0.0971  0.2180
  865ACTN    O1 9108   4.411   3.114   1.083 -0.3004  0.4546  0.1763
  865ACTN    C1 9109   4.271   2.925   1.158  0.1673  0.2273  0.2193
  865ACTN    H1 9110   4.245   2.838   1.099  1.0290  0.7971 -1.0335
  865ACTN    H2 9111   4.189   2.946   1.226 -0.1620  2.1356 -0.7188
  865ACTN    H3 9112   4.359   2.901   1.217 -0.2071  0.3119  0.8114
  866ACTN    H6 9113   8.262   3.617   3.173 -0.7727  1.7884  1.5304
  866ACTN    C3 9114   8.333   3.679   3.118 -0.0059 -0.4996 -0.1475
  866ACTN    H4 9115   8.406   3.717   3.189  0.2481  0.3361 -0.8457
  866ACTN    H5 9116   8.380   3.612   3.045  0.5443  0.2838 -0.5197
  866ACTN    C2 9117   8.271   3.800   3.052 -1.2649 -0.0284 -0.7103
  866ACTN    O1 9118   8.148   3.820   3.057  0.1136  0.5773 -0.5839
  866ACTN    C1 9119   8.364   3.909   3.003  0.3152  0.0197 -0.2062
  866ACTN    H1 9120   8.438   3.931   3.079 -0.3209  0.8201  0.1759
  866ACTN    H2 9121   8.311   4.001   2.980 -0.1650 -0.4824 -1.1815
  866ACTN    H3 9122   8.410   3.882   2.908 -2.8884  0.5597 -1.9915
  867ACTN    H6 9123   7.704   5.115   0.211  0.9881  1.4401  1.3831
  867ACTN    C3 9124   7.792   5.142   0.153  0.1858  0.3991 -0.3360
  867ACTN    H4 9125   7.817   5.076   0.070  1.4185  0.5222 -0.0690
  867ACTN    H5 9126   7.773   5.242   0.116 -0.5707  1.1266  1.9282
  867ACTN    C2 9127   7.903   5.158   0.255 -0.5592 -1.0268  0.8667
  867ACTN    O1 9128   8.009   5.205   0.213  0.4167  0.4130 -0.3868
  867ACTN    C1 9129   7.887   5.118   0.398 -0.2684  0.3257  0.7187
  867ACTN    H1 9130   7.829   5.199   0.440 -0.3040  0.8659 -0.3406
  867ACTN    H2 9131   7.980   5.099   0.451  0.0020 -1.9131 -0.4698
  867ACTN    H3 9132   7.819   5.033   0.403  0.6773 -0.5894 -1.2380
  868ACTN    H6 9133   3.009   2.147   1.697  0.9009  2.6927  0.5765
  868ACTN    C3 9134   2.920   2.194   1.737 -0.7109 -0.2031  0.5711
  868ACTN    H4 9135   2.921   2.193   1.846 -3.1036  0.7069  0.6316
  868ACTN    H5 9136   2.931   2.301   1.716 -4.7580  0.3233  0.6767
  868ACTN    C2 9137   2.783   2.154   1.687  0.3713  0.0164  0.0574
  868ACTN    O1 9138   2.762   2.062   1.605 -0.1276  0.1547  0.0110
  868ACTN    C1 9139   2.669   2.239   1.744  0.4068  0.0192  0.1022
  868ACTN    H1 9140   2.576   2.215   1.693 -0.5037  1.8076  0.8806
  868ACTN    H2 9141   2.682   2.347   1.735  0.3408  0.1525  1.4978
  868ACTN    H3 9142   2.657   2.211   1.849 -2.2570  2.1481  0.4106
  869ACTN    H6 9143   7.167   3.123   4.867  3.8094 -1.2648  1.0753
  869ACTN    C3 9144   7.160   3.202   4.942  0.3309  0.0456 -0.5152
  869ACTN    H4 9145   7.067   3.187   4.996  0.0998  0.7017 -0.7343
  869ACTN    H5 9146   7.248   3.185   5.004 -0.1451  0.1715  0.1978
  869ACTN    C2 9147   7.165   3.340   4.887  0.2613  0.6005  0.5803
  869ACTN    O1 9148   7.261   3.374   4.816 -0.1082 -0.1720 -0.6123
  869ACTN    C1 9149   7.054   3.428   4.908  0.3227  0.6642  0.7992
  869ACTN    H1 9150   7.089   3.510   4.971  1.2349  0.8290  0.0941
  869ACTN    H2 9151   6.969   3.391   4.965 -1.8985  0.7231 -2.3508
  869ACTN    H3 9152   7.019   3.476   4.816  0.6254 -2.3848 -0.9679
  870ACTN    H6 9153   0.325   8.564   2.988  2.4976 -1.4594  0.5704
  870ACTN    C3 9154   0.369   8.622   2.907 -0.2104 -0.0211  0.0586
  870ACTN    H4 9155   0.428   8.553   2.846  0.1534 -0.9934  1.4923
  870ACTN    H5 9156   0.291   8.670   2.848  0.3597  0.2998 -0.4488
  870ACTN    C2 9157   0.447   8.733   2.977 -0.6962 -0.5430 -0.0474
  870ACTN    O1 9158   0.569   8.752   2.953 -0.0076 -0.4019 -0.2841
  870ACTN    C1 9159   0.377   8.832   3.065  0.2995  0.0757 -0.5293
  870ACTN    H1 9160   0.271   8.808   3.071  0.3780  0.1127  1.1768
  870ACTN    H2 9161   0.392   8.935   3.032  1.9555 -0.7621 -2.4903
  870ACTN    H3 9162   0.411   8.828   3.169  3.3841  1.4135 -1.4038
  871ACTN    H6 9163   8.137   8.705   5.219 -0.2556 -1.5927 -2.0849
  871ACTN    C3 9164   8.116   8.795   5.162  0.0659 -0.1308  0.0526
  871ACTN    H4 9165   8.085   8.764   5.062 -1.7283 -0.2299  0.6168
  871ACTN    H5 9166   8.040   8.857   5.210  0.4115  1.6393 -1.6347
  871ACTN    C2 9167   8.246   8.863   5.152 -0.1931 -0.3277  0.1173
  871ACTN    O1 9168   8.352   8.801   5.133 -0.4295  0.0733  0.5086
  871ACTN    C1 9169   8.237   9.014   5.118 -0.2801  0.4971  0.2786
  871ACTN    H1 9170   8.333   9.057   5.090  0.8094 -0.9585  1.6545
  871ACTN    H2 9171   8.199   9.074   5.201  0.3328  0.7469  0.3819
  871ACTN    H3 9172   8.164   9.031   5.038  0.0068 -1.6482 -0.4748
  872ACTN    H6 9173   4.718   8.323   3.647  0.3743 -0.9675  0.5636
  872ACTN    C3 9174   4.636   8.346   3.714  0.4508 -0.2655  0.4233
  872ACTN    H4 9175   4.602   8.449   3.702 -0.2548 -0.3925  1.2254
  872ACTN    H5 9176   4.556   8.280   3.681 -1.2219  2.4988 -1.2684
  872ACTN    C2 9177   4.686   8.314   3.855  0.1474 -0.0361  0.2530
  872ACTN    O1 9178   4.730   8.405   3.928  0.0881  0.1428  0.3628
  872ACTN    C1 9179   4.674   8.177   3.909 -0.1872 -0.5673  0.3949
  872ACTN    H1 9180   4.626   8.114   3.834  0.4254 -1.3703  0.6673
  872ACTN    H2 9181   4.618   8.180   4.002  0.1290 -0.1769  0.5737
  872ACTN    H3 9182   4.775   8.142   3.928  0.6200  1.3204 -0.3068
  873ACTN    H6 9183   0.537   1.278   3.595  0.0013  0.1467  0.0994
  873ACTN    C3 9184   0.486   1.325   3.679  0.0114  0.4955 -0.0883
  873ACTN    H4 9185   0.503   1.432   3.694  0.0796  0.3478  0.9578
  873ACTN    H5 9186   0.380   1.313   3.656 -0.4069  0.3812  1.7817
  873ACTN    C2 9187   0.495   1.249   3.810 -0.2148  0.5498 -0.7009
  873ACTN    O1 9188   0.566   1.151   3.833  0.1282 -0.2715 -0.0072
  873ACTN    C1 9189   0.389   1.289   3.909  0.1609  0.0205  0.6560
  873ACTN    H1 9190   0.316   1.208   3.911  0.3053 -0.1148  0.4619
  873ACTN    H2 9191   0.331   1.378   3.886  1.8873  0.3566 -2.5777
  873ACTN    H3 9192   0.424   1.298   4.012  0.2993  3.4838  0.3779
  874ACTN    H6 9193   3.838   1.245   8.515 -0.2575  0.8933 -0.4385
  874ACTN    C3 9194   3.926   1.293   8.557  0.2659 -0.3525 -0.0906
  874ACTN    H4 9195   3.964   1.232   8.639 -2.4471 -3.0546 -0.7484
  874ACTN    H5 9196   4.005   1.315   8.486  1.8977  1.8669  2.2903
  874ACTN    C2 9197   3.873   1.427   8.600 -0.3348 -0.0717  0.0654
  874ACTN    O1 9198   3.822   1.444   8.713 -0.2558  0.2939  0.2918
  874ACTN    C1 9199   3.872   1.539   8.496 -0.2274 -0.1911  0.1309
  874ACTN    H1 9200   3.836   1.629   8.546  0.9916 -0.2883  1.2210
  874ACTN    H2 9201   3.807   1.510   8.414  0.1519  0.8827 -0.5644
  874ACTN    H3 9202   3.972   1.560   8.458 -0.4973  2.0801  0.6282
  875ACTN    H6 9203   2.984   1.747   8.465  0.8874 -0.4422  0.9183
  875ACTN    C3 9204   3.025   1.660   8.413  0.2276 -0.1941 -0.0387
  875ACTN    H4 9205   3.036   1.694   8.310 -0.5911 -1.8179 -0.6659
  875ACTN    H5 9206   3.122   1.634   8.456  0.7974  0.5057 -0.9018
  875ACTN    C2 9207   2.921   1.552   8.435  0.4886 -0.2570  0.3860
  875ACTN    O1 9208   2.947   1.440   8.476 -0.1653  0.2806  0.7980
  875ACTN    C1 9209   2.779   1.576   8.401 -0.6435 -0.3144 -0.0099
  875ACTN    H1 9210   2.773   1.550   8.295 -0.6826 -1.3547  0.2464
  875ACTN    H2 9211   2.744   1.679   8.412 -2.7067 -0.9251 -0.5703
  875ACTN    H3 9212   2.717   1.513   8.464 -2.5142  2.6646  1.2553
  876ACTN    H6 9213   1.653   1.507   3.750  0.5672 -0.3901 -1.6218
  876ACTN    C3 9214   1.571   1.533   3.683 -0.1890 -0.3185 -0.6818
  876ACTN    H4 9215   1.619   1.563   3.590 -1.0753  2.8664 -0.1677
  876ACTN    H5 9216   1.509   1.444   3.676  0.5754 -1.1303  1.9732
  876ACTN    C2 9217   1.489   1.645   3.745  0.0486 -0.2336  0.8921
  876ACTN    O1 9218   1.417   1.718   3.676  0.0473 -0.5469 -0.0775
  876ACTN    C1 9219   1.504   1.670   3.896  0.5736 -0.4531 -0.3177
  876ACTN    H1 9220   1.402   1.667   3.935  1.1747  0.7039  1.3948
  876ACTN    H2 9221   1.541   1.771   3.910 -1.8950  0.8612 -2.7082
  876ACTN    H3 9222   1.558   1.590   3.947 -2.0993 -3.5521 -2.1697
  877ACTN    H6 9223   0.822   6.303   3.729 -0.4342 -1.0195  0.4894
  877ACTN    C3 9224   0.802   6.361   3.819  0.3307 -0.2906  0.2029
  877ACTN    H4 9225   0.713   6.325   3.872  0.5083  1.5471  1.8196
  877ACTN    H5 9226   0.888   6.353   3.885  2.2507 -1.2038 -2.3456
  877ACTN    C2 9227   0.776   6.505   3.784 -0.3236 -0.6458  1.0208
  877ACTN    O1 9228   0.687   6.536   3.709 -0.6394  0.3242  0.0193
  877ACTN    C1 9229   0.867   6.614   3.830  0.0298  0.4715 -0.4738
  877ACTN    H1 9230   0.829   6.707   3.790 -1.6360 -1.0171 -2.4776
  877ACTN    H2 9231   0.970   6.603   3.795  0.4840  0.5410  0.8345
  877ACTN    H3 9232   0.870   6.616   3.939 -1.4064 -0.0736 -0.4125
  878ACTN    H6 9233   0.166   7.471   5.346 -0.8931 -1.4215  0.7666
  878ACTN    C3 9234   0.223   7.409   5.278  0.1523 -0.1764  0.4737
  878ACTN    H4 9235   0.173   7.406   5.181  1.6576  0.0398 -0.3277
  878ACTN    H5 9236   0.320   7.454   5.256  2.0093 -4.1442 -0.0625
  878ACTN    C2 9237   0.241   7.272   5.336 -0.5822 -0.5445 -0.4135
  878ACTN    O1 9238   0.286   7.254   5.448 -0.5538 -0.0253  0.1703
  878ACTN    C1 9239   0.190   7.147   5.274 -0.0248  0.0854  0.5381
  878ACTN    H1 9240   0.130   7.089   5.345  0.2327 -1.6411 -0.6370
  878ACTN    H2 9241   0.282   7.089   5.260 -0.7821 -1.2700  1.0222
  878ACTN    H3 9242   0.143   7.162   5.177  1.4370  1.1873 -0.0189
  879ACTN    H6 9243   1.611   7.626   1.809 -0.1157 -1.4416  0.9474
  879ACTN    C3 9244   1.606   7.713   1.874  0.2578 -0.2899 -0.5256
  879ACTN    H4 9245   1.514   7.708   1.933 -0.0048 -2.0194 -1.0764
  879ACTN    H5 9246   1.692   7.722   1.941  0.2997 -0.5106 -0.5497
  879ACTN    C2 9247   1.589   7.839   1.786 -0.2005 -0.9154 -0.1091
  879ACTN    O1 9248   1.525   7.835   1.678 -0.3334  0.2315  0.2881
  879ACTN    C1 9249   1.669   7.959   1.815 -0.3631  0.4832 -0.8330
  879ACTN    H1 9250   1.631   8.039   1.752  0.8230  1.5297 -0.2236
  879ACTN    H2 9251   1.775   7.950   1.790 -0.3186 -1.9665  0.0923
  879ACTN    H3 9252   1.665   7.982   1.921 -1.0955 -1.6134 -0.3861
  880ACTN    H6 9253   6.901   7.016   4.611 -0.8072 -0.5953  0.2783
  880ACTN    C3 9254   6.823   7.036   4.537 -0.8772  0.3633  0.6045
  880ACTN    H4 9255   6.761   6.947   4.542 -2.6832  1.6056  0.8681
  880ACTN    H5 9256   6.755   7.116   4.566 -2.5808 -1.4400  1.6379
  880ACTN    C2 9257   6.879   7.048   4.400  0.2250 -1.1527 -0.6613
  880ACTN    O1 9258   6.815   7.040   4.294  0.1315  0.0572 -0.5542
  880ACTN    C1 9259   7.022   7.063   4.387  0.2817 -0.4325  0.1179
  880ACTN    H1 9260   7.074   7.032   4.477 -1.8357 -2.8853  0.5515
  880ACTN    H2 9261   7.052   7.165   4.360  1.3532 -0.7955 -0.0596
  880ACTN    H3 9262   7.056   7.010   4.298  3.0700  1.0022  0.2980
  881ACTN    H6 9263   1.180   1.435   4.682 -2.4393 -1.5015  0.3982
  881ACTN    C3 9264   1.231   1.351   4.635 -0.7318 -0.2585 -0.0016
  881ACTN    H4 9265   1.326   1.340   4.686  0.1158  2.7085 -0.8386
  881ACTN    H5 9266   1.162   1.267   4.648  1.1831 -2.0377 -1.0592
  881ACTN    C2 9267   1.268   1.381   4.492  0.2371 -0.5649  0.0940
  881ACTN    O1 9268   1.297   1.494   4.455  0.2741 -0.3434 -0.1584
  881ACTN    C1 9269   1.223   1.268   4.397 -0.0394 -0.0170  0.1253
  881ACTN    H1 9270   1.179   1.306   4.305 -3.2411  0.3196  1.7247
  881ACTN    H2 9271   1.155   1.194   4.440  0.6389 -1.5471 -1.3679
  881ACTN    H3 9272   1.303   1.200   4.366 -2.0018 -2.1183 -0.5424
  882ACTN    H6 9273   1.842   2.301   5.747 -0.8498 -1.3616 -0.4029
  882ACTN    C3 9274   1.837   2.250   5.843  0.2905 -0.2550  0.2611
  882ACTN    H4 9275   1.866   2.319   5.922 -0.4690 -0.8868  1.1072
  882ACTN    H5 9276   1.739   2.208   5.867  1.7750 -2.5293  2.5817
  882ACTN    C2 9277   1.945   2.140   5.824 -0.9135 -0.7930 -0.2185
  882ACTN    O1 9278   1.913   2.023   5.805  0.7494 -0.1408  0.0904
  882ACTN    C1 9279   2.088   2.190   5.837 -0.7166  0.5588 -0.7214
  882ACTN    H1 9280   2.150   2.163   5.922  1.0493  1.4853 -1.6686
  882ACTN    H2 9281   2.098   2.299   5.831 -0.7695  0.6265  0.3470
  882ACTN    H3 9282   2.133   2.155   5.744  0.0639  1.5342 -0.7246
  883ACTN    H6 9283   1.263   0.082   1.321 -0.0129 -0.1244 -1.0811
  883ACTN    C3 9284   1.322   0.069   1.230  0.7278  0.2966 -0.6656
  883ACTN    H4 9285   1.414   0.015   1.252  1.1186  1.2801  0.1942
  883ACTN    H5 9286   1.267   0.004   1.162 -0.2728  0.7981 -0.3485
  883ACTN    C2 9287   1.362   0.198   1.160 -0.0087 -0.6355  0.7164
  883ACTN    O1 9288   1.317   0.308   1.200  0.6983  0.7417  0.4778
  883ACTN    C1 9289   1.483   0.192   1.060 -0.1068 -0.6005  0.3739
  883ACTN    H1 9290   1.576   0.182   1.115 -0.4319  0.1402  1.0710
  883ACTN    H2 9291   1.489   0.280   0.996  2.0155  0.6014  2.1715
  883ACTN    H3 9292   1.469   0.109   0.990  0.2714 -0.8195  0.5553
  884ACTN    H6 9293   0.327   3.758   4.142  0.7158  0.1124  0.5131
  884ACTN    C3 9294   0.370   3.833   4.076 -0.2479 -0.3058 -0.6040
  884ACTN    H4 9295   0.357   3.804   3.971  0.7531  1.1016 -1.1308
  884ACTN    H5 9296   0.317   3.927   4.088 -4.2671 -2.6907  1.5896
  884ACTN    C2 9297   0.521   3.843   4.096 -0.1162 -0.5041 -0.0050
  884ACTN    O1 9298   0.578   3.952   4.083  0.0595  0.0338  0.1728
  884ACTN    C1 9299   0.599   3.715   4.091 -0.3272 -0.3606 -0.2613
  884ACTN    H1 9300   0.551   3.618   4.083 -1.3301  0.1646 -0.6417
  884ACTN    H2 9301   0.673   3.706   4.171  0.1053 -0.0758 -0.6263
  884ACTN    H3 9302   0.665   3.722   4.004  0.8814  1.2679  0.7503
  885ACTN    H6 9303   0.278   4.891   8.037 -0.0323 -0.9113  3.0111
  885ACTN    C3 9304   0.295   4.795   7.988 -0.1061  0.6572 -0.2473
  885ACTN    H4 9305   0.222   4.766   7.913  1.9609  0.2753 -2.1645
  885ACTN    H5 9306   0.393   4.810   7.943  1.2924 -1.0178  2.0964
  885ACTN    C2 9307   0.297   4.677   8.087 -0.1672 -0.0087  0.2050
  885ACTN    O1 9308   0.186   4.630   8.116  0.0979 -0.3739  0.0293
  885ACTN    C1 9309   0.420   4.590   8.078  0.5896 -0.1766  0.1442
  885ACTN    H1 9310   0.509   4.650   8.099  1.7562 -1.8523  0.0259
  885ACTN    H2 9311   0.432   4.556   7.975 -0.3942 -0.3101  0.0631
  885ACTN    H3 9312   0.415   4.503   8.142  1.1007 -0.6751 -0.4891
  886ACTN    H6 9313   1.588   1.495   6.272 -2.2561 -1.3946 -0.1225
  886ACTN    C3 9314   1.550   1.561   6.194 -0.2786 -0.0653  0.0196
  886ACTN    H4 9315   1.488   1.640   6.236 -1.0823 -0.8665  0.3412
  886ACTN    H5 9316   1.485   1.499   6.132 -0.4998  0.6652 -0.4971
  886ACTN    C2 9317   1.656   1.620   6.108 -0.1999  0.3725 -0.3894
  886ACTN    O1 9318   1.776   1.594   6.125  0.7977 -0.2385 -0.3660
  886ACTN    C1 9319   1.621   1.730   6.008 -0.1168 -0.3751 -0.2700
  886ACTN    H1 9320   1.598   1.816   6.070  1.5232 -0.3877  0.4052
  886ACTN    H2 9321   1.533   1.705   5.949 -1.9308  2.9837  0.9284
  886ACTN    H3 9322   1.701   1.765   5.942  2.6261 -0.7487  2.7204
  887ACTN    H6 9323   3.070   4.463   7.869  0.1006  0.3911  0.9880
  887ACTN    C3 9324   2.986   4.395   7.884  0.1064  0.3978  1.0545
  887ACTN    H4 9325   2.895   4.425   7.833 -0.0281  0.6843  1.4655
  887ACTN    H5 9326   3.011   4.297   7.841  1.3382 -0.3193  3.3361
  887ACTN    C2 9327   2.971   4.367   8.023  0.0603  0.7377 -0.2574
  887ACTN    O1 9328   2.917   4.463   8.081  0.4680  0.8052  1.2284
  887ACTN    C1 9329   3.023   4.240   8.087 -0.7038  0.0567 -0.4635
  887ACTN    H1 9330   3.000   4.223   8.192 -2.8783 -0.8029 -1.0624
  887ACTN    H2 9331   3.129   4.225   8.067 -0.3298 -0.7480  1.9381
  887ACTN    H3 9332   2.979   4.154   8.037  1.5026  0.7626 -3.7766
  888ACTN    H6 9333   1.040   8.711   1.959 -0.0566  0.9143 -2.2703
  888ACTN    C3 9334   0.961   8.784   1.975 -0.3327  0.1404  0.1489
  888ACTN    H4 9335   0.892   8.737   2.046 -0.2614  0.1946  0.2554
  888ACTN    H5 9336   1.006   8.868   2.029  2.1375 -0.9408 -0.1578
  888ACTN    C2 9337   0.899   8.840   1.858 -0.4894 -0.7019  0.0685
  888ACTN    O1 9338   0.779   8.829   1.828 -0.4430  0.1970  0.0834
  888ACTN    C1 9339   0.982   8.885   1.741  0.3185  0.4289  0.4235
  888ACTN    H1 9340   1.030   8.977   1.774 -1.6621  1.0126  1.7984
  888ACTN    H2 9341   0.921   8.903   1.652 -0.4365  0.0896  0.8694
  888ACTN    H3 9342   1.057   8.811   1.717  0.5006  0.3948  1.0898
  889ACTN    H6 9343   4.187   8.597   2.709  0.5525 -0.7559 -0.5444
  889ACTN    C3 9344   4.263   8.675   2.697 -0.1493 -0.0020 -0.0902
  889ACTN    H4 9345   4.298   8.679   2.594 -0.9278 -1.5997 -0.4424
  889ACTN    H5 9346   4.224   8.770   2.734  2.5689  1.3513 -0.6450
  889ACTN    C2 9347   4.388   8.634   2.775 -0.0110  0.1189 -0.0930
  889ACTN    O1 9348   4.481   8.703   2.787 -0.3687  0.3115 -0.5313
  889ACTN    C1 9349   4.388   8.496   2.844 -0.6116  0.0035  1.4188
  889ACTN    H1 9350   4.289   8.459   2.873 -1.2509 -0.7853 -1.5502
  889ACTN    H2 9351   4.452   8.503   2.931 -1.0500  1.2632  1.6480
  889ACTN    H3 9352   4.430   8.436   2.762 -1.4632  1.6007 -0.2313
  890ACTN    H6 9353   1.885   1.056   2.463 -0.8629 -0.1015 -0.2280
  890ACTN    C3 9354   1.959   1.004   2.402  0.0235  0.0558  0.6814
  890ACTN    H4 9355   1.982   0.910   2.452 -0.8444 -2.9641 -4.1927
  890ACTN    H5 9356   1.924   0.972   2.304  4.0527 -0.7009 -0.5913
  890ACTN    C2 9357   2.076   1.095   2.384 -0.2547 -0.0356  0.0807
  890ACTN    O1 9358   2.057   1.207   2.342 -0.5381 -0.3491  0.4959
  890ACTN    C1 9359   2.214   1.036   2.376 -0.4090  0.5371 -0.3768
  890ACTN    H1 9360   2.229   1.002   2.274  1.5379 -0.2797  0.1689
  890ACTN    H2 9361   2.228   0.954   2.446  1.4125  0.6243 -0.6135
  890ACTN    H3 9362   2.293   1.108   2.399 -0.0985 -0.6088  2.3784
  891ACTN    H6 9363   2.137   5.688   1.897  2.8503  1.0877  1.6378
  891ACTN    C3 9364   2.162   5.590   1.937  0.2505 -0.0885  0.4961
  891ACTN    H4 9365   2.072   5.532   1.914  0.1920  0.5929 -1.0647
  891ACTN    H5 9366   2.244   5.550   1.877  0.3470  1.7409 -0.6233
  891ACTN    C2 9367   2.182   5.593   2.087 -0.2050 -0.1844  0.4066
  891ACTN    O1 9368   2.094   5.644   2.158 -0.2057 -0.0956  0.1809
  891ACTN    C1 9369   2.314   5.532   2.144 -0.0193  0.6817  0.3251
  891ACTN    H1 9370   2.366   5.606   2.205  0.6080 -1.2149  2.1628
  891ACTN    H2 9371   2.378   5.488   2.068  0.3261  0.5077  0.7134
  891ACTN    H3 9372   2.281   5.456   2.216 -3.2236  2.4822  0.8535
  892ACTN    H6 9373   5.618   1.316   3.601 -0.6036  0.7140 -1.1330
  892ACTN    C3 9374   5.627   1.424   3.599  0.8960  0.6278 -0.1632
  892ACTN    H4 9375   5.733   1.446   3.612  0.8851  1.4103 -1.3018
  892ACTN    H5 9376   5.598   1.448   3.496  0.9864  1.9955  0.1134
  892ACTN    C2 9377   5.537   1.487   3.701  1.0256  0.2699 -0.2900
  892ACTN    O1 9378   5.425   1.529   3.675  0.0967 -0.2589 -0.1511
  892ACTN    C1 9379   5.596   1.521   3.838  0.2217 -0.0632  0.4820
  892ACTN    H1 9380   5.691   1.570   3.815  0.7643 -1.4005 -0.2043
  892ACTN    H2 9381   5.616   1.429   3.893  1.1483 -0.0128  0.2470
  892ACTN    H3 9382   5.539   1.591   3.900  0.5383  0.9387 -0.3437
  893ACTN    H6 9383   8.240   3.556   2.647 -1.3941 -0.4447 -0.1546
  893ACTN    C3 9384   8.248   3.655   2.690 -0.0307 -0.6929  0.2013
  893ACTN    H4 9385   8.174   3.674   2.768 -0.7936 -3.2744  0.1509
  893ACTN    H5 9386   8.348   3.677   2.727 -0.1480  1.4382 -0.6945
  893ACTN    C2 9387   8.226   3.749   2.575  0.1704  0.8784  0.7524
  893ACTN    O1 9388   8.199   3.693   2.467  0.3612 -0.3176 -0.1131
  893ACTN    C1 9389   8.205   3.896   2.586 -0.3243 -0.3668  0.0330
  893ACTN    H1 9390   8.134   3.918   2.665 -0.5737  0.4546 -0.4127
  893ACTN    H2 9391   8.176   3.951   2.496  0.4886  1.1905  0.7061
  893ACTN    H3 9392   8.300   3.936   2.622  0.0114 -2.0662  1.0479
  894ACTN    H6 9393   2.526   4.235   4.524  0.3235 -1.4947  0.5573
  894ACTN    C3 9394   2.419   4.222   4.542 -0.0393  0.8279  0.2654
  894ACTN    H4 9395   2.374   4.179   4.452  0.7417 -1.7882  1.0715
  894ACTN    H5 9396   2.410   4.167   4.636  4.3113 -1.3012 -0.4327
  894ACTN    C2 9397   2.362   4.358   4.571 -0.0375 -1.1539  0.0109
  894ACTN    O1 9398   2.257   4.376   4.635 -0.0213 -0.3321  0.5924
  894ACTN    C1 9399   2.441   4.473   4.521 -0.1813  0.2742  0.1948
  894ACTN    H1 9400   2.396   4.567   4.554 -0.7579  0.3927 -0.9227
  894ACTN    H2 9401   2.446   4.476   4.412 -0.5549 -0.3462  0.1627
  894ACTN    H3 9402   2.545   4.474   4.555 -0.1103 -0.7805  0.0140
  895ACTN    H6 9403   6.916   7.988   2.996  0.8761 -2.3423 -1.2956
  895ACTN    C3 9404   6.949   8.052   2.914  0.4834 -0.4941 -0.0389
  895ACTN    H4 9405   6.937   8.159   2.933 -0.3378 -0.3794 -1.1519
  895ACTN    H5 9406   7.054   8.030   2.900  0.8879 -0.3125  2.4743
  895ACTN    C2 9407   6.881   8.018   2.785 -0.2773  0.1362 -0.3140
  895ACTN    O1 9408   6.795   8.094   2.743 -0.2204  0.3293 -0.1838
  895ACTN    C1 9409   6.909   7.883   2.719  0.6637  0.0141  0.4050
  895ACTN    H1 9410   6.913   7.889   2.610  0.0556  1.5362  0.4544
  895ACTN    H2 9411   6.816   7.830   2.737 -0.0578  1.0185 -0.2812
  895ACTN    H3 9412   6.993   7.820   2.749 -1.8028 -1.8181  3.7895
  896ACTN    H6 9413   6.336   6.285   5.068 -0.6048 -1.4450  0.2062
  896ACTN    C3 9414   6.420   6.306   5.002 -0.6940 -0.1954  0.4633
  896ACTN    H4 9415   6.488   6.356   5.071 -0.9052  1.6716 -0.6497
  896ACTN    H5 9416   6.466   6.211   4.973  0.0037  0.0126  0.8830
  896ACTN    C2 9417   6.391   6.394   4.891 -0.2742 -1.0439 -0.0820
  896ACTN    O1 9418   6.359   6.513   4.914 -0.2367  0.1935 -0.2059
  896ACTN    C1 9419   6.361   6.329   4.756  1.1004 -0.6177  0.3337
  896ACTN    H1 9420   6.442   6.358   4.689  0.2031  0.0556 -0.4730
  896ACTN    H2 9421   6.260   6.350   4.720  0.6317  0.8565  2.4052
  896ACTN    H3 9422   6.376   6.221   4.763  0.3771 -0.7784 -0.5821
  897ACTN    H6 9423   8.396   1.906   0.447 -1.8163  2.5142 -3.0507
  897ACTN    C3 9424   8.338   1.959   0.522 -0.2601  0.1791 -0.0975
  897ACTN    H4 9425   8.297   1.888   0.593  1.5801 -0.9763 -0.1539
  897ACTN    H5 9426   8.259   2.016   0.473 -0.5978  0.1927  0.4520
  897ACTN    C2 9427   8.428   2.059   0.598 -0.6015  0.0376  1.1144
  897ACTN    O1 9428   8.542   2.067   0.568 -0.1712  0.8880 -0.0816
  897ACTN    C1 9429   8.363   2.159   0.693  0.7443  0.5863  0.1451
  897ACTN    H1 9430   8.426   2.236   0.739 -1.7253  0.4633  3.9429
  897ACTN    H2 9431   8.338   2.094   0.777  0.4386  0.4852 -0.0254
  897ACTN    H3 9432   8.277   2.204   0.644  0.4613  1.1036  1.1074
  898ACTN    H6 9433   1.803   1.775   5.121  0.3980 -1.3970  1.5641
  898ACTN    C3 9434   1.716   1.787   5.186 -0.0295  0.3600  0.6923
  898ACTN    H4 9435   1.634   1.827   5.126  0.3072 -3.1626 -2.2727
  898ACTN    H5 9436   1.685   1.690   5.226  1.4601 -0.5680 -0.3510
  898ACTN    C2 9437   1.760   1.868   5.299 -0.8137  0.3590 -0.8306
  898ACTN    O1 9438   1.722   1.978   5.327  0.1122  0.8533  0.8655
  898ACTN    C1 9439   1.873   1.815   5.384 -1.0992 -0.0131 -0.4342
  898ACTN    H1 9440   1.862   1.706   5.379 -1.0161 -0.0893  0.8237
  898ACTN    H2 9441   1.866   1.848   5.488 -0.0179  0.0860 -0.3926
  898ACTN    H3 9442   1.969   1.843   5.342 -1.2078  0.5748 -0.2871
  899ACTN    H6 9443   2.015   8.171   2.979 -0.7149  1.9638  0.0613
  899ACTN    C3 9444   1.931   8.102   2.975  0.6086  0.2923  0.4563
  899ACTN    H4 9445   1.895   8.109   2.873  1.6236 -2.0115 -0.0870
  899ACTN    H5 9446   1.967   8.002   3.001  1.0137  0.5129  0.7517
  899ACTN    C2 9447   1.841   8.139   3.073  0.5754 -0.0083  0.2305
  899ACTN    O1 9448   1.767   8.058   3.125 -0.0701  0.6467  0.2190
  899ACTN    C1 9449   1.832   8.282   3.120 -0.2102 -0.2188  0.3254
  899ACTN    H1 9450   1.854   8.294   3.226  1.4928 -0.5166  0.0209
  899ACTN    H2 9451   1.732   8.324   3.105  1.0384  1.6328 -3.3418
  899ACTN    H3 9452   1.906   8.350   3.078 -0.5053  0.9197  1.5996
  900ACTN    H6 9453   2.710   3.069   6.679 -0.6570  1.4163  1.2184
  900ACTN    C3 9454   2.637   3.000   6.721  0.0631  0.2597  0.6001
  900ACTN    H4 9455   2.678   2.941   6.803 -0.0850  0.7022  0.9958
  900ACTN    H5 9456   2.546   3.050   6.755 -0.0162  0.4031  0.1791
  900ACTN    C2 9457   2.586   2.918   6.606  0.3574  0.0936  0.5583
  900ACTN    O1 9458   2.583   2.965   6.493  0.2549 -0.1351 -0.6868
  900ACTN    C1 9459   2.512   2.793   6.631 -0.1538 -0.1319 -0.2615
  900ACTN    H1 9460   2.543   2.719   6.557  3.0526  0.0270  0.8406
  900ACTN    H2 9461   2.404   2.811   6.626  0.0319  0.7265 -1.2173
  900ACTN    H3 9462   2.538   2.758   6.731  1.6980  0.8475 -0.3944
  901ACTN    H6 9463   1.016   7.257   8.730  0.8304 -0.7645  3.0316
  901ACTN    C3 9464   0.937   7.322   8.767  0.2939  0.7047 -0.4896
  901ACTN    H4 9465   0.985   7.401   8.827 -0.1952 -0.0230  0.8910
  901ACTN    H5 9466   0.893   7.371   8.680 -1.1322 -0.5207 -0.4762
  901ACTN    C2 9467   0.841   7.252   8.848 -0.4043 -0.1430  0.6899
  901ACTN    O1 9468   0.727   7.274   8.817 -0.2864 -0.0949  0.6624
  901ACTN    C1 9469   0.886   7.157   8.954  0.0749  0.7447 -0.1601
  901ACTN    H1 9470   0.983   7.183   8.999  1.0947  1.3963 -2.6670
  901ACTN    H2 9471   0.913   7.062   8.907 -0.3870  0.7937 -0.5283
  901ACTN    H3 9472   0.815   7.138   9.034  1.3512  1.9231  1.2927
  902ACTN    H6 9473   6.362   4.893   2.346 -1.5858  0.9226  1.4128
  902ACTN    C3 9474   6.298   4.822   2.293  0.1381  0.3596  0.0564
  902ACTN    H4 9475   6.228   4.782   2.367 -0.3035  1.7170  0.3823
  902ACTN    H5 9476   6.369   4.748   2.256 -1.9649 -1.6728  0.0186
  902ACTN    C2 9477   6.216   4.880   2.180 -0.1857 -0.5916 -0.2175
  902ACTN    O1 9478   6.247   4.862   2.058  0.5685  0.2201 -0.5541
  902ACTN    C1 9479   6.097   4.970   2.212  0.6267 -0.6169  0.3939
  902ACTN    H1 9480   6.004   4.919   2.190  0.0259  1.1121 -1.1993
  902ACTN    H2 9481   6.099   5.060   2.151 -1.1046 -0.4789  0.5150
  902ACTN    H3 9482   6.095   5.014   2.312 -0.8163  1.7901 -0.6680
  903ACTN    H6 9483   6.384   8.625   3.570  0.3605 -0.9725  1.3328
  903ACTN    C3 9484   6.453   8.702   3.604  0.2314 -0.2088 -0.1030
  903ACTN    H4 9485   6.415   8.755   3.692  0.1965 -0.4104  0.0054
  903ACTN    H5 9486   6.549   8.657   3.628 -0.9442 -1.7128  2.0223
  903ACTN    C2 9487   6.477   8.790   3.487 -0.0165  0.9839 -0.1437
  903ACTN    O1 9488   6.591   8.780   3.436  0.4621  0.3547  0.3663
  903ACTN    C1 9489   6.392   8.913   3.479 -0.1460  0.6547  0.0717
  903ACTN    H1 9490   6.450   9.003   3.458  2.2115 -0.8377  0.0117
  903ACTN    H2 9491   6.320   8.925   3.559  0.2071 -0.0241  0.4929
  903ACTN    H3 9492   6.328   8.903   3.391  2.1779  0.2577 -1.6387
  904ACTN    H6 9493   0.543   1.573   5.389 -1.0309 -0.7246  0.3532
  904ACTN    C3 9494   0.537   1.638   5.302  0.5461 -0.2590  0.5827
  904ACTN    H4 9495   0.461   1.715   5.316  0.2999 -0.6797  1.6383
  904ACTN    H5 9496   0.513   1.566   5.224  0.5845 -1.0808  1.3278
  904ACTN    C2 9497   0.678   1.686   5.284 -0.3573  0.8497  0.5141
  904ACTN    O1 9498   0.758   1.682   5.378  0.3062 -0.4726 -0.3003
  904ACTN    C1 9499   0.711   1.750   5.157 -0.8307  0.3478  0.0004
  904ACTN    H1 9500   0.649   1.838   5.141  0.2297  1.2212  0.5667
  904ACTN    H2 9501   0.697   1.673   5.082 -0.4464  1.1089 -0.8609
  904ACTN    H3 9502   0.816   1.781   5.153  0.1916 -3.0301 -1.6055
  905ACTN    H6 9503   8.296   8.896   0.176 -0.7807  0.7855  2.6478
  905ACTN    C3 9504   8.354   8.988   0.167  0.1681 -0.0091  0.1767
  905ACTN    H4 9505   8.326   9.039   0.075 -0.2481 -0.4890  0.0342
  905ACTN    H5 9506   8.322   9.064   0.239  0.0941  1.4583 -1.3721
  905ACTN    C2 9507   8.502   8.962   0.172 -0.7185 -0.1855  0.0540
  905ACTN    O1 9508   8.558   8.971   0.280  0.9298  0.5038  0.1109
  905ACTN    C1 9509   8.581   8.954   0.043  0.1752 -0.4708 -0.5672
  905ACTN    H1 9510   8.572   9.042  -0.020 -0.7322 -0.2406 -0.1195
  905ACTN    H2 9511   8.532   8.874  -0.013 -1.1237  1.3985 -2.1303
  905ACTN    H3 9512   8.686   8.924   0.054  0.4218  0.7381  0.4209
  906ACTN    H6 9513   7.626   3.708   5.567 -1.6994 -0.3712 -1.1318
  906ACTN    C3 9514   7.594   3.762   5.656  0.0004 -0.6461 -0.3369
  906ACTN    H4 9515   7.489   3.789   5.651 -0.6218 -2.6183  1.5373
  906ACTN    H5 9516   7.627   3.703   5.741 -2.0394 -0.3313  0.7010
  906ACTN    C2 9517   7.667   3.894   5.658  0.4233  0.1011 -0.9856
  906ACTN    O1 9518   7.769   3.903   5.595  0.1357  0.1014  0.0791
  906ACTN    C1 9519   7.628   4.004   5.747  0.1407  0.6791 -0.0725
  906ACTN    H1 9520   7.629   4.092   5.683 -0.1618  0.0042 -1.0149
  906ACTN    H2 9521   7.697   4.018   5.831  1.7406  3.1313 -1.7387
  906ACTN    H3 9522   7.528   3.993   5.788  0.5479 -0.0891  0.7342
  907ACTN    H6 9523   1.683   1.970   7.328  1.1301 -2.6744  4.6626
  907ACTN    C3 9524   1.788   1.995   7.338  1.3208 -0.9956 -0.1254
  907ACTN    H4 9525   1.807   2.092   7.292  2.0557 -2.2851 -2.6315
  907ACTN    H5 9526   1.801   1.997   7.446 -1.3150 -3.2894  0.2914
  907ACTN    C2 9527   1.867   1.887   7.270 -0.7545 -0.0067 -0.4525
  907ACTN    O1 9528   1.846   1.769   7.307  0.0715 -0.0562  0.4518
  907ACTN    C1 9529   1.952   1.914   7.152  0.0750 -0.6232  0.2220
  907ACTN    H1 9530   2.050   1.869   7.169  1.3666  1.5699 -1.0764
  907ACTN    H2 9531   1.967   2.019   7.126 -0.2974 -0.9425 -1.3534
  907ACTN    H3 9532   1.910   1.865   7.064 -0.4036 -0.2365  0.2364
  908ACTN    H6 9533   2.160   7.304   4.142  0.3924  3.1310  0.4987
  908ACTN    C3 9534   2.219   7.283   4.231  0.2886  0.9665  0.0825
  908ACTN    H4 9535   2.160   7.264   4.320  0.6295 -3.3414 -0.4886
  908ACTN    H5 9536   2.284   7.198   4.209 -0.4413  0.1273  1.1063
  908ACTN    C2 9537   2.303   7.407   4.245 -0.5024  0.1189  0.1474
  908ACTN    O1 9538   2.240   7.514   4.237  0.1687  0.8607 -0.1595
  908ACTN    C1 9539   2.452   7.407   4.276 -0.1324 -0.6634  0.2772
  908ACTN    H1 9540   2.481   7.460   4.367  0.1875  2.2339 -1.4513
  908ACTN    H2 9541   2.500   7.456   4.191  0.4097 -0.1603  0.8740
  908ACTN    H3 9542   2.489   7.305   4.277  0.1337 -0.5646  0.5328
  909ACTN    H6 9543   1.012   5.719   4.227 -0.4774  1.0444 -1.1544
  909ACTN    C3 9544   0.916   5.669   4.217 -0.1599  0.3260 -0.5937
  909ACTN    H4 9545   0.900   5.644   4.113  2.8863 -0.8857 -0.7921
  909ACTN    H5 9546   0.908   5.577   4.275  1.7436  0.0718 -0.7090
  909ACTN    C2 9547   0.806   5.760   4.267 -0.8241  0.4507 -0.1225
  909ACTN    O1 9548   0.802   5.870   4.208  0.1140  0.1844  0.3080
  909ACTN    C1 9549   0.728   5.736   4.393 -0.2749  0.0483 -0.0701
  909ACTN    H1 9550   0.658   5.819   4.391  1.7029  1.7164 -2.8464
  909ACTN    H2 9551   0.801   5.744   4.474  0.5245  0.0258 -0.7799
  909ACTN    H3 9552   0.678   5.640   4.408 -1.7218  0.5356 -1.6959
  910ACTN    H6 9553   3.298   4.609   8.912  0.4102  0.2743  0.1972
  910ACTN    C3 9554   3.355   4.639   8.825  0.0397 -0.1515 -0.1951
  910ACTN    H4 9555   3.447   4.682   8.864 -0.5035  0.4109  0.4739
  910ACTN    H5 9556   3.372   4.543   8.777 -0.7115  0.5929 -2.0204
  910ACTN    C2 9557   3.268   4.727   8.744  0.0742  0.1024  1.3678
  910ACTN    O1 9558   3.151   4.694   8.727  0.2548 -0.1200  0.5428
  910ACTN    C1 9559   3.320   4.863   8.700 -0.4095 -0.2734  0.3439
  910ACTN    H1 9560   3.427   4.870   8.718 -0.0867 -1.4487 -1.0532
  910ACTN    H2 9561   3.277   4.946   8.756  0.5806  0.9196 -0.6381
  910ACTN    H3 9562   3.306   4.874   8.593 -2.1423 -0.3487  0.5447
  911ACTN    H6 9563   7.538   0.603   6.334 -1.9223 -2.0195  0.8132
  911ACTN    C3 9564   7.476   0.653   6.409 -0.6487  0.5209  0.2255
  911ACTN    H4 9565   7.443   0.577   6.480 -0.5660  0.2382 -0.0404
  911ACTN    H5 9566   7.555   0.713   6.454  1.4672 -2.1347  0.1866
  911ACTN    C2 9567   7.362   0.729   6.348 -0.5495  0.5695  0.0101
  911ACTN    O1 9568   7.341   0.840   6.386 -0.5388  0.1575  0.5788
  911ACTN    C1 9569   7.273   0.651   6.261  0.2117 -1.1385 -0.5474
  911ACTN    H1 9570   7.265   0.553   6.309  2.9077 -1.3907 -0.5551
  911ACTN    H2 9571   7.318   0.651   6.162  3.0002  0.6426  0.6509
  911ACTN    H3 9572   7.179   0.706   6.266  0.8003 -0.1564 -0.2033
  912ACTN    H6 9573   0.595   2.143   8.740 -1.2916 -2.5099 -0.0174
  912ACTN    C3 9574   0.499   2.192   8.754  0.2283  0.4068  0.5127
  912ACTN    H4 9575   0.482   2.244   8.659 -1.0589 -1.7939 -0.5121
  912ACTN    H5 9576   0.425   2.114   8.772 -0.3649  0.5717 -1.1033
  912ACTN    C2 9577   0.488   2.295   8.869  1.6168  0.2302 -0.0179
  912ACTN    O1 9578   0.555   2.394   8.869 -0.1566 -0.1502 -0.3983
  912ACTN    C1 9579   0.413   2.256   8.995  0.6223  0.0562 -0.0857
  912ACTN    H1 9580   0.434   2.322   9.079 -0.9945 -1.8973  1.8696
  912ACTN    H2 9581   0.440   2.155   9.023  1.6949 -0.4467 -2.7484
  912ACTN    H3 9582   0.306   2.267   8.982  0.4431 -2.6146 -1.2917
  913ACTN    H6 9583   4.557   2.414   3.490 -1.5444  0.0445  0.5991
  913ACTN    C3 9584   4.558   2.522   3.473  0.6395 -0.0045  0.2182
  913ACTN    H4 9585   4.599   2.537   3.373  0.1637 -0.0236  0.0167
  913ACTN    H5 9586   4.455   2.552   3.456  0.5150 -0.4767  0.1197
  913ACTN    C2 9587   4.633   2.598   3.578 -0.0147 -0.3292  0.0206
  913ACTN    O1 9588   4.730   2.662   3.542 -0.2121 -0.1888 -0.6775
  913ACTN    C1 9589   4.590   2.590   3.716  0.1245 -0.0111 -0.4875
  913ACTN    H1 9590   4.548   2.685   3.749 -0.7399 -0.9333  1.0861
  913ACTN    H2 9591   4.679   2.565   3.774  0.2468 -0.6862 -0.9639
  913ACTN    H3 9592   4.507   2.521   3.728 -1.4711  1.5655 -2.1109
  914ACTN    H6 9593   7.833   3.733   4.549  0.4094  0.0860 -0.5741
  914ACTN    C3 9594   7.889   3.705   4.638  0.1830 -0.1050 -0.4930
  914ACTN    H4 9595   7.831   3.635   4.698  1.2549 -0.3620  0.2593
  914ACTN    H5 9596   7.984   3.664   4.602  1.7474  2.0635  1.0586
  914ACTN    C2 9597   7.930   3.824   4.724  0.9871 -0.0572  0.1585
  914ACTN    O1 9598   7.959   3.813   4.841 -0.2355 -0.7617  0.4176
  914ACTN    C1 9599   7.922   3.962   4.662  0.1273 -0.0296  0.5255
  914ACTN    H1 9600   8.006   4.029   4.681  0.5355 -0.8627  1.7073
  914ACTN    H2 9601   7.829   4.011   4.695 -1.0660 -2.8895  1.5292
  914ACTN    H3 9602   7.910   3.958   4.554 -1.6530  1.8335  0.6095
  915ACTN    H6 9603   6.583   7.501   5.555 -2.0558 -0.6302  0.8084
  915ACTN    C3 9604   6.561   7.565   5.469  0.1034 -0.8618  0.0432
  915ACTN    H4 9605   6.520   7.518   5.380 -0.4344  0.5529 -0.4718
  915ACTN    H5 9606   6.653   7.612   5.434 -0.6615  1.4303  1.0053
  915ACTN    C2 9607   6.477   7.680   5.518  0.0981 -0.5104 -0.0436
  915ACTN    O1 9608   6.460   7.782   5.454 -0.3774  0.5282  0.3750
  915ACTN    C1 9609   6.394   7.668   5.641 -0.2902 -0.0763 -0.5761
  915ACTN    H1 9610   6.458   7.622   5.716 -0.1875  1.9099  0.5839
  915ACTN    H2 9611   6.299   7.617   5.620  0.4237 -0.8477 -2.0321
  915ACTN    H3 9612   6.365   7.768   5.674 -0.1502 -0.2803  0.1633
  916ACTN    H6 9613   1.857   1.883   6.485  3.3975 -0.5369 -1.1577
  916ACTN    C3 9614   1.846   1.774   6.489 -0.0934 -0.2108  0.0642
  916ACTN    H4 9615   1.878   1.729   6.395 -0.7529 -0.0048 -0.2630
  916ACTN    H5 9616   1.900   1.734   6.575  1.8415  0.0237 -0.9956
  916ACTN    C2 9617   1.705   1.742   6.515 -0.5997  0.0332  0.2980
  916ACTN    O1 9618   1.669   1.627   6.495  0.1828 -0.0405 -0.1097
  916ACTN    C1 9619   1.602   1.839   6.545 -0.0181  1.0498  0.1176
  916ACTN    H1 9620   1.526   1.831   6.468  0.8984 -2.0681 -0.5045
  916ACTN    H2 9621   1.640   1.940   6.562  1.2420  1.0397 -2.4026
  916ACTN    H3 9622   1.540   1.804   6.627 -1.0362  0.3548 -0.9389
  917ACTN    H6 9623   0.692   0.082   1.107  0.2095  0.9593  0.1332
  917ACTN    C3 9624   0.592   0.112   1.077 -0.2589 -0.1349  0.5890
  917ACTN    H4 9625   0.537   0.017   1.076  1.1059 -0.9403  0.8347
  917ACTN    H5 9626   0.552   0.176   1.156  0.3749  0.5895  0.3265
  917ACTN    C2 9627   0.590   0.160   0.932 -0.0828 -0.8523  0.0675
  917ACTN    O1 9628   0.592   0.076   0.842  0.5557 -0.0899 -0.2526
  917ACTN    C1 9629   0.608   0.307   0.905  0.4443  0.1805 -0.2103
  917ACTN    H1 9630   0.681   0.344   0.977 -0.0147 -1.1775  0.9797
  917ACTN    H2 9631   0.515   0.359   0.931  0.0530 -0.3889 -0.4555
  917ACTN    H3 9632   0.648   0.324   0.805 -2.4398  0.9553 -1.2828
  918ACTN    H6 9633   4.948   1.498   4.528  0.4038  0.0042  0.9464
  918ACTN    C3 9634   4.847   1.496   4.486  0.6476  0.0782  0.3576
  918ACTN    H4 9635   4.872   1.466   4.384  0.8266 -0.5441  0.5849
  918ACTN    H5 9636   4.788   1.421   4.539  2.8269 -1.1875  1.0965
  918ACTN    C2 9637   4.798   1.639   4.502 -0.4533 -0.1821 -0.5411
  918ACTN    O1 9638   4.741   1.671   4.606  1.0577 -0.4944  0.2827
  918ACTN    C1 9639   4.833   1.748   4.399 -0.3652 -0.0864 -0.2758
  918ACTN    H1 9640   4.755   1.754   4.323  1.0556  0.6030 -1.6817
  918ACTN    H2 9641   4.922   1.712   4.348  1.8653  0.6622  2.9575
  918ACTN    H3 9642   4.847   1.846   4.446  1.8399  0.2485 -1.5940
  919ACTN    H6 9643   6.050   0.804   0.316 -0.1468  0.8035 -0.5257
  919ACTN    C3 9644   5.993   0.887   0.358 -0.1595  0.2923  0.4833
  919ACTN    H4 9645   6.010   0.974   0.294 -1.0032 -0.8478 -1.3439
  919ACTN    H5 9646   5.894   0.846   0.342 -0.4222  1.0163  0.2484
  919ACTN    C2 9647   6.004   0.921   0.506 -0.2099  0.0487 -0.1209
  919ACTN    O1 9648   5.926   1.008   0.542  0.4172 -0.0038 -0.6532
  919ACTN    C1 9649   6.071   0.825   0.602  0.4126  1.0519 -0.1241
  919ACTN    H1 9650   6.084   0.863   0.703  1.2634 -0.6232  0.4233
  919ACTN    H2 9651   6.169   0.793   0.566 -0.6864 -2.0562 -0.4955
  919ACTN    H3 9652   6.009   0.737   0.618 -0.6566  1.8361  0.1136
  920ACTN    H6 9653   8.617   6.054   5.436 -1.1679  0.5927 -0.5899
  920ACTN    C3 9654   8.699   6.072   5.367 -0.6107 -0.0182 -0.0914
  920ACTN    H4 9655   8.766   6.145   5.413  0.1490 -0.8995  0.1986
  920ACTN    H5 9656   8.755   5.979   5.357 -2.2091 -0.9940 -0.1415
  920ACTN    C2 9657   8.662   6.104   5.222  0.1449  0.4678 -1.0296
  920ACTN    O1 9658   8.763   6.108   5.144  0.3517  0.0765  0.6634
  920ACTN    C1 9659   8.531   6.048   5.180 -0.3506  0.3703  0.6249
  920ACTN    H1 9660   8.542   5.940   5.170 -1.4947 -0.2417  5.0129
  920ACTN    H2 9661   8.502   6.092   5.084  0.7522 -3.9025 -1.8092
  920ACTN    H3 9662   8.461   6.073   5.260 -0.2623  1.5679  0.3347
  921ACTN    H6 9663   1.096   1.355   8.674  1.3559  0.1668 -3.6475
  921ACTN    C3 9664   1.201   1.333   8.691  0.6980 -0.4114  0.1515
  921ACTN    H4 9665   1.227   1.238   8.645  0.8105  0.2795 -1.2442
  921ACTN    H5 9666   1.256   1.417   8.648 -0.2639  1.0043  1.6189
  921ACTN    C2 9667   1.224   1.335   8.839  1.1085 -0.4146  0.0568
  921ACTN    O1 9668   1.217   1.440   8.904 -0.1417  0.2576 -0.1025
  921ACTN    C1 9669   1.277   1.207   8.898  0.1197 -0.2032  1.0072
  921ACTN    H1 9670   1.382   1.217   8.925  0.6753  0.6018 -1.2968
  921ACTN    H2 9671   1.284   1.124   8.828 -0.7111  1.0865 -0.6721
  921ACTN    H3 9672   1.223   1.170   8.985  1.2186 -2.5406  0.7191
  922ACTN    H6 9673   4.181   1.026   4.227 -2.1381 -1.5237 -0.4036
  922ACTN    C3 9674   4.124   1.057   4.314 -0.0432  0.0572  0.4397
  922ACTN    H4 9675   4.188   1.045   4.402 -1.9283 -2.5429  1.5163
  922ACTN    H5 9676   4.078   1.154   4.295 -2.6107 -1.1700  0.2871
  922ACTN    C2 9677   4.008   0.969   4.350 -0.1093 -0.7907  0.0502
  922ACTN    O1 9678   4.001   0.863   4.291  0.3583  0.5005  0.3611
  922ACTN    C1 9679   3.949   0.980   4.486  0.6697 -0.1515  0.4857
  922ACTN    H1 9680   3.953   1.081   4.525 -1.5640  0.4513 -0.7409
  922ACTN    H2 9681   4.016   0.928   4.555  0.6190 -1.3556 -0.3538
  922ACTN    H3 9682   3.850   0.937   4.499  0.6141 -0.7010 -1.6489
  923ACTN    H6 9683   8.322   6.680   5.747  0.7925  0.3725 -0.7348
  923ACTN    C3 9684   8.340   6.627   5.653 -0.4582 -0.2322 -0.6501
  923ACTN    H4 9685   8.374   6.694   5.574  0.3384  0.5114  0.3059
  923ACTN    H5 9686   8.422   6.557   5.671 -0.9708 -0.5152  0.6687
  923ACTN    C2 9687   8.207   6.566   5.630 -0.3839  0.4699 -0.2709
  923ACTN    O1 9688   8.172   6.552   5.514 -0.4157  0.0903 -0.3257
  923ACTN    C1 9689   8.144   6.474   5.731  0.6289  0.2534  0.1762
  923ACTN    H1 9690   8.159   6.516   5.830  1.1534  1.3080 -0.3432
  923ACTN    H2 9691   8.182   6.371   5.727  0.1388  0.0260  1.1792
  923ACTN    H3 9692   8.036   6.474   5.715  0.6812 -1.6838 -0.4378
  924ACTN    H6 9693   3.493   7.440   1.645  0.3367  0.1470  0.4573
  924ACTN    C3 9694   3.538   7.533   1.612  0.1255 -0.1601 -0.7088
  924ACTN    H4 9695   3.629   7.547   1.670  0.5107 -1.8740 -0.8625
  924ACTN    H5 9696   3.574   7.524   1.509  1.1810 -1.7988 -0.2095
  924ACTN    C2 9697   3.458   7.656   1.638  0.6643  1.0117  0.4278
  924ACTN    O1 9698   3.490   7.752   1.572  0.0164 -0.3659  0.5192
  924ACTN    C1 9699   3.312   7.637   1.691  0.0482 -0.2735 -0.0287
  924ACTN    H1 9700   3.290   7.530   1.693  0.9741 -0.4594  1.3977
  924ACTN    H2 9701   3.238   7.689   1.631 -1.4328 -1.6823  0.5568
  924ACTN    H3 9702   3.296   7.679   1.790  1.4734  0.3116 -0.0330
  925ACTN    H6 9703   8.073   7.166   4.825  0.9448 -0.4851 -0.3408
  925ACTN    C3 9704   8.109   7.156   4.723  0.3850  0.7074 -0.6608
  925ACTN    H4 9705   8.104   7.256   4.680 -0.0905  0.8934 -0.1774
  925ACTN    H5 9706   8.208   7.115   4.739 -0.4337 -1.7073 -1.4943
  925ACTN    C2 9707   8.011   7.075   4.643  0.6434 -0.1735  0.6405
  925ACTN    O1 9708   8.053   6.973   4.585  0.2793  0.3933 -0.4580
  925ACTN    C1 9709   7.876   7.132   4.618  0.0262  0.5631  0.2406
  925ACTN    H1 9710   7.882   7.238   4.593  0.5358 -0.2043 -3.0231
  925ACTN    H2 9711   7.827   7.106   4.712  1.4204  0.5741  0.9951
  925ACTN    H3 9712   7.809   7.084   4.547  0.8528 -0.2500  0.0014
  926ACTN    H6 9713   7.533   8.842   0.637 -0.0347 -0.4954 -0.0047
  926ACTN    C3 9714   7.424   8.842   0.638 -0.0357 -0.5656 -0.2467
  926ACTN    H4 9715   7.388   8.945   0.644  0.4687 -0.4595  1.0057
  926ACTN    H5 9716   7.381   8.805   0.545 -0.1186 -1.1413  0.0185
  926ACTN    C2 9717   7.379   8.758   0.760  0.1352 -0.5905  0.4267
  926ACTN    O1 9718   7.466   8.716   0.843  0.1181 -0.2220 -0.1911
  926ACTN    C1 9719   7.243   8.697   0.766  0.8641 -0.2316  0.5073
  926ACTN    H1 9720   7.221   8.679   0.661 -0.0302  1.7491  0.3291
  926ACTN    H2 9721   7.170   8.772   0.797  0.3045 -0.7944  0.5716
  926ACTN    H3 9722   7.237   8.611   0.833  0.8286 -0.5119  0.1442
  927ACTN    H6 9723   6.132   2.233   4.163 -0.3121  0.2521 -0.3588
  927ACTN    C3 9724   6.149   2.218   4.057 -0.0575 -0.1476 -0.2604
  927ACTN    H4 9725   6.057   2.178   4.013 -0.3584 -0.2902  0.5026
  927ACTN    H5 9726   6.178   2.309   4.005 -0.2052  0.4330  0.6745
  927ACTN    C2 9727   6.270   2.127   4.042 -0.1746 -0.6849 -0.1319
  927ACTN    O1 9728   6.279   2.031   4.115 -0.1562  0.0698 -0.0373
  927ACTN    C1 9729   6.388   2.170   3.962 -0.5916 -1.0383 -0.8750
  927ACTN    H1 9730   6.480   2.164   4.020  0.1294  2.5762 -1.5224
  927ACTN    H2 9731   6.382   2.275   3.937 -0.3033 -1.1951 -1.6080
  927ACTN    H3 9732   6.390   2.107   3.873  1.7782 -0.2694 -1.3842
  928ACTN    H6 9733   5.847   2.344   8.221  1.3272  0.0901 -0.2831
  928ACTN    C3 9734   5.839   2.391   8.319  0.3881 -0.6117 -0.0197
  928ACTN    H4 9735   5.758   2.463   8.305  3.1578  2.3865 -1.2930
  928ACTN    H5 9736   5.804   2.316   8.391 -2.2775 -0.6022 -1.2588
  928ACTN    C2 9737   5.970   2.459   8.351  0.8165  0.0780 -0.0347
  928ACTN    O1 9738   5.973   2.583   8.371  0.7252  0.1024 -0.5181
  928ACTN    C1 9739   6.097   2.373   8.346 -0.3455 -0.1948 -0.1079
  928ACTN    H1 9740   6.067   2.268   8.340 -1.6608  0.2371 -1.1239
  928ACTN    H2 9741   6.166   2.393   8.429  0.2126  0.0209 -0.6178
  928ACTN    H3 9742   6.141   2.403   8.251 -1.6803 -0.1973 -0.7392
  929ACTN    H6 9743   3.367   6.609   4.903  2.8417  0.6327  0.1554
  929ACTN    C3 9744   3.374   6.657   4.805  0.0368 -0.6279 -0.7034
  929ACTN    H4 9745   3.321   6.751   4.793  1.4288  0.3014  0.3117
  929ACTN    H5 9746   3.475   6.696   4.807 -0.9474  1.9917 -0.3675
  929ACTN    C2 9747   3.356   6.571   4.677  0.0229 -0.3989 -0.7149
  929ACTN    O1 9748   3.337   6.454   4.699 -0.0338 -0.4587 -0.5224
  929ACTN    C1 9749   3.373   6.628   4.544  0.2185 -0.3770 -0.0799
  929ACTN    H1 9750   3.346   6.733   4.542  1.0358 -0.1612 -0.0372
  929ACTN    H2 9751   3.312   6.573   4.472  1.6827  0.1357 -1.7535
  929ACTN    H3 9752   3.477   6.621   4.511  0.1998  1.9289 -0.6638
  930ACTN    H6 9753   0.085   6.840   2.159  1.3592 -1.3998 -0.1150
  930ACTN    C3 9754  -0.014   6.796   2.147  0.7402  0.0936 -0.6189
  930ACTN    H4 9755  -0.015   6.750   2.048  0.7069  0.2966 -0.7130
  930ACTN    H5 9756  -0.025   6.709   2.213 -0.3971  0.9294  0.3007
  930ACTN    C2 9757  -0.125   6.896   2.170  0.7352  0.0877  0.3821
  930ACTN    O1 9758  -0.113   6.999   2.239 -0.3718 -0.4366  0.0656
  930ACTN    C1 9759  -0.256   6.863   2.112  0.0834 -0.1092  0.3099
  930ACTN    H1 9760  -0.298   6.779   2.168 -0.5295  0.4811  0.7335
  930ACTN    H2 9761  -0.240   6.826   2.010  1.5565 -0.7254  0.7407
  930ACTN    H3 9762  -0.331   6.941   2.102 -0.0020 -0.2115  0.1629
  931ACTN    H6 9763   8.405   3.661   5.531  0.2047 -1.1955  0.0075
  931ACTN    C3 9764   8.496   3.709   5.567 -0.3382 -0.1455 -0.0025
  931ACTN    H4 9765   8.460   3.778   5.643 -1.4390 -0.3553 -0.3223
  931ACTN    H5 9766   8.561   3.626   5.594  0.0158 -0.1953 -0.9921
  931ACTN    C2 9767   8.562   3.794   5.461  0.8259  0.0164 -0.1567
  931ACTN    O1 9768   8.495   3.822   5.360 -0.4160 -0.6300 -0.0430
  931ACTN    C1 9769   8.688   3.862   5.502 -0.3236  0.1551  1.0145
  931ACTN    H1 9770   8.756   3.885   5.421 -0.2860 -1.4628  0.5599
  931ACTN    H2 9771   8.738   3.796   5.574  0.4781  0.3938  0.6746
  931ACTN    H3 9772   8.683   3.958   5.552  1.1737  1.4595 -1.2619
  932ACTN    H6 9773   3.175   8.454   5.348  0.0905  0.0980 -0.9341
  932ACTN    C3 9774   3.255   8.380   5.353 -0.2902 -0.2381  0.3709
  932ACTN    H4 9775   3.294   8.378   5.455  0.9546  2.3409 -0.0384
  932ACTN    H5 9776   3.217   8.282   5.325 -0.0562  0.0314 -0.8926
  932ACTN    C2 9777   3.367   8.418   5.261 -0.2205  0.2796 -0.2349
  932ACTN    O1 9778   3.376   8.348   5.161  0.5455  0.0048  0.1346
  932ACTN    C1 9779   3.470   8.521   5.299  0.3695  0.1273 -0.2273
  932ACTN    H1 9780   3.483   8.601   5.226  0.8953 -1.3935 -1.8256
  932ACTN    H2 9781   3.567   8.479   5.326 -0.2564 -2.6153 -2.0850
  932ACTN    H3 9782   3.435   8.579   5.385  2.3961  2.2844 -0.8084
  933ACTN    H6 9783   1.189   5.490   3.157  0.2467 -0.1974  2.5267
  933ACTN    C3 9784   1.084   5.516   3.141  0.6201 -0.0740  0.0743
  933ACTN    H4 9785   1.056   5.586   3.220 -0.9558 -1.2102  0.5494
  933ACTN    H5 9786   1.077   5.562   3.042  1.0916 -0.0196  0.0636
  933ACTN    C2 9787   0.994   5.399   3.148 -0.2350  0.5556 -0.2167
  933ACTN    O1 9788   0.901   5.380   3.072 -0.0381  0.2371 -0.0129
  933ACTN    C1 9789   1.011   5.316   3.274  0.0377 -0.3449 -0.8343
  933ACTN    H1 9790   0.969   5.374   3.356 -0.4240 -1.5064 -0.2378
  933ACTN    H2 9791   1.113   5.292   3.304 -0.4649 -1.2087  0.2334
  933ACTN    H3 9792   0.959   5.221   3.269 -0.1927 -0.3050  0.6512
  934ACTN    H6 9793   0.141   0.109   4.294  0.2376 -0.9474 -1.0629
  934ACTN    C3 9794   0.223   0.059   4.345 -0.2778 -0.5848  0.1365
  934ACTN    H4 9795   0.234   0.113   4.439  2.1010  0.5951 -0.7779
  934ACTN    H5 9796   0.189  -0.043   4.364  0.2602 -1.0566 -1.4105
  934ACTN    C2 9797   0.354   0.074   4.278 -0.1268 -1.0311  0.3719
  934ACTN    O1 9798   0.373   0.011   4.171 -0.8187 -1.0847 -0.2373
  934ACTN    C1 9799   0.457   0.155   4.348 -0.5834  0.0075  0.3652
  934ACTN    H1 9800   0.489   0.238   4.285  0.2606  0.5611  1.4936
  934ACTN    H2 9801   0.540   0.091   4.377 -1.6433 -0.8002  1.6835
  934ACTN    H3 9802   0.421   0.189   4.445 -1.1518 -3.1723  1.3180
  935ACTN    H6 9803   7.186   5.650   2.554 -1.0314 -1.8060 -0.1270
  935ACTN    C3 9804   7.088   5.691   2.580 -0.4681 -0.3446 -0.2163
  935ACTN    H4 9805   7.082   5.718   2.685 -2.9965 -1.0896 -0.1351
  935ACTN    H5 9806   7.076   5.780   2.519  0.0140  0.0842  0.3100
  935ACTN    C2 9807   6.987   5.585   2.534  0.2700 -0.5536  0.2509
  935ACTN    O1 9808   6.877   5.612   2.490  0.3908  0.1368  0.3341
  935ACTN    C1 9809   7.026   5.437   2.549  0.3428  0.1883 -0.2457
  935ACTN    H1 9810   7.016   5.395   2.448  0.3348 -0.8931  0.2022
  935ACTN    H2 9811   6.962   5.385   2.620 -0.2053  0.9549 -0.1678
  935ACTN    H3 9812   7.130   5.419   2.573  0.3544 -0.6351 -0.8716
  936ACTN    H6 9813   7.748   2.890   4.309 -1.3004  1.4057 -2.5873
  936ACTN    C3 9814   7.661   2.928   4.363  0.0288  0.0790  0.5640
  936ACTN    H4 9815   7.669   2.916   4.471 -0.6331 -0.9900  0.5112
  936ACTN    H5 9816   7.648   3.032   4.334  2.0450  0.5363  1.2686
  936ACTN    C2 9817   7.543   2.847   4.310  0.7653 -0.1181 -0.7436
  936ACTN    O1 9818   7.524   2.836   4.190 -0.1905 -0.3808 -0.6545
  936ACTN    C1 9819   7.481   2.750   4.414 -0.1406 -0.2613  0.5113
  936ACTN    H1 9820   7.425   2.811   4.484 -0.5640 -1.0382  0.8618
  936ACTN    H2 9821   7.554   2.695   4.474 -0.0492 -1.4884 -0.6901
  936ACTN    H3 9822   7.419   2.670   4.371  3.4568 -3.4248  0.9323
  937ACTN    H6 9823   6.063   4.886   6.280 -0.4031  1.8986  0.0830
  937ACTN    C3 9824   6.102   4.852   6.184 -0.3607  0.0010  0.7434
  937ACTN    H4 9825   6.084   4.745   6.182  3.0129 -0.5970 -0.5270
  937ACTN    H5 9826   6.043   4.899   6.105  0.0532  0.4586  0.7064
  937ACTN    C2 9827   6.245   4.886   6.156 -0.0841 -0.1594 -0.2811
  937ACTN    O1 9828   6.333   4.842   6.227 -0.1247  0.4353  0.2877
  937ACTN    C1 9829   6.253   5.015   6.077  0.1155  0.4198 -0.0124
  937ACTN    H1 9830   6.185   5.090   6.116  0.7988  1.8982 -1.5842
  937ACTN    H2 9831   6.235   4.995   5.971  1.3317 -1.2384  0.0693
  937ACTN    H3 9832   6.357   5.045   6.087  1.7416 -3.7606 -2.8507
  938ACTN    H6 9833   8.878   4.894   6.579  0.1355  0.1568  3.4739
  938ACTN    C3 9834   8.881   5.002   6.570 -0.2499 -0.0939 -0.7574
  938ACTN    H4 9835   8.956   5.026   6.495 -0.5096 -0.5735 -1.1660
  938ACTN    H5 9836   8.781   5.033   6.541 -1.6968 -0.6806  3.2449
  938ACTN    C2 9837   8.906   5.076   6.699  0.0603  0.3390 -0.7248
  938ACTN    O1 9838   8.954   5.013   6.794  0.1489 -0.4433 -0.2714
  938ACTN    C1 9839   8.884   5.223   6.718  0.4629 -0.9598  0.7540
  938ACTN    H1 9840   8.831   5.273   6.637 -0.5595  3.0917  3.7527
  938ACTN    H2 9841   8.980   5.272   6.733  0.2785 -1.0287  2.2472
  938ACTN    H3 9842   8.826   5.241   6.808 -0.5504 -1.9616  0.3203
  939ACTN    H6 9843   8.264   6.751   1.879  2.1008  0.8715  1.0687
  939ACTN    C3 9844   8.197   6.825   1.922  0.1334 -0.2959  0.0977
  939ACTN    H4 9845   8.172   6.898   1.845  1.8173 -1.1137 -1.2477
  939ACTN    H5 9846   8.109   6.770   1.956  0.2604  0.3222  1.4809
  939ACTN    C2 9847   8.251   6.900   2.039 -0.6266 -0.5623 -0.3247
  939ACTN    O1 9848   8.186   6.920   2.140 -0.3946 -0.4596 -0.0150
  939ACTN    C1 9849   8.393   6.947   2.024 -0.3986 -0.6770  0.5016
  939ACTN    H1 9850   8.410   6.991   1.926 -1.4386  0.1774  0.6936
  939ACTN    H2 9851   8.458   6.860   2.031 -1.4866 -1.4699  1.0512
  939ACTN    H3 9852   8.421   7.025   2.094  1.3421 -0.0710 -0.8432
  940ACTN    H6 9853   1.162   7.628   5.238 -2.0246 -3.3279  1.4760
  940ACTN    C3 9854   1.081   7.699   5.217  0.8764 -0.2054  0.3876
  940ACTN    H4 9855   1.126   7.798   5.211 -0.6026  0.3371 -1.9988
  940ACTN    H5 9856   1.048   7.675   5.116 -1.9221  0.5108  1.1095
  940ACTN    C2 9857   0.972   7.681   5.317 -0.7423 -0.3175  0.5209
  940ACTN    O1 9858   0.981   7.743   5.420 -0.2266 -0.3068 -0.8176
  940ACTN    C1 9859   0.897   7.556   5.314 -1.0903  0.0847  0.2440
  940ACTN    H1 9860   0.955   7.486   5.375 -1.7303  0.5079  1.3562
  940ACTN    H2 9861   0.886   7.510   5.216  0.8876 -2.7277  1.2763
  940ACTN    H3 9862   0.806   7.568   5.373  0.5431  1.7128  2.5126
  941ACTN    H6 9863   0.450   5.234   8.339  0.5969 -0.2578 -0.7775
  941ACTN    C3 9864   0.344   5.207   8.340  0.6830 -0.5774 -0.0579
  941ACTN    H4 9865   0.290   5.246   8.426 -0.8155 -2.8130  0.0649
  941ACTN    H5 9866   0.307   5.262   8.254 -1.2486  0.0871  1.1817
  941ACTN    C2 9867   0.330   5.056   8.311 -0.3620 -0.9117  0.6379
  941ACTN    O1 9868   0.434   4.982   8.314  0.2437  0.5539  0.0269
  941ACTN    C1 9869   0.189   5.006   8.298 -0.1573  0.2928  0.1795
  941ACTN    H1 9870   0.141   5.028   8.393  0.3989  1.2098  0.2486
  941ACTN    H2 9871   0.192   4.898   8.285 -1.5286  0.1070  1.2802
  941ACTN    H3 9872   0.136   5.056   8.217 -1.2284  2.8187  2.3883
  942ACTN    H6 9873   5.542   3.128   5.571  1.4424  1.4942  0.0120
  942ACTN    C3 9874   5.560   3.070   5.662 -0.6522 -0.0775 -0.5508
  942ACTN    H4 9875   5.666   3.045   5.655 -0.3365  1.2036 -0.5564
  942ACTN    H5 9876   5.497   2.982   5.675 -0.6696  0.0955  0.5850
  942ACTN    C2 9877   5.554   3.156   5.788  0.5133  0.8526 -0.0228
  942ACTN    O1 9878   5.542   3.110   5.899  0.0361  0.0850  0.2118
  942ACTN    C1 9879   5.608   3.299   5.781  0.5895  0.2991 -0.3777
  942ACTN    H1 9880   5.519   3.361   5.795  0.9961  1.4231 -2.4451
  942ACTN    H2 9881   5.650   3.315   5.681  0.6402  1.9934 -0.1104
  942ACTN    H3 9882   5.683   3.314   5.859 -1.4627  4.6537  0.9273
  943ACTN    H6 9883   6.841   4.694   0.885 -0.3534 -0.6965 -0.1821
  943ACTN    C3 9884   6.834   4.603   0.944  0.0279 -0.7154 -0.1617
  943ACTN    H4 9885   6.884   4.610   1.040 -1.2233 -0.2880  0.4687
  943ACTN    H5 9886   6.727   4.583   0.948  0.1500 -1.3679 -0.1092
  943ACTN    C2 9887   6.899   4.485   0.880 -0.2451 -0.0669  0.1590
  943ACTN    O1 9888   6.917   4.480   0.761  0.0948 -0.2705 -0.0815
  943ACTN    C1 9889   6.971   4.378   0.972  0.0653 -0.1230 -0.2569
  943ACTN    H1 9890   6.987   4.410   1.075  1.8085  3.5403 -1.5587
  943ACTN    H2 9891   7.072   4.360   0.932  0.1613  0.4335 -0.2699
  943ACTN    H3 9892   6.917   4.284   0.973 -0.7240  0.3412  1.4801
  944ACTN    H6 9893   7.338   8.202   8.670 -1.0332  1.3524 -0.3075
  944ACTN    C3 9894   7.415   8.264   8.715  0.3099 -0.5038  0.0282
  944ACTN    H4 9895   7.369   8.287   8.811 -0.5399 -0.6697 -0.3367
  944ACTN    H5 9896   7.513   8.221   8.733  1.0700  1.4567  0.7531
  944ACTN    C2 9897   7.428   8.379   8.620  0.1231  0.1603 -1.3497
  944ACTN    O1 9898   7.488   8.475   8.657  0.2264  0.0266  0.0220
  944ACTN    C1 9899   7.396   8.354   8.477 -0.3044  0.3189  0.1909
  944ACTN    H1 9900   7.453   8.411   8.403 -0.1183  1.4932  1.2191
  944ACTN    H2 9901   7.294   8.393   8.470 -0.7276  0.2383  4.7011
  944ACTN    H3 9902   7.405   8.248   8.453  0.5587  0.4884 -0.2840
  945ACTN    H6 9903   4.718   0.866   8.055 -0.3004  1.7266  0.3457
  945ACTN    C3 9904   4.615   0.845   8.024  0.2168 -0.4163  0.0139
  945ACTN    H4 9905   4.599   0.918   7.945  0.4965 -0.4552 -0.0789
  945ACTN    H5 9906   4.619   0.746   7.979  2.1979 -1.1793  1.7705
  945ACTN    C2 9907   4.522   0.861   8.133 -0.3237  0.2697 -0.1736
  945ACTN    O1 9908   4.419   0.796   8.132 -0.1698 -0.5770 -0.2775
  945ACTN    C1 9909   4.558   0.940   8.248 -0.1810  0.2872 -0.3210
  945ACTN    H1 9910   4.657   0.985   8.256  1.0574 -2.3334 -0.3971
  945ACTN    H2 9911   4.548   0.876   8.336 -1.4986  2.2326  0.9754
  945ACTN    H3 9912   4.487   1.023   8.248 -1.2708 -0.5957 -2.3165
  946ACTN    H6 9913   1.785   0.326   2.943  0.1037 -0.7701  2.0923
  946ACTN    C3 9914   1.676   0.326   2.929  0.2469  0.2442  0.8888
  946ACTN    H4 9915   1.636   0.397   3.001  2.4195  1.4607  0.9688
  946ACTN    H5 9916   1.649   0.365   2.831 -0.9842  1.5010  1.7128
  946ACTN    C2 9917   1.629   0.189   2.946 -0.3188  0.6151 -0.6938
  946ACTN    O1 9918   1.516   0.169   2.997  0.2853 -0.0035 -0.1257
  946ACTN    C1 9919   1.730   0.077   2.950 -0.5466 -0.9979  0.5969
  946ACTN    H1 9920   1.786   0.088   3.043  0.1045  0.2135  0.0781
  946ACTN    H2 9921   1.801   0.090   2.869 -2.5530  0.1105 -1.0246
  946ACTN    H3 9922   1.672  -0.015   2.951 -0.8326 -0.8776 -2.2645
  947ACTN    H6 9923   5.658   0.945   5.129 -1.3346  0.9624  1.0555
  947ACTN    C3 9924   5.639   1.003   5.039 -0.1906 -0.2625  0.0151
  947ACTN    H4 9925   5.727   1.062   5.013 -1.3032  1.6074  0.4437
  947ACTN    H5 9926   5.552   1.064   5.063  0.3563  0.8250 -0.6934
  947ACTN    C2 9927   5.612   0.912   4.924 -0.2065  0.4619  0.5907
  947ACTN    O1 9928   5.578   0.959   4.812 -0.3497 -0.0931 -0.4512
  947ACTN    C1 9929   5.582   0.766   4.955  0.1304 -0.1173  0.2162
  947ACTN    H1 9930   5.583   0.704   4.865  3.4898  2.2638 -1.4885
  947ACTN    H2 9931   5.478   0.762   4.989  0.5580 -0.4120  1.5342
  947ACTN    H3 9932   5.648   0.721   5.029  0.2671 -1.2405 -0.5735
  948ACTN    H6 9933   4.403   4.344   2.682 -1.4614  0.1079  0.6129
  948ACTN    C3 9934   4.433   4.273   2.759 -0.1536  0.0682  0.0808
  948ACTN    H4 9935   4.350   4.252   2.827 -1.1836 -0.5049 -1.3210
  948ACTN    H5 9936   4.466   4.180   2.714 -0.4872 -0.9315  1.8648
  948ACTN    C2 9937   4.545   4.332   2.838  0.0558 -0.5985  0.8522
  948ACTN    O1 9938   4.653   4.303   2.797  0.2426 -0.0769  0.4988
  948ACTN    C1 9939   4.521   4.458   2.915 -0.2952 -0.2477 -0.5372
  948ACTN    H1 9940   4.562   4.543   2.860 -1.4171 -0.1636 -1.2594
  948ACTN    H2 9941   4.565   4.466   3.014  0.9247  2.5583 -1.2497
  948ACTN    H3 9942   4.418   4.491   2.928  0.6548  2.0439  1.6853
  949ACTN    H6 9943   0.541   4.924   4.204  0.6254  0.1914  1.7273
  949ACTN    C3 9944   0.648   4.905   4.195  0.5086  0.2058  0.0579
  949ACTN    H4 9945   0.687   4.974   4.120  0.8691  0.6664  0.6611
  949ACTN    H5 9946   0.698   4.928   4.290  0.4258 -0.7818  0.3460
  949ACTN    C2 9947   0.680   4.765   4.151 -0.1728 -0.3463 -0.4655
  949ACTN    O1 9948   0.750   4.746   4.047  0.1560  0.1082  0.1440
  949ACTN    C1 9949   0.632   4.651   4.233  0.9444  0.4431 -0.4052
  949ACTN    H1 9950   0.704   4.568   4.237  0.9510  0.3185 -2.3875
  949ACTN    H2 9951   0.534   4.614   4.202  1.0157  0.3102 -0.4753
  949ACTN    H3 9952   0.626   4.690   4.334  2.4045  0.3093 -0.2494
  950ACTN    H6 9953   3.616   7.094   1.894 -1.6783  0.4935 -0.5029
  950ACTN    C3 9954   3.584   6.990   1.901 -0.8214  0.2280 -0.4424
  950ACTN    H4 9955   3.524   6.990   1.991  0.2587  1.1830  0.2913
  950ACTN    H5 9956   3.526   6.970   1.810 -0.2825 -1.1463 -0.4919
  950ACTN    C2 9957   3.698   6.901   1.908 -0.1895 -0.2398 -0.5215
  950ACTN    O1 9958   3.698   6.814   1.996  0.4705  0.4943  0.7754
  950ACTN    C1 9959   3.792   6.882   1.791 -0.6750  0.0423  0.1945
  950ACTN    H1 9960   3.752   6.818   1.713  0.2184  0.1012 -0.3173
  950ACTN    H2 9961   3.890   6.849   1.827 -0.3575 -0.2053 -0.8680
  950ACTN    H3 9962   3.820   6.973   1.738  0.4897  0.1844  1.0337
  951ACTN    H6 9963   8.070   2.848   6.503  3.9216  1.5633  0.8060
  951ACTN    C3 9964   8.072   2.883   6.400  0.1517  0.4463  0.2876
  951ACTN    H4 9965   8.040   2.987   6.394  3.6654  1.5207 -1.3044
  951ACTN    H5 9966   8.174   2.889   6.363 -0.2931 -1.0864 -1.2852
  951ACTN    C2 9967   7.996   2.792   6.296  0.1693 -0.2371  0.2236
  951ACTN    O1 9968   7.928   2.700   6.338 -0.5946 -0.0958 -0.1265
  951ACTN    C1 9969   8.004   2.829   6.148  0.0347  0.2630  1.1205
  951ACTN    H1 9970   7.998   2.740   6.085  2.2226  0.5387  0.4468
  951ACTN    H2 9971   8.088   2.896   6.130 -0.3888  0.2222 -1.2146
  951ACTN    H3 9972   7.918   2.886   6.116  0.9175  0.6777 -0.5905
  952ACTN    H6 9973   8.132   2.285   4.121  0.7369 -0.9624 -0.0892
  952ACTN    C3 9974   8.177   2.334   4.036  0.3119 -0.4406 -0.0113
  952ACTN    H4 9975   8.157   2.267   3.952 -0.9014  1.0348 -0.9268
  952ACTN    H5 9976   8.120   2.426   4.025 -1.6225 -1.6076  0.1841
  952ACTN    C2 9977   8.320   2.364   4.066  0.2016  0.6291  0.1222
  952ACTN    O1 9978   8.359   2.476   4.050  0.1026 -1.0698 -0.0447
  952ACTN    C1 9979   8.402   2.248   4.119  0.2376  0.1050  0.4581
  952ACTN    H1 9980   8.480   2.289   4.184 -0.4552 -0.1158  1.4452
  952ACTN    H2 9981   8.452   2.183   4.048  2.0595 -1.0025  2.6677
  952ACTN    H3 9982   8.346   2.175   4.177  1.4576 -0.1086  1.3991
  953ACTN    H6 9983   2.004   8.953   4.340 -1.7739  0.6220  0.9517
  953ACTN    C3 9984   2.054   9.048   4.361 -0.7162  0.2464  0.2323
  953ACTN    H4 9985   1.980   9.122   4.331 -0.5661 -0.2101 -1.3099
  953ACTN    H5 9986   2.074   9.052   4.468 -0.7126 -1.6972  0.3328
  953ACTN    C2 9987   2.180   9.074   4.283  0.6670  0.8682  0.0429
  953ACTN    O1 9988   2.282   9.094   4.348  0.0296  1.0274  0.1833
  953ACTN    C1 9989   2.188   9.091   4.133  0.7916  0.7014  0.4355
  953ACTN    H1 9990   2.091   9.071   4.087  1.2301 -0.8988  0.1748
  953ACTN    H2 9991   2.254   9.014   4.093  0.6663 -0.1346  1.7942
  953ACTN    H3 9992   2.223   9.191   4.106 -0.7737  0.9297 -0.7747
  954ACTN    H6 9993   8.702   4.206   8.265 -2.2441  0.6451  3.6086
  954ACTN    C3 9994   8.784   4.183   8.334  0.7334  0.7195  0.2460
  954ACTN    H4 9995   8.729   4.181   8.428  1.0169  1.3344  0.4282
  954ACTN    H5 9996   8.838   4.090   8.319 -0.6384 -0.2290  1.0151
  954ACTN    C2 9997   8.876   4.300   8.315 -0.2731 -0.4454 -0.1861
  954ACTN    O1 9998   8.996   4.281   8.308  0.5780 -0.0201 -0.1366
  954ACTN    C1 9999   8.822   4.437   8.352 -0.2015  0.2043  0.1597
  954ACTN    H110000   8.724   4.444   8.306 -0.2842  0.0097  0.3061
  954ACTN    H210001   8.879   4.519   8.308  0.4170  0.4223  1.3423
  954ACTN    H310002   8.802   4.444   8.459  1.0615  0.4933  0.3833
  955ACTN    H610003   6.753   8.269   4.187 -1.0906 -0.6042  0.7442
  955ACTN    C310004   6.845   8.240   4.238 -0.0496  0.8536 -0.2658
  955ACTN    H410005   6.930   8.292   4.194 -0.1512  1.2124 -0.0392
  955ACTN    H510006   6.843   8.283   4.339  0.7773 -0.1836  0.1993
  955ACTN    C210007   6.870   8.094   4.241 -0.3865 -0.5148  0.1966
  955ACTN    O110008   6.786   8.019   4.196 -0.8150 -0.2798  0.8470
  955ACTN    C110009   6.979   8.035   4.330  0.6089  0.2011 -0.8002
  955ACTN    H110010   7.002   7.937   4.287 -0.0221 -0.0522 -0.5772
  955ACTN    H210011   6.952   8.037   4.436 -0.3665 -1.2002 -1.0045
  955ACTN    H310012   7.067   8.098   4.321  0.3353  0.7904  0.4720
  956ACTN    H610013   1.697   1.851   0.975 -0.6137  0.2076  0.5976
  956ACTN    C310014   1.602   1.885   0.934 -0.4471  0.4693  0.4241
  956ACTN    H410015   1.616   1.935   0.838  0.2367  0.0756  0.3134
  956ACTN    H510016   1.528   1.805   0.928 -2.4767  2.3881 -0.5964
  956ACTN    C210017   1.543   1.991   1.021  0.4803  0.6362 -0.5854
  956ACTN    O110018   1.444   2.049   0.972 -0.1617  0.3392  0.7412
  956ACTN    C110019   1.596   2.022   1.159  0.6403  0.3695 -0.5284
  956ACTN    H110020   1.560   2.121   1.188  0.9723  0.3645 -0.0877
  956ACTN    H210021   1.704   2.016   1.144  0.7773 -3.6701  1.3180
  956ACTN    H310022   1.577   1.940   1.229  0.2952 -0.0730 -1.1373
  957ACTN    H610023   3.792   6.848   1.325 -0.8455  6.2961  0.7926
  957ACTN    C310024   3.707   6.844   1.256 -0.1505  0.4824  0.0464
  957ACTN    H410025   3.646   6.926   1.295 -0.1991  0.1191  0.7403
  957ACTN    H510026   3.741   6.863   1.155  2.7625  1.8231  1.2227
  957ACTN    C210027   3.636   6.709   1.270 -0.6200 -1.2853  0.9156
  957ACTN    O110028   3.646   6.647   1.375 -0.0466 -0.1908 -0.3842
  957ACTN    C110029   3.548   6.662   1.160  0.0849  0.0123 -0.5892
  957ACTN    H110030   3.444   6.683   1.184 -0.3951 -3.5916  0.7951
  957ACTN    H210031   3.556   6.554   1.150 -1.7863 -0.2001 -0.0646
  957ACTN    H310032   3.582   6.702   1.065  0.2356  0.6656 -0.2631
  958ACTN    H610033   5.087   7.939   7.749 -1.2443 -1.0612  1.3883
  958ACTN    C310034   5.117   7.927   7.645 -0.4272 -0.3325  1.5257
  958ACTN    H410035   5.043   7.985   7.588  2.1528  0.5041 -1.0905
  958ACTN    H510036   5.092   7.825   7.613 -0.0749  0.5708 -1.8488
  958ACTN    C210037   5.259   7.972   7.618  1.0827 -0.3701 -0.2136
  958ACTN    O110038   5.311   7.951   7.508  0.3427  0.6759  0.6898
  958ACTN    C110039   5.330   8.061   7.724 -0.5008 -0.8997 -0.4523
  958ACTN    H110040   5.431   8.089   7.693 -2.0089  3.1052 -2.0953
  958ACTN    H210041   5.330   8.014   7.823  0.0928 -0.2040 -0.1142
  958ACTN    H310042   5.264   8.146   7.739  1.4337  0.6196 -0.2673
  959ACTN    H610043   6.326   4.805   3.364  0.1931  2.6785  1.3665
  959ACTN    C310044   6.373   4.884   3.306  0.0661  1.6799 -0.1536
  959ACTN    H410045   6.362   4.856   3.202 -0.7448  0.2766  0.3000
  959ACTN    H510046   6.307   4.970   3.320 -2.0601  0.0909 -0.2124
  959ACTN    C210047   6.511   4.900   3.351 -0.2846  0.7822 -0.4497
  959ACTN    O110048   6.603   4.896   3.269 -0.2303 -0.0738  0.2902
  959ACTN    C110049   6.536   4.937   3.492 -0.0733 -0.2688  0.3731
  959ACTN    H110050   6.439   4.923   3.539 -1.3612 -0.0327 -2.1573
  959ACTN    H210051   6.570   5.040   3.504 -1.5807  0.1553  1.0869
  959ACTN    H310052   6.610   4.877   3.546  0.9417  1.6989  1.2188
  960ACTN    H610053   2.697   0.532   2.099 -0.1890 -0.1712 -0.0376
  960ACTN    C310054   2.684   0.640   2.100  0.7437 -0.0581  0.3713
  960ACTN    H410055   2.782   0.683   2.083  0.0790  1.4307  0.2550
  960ACTN    H510056   2.620   0.660   2.014  0.4560 -3.2651 -0.2088
  960ACTN    C210057   2.630   0.686   2.226  0.1381 -0.3486  0.2151
  960ACTN    O110058   2.612   0.804   2.245 -0.0261  0.2375 -0.0383
  960ACTN    C110059   2.601   0.596   2.338  0.1661 -0.3014 -0.5497
  960ACTN    H110060   2.495   0.599   2.360  0.3340  1.3807  0.0890
  960ACTN    H210061   2.651   0.630   2.429 -1.8532 -1.6930  1.1401
  960ACTN    H310062   2.623   0.492   2.314  0.3404  0.0152 -1.7720
  961ACTN    H610063   5.934   1.699   3.561  0.0843 -1.0861  0.3931
  961ACTN    C310064   6.021   1.644   3.526  0.2287 -0.0930 -0.8716
  961ACTN    H410065   5.991   1.587   3.438  1.9411 -2.4494  0.0097
  961ACTN    H510066   6.046   1.583   3.613  0.2265  2.0957  0.7075
  961ACTN    C210067   6.131   1.737   3.497 -0.4488  0.3256  0.1068
  961ACTN    O110068   6.134   1.805   3.399  0.5709 -1.0056  0.4247
  961ACTN    C110069   6.249   1.754   3.589  1.1673 -0.3862  0.1250
  961ACTN    H110070   6.216   1.754   3.693 -1.8505  0.7792 -0.7724
  961ACTN    H210071   6.287   1.855   3.579 -0.2791  0.1722  0.2453
  961ACTN    H310072   6.314   1.669   3.567  1.2921 -0.0758 -0.7204
  962ACTN    H610073   4.609   4.910   2.079  0.1656 -0.3370  0.4799
  962ACTN    C310074   4.648   4.816   2.041 -0.5765 -0.3276 -0.3021
  962ACTN    H410075   4.745   4.802   2.089  0.0116  1.9708 -0.7494
  962ACTN    H510076   4.585   4.733   2.073 -0.4118 -0.4147 -0.1991
  962ACTN    C210077   4.654   4.818   1.889 -0.0982 -0.0480 -0.3429
  962ACTN    O110078   4.755   4.841   1.830  0.0971 -0.3553 -0.3017
  962ACTN    C110079   4.521   4.828   1.820  0.6364 -0.3287 -0.3959
  962ACTN    H110080   4.443   4.848   1.893 -0.5430 -3.2966 -0.7853
  962ACTN    H210081   4.493   4.736   1.771 -0.7246  0.3031 -0.8194
  962ACTN    H310082   4.519   4.913   1.752 -1.4997 -0.0905 -0.0708
  963ACTN    H610083   8.791   0.398   2.092 -0.1650  0.1112  1.2413
  963ACTN    C310084   8.723   0.315   2.075 -0.5236  0.6245  0.1660
  963ACTN    H410085   8.741   0.247   2.157 -0.8421 -0.1688 -0.4115
  963ACTN    H510086   8.618   0.346   2.069  0.1975  2.9882 -1.0161
  963ACTN    C210087   8.752   0.263   1.934  0.2538  0.4992 -0.4526
  963ACTN    O110088   8.774   0.342   1.847 -0.1133 -0.3149 -0.0688
  963ACTN    C110089   8.733   0.119   1.915  0.0633  0.0071  0.5500
  963ACTN    H110090   8.756   0.069   2.010  0.5907  0.6592  0.7690
  963ACTN    H210091   8.798   0.084   1.835 -2.1841  0.8148 -1.6604
  963ACTN    H310092   8.629   0.096   1.895  0.2282  1.0049 -1.4908
  964ACTN    H610093   2.468   4.536   1.047  0.6389 -1.3953  2.0082
  964ACTN    C310094   2.391   4.556   1.121  0.4883  0.3212  1.4065
  964ACTN    H410095   2.370   4.662   1.111  0.9212  0.2044 -1.1564
  964ACTN    H510096   2.306   4.494   1.091  1.8702 -1.4866  1.1492
  964ACTN    C210097   2.456   4.507   1.244  0.8512  0.6788 -0.0026
  964ACTN    O110098   2.543   4.582   1.289 -0.2027  0.0013 -0.4354
  964ACTN    C110099   2.436   4.370   1.302  0.2986  0.5064 -0.3739
  964ACTN    H110100   2.536   4.333   1.325  0.0937  1.4885  2.2787
  964ACTN    H210101   2.384   4.304   1.233  0.2137 -1.1618  1.2383
  964ACTN    H310102   2.374   4.361   1.391 -0.9106 -1.6679 -1.3966
  965ACTN    H610103   2.050   4.987   5.790 -0.2315 -0.7045 -0.3013
  965ACTN    C310104   2.116   5.025   5.713  0.0922 -0.1205  0.2534
  965ACTN    H410105   2.074   5.119   5.676  2.7461  1.7755  1.9324
  965ACTN    H510106   2.214   5.040   5.758  0.6940 -0.1118 -1.0135
  965ACTN    C210107   2.126   4.923   5.599  0.0749  0.0915  0.7285
  965ACTN    O110108   2.137   4.800   5.610  0.2328  0.2123 -0.2915
  965ACTN    C110109   2.145   4.983   5.462  0.0825 -0.5285  0.3288
  965ACTN    H110110   2.243   5.029   5.451  1.6330 -3.3750  1.7433
  965ACTN    H210111   2.065   5.056   5.449  0.8022  0.0435 -0.9940
  965ACTN    H310112   2.128   4.913   5.380 -2.1129  1.5579 -1.0565
  966ACTN    H610113   7.706   1.470   5.172 -0.4875 -0.1761  0.0092
  966ACTN    C310114   7.757   1.440   5.080  0.3364  0.3386  0.2861
  966ACTN    H410115   7.728   1.509   5.001 -2.0778  0.6532  1.3909
  966ACTN    H510116   7.864   1.434   5.096  0.4557  1.0457 -0.2139
  966ACTN    C210117   7.715   1.302   5.029  0.5904  0.2622 -0.3850
  966ACTN    O110118   7.756   1.268   4.918  0.3495 -0.2248  0.2407
  966ACTN    C110119   7.688   1.198   5.130  0.6782  0.1406  0.4691
  966ACTN    H110120   7.592   1.222   5.176  0.4223 -2.2953  1.3107
  966ACTN    H210121   7.762   1.212   5.209  3.8102 -1.8566 -1.9839
  966ACTN    H310122   7.689   1.093   5.100 -0.9374 -0.0602  1.0326
  967ACTN    H610123   8.774   5.079   5.032 -0.4170  2.1700 -0.3357
  967ACTN    C310124   8.686   5.066   4.968 -0.5332  0.3789  0.1416
  967ACTN    H410125   8.711   5.112   4.872 -0.2859 -1.1549 -0.5465
  967ACTN    H510126   8.666   4.959   4.961 -0.2701  0.3571 -0.3080
  967ACTN    C210127   8.563   5.124   5.032  0.5292  1.8973  0.3823
  967ACTN    O110128   8.511   5.226   4.981  0.4293 -0.1927  0.5018
  967ACTN    C110129   8.491   5.059   5.142  0.3838  0.4007  0.3993
  967ACTN    H110130   8.479   5.142   5.212  0.2732  1.1180 -0.4630
  967ACTN    H210131   8.556   4.985   5.189 -0.5807 -2.3640 -2.4748
  967ACTN    H310132   8.391   5.018   5.124  1.5757 -2.1205 -0.7269
  968ACTN    H610133   2.276   2.020   3.338  0.5612  0.2704 -0.9056
  968ACTN    C310134   2.334   1.928   3.338  0.1305 -0.0082  0.0699
  968ACTN    H410135   2.441   1.948   3.335 -0.0952  1.1364 -0.4978
  968ACTN    H510136   2.308   1.866   3.423 -2.2059  0.0566 -0.5712
  968ACTN    C210137   2.269   1.848   3.218  0.8363  0.3716 -0.2433
  968ACTN    O110138   2.333   1.784   3.144 -0.3333  0.3924  0.4418
  968ACTN    C110139   2.121   1.835   3.213 -1.1036 -0.1035 -0.5672
  968ACTN    H110140   2.097   1.774   3.300 -0.4650 -0.5244 -0.6840
  968ACTN    H210141   2.080   1.792   3.122 -1.7448  1.4213 -1.0304
  968ACTN    H310142   2.075   1.932   3.233 -0.8287 -0.0899 -0.0021
  969ACTN    H610143   4.607   6.188   1.624  0.2036  0.6960  2.0098
  969ACTN    C310144   4.614   6.277   1.562 -0.4220 -0.4830  0.1845
  969ACTN    H410145   4.573   6.261   1.462 -3.9907 -2.2216  1.8408
  969ACTN    H510146   4.551   6.353   1.609  0.2344  0.2165 -0.0516
  969ACTN    C210147   4.748   6.327   1.552 -0.4083  0.6406  0.2600
  969ACTN    O110148   4.774   6.397   1.459  0.3042  0.3080  0.4747
  969ACTN    C110149   4.857   6.263   1.627 -0.0991  0.1461  0.9559
  969ACTN    H110150   4.856   6.309   1.725  0.6563  1.0653  0.5447
  969ACTN    H210151   4.953   6.274   1.576 -0.4445 -1.6471 -0.1206
  969ACTN    H310152   4.836   6.156   1.630 -0.4847  0.2591  3.4068
  970ACTN    H610153   5.249   3.602   1.633  1.0366  0.0484  0.1896
  970ACTN    C310154   5.196   3.681   1.687 -0.2295 -0.5027 -0.2417
  970ACTN    H410155   5.206   3.769   1.624 -1.7008  0.9072  1.4501
  970ACTN    H510156   5.092   3.647   1.685  0.3912 -2.4499 -1.9551
  970ACTN    C210157   5.237   3.720   1.833 -0.4489  0.3137 -0.4403
  970ACTN    O110158   5.323   3.801   1.847  0.1731  0.0376  0.3898
  970ACTN    C110159   5.180   3.649   1.948 -0.7026  0.5398  0.0445
  970ACTN    H110160   5.077   3.625   1.920 -0.1624  1.1797 -2.6100
  970ACTN    H210161   5.185   3.704   2.042 -0.0066  2.1966 -0.9375
  970ACTN    H310162   5.229   3.552   1.952  3.3932  2.4904 -0.4891
  971ACTN    H610163   4.601   3.515   0.504 -0.4903  0.8548 -2.0732
  971ACTN    C310164   4.544   3.422   0.503  0.4219  0.2447 -0.4229
  971ACTN    H410165   4.462   3.437   0.433 -1.7818  0.9551  2.2181
  971ACTN    H510166   4.610   3.345   0.464 -0.7670  0.6197 -3.3253
  971ACTN    C210167   4.478   3.394   0.635  1.0983 -0.5254 -0.7085
  971ACTN    O110168   4.359   3.417   0.650 -1.1070 -0.3930 -0.2475
  971ACTN    C110169   4.565   3.345   0.745 -0.7037  0.0097  0.1786
  971ACTN    H110170   4.551   3.406   0.834  1.1184 -2.7480  2.4306
  971ACTN    H210171   4.666   3.365   0.710 -0.5261  0.3439  0.8690
  971ACTN    H310172   4.552   3.239   0.768 -1.8632 -0.3749 -2.0909
  972ACTN    H610173   6.321   4.262   4.800  0.1768 -0.0015 -1.8085
  972ACTN    C310174   6.242   4.329   4.766 -0.4886  0.2196  0.0975
  972ACTN    H410175   6.248   4.419   4.827 -2.1995 -0.2186  0.9247
  972ACTN    H510176   6.261   4.355   4.662 -2.2242 -0.2479 -0.3484
  972ACTN    C210177   6.111   4.257   4.797  0.3173 -0.7056  0.0735
  972ACTN    O110178   6.013   4.265   4.725  0.0871 -0.0619  0.5256
  972ACTN    C110179   6.110   4.192   4.936 -0.1431 -0.3085  0.2646
  972ACTN    H110180   6.067   4.092   4.932  0.3495 -0.5654  1.4245
  972ACTN    H210181   6.047   4.258   4.995 -1.2168  0.2805 -1.4839
  972ACTN    H310182   6.205   4.200   4.987  0.5366 -2.0446 -0.6768
  973ACTN    H610183   4.679   5.146   1.548  0.2451  0.0275 -0.6661
  973ACTN    C310184   4.682   5.170   1.441  0.0208  0.4983 -0.5707
  973ACTN    H410185   4.745   5.097   1.389  0.3793 -0.0237  0.5591
  973ACTN    H510186   4.580   5.175   1.404 -0.4630 -0.3987  0.5873
  973ACTN    C210187   4.728   5.306   1.431  0.1730  0.1853  0.3009
  973ACTN    O110188   4.836   5.333   1.477  0.0156 -0.3496 -0.0087
  973ACTN    C110189   4.653   5.420   1.364 -0.4326 -0.4410 -0.4535
  973ACTN    H110190   4.600   5.479   1.440  0.3280  0.6887 -0.7896
  973ACTN    H210191   4.578   5.383   1.295  1.1761 -0.8766 -1.9972
  973ACTN    H310192   4.711   5.486   1.300 -0.0106  1.1922  1.5187
  974ACTN    H610193   1.453   6.413   8.959  2.9654 -2.5999 -1.8279
  974ACTN    C310194   1.402   6.333   9.014  0.1409  0.4706  0.1751
  974ACTN    H410195   1.483   6.280   9.063  1.5649  0.7711 -1.7733
  974ACTN    H510196   1.349   6.382   9.096  2.4197  2.9828  0.2323
  974ACTN    C210197   1.328   6.250   8.917  0.1864  0.0692 -0.0415
  974ACTN    O110198   1.208   6.275   8.885 -0.3350  0.0372 -0.4373
  974ACTN    C110199   1.402   6.126   8.872 -0.1816 -0.8092  0.4006
  974ACTN    H110200   1.395   6.115   8.764  0.8819 -2.9532  0.5257
  974ACTN    H210201   1.361   6.038   8.922 -0.3972 -1.7471 -1.3857
  974ACTN    H310202   1.505   6.141   8.904 -0.1282 -1.0107  0.3226
  975ACTN    H610203   5.491   8.484   5.788 -0.9590 -2.5095 -0.7155
  975ACTN    C310204   5.409   8.475   5.859 -0.2888 -0.0367  0.4242
  975ACTN    H410205   5.367   8.574   5.875 -3.8167 -1.3363 -0.4556
  975ACTN    H510206   5.336   8.411   5.810 -1.5753  1.5794  0.2105
  975ACTN    C210207   5.464   8.422   5.986  0.1023 -0.0432 -0.0244
  975ACTN    O110208   5.507   8.504   6.062  0.1853 -0.9225 -0.4056
  975ACTN    C110209   5.480   8.275   6.003 -0.2382  0.3829  0.0433
  975ACTN    H110210   5.489   8.230   5.904 -2.9547 -1.2970  0.5074
  975ACTN    H210211   5.391   8.232   6.050 -0.5266  1.4414  0.4827
  975ACTN    H310212   5.569   8.252   6.060  1.1179  0.5696 -1.9588
  976ACTN    H610213   4.485   6.985   4.480  0.8000  0.2911  0.8504
  976ACTN    C310214   4.548   7.021   4.400 -0.1376  0.6423  0.2632
  976ACTN    H410215   4.647   7.036   4.444  1.7736  0.1707 -3.6409
  976ACTN    H510216   4.577   6.951   4.321 -1.3865 -1.1412  1.3639
  976ACTN    C210217   4.509   7.156   4.353  0.2450 -0.0466 -0.4605
  976ACTN    O110218   4.422   7.168   4.270 -0.0476  0.2934 -0.2378
  976ACTN    C110219   4.539   7.275   4.450 -0.3009 -0.8124  0.2946
  976ACTN    H110220   4.491   7.366   4.414  0.1406 -1.3049 -1.5967
  976ACTN    H210221   4.646   7.290   4.434 -0.0099 -2.2736  0.8571
  976ACTN    H310222   4.517   7.252   4.554  1.3173 -0.6376  0.6810
  977ACTN    H610223   3.806   5.899   4.354 -2.6736  0.6908  0.9162
  977ACTN    C310224   3.764   5.915   4.255  0.6215  0.4270 -0.6244
  977ACTN    H410225   3.693   5.998   4.263 -0.4771 -0.5155 -0.3933
  977ACTN    H510226   3.842   5.948   4.187  2.0166  3.5103  2.2901
  977ACTN    C210227   3.700   5.793   4.196  0.3090 -1.0212 -0.0453
  977ACTN    O110228   3.767   5.691   4.177 -0.0436 -0.0715 -0.3617
  977ACTN    C110229   3.569   5.820   4.143 -0.0247 -0.6436 -0.1751
  977ACTN    H110230   3.582   5.897   4.067  1.0738  0.4702  1.1272
  977ACTN    H210231   3.507   5.864   4.221  0.2124  0.7129 -0.7408
  977ACTN    H310232   3.523   5.729   4.105  0.4173 -0.8899 -0.1232
  978ACTN    H610233   5.324   2.076   6.194  2.5799 -0.9329 -0.6234
  978ACTN    C310234   5.394   2.159   6.207  0.7218  0.5819  0.0322
  978ACTN    H410235   5.386   2.215   6.113  1.0439 -0.4032 -0.5877
  978ACTN    H510236   5.359   2.226   6.286 -1.9349  0.7141 -1.1973
  978ACTN    C210237   5.528   2.103   6.224 -0.4956 -0.3078 -0.2097
  978ACTN    O110238   5.574   2.002   6.167 -0.4540 -0.3557  0.2330
  978ACTN    C110239   5.625   2.205   6.279  0.1372 -0.3427 -0.0494
  978ACTN    H110240   5.663   2.165   6.373 -1.2778 -0.5173  0.4568
  978ACTN    H210241   5.577   2.303   6.286 -1.2605 -1.0458  0.3886
  978ACTN    H310242   5.712   2.206   6.213 -0.2443 -0.1124 -0.5483
  979ACTN    H610243   0.394   0.770   2.009  2.6922 -0.7782  1.2850
  979ACTN    C310244   0.336   0.752   2.100 -1.0163  0.9078 -0.6337
  979ACTN    H410245   0.394   0.699   2.176 -0.7612  0.1087 -1.3759
  979ACTN    H510246   0.303   0.847   2.143  0.3189  1.5282 -0.9501
  979ACTN    C210247   0.201   0.685   2.062  1.1258  0.2825 -0.0704
  979ACTN    O110248   0.189   0.591   1.986 -0.6972  0.0529 -0.0731
  979ACTN    C110249   0.067   0.721   2.123 -0.3555 -0.1957 -0.4624
  979ACTN    H110250   0.025   0.815   2.088 -1.6188 -1.1932 -1.6743
  979ACTN    H210251   0.063   0.713   2.232 -2.6188 -2.7876 -0.6822
  979ACTN    H310252  -0.008   0.652   2.084 -0.5438 -1.5265  2.1044
  980ACTN    H610253   7.163   4.900   8.153 -0.4878  2.2500  0.5701
  980ACTN    C310254   7.185   4.864   8.253  0.4620 -0.0828 -0.4496
  980ACTN    H410255   7.133   4.769   8.265 -0.7160  0.8287  2.1115
  980ACTN    H510256   7.292   4.850   8.272  0.4225  0.7214  0.4617
  980ACTN    C210257   7.123   4.960   8.352 -0.1384 -0.2634 -0.4465
  980ACTN    O110258   7.192   5.040   8.415 -0.2866  0.3661  0.1930
  980ACTN    C110259   6.973   4.978   8.353 -0.3108 -0.2531  0.5197
  980ACTN    H110260   6.943   4.961   8.456  1.1519 -1.8376  0.7084
  980ACTN    H210261   6.912   4.920   8.285  0.4659  1.2709 -1.5335
  980ACTN    H310262   6.953   5.080   8.321  1.9740 -0.3048 -1.1424
  981ACTN    H610263   4.473   4.928   8.554 -0.4848 -0.3917  0.0589
  981ACTN    C310264   4.526   4.897   8.645 -0.3185 -0.0511  0.0832
  981ACTN    H410265   4.581   4.805   8.626  0.2955  0.3579 -0.1064
  981ACTN    H510266   4.607   4.967   8.664  0.8703 -1.0612 -1.1413
  981ACTN    C210267   4.433   4.886   8.769 -0.0056 -0.4996 -0.5452
  981ACTN    O110268   4.321   4.841   8.766 -0.3871  0.0136 -0.0733
  981ACTN    C110269   4.479   4.977   8.875 -0.6242  0.1853  0.3175
  981ACTN    H110270   4.537   5.060   8.837 -0.9740 -0.1381 -0.9333
  981ACTN    H210271   4.546   4.917   8.938 -0.6173 -1.0922 -0.8819
  981ACTN    H310272   4.395   5.003   8.940 -1.2228 -0.0422 -0.3646
  982ACTN    H610273   7.837   5.447   0.063  1.1756 -0.3767 -1.6294
  982ACTN    C310274   7.911   5.517   0.102 -0.2135  0.1163  0.1515
  982ACTN    H410275   7.926   5.509   0.210 -2.0431  1.3616  0.5307
  982ACTN    H510276   8.004   5.512   0.046  1.0220  1.6561  1.9837
  982ACTN    C210277   7.859   5.650   0.069 -0.0886 -0.6199  0.4898
  982ACTN    O110278   7.883   5.735   0.151  0.3645 -0.5035 -0.0145
  982ACTN    C110279   7.799   5.666  -0.066  0.3900  0.5211  0.6239
  982ACTN    H110280   7.873   5.666  -0.147  1.3892  0.4557  1.5177
  982ACTN    H210281   7.745   5.760  -0.078  0.9851  0.6132 -1.6695
  982ACTN    H310282   7.732   5.582  -0.084  0.8516 -0.0026  1.3231
  983ACTN    H610283   1.620   6.965   4.341 -1.1038 -1.9517 -0.9679
  983ACTN    C310284   1.533   7.031   4.336 -0.0774 -0.4206  0.5630
  983ACTN    H410285   1.571   7.117   4.281 -0.6783 -1.8397 -2.2059
  983ACTN    H510286   1.454   6.992   4.272 -2.5040  3.1417  1.2777
  983ACTN    C210287   1.467   7.067   4.467  0.2293  0.6306  0.2560
  983ACTN    O110288   1.417   6.981   4.544 -0.9500  0.5430 -0.2881
  983ACTN    C110289   1.441   7.218   4.499  0.3043  0.3491 -0.1700
  983ACTN    H110290   1.338   7.251   4.513  1.3066  4.6593 -2.0627
  983ACTN    H210291   1.476   7.281   4.417 -1.6179 -0.4985 -1.6760
  983ACTN    H310292   1.504   7.239   4.586  1.1204 -1.8192 -0.2013
  984ACTN    H610293   4.318   5.461   6.379  0.7185  0.4506 -0.7990
  984ACTN    C310294   4.353   5.366   6.338 -0.6225  0.0755 -1.0994
  984ACTN    H410295   4.322   5.356   6.234  2.3802 -0.3908 -1.9963
  984ACTN    H510296   4.461   5.352   6.342 -0.5896  0.2397 -1.3842
  984ACTN    C210297   4.283   5.254   6.401 -0.4494 -0.0539 -0.2893
  984ACTN    O110298   4.347   5.158   6.430 -0.0455  0.0101 -0.3754
  984ACTN    C110299   4.136   5.263   6.443  0.4655 -0.6028  0.4603
  984ACTN    H110300   4.068   5.260   6.358 -0.5962  0.4493  1.2629
  984ACTN    H210301   4.120   5.362   6.485  1.2686 -0.8034  1.2655
  984ACTN    H310302   4.104   5.185   6.513 -2.9232 -0.4928 -0.8825
  985ACTN    H610303   2.867   5.999   2.987  0.5010 -2.2776  3.1496
  985ACTN    C310304   2.762   5.975   2.969  0.3960  0.5391 -0.4799
  985ACTN    H410305   2.709   6.068   2.951  0.2269  0.1932 -1.8221
  985ACTN    H510306   2.750   5.917   2.877 -1.1384  0.6736 -0.3775
  985ACTN    C210307   2.694   5.897   3.073 -0.1304  0.3512 -0.3322
  985ACTN    O110308   2.644   5.949   3.173 -0.5444 -0.6607 -0.0028
  985ACTN    C110309   2.687   5.748   3.051 -0.0368  0.5453 -0.8116
  985ACTN    H110310   2.629   5.722   2.962 -0.9936 -2.1032  0.5259
  985ACTN    H210311   2.643   5.685   3.128 -0.1415  0.0161 -1.2941
  985ACTN    H310312   2.787   5.711   3.030  0.1974  1.2532 -0.9547
  986ACTN    H610313   4.091   6.696   4.069  1.5837  2.3346 -0.6975
  986ACTN    C310314   4.186   6.645   4.053  0.2244 -0.4938 -0.0350
  986ACTN    H410315   4.226   6.601   4.145  2.9071 -0.1342 -0.9895
  986ACTN    H510316   4.170   6.566   3.980  0.9311 -0.6938  0.0172
  986ACTN    C210317   4.284   6.742   4.013 -0.5178 -0.4220  0.0645
  986ACTN    O110318   4.283   6.786   3.898 -0.4444  0.6490 -0.5551
  986ACTN    C110319   4.374   6.808   4.113 -0.5871  0.2232  0.5201
  986ACTN    H110320   4.326   6.868   4.190 -1.6990 -1.1832  0.9201
  986ACTN    H210321   4.449   6.867   4.060  0.9131  0.0284  2.3663
  986ACTN    H310322   4.425   6.724   4.161 -0.1867  1.1866  1.8191
  987ACTN    H610323   7.857   8.471   5.839  2.0946  0.4639  1.1154
  987ACTN    C310324   7.908   8.410   5.764 -0.5787 -0.6024  0.0825
  987ACTN    H410325   7.869   8.420   5.663  1.2824 -0.7202 -0.6625
  987ACTN    H510326   8.016   8.422   5.775 -0.4931 -1.8299  0.7861
  987ACTN    C210327   7.880   8.269   5.801  0.1477 -0.2550  0.1912
  987ACTN    O110328   7.966   8.190   5.844 -0.3233 -0.3790  0.0018
  987ACTN    C110329   7.738   8.210   5.800 -0.1036  0.0197 -0.2067
  987ACTN    H110330   7.731   8.130   5.725  0.5834  1.4494 -1.8215
  987ACTN    H210331   7.660   8.283   5.777 -1.1516 -0.7467  0.8521
  987ACTN    H310332   7.722   8.166   5.898 -1.6204 -2.3410 -1.4584
  988ACTN    H610333   6.250   2.947   5.657 -1.0794  1.5204 -1.9950
  988ACTN    C310334   6.336   3.011   5.638  0.1582  0.3017 -0.6265
  988ACTN    H410335   6.299   3.112   5.621 -2.0514 -0.3403  0.2528
  988ACTN    H510336   6.397   3.005   5.728 -1.1953 -0.2846  0.2722
  988ACTN    C210337   6.417   2.969   5.517 -0.3102 -0.1353 -0.2838
  988ACTN    O110338   6.357   2.949   5.409 -0.0437 -0.2050  0.0699
  988ACTN    C110339   6.552   2.901   5.540 -0.2650  0.0861 -0.3786
  988ACTN    H110340   6.608   2.910   5.447  2.5033  1.0794  1.3043
  988ACTN    H210341   6.528   2.796   5.554  0.6363 -0.2611 -1.3398
  988ACTN    H310342   6.598   2.943   5.629 -1.9070  2.5095 -0.6253
  989ACTN    H610343   4.356   4.499   0.023 -0.1441  0.5028 -0.2090
  989ACTN    C310344   4.382   4.602   0.046  0.1788  0.3484  0.1286
  989ACTN    H410345   4.359   4.662  -0.043 -1.3126 -0.2462  0.0901
  989ACTN    H510346   4.321   4.637   0.130 -0.0383  1.0298 -0.3039
  989ACTN    C210347   4.524   4.613   0.085  0.0510 -0.1832 -0.3908
  989ACTN    O110348   4.606   4.663   0.010  0.3167  0.3225 -0.2210
  989ACTN    C110349   4.576   4.552   0.206 -0.2464  0.7909  0.2919
  989ACTN    H110350   4.652   4.477   0.183 -2.2426 -1.9701  2.3408
  989ACTN    H210351   4.498   4.496   0.257 -0.9964 -0.0941 -1.7509
  989ACTN    H310352   4.621   4.622   0.276  0.4326 -0.2435  0.9065
  990ACTN    H610353   5.715   8.277   5.333  0.0889  0.5732 -0.6037
  990ACTN    C310354   5.782   8.223   5.266 -0.1272 -0.5468  0.0851
  990ACTN    H410355   5.711   8.166   5.206  0.0426  0.3523 -0.9690
  990ACTN    H510356   5.842   8.294   5.210  1.2322  0.3121  2.5340
  990ACTN    C210357   5.859   8.116   5.335  0.8457  0.3494  0.2181
  990ACTN    O110358   5.838   8.095   5.456 -0.0531  0.1855  0.2760
  990ACTN    C110359   5.949   8.023   5.265 -0.0238 -0.0781  0.0757
  990ACTN    H110360   6.039   8.083   5.249 -0.1196 -0.5602 -2.4294
  990ACTN    H210361   5.906   7.999   5.167  0.0822  1.0776 -0.2658
  990ACTN    H310362   5.981   7.937   5.323 -1.6034 -0.9505 -0.3149
  991ACTN    H610363   0.604   5.282   8.914  0.1305 -0.5594  2.5668
  991ACTN    C310364   0.518   5.215   8.908 -0.1527 -0.0359  0.1240
  991ACTN    H410365   0.428   5.274   8.893 -0.1666 -0.0746  0.0591
  991ACTN    H510366   0.498   5.158   8.999  2.4976 -2.5288 -0.7982
  991ACTN    C210367   0.546   5.117   8.801 -0.0507 -0.3961  0.6254
  991ACTN    O110368   0.555   4.999   8.829  0.6650  0.1409  0.0653
  991ACTN    C110369   0.560   5.168   8.658 -0.1622  0.3338  0.0519
  991ACTN    H110370   0.469   5.221   8.629 -0.2397 -1.2886 -2.8634
  991ACTN    H210371   0.571   5.095   8.578  0.8112  0.5786 -0.0341
  991ACTN    H310372   0.646   5.235   8.655 -1.1587  1.6018 -0.6995
  992ACTN    H610373   0.396   2.510   7.940 -0.9105 -2.1597 -1.2850
  992ACTN    C310374   0.306   2.525   7.999  0.3867  0.1528  0.1996
  992ACTN    H410375   0.286   2.632   7.995 -0.1324  0.0454 -0.0981
  992ACTN    H510376   0.227   2.469   7.948 -0.4005  0.0204  1.5288
  992ACTN    C210377   0.321   2.480   8.138  0.3608  0.3879 -0.7345
  992ACTN    O110378   0.346   2.357   8.157  0.0984 -0.6282  0.0093
  992ACTN    C110379   0.329   2.577   8.256  0.3064 -0.3256 -0.6235
  992ACTN    H110380   0.232   2.622   8.279  0.6720  1.0921 -1.7577
  992ACTN    H210381   0.400   2.658   8.236  1.5288 -1.8469 -2.6755
  992ACTN    H310382   0.370   2.531   8.346 -0.0312 -1.2841 -0.9574
  993ACTN    H610383   3.152   0.254   4.636  1.9448 -1.6550  0.4521
  993ACTN    C310384   3.158   0.316   4.726  0.5139 -0.6974 -0.0920
  993ACTN    H410385   3.058   0.326   4.767  0.1765  1.6341 -1.4250
  993ACTN    H510386   3.232   0.285   4.799 -1.9098  0.7631  3.0789
  993ACTN    C210387   3.194   0.456   4.671 -0.2769  0.5533  0.1303
  993ACTN    O110388   3.135   0.556   4.698 -0.2394  0.5828  0.3641
  993ACTN    C110389   3.318   0.471   4.589  0.2087  0.7053 -0.1101
  993ACTN    H110390   3.366   0.378   4.559 -2.6533 -0.7367 -0.3544
  993ACTN    H210391   3.397   0.538   4.626  0.3316  1.9305 -2.5278
  993ACTN    H310392   3.285   0.519   4.497  0.4920  0.2395 -0.4537
  994ACTN    H610393   5.719   2.624   7.411  1.1752  2.0442 -1.5500
  994ACTN    C310394   5.800   2.550   7.411 -0.2963  0.3959  0.2297
  994ACTN    H410395   5.857   2.564   7.502  1.0431 -0.8950 -0.4060
  994ACTN    H510396   5.863   2.572   7.325 -0.4753  1.0968  0.2707
  994ACTN    C210397   5.736   2.416   7.422  0.0352  0.1446 -1.0118
  994ACTN    O110398   5.625   2.411   7.473 -0.1860  0.0663 -0.6850
  994ACTN    C110399   5.790   2.300   7.343  0.3610  0.0914  0.3108
  994ACTN    H110400   5.898   2.317   7.341  0.5419 -1.1256 -0.9563
  994ACTN    H210401   5.751   2.304   7.241 -1.7959 -2.4408  0.9949
  994ACTN    H310402   5.762   2.205   7.388  0.4878 -0.9566 -1.7542
  995ACTN    H610403   2.686   2.397   8.300  0.0429  0.5769 -0.2718
  995ACTN    C310404   2.680   2.421   8.406 -0.1889  0.8265 -0.3397
  995ACTN    H410405   2.681   2.529   8.417 -0.5728  0.6743  1.4107
  995ACTN    H510406   2.582   2.381   8.435  0.8810 -1.1044  0.7232
  995ACTN    C210407   2.796   2.360   8.476  0.0890  0.3153  0.9093
  995ACTN    O110408   2.789   2.301   8.584  0.7555  0.3731 -0.2235
  995ACTN    C110409   2.928   2.335   8.402 -0.3837 -0.0868 -0.4430
  995ACTN    H110410   3.007   2.366   8.470 -0.8144 -0.9676  0.4618
  995ACTN    H210411   2.934   2.387   8.306  0.8864  1.9064  0.6786
  995ACTN    H310412   2.944   2.229   8.383 -1.5972  0.1834 -3.1534
  996ACTN    H610413   0.024   2.112   8.636 -1.0987 -0.3510  0.1991
  996ACTN    C310414   0.080   2.044   8.700 -1.2460 -0.0842  0.6119
  996ACTN    H410415   0.031   1.949   8.676 -0.1349 -0.3530 -0.6115
  996ACTN    H510416   0.186   2.047   8.675 -1.4085 -2.1001 -0.4803
  996ACTN    C210417   0.053   2.053   8.844  0.2578  0.1781  0.5067
  996ACTN    O110418   0.011   2.163   8.882  0.4102 -0.5711 -0.2217
  996ACTN    C110419   0.093   1.953   8.944 -0.2504  0.4287 -0.0972
  996ACTN    H110420  -0.004   1.918   8.982  0.4020 -0.5678  0.6808
  996ACTN    H210421   0.151   1.995   9.026  0.4427  0.0090 -0.3688
  996ACTN    H310422   0.156   1.877   8.899 -0.0160 -0.2657  1.3770
  997ACTN    H610423   3.915   0.614   5.807 -3.9870  2.4871 -0.5152
  997ACTN    C310424   3.931   0.655   5.706 -0.2122  0.4556 -0.8405
  997ACTN    H410425   3.921   0.575   5.632 -0.2122  0.0491 -0.4092
  997ACTN    H510426   3.857   0.731   5.681 -1.4074 -0.3431  0.1202
  997ACTN    C210427   4.065   0.716   5.685 -0.0192 -0.6933  0.0304
  997ACTN    O110428   4.147   0.709   5.779  0.1514  0.3042  0.0156
  997ACTN    C110429   4.088   0.798   5.560  0.0249  0.0468 -0.4613
  997ACTN    H110430   4.062   0.726   5.483 -0.7241 -1.5367  1.2215
  997ACTN    H210431   4.192   0.826   5.539  1.2010 -1.8280  2.4502
  997ACTN    H310432   4.028   0.888   5.551 -1.3281 -0.5997  1.6079
  998ACTN    H610433   5.863   2.683   5.119  1.6893 -1.7952 -1.1941
  998ACTN    C310434   5.921   2.683   5.211  0.5703  0.5048 -0.4397
  998ACTN    H410435   5.919   2.586   5.261 -3.5611  1.6018  1.7364
  998ACTN    H510436   5.875   2.752   5.282  0.9531  0.0417  0.2740
  998ACTN    C210437   6.066   2.725   5.184 -0.3767 -0.7974 -0.3328
  998ACTN    O110438   6.086   2.811   5.100 -0.4200 -0.0477 -0.4382
  998ACTN    C110439   6.178   2.659   5.263  0.0748 -0.5401 -0.1306
  998ACTN    H110440   6.237   2.731   5.320 -4.2744  2.6045  0.6468
  998ACTN    H210441   6.233   2.603   5.187 -0.2465  1.6665 -2.0455
  998ACTN    H310442   6.134   2.589   5.335 -1.7152 -0.3331 -1.0206
  999ACTN    H610443   2.721   2.994   5.526  0.7646  2.0912 -2.2255
  999ACTN    C310444   2.624   2.985   5.477 -0.1916 -0.6207  0.0863
  999ACTN    H410445   2.562   2.921   5.541 -2.4413 -0.8162 -2.2370
  999ACTN    H510446   2.592   3.088   5.483 -0.3349 -0.5338 -1.9905
  999ACTN    C210447   2.630   2.942   5.338 -0.0152 -0.2306 -0.8048
  999ACTN    O110448   2.573   2.840   5.292 -0.1121 -0.3712 -0.0923
  999ACTN    C110449   2.727   3.008   5.253 -0.2208 -0.2547 -0.3423
  999ACTN    H110450   2.673   3.059   5.173  1.5370  1.5821 -0.4033
  999ACTN    H210451   2.809   2.942   5.227  0.2531  0.7613 -1.5288
  999ACTN    H310452   2.771   3.094   5.304  0.7214 -1.1351  0.3230
 1000ACTN    H610453   1.620   5.333   3.083  0.5487  1.0278  0.1081
 1000ACTN    C310454   1.599   5.345   3.189 -0.0091  0.5360  0.0547
 1000ACTN    H410455   1.623   5.446   3.221 -0.8612  0.6073  0.4947
 1000ACTN    H510456   1.492   5.324   3.197  0.3293 -1.7270 -0.8752
 1000ACTN    C210457   1.664   5.232   3.263 -0.2463 -0.0693 -0.0954
 1000ACTN    O110458   1.776   5.201   3.236 -0.1669  0.0968 -0.1840
 1000ACTN    C110459   1.578   5.129   3.317 -0.3899 -0.6875 -0.4732
 1000ACTN    H110460   1.595   5.029   3.279  0.9349  0.1415 -2.1203
 1000ACTN    H210461   1.473   5.146   3.294 -0.5491 -1.3884 -0.2716
 1000ACTN    H310462   1.593   5.120   3.425 -1.4366 -3.6046 -0.5433
 1001ACTN    H610463   4.346   7.602   5.760  0.8540 -0.2369  0.7593
 1001ACTN    C310464   4.271   7.588   5.837 -0.1894 -0.3279 -0.2548
 1001ACTN    H410465   4.235   7.486   5.824  0.8809 -1.1252  2.5458
 1001ACTN    H510466   4.331   7.597   5.928 -1.0473  3.2999  0.0688
 1001ACTN    C210467   4.160   7.683   5.830 -0.7477 -0.4168 -0.1090
 1001ACTN    O110468   4.085   7.693   5.926 -0.4011 -0.8260  0.1727
 1001ACTN    C110469   4.155   7.780   5.715 -0.5365  0.3153  0.4837
 1001ACTN    H110470   4.167   7.880   5.756 -0.9718  1.4051 -1.9995
 1001ACTN    H210471   4.057   7.779   5.668  0.1769  0.1177 -1.0198
 1001ACTN    H310472   4.231   7.756   5.640  0.4790  2.1251  0.9077
 1002ACTN    H610473   4.189   5.942   4.170  0.9418 -0.3352  0.5080
 1002ACTN    C310474   4.167   6.044   4.201  0.0439 -0.2544 -0.3690
 1002ACTN    H410475   4.072   6.047   4.255  0.9122  1.9622  1.0885
 1002ACTN    H510476   4.232   6.072   4.284 -0.4210  1.7925 -0.6602
 1002ACTN    C210477   4.165   6.149   4.087 -0.6037 -0.1438 -1.7901
 1002ACTN    O110478   4.274   6.198   4.059 -0.3607 -0.1533  0.0815
 1002ACTN    C110479   4.038   6.162   4.013  0.0327  0.1880 -0.1361
 1002ACTN    H110480   3.994   6.064   3.990  0.2343 -0.4330  2.0027
 1002ACTN    H210481   4.065   6.216   3.922  4.4973 -0.7478  0.5310
 1002ACTN    H310482   3.963   6.218   4.068 -0.5592  0.3366 -1.0796
 1003ACTN    H610483   3.019   1.996   8.616 -0.0045 -0.3570 -1.7355
 1003ACTN    C310484   2.968   1.940   8.694  0.8786  0.6419 -0.4356
 1003ACTN    H410485   2.979   1.833   8.677 -1.3651  0.1518  0.9861
 1003ACTN    H510486   3.022   1.958   8.787 -0.1947  0.9886  0.1351
 1003ACTN    C210487   2.826   1.981   8.725 -0.2484 -0.2614 -0.7897
 1003ACTN    O110488   2.749   1.900   8.673 -0.1373  0.5850 -0.7373
 1003ACTN    C110489   2.803   2.070   8.847 -0.9862  0.0627 -0.1094
 1003ACTN    H110490   2.699   2.103   8.852 -1.4181 -1.5671  3.3579
 1003ACTN    H210491   2.863   2.160   8.851 -1.5844  0.4871 -0.6498
 1003ACTN    H310492   2.837   2.032   8.944  0.3718  0.2116 -0.5218
 1004ACTN    H610493   8.206   3.606   6.764  1.2288  0.3850 -0.8233
 1004ACTN    C310494   8.150   3.641   6.677  0.3655  0.7284 -0.1362
 1004ACTN    H410495   8.182   3.580   6.593  0.7350  2.2841 -1.1393
 1004ACTN    H510496   8.042   3.632   6.686  0.2907  2.0815  0.6014
 1004ACTN    C210497   8.189   3.780   6.639 -0.7193 -0.2804 -0.6091
 1004ACTN    O110498   8.140   3.826   6.539 -0.0770 -0.0687  0.3702
 1004ACTN    C110499   8.288   3.865   6.719 -0.1732 -0.8315 -0.0892
 1004ACTN    H110500   8.251   3.967   6.715 -0.0053 -0.7421  0.6823
 1004ACTN    H210501   8.388   3.860   6.676 -0.2514 -0.4581 -0.3227
 1004ACTN    H310502   8.281   3.835   6.824 -1.2284 -1.9976 -0.4758
 1005ACTN    H610503   5.031   2.263   1.130  1.7327 -1.4310  1.0808
 1005ACTN    C310504   4.962   2.182   1.156 -0.9675  0.5373  0.2358
 1005ACTN    H410505   5.005   2.124   1.238 -0.4426 -1.1423 -1.1943
 1005ACTN    H510506   4.955   2.119   1.067  2.8463  1.0050 -0.4824
 1005ACTN    C210507   4.823   2.237   1.184 -0.0889  1.0143  0.3298
 1005ACTN    O110508   4.776   2.334   1.118  0.5569 -0.1924  0.4551
 1005ACTN    C110509   4.738   2.192   1.303 -0.7032 -0.7956 -0.1107
 1005ACTN    H110510   4.643   2.246   1.313 -0.4034 -0.3659  0.4534
 1005ACTN    H210511   4.792   2.205   1.397  0.5554 -1.0482 -0.7992
 1005ACTN    H310512   4.715   2.086   1.300  0.9937 -1.2683  2.1426
 1006ACTN    H610513   4.760   2.429   2.225 -1.1022 -0.1373 -1.4132
 1006ACTN    C310514   4.755   2.320   2.222 -0.2418 -0.2688  0.6753
 1006ACTN    H410515   4.654   2.288   2.246 -1.4766  0.1501 -3.5139
 1006ACTN    H510516   4.776   2.293   2.118 -1.2755  1.1979  0.0555
 1006ACTN    C210517   4.867   2.273   2.308 -1.0662 -0.4760 -0.2692
 1006ACTN    O110518   4.893   2.322   2.417  0.2661  0.5911 -0.6539
 1006ACTN    C110519   4.970   2.177   2.249 -0.3439  0.0659  0.3628
 1006ACTN    H110520   5.034   2.124   2.319  1.5889  1.9279  0.0341
 1006ACTN    H210521   5.031   2.235   2.179  0.6499 -2.5235 -0.9597
 1006ACTN    H310522   4.920   2.100   2.191  0.8397 -0.9847  0.7235
 1007ACTN    H610523   6.240   3.171   7.741  0.8293  0.5436  0.6477
 1007ACTN    C310524   6.324   3.105   7.718 -0.5578 -0.9699 -0.1595
 1007ACTN    H410525   6.292   3.003   7.697  1.2495 -1.3998 -0.8576
 1007ACTN    H510526   6.382   3.140   7.632  0.3498 -0.5633  0.6070
 1007ACTN    C210527   6.407   3.114   7.841  0.4236  0.1244  0.5346
 1007ACTN    O110528   6.397   3.016   7.913  0.1071  0.3654  0.5177
 1007ACTN    C110529   6.459   3.239   7.893 -0.2371 -0.2453  0.3130
 1007ACTN    H110530   6.388   3.319   7.875 -0.1263  0.2879  2.1222
 1007ACTN    H210531   6.550   3.272   7.844 -0.6202  0.3533 -0.0038
 1007ACTN    H310532   6.486   3.228   7.998 -1.5429  0.8523  0.7739
 1008ACTN    H610533   6.525   5.423   4.105 -0.9649  0.1016  0.4576
 1008ACTN    C310534   6.547   5.407   4.211 -0.7060  0.2331  0.4238
 1008ACTN    H410535   6.528   5.301   4.226  0.1858 -0.0149 -0.1686
 1008ACTN    H510536   6.653   5.429   4.223 -0.5488  0.1968 -0.8484
 1008ACTN    C210537   6.463   5.490   4.295 -0.8111  0.0689  1.1807
 1008ACTN    O110538   6.429   5.462   4.407 -0.2625 -0.4888 -0.6490
 1008ACTN    C110539   6.454   5.634   4.258 -0.1216  0.2842  0.7394
 1008ACTN    H110540   6.548   5.685   4.281  1.5051 -1.3889 -1.8467
 1008ACTN    H210541   6.362   5.683   4.290 -0.3862 -0.8501  1.7118
 1008ACTN    H310542   6.443   5.631   4.149 -0.1992  1.3465  0.7081
 1009ACTN    H610543   4.225   2.950   4.462  3.5929 -1.0257 -2.6848
 1009ACTN    C310544   4.281   3.016   4.528  0.2719 -0.4331 -0.3591
 1009ACTN    H410545   4.214   3.078   4.588  2.1446 -1.3991  2.9125
 1009ACTN    H510546   4.332   2.942   4.590 -2.1320 -0.8438  1.2055
 1009ACTN    C210547   4.376   3.096   4.453 -0.2941  0.1157  0.4013
 1009ACTN    O110548   4.444   3.172   4.509  0.3034 -0.1608  0.1077
 1009ACTN    C110549   4.359   3.097   4.303  0.3310  0.2876 -0.5521
 1009ACTN    H110550   4.458   3.077   4.262  0.7440  0.4962  0.3338
 1009ACTN    H210551   4.323   3.194   4.270 -1.3674 -0.1773 -0.0808
 1009ACTN    H310552   4.298   3.011   4.277  0.6155  0.5619 -2.2306
 1010ACTN    H610553   2.489   8.003   5.001  0.0558  0.4222 -0.1226
 1010ACTN    C310554   2.524   8.105   4.990  0.4322  0.3156  0.0795
 1010ACTN    H410555   2.616   8.120   5.046 -0.2252 -0.7328  1.4735
 1010ACTN    H510556   2.543   8.141   4.888 -0.2836  1.5320  0.3665
 1010ACTN    C210557   2.414   8.193   5.045 -0.8285  0.2296  0.3835
 1010ACTN    O110558   2.300   8.185   5.010 -0.0155 -0.0071 -0.0189
 1010ACTN    C110559   2.457   8.310   5.128  0.4780 -0.0685  0.7444
 1010ACTN    H110560   2.369   8.367   5.160  1.4017  2.0353 -0.3310
 1010ACTN    H210561   2.538   8.366   5.081 -2.3880  4.5332  0.8724
 1010ACTN    H310562   2.496   8.266   5.219  1.5091 -0.0010  0.3401
 1011ACTN    H610563   1.597   8.939   1.781 -0.4491 -1.8840 -0.6273
 1011ACTN    C310564   1.575   8.944   1.888 -0.7458 -0.1532 -0.7482
 1011ACTN    H410565   1.582   8.845   1.933 -1.9106  0.1294  0.0837
 1011ACTN    H510566   1.656   9.002   1.929  0.0511 -1.5951 -0.2500
 1011ACTN    C210567   1.435   9.004   1.910 -0.2181 -0.0714 -0.0504
 1011ACTN    O110568   1.352   8.938   1.976 -0.5041  0.1171  0.0736
 1011ACTN    C110569   1.388   9.125   1.839 -0.1674  0.9274 -0.4902
 1011ACTN    H110570   1.285   9.110   1.807 -0.2750 -0.6945  0.5782
 1011ACTN    H210571   1.447   9.146   1.750 -0.6024 -0.5429 -1.1363
 1011ACTN    H310572   1.383   9.207   1.911 -0.7927 -0.9057  1.5808
 1012ACTN    H610573   8.873   7.229   8.651 -0.8941  1.8939  1.4420
 1012ACTN    C310574   8.973   7.223   8.694 -0.3581 -1.0026 -0.0762
 1012ACTN    H410575   8.973   7.262   8.796 -2.5885 -0.9518 -0.0677
 1012ACTN    H510576   8.996   7.117   8.700  0.6757 -0.7043  1.6424
 1012ACTN    C210577   9.071   7.306   8.610  0.4517 -0.0562 -0.4090
 1012ACTN    O110578   9.049   7.425   8.591  0.1785 -0.7176 -0.1787
 1012ACTN    C110579   9.193   7.248   8.562 -0.9379 -0.2374  0.2746
 1012ACTN    H110580   9.211   7.148   8.602  1.3530 -0.0121 -0.1159
 1012ACTN    H210581   9.280   7.304   8.595 -0.0562 -1.2752 -0.2231
 1012ACTN    H310582   9.173   7.250   8.455 -2.6546  2.0551  0.5954
 1013ACTN    H610583   6.758   3.286   6.964 -0.9671  1.7857  1.1891
 1013ACTN    C310584   6.746   3.316   6.860  0.7697 -0.1482  0.4017
 1013ACTN    H410585   6.670   3.393   6.851  1.7415  0.6980 -0.6674
 1013ACTN    H510586   6.833   3.367   6.819  1.1452  0.0396  1.4173
 1013ACTN    C210587   6.708   3.200   6.772 -0.0936 -0.1390  0.8445
 1013ACTN    O110588   6.767   3.096   6.768  0.1148 -0.0563 -0.3022
 1013ACTN    C110589   6.620   3.243   6.653  0.2432 -0.0708 -0.4845
 1013ACTN    H110590   6.516   3.237   6.685 -0.0227 -0.6162 -1.4277
 1013ACTN    H210591   6.638   3.179   6.566 -0.7437  0.6784 -1.2381
 1013ACTN    H310592   6.640   3.342   6.613  1.3300 -0.0640  0.0478
 1014ACTN    H610593   7.506   0.516   7.466 -1.1326 -0.1847 -0.6191
 1014ACTN    C310594   7.472   0.615   7.495 -0.5039 -0.1583  0.0510
 1014ACTN    H410595   7.379   0.603   7.550 -0.6936 -0.7879 -0.3995
 1014ACTN    H510596   7.448   0.676   7.408 -1.2406 -1.1277 -0.4363
 1014ACTN    C210597   7.577   0.684   7.575 -0.0965  0.6988 -0.3121
 1014ACTN    O110598   7.614   0.794   7.530  0.2716  0.2726 -0.0961
 1014ACTN    C110599   7.625   0.627   7.702 -0.1206  0.4073 -0.0940
 1014ACTN    H110600   7.585   0.531   7.734 -0.3357  0.2536 -0.8160
 1014ACTN    H210601   7.597   0.696   7.781  0.0239  0.1293  0.1991
 1014ACTN    H310602   7.733   0.620   7.705 -0.0092  0.2589 -3.1569
 1015ACTN    H610603   2.346   6.425   0.293 -0.7510 -1.8822  1.4161
 1015ACTN    C310604   2.389   6.492   0.367 -0.2402 -0.4289 -0.1640
 1015ACTN    H410605   2.356   6.594   0.349 -1.2305 -0.7767 -0.3636
 1015ACTN    H510606   2.495   6.480   0.345 -0.7369 -0.1911 -2.9112
 1015ACTN    C210607   2.364   6.437   0.504  0.2689  0.1968 -0.5466
 1015ACTN    O110608   2.401   6.325   0.531  0.0276  0.8117  0.2609
 1015ACTN    C110609   2.301   6.520   0.608 -0.9378 -0.5972 -0.1922
 1015ACTN    H110610   2.226   6.474   0.671 -1.7694 -0.8990 -1.3742
 1015ACTN    H210611   2.260   6.613   0.570 -1.6666 -0.7652  0.1907
 1015ACTN    H310612   2.382   6.562   0.667 -1.7245 -0.2210  0.6249
 1016ACTN    H610613   7.376   1.411   8.586  0.9758  1.4719 -1.6202
 1016ACTN    C310614   7.474   1.379   8.622 -0.1832 -0.0681  0.2402
 1016ACTN    H410615   7.475   1.397   8.730 -3.8089 -2.2896  0.7255
 1016ACTN    H510616   7.549   1.438   8.569  0.6602 -0.5579  0.8855
 1016ACTN    C210617   7.500   1.235   8.592  0.3289  0.1577 -0.2090
 1016ACTN    O110618   7.532   1.208   8.478  0.4401 -0.2782 -0.1104
 1016ACTN    C110619   7.490   1.129   8.705  0.2113 -0.3610  0.5028
 1016ACTN    H110620   7.383   1.112   8.715 -0.3204  2.4935  0.0598
 1016ACTN    H210621   7.531   1.164   8.800 -0.3115 -0.1790  0.6606
 1016ACTN    H310622   7.544   1.040   8.673 -0.4602 -1.4532  2.3390
 1017ACTN    H610623   0.578   6.438   4.056  0.7923 -0.8920 -1.5259
 1017ACTN    C310624   0.479   6.393   4.042 -0.0192  0.0154  1.0149
 1017ACTN    H410625   0.449   6.415   3.940 -0.7931 -1.9054  0.8035
 1017ACTN    H510626   0.491   6.285   4.057  1.5027  0.2852  1.8968
 1017ACTN    C210627   0.382   6.447   4.142  0.6905 -0.0259 -0.0688
 1017ACTN    O110628   0.385   6.557   4.186 -0.2878 -0.2117  0.1655
 1017ACTN    C110629   0.270   6.358   4.193  0.3083 -0.1565  0.0224
 1017ACTN    H110630   0.178   6.416   4.180  0.0671 -0.3877  0.6616
 1017ACTN    H210631   0.281   6.331   4.298 -0.5408  1.2196  0.4928
 1017ACTN    H310632   0.274   6.269   4.131  2.4223  0.2575 -0.4734
 1018ACTN    H610633   1.420   4.444   3.710 -0.1460  0.4839  0.3618
 1018ACTN    C310634   1.525   4.468   3.719  0.0431 -0.3278  0.4052
 1018ACTN    H410635   1.579   4.374   3.708 -0.3192 -0.4726 -0.1074
 1018ACTN    H510636   1.543   4.535   3.635  0.2399 -1.3016 -0.3370
 1018ACTN    C210637   1.568   4.523   3.856  0.9772 -0.6299 -0.5982
 1018ACTN    O110638   1.559   4.447   3.954 -0.0632 -0.3230 -0.0157
 1018ACTN    C110639   1.606   4.667   3.883  0.7592 -0.2161 -0.1911
 1018ACTN    H110640   1.697   4.679   3.942  0.6216  2.4148 -0.4378
 1018ACTN    H210641   1.523   4.715   3.935  1.9563  1.4927  0.1935
 1018ACTN    H310642   1.627   4.727   3.794  0.0671  2.5368  1.4470
 1019ACTN    H610643   5.577   8.253   6.319 -0.2335 -1.0148  0.7200
 1019ACTN    C310644   5.588   8.323   6.402  0.1266 -0.1934 -0.0068
 1019ACTN    H410645   5.690   8.321   6.440  0.1437 -2.8682 -0.1043
 1019ACTN    H510646   5.557   8.422   6.367  1.0445 -0.3128 -1.2038
 1019ACTN    C210647   5.494   8.282   6.510 -0.2527  0.2984 -0.6912
 1019ACTN    O110648   5.430   8.368   6.571 -0.0614  0.3685  0.5028
 1019ACTN    C110649   5.504   8.141   6.569 -0.7786  0.3602  0.2544
 1019ACTN    H110650   5.593   8.097   6.525 -1.8182 -1.0854 -0.4646
 1019ACTN    H210651   5.416   8.080   6.547  0.1917 -1.9819  2.5971
 1019ACTN    H310652   5.521   8.138   6.677 -0.4094  0.2948  0.1957
 1020ACTN    H610653   3.671   0.120   7.752  0.7790 -1.9654  4.0049
 1020ACTN    C310654   3.630   0.023   7.722 -0.2065 -0.4237  0.0409
 1020ACTN    H410655   3.527   0.003   7.752 -0.3726 -0.5256 -0.5991
 1020ACTN    H510656   3.628   0.003   7.615  1.3073 -1.9229  0.2716
 1020ACTN    C210657   3.716  -0.077   7.803  0.3359  0.0020 -0.2260
 1020ACTN    O110658   3.666  -0.185   7.813 -0.1753  0.2004  0.0355
 1020ACTN    C110659   3.829  -0.040   7.897  0.1019 -0.5807 -0.1639
 1020ACTN    H110660   3.869  -0.128   7.946 -1.7916 -1.3762 -0.0304
 1020ACTN    H210661   3.792   0.026   7.975  0.1545  1.2449 -1.6407
 1020ACTN    H310662   3.913   0.008   7.845 -0.0584  0.0646  0.1620
 1021ACTN    H610663   3.058   5.132   3.574 -1.3629 -1.2508  0.4901
 1021ACTN    C310664   3.012   5.203   3.643  0.2849  0.0331  0.2918
 1021ACTN    H410665   2.904   5.202   3.630  0.6143 -0.0552 -2.7683
 1021ACTN    H510666   3.041   5.182   3.746  0.7149 -2.9566 -0.3899
 1021ACTN    C210667   3.076   5.335   3.612  0.0732  0.0698  0.4211
 1021ACTN    O110668   3.193   5.352   3.646  0.5371  0.5539 -0.0321
 1021ACTN    C110669   2.993   5.446   3.548 -0.1811 -0.8063 -0.6097
 1021ACTN    H110670   3.043   5.543   3.541 -2.7841  0.3846 -5.1596
 1021ACTN    H210671   2.903   5.457   3.608 -0.4286  2.2196 -1.4058
 1021ACTN    H310672   2.982   5.419   3.443  2.9996 -0.8968 -0.9701
 1022ACTN    H610673   4.652   5.042   0.768  0.2228 -1.0512 -2.3591
 1022ACTN    C310674   4.758   5.041   0.742  0.8914 -0.3195  0.1744
 1022ACTN    H410675   4.796   5.143   0.747  0.7155 -0.0939 -2.3872
 1022ACTN    H510676   4.801   4.972   0.815 -0.1472 -0.8084  0.3422
 1022ACTN    C210677   4.765   4.991   0.605 -0.3791  0.9427 -0.0729
 1022ACTN    O110678   4.740   4.875   0.580  0.3896  0.5788  0.6723
 1022ACTN    C110679   4.789   5.091   0.501 -0.2111 -0.0848 -0.4647
 1022ACTN    H110680   4.879   5.145   0.530 -0.8391  0.5671  0.3192
 1022ACTN    H210681   4.707   5.162   0.496  1.5071  1.8047 -3.1643
 1022ACTN    H310682   4.800   5.045   0.403  2.0004 -1.5392  0.4240
 1023ACTN    H610683   7.417   2.437   1.690  0.6839 -0.9605 -0.4541
 1023ACTN    C310684   7.499   2.494   1.734  0.0388 -0.3863  0.0131
 1023ACTN    H410685   7.470   2.566   1.811  0.8503  0.3463 -0.3538
 1023ACTN    H510686   7.569   2.418   1.768 -0.2312 -1.0342 -0.8469
 1023ACTN    C210687   7.561   2.574   1.623  0.0682 -0.2811 -0.4328
 1023ACTN    O110688   7.530   2.692   1.604 -0.9138 -0.2546  0.5031
 1023ACTN    C110689   7.644   2.495   1.524  0.3397  0.4978 -0.3295
 1023ACTN    H110690   7.743   2.539   1.511  0.4171  0.7885  1.1641
 1023ACTN    H210691   7.606   2.488   1.422 -0.7851  2.0406 -0.0337
 1023ACTN    H310692   7.662   2.397   1.568 -0.8143  0.2326 -0.4280
 1024ACTN    H610693   3.989   2.559   3.688 -0.4777  1.7181  1.0540
 1024ACTN    C310694   4.053   2.548   3.776 -0.0543 -0.0057  0.5545
 1024ACTN    H410695   4.002   2.503   3.861 -0.5990  1.1183  0.8436
 1024ACTN    H510696   4.140   2.490   3.745  0.6316  1.5667 -0.5511
 1024ACTN    C210697   4.109   2.683   3.799  0.5628 -0.4710  0.0893
 1024ACTN    O110698   4.222   2.710   3.771  0.5418  0.1726  0.0595
 1024ACTN    C110699   4.027   2.767   3.897  0.1704 -0.3864 -0.7632
 1024ACTN    H110700   3.980   2.849   3.843 -0.9718 -0.6086 -0.1179
 1024ACTN    H210701   4.095   2.802   3.974 -1.8046  0.0248  0.8271
 1024ACTN    H310702   3.952   2.713   3.954  1.0477  1.6407  2.4336
 1025ACTN    H610703   7.325   2.192   7.351  0.3907  0.3072 -0.3564
 1025ACTN    C310704   7.357   2.267   7.278  0.3561  0.3992 -0.2773
 1025ACTN    H410705   7.455   2.300   7.313  0.2803  0.9520 -0.5943
 1025ACTN    H510706   7.285   2.348   7.283  1.2502  1.1071  1.5297
 1025ACTN    C210707   7.361   2.216   7.137 -0.4749 -0.0296 -0.5130
 1025ACTN    O110708   7.462   2.218   7.067 -0.2547  0.0608 -0.8490
 1025ACTN    C110709   7.237   2.163   7.088 -0.5479  0.1415  0.6354
 1025ACTN    H110710   7.247   2.061   7.051  0.9437  0.4690  0.1190
 1025ACTN    H210711   7.199   2.227   7.009 -3.0967 -0.1351  1.5818
 1025ACTN    H310712   7.166   2.177   7.170 -0.6803  2.9384  0.0960
 1026ACTN    H610713   0.234   0.634   8.149 -1.3444 -1.7331  2.3868
 1026ACTN    C310714   0.330   0.661   8.192 -0.4338 -0.5233 -0.2660
 1026ACTN    H410715   0.376   0.725   8.117 -2.6802  0.1977 -1.0752
 1026ACTN    H510716   0.315   0.717   8.284 -2.7570 -0.0686 -0.9005
 1026ACTN    C210717   0.422   0.547   8.217 -0.6864 -0.0918 -0.1063
 1026ACTN    O110718   0.475   0.504   8.119 -0.4534 -0.0565 -0.2958
 1026ACTN    C110719   0.400   0.465   8.342  0.2326  0.3983  0.6826
 1026ACTN    H110720   0.348   0.373   8.315  0.6418 -0.4915  2.8026
 1026ACTN    H210721   0.334   0.521   8.408 -3.7723 -0.7031 -2.2195
 1026ACTN    H310722   0.493   0.435   8.392  0.9683 -0.2976 -1.0447
 1027ACTN    H610723   7.833   1.026   8.970  1.6382 -0.0225  1.3821
 1027ACTN    C310724   7.880   0.928   8.957  0.2161 -0.6076  0.5754
 1027ACTN    H410725   7.947   0.940   8.871 -2.8313  1.7803 -1.5711
 1027ACTN    H510726   7.946   0.895   9.037  2.1380  0.0300 -0.6865
 1027ACTN    C210727   7.781   0.815   8.936  0.1083  0.1500  0.1957
 1027ACTN    O110728   7.789   0.756   8.835  0.5636 -0.1687  0.7955
 1027ACTN    C110729   7.670   0.795   9.031  0.5903  0.8055  0.5180
 1027ACTN    H110730   7.697   0.728   9.112  2.5532  1.3535  0.3484
 1027ACTN    H210731   7.585   0.750   8.979  1.2230 -1.8253  1.6961
 1027ACTN    H310732   7.637   0.892   9.068 -0.6183  0.9888 -0.9580
 1028ACTN    H610733   8.545   6.231   0.145 -0.5428  1.3513  1.5654
 1028ACTN    C310734   8.550   6.307   0.067 -0.7808 -0.1230  0.0824
 1028ACTN    H410735   8.619   6.282  -0.013  1.8944  1.0873  1.9433
 1028ACTN    H510736   8.452   6.317   0.021  0.1237 -0.3048 -1.9579
 1028ACTN    C210737   8.601   6.435   0.133 -0.1028  0.0151 -0.0463
 1028ACTN    O110738   8.544   6.470   0.237  0.1483  0.2629 -0.4686
 1028ACTN    C110739   8.689   6.526   0.058 -0.6094  0.2206  0.0739
 1028ACTN    H110740   8.770   6.469   0.012  1.3972  1.6187  1.7706
 1028ACTN    H210741   8.725   6.602   0.128  3.3413 -0.0091 -1.5654
 1028ACTN    H310742   8.629   6.580  -0.014 -0.4397 -0.0514 -0.2718
 1029ACTN    H610743   3.441   4.685   2.073 -0.7804 -2.0755  0.9635
 1029ACTN    C310744   3.536   4.647   2.036 -0.3764 -0.4375  0.2844
 1029ACTN    H410745   3.611   4.703   2.093 -0.8324  0.0685  0.3830
 1029ACTN    H510746   3.539   4.541   2.063 -1.6623 -0.5422  0.0269
 1029ACTN    C210747   3.572   4.669   1.894  0.8384 -0.4001  0.2224
 1029ACTN    O110748   3.671   4.738   1.860  0.8194 -0.2422 -0.8625
 1029ACTN    C110749   3.464   4.616   1.809  0.9780 -0.9716  0.5710
 1029ACTN    H110750   3.486   4.512   1.785 -1.2515 -0.9478 -1.8537
 1029ACTN    H210751   3.445   4.672   1.718 -1.4695 -0.0428  1.5796
 1029ACTN    H310752   3.376   4.608   1.874  0.9451  1.6525  0.9110
 1030ACTN    H610753   5.073   8.467   7.867 -0.0207 -0.2773 -1.1249
 1030ACTN    C310754   5.181   8.457   7.850  0.1019  0.0345 -0.5194
 1030ACTN    H410755   5.223   8.463   7.951 -1.6741  0.2770  0.2346
 1030ACTN    H510756   5.206   8.359   7.810  0.3937 -0.2596  0.3629
 1030ACTN    C210757   5.221   8.566   7.756 -0.2008  0.3302 -0.2996
 1030ACTN    O110758   5.179   8.565   7.640  0.2838  0.3329 -0.0205
 1030ACTN    C110759   5.276   8.695   7.816 -0.7218  0.2631 -0.1696
 1030ACTN    H110760   5.379   8.684   7.848 -0.7036  1.4408  0.1998
 1030ACTN    H210761   5.218   8.706   7.908  1.7551 -1.0288  1.6004
 1030ACTN    H310762   5.260   8.776   7.746  0.0834  0.0909 -0.5477
 1031ACTN    H610763   5.908   2.316   8.005  0.7661 -1.2714 -0.7376
 1031ACTN    C310764   5.974   2.400   7.987 -0.8312  0.1081 -0.2927
 1031ACTN    H410765   6.031   2.423   8.077  0.4059 -0.0837 -1.0056
 1031ACTN    H510766   6.050   2.365   7.917 -2.1219  0.1921 -1.7657
 1031ACTN    C210767   5.919   2.520   7.924  0.1369  0.2469  0.3514
 1031ACTN    O110768   5.884   2.616   7.992 -0.5960  0.1703 -0.3529
 1031ACTN    C110769   5.871   2.518   7.783 -0.1041 -0.1104  0.7011
 1031ACTN    H110770   5.767   2.549   7.786  0.6495  2.5041  1.6062
 1031ACTN    H210771   5.885   2.422   7.734  0.0665 -0.1835  0.8927
 1031ACTN    H310772   5.914   2.593   7.716 -0.8307 -0.6220 -0.3554
 1032ACTN    H610773   4.741   3.136   8.982  2.7171 -2.1724 -0.8923
 1032ACTN    C310774   4.693   3.068   9.052  0.1129  0.7937  0.3139
 1032ACTN    H410775   4.700   2.965   9.018  3.0966  0.7120  1.0362
 1032ACTN    H510776   4.747   3.067   9.147  0.9066 -0.3654 -0.1409
 1032ACTN    C210777   4.551   3.112   9.068  0.2766  0.2376 -0.0074
 1032ACTN    O110778   4.460   3.034   9.064  0.2485  0.1909 -0.0050
 1032ACTN    C110779   4.520   3.242   9.138  0.0057  0.1972  0.2376
 1032ACTN    H110780   4.482   3.227   9.239 -0.1208  0.7889  0.2793
 1032ACTN    H210781   4.448   3.297   9.077 -0.3485  1.7136  1.9972
 1032ACTN    H310782   4.613   3.299   9.137  0.2409 -0.1930 -1.8307
 1033ACTN    H610783   5.859   7.433   2.821 -0.5937 -2.1907  1.5259
 1033ACTN    C310784   5.828   7.403   2.721 -0.2829 -0.0976  0.7758
 1033ACTN    H410785   5.850   7.297   2.712  0.0747  0.0459 -0.0720
 1033ACTN    H510786   5.720   7.410   2.708 -0.3564  0.2157  1.5381
 1033ACTN    C210787   5.891   7.469   2.600 -0.0590 -0.5674 -0.3526
 1033ACTN    O110788   5.932   7.587   2.611  0.1433  0.1709 -0.3232
 1033ACTN    C110789   5.867   7.402   2.463  0.0541  0.3784 -0.2310
 1033ACTN    H110790   5.765   7.365   2.449  0.0359  0.1271  0.5517
 1033ACTN    H210791   5.932   7.316   2.451 -1.5373 -0.7699 -0.7015
 1033ACTN    H310792   5.885   7.466   2.376 -0.8357 -1.0195 -1.4557
 1034ACTN    H610793   7.187   8.937   0.544 -1.5841 -0.5336  1.9077
 1034ACTN    C310794   7.109   8.999   0.501 -0.0829 -0.0655 -0.2310
 1034ACTN    H410795   7.060   9.054   0.581  1.6235  0.5201  0.4463
 1034ACTN    H510796   7.159   9.065   0.429 -0.8526  0.5953 -0.1757
 1034ACTN    C210797   7.026   8.912   0.412 -0.2682  1.1556  0.2530
 1034ACTN    O110798   7.074   8.835   0.327 -0.1679 -0.8590 -0.2495
 1034ACTN    C110799   6.877   8.910   0.437 -0.4912  0.2590  0.9804
 1034ACTN    H110800   6.822   9.000   0.411 -1.5450 -0.1345  1.7910
 1034ACTN    H210801   6.866   8.911   0.546 -2.1934 -0.3678  0.8333
 1034ACTN    H310802   6.826   8.819   0.404  0.5389 -0.1454  0.4926
 1035ACTN    H610803   7.042   8.378   8.727  0.9075 -0.1769  0.6778
 1035ACTN    C310804   7.056   8.484   8.709  0.1404 -0.1059  0.4770
 1035ACTN    H410805   7.134   8.510   8.780 -0.2979 -1.5451  1.5038
 1035ACTN    H510806   7.100   8.498   8.610  1.5920 -2.2898  0.7856
 1035ACTN    C210807   6.933   8.566   8.718  0.0888  0.6365 -0.9420
 1035ACTN    O110808   6.912   8.665   8.651 -0.5973 -0.4082 -0.0718
 1035ACTN    C110809   6.832   8.537   8.828 -0.5433  0.6935  1.1299
 1035ACTN    H110810   6.863   8.463   8.902 -0.6133 -1.4631 -0.9497
 1035ACTN    H210811   6.736   8.509   8.787 -0.0003 -1.2448  1.1342
 1035ACTN    H310812   6.811   8.633   8.875 -0.7282  0.3401  1.7721
 1036ACTN    H610813   7.899   0.048   8.044  0.0848  0.1290  0.9419
 1036ACTN    C310814   7.809   0.110   8.051 -0.4190 -0.5698  0.7515
 1036ACTN    H410815   7.728   0.042   8.076 -1.3227  0.6630  1.1910
 1036ACTN    H510816   7.841   0.171   8.135  0.7482 -1.0814  0.6966
 1036ACTN    C210817   7.796   0.204   7.930 -1.0964 -0.1697  1.1761
 1036ACTN    O110818   7.696   0.180   7.863  0.8863  0.0672  0.8273
 1036ACTN    C110819   7.920   0.268   7.875 -0.3294 -0.1280  0.1251
 1036ACTN    H110820   7.897   0.334   7.791  1.3635  0.6899  0.2932
 1036ACTN    H210821   7.987   0.189   7.839  0.6925  0.3821  0.8896
 1036ACTN    H310822   7.966   0.324   7.956 -1.3638 -0.3922  0.9095
 1037ACTN    H610823   1.984   0.404   4.185 -1.1143 -0.5388 -0.2607
 1037ACTN    C310824   1.884   0.447   4.193 -0.7093  0.4170 -0.2812
 1037ACTN    H410825   1.870   0.489   4.293  2.0619 -0.1939  0.4143
 1037ACTN    H510826   1.861   0.526   4.122  0.7291  1.0063 -0.1265
 1037ACTN    C210827   1.782   0.340   4.180  0.3263 -1.1195 -0.6614
 1037ACTN    O110828   1.781   0.278   4.079 -0.1856  0.3748 -0.1868
 1037ACTN    C110829   1.718   0.279   4.303 -0.3369  0.7233 -0.2982
 1037ACTN    H110830   1.633   0.336   4.340  0.4967  1.7579  0.0453
 1037ACTN    H210831   1.786   0.268   4.388 -0.0195  3.9950 -0.0629
 1037ACTN    H310832   1.684   0.176   4.292 -1.6617  1.0198  0.8963
 1038ACTN    H610833   5.757   2.202   7.856  0.6797  0.2229 -1.4368
 1038ACTN    C310834   5.675   2.188   7.785  0.2449 -0.5600 -0.7875
 1038ACTN    H410835   5.693   2.260   7.705 -0.5398  0.9935  0.4154
 1038ACTN    H510836   5.677   2.090   7.738  0.6988 -0.4745 -0.9539
 1038ACTN    C210837   5.539   2.226   7.842 -0.3313  0.3390 -0.5237
 1038ACTN    O110838   5.430   2.207   7.782  0.1202  0.6174 -0.1869
 1038ACTN    C110839   5.531   2.273   7.986 -0.9788 -0.1303 -0.1096
 1038ACTN    H110840   5.568   2.200   8.058 -1.5377  1.5854  1.9700
 1038ACTN    H210841   5.429   2.295   8.018 -0.6792  0.3402  0.5160
 1038ACTN    H310842   5.588   2.365   7.993 -0.4866 -0.5373  1.3555
 1039ACTN    H610843   7.116   4.139   6.108  1.3113 -0.4007  0.6506
 1039ACTN    C310844   7.105   4.154   6.215 -1.3006  0.2331  0.3259
 1039ACTN    H410845   7.148   4.067   6.265  2.6409  2.1404  0.4697
 1039ACTN    H510846   7.167   4.234   6.256 -0.8328 -0.4433  0.9545
 1039ACTN    C210847   6.965   4.182   6.255 -0.0594  0.9359  0.8581
 1039ACTN    O110848   6.938   4.241   6.361 -0.0945  0.2134 -0.7796
 1039ACTN    C110849   6.850   4.127   6.173  0.5957 -0.3247  0.4261
 1039ACTN    H110850   6.753   4.146   6.219  0.6100 -0.1259  0.3722
 1039ACTN    H210851   6.848   4.018   6.164 -0.5339 -0.2464 -0.3850
 1039ACTN    H310852   6.844   4.172   6.074 -0.7710 -0.7319  0.2991
 1040ACTN    H610853   4.824   6.827   4.532 -0.0157 -0.1040  0.2509
 1040ACTN    C310854   4.906   6.896   4.552  0.1721 -0.0530 -0.6517
 1040ACTN    H410855   4.996   6.837   4.573  0.0825 -0.2063 -0.6999
 1040ACTN    H510856   4.914   6.967   4.470 -2.8378  1.5303  0.3639
 1040ACTN    C210857   4.863   6.985   4.664  0.1028 -0.4666 -0.5122
 1040ACTN    O110858   4.748   6.992   4.702 -0.4342  0.5359  0.3492
 1040ACTN    C110859   4.961   7.083   4.724  0.0060  0.1105 -0.4406
 1040ACTN    H110860   5.025   7.125   4.647  1.4968  0.4651  0.9656
 1040ACTN    H210861   5.024   7.034   4.798  0.3695 -1.0413 -1.5026
 1040ACTN    H310862   4.912   7.164   4.780 -1.8904 -0.4397 -1.2711
 1041ACTN    H610863   0.442   6.342   7.361 -0.5863  0.2118 -0.7368
 1041ACTN    C310864   0.513   6.423   7.346 -0.3215  0.3686  1.2140
 1041ACTN    H410865   0.561   6.442   7.442 -0.7576  2.5222  1.0283
 1041ACTN    H510866   0.585   6.391   7.271 -0.3104  1.9951  0.4957
 1041ACTN    C210867   0.457   6.556   7.303 -0.1495 -0.2408  0.4362
 1041ACTN    O110868   0.502   6.659   7.349 -0.8458  0.3203  0.6843
 1041ACTN    C110869   0.325   6.549   7.236  0.1735  0.5148  0.1182
 1041ACTN    H110870   0.289   6.449   7.211 -0.4394  0.3961  1.4049
 1041ACTN    H210871   0.331   6.607   7.144 -0.6460  0.3704 -0.0312
 1041ACTN    H310872   0.245   6.592   7.297 -0.2442  0.5187 -0.4290
 1042ACTN    H610873   5.828   6.212   6.083 -2.4304 -0.3274 -0.8122
 1042ACTN    C310874   5.843   6.318   6.061  0.4765 -0.5994 -0.4474
 1042ACTN    H410875   5.923   6.323   5.989  0.8971  0.4745  0.0905
 1042ACTN    H510876   5.755   6.359   6.011  1.2170  3.5354  1.4044
 1042ACTN    C210877   5.873   6.403   6.175 -0.4951  0.6242 -0.3953
 1042ACTN    O110878   5.915   6.354   6.274 -0.1437 -0.3280 -0.0772
 1042ACTN    C110879   5.860   6.555   6.161 -0.4803 -0.2787 -0.2066
 1042ACTN    H110880   5.756   6.584   6.153 -0.6780 -0.9567 -0.1721
 1042ACTN    H210881   5.923   6.582   6.077  2.5435  0.9648  2.3494
 1042ACTN    H310882   5.907   6.599   6.249  0.9958  1.3569 -1.7950
 1043ACTN    H610883   5.009   8.689   3.230  0.7923 -0.5728 -1.0542
 1043ACTN    C310884   5.115   8.691   3.258  0.5315  0.6493 -0.0644
 1043ACTN    H410885   5.137   8.589   3.291 -0.0335  1.0440  1.5432
 1043ACTN    H510886   5.172   8.705   3.166  2.9688 -3.8016  0.6167
 1043ACTN    C210887   5.149   8.787   3.366 -0.0807 -0.5524 -0.3627
 1043ACTN    O110888   5.065   8.816   3.452  0.2972  0.3881 -0.2623
 1043ACTN    C110889   5.273   8.878   3.351 -0.3974  0.7525  0.0112
 1043ACTN    H110890   5.239   8.981   3.339 -0.0452  0.7561 -1.0440
 1043ACTN    H210891   5.342   8.846   3.272  1.2626 -0.4649  1.9242
 1043ACTN    H310892   5.329   8.871   3.444 -0.5512 -1.1166 -0.0220
 1044ACTN    H610893   6.903   2.923   5.215 -0.3062  2.3436  0.9834
 1044ACTN    C310894   7.001   2.936   5.259  0.8361 -0.0961 -0.7265
 1044ACTN    H410895   7.019   2.849   5.323  0.6400 -1.2781 -2.2554
 1044ACTN    H510896   7.079   2.946   5.184  0.6007 -3.4483 -1.5028
 1044ACTN    C210897   7.008   3.066   5.333 -0.1166 -0.1950 -0.4252
 1044ACTN    O110898   6.917   3.150   5.323  0.1222  0.1423  0.1673
 1044ACTN    C110899   7.126   3.091   5.433  0.2423 -0.0018  0.5015
 1044ACTN    H110900   7.168   3.002   5.480 -0.4554 -0.8671 -0.4995
 1044ACTN    H210901   7.098   3.171   5.502 -0.0934  1.7993 -1.6744
 1044ACTN    H310902   7.209   3.140   5.385  1.0170 -2.9573 -1.3111
 1045ACTN    H610903   6.089   6.727   7.915 -0.1110  0.6232  0.8547
 1045ACTN    C310904   6.091   6.835   7.906 -0.6168  0.5459 -0.3755
 1045ACTN    H410905   6.007   6.872   7.848 -0.7867  1.2508  0.3019
 1045ACTN    H510906   6.066   6.863   8.009  0.7998 -0.2329  0.2013
 1045ACTN    C210907   6.238   6.858   7.855  1.0969 -0.4598  0.5588
 1045ACTN    O110908   6.286   6.969   7.842  1.0895 -0.3070  0.3506
 1045ACTN    C110909   6.314   6.738   7.818 -0.3158  0.8192 -0.2219
 1045ACTN    H110910   6.384   6.708   7.895 -1.3050 -1.1450 -0.0530
 1045ACTN    H210911   6.371   6.750   7.726  2.3679 -1.8253  1.0326
 1045ACTN    H310912   6.244   6.659   7.790 -0.9518  1.5009 -0.5844
 1046ACTN    H610913   5.801   5.516   1.368 -0.7575 -2.3097  0.0012
 1046ACTN    C310914   5.858   5.518   1.275 -0.5655 -0.1206  0.1460
 1046ACTN    H410915   5.818   5.437   1.215  0.3367 -0.1304 -0.4565
 1046ACTN    H510916   5.831   5.615   1.233 -0.6596  0.0489  0.5884
 1046ACTN    C210917   6.009   5.503   1.301 -0.1831  0.1561  0.0792
 1046ACTN    O110918   6.074   5.606   1.326 -0.5969 -0.7218  0.0678
 1046ACTN    C110919   6.083   5.384   1.253  0.2147  0.1081  0.2110
 1046ACTN    H110920   6.177   5.399   1.200 -0.4607  0.3186 -0.9392
 1046ACTN    H210921   6.021   5.315   1.196  0.6512  0.4363 -0.6660
 1046ACTN    H310922   6.109   5.330   1.344  0.7746  1.4640  0.8698
 1047ACTN    H610923   4.516   0.811   0.017 -0.6977 -0.1436  0.5911
 1047ACTN    C310924   4.456   0.745  -0.045  0.3698 -0.7341  0.1750
 1047ACTN    H410925   4.357   0.791  -0.056  1.2118  0.6781 -1.8065
 1047ACTN    H510926   4.504   0.745  -0.143 -1.5125 -2.2730 -0.7955
 1047ACTN    C210927   4.455   0.607   0.007 -0.1898  0.4067  1.1983
 1047ACTN    O110928   4.436   0.507  -0.061  0.5280 -0.0394 -0.0946
 1047ACTN    C110929   4.504   0.587   0.143  0.0751 -0.6559  0.6261
 1047ACTN    H110930   4.425   0.539   0.201 -0.2528 -0.3491  0.4333
 1047ACTN    H210931   4.525   0.681   0.196 -1.4710 -0.3253  0.6859
 1047ACTN    H310932   4.588   0.518   0.142 -1.6498 -2.8891 -3.5834
 1048ACTN    H610933   2.733   5.014   2.234  2.1761 -4.1274  2.2690
 1048ACTN    C310934   2.793   5.073   2.304  0.3153  0.2612  0.3310
 1048ACTN    H410935   2.719   5.125   2.364 -1.2985 -1.8441  0.2364
 1048ACTN    H510936   2.857   5.005   2.360  0.1449 -0.7994 -0.7234
 1048ACTN    C210937   2.876   5.175   2.249  0.1837 -0.5415 -0.3683
 1048ACTN    O110938   2.836   5.294   2.243  0.2814  0.0095 -0.1883
 1048ACTN    C110939   3.005   5.141   2.184 -0.3492 -0.2540 -0.3753
 1048ACTN    H110940   3.002   5.052   2.122  2.6368 -1.9344  1.7349
 1048ACTN    H210941   3.087   5.120   2.253 -1.9158 -3.1356  0.6645
 1048ACTN    H310942   3.035   5.216   2.111  2.3282  0.0649  0.9884
 1049ACTN    H610943   7.046   6.804   4.391  1.7166  0.6516 -2.7877
 1049ACTN    C310944   7.119   6.739   4.439  0.2469  0.7918 -0.3113
 1049ACTN    H410945   7.124   6.647   4.381 -0.1077 -0.5432  1.6950
 1049ACTN    H510946   7.220   6.780   4.436  0.6154 -0.1694 -1.2343
 1049ACTN    C210947   7.071   6.696   4.569 -0.1957  0.7983 -0.3571
 1049ACTN    O110948   7.039   6.783   4.653 -0.4667  0.1286 -0.0369
 1049ACTN    C110949   7.019   6.560   4.577  0.4056 -0.3001 -0.0943
 1049ACTN    H110950   6.911   6.555   4.566  0.6208 -2.0955 -1.6791
 1049ACTN    H210951   7.048   6.528   4.677 -0.2368  0.6644  0.4134
 1049ACTN    H310952   7.062   6.488   4.508 -2.8195 -0.6335 -1.8142
 1050ACTN    H610953   0.116   7.548   7.654  0.7126 -0.0749  1.9181
 1050ACTN    C310954   0.024   7.573   7.706 -0.5828 -0.7266 -0.0472
 1050ACTN    H410955   0.045   7.563   7.812  1.0502  0.4522 -0.2531
 1050ACTN    H510956   0.003   7.679   7.694 -0.1709 -0.8887 -2.4367
 1050ACTN    C210957  -0.098   7.495   7.666  0.4013  0.3439  0.5872
 1050ACTN    O110958  -0.129   7.395   7.733 -0.1796 -0.0450 -0.0391
 1050ACTN    C110959  -0.132   7.500   7.520 -0.2361 -0.6354  0.0305
 1050ACTN    H110960  -0.119   7.597   7.472  0.0452 -0.7916 -0.2074
 1050ACTN    H210961  -0.237   7.479   7.499 -0.8747  2.3578  0.0109
 1050ACTN    H310962  -0.069   7.425   7.472 -2.4127 -2.6657  0.2479
 1051ACTN    H610963   7.128   7.384   0.036 -0.9902 -1.9266 -0.4658
 1051ACTN    C310964   7.128   7.419  -0.067  0.4037  0.3993  0.2773
 1051ACTN    H410965   7.125   7.528  -0.062 -0.4538  0.3427  1.1433
 1051ACTN    H510966   7.221   7.393  -0.118  0.1977  1.5072 -0.6893
 1051ACTN    C210967   7.016   7.370  -0.154 -0.7372 -0.5388 -0.4670
 1051ACTN    O110968   6.918   7.317  -0.109 -0.2694 -0.0813  0.0700
 1051ACTN    C110969   7.012   7.430  -0.292  0.1259 -0.5071 -0.2180
 1051ACTN    H110970   6.930   7.497  -0.319 -0.2147 -1.1019 -0.6532
 1051ACTN    H210971   7.108   7.479  -0.313  1.3940 -1.6745  2.5518
 1051ACTN    H310972   7.008   7.352  -0.368 -0.6210 -1.0457  0.3826
 1052ACTN    H610973   6.579   5.183   6.637  0.1312  0.7391  0.9903
 1052ACTN    C310974   6.491   5.128   6.670  0.6667 -0.6864  0.0900
 1052ACTN    H410975   6.521   5.025   6.685  1.7737 -0.5248 -1.0118
 1052ACTN    H510976   6.455   5.159   6.768  0.6515 -2.2771  0.6026
 1052ACTN    C210977   6.370   5.132   6.575 -0.7566 -0.0858 -0.4852
 1052ACTN    O110978   6.260   5.082   6.603  0.4786  0.3795  0.1395
 1052ACTN    C110979   6.384   5.189   6.444  0.1756 -0.6166  0.4319
 1052ACTN    H110980   6.415   5.106   6.380 -0.1162 -0.7610  0.4768
 1052ACTN    H210981   6.450   5.276   6.448 -1.2822  0.6269 -1.3778
 1052ACTN    H310982   6.284   5.222   6.414  0.5992  0.0310 -0.2731
 1053ACTN    H610983   7.829   6.108   3.446  3.6472 -2.9712  1.9624
 1053ACTN    C310984   7.830   6.043   3.358  0.0571 -0.2906 -0.2169
 1053ACTN    H410985   7.934   6.025   3.329  0.5214 -0.2362  1.3301
 1053ACTN    H510986   7.796   5.947   3.398  1.4650 -0.8376 -0.2989
 1053ACTN    C210987   7.740   6.095   3.253  0.8346  0.0142 -0.2391
 1053ACTN    O110988   7.649   6.019   3.219  0.1694  0.1110 -0.0641
 1053ACTN    C110989   7.778   6.221   3.185  0.8415  0.0966  0.1720
 1053ACTN    H110990   7.743   6.217   3.082 -0.1447  0.3686  0.4878
 1053ACTN    H210991   7.882   6.250   3.199  0.5039  1.1131  0.6966
 1053ACTN    H310992   7.722   6.300   3.235  1.5452  1.2356 -0.8257
 1054ACTN    H610993   7.819   7.934   3.216 -3.2700  2.3504  0.1292
 1054ACTN    C310994   7.767   7.856   3.160 -0.1216 -0.2346  0.6833
 1054ACTN    H410995   7.843   7.798   3.108 -1.3687 -0.1561 -1.2734
 1054ACTN    H510996   7.705   7.800   3.229 -2.1093  1.4396  0.3162
 1054ACTN    C210997   7.682   7.932   3.064 -0.1500 -0.1028  0.4196
 1054ACTN    O110998   7.735   7.966   2.954 -0.3064  0.1945  0.2345
 1054ACTN    C110999   7.559   7.997   3.116 -0.2472 -0.6904 -0.1579
 1054ACTN    H111000   7.580   8.040   3.214 -2.2752  1.7195 -0.7174
 1054ACTN    H211001   7.479   7.924   3.103 -1.1007  0.4331 -1.4655
 1054ACTN    H311002   7.529   8.080   3.052 -2.6707  0.4902  2.3743
 1055ACTN    H611003   0.763   1.278   6.646 -0.7327 -0.1232  1.2165
 1055ACTN    C311004   0.761   1.198   6.571 -0.4455  0.3597  0.6916
 1055ACTN    H411005   0.862   1.183   6.532 -0.9510 -0.6320 -0.2566
 1055ACTN    H511006   0.728   1.107   6.620 -0.1980  0.1899  0.5412
 1055ACTN    C211007   0.671   1.224   6.456  0.6992  0.5639  0.1159
 1055ACTN    O111008   0.556   1.186   6.460  0.6292 -1.3468 -0.0652
 1055ACTN    C111009   0.725   1.312   6.343  0.0599 -0.0082  0.0128
 1055ACTN    H111010   0.821   1.265   6.321  0.4968  0.1809  1.4569
 1055ACTN    H211011   0.746   1.410   6.387  1.5332 -1.2915  2.3019
 1055ACTN    H311012   0.661   1.320   6.256 -0.0173  0.2776  0.0968
 1056ACTN    H611013   4.900   1.685   6.049  0.3480 -0.0538 -1.6121
 1056ACTN    C311014   4.800   1.669   6.006 -0.3460 -0.0754 -0.0129
 1056ACTN    H411015   4.754   1.587   6.062  1.9442 -1.7556 -0.5097
 1056ACTN    H511016   4.739   1.757   6.024  1.5424  0.9639  1.5075
 1056ACTN    C211017   4.817   1.640   5.854 -0.4070  0.7515  0.0260
 1056ACTN    O111018   4.718   1.667   5.779 -0.1105 -0.1017 -0.3022
 1056ACTN    C111019   4.935   1.571   5.807 -0.1074 -0.8219  0.3345
 1056ACTN    H111020   5.007   1.574   5.888  0.0636 -1.8220  0.2259
 1056ACTN    H211021   4.976   1.622   5.720  2.1011 -0.4136  1.5952
 1056ACTN    H311022   4.920   1.464   5.789  0.6449 -0.7304 -0.8861
 1057ACTN    H611023   8.552   6.764   0.357  0.1476  0.1558  0.7671
 1057ACTN    C311024   8.563   6.806   0.457 -0.3248  0.0513  0.8646
 1057ACTN    H411025   8.666   6.835   0.480 -1.1945  2.9843  1.2034
 1057ACTN    H511026   8.531   6.733   0.531 -1.3356 -1.2127 -0.7784
 1057ACTN    C211027   8.476   6.926   0.482  0.4222  0.3316 -0.1735
 1057ACTN    O111028   8.434   6.950   0.592  0.6639 -0.7568 -0.3179
 1057ACTN    C111029   8.437   7.020   0.366 -0.1300  0.5132 -0.0263
 1057ACTN    H111030   8.514   7.096   0.359 -0.3913  0.6904 -0.9790
 1057ACTN    H211031   8.334   7.054   0.377 -0.5710 -0.0969 -2.0698
 1057ACTN    H311032   8.437   6.962   0.274 -0.5208 -1.8004  1.3721
 1058ACTN    H611033   2.895   0.792   3.131  0.4924 -0.6402 -0.2230
 1058ACTN    C311034   2.934   0.741   3.219  0.3847  0.2443  0.3513
 1058ACTN    H411035   2.982   0.815   3.282  0.5356  0.4147  0.0354
 1058ACTN    H511036   2.850   0.699   3.274  0.8105 -0.1112  0.7414
 1058ACTN    C211037   3.032   0.630   3.184  0.3141  0.1690  0.7441
 1058ACTN    O111038   3.013   0.549   3.092  0.2341  0.0174  0.1817
 1058ACTN    C111039   3.158   0.642   3.266 -0.4828 -0.2435  0.3607
 1058ACTN    H111040   3.129   0.700   3.353 -4.8382 -1.1558 -0.3736
 1058ACTN    H211041   3.238   0.698   3.217 -0.3537 -0.8103 -0.0901
 1058ACTN    H311042   3.206   0.547   3.291  0.1791 -0.2596 -0.9190
 1059ACTN    H611043   5.349   7.951   6.009  0.1072  1.3324  0.6329
 1059ACTN    C311044   5.260   7.955   6.073 -0.2585 -0.1716  0.2476
 1059ACTN    H411045   5.208   8.048   6.048 -0.6376 -0.3380  0.4159
 1059ACTN    H511046   5.199   7.868   6.052 -0.3957 -0.1653  0.6267
 1059ACTN    C211047   5.294   7.955   6.216  0.2712 -0.0460  0.5768
 1059ACTN    O111048   5.400   7.910   6.251  0.0354 -0.4285 -0.9015
 1059ACTN    C111049   5.213   8.037   6.310 -0.2179  0.2734 -0.1461
 1059ACTN    H111050   5.127   8.071   6.252 -0.6190 -0.6304 -0.0922
 1059ACTN    H211051   5.280   8.115   6.348 -1.4068 -0.3738  3.5017
 1059ACTN    H311052   5.180   7.979   6.396 -0.6386  1.7713  0.7354
 1060ACTN    H611053   2.467   2.355   8.634  0.9362  0.3381  1.4584
 1060ACTN    C311054   2.389   2.315   8.698  0.4239 -0.4971  0.3278
 1060ACTN    H411055   2.388   2.383   8.783 -2.9359  1.1479 -0.9395
 1060ACTN    H511056   2.288   2.321   8.657  0.8837 -1.1078 -0.9279
 1060ACTN    C211057   2.413   2.179   8.749 -0.3988  0.4583 -0.2669
 1060ACTN    O111058   2.441   2.157   8.868  0.4729  0.4292 -0.3546
 1060ACTN    C111059   2.396   2.057   8.651  0.2610 -0.3839  0.2781
 1060ACTN    H111060   2.455   1.975   8.692  0.5306 -0.8075 -0.9635
 1060ACTN    H211061   2.430   2.086   8.552  2.3796 -0.6507  0.8971
 1060ACTN    H311062   2.291   2.028   8.651 -0.4712  1.9593 -3.7579
 1061ACTN    H611063   7.320   7.859   0.273  1.0567 -0.8063  2.3723
 1061ACTN    C311064   7.376   7.953   0.284  0.2503  0.0304 -0.3181
 1061ACTN    H411065   7.452   7.973   0.209  1.3954 -1.2757  0.4709
 1061ACTN    H511066   7.304   8.035   0.275 -1.7389 -1.7229 -1.1037
 1061ACTN    C211067   7.437   7.965   0.417  0.9122  1.0992  0.2542
 1061ACTN    O111068   7.530   7.894   0.450  0.0919  0.4169  0.9515
 1061ACTN    C111069   7.386   8.060   0.521  0.5152 -0.0988  0.0831
 1061ACTN    H111070   7.450   8.145   0.542  0.0364  0.0850  0.8300
 1061ACTN    H211071   7.362   8.008   0.613  1.4695  0.0674  0.4283
 1061ACTN    H311072   7.286   8.101   0.503  0.3399 -0.3512  0.4688
 1062ACTN    H611073   3.479   8.801   0.377  0.2804  0.0120  3.4564
 1062ACTN    C311074   3.374   8.775   0.394 -0.4157 -0.3143 -0.8918
 1062ACTN    H411075   3.330   8.727   0.307 -1.1343 -0.4282 -0.4666
 1062ACTN    H511076   3.368   8.720   0.487  0.1840  0.4554 -0.3942
 1062ACTN    C211077   3.294   8.903   0.413  0.3168 -0.2409 -0.2826
 1062ACTN    O111078   3.171   8.902   0.445 -0.3069  0.1921  0.4181
 1062ACTN    C111079   3.370   9.036   0.417 -0.0551 -0.3250 -0.1411
 1062ACTN    H111080   3.472   9.015   0.386 -0.3262  0.7695 -1.8125
 1062ACTN    H211081   3.368   9.089   0.512 -0.3068 -0.8377  0.1460
 1062ACTN    H311082   3.324   9.105   0.347 -0.0647  1.2030  1.3388
 1063ACTN    H611083   5.367   4.669   7.673 -0.9757  0.6180  0.0866
 1063ACTN    C311084   5.439   4.667   7.756 -0.1013  0.1802 -0.6781
 1063ACTN    H411085   5.367   4.672   7.838  1.4096  1.5973  0.5960
 1063ACTN    H511086   5.490   4.571   7.750 -1.0045 -0.3666  0.2829
 1063ACTN    C211087   5.525   4.791   7.745 -0.1748  0.3071 -0.3803
 1063ACTN    O111088   5.478   4.888   7.687  0.2381 -0.4256  0.3909
 1063ACTN    C111089   5.673   4.768   7.777 -0.1101 -0.9057  0.3327
 1063ACTN    H111090   5.717   4.723   7.688 -1.8543  0.8535 -1.4565
 1063ACTN    H211091   5.686   4.694   7.856 -0.5006 -0.6110  0.6750
 1063ACTN    H311092   5.730   4.859   7.795  0.6069 -1.0133 -1.3191
 1064ACTN    H611093   1.463   6.486   4.148 -0.8628 -1.2706 -0.1976
 1064ACTN    C311094   1.484   6.413   4.070  0.0670 -0.4902 -0.6820
 1064ACTN    H411095   1.491   6.315   4.117 -0.3174 -0.5128 -0.6765
 1064ACTN    H511096   1.395   6.409   4.007  0.4245 -1.0461 -1.1652
 1064ACTN    C211097   1.605   6.449   3.984 -0.3886  0.0921 -0.5109
 1064ACTN    O111098   1.617   6.565   3.940 -0.1406  0.4722 -0.2307
 1064ACTN    C111099   1.693   6.337   3.930 -0.3739 -0.3222  0.2163
 1064ACTN    H111100   1.693   6.329   3.821 -0.2306  3.8938 -0.1597
 1064ACTN    H211101   1.668   6.240   3.972 -2.3300 -0.6518 -1.6295
 1064ACTN    H311102   1.797   6.359   3.954 -0.6515  1.8014 -0.4763
 1065ACTN    H611103   3.801   2.553   5.258  2.9367 -0.7426  1.5518
 1065ACTN    C311104   3.858   2.626   5.201 -0.0759  0.6312  0.2214
 1065ACTN    H411105   3.949   2.576   5.168 -0.3804 -0.7889  1.4931
 1065ACTN    H511106   3.792   2.646   5.116  0.9291 -1.3537 -1.0463
 1065ACTN    C211107   3.898   2.743   5.276  0.1212 -0.4266  0.0284
 1065ACTN    O111108   3.957   2.835   5.224 -0.2191 -0.1844  0.4563
 1065ACTN    C111109   3.883   2.736   5.420  0.2365 -0.0768  0.2535
 1065ACTN    H111110   3.981   2.720   5.466 -0.3659 -0.3613  1.4618
 1065ACTN    H211111   3.833   2.648   5.459  2.1392 -0.6106  1.5955
 1065ACTN    H311112   3.844   2.830   5.459 -0.2024 -0.6081  1.0936
 1066ACTN    H611113   4.022   4.242   3.209 -0.5695  0.4266 -0.9890
 1066ACTN    C311114   4.090   4.169   3.166 -0.2297 -0.2945  0.7032
 1066ACTN    H411115   4.168   4.140   3.236  0.3454 -0.1740  0.1135
 1066ACTN    H511116   4.046   4.076   3.129 -1.5003  0.2159  0.8757
 1066ACTN    C211117   4.154   4.225   3.040  0.4355  0.6744 -0.5860
 1066ACTN    O111118   4.267   4.275   3.050 -0.1137 -0.5285  0.7817
 1066ACTN    C111119   4.086   4.204   2.906 -0.0733  0.5700 -0.4784
 1066ACTN    H111120   4.139   4.244   2.819  1.3602  0.4977  0.3481
 1066ACTN    H211121   3.992   4.258   2.907 -1.7896 -2.2583 -1.9236
 1066ACTN    H311122   4.068   4.097   2.891  2.6957 -0.3776  2.4646
 1067ACTN    H611123   0.496   3.487   7.671  0.0770 -0.1418 -0.2401
 1067ACTN    C311124   0.469   3.495   7.566  0.1844  0.1656 -0.2442
 1067ACTN    H411125   0.459   3.400   7.514  2.0182  0.1711 -0.6459
 1067ACTN    H511126   0.372   3.545   7.560  0.0047 -0.2796 -1.1398
 1067ACTN    C211127   0.578   3.566   7.501 -0.7102 -1.6383 -0.1572
 1067ACTN    O111128   0.558   3.654   7.419 -0.6041 -0.5349  0.0335
 1067ACTN    C111129   0.715   3.519   7.530  0.0297  0.6711 -0.0345
 1067ACTN    H111130   0.716   3.500   7.637  0.4482  1.6105  0.1341
 1067ACTN    H211131   0.787   3.593   7.496  0.1612 -0.5851 -2.6315
 1067ACTN    H311132   0.744   3.425   7.484 -1.8457  0.6943 -1.3605
 1068ACTN    H611133   2.695   7.484   7.860 -0.8659  0.3970  0.4640
 1068ACTN    C311134   2.679   7.574   7.800  0.1109  0.1859 -0.1236
 1068ACTN    H411135   2.570   7.574   7.787  0.1746  0.9857 -0.6822
 1068ACTN    H511136   2.706   7.665   7.852 -1.5861  0.5063  0.2339
 1068ACTN    C211137   2.741   7.560   7.670  0.4319 -0.2327  0.4544
 1068ACTN    O111138   2.840   7.489   7.644 -0.0406  0.2880 -0.2584
 1068ACTN    C111139   2.708   7.646   7.556  0.5873  0.5695  0.0377
 1068ACTN    H111140   2.633   7.719   7.587  0.5175  1.3055 -1.8289
 1068ACTN    H211141   2.674   7.592   7.468 -1.9090  0.8089  0.7980
 1068ACTN    H311142   2.788   7.706   7.513  0.5369 -0.7855 -2.0361
 1069ACTN    H611143   2.032   4.045   8.067  0.3817 -0.7508  0.2406
 1069ACTN    C311144   2.096   4.075   8.151 -0.2302 -0.0060  0.4505
 1069ACTN    H411145   2.179   4.137   8.118  0.2714  1.1458  3.7470
 1069ACTN    H511146   2.124   3.989   8.212  0.6166 -0.7612 -0.9483
 1069ACTN    C211147   2.019   4.169   8.239  0.2676  0.3951 -0.1555
 1069ACTN    O111148   2.073   4.274   8.274  0.2338 -0.1231 -0.0635
 1069ACTN    C111149   1.869   4.157   8.268  0.0858 -0.4769 -0.5904
 1069ACTN    H111150   1.817   4.229   8.206 -0.2947 -0.5293 -0.3399
 1069ACTN    H211151   1.835   4.175   8.370 -3.1232 -4.4241 -0.8184
 1069ACTN    H311152   1.843   4.056   8.235 -1.9790  0.0612 -0.6858
 1070ACTN    H611153   5.016   2.175   0.762 -0.2082  0.2256  0.8261
 1070ACTN    C311154   4.908   2.178   0.775 -0.2463  0.0560  0.5347
 1070ACTN    H411155   4.873   2.086   0.728  0.1388  1.1734 -2.0278
 1070ACTN    H511156   4.874   2.174   0.878 -2.5029 -0.3341 -0.1886
 1070ACTN    C211157   4.851   2.303   0.704  0.1351 -0.3630  0.6276
 1070ACTN    O111158   4.920   2.355   0.620 -0.9039  0.5041  0.1396
 1070ACTN    C111159   4.709   2.346   0.713 -0.3680 -0.1084  0.3276
 1070ACTN    H111160   4.706   2.453   0.733  0.1608 -0.2484  1.1722
 1070ACTN    H211161   4.664   2.287   0.793 -2.2131  0.6886 -0.0912
 1070ACTN    H311162   4.663   2.317   0.619  1.1394 -1.8267  0.1116
 1071ACTN    H611163   5.699   5.934   7.911  2.0238  0.0518 -0.4993
 1071ACTN    C311164   5.707   5.828   7.936  0.0388 -0.0231 -0.1569
 1071ACTN    H411165   5.712   5.819   8.044  0.0186  0.6028 -0.1038
 1071ACTN    H511166   5.616   5.786   7.893  0.5048  0.3161 -1.4974
 1071ACTN    C211167   5.835   5.775   7.873 -0.3690  0.9147  1.4441
 1071ACTN    O111168   5.924   5.722   7.935 -0.1678  0.4071  0.0162
 1071ACTN    C111169   5.856   5.803   7.731 -0.0192 -0.3531  0.1739
 1071ACTN    H111170   5.821   5.903   7.706 -1.3615 -1.0648 -0.8151
 1071ACTN    H211171   5.809   5.726   7.670 -0.4955 -0.4933  0.7130
 1071ACTN    H311172   5.958   5.807   7.693  0.0403 -1.0012  0.2520
 1072ACTN    H611173   3.762   6.843   8.981  0.7232 -0.0893  2.0624
 1072ACTN    C311174   3.659   6.870   9.004  0.3886  0.4271  0.1093
 1072ACTN    H411175   3.613   6.911   8.915  2.0969  1.4388 -0.3282
 1072ACTN    H511176   3.609   6.776   9.028  0.9256 -0.2209 -1.2360
 1072ACTN    C211177   3.645   6.959   9.121 -0.5738  0.5270  0.2927
 1072ACTN    O111178   3.535   6.969   9.176  0.0157  0.1981  0.1962
 1072ACTN    C111179   3.769   7.013   9.184  0.8518  0.4013  0.4772
 1072ACTN    H111180   3.834   6.932   9.218  0.2190 -1.4591 -2.5516
 1072ACTN    H211181   3.739   7.088   9.257  4.1530  1.2775  1.0079
 1072ACTN    H311182   3.824   7.062   9.103  0.4742  1.3637  0.7912
 1073ACTN    H611183   5.682   1.664   3.093 -1.0630 -0.2487  1.7682
 1073ACTN    C311184   5.732   1.754   3.130  0.3219 -0.5216  0.6150
 1073ACTN    H411185   5.781   1.732   3.224 -0.8295  0.6902  1.5257
 1073ACTN    H511186   5.805   1.792   3.058 -0.5592  2.3244  1.1529
 1073ACTN    C211187   5.611   1.853   3.138 -0.6727  0.7496 -0.7367
 1073ACTN    O111188   5.622   1.979   3.147  0.0904 -0.6888  0.2064
 1073ACTN    C111189   5.475   1.783   3.146  0.4861 -0.8605  0.2637
 1073ACTN    H111190   5.481   1.686   3.195  2.0779 -0.3951  1.0324
 1073ACTN    H211191   5.435   1.775   3.045  1.7806  2.5257 -0.5721
 1073ACTN    H311192   5.409   1.845   3.206  0.6457 -1.1449  0.7331
 1074ACTN    H611193   5.925   5.725   7.024 -1.3333 -1.7863  2.5240
 1074ACTN    C311194   6.030   5.702   7.043 -0.3762  0.3240  0.0822
 1074ACTN    H411195   6.097   5.766   6.987 -0.4720 -1.6173 -2.2959
 1074ACTN    H511196   6.067   5.712   7.145  1.9770 -0.4988 -0.6803
 1074ACTN    C211197   6.052   5.551   7.005  0.3305  0.3090  0.6333
 1074ACTN    O111198   5.982   5.459   7.038  0.1252  0.2571  0.2999
 1074ACTN    C111199   6.145   5.532   6.896  0.4820  0.3175  0.5603
 1074ACTN    H111200   6.237   5.589   6.912 -0.0874  1.4391 -0.0314
 1074ACTN    H211201   6.095   5.551   6.801  0.0551  0.0594  0.7283
 1074ACTN    H311202   6.179   5.429   6.895  0.2604  0.2445  0.4707
 1075ACTN    H611203   4.160   6.450   6.133  0.1289 -0.1216 -1.5731
 1075ACTN    C311204   4.262   6.416   6.147  0.0941  0.3359 -0.1099
 1075ACTN    H411205   4.316   6.470   6.224 -0.6738  1.4988 -0.3801
 1075ACTN    H511206   4.253   6.312   6.180 -1.9401  0.3302 -0.5916
 1075ACTN    C211207   4.345   6.397   6.021  0.3046  0.8026  0.6204
 1075ACTN    O111208   4.450   6.333   6.026  0.1857 -0.2471  0.4594
 1075ACTN    C111209   4.292   6.455   5.902 -0.7043 -0.9703  0.4082
 1075ACTN    H111210   4.248   6.372   5.846 -1.0638 -1.5500  1.5360
 1075ACTN    H211211   4.383   6.489   5.852 -0.9879 -0.6433  0.1112
 1075ACTN    H311212   4.221   6.535   5.923  0.8705  0.5052  0.2547
 1076ACTN    H611213   5.736   6.863   8.122 -0.2816  1.5141  1.0820
 1076ACTN    C311214   5.642   6.886   8.072  0.4395  0.5167 -0.7829
 1076ACTN    H411215   5.601   6.976   8.116  0.6805 -0.3735  1.3196
 1076ACTN    H511216   5.567   6.807   8.082  0.3434  0.8138  1.0735
 1076ACTN    C211217   5.664   6.898   7.927 -0.0065 -0.4574 -0.2807
 1076ACTN    O111218   5.740   6.828   7.860  0.1041 -0.7903  0.4102
 1076ACTN    C111219   5.562   6.991   7.858 -0.9381  0.6308 -0.1195
 1076ACTN    H111220   5.514   6.954   7.769  0.9429  0.0919 -0.9348
 1076ACTN    H211221   5.621   7.077   7.825  0.3191 -0.1175  0.1408
 1076ACTN    H311222   5.489   7.014   7.936 -0.3911 -1.6816  1.1077
 1077ACTN    H611223   6.791   1.000   0.963 -1.5252  0.6040 -0.2391
 1077ACTN    C311224   6.743   0.993   1.061  0.0444 -0.1950  0.4894
 1077ACTN    H411225   6.813   1.044   1.128 -0.6460 -0.7823  1.6773
 1077ACTN    H511226   6.649   1.047   1.062  0.2100  0.3217 -3.3570
 1077ACTN    C211227   6.740   0.848   1.107 -0.1642  0.0702  0.1647
 1077ACTN    O111228   6.802   0.764   1.041  0.0434  0.0683  0.3836
 1077ACTN    C111229   6.675   0.815   1.242  0.3382 -0.5169  0.5646
 1077ACTN    H111230   6.619   0.723   1.228  2.2485 -1.8125  1.2719
 1077ACTN    H211231   6.601   0.892   1.264  2.2623  1.4749  0.2753
 1077ACTN    H311232   6.738   0.807   1.330 -0.2670  0.7040  1.1249
 1078ACTN    H611233   7.834   8.447   2.535 -2.9849 -1.9833 -0.8222
 1078ACTN    C311234   7.817   8.408   2.635  0.2556 -0.9183  0.2086
 1078ACTN    H411235   7.793   8.493   2.699 -2.0694 -1.0942 -0.3939
 1078ACTN    H511236   7.720   8.358   2.630 -0.3146  0.3967 -2.7168
 1078ACTN    C211237   7.902   8.321   2.704  0.0844  0.1505  0.2932
 1078ACTN    O111238   7.999   8.353   2.775 -0.2465  0.6983 -0.2040
 1078ACTN    C111239   7.879   8.174   2.696 -0.4492  0.5758  1.2476
 1078ACTN    H111240   7.947   8.120   2.762 -1.0967 -0.0261  1.4382
 1078ACTN    H211241   7.905   8.144   2.594 -0.8873 -1.3510  1.6731
 1078ACTN    H311242   7.779   8.139   2.723 -1.1835  0.7846 -1.0803
 1079ACTN    H611243   3.895   6.636   7.744  0.9152  0.1966 -0.0344
 1079ACTN    C311244   3.916   6.539   7.700 -0.8735 -0.1542 -0.1569
 1079ACTN    H411245   4.022   6.546   7.673 -0.4530 -2.5647  0.7676
 1079ACTN    H511246   3.895   6.459   7.770 -0.5784 -0.0421  0.0633
 1079ACTN    C211247   3.837   6.519   7.573  0.6740  0.7186  0.8010
 1079ACTN    O111248   3.854   6.603   7.480  0.8501 -0.0728  0.3559
 1079ACTN    C111249   3.729   6.416   7.557 -0.6867 -0.4086  0.5763
 1079ACTN    H111250   3.762   6.326   7.610 -0.4009 -0.0657  0.9880
 1079ACTN    H211251   3.706   6.394   7.453  1.9225  2.4977 -0.6822
 1079ACTN    H311252   3.638   6.448   7.608 -0.3686  0.3489  0.6777
 1080ACTN    H611253   8.453   0.346   6.690 -0.4039 -1.2417  2.5829
 1080ACTN    C311254   8.513   0.282   6.625 -0.0617  0.9107  0.6747
 1080ACTN    H411255   8.612   0.326   6.615  0.9728 -1.8216 -1.6256
 1080ACTN    H511256   8.507   0.178   6.658  0.1591  1.3489  2.1532
 1080ACTN    C211257   8.438   0.287   6.491 -0.3516 -0.5285 -0.1312
 1080ACTN    O111258   8.507   0.314   6.389  0.1945  0.5805  0.7209
 1080ACTN    C111259   8.297   0.239   6.461  0.2761  0.5604  0.8747
 1080ACTN    H111260   8.250   0.185   6.542  1.4811  1.1807  2.0077
 1080ACTN    H211261   8.283   0.184   6.368 -2.4711  3.2467 -0.4231
 1080ACTN    H311262   8.240   0.331   6.443  1.2063  0.7504 -1.3464
 1081ACTN    H611263   5.890   3.492   6.431  0.0628  1.4912 -1.4098
 1081ACTN    C311264   5.913   3.401   6.375 -0.3188  0.5173 -0.0110
 1081ACTN    H411265   5.952   3.423   6.276 -0.3424  0.2682 -0.0766
 1081ACTN    H511266   5.974   3.338   6.440 -2.4935 -0.6298  0.9851
 1081ACTN    C211267   5.773   3.341   6.342 -0.1621  0.5491  0.5568
 1081ACTN    O111268   5.753   3.222   6.351 -0.1537  0.0849  0.0619
 1081ACTN    C111269   5.662   3.431   6.285  0.6542  0.8244  0.0624
 1081ACTN    H111270   5.601   3.468   6.368  1.6283  0.8754  0.7755
 1081ACTN    H211271   5.591   3.386   6.216  0.6508 -1.4404  1.4877
 1081ACTN    H311272   5.708   3.517   6.236 -0.3079  2.0069  1.2177
 1082ACTN    H611273   4.851   7.664   6.939  0.0737  0.0166 -0.5838
 1082ACTN    C311274   4.959   7.680   6.930 -0.0055  0.7755 -0.2217
 1082ACTN    H411275   4.982   7.784   6.955  1.1352 -0.0447  2.2295
 1082ACTN    H511276   5.014   7.607   6.988  0.1953 -1.6391 -3.3246
 1082ACTN    C211277   5.006   7.667   6.786 -0.4089 -0.3104  0.3541
 1082ACTN    O111278   4.985   7.565   6.726  0.3239  0.2491  0.1900
 1082ACTN    C111279   5.109   7.762   6.729 -0.0693 -0.0003 -0.0660
 1082ACTN    H111280   5.070   7.853   6.683 -0.2454  1.0509  2.0508
 1082ACTN    H211281   5.175   7.708   6.661  0.1374 -2.3567  1.9220
 1082ACTN    H311282   5.175   7.799   6.807  0.6862 -1.0567 -0.1982
 1083ACTN    H611283   6.495   4.365   5.220  0.5116  1.0106  1.4191
 1083ACTN    C311284   6.598   4.358   5.186  0.0308  0.2896  0.0628
 1083ACTN    H411285   6.658   4.417   5.255  0.6915 -1.5848  1.1281
 1083ACTN    H511286   6.629   4.254   5.191 -1.8832 -0.2108  2.4110
 1083ACTN    C211287   6.599   4.417   5.051  0.0315  0.0537 -0.2588
 1083ACTN    O111288   6.712   4.432   4.998  0.1338  0.1406 -0.0550
 1083ACTN    C111289   6.472   4.455   4.982  0.1282  0.9721  0.4009
 1083ACTN    H111290   6.397   4.376   4.993  0.0266  0.5557 -2.9662
 1083ACTN    H211291   6.497   4.478   4.879  0.6781 -0.5570  0.1819
 1083ACTN    H311292   6.425   4.539   5.033 -1.3402  2.3203 -3.0226
 1084ACTN    H611293   6.191   3.876   0.938  0.3628 -0.0797  1.7389
 1084ACTN    C311294   6.235   3.781   0.908  0.4642  0.6618 -0.5270
 1084ACTN    H411295   6.337   3.799   0.874  1.6008 -2.0638  1.2413
 1084ACTN    H511296   6.228   3.705   0.985  0.6681  2.2534  1.0878
 1084ACTN    C211297   6.163   3.733   0.788  0.1089  0.1982 -0.3511
 1084ACTN    O111298   6.065   3.661   0.802 -0.0540  0.6823 -0.1711
 1084ACTN    C111299   6.181   3.804   0.656  0.0566  0.1684  0.5682
 1084ACTN    H111300   6.185   3.911   0.675 -0.6690  0.5861 -1.5384
 1084ACTN    H211301   6.095   3.776   0.595  1.3695 -1.0149 -0.7750
 1084ACTN    H311302   6.270   3.766   0.606 -0.4295  0.2603 -0.3847
 1085ACTN    H611303   2.911   7.244   5.890  1.9670 -0.4574  0.3240
 1085ACTN    C311304   2.933   7.350   5.882 -0.7462  0.0549 -0.5264
 1085ACTN    H411305   3.040   7.370   5.879  0.1144 -4.1726 -1.0287
 1085ACTN    H511306   2.888   7.392   5.792 -0.2060  0.0447 -0.8001
 1085ACTN    C211307   2.874   7.414   6.009  0.5310  0.0628  0.0612
 1085ACTN    O111308   2.859   7.533   6.019  0.0504 -0.1258 -0.0010
 1085ACTN    C111309   2.789   7.327   6.097  0.2345 -0.1361 -0.0300
 1085ACTN    H111310   2.834   7.228   6.108  1.4466  0.1838 -1.9108
 1085ACTN    H211311   2.695   7.318   6.043  1.2356 -1.4186 -1.5792
 1085ACTN    H311312   2.779   7.380   6.192 -0.3956  1.0964 -0.7736
 1086ACTN    H611313   4.823   1.294   6.205  1.3592 -0.6571 -1.7727
 1086ACTN    C311314   4.743   1.225   6.178 -0.0095  0.6105 -0.9927
 1086ACTN    H411315   4.781   1.161   6.098  3.0440  2.1322 -0.8291
 1086ACTN    H511316   4.723   1.160   6.263  2.0401  1.4009  0.1214
 1086ACTN    C211317   4.619   1.303   6.133 -0.5193  0.2806  0.7015
 1086ACTN    O111318   4.603   1.412   6.191  0.5434  0.2550  0.0875
 1086ACTN    C111319   4.546   1.257   6.010  0.0686  0.6621 -0.2075
 1086ACTN    H111320   4.526   1.150   6.026  1.9154  0.7170  2.8695
 1086ACTN    H211321   4.609   1.271   5.923 -1.2741 -1.6263 -1.6172
 1086ACTN    H311322   4.458   1.319   5.996  1.2596  1.8701 -2.4860
 1087ACTN    H611323   7.626   6.469   7.811  0.1201 -1.9690 -3.4452
 1087ACTN    C311324   7.667   6.560   7.768 -0.0399 -0.1658  0.0810
 1087ACTN    H411325   7.615   6.648   7.807  0.9476 -0.0313  1.1240
 1087ACTN    H511326   7.767   6.577   7.808  0.7851 -0.3268 -1.9003
 1087ACTN    C211327   7.667   6.536   7.620  0.8660  0.2238 -0.2460
 1087ACTN    O111328   7.757   6.465   7.577  0.6942 -0.2641  0.1655
 1087ACTN    C111329   7.577   6.608   7.522 -0.6352  0.3849  0.3526
 1087ACTN    H111330   7.646   6.651   7.449 -1.7910  3.9160  1.2065
 1087ACTN    H211331   7.513   6.685   7.565 -2.3437 -1.2755  0.8085
 1087ACTN    H311332   7.519   6.536   7.463 -0.4765  0.7174 -0.2134
 1088ACTN    H611333   5.240   4.557   7.332  0.8753 -2.1325 -0.6724
 1088ACTN    C311334   5.333   4.609   7.307  0.0562 -0.2323  0.1153
 1088ACTN    H411335   5.351   4.562   7.210 -0.8813  0.1472 -0.2528
 1088ACTN    H511336   5.322   4.716   7.294  2.6492 -0.2092 -2.0939
 1088ACTN    C211337   5.440   4.574   7.402 -0.2475  0.1035  0.1481
 1088ACTN    O111338   5.425   4.469   7.463  0.2417  0.5074 -1.2364
 1088ACTN    C111339   5.577   4.627   7.382  0.7271 -0.6701  0.7701
 1088ACTN    H111340   5.570   4.735   7.393 -0.7986 -0.7952  1.2524
 1088ACTN    H211341   5.614   4.612   7.281  0.1882  1.0878  0.2924
 1088ACTN    H311342   5.650   4.593   7.456  2.4924 -0.2914 -0.7855
 1089ACTN    H611343   5.224   5.231   0.725  2.5307 -0.8239 -0.7779
 1089ACTN    C311344   5.192   5.144   0.666 -0.6364  0.0606 -0.4661
 1089ACTN    H411345   5.118   5.087   0.722 -0.2297 -1.4174 -1.4186
 1089ACTN    H511346   5.141   5.177   0.576 -2.2554 -0.1556  0.3585
 1089ACTN    C211347   5.316   5.068   0.638  0.2943  0.4705 -0.1119
 1089ACTN    O111348   5.372   5.071   0.527 -0.3665 -0.2577 -0.1745
 1089ACTN    C111349   5.371   4.980   0.741 -0.3734 -0.0618  0.2290
 1089ACTN    H111350   5.315   4.980   0.835 -1.0012  1.0148 -0.1374
 1089ACTN    H211351   5.472   5.013   0.767  0.3180 -1.6150 -0.4456
 1089ACTN    H311352   5.380   4.878   0.704 -0.0228  0.9673 -2.5805
 1090ACTN    H611353   0.033   8.269   8.792 -2.0881 -0.8353 -0.9411
 1090ACTN    C311354  -0.026   8.330   8.861 -0.6885 -0.4410 -0.0455
 1090ACTN    H411355  -0.127   8.333   8.819 -0.2355  2.4667 -0.9979
 1090ACTN    H511356  -0.018   8.295   8.964 -0.5717  2.6273  1.0299
 1090ACTN    C211357   0.029   8.466   8.861 -0.0586 -0.2370 -0.0578
 1090ACTN    O111358   0.048   8.525   8.753  0.3504  0.4019 -0.0958
 1090ACTN    C111359   0.055   8.535   8.994  0.6878  0.9687 -0.2313
 1090ACTN    H111360   0.047   8.460   9.073 -0.3893 -0.9833 -2.1402
 1090ACTN    H211361  -0.016   8.615   9.017  0.8188  1.8896 -2.9386
 1090ACTN    H311362   0.155   8.577   8.990  0.3908  1.6211 -0.9521
 1091ACTN    H611363   7.705   8.343   0.192  2.4525  1.6717  0.7527
 1091ACTN    C311364   7.661   8.388   0.281 -0.2546  0.0282  0.3003
 1091ACTN    H411365   7.553   8.374   0.275 -0.5048  2.0693 -0.6064
 1091ACTN    H511366   7.713   8.340   0.364  1.6145  2.6336  0.7067
 1091ACTN    C211367   7.710   8.525   0.294  0.8569  0.7495 -0.0826
 1091ACTN    O111368   7.796   8.570   0.217  0.7894 -0.3518  0.6197
 1091ACTN    C111369   7.647   8.606   0.401  0.1942  0.0568 -0.7060
 1091ACTN    H111370   7.543   8.631   0.381  0.7993  1.6885 -1.9477
 1091ACTN    H211371   7.702   8.700   0.404  0.9338 -0.3660 -0.8001
 1091ACTN    H311372   7.650   8.555   0.497 -1.0373  0.7009 -0.3184
 1092ACTN    H611373   4.362   6.794   0.999 -0.1161 -0.1810  0.2027
 1092ACTN    C311374   4.370   6.898   0.970  0.7070 -0.3600 -0.2396
 1092ACTN    H411375   4.407   6.904   0.867  0.5241  4.7897 -0.1539
 1092ACTN    H511376   4.266   6.932   0.968  1.6803  2.8303 -0.7009
 1092ACTN    C211377   4.450   6.986   1.066 -0.4593 -0.0278 -0.3332
 1092ACTN    O111378   4.560   6.941   1.098 -0.1168  0.5372  0.5562
 1092ACTN    C111379   4.395   7.116   1.118  1.0538  0.4500 -0.1479
 1092ACTN    H111380   4.303   7.139   1.064  0.6880 -0.8544 -0.1043
 1092ACTN    H211381   4.465   7.194   1.089  0.6350  0.6364 -0.6652
 1092ACTN    H311382   4.393   7.117   1.227 -1.5604 -2.4079 -0.0830
 1093ACTN    H611383   6.247   1.423   4.259  1.8591  1.8377  1.5942
 1093ACTN    C311384   6.316   1.434   4.175 -0.1311  0.0392 -0.3760
 1093ACTN    H411385   6.407   1.479   4.215 -2.0448  3.4099  0.4178
 1093ACTN    H511386   6.344   1.336   4.136 -1.8247  0.7826 -3.5883
 1093ACTN    C211387   6.254   1.520   4.072  0.3194 -0.4064  0.3011
 1093ACTN    O111388   6.153   1.581   4.094  0.2284 -0.6307  0.5892
 1093ACTN    C111389   6.315   1.516   3.936  0.0613  0.0122  0.2323
 1093ACTN    H111390   6.408   1.572   3.934 -0.5456  1.1099  1.7086
 1093ACTN    H211391   6.252   1.546   3.852 -0.9919 -0.4920  0.8242
 1093ACTN    H311392   6.342   1.416   3.904 -2.5032 -0.2701 -1.1237
 1094ACTN    H611393   8.580   5.311   2.167  0.7008  1.2149  0.2912
 1094ACTN    C311394   8.642   5.290   2.080 -0.2111 -0.3832  0.0089
 1094ACTN    H411395   8.701   5.376   2.050  0.1476 -0.9526 -0.9482
 1094ACTN    H511396   8.714   5.211   2.100  1.6012  1.1543 -0.3374
 1094ACTN    C211397   8.555   5.250   1.966  0.4212  0.1405  0.2672
 1094ACTN    O111398   8.542   5.130   1.950 -0.8274 -0.5583  0.1738
 1094ACTN    C111399   8.524   5.349   1.860  0.1373 -1.0954  0.3616
 1094ACTN    H111400   8.462   5.303   1.784  0.4188 -1.1401  0.1595
 1094ACTN    H211401   8.612   5.397   1.817 -0.8655 -1.8936 -2.6731
 1094ACTN    H311402   8.458   5.422   1.906  1.3673  0.6747 -0.6136
 1095ACTN    H611403   4.379   8.887   0.384 -0.1645  1.1969  0.2138
 1095ACTN    C311404   4.401   8.880   0.491  0.1574  0.0301  0.0755
 1095ACTN    H411405   4.441   8.780   0.505 -1.8730 -0.8654 -0.3437
 1095ACTN    H511406   4.474   8.952   0.529 -1.4595  1.6342  0.2066
 1095ACTN    C211407   4.268   8.899   0.566  0.5702  0.9206  0.1934
 1095ACTN    O111408   4.198   8.807   0.608 -0.2751  0.4712 -0.5323
 1095ACTN    C111409   4.207   9.028   0.554 -0.1528 -0.1222 -0.7185
 1095ACTN    H111410   4.200   9.058   0.449  1.5471  1.6275 -0.3621
 1095ACTN    H211411   4.265   9.106   0.605 -0.7404 -2.0382  3.0170
 1095ACTN    H311412   4.103   9.023   0.587  0.3291 -1.7667  0.5664
 1096ACTN    H611413   0.466   4.961   1.698  1.6301 -0.4865 -0.9572
 1096ACTN    C311414   0.496   5.062   1.671 -0.2291  0.2683 -0.2394
 1096ACTN    H411415   0.420   5.113   1.611  1.2417  1.7065 -0.9114
 1096ACTN    H511416   0.525   5.117   1.760 -0.2775  0.2007 -0.1808
 1096ACTN    C211417   0.616   5.041   1.587 -0.3016  0.0664  0.9619
 1096ACTN    O111418   0.705   4.965   1.614 -0.0247  0.2441 -0.6967
 1096ACTN    C111419   0.653   5.142   1.486  0.0637 -0.6076  0.3199
 1096ACTN    H111420   0.752   5.127   1.444  0.0462  0.4893 -0.1190
 1096ACTN    H211421   0.650   5.243   1.525 -0.0894 -1.2233  1.9710
 1096ACTN    H311422   0.586   5.132   1.400 -0.1536  1.5257  0.2121
 1097ACTN    H611423   7.404   6.884   0.624  0.2962 -0.2447 -0.1072
 1097ACTN    C311424   7.409   6.800   0.693 -0.2271 -0.0252  0.1941
 1097ACTN    H411425   7.334   6.821   0.770 -0.2998 -2.6680  0.8797
 1097ACTN    H511426   7.394   6.704   0.644 -0.2113  0.3102 -0.4623
 1097ACTN    C211427   7.541   6.794   0.753 -0.2139 -0.9082  0.6455
 1097ACTN    O111428   7.555   6.861   0.855  0.2503  0.1601 -0.4912
 1097ACTN    C111429   7.660   6.737   0.677 -1.1053  0.0983  0.3347
 1097ACTN    H111430   7.751   6.791   0.702  0.1727 -0.7233 -2.2851
 1097ACTN    H211431   7.646   6.748   0.569  1.3975 -0.0438 -0.0315
 1097ACTN    H311432   7.675   6.632   0.701  1.3106  0.2743 -0.2605
 1098ACTN    H611433   2.820   5.813   3.514 -1.4086 -0.4460  2.8411
 1098ACTN    C311434   2.873   5.896   3.562  0.3778 -0.1029  0.3852
 1098ACTN    H411435   2.972   5.896   3.516 -0.3227 -0.0780 -1.1568
 1098ACTN    H511436   2.831   5.993   3.535  1.5633  0.3967  0.2889
 1098ACTN    C211437   2.863   5.899   3.715  0.5323 -0.2637  0.0974
 1098ACTN    O111438   2.785   5.825   3.781 -0.3416 -0.1727  0.2581
 1098ACTN    C111439   2.929   6.009   3.782  0.7636  0.0756 -0.3350
 1098ACTN    H111440   2.869   6.098   3.763  1.2516  0.6850  0.9322
 1098ACTN    H211441   3.029   6.026   3.743 -0.2378  1.8533 -2.2281
 1098ACTN    H311442   2.934   6.003   3.891 -0.2766  0.8183 -0.2366
 1099ACTN    H611443   5.431   3.189   6.949  1.2801 -0.3299  0.8579
 1099ACTN    C311444   5.388   3.120   7.021  0.2051 -0.1128  0.4287
 1099ACTN    H411445   5.439   3.027   6.997  1.4399 -0.5064  4.2760
 1099ACTN    H511446   5.425   3.152   7.118  1.4010  1.3964 -0.5069
 1099ACTN    C211447   5.233   3.113   6.997 -1.0109  0.2148  0.3756
 1099ACTN    O111448   5.163   3.030   7.057  0.2826  0.2109 -0.1886
 1099ACTN    C111449   5.176   3.206   6.890  0.4733  0.9407 -1.4286
 1099ACTN    H111450   5.067   3.204   6.896  0.5728 -2.8607  1.1120
 1099ACTN    H211451   5.206   3.172   6.790 -0.3441  0.2001 -1.4299
 1099ACTN    H311452   5.215   3.307   6.892 -0.3541  1.2822 -2.1119
 1100ACTN    H611453   5.036   3.952   2.639  2.4172 -2.0096  0.6879
 1100ACTN    C311454   4.997   3.884   2.563 -0.3366  0.3780 -0.1205
 1100ACTN    H411455   4.997   3.937   2.468 -1.2060 -0.3268 -0.5263
 1100ACTN    H511456   5.057   3.795   2.545  1.6485  2.0649 -2.1974
 1100ACTN    C211457   4.854   3.858   2.606 -0.4328  0.1029  0.4263
 1100ACTN    O111458   4.810   3.748   2.589  0.0843 -0.2797  0.7897
 1100ACTN    C111459   4.758   3.969   2.639 -0.5401  0.1863 -0.1511
 1100ACTN    H111460   4.762   4.042   2.557  0.6825  0.1918 -0.0984
 1100ACTN    H211461   4.787   4.035   2.721  1.5751 -3.1701  1.9051
 1100ACTN    H311462   4.661   3.928   2.664  0.2192  0.2293  3.0137
 1101ACTN    H611463   4.980   3.483   7.763 -0.1081  0.6321 -0.5709
 1101ACTN    C311464   5.086   3.502   7.744  0.1575  0.1806  0.4000
 1101ACTN    H411465   5.119   3.554   7.834  0.6893  3.6029 -1.6696
 1101ACTN    H511466   5.134   3.408   7.716  0.3686 -0.0886  1.6309
 1101ACTN    C211467   5.104   3.598   7.628 -0.4653  0.6736 -0.7545
 1101ACTN    O111468   5.195   3.582   7.546 -0.2449  0.3340  0.5633
 1101ACTN    C111469   5.039   3.737   7.639  0.5223  0.1597 -0.3168
 1101ACTN    H111470   4.958   3.734   7.567  0.1600  0.4328  0.0802
 1101ACTN    H211471   5.098   3.820   7.600 -0.9026  1.1745 -0.3167
 1101ACTN    H311472   4.999   3.758   7.738 -0.1589  0.0794 -0.5727
 1102ACTN    H611473   0.085   8.680   2.162 -1.0523  0.3441 -0.4549
 1102ACTN    C311474   0.153   8.741   2.221 -0.5720 -0.5751 -0.0553
 1102ACTN    H411475   0.226   8.671   2.263  0.5404  0.1708 -0.7184
 1102ACTN    H511476   0.206   8.806   2.152 -0.5504  0.9430  1.3498
 1102ACTN    C211477   0.082   8.808   2.339  0.6160 -0.0725 -0.1477
 1102ACTN    O111478   0.134   8.846   2.446  0.3219 -0.4952  0.3562
 1102ACTN    C111479  -0.072   8.809   2.333  0.2717 -0.4214  0.4628
 1102ACTN    H111480  -0.116   8.710   2.321 -1.0972  0.2646 -0.1848
 1102ACTN    H211481  -0.090   8.868   2.243  1.0254  1.1694  1.3373
 1102ACTN    H311482  -0.118   8.856   2.419 -0.4464 -0.3663  0.0551
 1103ACTN    H611483   8.269   6.397   6.121  0.2997 -0.7970 -1.3743
 1103ACTN    C311484   8.356   6.437   6.174 -0.6623 -0.2584 -0.1980
 1103ACTN    H411485   8.360   6.410   6.280 -2.1173 -1.9093 -0.5453
 1103ACTN    H511486   8.446   6.389   6.136 -0.6045 -0.3309  0.0318
 1103ACTN    C211487   8.367   6.583   6.137 -0.8125 -0.0890 -1.0659
 1103ACTN    O111488   8.317   6.666   6.215 -0.0704  0.1349  0.7243
 1103ACTN    C111489   8.397   6.619   5.998  0.1616  0.5730 -0.1353
 1103ACTN    H111490   8.503   6.604   5.976  0.0747 -1.1740  0.5530
 1103ACTN    H211491   8.355   6.714   5.964 -2.0687 -0.8490 -1.4463
 1103ACTN    H311492   8.346   6.548   5.934 -1.1099 -1.2755  2.8343
 1104ACTN    H611493   6.852   3.826   8.078  1.6978 -0.4592  1.2402
 1104ACTN    C311494   6.913   3.763   8.014  0.2028 -0.6644 -0.0232
 1104ACTN    H411495   6.952   3.677   8.070 -2.1479 -0.4455  2.0161
 1104ACTN    H511496   6.842   3.726   7.940 -0.6661  1.3771 -0.2286
 1104ACTN    C211497   7.023   3.836   7.949 -0.0415 -0.1027  0.3344
 1104ACTN    O111498   7.103   3.775   7.880 -0.5501 -0.3445 -0.0529
 1104ACTN    C111499   7.041   3.979   7.983 -0.7192  0.2271  0.1662
 1104ACTN    H111500   7.040   3.989   8.091 -0.7633 -1.3224  0.3277
 1104ACTN    H211501   6.950   4.029   7.950 -0.5312 -0.0254 -0.7646
 1104ACTN    H311502   7.122   4.028   7.929 -1.9762  0.3545 -1.6513
 1105ACTN    H611503   7.161   0.701   0.157  1.8315  0.1982 -0.9306
 1105ACTN    C311504   7.215   0.773   0.218  0.1790  0.4565  0.2632
 1105ACTN    H411505   7.315   0.775   0.175  0.1032  2.0317  0.1480
 1105ACTN    H511506   7.162   0.867   0.202 -0.5275  0.0460  0.1876
 1105ACTN    C211507   7.229   0.734   0.367  0.1841 -0.2047 -0.2661
 1105ACTN    O111508   7.334   0.699   0.419 -0.5240  0.1973  0.5293
 1105ACTN    C111509   7.113   0.728   0.459  0.1160 -0.1470 -0.1398
 1105ACTN    H111510   7.035   0.800   0.435  0.3846 -0.2385 -1.3454
 1105ACTN    H211511   7.144   0.746   0.562  0.4905 -0.0730 -0.2654
 1105ACTN    H311512   7.068   0.629   0.454 -0.4748  0.0831  0.5707
 1106ACTN    H611513   1.431   6.767   2.503  0.6780 -0.7128  0.3548
 1106ACTN    C311514   1.429   6.671   2.556  0.5447 -0.6511  0.4623
 1106ACTN    H411515   1.522   6.654   2.610  0.5659 -0.1643  0.5858
 1106ACTN    H511516   1.355   6.676   2.636  0.7389 -1.8006  0.7138
 1106ACTN    C211517   1.428   6.545   2.477  1.0644 -0.2875 -0.0666
 1106ACTN    O111518   1.420   6.557   2.352 -0.4042 -0.1321 -0.0685
 1106ACTN    C111519   1.428   6.415   2.545 -0.0212 -0.0252 -0.1170
 1106ACTN    H111520   1.332   6.366   2.532 -2.2727  3.4791  2.6235
 1106ACTN    H211521   1.449   6.414   2.652  1.1828 -2.1960 -0.3280
 1106ACTN    H311522   1.503   6.348   2.501 -0.6505 -1.5461  1.0959
 1107ACTN    H611523   3.904   5.790   6.962 -3.7921  0.9593  0.9375
 1107ACTN    C311524   3.914   5.750   7.063  0.1555 -0.4872  0.0812
 1107ACTN    H411525   3.813   5.719   7.090  0.9775 -1.1146  2.5718
 1107ACTN    H511526   3.974   5.660   7.063  0.6708 -0.1479 -0.1726
 1107ACTN    C211527   3.951   5.852   7.167  0.2081  0.0912 -0.0641
 1107ACTN    O111528   3.938   5.830   7.287 -0.5629  0.0581 -0.1058
 1107ACTN    C111529   3.977   5.994   7.123  0.2411  0.1339 -0.0905
 1107ACTN    H111530   3.949   6.021   7.021 -1.0150 -1.2642 -0.1384
 1107ACTN    H211531   4.083   6.019   7.135 -0.2467  1.0750  2.5246
 1107ACTN    H311532   3.915   6.061   7.182  3.8762  3.8909 -0.3326
 1108ACTN    H611533   2.335   2.346   4.883 -0.0344  1.9300  0.3879
 1108ACTN    C311534   2.416   2.331   4.954 -0.0884 -0.5813 -0.0208
 1108ACTN    H411535   2.510   2.371   4.916  0.2615 -2.8268 -1.6112
 1108ACTN    H511536   2.394   2.370   5.054  2.1847  0.1257  0.2296
 1108ACTN    C211537   2.428   2.184   4.965  0.5595 -0.0723 -0.5326
 1108ACTN    O111538   2.408   2.125   5.071  0.3324 -0.3050 -0.2396
 1108ACTN    C111539   2.460   2.102   4.841 -0.2293  0.3489 -0.0396
 1108ACTN    H111540   2.463   2.154   4.746 -1.7349 -0.3100 -0.4612
 1108ACTN    H211541   2.398   2.012   4.841  1.6758 -1.0071 -1.4203
 1108ACTN    H311542   2.565   2.074   4.855 -0.1699  0.9859  0.8866
 1109ACTN    H611543   4.737   2.431   7.751  1.1300  1.4655  1.2284
 1109ACTN    C311544   4.720   2.384   7.848 -0.0201 -0.4484  0.1491
 1109ACTN    H411545   4.683   2.284   7.826 -0.0622 -0.5479  0.6486
 1109ACTN    H511546   4.814   2.376   7.903  0.9170 -4.1699 -1.8584
 1109ACTN    C211547   4.619   2.469   7.918 -0.1865  0.1504  0.4000
 1109ACTN    O111548   4.658   2.568   7.980 -0.2130 -0.7182  1.1916
 1109ACTN    C111549   4.465   2.441   7.899 -0.1579 -0.9582 -0.0865
 1109ACTN    H111550   4.404   2.524   7.933  0.3068 -1.6454  2.5811
 1109ACTN    H211551   4.429   2.351   7.950  1.4345 -1.3931  0.3065
 1109ACTN    H311552   4.453   2.435   7.791  0.2616  0.0217 -0.1869
 1110ACTN    H611553   6.338   1.205   5.409  1.9902 -0.5007  1.0454
 1110ACTN    C311554   6.306   1.285   5.476  0.1363  0.0394 -0.4620
 1110ACTN    H411555   6.347   1.377   5.434  0.5334  0.9441  1.8395
 1110ACTN    H511556   6.197   1.285   5.465  0.2193  0.2409 -1.2869
 1110ACTN    C211557   6.353   1.258   5.615 -0.0898  0.4885 -0.6871
 1110ACTN    O111558   6.439   1.178   5.639  0.0540 -0.0917 -0.5900
 1110ACTN    C111559   6.312   1.355   5.716  0.2257  0.1886 -0.8413
 1110ACTN    H111560   6.404   1.412   5.734  0.5932  0.1858 -2.6169
 1110ACTN    H211561   6.271   1.313   5.808 -0.1257  1.9555 -0.1677
 1110ACTN    H311562   6.234   1.424   5.682  1.0495  1.6233  0.1005
 1111ACTN    H611563   3.412   4.850   7.480 -0.7229  1.7666 -0.9057
 1111ACTN    C311564   3.440   4.889   7.578  0.2270  0.3520 -0.5856
 1111ACTN    H411565   3.352   4.871   7.640  0.8982  1.4886  0.7436
 1111ACTN    H511566   3.531   4.833   7.601 -1.2185 -1.3101  1.1951
 1111ACTN    C211567   3.465   5.035   7.575  0.4586  0.2619  0.0939
 1111ACTN    O111568   3.433   5.100   7.477 -0.0545 -0.2680  0.0834
 1111ACTN    C111569   3.489   5.097   7.708 -0.2919  0.3485  1.1990
 1111ACTN    H111570   3.569   5.170   7.709  1.8574 -1.9489  1.0262
 1111ACTN    H211571   3.512   5.027   7.789 -0.3230 -0.6294  0.3596
 1111ACTN    H311572   3.397   5.149   7.736 -1.3054 -1.3708  1.1222
 1112ACTN    H611573   0.538   4.447   1.114 -0.4338  0.9712 -0.8147
 1112ACTN    C311574   0.506   4.496   1.206  0.6090  0.5292 -0.2076
 1112ACTN    H411575   0.565   4.466   1.293 -1.1081 -2.4037  0.0085
 1112ACTN    H511576   0.521   4.602   1.186  3.7574  0.0186 -0.7493
 1112ACTN    C211577   0.355   4.465   1.232  0.2387 -0.1492 -0.2632
 1112ACTN    O111578   0.312   4.415   1.339 -0.0188  0.6211  0.3172
 1112ACTN    C111579   0.250   4.510   1.132  0.1996 -0.5147 -0.1978
 1112ACTN    H111580   0.192   4.427   1.091 -0.3650 -0.3416  0.2503
 1112ACTN    H211581   0.300   4.555   1.046 -0.0173 -0.1840 -0.1546
 1112ACTN    H311582   0.182   4.588   1.168  1.1017  0.8367 -1.3641
 1113ACTN    H611583   4.076   5.893   0.102  0.7617 -2.5655  0.9197
 1113ACTN    C311584   4.117   5.865   0.006 -0.6013 -0.5034 -0.3057
 1113ACTN    H411585   4.096   5.942  -0.068 -1.6410  1.7039  2.2221
 1113ACTN    H511586   4.225   5.852   0.021 -1.0524  0.2901  4.4545
 1113ACTN    C211587   4.052   5.733  -0.033 -0.4639 -0.1723  1.0175
 1113ACTN    O111588   4.112   5.631  -0.007 -0.4607 -0.1895  0.9957
 1113ACTN    C111589   3.910   5.741  -0.061 -0.2579  0.0059  0.0314
 1113ACTN    H111590   3.869   5.670  -0.133 -0.4366  2.5834 -2.4914
 1113ACTN    H211591   3.886   5.843  -0.090  1.1335  0.2580 -0.2724
 1113ACTN    H311592   3.860   5.723   0.034 -1.0923  2.0567  0.0038
 1114ACTN    H611593   6.907   3.821   6.534 -0.7625  0.0260 -1.0417
 1114ACTN    C311594   6.981   3.900   6.523 -0.2564 -0.2275  0.3146
 1114ACTN    H411595   6.924   3.992   6.539  0.9619  0.6818 -0.4735
 1114ACTN    H511596   7.011   3.901   6.418 -2.5316  0.7040 -0.3514
 1114ACTN    C211597   7.091   3.862   6.620  0.1853 -0.3761  0.9171
 1114ACTN    O111598   7.150   3.758   6.600  0.5232  0.0336  0.3495
 1114ACTN    C111599   7.114   3.944   6.734 -0.0084 -0.0040  0.3997
 1114ACTN    H111600   7.110   3.894   6.831 -0.9321  0.8967  0.8214
 1114ACTN    H211601   7.032   4.015   6.734 -1.4520 -1.6278  1.7147
 1114ACTN    H311602   7.213   3.987   6.718 -0.6432  1.3754  0.1822
 1115ACTN    H611603   0.431   3.858   1.782 -3.4803  2.9462 -0.7469
 1115ACTN    C311604   0.364   3.785   1.735 -0.4816 -0.2531 -0.2150
 1115ACTN    H411605   0.334   3.716   1.814 -2.6592 -1.2438 -1.8869
 1115ACTN    H511606   0.272   3.827   1.694  0.5302  1.0635 -1.1730
 1115ACTN    C211607   0.436   3.707   1.626  0.9462  0.5327  0.7813
 1115ACTN    O111608   0.532   3.758   1.573 -0.6509 -0.6562  0.3052
 1115ACTN    C111609   0.431   3.549   1.630  0.0410 -0.5534  0.0533
 1115ACTN    H111610   0.493   3.532   1.718 -0.5481  1.3333  0.8479
 1115ACTN    H211611   0.477   3.494   1.548  0.0320  0.9400 -0.9716
 1115ACTN    H311612   0.327   3.517   1.639 -0.5180  0.6980 -1.6060
 1116ACTN    H611613   8.644   6.198   8.702  0.1851 -1.2947 -3.3222
 1116ACTN    C311614   8.752   6.187   8.693  0.5164 -0.4539 -0.7436
 1116ACTN    H411615   8.797   6.192   8.792  4.8489  1.1555 -2.6944
 1116ACTN    H511616   8.769   6.090   8.646 -2.1836 -1.7063  0.7574
 1116ACTN    C211617   8.795   6.302   8.607  0.4494 -0.2348  0.3294
 1116ACTN    O111618   8.878   6.297   8.514 -0.1623  0.2264 -0.4537
 1116ACTN    C111619   8.745   6.437   8.641 -0.4665  0.0268  0.4809
 1116ACTN    H111620   8.819   6.513   8.615  1.3184 -1.6370  0.5827
 1116ACTN    H211621   8.727   6.450   8.748  0.0562 -0.9545  0.6956
 1116ACTN    H311622   8.659   6.467   8.582  1.6943 -1.1127 -3.4445
 1117ACTN    H611623   0.806   7.220   7.985  1.2441  0.7212  1.3447
 1117ACTN    C311624   0.756   7.192   8.078 -1.2310 -0.0334 -0.1595
 1117ACTN    H411625   0.836   7.178   8.151  0.7303 -0.3798 -2.3161
 1117ACTN    H511626   0.698   7.278   8.112  1.3112  2.0251 -0.8408
 1117ACTN    C211627   0.674   7.065   8.056  0.0385  0.0191  0.1590
 1117ACTN    O111628   0.568   7.067   8.115  0.7290  1.0156  0.2163
 1117ACTN    C111629   0.711   6.970   7.943  0.6344  0.3192 -0.2366
 1117ACTN    H111630   0.714   7.017   7.845  1.4529 -1.8525 -1.2865
 1117ACTN    H211631   0.646   6.883   7.941  2.8769 -1.4980  2.3252
 1117ACTN    H311632   0.813   6.936   7.963  0.1099  0.0219  2.0838
 1118ACTN    H611633   7.747   4.608   1.283 -0.4870 -0.8693  0.3364
 1118ACTN    C311634   7.690   4.568   1.200  0.6943 -0.6900 -0.5641
 1118ACTN    H411635   7.597   4.523   1.237  0.0981  1.4287  0.5600
 1118ACTN    H511636   7.653   4.648   1.137  4.6979  0.9887 -0.9103
 1118ACTN    C211637   7.768   4.465   1.137  0.3097  0.2458 -0.0495
 1118ACTN    O111638   7.876   4.441   1.181 -0.0327 -0.8115 -0.2178
 1118ACTN    C111639   7.707   4.372   1.039  0.2852 -0.4917 -0.2810
 1118ACTN    H111640   7.733   4.270   1.068  0.7774 -0.2346  0.1949
 1118ACTN    H211641   7.732   4.388   0.934 -1.0899  0.9154 -0.4209
 1118ACTN    H311642   7.599   4.382   1.051  0.5637 -0.2137  2.3547
 1119ACTN    H611643   6.528   7.871   1.862  3.4761 -2.0628 -1.6393
 1119ACTN    C311644   6.584   7.916   1.944 -0.0790 -0.2096 -0.0917
 1119ACTN    H411645   6.530   7.897   2.037 -1.1763  1.0290 -0.4680
 1119ACTN    H511646   6.680   7.863   1.947 -0.1600 -0.2821  4.0200
 1119ACTN    C211647   6.588   8.068   1.928  0.2421  0.3265 -0.5674
 1119ACTN    O111648   6.489   8.121   1.881  0.5554  0.2193  0.0736
 1119ACTN    C111649   6.708   8.144   1.976 -0.3872  0.2303  0.1246
 1119ACTN    H111650   6.687   8.246   1.946 -2.2889 -0.6755 -1.7373
 1119ACTN    H211651   6.801   8.117   1.927  0.4454  0.1832  1.7040
 1119ACTN    H311652   6.713   8.143   2.085 -0.0857  1.5683  0.1350
 1120ACTN    H611653   4.322   1.488   5.963 -0.6283  1.4182  0.9035
 1120ACTN    C311654   4.339   1.560   5.883 -0.1120  0.8323  0.4805
 1120ACTN    H411655   4.257   1.631   5.886 -0.8840 -0.0975  2.1191
 1120ACTN    H511656   4.436   1.602   5.906  1.3578 -2.6297  0.9362
 1120ACTN    C211657   4.338   1.486   5.752  0.4719  1.3220 -0.4760
 1120ACTN    O111658   4.289   1.374   5.739 -0.3443 -0.5984 -0.5076
 1120ACTN    C111659   4.358   1.562   5.625 -0.5733 -0.4879  0.3768
 1120ACTN    H111660   4.296   1.651   5.636  0.0549  0.2596 -1.7778
 1120ACTN    H211661   4.328   1.512   5.533  1.4557  2.0037 -1.7077
 1120ACTN    H311662   4.458   1.603   5.618 -0.0316 -1.4513  2.2002
 1121ACTN    H611663   0.033   6.400   0.936  2.8394  1.5112  1.3411
 1121ACTN    C311664  -0.009   6.466   1.012 -0.3471  0.8787  0.2059
 1121ACTN    H411665   0.066   6.525   1.064  0.2705  1.7780 -1.6399
 1121ACTN    H511666  -0.075   6.538   0.964 -2.0129 -0.5266  0.3476
 1121ACTN    C211667  -0.093   6.392   1.114  0.0256  0.6416 -0.4404
 1121ACTN    O111668  -0.212   6.389   1.098  0.1395 -0.2202 -0.3101
 1121ACTN    C111669  -0.020   6.318   1.227 -0.0876  0.2785  0.3046
 1121ACTN    H111670   0.050   6.237   1.208  1.2232  1.1950  1.1556
 1121ACTN    H211671  -0.099   6.276   1.289  0.8763  0.7093  1.8644
 1121ACTN    H311672   0.041   6.394   1.276  0.4700  0.1755 -0.2249
 1122ACTN    H611673   8.919   5.818   7.002 -0.7076  1.9212  0.5678
 1122ACTN    C311674   9.018   5.856   7.030 -0.2324  0.6551  0.6706
 1122ACTN    H411675   9.102   5.794   7.002  0.2375  0.1050  3.1877
 1122ACTN    H511676   9.027   5.954   6.983 -0.0580  0.2356 -0.1725
 1122ACTN    C211677   9.012   5.889   7.176 -0.3864 -0.1324 -0.5065
 1122ACTN    O111678   9.112   5.862   7.244 -0.0711 -0.9194 -0.1804
 1122ACTN    C111679   8.898   5.970   7.229  0.0770  0.1963  0.2471
 1122ACTN    H111680   8.910   6.070   7.186  2.2337 -0.2843 -0.2992
 1122ACTN    H211681   8.902   5.985   7.337 -1.7871  0.4660  0.3046
 1122ACTN    H311682   8.799   5.929   7.206  0.2275  0.7433 -1.4290
 1123ACTN    H611683   3.674   4.762   0.316 -1.1968 -0.5234 -1.2066
 1123ACTN    C311684   3.613   4.847   0.285  0.0066  0.7646 -0.1148
 1123ACTN    H411685   3.678   4.933   0.276  0.4386  0.2910 -1.6208
 1123ACTN    H511686   3.577   4.830   0.184 -0.3370 -0.1260  0.1458
 1123ACTN    C211687   3.506   4.880   0.383  0.2933 -0.3777  0.3713
 1123ACTN    O111688   3.543   4.881   0.504 -0.4616 -0.2449 -0.7983
 1123ACTN    C111689   3.371   4.918   0.337 -0.4439  0.2503  0.0723
 1123ACTN    H111690   3.295   4.847   0.370 -0.6249  0.4091  0.0017
 1123ACTN    H211691   3.358   4.930   0.229 -3.2424 -1.1597  0.1963
 1123ACTN    H311692   3.349   5.015   0.381  0.4274  0.6191 -0.2901
 1124ACTN    H611693   6.974   1.141   8.016  1.2410  0.7967 -0.0480
 1124ACTN    C311694   6.886   1.197   8.048  0.4164 -0.0398 -0.8088
 1124ACTN    H411695   6.875   1.189   8.156  2.8223  0.4473 -0.4983
 1124ACTN    H511696   6.792   1.169   8.000 -0.4965  2.6582 -0.6956
 1124ACTN    C211697   6.917   1.345   8.020 -0.4834 -0.6558  0.4286
 1124ACTN    O111698   6.826   1.428   8.006  0.3236 -0.1404 -0.1798
 1124ACTN    C111699   7.060   1.383   8.036 -0.4656 -0.3265 -0.2150
 1124ACTN    H111700   7.070   1.490   8.017 -1.1202 -0.3193 -0.5237
 1124ACTN    H211701   7.125   1.324   7.971  1.9610 -0.4370  2.2112
 1124ACTN    H311702   7.103   1.367   8.135 -1.1126  0.7686  0.2521
 1125ACTN    H611703   6.447   8.750   4.294 -1.1134 -0.6590 -0.8800
 1125ACTN    C311704   6.500   8.771   4.201  0.4449  0.0513  0.1411
 1125ACTN    H411705   6.468   8.872   4.175  0.0606  0.0120  0.4624
 1125ACTN    H511706   6.608   8.783   4.208  0.5580 -0.4548 -0.6000
 1125ACTN    C211707   6.450   8.691   4.084 -0.3805 -0.3747 -0.4841
 1125ACTN    O111708   6.386   8.747   3.997  0.3509  0.6013  0.3452
 1125ACTN    C111709   6.489   8.548   4.065  0.0668  0.2650 -0.3936
 1125ACTN    H111710   6.403   8.481   4.075  1.6924 -1.7357  0.6471
 1125ACTN    H211711   6.573   8.523   4.129 -0.0727  1.0638  0.1021
 1125ACTN    H311712   6.513   8.546   3.958 -1.2275  3.2494 -0.7800
 1126ACTN    H611713   3.260   3.386   7.490 -0.4145 -1.1881 -0.3734
 1126ACTN    C311714   3.349   3.348   7.440 -0.2823 -0.3802 -0.7637
 1126ACTN    H411715   3.318   3.278   7.362 -0.9470  1.1823 -1.9150
 1126ACTN    H511716   3.394   3.431   7.385  0.2623 -0.1227  0.0725
 1126ACTN    C211717   3.446   3.283   7.530 -0.0074  0.7142  1.1002
 1126ACTN    O111718   3.401   3.198   7.607 -0.0516 -0.2176  0.6255
 1126ACTN    C111719   3.588   3.339   7.551  0.0306  0.1733  0.0670
 1126ACTN    H111720   3.650   3.252   7.571 -0.7126 -0.8567 -1.9061
 1126ACTN    H211721   3.585   3.412   7.632  0.4493 -0.0910  0.3197
 1126ACTN    H311722   3.632   3.396   7.470  0.0090  2.7198  1.7895
 1127ACTN    H611723   7.398   8.751   7.691 -0.9153  0.0677  1.0788
 1127ACTN    C311724   7.484   8.720   7.749  0.0521  0.5648 -0.0593
 1127ACTN    H411725   7.535   8.803   7.799  1.1378 -0.6322  0.8792
 1127ACTN    H511726   7.440   8.656   7.825  0.4703 -0.5518 -0.7425
 1127ACTN    C211727   7.581   8.649   7.661  0.1266  0.8680 -0.1162
 1127ACTN    O111728   7.597   8.530   7.695  0.0066 -0.0833  0.1466
 1127ACTN    C111729   7.676   8.723   7.576 -0.0911 -0.2127  0.6816
 1127ACTN    H111730   7.635   8.721   7.476 -0.5777 -0.4110  0.8827
 1127ACTN    H211731   7.768   8.665   7.569 -1.1397 -1.7839 -0.2662
 1127ACTN    H311732   7.684   8.829   7.601  3.3164 -0.7668  2.2148
 1128ACTN    H611733   7.550   5.331   7.747 -0.4386  1.3673  0.3689
 1128ACTN    C311734   7.554   5.331   7.638  0.0094  0.1458  0.3825
 1128ACTN    H411735   7.636   5.270   7.598 -0.1231  1.1688 -1.5107
 1128ACTN    H511736   7.463   5.281   7.605 -1.1054  0.8752  2.2603
 1128ACTN    C211737   7.539   5.474   7.593  0.0567 -0.1431  0.4817
 1128ACTN    O111738   7.641   5.537   7.555 -0.1103 -0.6664 -0.1253
 1128ACTN    C111739   7.407   5.536   7.564  0.1348 -0.4945 -0.5850
 1128ACTN    H111740   7.333   5.491   7.630 -1.1494  3.8634  1.1012
 1128ACTN    H211741   7.378   5.519   7.460 -0.9907 -0.5221 -0.2706
 1128ACTN    H311742   7.415   5.641   7.590  1.9505 -0.6544 -0.4584
 1129ACTN    H611743   1.461   8.574   2.319  0.6365  1.0023  1.5708
 1129ACTN    C311744   1.531   8.490   2.321 -1.0255 -0.4636 -0.0217
 1129ACTN    H411745   1.596   8.505   2.234  0.1112  0.0578  0.9064
 1129ACTN    H511746   1.596   8.489   2.408 -0.2344 -0.5011 -0.5990
 1129ACTN    C211747   1.459   8.363   2.302 -0.0656 -0.0832  0.6822
 1129ACTN    O111748   1.478   8.300   2.204  0.4761  0.4052 -0.2689
 1129ACTN    C111749   1.417   8.293   2.423 -0.6032  0.8985 -0.5252
 1129ACTN    H111750   1.341   8.216   2.404  2.8715 -2.3345 -1.9756
 1129ACTN    H211751   1.375   8.369   2.488  2.3804  0.4412  2.0376
 1129ACTN    H311752   1.499   8.243   2.475 -1.1817  0.4969  0.0090
 1130ACTN    H611753   7.664   6.963   1.768 -0.1295  0.0110 -0.1304
 1130ACTN    C311754   7.669   6.912   1.865 -0.6615  0.3783  0.0874
 1130ACTN    H411755   7.570   6.879   1.898 -0.6252 -0.6585 -0.8330
 1130ACTN    H511756   7.719   6.819   1.842 -3.0717 -0.9739  0.1608
 1130ACTN    C211757   7.751   6.999   1.960 -0.0053 -0.2411 -0.0672
 1130ACTN    O111758   7.754   7.120   1.945  0.1460  0.7017  0.3097
 1130ACTN    C111759   7.827   6.930   2.069  0.2273 -0.3809  0.3677
 1130ACTN    H111760   7.933   6.924   2.042 -0.7260 -0.1603 -3.8443
 1130ACTN    H211761   7.797   6.827   2.082  0.0228 -0.3199  0.3704
 1130ACTN    H311762   7.808   6.998   2.152 -0.6010 -0.6783  0.4248
 1131ACTN    H611763   1.283   8.639   0.665  0.1302  0.2561 -0.8050
 1131ACTN    C311764   1.380   8.688   0.664  0.4599 -0.3575  0.0821
 1131ACTN    H411765   1.461   8.622   0.696  0.8194 -0.6836 -1.4311
 1131ACTN    H511766   1.397   8.717   0.560 -1.5407  0.3222 -0.0816
 1131ACTN    C211767   1.367   8.822   0.733 -0.3150 -0.6719 -0.0363
 1131ACTN    O111768   1.471   8.891   0.743 -0.2353 -0.1869  0.3810
 1131ACTN    C111769   1.239   8.854   0.801  0.2062  0.6821  0.3298
 1131ACTN    H111770   1.237   8.948   0.856 -0.9237  0.7347  0.2121
 1131ACTN    H211771   1.220   8.767   0.862 -2.7236 -0.9511 -2.7546
 1131ACTN    H311772   1.160   8.852   0.726  0.2028 -2.7443  0.3513
 1132ACTN    H611773   6.979   4.437   7.817  0.0264 -2.1013 -0.6462
 1132ACTN    C311774   7.073   4.418   7.870  0.2149  0.4498  0.0274
 1132ACTN    H411775   7.095   4.312   7.855  0.0117  0.6048 -1.4578
 1132ACTN    H511776   7.149   4.479   7.821  1.0415  0.4933  1.3663
 1132ACTN    C211777   7.047   4.464   8.012  0.0154  0.2174 -0.6226
 1132ACTN    O111778   7.055   4.388   8.108 -0.4664 -0.1716 -0.1550
 1132ACTN    C111779   7.055   4.611   8.025  0.1018 -0.1547 -0.4204
 1132ACTN    H111780   7.159   4.643   8.016  0.0981  0.4424  1.3838
 1132ACTN    H211781   7.016   4.647   8.121 -0.9235  1.1029 -1.2931
 1132ACTN    H311782   6.995   4.659   7.948 -0.2304 -0.1069 -0.1320
 1133ACTN    H611783   6.404   7.742   0.574  0.4395 -2.2356 -0.0769
 1133ACTN    C311784   6.336   7.766   0.492  1.1657 -0.4766 -0.1798
 1133ACTN    H411785   6.234   7.748   0.525  1.8398  1.2340  3.0022
 1133ACTN    H511786   6.348   7.869   0.459  1.4444 -0.8385 -1.2254
 1133ACTN    C211787   6.369   7.683   0.370  0.1903  0.0125 -0.2590
 1133ACTN    O111788   6.354   7.724   0.258 -0.5182  0.3461  0.1356
 1133ACTN    C111789   6.389   7.536   0.395  0.0957 -0.1946 -0.2212
 1133ACTN    H111790   6.429   7.493   0.303  0.1751 -1.0578  0.2147
 1133ACTN    H211791   6.294   7.495   0.429  1.5095 -2.7092  0.7905
 1133ACTN    H311792   6.467   7.518   0.468 -0.7263  0.4079  0.8303
 1134ACTN    H611793   2.009   2.361   6.447 -0.5993  0.2954 -0.0125
 1134ACTN    C311794   2.043   2.431   6.371 -0.0045 -0.1816 -0.1867
 1134ACTN    H411795   2.040   2.533   6.408 -1.3167  0.2929 -1.5455
 1134ACTN    H511796   2.143   2.397   6.343  0.3362  1.4575 -0.9974
 1134ACTN    C211797   1.952   2.411   6.260 -0.3661  0.9731  0.0632
 1134ACTN    O111798   1.911   2.505   6.191  0.2214 -0.1224 -0.5352
 1134ACTN    C111799   1.933   2.264   6.218  0.8655 -0.2597 -0.3728
 1134ACTN    H111800   1.861   2.250   6.137 -0.0878 -0.1823  0.4514
 1134ACTN    H211801   1.904   2.196   6.299 -2.1215 -0.1202 -1.2406
 1134ACTN    H311802   2.030   2.224   6.189  1.4130  0.6366  0.2428
 1135ACTN    H611803   8.582   8.977   8.474 -0.3569  0.1801  1.0797
 1135ACTN    C311804   8.492   9.022   8.433 -0.0102 -0.2594 -0.1879
 1135ACTN    H411805   8.464   9.098   8.505  0.0617 -1.8234  1.5282
 1135ACTN    H511806   8.521   9.073   8.341  0.0977 -1.3479 -0.7676
 1135ACTN    C211807   8.377   8.915   8.402  0.2636  0.0492 -0.2689
 1135ACTN    O111808   8.291   8.947   8.326 -0.7583 -0.4234 -0.1406
 1135ACTN    C111809   8.412   8.770   8.433  0.1542 -0.1760  0.0684
 1135ACTN    H111810   8.395   8.711   8.343 -3.4374  0.3198  0.3253
 1135ACTN    H211811   8.338   8.731   8.503  0.8093 -2.0993 -0.2808
 1135ACTN    H311812   8.504   8.759   8.490 -1.0474 -1.1871  1.8751
 1136ACTN    H611813   8.187   4.419   0.111 -2.7014  0.6375 -1.3052
 1136ACTN    C311814   8.210   4.525   0.124 -0.1517 -0.0559  0.1324
 1136ACTN    H411815   8.182   4.588   0.040 -1.9289 -0.4931  0.3734
 1136ACTN    H511816   8.155   4.546   0.216  1.2707  0.5832  0.8689
 1136ACTN    C211817   8.351   4.528   0.161  0.4026  0.0382 -0.0326
 1136ACTN    O111818   8.423   4.602   0.100 -0.1237  0.2089  0.5455
 1136ACTN    C111819   8.403   4.437   0.271  0.1502 -0.3802 -0.6444
 1136ACTN    H111820   8.368   4.475   0.367  0.6068  0.7426 -0.9126
 1136ACTN    H211821   8.512   4.442   0.270  0.0644  2.5478  0.1843
 1136ACTN    H311822   8.362   4.340   0.243  0.0974  0.0841 -2.1801
 1137ACTN    H611823   5.662   8.369   3.300  2.3502  0.3723 -1.8581
 1137ACTN    C311824   5.684   8.476   3.296  0.0480  0.9534 -0.0027
 1137ACTN    H411825   5.769   8.489   3.362  1.3812 -0.6461 -1.3605
 1137ACTN    H511826   5.708   8.509   3.195 -2.1281 -1.6809 -1.4694
 1137ACTN    C211827   5.561   8.539   3.345  0.0504  1.0637  0.3099
 1137ACTN    O111828   5.514   8.625   3.276  0.3076  0.2950 -0.3096
 1137ACTN    C111829   5.523   8.525   3.486  0.0599  0.1297 -0.2076
 1137ACTN    H111830   5.555   8.423   3.506 -0.0995 -0.1344 -1.2299
 1137ACTN    H211831   5.415   8.523   3.499  0.2172 -3.3249  0.9733
 1137ACTN    H311832   5.580   8.599   3.543  1.6747 -0.2407 -1.2868
 1138ACTN    H611833   3.631   8.583   4.600  1.2720  0.0670 -0.7377
 1138ACTN    C311834   3.673   8.490   4.637 -0.3016 -0.1303  0.6082
 1138ACTN    H411835   3.772   8.509   4.678  0.3549  0.3432 -1.1735
 1138ACTN    H511836   3.615   8.440   4.715 -0.3194 -1.7617 -0.4275
 1138ACTN    C211837   3.699   8.403   4.521  0.7538  0.4203 -0.0889
 1138ACTN    O111838   3.682   8.281   4.526  0.7904 -0.1009 -0.4171
 1138ACTN    C111839   3.754   8.467   4.397  1.2536  0.0522 -0.2170
 1138ACTN    H111840   3.822   8.399   4.344  0.9119 -0.5541  0.1129
 1138ACTN    H211841   3.807   8.560   4.418 -2.2277  1.8906  0.7885
 1138ACTN    H311842   3.675   8.493   4.326  2.0357  0.1943 -1.0454
 1139ACTN    H611843   3.513   4.730   6.045  1.0841 -0.8024  0.3234
 1139ACTN    C311844   3.567   4.747   5.951  0.4480  0.1112  0.1142
 1139ACTN    H411845   3.570   4.657   5.889  3.3700  0.3972 -0.1937
 1139ACTN    H511846   3.527   4.829   5.891 -0.7233 -1.6953 -1.6551
 1139ACTN    C211847   3.708   4.788   5.988 -0.0261  0.1530  0.0697
 1139ACTN    O111848   3.807   4.748   5.923 -0.1262  0.2604  0.5066
 1139ACTN    C111849   3.719   4.890   6.107  0.8752  0.2847  0.0106
 1139ACTN    H111850   3.689   4.844   6.201 -0.4211  1.7014  0.3088
 1139ACTN    H211851   3.647   4.970   6.088  1.4656  1.0252  0.8709
 1139ACTN    H311852   3.819   4.930   6.123  1.1414 -0.0680 -0.7338
 1140ACTN    H611853   7.594   1.763   7.995  1.1520 -1.4881  0.5738
 1140ACTN    C311854   7.594   1.717   7.896 -0.3796 -0.7952  0.2377
 1140ACTN    H411855   7.546   1.620   7.894  1.6159 -1.7967 -0.9378
 1140ACTN    H511856   7.534   1.785   7.836  3.0406  0.6150 -1.7422
 1140ACTN    C211857   7.735   1.722   7.850 -0.9586 -0.4401  0.8047
 1140ACTN    O111858   7.788   1.616   7.806  0.1266 -0.1986 -0.1813
 1140ACTN    C111859   7.799   1.857   7.829  0.8256 -0.6890  0.4182
 1140ACTN    H111860   7.733   1.935   7.866 -1.2718 -0.8918 -2.7334
 1140ACTN    H211861   7.818   1.870   7.722  1.3686  0.4872  0.6507
 1140ACTN    H311862   7.891   1.859   7.887  0.3659 -1.8055  1.2190
 1141ACTN    H611863   4.038   6.097   2.366 -1.2583 -1.7092 -0.2944
 1141ACTN    C311864   4.116   6.051   2.426 -0.1919 -0.0498 -0.3626
 1141ACTN    H411865   4.079   5.952   2.453 -1.8494  0.3396 -1.1425
 1141ACTN    H511866   4.197   6.035   2.354  0.8229 -0.9176  0.9349
 1141ACTN    C211867   4.155   6.157   2.528  0.0726 -0.0656  0.5948
 1141ACTN    O111868   4.188   6.132   2.642  0.1520 -0.3452 -0.2342
 1141ACTN    C111869   4.133   6.300   2.489 -0.3526  0.0408 -0.8077
 1141ACTN    H111870   4.217   6.370   2.495 -0.7900  0.3475  2.8095
 1141ACTN    H211871   4.053   6.340   2.550 -0.5965  1.7243 -2.1900
 1141ACTN    H311872   4.098   6.302   2.385 -2.9955 -2.0703 -0.0290
 1142ACTN    H611873   1.018   1.739   3.856  0.4842 -0.4568 -0.1781
 1142ACTN    C311874   0.971   1.643   3.878  0.0646 -0.2568 -0.2062
 1142ACTN    H411875   1.029   1.595   3.957  0.5248 -0.4488 -0.6573
 1142ACTN    H511876   0.868   1.663   3.909  0.3221 -1.9481  1.8886
 1142ACTN    C211877   0.967   1.564   3.754  0.2911  0.0152  0.5914
 1142ACTN    O111878   0.955   1.618   3.641  0.0563 -0.2862 -0.0335
 1142ACTN    C111879   1.033   1.425   3.754 -0.2997 -1.0462 -0.1287
 1142ACTN    H111880   1.027   1.377   3.851 -0.4199  2.4578  1.6836
 1142ACTN    H211881   1.136   1.425   3.717 -0.1107 -1.0869  0.4051
 1142ACTN    H311882   0.969   1.365   3.689 -1.4524 -1.1264  1.0717
 1143ACTN    H611883   5.611   7.676   3.783 -0.0062 -0.0590  2.8596
 1143ACTN    C311884   5.714   7.670   3.818  1.2003 -0.0975 -0.5041
 1143ACTN    H411885   5.708   7.675   3.927  1.6375 -0.2579 -0.4710
 1143ACTN    H511886   5.751   7.571   3.789  1.0706  0.4513 -2.5923
 1143ACTN    C211887   5.781   7.789   3.761  0.0935  0.8856  0.0776
 1143ACTN    O111888   5.885   7.825   3.817 -0.4561  0.2605  0.3911
 1143ACTN    C111889   5.716   7.862   3.649 -0.4031  0.2431  0.4659
 1143ACTN    H111890   5.610   7.870   3.674  0.1641  1.0943  2.7305
 1143ACTN    H211891   5.728   7.804   3.558  0.2869 -1.3509  1.5428
 1143ACTN    H311892   5.760   7.960   3.628 -1.6230  0.7059  0.0362
 1144ACTN    H611893   2.741   8.382   0.064 -0.6888 -1.1842  1.1472
 1144ACTN    C311894   2.723   8.312  -0.018 -0.3730  0.3974 -0.3073
 1144ACTN    H411895   2.625   8.328  -0.062  0.0384 -0.0766 -1.4181
 1144ACTN    H511896   2.788   8.331  -0.102  1.7057  2.1545  1.6412
 1144ACTN    C211897   2.746   8.173   0.020 -0.5033  0.9322 -0.2593
 1144ACTN    O111898   2.804   8.147   0.125  0.4631  0.6550 -0.0982
 1144ACTN    C111899   2.716   8.071  -0.083  0.5530 -0.1398  0.0268
 1144ACTN    H111900   2.737   8.088  -0.188  1.5021 -1.4406 -0.0083
 1144ACTN    H211901   2.612   8.043  -0.066 -0.2031  1.3711 -1.9656
 1144ACTN    H311902   2.766   7.977  -0.057  0.2817 -0.3154 -0.0900
 1145ACTN    H611903   4.065   0.075   2.927 -1.3074 -0.4033  2.7467
 1145ACTN    C311904   4.107   0.154   2.990  0.2961  0.4961  0.6153
 1145ACTN    H411905   4.054   0.248   2.977 -1.8187 -0.8689 -1.0937
 1145ACTN    H511906   4.093   0.119   3.092  1.2573 -2.4804 -0.2247
 1145ACTN    C211907   4.251   0.158   2.958  0.0125 -0.1066 -1.2299
 1145ACTN    O111908   4.329   0.223   3.026  0.0569 -0.5466  0.4526
 1145ACTN    C111909   4.301   0.113   2.821  0.0661  0.6279 -0.2171
 1145ACTN    H111910   4.230   0.051   2.767  0.8828 -0.0971 -0.4769
 1145ACTN    H211911   4.391   0.052   2.835 -0.9870 -0.5052  1.8354
 1145ACTN    H311912   4.314   0.198   2.755 -2.6928 -0.0013 -1.6477
 1146ACTN    H611913   7.014   0.073   4.977 -0.9739 -1.6638 -1.2051
 1146ACTN    C311914   6.918   0.124   4.970 -0.3486 -0.2894 -0.1559
 1146ACTN    H411915   6.847   0.044   4.989 -0.0326 -0.3776  0.6523
 1146ACTN    H511916   6.907   0.197   5.050 -1.6396 -2.4956  1.7449
 1146ACTN    C211917   6.885   0.176   4.838  0.4007  0.0113  0.7289
 1146ACTN    O111918   6.969   0.242   4.775  0.1890  0.5138 -0.0523
 1146ACTN    C111919   6.751   0.154   4.778  0.7427 -0.1275 -0.2236
 1146ACTN    H111920   6.674   0.213   4.828 -1.6108 -2.4368 -0.9617
 1146ACTN    H211921   6.720   0.051   4.798 -2.5003  0.9386  0.6397
 1146ACTN    H311922   6.747   0.170   4.670 -2.5148  1.2698  0.0386
 1147ACTN    H611923   2.346   7.691   6.958 -0.2183  0.1170 -1.5474
 1147ACTN    C311924   2.292   7.603   6.994  0.3382  0.4690  0.1994
 1147ACTN    H411925   2.230   7.627   7.080 -1.7807 -4.0919  0.0728
 1147ACTN    H511926   2.229   7.569   6.913  1.9310 -1.9915 -0.0675
 1147ACTN    C211927   2.396   7.507   7.053 -0.2263 -0.0929  0.5179
 1147ACTN    O111928   2.437   7.411   6.993  0.1058  0.4670  0.9893
 1147ACTN    C111929   2.466   7.532   7.180  0.1575 -0.0194 -0.4871
 1147ACTN    H111930   2.538   7.453   7.200  1.5432  1.7749  1.9464
 1147ACTN    H211931   2.392   7.524   7.259 -1.2421  0.9157 -1.6633
 1147ACTN    H311932   2.515   7.629   7.188  0.1285 -0.2454  3.4821
 1148ACTN    H611933   8.005   6.985   5.921  0.0626  0.7928 -0.3751
 1148ACTN    C311934   8.037   7.014   5.821  0.6588  0.4786 -0.2810
 1148ACTN    H411935   7.960   7.059   5.758 -0.9996 -0.0508  1.3174
 1148ACTN    H511936   8.118   7.085   5.832  1.4345 -0.1362 -1.9578
 1148ACTN    C211937   8.083   6.888   5.754 -0.2495 -0.3340  0.5362
 1148ACTN    O111938   8.075   6.775   5.801 -0.0750  0.5740  0.2952
 1148ACTN    C111939   8.137   6.896   5.618 -0.3179  0.4378  0.4675
 1148ACTN    H111940   8.144   6.997   5.576 -0.0557 -0.2721 -1.2403
 1148ACTN    H211941   8.076   6.834   5.553 -0.9122  0.9444  0.5357
 1148ACTN    H311942   8.242   6.867   5.617  0.1294  1.8801 -2.2509
 1149ACTN    H611943   2.208   1.861   5.610  1.5347  1.7591 -1.3023
 1149ACTN    C311944   2.245   1.776   5.553 -0.1166  0.3927 -0.3809
 1149ACTN    H411945   2.311   1.711   5.609 -0.4557 -0.3543 -0.8323
 1149ACTN    H511946   2.157   1.714   5.535 -0.8468  0.0793  3.8119
 1149ACTN    C211947   2.301   1.815   5.426 -0.0025  0.1270 -0.2330
 1149ACTN    O111948   2.247   1.797   5.321  0.0395  0.4143  0.3492
 1149ACTN    C111949   2.417   1.909   5.437 -0.4136 -0.2184  0.5490
 1149ACTN    H111950   2.499   1.856   5.485  0.7542  0.1559 -1.0050
 1149ACTN    H211951   2.391   1.994   5.502  0.3695  0.6198 -0.2152
 1149ACTN    H311952   2.444   1.944   5.337  1.6839 -1.3779  0.7028
 1150ACTN    H611953   8.239   8.305   6.037  1.7462 -2.9945  2.9855
 1150ACTN    C311954   8.266   8.400   6.083 -0.3373 -0.4394 -0.8014
 1150ACTN    H411955   8.326   8.454   6.009  0.6219 -0.5763 -0.1311
 1150ACTN    H511956   8.177   8.459   6.101 -1.2925 -1.5960 -1.6128
 1150ACTN    C211957   8.358   8.378   6.202  0.4600 -0.2879 -0.4832
 1150ACTN    O111958   8.392   8.478   6.267  0.3177  0.0200 -0.3935
 1150ACTN    C111959   8.367   8.242   6.243  0.0820  0.3976 -0.1107
 1150ACTN    H111960   8.273   8.188   6.249 -0.0503  0.0420 -3.8699
 1150ACTN    H211961   8.421   8.225   6.336  1.6441 -0.0476 -1.0722
 1150ACTN    H311962   8.420   8.191   6.162  1.7037  3.0501 -0.7976
 1151ACTN    H611963   1.759   8.282   1.332  0.0357  0.9565 -2.3906
 1151ACTN    C311964   1.842   8.345   1.364 -0.4653  0.3981  0.1022
 1151ACTN    H411965   1.808   8.448   1.362  0.2347  0.6239 -0.0516
 1151ACTN    H511966   1.917   8.340   1.285  0.4103  0.1195  0.9358
 1151ACTN    C211967   1.914   8.306   1.489 -0.4612  0.0692  0.0907
 1151ACTN    O111968   1.985   8.390   1.543  0.4578  0.1447 -0.5424
 1151ACTN    C111969   1.880   8.185   1.563 -0.6305  0.4327  0.0254
 1151ACTN    H111970   1.921   8.108   1.497 -0.4150  0.2792  0.3404
 1151ACTN    H211971   1.774   8.170   1.583 -0.7925  2.7710  1.1052
 1151ACTN    H311972   1.934   8.189   1.658  2.4286  0.4606 -1.6421
 1152ACTN    H611973   8.053   7.612   7.999 -0.7579 -0.0136 -0.7498
 1152ACTN    C311974   8.072   7.509   7.966  0.4564 -0.0755  0.1036
 1152ACTN    H411975   8.118   7.461   8.052 -0.4132 -1.5717 -0.2597
 1152ACTN    H511976   7.982   7.449   7.954 -0.3644  1.2880 -0.7302
 1152ACTN    C211977   8.166   7.493   7.852  0.0108  0.2298  0.3773
 1152ACTN    O111978   8.258   7.572   7.843  0.3645  1.1026 -0.0413
 1152ACTN    C111979   8.163   7.365   7.777 -0.4298 -0.0325 -0.1652
 1152ACTN    H111980   8.060   7.327   7.775 -0.8969  1.0657  1.4818
 1152ACTN    H211981   8.231   7.294   7.824 -2.0981 -2.3546 -1.1423
 1152ACTN    H311982   8.198   7.379   7.675  0.7156  0.2316  0.2623
 1153ACTN    H611983   0.830   5.186   0.357  0.9748 -2.5142  0.8146
 1153ACTN    C311984   0.817   5.151   0.254 -0.2041  0.0028  0.0659
 1153ACTN    H411985   0.892   5.199   0.192  0.3158 -0.0109  0.6725
 1153ACTN    H511986   0.719   5.179   0.217 -0.5537 -0.1365  0.8670
 1153ACTN    C211987   0.824   4.998   0.253  0.2656 -0.4252 -0.9748
 1153ACTN    O111988   0.934   4.944   0.266  0.5545 -0.3706 -0.3520
 1153ACTN    C111989   0.704   4.910   0.278  0.2812 -0.4491 -0.4110
 1153ACTN    H111990   0.660   4.930   0.376 -0.9345 -0.5039 -0.9432
 1153ACTN    H211991   0.719   4.802   0.272  3.2137 -0.0084 -2.2620
 1153ACTN    H311992   0.626   4.925   0.204 -0.3445 -2.2591 -0.1263
 1154ACTN    H611993   5.678   6.732   2.963  0.9823  1.4002 -0.7958
 1154ACTN    C311994   5.580   6.773   2.937 -0.2988 -0.4878  0.8049
 1154ACTN    H411995   5.505   6.695   2.927 -0.3776 -0.2580 -0.4907
 1154ACTN    H511996   5.577   6.802   2.832 -1.1175 -2.7675  0.1551
 1154ACTN    C211997   5.550   6.871   3.029  0.4649 -0.3928 -0.8059
 1154ACTN    O111998   5.610   6.973   3.035 -0.1619  0.0289  0.1937
 1154ACTN    C111999   5.437   6.851   3.120  0.1347 -0.3922  0.1048
 1154ACTN    H112000   5.439   6.748   3.156 -0.9604 -0.2433  0.6151
 1154ACTN    H212001   5.346   6.878   3.067  0.4175 -0.0912 -0.2268
 1154ACTN    H312002   5.443   6.912   3.210 -0.9396  0.6774 -0.5391
 1155ACTN    H612003   7.803   7.528   7.512 -0.3882 -0.3997 -0.5094
 1155ACTN    C312004   7.740   7.453   7.464 -0.4623 -0.7392  0.1160
 1155ACTN    H412005   7.724   7.479   7.359  2.1486  0.1549 -0.1046
 1155ACTN    H512006   7.796   7.359   7.454 -0.9597 -0.9072 -1.2372
 1155ACTN    C212007   7.615   7.430   7.539 -0.0161 -0.5377  0.0083
 1155ACTN    O112008   7.584   7.500   7.637 -0.0210  0.2901  0.2899
 1155ACTN    C112009   7.514   7.329   7.495  0.2788  0.2026 -0.0464
 1155ACTN    H112010   7.489   7.261   7.577  2.8466 -2.7737 -1.6170
 1155ACTN    H212011   7.556   7.267   7.416 -0.7525  0.4238 -0.7915
 1155ACTN    H312012   7.428   7.380   7.451  0.0985  0.5759  0.7248
 1156ACTN    H612013   7.275   2.198   8.163 -0.2927 -0.0530 -1.3447
 1156ACTN    C312014   7.371   2.204   8.112  0.1618 -0.5369 -0.5597
 1156ACTN    H412015   7.366   2.264   8.021  0.5241 -1.3150 -1.1023
 1156ACTN    H512016   7.443   2.251   8.178  4.0317 -2.3921 -3.2416
 1156ACTN    C212017   7.437   2.072   8.086 -0.5347 -0.3471  0.4154
 1156ACTN    O112018   7.530   2.061   8.004  0.5090 -0.3791 -0.0545
 1156ACTN    C112019   7.378   1.963   8.158  0.0011 -0.8901 -0.0006
 1156ACTN    H112020   7.448   1.904   8.217  0.2429 -0.7013 -0.1007
 1156ACTN    H212021   7.338   1.895   8.082  0.1277 -0.1553 -0.7257
 1156ACTN    H312022   7.293   1.990   8.220  1.1656  0.4824  1.0208
 1157ACTN    H612023   4.177   6.082   2.999  0.5540  0.4634 -0.8035
 1157ACTN    C312024   4.224   6.142   3.076  0.0364 -0.8036  0.5258
 1157ACTN    H412025   4.333   6.132   3.066 -0.1089 -1.8331 -0.1179
 1157ACTN    H512026   4.195   6.246   3.069  0.9818 -0.6733 -2.1412
 1157ACTN    C212027   4.165   6.099   3.208  0.1141 -0.6842  0.1914
 1157ACTN    O112028   4.058   6.146   3.252 -0.1390  0.0298 -0.3367
 1157ACTN    C112029   4.252   6.009   3.303 -0.2793  0.8417 -0.5754
 1157ACTN    H112030   4.215   5.907   3.306 -2.2914  1.5336 -0.4625
 1157ACTN    H212031   4.239   6.040   3.407  1.0133  2.8655 -0.9991
 1157ACTN    H312032   4.360   6.011   3.290 -0.2698 -0.2429 -0.6822
 1158ACTN    H612033   7.943   5.613   8.245  0.0468 -0.4735 -2.6788
 1158ACTN    C312034   8.026   5.683   8.239 -0.2115  0.0475 -0.4474
 1158ACTN    H412035   7.984   5.774   8.195  2.7012  2.0181  0.6814
 1158ACTN    H512036   8.062   5.709   8.339 -0.5931  1.0504 -0.5657
 1158ACTN    C212037   8.144   5.638   8.162 -0.9521 -0.3982  1.3719
 1158ACTN    O112038   8.178   5.523   8.172 -0.1257 -0.0627  0.8122
 1158ACTN    C112039   8.235   5.750   8.106 -0.3117 -0.6642  0.0811
 1158ACTN    H112040   8.334   5.708   8.091  0.0798  0.7117 -1.2480
 1158ACTN    H212041   8.248   5.838   8.169  0.4227 -0.7360  0.0339
 1158ACTN    H312042   8.188   5.778   8.012 -0.0886  0.0992  0.1931
 1159ACTN    H612043   6.034   7.976   2.789  1.0689  0.1134  3.1831
 1159ACTN    C312044   6.113   7.903   2.773  0.0164 -0.4363  0.1175
 1159ACTN    H412045   6.157   7.885   2.871  1.1558  3.3393  0.3660
 1159ACTN    H512046   6.078   7.803   2.747 -1.5350 -0.0954  0.8140
 1159ACTN    C212047   6.212   7.948   2.672 -0.7955 -0.6919  0.2586
 1159ACTN    O112048   6.309   8.012   2.712 -0.4697 -0.2016  0.4783
 1159ACTN    C112049   6.161   7.963   2.527 -0.1936  0.0787 -0.2806
 1159ACTN    H112050   6.081   7.889   2.521 -1.1337  1.1055 -0.3820
 1159ACTN    H212051   6.238   7.943   2.452 -0.2651 -2.8333  0.3595
 1159ACTN    H312052   6.129   8.063   2.499  1.5375  0.4862 -0.9031
 1160ACTN    H612053   5.879   5.062   3.618 -0.2947 -0.0213 -0.7342
 1160ACTN    C312054   5.815   5.100   3.698 -0.0297 -0.1050 -0.4827
 1160ACTN    H412055   5.805   5.208   3.687  0.4945 -0.1104 -1.1065
 1160ACTN    H512056   5.717   5.053   3.695 -1.2500  2.2367  1.5039
 1160ACTN    C212057   5.884   5.066   3.830 -0.1662 -0.1123 -0.0765
 1160ACTN    O112058   5.898   5.158   3.911  0.4059  0.2353  0.6314
 1160ACTN    C112059   5.888   4.925   3.870  0.0003 -0.6221  0.0507
 1160ACTN    H112060   5.946   4.916   3.962  2.4703 -3.1763 -1.6525
 1160ACTN    H212061   5.928   4.864   3.789  0.5284  0.5022 -0.5392
 1160ACTN    H312062   5.786   4.893   3.891 -1.1286  0.4172 -3.4870
 1161ACTN    H612063   1.470   1.492   5.530  2.0096 -0.8477 -0.0259
 1161ACTN    C312064   1.454   1.487   5.638 -0.2458 -0.7746 -0.3317
 1161ACTN    H412065   1.481   1.385   5.665  0.4856 -0.9600 -1.7113
 1161ACTN    H512066   1.530   1.556   5.676  1.1185 -3.4103  1.8777
 1161ACTN    C212067   1.313   1.516   5.683 -0.0724 -0.1329 -0.1242
 1161ACTN    O112068   1.290   1.581   5.781  0.0900  0.3794  0.1257
 1161ACTN    C112069   1.191   1.451   5.605 -0.6534 -0.2767 -0.2048
 1161ACTN    H112070   1.095   1.475   5.649 -0.4856  2.0701 -1.0731
 1161ACTN    H212071   1.199   1.344   5.583  3.1115  0.5058 -3.1596
 1161ACTN    H312072   1.185   1.494   5.505  1.6389 -1.9813 -1.1198
 1162ACTN    H612073   2.422   1.675   3.791  0.4446  1.1511  0.9664
 1162ACTN    C312074   2.454   1.665   3.687 -0.1899  0.5938  0.8232
 1162ACTN    H412075   2.421   1.759   3.644  0.1039  1.1223  1.7356
 1162ACTN    H512076   2.561   1.650   3.671 -0.2116  0.6701  0.6064
 1162ACTN    C212077   2.380   1.552   3.621 -0.3557  0.6435 -0.0857
 1162ACTN    O112078   2.395   1.435   3.663  0.1483 -0.1587 -0.1400
 1162ACTN    C112079   2.277   1.568   3.511 -0.1136  0.2979 -0.1766
 1162ACTN    H112080   2.198   1.627   3.557 -0.0695 -0.2315  0.5735
 1162ACTN    H212081   2.231   1.478   3.469 -0.4554  0.4215 -0.0742
 1162ACTN    H312082   2.315   1.624   3.425 -1.0999  1.3356  0.0453
 1163ACTN    H612083   1.476   0.552   2.225 -0.6305 -0.6926  0.0359
 1163ACTN    C312084   1.522   0.541   2.127 -0.0489  0.7483  0.1330
 1163ACTN    H412085   1.445   0.571   2.055  0.1967  1.2375  0.0752
 1163ACTN    H512086   1.606   0.609   2.115  2.0417 -2.0509 -1.5614
 1163ACTN    C212087   1.576   0.400   2.116 -0.1982  0.4113  0.9065
 1163ACTN    O112088   1.644   0.368   2.018  0.6146  0.4399  0.0216
 1163ACTN    C112089   1.546   0.300   2.220  0.6927  0.2445 -1.0030
 1163ACTN    H112090   1.505   0.211   2.172 -1.6933  0.2856  0.8241
 1163ACTN    H212091   1.464   0.340   2.280 -0.4177 -1.5772 -1.2610
 1163ACTN    H312092   1.625   0.274   2.290 -0.2452 -0.0406 -0.0398
 1164ACTN    H612093   2.729   3.345   8.548  2.0308  0.2038  1.9574
 1164ACTN    C312094   2.653   3.292   8.606  0.3577  0.0937 -0.2688
 1164ACTN    H412095   2.606   3.365   8.673 -0.1275 -0.1286 -0.3720
 1164ACTN    H512096   2.578   3.264   8.533 -0.4111 -0.8320  0.8647
 1164ACTN    C212097   2.718   3.178   8.666 -0.2091 -0.2523 -0.0872
 1164ACTN    O112098   2.763   3.094   8.590 -0.2397 -0.9372  0.6545
 1164ACTN    C112099   2.703   3.137   8.814 -0.2203 -0.2009  0.3772
 1164ACTN    H112100   2.602   3.102   8.836 -0.9911  0.5158 -1.7884
 1164ACTN    H212101   2.739   3.221   8.873  0.9587 -0.4652  0.0473
 1164ACTN    H312102   2.766   3.052   8.840  1.2146  1.0300  0.9776
 1165ACTN    H612103   8.438   1.602   8.925 -0.8983 -0.0304  0.7400
 1165ACTN    C312104   8.511   1.545   8.983 -0.2062  0.7104  0.5962
 1165ACTN    H412105   8.599   1.537   8.920  0.3488 -2.0014  1.6453
 1165ACTN    H512106   8.537   1.599   9.074  1.6262  0.9975 -0.0798
 1165ACTN    C212107   8.463   1.406   9.007  0.7021  0.8781 -0.0474
 1165ACTN    O112108   8.501   1.311   8.946 -0.6370 -0.3351 -0.3121
 1165ACTN    C112109   8.352   1.391   9.108 -0.0439  0.1139  0.0377
 1165ACTN    H112110   8.285   1.476   9.114 -1.5057 -1.0554  0.7153
 1165ACTN    H212111   8.393   1.371   9.206 -0.0647  0.1073  0.0449
 1165ACTN    H312112   8.284   1.313   9.073 -0.7040  0.6626  0.0835
 1166ACTN    H612113   7.319   1.470   4.022 -0.4456  1.0194 -0.8044
 1166ACTN    C312114   7.229   1.519   4.060 -0.7879 -0.1570 -0.0755
 1166ACTN    H412115   7.216   1.601   3.991  4.9677  1.7399  0.7958
 1166ACTN    H512116   7.146   1.450   4.044  1.0437 -2.5147  0.2039
 1166ACTN    C212117   7.244   1.564   4.201  0.2188  0.2447 -0.4268
 1166ACTN    O112118   7.291   1.487   4.280  0.4786 -0.3146  0.6707
 1166ACTN    C112119   7.252   1.710   4.216 -0.1300  0.2816  0.1339
 1166ACTN    H112120   7.153   1.751   4.195 -0.4164 -0.0693  0.7922
 1166ACTN    H212121   7.323   1.747   4.141  0.7919 -0.2666  0.7256
 1166ACTN    H312122   7.296   1.738   4.312  0.3111 -0.2870  0.1011
 1167ACTN    H612123   6.972   1.296   3.574  2.3217 -1.1658  0.2637
 1167ACTN    C312124   7.047   1.376   3.580  0.1613  0.8844  0.9472
 1167ACTN    H412125   6.998   1.472   3.595  0.9482  1.6362 -1.1862
 1167ACTN    H512126   7.100   1.350   3.672  1.2038  0.3709  0.2191
 1167ACTN    C212127   7.138   1.385   3.464 -0.0905 -0.1552  0.0551
 1167ACTN    O112128   7.246   1.330   3.463 -0.8663  0.1342 -0.2350
 1167ACTN    C112129   7.093   1.461   3.344 -0.0170 -0.5461  0.2257
 1167ACTN    H112130   6.985   1.462   3.328 -0.0184 -3.9772 -0.1876
 1167ACTN    H212131   7.136   1.431   3.249  0.6636 -0.4793  0.5124
 1167ACTN    H312132   7.134   1.560   3.364 -0.3385 -0.5965  1.1354
 1168ACTN    H612133   3.054   6.711   1.994  0.4381 -0.2110 -0.7724
 1168ACTN    C312134   3.041   6.610   2.034  0.5530  0.2159  0.3604
 1168ACTN    H412135   3.130   6.595   2.095  0.4099 -1.4645  0.1775
 1168ACTN    H512136   2.950   6.604   2.093  0.3989 -0.8000  0.0187
 1168ACTN    C212137   3.052   6.511   1.913 -0.4119  0.3532 -0.7875
 1168ACTN    O112138   3.073   6.391   1.931 -0.1623  0.5305 -0.4451
 1168ACTN    C112139   3.058   6.567   1.774 -0.6059  0.1046 -0.4313
 1168ACTN    H112140   3.068   6.675   1.770  3.7472 -0.2384 -1.0910
 1168ACTN    H212141   2.965   6.534   1.727 -2.1730 -0.1707  2.7461
 1168ACTN    H312142   3.140   6.536   1.709  0.6624  0.2868  1.0712
 1169ACTN    H612143   7.045   4.553   5.718  2.0807 -1.9703 -1.1142
 1169ACTN    C312144   6.975   4.474   5.746  0.1805  0.1032  0.1643
 1169ACTN    H412145   6.915   4.437   5.663  1.3153 -1.9697  0.2440
 1169ACTN    H512146   6.914   4.528   5.819 -1.1343  1.9169 -2.1864
 1169ACTN    C212147   7.049   4.363   5.815  0.6709  0.4058 -0.2637
 1169ACTN    O112148   6.994   4.271   5.873  0.0328  0.4246 -0.2056
 1169ACTN    C112149   7.198   4.353   5.789  0.1217  0.4372 -0.0041
 1169ACTN    H112150   7.258   4.400   5.867  1.2575  0.6233 -0.9743
 1169ACTN    H212151   7.233   4.379   5.690 -1.3285  1.2468 -0.3212
 1169ACTN    H312152   7.220   4.246   5.795  0.2837  0.6522  5.4545
 1170ACTN    H612153   7.275   3.314   6.019 -0.8614  2.5276  0.6205
 1170ACTN    C312154   7.188   3.251   6.005  0.2510  1.0246  0.3196
 1170ACTN    H412155   7.130   3.249   6.098 -0.0674 -0.6279  0.0999
 1170ACTN    H512156   7.126   3.289   5.924 -1.5810 -0.6210  0.9139
 1170ACTN    C212157   7.221   3.110   5.969  0.4212  0.1332  0.8813
 1170ACTN    O112158   7.132   3.036   5.929 -0.1004  0.0416  0.9171
 1170ACTN    C112159   7.348   3.057   6.005 -0.1357  0.3770 -0.4948
 1170ACTN    H112160   7.364   2.951   5.987 -0.8570  0.2746 -0.5361
 1170ACTN    H212161   7.363   3.083   6.110 -0.6009 -2.9414  0.4418
 1170ACTN    H312162   7.421   3.111   5.945 -2.3435  1.1354 -2.5494
 1171ACTN    H612163   6.884   7.706   4.126 -0.6855 -0.5606  1.6492
 1171ACTN    C312164   6.971   7.691   4.189  0.5722  0.0886  0.0941
 1171ACTN    H412165   7.018   7.598   4.158  0.4686  0.5367 -1.4440
 1171ACTN    H512166   7.051   7.762   4.166  1.0009 -0.0099  1.2136
 1171ACTN    C212167   6.941   7.693   4.336 -0.2398  0.1859 -0.5934
 1171ACTN    O112168   7.030   7.677   4.418  0.2609  0.6741  0.2510
 1171ACTN    C112169   6.807   7.726   4.375 -0.6294 -0.1774 -0.4058
 1171ACTN    H112170   6.809   7.763   4.478  1.3846 -0.8360 -0.1932
 1171ACTN    H212171   6.747   7.635   4.372  0.2866 -0.7901 -0.3894
 1171ACTN    H312172   6.753   7.800   4.316 -0.2245  0.6989  0.2948
 1172ACTN    H612173   0.141   8.223   3.475  0.5671 -0.1333  2.3171
 1172ACTN    C312174   0.243   8.185   3.479  0.7019 -0.0946 -0.1894
 1172ACTN    H412175   0.233   8.079   3.455 -1.7274 -0.2932  1.5463
 1172ACTN    H512176   0.299   8.235   3.399 -0.5090  1.0179 -0.3523
 1172ACTN    C212177   0.306   8.231   3.602 -0.4683  0.6362 -0.4176
 1172ACTN    O112178   0.289   8.344   3.640  0.2283  0.1332 -0.0652
 1172ACTN    C112179   0.368   8.133   3.694 -0.0045  0.0530 -0.1681
 1172ACTN    H112180   0.305   8.133   3.783 -0.1537  0.9155 -0.2721
 1172ACTN    H212181   0.470   8.161   3.720 -0.0508 -0.2231  0.3040
 1172ACTN    H312182   0.366   8.032   3.653 -1.3086  0.4346 -1.1118
 1173ACTN    H612183   7.506   6.568   8.830 -1.7763  2.4061  1.6115
 1173ACTN    C312184   7.474   6.490   8.900 -0.8571  0.1569 -0.4054
 1173ACTN    H412185   7.438   6.537   8.991  1.1973 -1.0740  1.0602
 1173ACTN    H512186   7.392   6.431   8.860 -2.0623  1.9012 -0.5911
 1173ACTN    C212187   7.596   6.411   8.933 -0.5179  0.5061 -0.6358
 1173ACTN    O112188   7.625   6.373   9.047  0.8202 -0.2113 -0.0820
 1173ACTN    C112189   7.691   6.378   8.823  0.4479  0.3791 -0.0522
 1173ACTN    H112190   7.640   6.365   8.728  0.5041 -0.5513  0.0448
 1173ACTN    H212191   7.732   6.281   8.852 -1.0985 -0.0526  0.7711
 1173ACTN    H312192   7.773   6.449   8.819  0.3106  0.5498  0.1264
 1174ACTN    H612193   0.765   4.850   8.909  1.0693  0.8222  0.3775
 1174ACTN    C312194   0.852   4.791   8.941  0.0764 -0.7269  0.3008
 1174ACTN    H412195   0.897   4.752   8.850 -0.4676  2.8089 -1.6116
 1174ACTN    H512196   0.918   4.861   8.992  1.2670 -0.4509 -1.5737
 1174ACTN    C212197   0.813   4.682   9.031 -0.6072  0.0913  0.4578
 1174ACTN    O112198   0.713   4.614   9.019 -0.4752 -0.5870 -0.2419
 1174ACTN    C112199   0.912   4.631   9.123 -0.1741 -0.1697 -0.3628
 1174ACTN    H112200   0.909   4.688   9.216 -1.4564  0.4714 -0.7918
 1174ACTN    H212201   1.008   4.639   9.072 -0.2661  2.3775 -0.1981
 1174ACTN    H312202   0.889   4.528   9.151 -1.4270  0.2458  0.2145
 1175ACTN    H612203   8.912   8.862   1.973  1.4851 -0.3431 -1.0626
 1175ACTN    C312204   8.865   8.792   1.904  0.0636 -0.6673  0.2218
 1175ACTN    H412205   8.757   8.788   1.919  0.2791  0.5712  2.1820
 1175ACTN    H512206   8.882   8.827   1.802  0.5722 -0.9783  0.1981
 1175ACTN    C212207   8.930   8.657   1.900 -0.1729 -0.5549  0.0544
 1175ACTN    O112208   8.876   8.567   1.955 -0.0447  0.1036 -0.0967
 1175ACTN    C112209   9.079   8.634   1.870 -0.1109  0.4259 -0.1130
 1175ACTN    H112210   9.129   8.725   1.836 -3.6184  2.6363  0.3872
 1175ACTN    H212211   9.097   8.562   1.790  1.5485 -0.8246  1.3315
 1175ACTN    H312212   9.133   8.601   1.959  0.4273  0.2990 -0.4829
 1176ACTN    H612213   8.388   8.613   4.070  0.9850 -0.7391 -1.0842
 1176ACTN    C312214   8.412   8.567   4.166  0.0240  0.4324 -0.2671
 1176ACTN    H412215   8.506   8.515   4.147 -0.4338 -0.8899  1.0529
 1176ACTN    H512216   8.425   8.648   4.237 -2.6925  0.5431  0.1300
 1176ACTN    C212217   8.302   8.467   4.187  0.1751 -0.2465  0.3284
 1176ACTN    O112218   8.301   8.400   4.288  0.4434  0.2906 -0.0781
 1176ACTN    C112219   8.182   8.452   4.088 -0.4707 -0.4534 -0.3655
 1176ACTN    H112220   8.208   8.465   3.983 -0.2072  2.0697 -0.0175
 1176ACTN    H212221   8.107   8.527   4.112  2.1511  2.7073 -1.7444
 1176ACTN    H312222   8.132   8.356   4.101 -1.5386  0.4749  2.8166
 1177ACTN    H612223   0.515   4.696   8.681 -1.0091 -0.2050 -0.9742
 1177ACTN    C312224   0.455   4.700   8.772  0.0119  0.3487 -0.3105
 1177ACTN    H412225   0.412   4.600   8.777  1.4350 -0.2138  1.0944
 1177ACTN    H512226   0.530   4.722   8.848  1.1773 -1.9097 -0.7752
 1177ACTN    C212227   0.342   4.794   8.750  0.6747 -0.2645  0.3604
 1177ACTN    O112228   0.239   4.772   8.805 -0.3639 -0.1962  0.4077
 1177ACTN    C112229   0.344   4.905   8.643 -0.0126 -0.3296  0.5704
 1177ACTN    H112230   0.323   5.005   8.682 -1.4538 -0.9781  1.4993
 1177ACTN    H212231   0.271   4.879   8.567  1.5136 -0.4247 -0.8955
 1177ACTN    H312232   0.440   4.906   8.591 -1.1946  1.1013 -1.6289
 1178ACTN    H612233   4.276   4.600   3.596  0.0461  1.5249  1.0317
 1178ACTN    C312234   4.291   4.659   3.506  0.8288  0.6850  0.6054
 1178ACTN    H412235   4.334   4.759   3.517  1.4909  0.3290  1.2487
 1178ACTN    H512236   4.362   4.603   3.446  0.6100  2.7598 -1.6733
 1178ACTN    C212237   4.163   4.650   3.431 -0.3969 -0.0269 -0.1217
 1178ACTN    O112238   4.104   4.750   3.387  0.0276 -0.0960  0.2152
 1178ACTN    C112239   4.110   4.513   3.405  0.1499 -0.2088  0.5443
 1178ACTN    H112240   4.080   4.470   3.501 -0.4740  0.9537  0.8756
 1178ACTN    H212241   4.187   4.446   3.368 -0.0797 -0.6225  0.8079
 1178ACTN    H312242   4.021   4.512   3.342  1.1034  2.4497 -0.9363
 1179ACTN    H612243   1.249   1.797   5.612 -0.3401  0.5285  0.2756
 1179ACTN    C312244   1.331   1.834   5.551 -0.1630  0.0300  0.2081
 1179ACTN    H412245   1.366   1.751   5.490 -0.5439  0.6994 -0.9328
 1179ACTN    H512246   1.294   1.915   5.488 -0.2495  0.0132  0.2367
 1179ACTN    C212247   1.447   1.881   5.624 -0.0383 -0.1503  0.2155
 1179ACTN    O112248   1.554   1.823   5.606 -0.4239  0.3141 -0.1794
 1179ACTN    C112249   1.440   1.989   5.728  0.5356 -0.0860 -0.1206
 1179ACTN    H112250   1.491   2.076   5.688 -0.2078  0.8232  0.8776
 1179ACTN    H212251   1.490   1.955   5.819 -1.1039  3.1794  2.0980
 1179ACTN    H312252   1.337   2.013   5.755  0.3032 -1.3299  0.1649
 1180ACTN    H612253   4.730   3.362   1.052 -2.6395  1.3811 -0.1497
 1180ACTN    C312254   4.760   3.454   1.103 -0.0450  0.0363  0.8506
 1180ACTN    H412255   4.864   3.442   1.133 -0.2605 -0.7919  1.2824
 1180ACTN    H512256   4.756   3.540   1.035 -1.8156  0.3468  1.3317
 1180ACTN    C212257   4.687   3.482   1.228 -0.0199 -0.4372 -0.3309
 1180ACTN    O112258   4.730   3.555   1.314 -0.3204 -0.1606 -0.5638
 1180ACTN    C112259   4.554   3.415   1.252 -0.2493  0.0130  0.3725
 1180ACTN    H112260   4.479   3.491   1.272 -0.4957 -0.5518  1.6384
 1180ACTN    H212261   4.555   3.348   1.338 -2.3038  0.6952  0.9456
 1180ACTN    H312262   4.525   3.364   1.160 -1.7931  2.4542 -0.5442
 1181ACTN    H612263   8.525   8.594   3.007 -0.0665 -0.8800  1.2962
 1181ACTN    C312264   8.431   8.573   2.956  0.1759  0.9156  0.0624
 1181ACTN    H412265   8.437   8.604   2.851  0.2271  2.5101  0.5306
 1181ACTN    H512266   8.417   8.465   2.961 -3.6818  1.4269  2.1980
 1181ACTN    C212267   8.317   8.645   3.025 -0.6249  0.0383  0.1751
 1181ACTN    O112268   8.338   8.737   3.105  0.1744 -0.4574  0.7633
 1181ACTN    C112269   8.187   8.580   3.016  0.3120  0.4659  0.3216
 1181ACTN    H112270   8.135   8.577   3.112  1.7525  2.0718  1.1845
 1181ACTN    H212271   8.194   8.476   2.983 -0.4537  0.2286  0.8868
 1181ACTN    H312272   8.132   8.644   2.947  1.9909  0.7102 -0.8303
 1182ACTN    H612273   6.041   0.097   5.562 -0.1566  1.0441  1.0043
 1182ACTN    C312274   5.944   0.147   5.557 -0.3136  0.6296 -0.1147
 1182ACTN    H412275   5.910   0.129   5.455  0.9748 -2.0698 -0.1201
 1182ACTN    H512276   5.876   0.103   5.630 -0.2944 -0.5683 -0.7934
 1182ACTN    C212277   5.983   0.286   5.593  0.3327  0.0932  0.1572
 1182ACTN    O112278   6.011   0.300   5.710 -0.4716  0.4349 -0.0066
 1182ACTN    C112279   5.989   0.398   5.497  0.4215  0.1804  0.1475
 1182ACTN    H112280   6.054   0.393   5.409 -1.2262  0.3558 -1.1026
 1182ACTN    H212281   6.039   0.479   5.549  0.4618  1.2373 -1.5021
 1182ACTN    H312282   5.889   0.434   5.472  0.4297  0.6415  0.7754
 1183ACTN    H612283   1.912   1.602   7.940  0.3795  0.2257 -0.2596
 1183ACTN    C312284   1.916   1.710   7.938  0.3742  0.2238 -0.3656
 1183ACTN    H412285   1.872   1.749   8.030 -1.2379  0.7411 -1.3354
 1183ACTN    H512286   2.018   1.744   7.923 -0.3815  1.8374 -2.1601
 1183ACTN    C212287   1.841   1.760   7.819 -0.1606  0.1463  0.1713
 1183ACTN    O112288   1.793   1.670   7.753  0.1522  0.2484  0.5222
 1183ACTN    C112289   1.814   1.905   7.792  0.1012 -0.0690  0.0497
 1183ACTN    H112290   1.779   1.926   7.691  0.6292 -0.7267 -0.2770
 1183ACTN    H212291   1.908   1.956   7.810  1.0561 -1.6616 -0.3219
 1183ACTN    H312292   1.744   1.946   7.865 -0.3735 -0.9419  0.0940
 1184ACTN    H612293   2.990   5.895   3.126  1.0303  0.6128  1.3467
 1184ACTN    C312294   3.080   5.834   3.129  0.6400 -0.0412  0.0719
 1184ACTN    H412295   3.112   5.800   3.031 -0.1109  2.9163 -1.2205
 1184ACTN    H512296   3.054   5.740   3.179  1.2005 -0.9682 -1.3541
 1184ACTN    C212297   3.196   5.915   3.196  0.3902 -0.8686 -0.1950
 1184ACTN    O112298   3.308   5.893   3.153  0.1072  0.6867 -0.0511
 1184ACTN    C112299   3.163   6.032   3.296 -0.8951 -0.4842 -0.3179
 1184ACTN    H112300   3.194   6.003   3.396  0.9848 -0.6634 -0.9353
 1184ACTN    H212301   3.057   6.059   3.303 -0.5135  0.4516  2.8299
 1184ACTN    H312302   3.219   6.122   3.270  0.6600 -1.9223 -2.0249
 1185ACTN    H612303   3.027   4.743   4.108  0.8860  0.1781  0.0870
 1185ACTN    C312304   3.087   4.762   4.198  0.6368  1.1584  0.0476
 1185ACTN    H412305   3.165   4.688   4.208 -0.8284 -0.2629  1.1683
 1185ACTN    H512306   3.135   4.859   4.181  0.5009  1.0989 -0.7113
 1185ACTN    C212307   3.004   4.753   4.321 -0.0687 -0.8362  0.0607
 1185ACTN    O112308   3.062   4.737   4.430  0.2646 -0.2697  0.0979
 1185ACTN    C112309   2.854   4.745   4.298 -0.6049 -0.1166  0.2952
 1185ACTN    H112310   2.806   4.697   4.383  1.2407 -2.6675 -0.0213
 1185ACTN    H212311   2.842   4.670   4.219 -0.6339 -0.4502  0.6158
 1185ACTN    H312312   2.807   4.842   4.279 -2.0499 -0.9216 -0.3904
 1186ACTN    H612313   7.259   3.137   1.837 -1.8235 -0.5583  1.0215
 1186ACTN    C312314   7.303   3.217   1.897  0.2437  0.1876 -1.3965
 1186ACTN    H412315   7.353   3.289   1.833 -1.1127  1.8705 -0.5928
 1186ACTN    H512316   7.214   3.264   1.939  0.0247 -1.2119 -0.2409
 1186ACTN    C212317   7.397   3.171   2.003  0.0584  0.4092  0.1329
 1186ACTN    O112318   7.352   3.132   2.110  0.3536 -0.3768 -0.2778
 1186ACTN    C112319   7.546   3.208   1.988 -0.7171 -0.5083  0.5472
 1186ACTN    H112320   7.587   3.167   1.896 -0.8107 -0.5381  0.5191
 1186ACTN    H212321   7.603   3.173   2.074  0.4377 -0.7562 -0.3038
 1186ACTN    H312322   7.555   3.316   1.976  2.6813 -0.8576 -0.7252
 1187ACTN    H612323   0.709   0.019   7.515  0.6411  3.1219 -3.9018
 1187ACTN    C312324   0.606   0.051   7.530  0.0187 -0.1091 -0.6787
 1187ACTN    H412325   0.584   0.063   7.636 -0.3843  1.2456 -0.9017
 1187ACTN    H512326   0.529  -0.018   7.497 -1.1061  1.0611 -0.5526
 1187ACTN    C212327   0.584   0.190   7.470  0.3932 -0.1780  0.4028
 1187ACTN    O112328   0.599   0.207   7.353 -0.2734  0.6686  0.3282
 1187ACTN    C112329   0.528   0.294   7.553  0.0868  0.4269  0.2051
 1187ACTN    H112330   0.590   0.324   7.637 -1.6118  0.0827  1.6089
 1187ACTN    H212331   0.433   0.256   7.590 -1.0869  1.0701 -2.0544
 1187ACTN    H312332   0.512   0.377   7.485  0.2444 -0.7959 -1.3647
 1188ACTN    H612333   6.082   0.304   6.160  0.5717  0.0709 -0.0504
 1188ACTN    C312334   6.088   0.270   6.057 -0.5620  1.1267 -0.4756
 1188ACTN    H412335   5.993   0.277   6.004 -0.2896 -2.2882 -1.5560
 1188ACTN    H512336   6.159   0.332   6.001  2.5111 -3.8297 -2.3892
 1188ACTN    C212337   6.130   0.130   6.050 -0.3222 -0.2368  0.4618
 1188ACTN    O112338   6.127   0.054   6.147 -0.3488 -0.6299 -0.2985
 1188ACTN    C112339   6.154   0.063   5.914 -0.3889 -0.6770  0.0586
 1188ACTN    H112340   6.061   0.072   5.857 -0.7612  0.6542  0.8469
 1188ACTN    H212341   6.181  -0.043   5.913 -0.5436 -0.7123 -0.7530
 1188ACTN    H312342   6.239   0.110   5.866 -1.6252  0.5716 -0.9261
 1189ACTN    H612343   4.831   8.702   1.610 -1.4266  0.3302  0.0200
 1189ACTN    C312344   4.834   8.712   1.502 -0.0331  0.1497  0.0326
 1189ACTN    H412345   4.771   8.634   1.459 -1.6126  0.6373  1.4159
 1189ACTN    H512346   4.784   8.807   1.483  1.1020  0.5751 -0.8681
 1189ACTN    C212347   4.979   8.718   1.453  0.2653  0.0492  0.4358
 1189ACTN    O112348   5.013   8.634   1.369  0.2722 -0.2715  0.5572
 1189ACTN    C112349   5.073   8.818   1.499 -1.0704  0.3713  0.2749
 1189ACTN    H112350   5.165   8.774   1.538 -1.1041  0.3082  0.2823
 1189ACTN    H212351   5.036   8.879   1.582  0.7353  2.2403 -0.2592
 1189ACTN    H312352   5.091   8.893   1.422  0.9300  0.2288  0.5886
 1190ACTN    H612353   0.879   6.735   3.333 -2.6095 -0.9246 -1.1736
 1190ACTN    C312354   0.878   6.705   3.438 -0.2136  0.3577 -0.7327
 1190ACTN    H412355   0.977   6.677   3.473 -0.2154  0.8147 -0.3511
 1190ACTN    H512356   0.816   6.619   3.463  0.4349  0.5598  1.6576
 1190ACTN    C212357   0.824   6.829   3.507 -0.7484 -0.0756 -0.1375
 1190ACTN    O112358   0.708   6.836   3.544  0.5712 -0.1248  0.1741
 1190ACTN    C112359   0.915   6.930   3.570 -0.6664  0.0890 -0.3908
 1190ACTN    H112360   1.012   6.931   3.521 -1.2365  0.9313 -1.5171
 1190ACTN    H212361   0.936   6.897   3.672 -3.0767  0.1617  0.1602
 1190ACTN    H312362   0.873   7.030   3.577 -0.7173  0.0743 -0.5041
 1191ACTN    H612363   4.247   2.125   8.183  3.1454 -1.8062  0.9400
 1191ACTN    C312364   4.310   2.211   8.160  0.1646  0.3704  0.5635
 1191ACTN    H412365   4.382   2.169   8.090 -0.2667 -3.1875  2.1463
 1191ACTN    H512366   4.255   2.287   8.104  0.4163 -0.7484 -1.2304
 1191ACTN    C212367   4.376   2.263   8.275  1.0568 -0.3393  0.1775
 1191ACTN    O112368   4.482   2.224   8.315  0.3977  0.3836  0.2380
 1191ACTN    C112369   4.312   2.386   8.339 -0.3291 -0.1533  0.0436
 1191ACTN    H112370   4.368   2.480   8.336  1.0850 -0.9749 -0.1038
 1191ACTN    H212371   4.287   2.371   8.444 -2.9127 -2.9769 -0.8984
 1191ACTN    H312372   4.222   2.411   8.284 -0.6446 -0.8629  0.2351
 1192ACTN    H612373   5.798   1.465   4.034 -0.7824  3.4859  0.7109
 1192ACTN    C312374   5.812   1.441   4.139  0.4459  0.3909 -0.0999
 1192ACTN    H412375   5.884   1.516   4.171  0.4892  0.8313 -1.2224
 1192ACTN    H512376   5.713   1.448   4.183 -0.2936  1.0319 -1.8295
 1192ACTN    C212377   5.879   1.309   4.148  0.2394 -0.4531 -0.4486
 1192ACTN    O112378   5.981   1.284   4.080 -0.2720  0.2471 -0.4979
 1192ACTN    C112379   5.814   1.205   4.228  0.0167  0.2280 -0.3647
 1192ACTN    H112380   5.868   1.111   4.228  2.3120  1.5056  2.1562
 1192ACTN    H212381   5.717   1.187   4.181  0.1128  1.8840 -1.2249
 1192ACTN    H312382   5.785   1.219   4.332 -1.1695  2.1482 -0.9174
 1193ACTN    H612383   3.746   6.070   2.615 -0.7214  0.1298 -0.7400
 1193ACTN    C312384   3.775   6.150   2.683  0.3043 -0.8189 -0.0430
 1193ACTN    H412385   3.880   6.143   2.713  0.3368  1.1619  0.4085
 1193ACTN    H512386   3.754   6.243   2.630  1.4642 -0.5658 -0.0819
 1193ACTN    C212387   3.696   6.143   2.810  0.2179 -0.1732 -0.5320
 1193ACTN    O112388   3.639   6.238   2.853  0.0912  0.5581  0.0588
 1193ACTN    C112389   3.684   6.011   2.890 -0.1905  0.1067  0.6327
 1193ACTN    H112390   3.667   5.926   2.823  0.1966  0.8404 -0.4080
 1193ACTN    H212391   3.604   6.010   2.964  0.5956 -0.1296  1.4834
 1193ACTN    H312392   3.780   5.990   2.937  0.3130  0.6693 -0.1360
 1194ACTN    H612393   4.679   0.462   4.464 -1.6192 -0.0902  0.9063
 1194ACTN    C312394   4.664   0.375   4.401  0.0598  0.5057 -0.3629
 1194ACTN    H412395   4.693   0.395   4.298 -1.5485 -1.3994 -1.2166
 1194ACTN    H512396   4.738   0.304   4.440  0.1679  0.2227 -1.0866
 1194ACTN    C212397   4.520   0.338   4.409 -0.8441 -0.3446  0.1959
 1194ACTN    O112398   4.473   0.296   4.304 -0.7874  0.0611  0.5268
 1194ACTN    C112399   4.439   0.371   4.538  0.2891  0.6204  0.4403
 1194ACTN    H112400   4.333   0.386   4.519  0.2415  3.1336  2.5282
 1194ACTN    H212401   4.486   0.459   4.580  2.4303 -0.3776  0.2259
 1194ACTN    H312402   4.454   0.282   4.600  0.8661  0.1228 -0.3960
 1195ACTN    H612403   6.413   7.501   8.418 -0.9549  0.3276  0.4819
 1195ACTN    C312404   6.427   7.604   8.384  0.6013 -0.0070  0.0610
 1195ACTN    H412405   6.494   7.596   8.299 -0.1674  2.1065 -0.7879
 1195ACTN    H512406   6.334   7.651   8.350  1.1585  0.1563 -1.2416
 1195ACTN    C212407   6.500   7.689   8.484 -0.8287 -0.0822  0.3640
 1195ACTN    O112408   6.430   7.777   8.527 -0.1501  0.4363 -0.2045
 1195ACTN    C112409   6.619   7.640   8.554 -0.0332 -0.2653  0.4713
 1195ACTN    H112410   6.664   7.549   8.514  2.7484  0.6416  1.3900
 1195ACTN    H212411   6.602   7.606   8.657  1.4414 -1.9566  0.1937
 1195ACTN    H312412   6.687   7.725   8.555 -0.8212  0.3654  0.8777
 1196ACTN    H612413   8.895   0.129   6.553 -0.4673  1.1895 -0.0715
 1196ACTN    C312414   8.994   0.154   6.516 -0.2077 -0.5788 -0.6313
 1196ACTN    H412415   8.993   0.117   6.414 -0.0750  0.1716 -0.9035
 1196ACTN    H512416   9.007   0.262   6.518  3.0603 -0.9046 -0.6655
 1196ACTN    C212417   9.082   0.065   6.602  0.6629 -0.8205 -0.6383
 1196ACTN    O112418   9.071   0.085   6.724  0.2305  0.0023  0.2249
 1196ACTN    C112419   9.151  -0.059   6.544 -0.7712 -0.0115  0.1204
 1196ACTN    H112420   9.148  -0.145   6.611 -0.0576  2.0182  2.8412
 1196ACTN    H212421   9.251  -0.038   6.507 -1.0995  0.6159 -0.4093
 1196ACTN    H312422   9.099  -0.091   6.454  0.1702  0.4017 -0.5768
 1197ACTN    H612423   8.950   7.866   8.665 -0.2849 -0.7435 -0.8659
 1197ACTN    C312424   9.038   7.804   8.647  0.2354 -0.3582  0.3427
 1197ACTN    H412425   9.071   7.785   8.749  2.7836  1.0433 -0.1456
 1197ACTN    H512426   9.005   7.711   8.603  0.5812 -0.3617  0.0846
 1197ACTN    C212427   9.145   7.865   8.566 -0.1236 -0.6048 -0.5026
 1197ACTN    O112428   9.262   7.828   8.569  0.5701  0.2867  0.0700
 1197ACTN    C112429   9.122   8.000   8.503  0.5993  0.3137  0.0501
 1197ACTN    H112430   9.017   8.029   8.505  0.4010 -0.3967 -0.0261
 1197ACTN    H212431   9.157   8.003   8.400  1.2685 -0.7844  0.2419
 1197ACTN    H312432   9.176   8.076   8.559  1.3353  0.1506 -0.4389
 1198ACTN    H612433   3.255   6.951   3.397 -2.1877 -0.3715  1.5895
 1198ACTN    C312434   3.257   7.060   3.407  0.4990 -0.2705  0.5555
 1198ACTN    H412435   3.155   7.089   3.431  0.8149  1.9064 -0.6220
 1198ACTN    H512436   3.318   7.097   3.490  1.6025 -0.4219 -0.1769
 1198ACTN    C212437   3.296   7.130   3.278  0.1218  0.4124  0.1353
 1198ACTN    O112438   3.235   7.237   3.259  0.1145  0.3380 -0.0567
 1198ACTN    C112439   3.328   7.036   3.168 -0.4140  0.0383 -0.1777
 1198ACTN    H112440   3.426   6.991   3.184 -1.3114 -1.8273  0.1999
 1198ACTN    H212441   3.334   7.096   3.078 -1.8070  4.7017  2.6334
 1198ACTN    H312442   3.250   6.961   3.158 -1.3723  0.9094  0.5660
 1199ACTN    H612443   6.412   4.941   2.661 -0.5804  0.7539 -1.7977
 1199ACTN    C312444   6.333   4.867   2.678  0.6414 -0.2238 -0.2398
 1199ACTN    H412445   6.349   4.783   2.611 -1.0082 -2.0091  1.5422
 1199ACTN    H512446   6.327   4.829   2.780  0.4846  0.6867  0.0999
 1199ACTN    C212447   6.199   4.945   2.668  0.4325 -0.3259  0.2790
 1199ACTN    O112448   6.113   4.919   2.584 -0.0756 -0.1382 -0.3578
 1199ACTN    C112449   6.176   5.047   2.774  0.4686 -0.1771  0.2743
 1199ACTN    H112450   6.228   5.012   2.864  1.0952 -1.5906 -0.6252
 1199ACTN    H212451   6.072   5.066   2.800  0.8468  0.8237  1.0696
 1199ACTN    H312452   6.208   5.150   2.757  0.8167 -0.3035  0.1567
 1200ACTN    H612453   6.669   1.072   6.012 -0.1657  1.8926  0.7703
 1200ACTN    C312454   6.714   1.059   5.913 -0.5071 -1.3169  0.9787
 1200ACTN    H412455   6.645   1.107   5.844 -0.5904  0.4265  2.2367
 1200ACTN    H512456   6.809   1.113   5.922  0.2533 -2.4868  0.0420
 1200ACTN    C212457   6.744   0.909   5.891  0.5208 -0.1382 -0.1183
 1200ACTN    O112458   6.842   0.879   5.823 -0.0780  0.2356 -0.5222
 1200ACTN    C112459   6.676   0.805   5.968  0.4266 -0.1322 -0.4778
 1200ACTN    H112460   6.666   0.724   5.895 -0.5958 -0.7070  0.2791
 1200ACTN    H212461   6.588   0.845   6.020  0.6576 -2.5988  1.9109
 1200ACTN    H312462   6.736   0.761   6.048 -0.1942  0.9167  0.5829
 1201ACTN    H612463   1.623   7.145   3.711 -0.4623  0.8983  1.2073
 1201ACTN    C312464   1.572   7.196   3.630  1.2921  0.2454 -0.3273
 1201ACTN    H412465   1.538   7.287   3.679  0.4284  0.2366 -0.8919
 1201ACTN    H512466   1.638   7.227   3.548  0.0322  2.2481 -0.6136
 1201ACTN    C212467   1.454   7.115   3.582  0.0048  0.4915 -0.0650
 1201ACTN    O112468   1.452   7.041   3.482 -0.0229 -0.3261  0.1516
 1201ACTN    C112469   1.316   7.153   3.641 -0.3677 -0.1359 -0.1472
 1201ACTN    H112470   1.244   7.144   3.560  0.4848 -3.7349 -0.5804
 1201ACTN    H212471   1.325   7.253   3.685 -2.8014 -0.1814  0.5170
 1201ACTN    H312472   1.296   7.074   3.713  4.2934 -1.9089 -0.6336
 1202ACTN    H612473   8.868   7.509   8.951 -1.3048 -0.2260 -0.1979
 1202ACTN    C312474   8.823   7.484   9.047  0.6129 -0.8551  0.5607
 1202ACTN    H412475   8.719   7.464   9.023 -0.0900 -1.5113  3.9071
 1202ACTN    H512476   8.869   7.394   9.089 -0.7866 -2.5793 -1.4730
 1202ACTN    C212477   8.815   7.586   9.151  0.4739 -0.3378 -0.5374
 1202ACTN    O112478   8.803   7.551   9.267  0.2632  0.1751  0.3691
 1202ACTN    C112479   8.818   7.731   9.115  0.5074  0.7708 -0.1894
 1202ACTN    H112480   8.816   7.796   9.203  0.2742  1.8219 -0.9539
 1202ACTN    H212481   8.735   7.751   9.047 -0.1420 -0.4472  0.2403
 1202ACTN    H312482   8.910   7.758   9.063  0.1102  1.2912 -0.6361
 1203ACTN    H612483   8.270   7.227   5.299 -0.7351  0.3467 -0.5707
 1203ACTN    C312484   8.325   7.282   5.222  0.2780  0.5041  0.2494
 1203ACTN    H412485   8.264   7.276   5.131 -1.4579 -0.4897  1.4385
 1203ACTN    H512486   8.320   7.385   5.254  0.4777  0.8789 -0.8956
 1203ACTN    C212487   8.458   7.217   5.215 -0.8432 -0.0903  0.5403
 1203ACTN    O112488   8.468   7.103   5.170 -0.2712 -0.8037 -0.3186
 1203ACTN    C112489   8.580   7.293   5.240  0.1705 -0.0450 -0.2470
 1203ACTN    H112490   8.635   7.246   5.321  0.0057 -1.4038 -0.9001
 1203ACTN    H212491   8.563   7.397   5.269  2.7631 -0.2209  2.0636
 1203ACTN    H312492   8.642   7.299   5.150 -1.2204  0.5379 -1.1969
 1204ACTN    H612493   3.330   1.243   4.445 -2.1565  1.0996 -2.4969
 1204ACTN    C312494   3.301   1.326   4.511  0.6472 -0.0670  0.3053
 1204ACTN    H412495   3.284   1.283   4.610  0.5109 -1.5154 -0.3307
 1204ACTN    H512496   3.374   1.406   4.507 -1.2182  1.6404 -0.0810
 1204ACTN    C212497   3.176   1.393   4.450  0.0026 -0.0267  0.3299
 1204ACTN    O112498   3.180   1.473   4.358  0.4023 -0.4518 -0.7869
 1204ACTN    C112499   3.035   1.365   4.507  0.2147 -0.0734 -0.4219
 1204ACTN    H112500   2.981   1.449   4.551 -3.5522 -1.3294 -2.3636
 1204ACTN    H212501   3.047   1.295   4.589  0.6064  1.5746  0.9434
 1204ACTN    H312502   2.968   1.320   4.433  0.4884 -0.1816 -0.6023
 1205ACTN    H612503   7.200   0.957   2.284 -2.2700 -2.1631  0.1894
 1205ACTN    C312504   7.266   0.877   2.251  0.4687  0.3691 -0.6242
 1205ACTN    H412505   7.229   0.829   2.160 -0.3775  0.2308 -0.2165
 1205ACTN    H512506   7.368   0.905   2.223  2.0336 -1.7688  2.6408
 1205ACTN    C212507   7.284   0.786   2.366  0.4410 -0.1115 -0.4252
 1205ACTN    O112508   7.211   0.686   2.363  0.0612 -0.4060  0.0530
 1205ACTN    C112509   7.365   0.814   2.490  0.3759  0.2801 -0.4959
 1205ACTN    H112510   7.355   0.744   2.573 -1.6969  1.1750  0.0524
 1205ACTN    H212511   7.348   0.913   2.531 -1.0629 -0.7409  1.4584
 1205ACTN    H312512   7.467   0.804   2.453  0.5389  0.3606 -0.0704
 1206ACTN    H612513   4.551   6.877   6.334 -1.1465  0.2807 -0.0036
 1206ACTN    C312514   4.605   6.861   6.240 -0.6221 -0.1798  0.3727
 1206ACTN    H412515   4.687   6.929   6.221 -0.9945  0.3147  0.5169
 1206ACTN    H512516   4.650   6.762   6.230 -2.2606 -1.0503  1.2525
 1206ACTN    C212517   4.496   6.876   6.133 -0.2206 -0.0511  0.0903
 1206ACTN    O112518   4.418   6.781   6.113  0.0849  0.4458 -0.2894
 1206ACTN    C112519   4.491   6.999   6.044 -0.5014  0.5628  0.0905
 1206ACTN    H112520   4.417   7.067   6.086  0.9518  1.6007  0.9655
 1206ACTN    H212521   4.456   6.966   5.946 -0.8278  0.0171  0.3811
 1206ACTN    H312522   4.589   7.046   6.049 -1.3046  2.3181 -0.5432
 1207ACTN    H612523   5.014   7.371   3.264 -0.8780 -0.0869  0.0709
 1207ACTN    C312524   5.003   7.263   3.262 -0.8852 -0.0701 -0.7351
 1207ACTN    H412525   5.072   7.221   3.336  2.4677  3.6920 -1.5817
 1207ACTN    H512526   4.898   7.239   3.279 -0.2949 -2.6931 -0.4864
 1207ACTN    C212527   5.040   7.214   3.121  0.7243  0.0576  0.7858
 1207ACTN    O112528   4.944   7.205   3.040 -0.3037 -0.3725 -0.0706
 1207ACTN    C112529   5.187   7.221   3.072  0.0534  0.5774 -0.5969
 1207ACTN    H112530   5.197   7.247   2.966  2.6077  2.1162 -0.0349
 1207ACTN    H212531   5.226   7.121   3.087  1.6051  0.9583 -1.8306
 1207ACTN    H312532   5.251   7.294   3.123 -0.4806  0.3804  0.3584
 1208ACTN    H612533   2.379   4.706   5.018  0.0101  0.9249 -1.5054
 1208ACTN    C312534   2.487   4.712   4.999  0.4520 -0.1551  0.4432
 1208ACTN    H412535   2.513   4.733   4.896  1.2409 -0.6441  0.5406
 1208ACTN    H512536   2.525   4.788   5.067 -0.3212  0.2016  0.4903
 1208ACTN    C212537   2.552   4.577   5.030 -0.4270 -0.7876  0.7446
 1208ACTN    O112538   2.675   4.572   5.045  0.4906 -0.1004 -0.2244
 1208ACTN    C112539   2.455   4.460   5.047 -0.4693 -0.5058 -0.1783
 1208ACTN    H112540   2.513   4.383   5.098  0.5337  0.9868  0.9556
 1208ACTN    H212541   2.425   4.429   4.947  0.9748 -0.3072 -0.6777
 1208ACTN    H312542   2.364   4.478   5.105 -0.2782  0.5693 -0.2103
 1209ACTN    H612543   5.599   2.155   4.517  1.1211  0.8658  0.8716
 1209ACTN    C312544   5.671   2.080   4.483  0.0018  0.3034 -0.3232
 1209ACTN    H412545   5.617   2.013   4.417 -0.2515  0.1781  0.0099
 1209ACTN    H512546   5.755   2.125   4.431  1.1609 -1.4622  0.0014
 1209ACTN    C212547   5.725   2.003   4.595  0.2848 -0.5197 -0.4076
 1209ACTN    O112548   5.696   2.022   4.710 -0.4611  0.6381 -0.1589
 1209ACTN    C112549   5.819   1.889   4.571 -0.0184  0.2943  0.7291
 1209ACTN    H112550   5.893   1.881   4.651  0.4524  0.9177  0.3537
 1209ACTN    H212551   5.863   1.892   4.472  1.5108 -2.9047  1.2267
 1209ACTN    H312552   5.766   1.793   4.567  0.8695 -0.2570  1.9675
 1210ACTN    H612553   2.329   8.126   1.084 -0.7999 -0.9074 -0.3380
 1210ACTN    C312554   2.294   8.068   1.169 -0.3131 -0.2845  0.2900
 1210ACTN    H412555   2.230   7.983   1.146 -2.1823  1.7136 -2.2215
 1210ACTN    H512556   2.382   8.035   1.225 -0.9724 -0.9341  0.9429
 1210ACTN    C212557   2.224   8.167   1.253  0.4164  0.5280 -0.0172
 1210ACTN    O112558   2.113   8.141   1.299 -0.1631  0.2773  0.0591
 1210ACTN    C112559   2.288   8.291   1.285  0.5957  0.3772  0.3456
 1210ACTN    H112560   2.390   8.279   1.320  0.7255  0.2950 -0.0499
 1210ACTN    H212561   2.230   8.352   1.354 -2.1040  0.9218 -2.2827
 1210ACTN    H312562   2.296   8.358   1.199 -1.6217 -1.9165 -1.7423
 1211ACTN    H612563   1.034   3.598   7.691 -2.5302 -0.3871  0.4763
 1211ACTN    C312564   1.047   3.547   7.596 -0.0840  0.1485  0.4940
 1211ACTN    H412565   1.043   3.618   7.513  1.6838  1.5286  1.5682
 1211ACTN    H512566   0.962   3.478   7.596  2.2733 -2.8952 -1.1784
 1211ACTN    C212567   1.179   3.473   7.595  0.2117 -0.0432  0.4073
 1211ACTN    O112568   1.270   3.525   7.537 -0.1891  1.0957 -0.0627
 1211ACTN    C112569   1.188   3.325   7.614  0.2734  0.2484 -0.6488
 1211ACTN    H112570   1.279   3.282   7.570  0.1592  1.1059 -1.7524
 1211ACTN    H212571   1.108   3.280   7.556  1.2841 -0.2880 -1.6608
 1211ACTN    H312572   1.173   3.307   7.720  0.0986  1.5361 -0.4480
 1212ACTN    H612573   8.597   8.439   8.627  0.9560  2.4425  0.0602
 1212ACTN    C312574   8.669   8.424   8.546 -0.0466  0.1489 -0.4591
 1212ACTN    H412575   8.625   8.342   8.491  1.1416 -0.2464 -0.8382
 1212ACTN    H512576   8.766   8.392   8.586  0.3393 -0.3803 -1.8019
 1212ACTN    C212577   8.689   8.543   8.453 -0.3034 -0.1025  0.1147
 1212ACTN    O112578   8.777   8.626   8.469  0.0977 -0.2992 -0.4527
 1212ACTN    C112579   8.617   8.540   8.329  0.6058  0.9320  0.2472
 1212ACTN    H112580   8.515   8.501   8.332  0.9217  0.1427  0.8168
 1212ACTN    H212581   8.668   8.472   8.261  0.2586  1.0900 -0.1735
 1212ACTN    H312582   8.614   8.640   8.286 -1.4243  0.4817 -0.7330
 1213ACTN    H612583   0.271   7.523   4.012  0.7162 -4.9300 -2.5054
 1213ACTN    C312584   0.227   7.555   3.918 -0.5290  0.2528 -0.3469
 1213ACTN    H412585   0.183   7.471   3.864  0.2911 -0.0081 -0.6067
 1213ACTN    H512586   0.150   7.628   3.946  1.1672  1.8243  0.2828
 1213ACTN    C212587   0.331   7.628   3.836  0.5177  0.0140  0.9785
 1213ACTN    O112588   0.324   7.628   3.712  0.4541  0.4280  0.5067
 1213ACTN    C112589   0.457   7.669   3.905  0.1012  0.2577  0.2441
 1213ACTN    H112590   0.528   7.716   3.837  1.6718 -0.6794  1.1874
 1213ACTN    H212591   0.497   7.580   3.954 -0.8932  0.1385  0.8384
 1213ACTN    H312592   0.432   7.734   3.989  0.6232 -1.4057  1.7174
 1214ACTN    H612593   6.366   1.986   8.757 -2.8868  2.6950  0.2324
 1214ACTN    C312594   6.384   1.973   8.864 -0.7404  0.3472 -0.3411
 1214ACTN    H412595   6.441   1.882   8.879 -0.0297  1.3329  3.4465
 1214ACTN    H512596   6.454   2.050   8.897 -0.4748 -1.3222  3.1569
 1214ACTN    C212597   6.266   1.965   8.935  0.1417 -0.8360 -0.1623
 1214ACTN    O112598   6.210   2.068   8.975  0.0700 -0.1118  0.1296
 1214ACTN    C112599   6.198   1.832   8.948  0.2122  0.1340  0.1229
 1214ACTN    H112600   6.270   1.756   8.982 -0.4620  0.6054  2.7465
 1214ACTN    H212601   6.167   1.799   8.849 -0.0460 -0.0430  0.2627
 1214ACTN    H312602   6.112   1.849   9.013 -1.7258  0.7669 -2.5640
 1215ACTN    H612603   2.846   0.236   4.675 -0.6120 -0.0839 -1.8048
 1215ACTN    C312604   2.745   0.273   4.693  0.0605  0.7148  0.5525
 1215ACTN    H412605   2.717   0.223   4.786 -0.1690 -2.3915 -1.0969
 1215ACTN    H512606   2.744   0.380   4.711  0.6209  0.8135  0.0014
 1215ACTN    C212607   2.653   0.241   4.582  0.2560  0.4421 -0.8923
 1215ACTN    O112608   2.600   0.335   4.518  0.0971 -0.4329  0.3035
 1215ACTN    C112609   2.640   0.101   4.542  0.3796  0.3158 -0.7359
 1215ACTN    H112610   2.598   0.045   4.626  3.1570  0.5712  0.8567
 1215ACTN    H212611   2.738   0.059   4.518  1.0050  1.3196  0.0599
 1215ACTN    H312612   2.577   0.093   4.453  0.4595 -0.2431 -0.7453
 1216ACTN    H612613   6.992   4.236   2.455 -0.3878 -0.6480 -0.1329
 1216ACTN    C312614   6.962   4.162   2.529  0.4220 -0.5979  0.2586
 1216ACTN    H412615   6.918   4.073   2.484 -0.8423  0.9206 -1.6152
 1216ACTN    H512616   7.045   4.129   2.590  1.2653 -1.3866 -1.2953
 1216ACTN    C212617   6.863   4.220   2.617 -0.2763  0.1163  0.6305
 1216ACTN    O112618   6.833   4.335   2.618 -0.1145  0.4370  0.1395
 1216ACTN    C112619   6.807   4.124   2.717  0.1123 -0.2922  0.0262
 1216ACTN    H112620   6.790   4.032   2.662  1.1605  0.4658 -1.6345
 1216ACTN    H212621   6.713   4.161   2.758 -0.4849  1.6830 -2.9355
 1216ACTN    H312622   6.888   4.111   2.789 -0.0690  0.3709  0.3578
 1217ACTN    H612623   3.340   7.337   1.261  2.2218 -0.5663  0.0102
 1217ACTN    C312624   3.387   7.408   1.329  0.3750  0.1063  0.6013
 1217ACTN    H412625   3.429   7.356   1.415  4.5718  0.1799 -1.2501
 1217ACTN    H512626   3.474   7.455   1.282  0.2208 -0.2763 -0.0685
 1217ACTN    C212627   3.278   7.498   1.375 -0.5836 -0.8666 -0.7883
 1217ACTN    O112628   3.190   7.451   1.452 -0.0962 -0.3328  0.1052
 1217ACTN    C112629   3.268   7.637   1.325 -0.0601  0.1596 -0.0079
 1217ACTN    H112630   3.352   7.650   1.257 -0.9856  0.7129 -1.0451
 1217ACTN    H212631   3.281   7.711   1.405  0.1725 -0.8256  0.8753
 1217ACTN    H312632   3.177   7.656   1.269  0.7064 -1.3595 -1.8158
 1218ACTN    H612633   3.872   1.032   7.665 -0.5288  2.0351 -0.4755
 1218ACTN    C312634   3.952   1.040   7.591 -0.1729  0.2301 -0.3172
 1218ACTN    H412635   3.931   0.978   7.504  1.1316  1.0105 -1.2035
 1218ACTN    H512636   3.954   1.145   7.561  0.9244  0.2415 -0.2155
 1218ACTN    C212637   4.085   1.004   7.646  0.8380 -0.4674  0.6078
 1218ACTN    O112638   4.156   0.926   7.583 -0.0280  0.5567  0.1442
 1218ACTN    C112639   4.148   1.089   7.756  0.3003 -0.5642  0.5274
 1218ACTN    H112640   4.251   1.113   7.732  0.0575 -1.7331 -1.8110
 1218ACTN    H212641   4.142   1.025   7.844 -0.3386 -1.5746 -0.2435
 1218ACTN    H312642   4.094   1.182   7.775  0.7036 -0.0100 -0.9492
 1219ACTN    H612643   7.094   2.055   7.404  3.7472  0.1270 -0.2335
 1219ACTN    C312644   7.106   1.951   7.434 -0.5112 -0.2970  0.3025
 1219ACTN    H412645   7.202   1.911   7.403 -1.1524 -2.5111  1.0867
 1219ACTN    H512646   7.100   1.949   7.543 -0.7560  1.8173  0.3598
 1219ACTN    C212647   6.998   1.857   7.384  0.2663 -0.4172 -0.0582
 1219ACTN    O112648   6.988   1.746   7.437  0.0551  0.1514 -0.3494
 1219ACTN    C112649   6.943   1.891   7.253 -0.7150  0.2562 -0.3876
 1219ACTN    H112650   6.897   1.805   7.204 -0.4050  1.2690 -2.5531
 1219ACTN    H212651   7.015   1.936   7.183 -1.2136  0.8097 -0.5489
 1219ACTN    H312652   6.858   1.957   7.266  0.7250  1.8427  1.2315
 1220ACTN    H612653   4.721   6.330   4.027  0.7293  0.4668 -0.1721
 1220ACTN    C312654   4.750   6.310   4.130  0.0118  0.7252  0.0782
 1220ACTN    H412655   4.773   6.204   4.134 -1.3328  0.2991 -2.3822
 1220ACTN    H512656   4.843   6.361   4.155  0.0658  0.4350  0.4681
 1220ACTN    C212657   4.633   6.348   4.219 -0.2273  0.0017 -0.8325
 1220ACTN    O112658   4.630   6.465   4.255  0.2859 -0.2242  0.1539
 1220ACTN    C112659   4.551   6.242   4.280  0.0277  0.3742 -0.0039
 1220ACTN    H112660   4.462   6.221   4.221  1.5648 -1.6141 -1.6716
 1220ACTN    H212661   4.516   6.276   4.378  0.9437  0.6096  0.2453
 1220ACTN    H312662   4.612   6.156   4.305 -1.1597 -0.1574  1.0993
 1221ACTN    H612663   6.215   7.029   2.398  0.1327 -0.4174  0.6749
 1221ACTN    C312664   6.269   7.096   2.331 -0.6034 -0.4135  0.0766
 1221ACTN    H412665   6.362   7.110   2.386 -0.5445  1.3639 -0.4269
 1221ACTN    H512666   6.287   7.050   2.234  0.9066 -2.7714  1.4379
 1221ACTN    C212667   6.200   7.223   2.317 -0.2076 -0.3194  0.5451
 1221ACTN    O112668   6.212   7.308   2.410  0.1354 -0.0886 -0.5083
 1221ACTN    C112669   6.101   7.231   2.203 -0.1200 -0.2828  0.0529
 1221ACTN    H112670   6.049   7.326   2.201  1.9271  0.9234  1.8064
 1221ACTN    H212671   6.021   7.157   2.206 -1.4305  0.9606 -2.6792
 1221ACTN    H312672   6.146   7.220   2.105 -1.1991  1.4215 -0.6563
 1222ACTN    H612673   7.497   6.992   2.301 -1.4044 -0.0939 -0.5200
 1222ACTN    C312674   7.459   6.932   2.383  0.0105  0.2544  0.4140
 1222ACTN    H412675   7.401   6.992   2.454  0.2142  1.2465 -0.2522
 1222ACTN    H512676   7.384   6.864   2.343 -0.7198  0.8724  0.6976
 1222ACTN    C212677   7.558   6.845   2.462  0.0997  0.7358  0.2543
 1222ACTN    O112678   7.514   6.800   2.565 -0.3298  0.0126 -0.2872
 1222ACTN    C112679   7.660   6.769   2.382 -0.1420 -0.0093 -0.2165
 1222ACTN    H112680   7.631   6.667   2.355 -0.9262 -0.3146  1.7003
 1222ACTN    H212681   7.755   6.760   2.435 -0.3763  0.6943  0.3372
 1222ACTN    H312682   7.666   6.822   2.287  0.4958  2.2886  1.0675
 1223ACTN    H612683   3.134   0.809   4.081 -2.7951  0.1037 -0.4500
 1223ACTN    C312684   3.156   0.703   4.079 -0.3924  0.5649 -0.6880
 1223ACTN    H412685   3.259   0.690   4.112 -0.7126 -4.9164 -1.3421
 1223ACTN    H512686   3.095   0.656   4.156 -1.2160  1.6250 -0.6842
 1223ACTN    C212687   3.138   0.640   3.954 -0.0152  0.0015 -0.3675
 1223ACTN    O112688   3.038   0.574   3.926  0.0727 -0.1783  0.2444
 1223ACTN    C112689   3.252   0.628   3.861 -0.0633  0.2551 -0.6056
 1223ACTN    H112690   3.303   0.532   3.857  1.7040  1.1357  0.5906
 1223ACTN    H212691   3.326   0.705   3.880 -0.1279  0.1379  0.1355
 1223ACTN    H312692   3.222   0.641   3.756  0.2326  5.1762 -0.2224
 1224ACTN    H612693   8.563   5.089   5.746  0.0965  0.8891  0.4948
 1224ACTN    C312694   8.524   5.107   5.645  0.3467  0.0674  0.2481
 1224ACTN    H412695   8.607   5.150   5.589  1.4693  1.1709  2.6732
 1224ACTN    H512696   8.442   5.179   5.652  1.5433  1.1490  5.3075
 1224ACTN    C212697   8.456   4.989   5.582 -0.5063  0.1678 -0.3115
 1224ACTN    O112698   8.475   4.949   5.470  0.7705  0.3795  0.2462
 1224ACTN    C112699   8.367   4.905   5.672 -0.2556  0.6567 -0.2912
 1224ACTN    H112700   8.283   4.964   5.710 -0.4488  0.4320 -0.3749
 1224ACTN    H212701   8.430   4.873   5.755 -1.4958 -1.3465 -0.0960
 1224ACTN    H312702   8.331   4.819   5.616  0.2060  1.2618 -1.5310
 1225ACTN    H612703   8.019   8.288   3.344 -0.0608 -0.2374  0.6936
 1225ACTN    C312704   7.972   8.195   3.377 -0.3711 -0.4029 -0.1951
 1225ACTN    H412705   8.017   8.117   3.315 -0.0419  0.8057 -1.5078
 1225ACTN    H512706   7.996   8.173   3.481  0.3021 -2.1002 -0.6989
 1225ACTN    C212707   7.821   8.209   3.355  0.4812 -0.5817 -0.3446
 1225ACTN    O112708   7.742   8.138   3.406 -0.3640 -0.0414  0.2180
 1225ACTN    C112709   7.782   8.311   3.249 -0.3965  0.1762 -0.1248
 1225ACTN    H112710   7.831   8.405   3.272  0.9727 -0.9512  1.7356
 1225ACTN    H212711   7.675   8.331   3.253 -0.4465 -0.0785 -0.1541
 1225ACTN    H312712   7.821   8.281   3.152  1.3346  0.5433  0.4343
 1226ACTN    H612713   4.714   6.250   1.984  0.3422 -1.0167 -2.4276
 1226ACTN    C312714   4.757   6.153   2.010 -0.3588 -0.5733  0.6185
 1226ACTN    H412715   4.748   6.124   2.114  1.0150 -1.1590  0.5808
 1226ACTN    H512716   4.698   6.088   1.946 -0.8026 -0.1738  0.6159
 1226ACTN    C212717   4.903   6.150   1.979  0.7514 -0.0592 -0.4235
 1226ACTN    O112718   4.954   6.064   1.903  0.0825 -0.1530 -0.3065
 1226ACTN    C112719   4.988   6.264   2.027 -0.8767 -0.1404 -0.6669
 1226ACTN    H112720   4.958   6.357   1.979 -0.5244  1.5067  2.1894
 1226ACTN    H212721   5.090   6.241   1.999 -0.7441 -1.2626  0.6683
 1226ACTN    H312722   4.971   6.274   2.135 -2.0150  1.8695 -1.0054
 1227ACTN    H612723   1.438   5.612   4.550  0.9524 -0.5746  0.6672
 1227ACTN    C312724   1.458   5.505   4.547  1.2743 -0.5174  0.8530
 1227ACTN    H412725   1.494   5.476   4.646  2.2851  1.3181  1.0439
 1227ACTN    H512726   1.358   5.466   4.531  1.1536  0.3764 -0.6822
 1227ACTN    C212727   1.559   5.484   4.436 -0.1283  0.1003  0.1218
 1227ACTN    O112728   1.564   5.374   4.379 -0.7221  0.1082 -0.6402
 1227ACTN    C112729   1.662   5.584   4.418 -0.3973  0.3858 -0.5520
 1227ACTN    H112730   1.698   5.615   4.516 -0.9411 -0.2882 -0.1247
 1227ACTN    H212731   1.636   5.666   4.351 -1.2002  1.1940  0.7173
 1227ACTN    H312732   1.748   5.545   4.364  0.7653 -0.3679  1.7696
 1228ACTN    H612733   1.804   3.687   8.645  0.7457 -0.0488  0.6721
 1228ACTN    C312734   1.794   3.599   8.708 -0.0578 -0.8495 -0.5416
 1228ACTN    H412735   1.685   3.595   8.718  0.0042  0.8395  0.9386
 1228ACTN    H512736   1.820   3.507   8.655 -0.6296 -1.7908  0.7634
 1228ACTN    C212737   1.877   3.615   8.835 -0.4740  0.4286 -0.3686
 1228ACTN    O112738   1.837   3.684   8.927 -0.0769 -0.5006  0.4010
 1228ACTN    C112739   2.019   3.577   8.838  0.1803 -0.4674 -0.2594
 1228ACTN    H112740   2.070   3.585   8.935  2.1802 -0.9702 -1.2284
 1228ACTN    H212741   2.084   3.627   8.766 -0.2311 -0.7225 -0.8050
 1228ACTN    H312742   2.018   3.471   8.814 -3.0695 -0.6779  0.6213
 1229ACTN    H612743   7.274   2.957   4.633  0.8303  0.5598  1.1990
 1229ACTN    C312744   7.338   3.044   4.618  1.0756  0.0935 -0.6204
 1229ACTN    H412745   7.358   3.045   4.511  1.4882  2.4260 -0.5463
 1229ACTN    H512746   7.278   3.131   4.643  0.9672  0.3374 -1.6938
 1229ACTN    C212747   7.456   3.050   4.702  0.3292 -0.1814 -0.4139
 1229ACTN    O112748   7.500   2.946   4.756 -0.4383 -0.7908 -0.2106
 1229ACTN    C112749   7.528   3.179   4.752  0.7919  0.1233  0.8607
 1229ACTN    H112750   7.545   3.241   4.664  4.0875  1.1866  2.1790
 1229ACTN    H212751   7.629   3.170   4.793  1.0790 -0.1117  0.0925
 1229ACTN    H312752   7.458   3.234   4.816 -0.3686  2.6889 -2.4293
 1230ACTN    H612753   7.961   7.181   0.364 -1.6099 -0.7877 -0.0792
 1230ACTN    C312754   7.955   7.232   0.268 -0.6457 -0.4141  0.0547
 1230ACTN    H412755   7.979   7.338   0.278  1.2966 -0.8545  0.2453
 1230ACTN    H512756   8.036   7.186   0.212  0.5165  0.8887  0.6356
 1230ACTN    C212757   7.832   7.198   0.190 -0.2333 -0.3666  0.0280
 1230ACTN    O112758   7.721   7.190   0.243 -0.9094  0.1239  0.1336
 1230ACTN    C112759   7.847   7.162   0.045  0.3115  0.2179  0.2868
 1230ACTN    H112760   7.941   7.199   0.003  0.0045 -0.2659 -0.8503
 1230ACTN    H212761   7.772   7.205  -0.022  1.1335  0.8743 -0.2274
 1230ACTN    H312762   7.846   7.055   0.024  0.2719  0.1173  0.7928
 1231ACTN    H612763   1.307   2.050   3.777 -1.3826 -3.7221  2.7196
 1231ACTN    C312764   1.406   2.051   3.824 -0.0524  0.6311  0.1834
 1231ACTN    H412765   1.425   1.948   3.855 -2.3282  0.1945  0.2747
 1231ACTN    H512766   1.482   2.091   3.758  2.4129 -2.1688  1.2098
 1231ACTN    C212767   1.411   2.140   3.944  0.3146 -1.1111  0.6745
 1231ACTN    O112768   1.339   2.238   3.956 -0.0838  0.1641  0.4706
 1231ACTN    C112769   1.528   2.115   4.038 -0.2000 -0.6946 -0.1583
 1231ACTN    H112770   1.608   2.185   4.013  1.9736 -2.1693  2.3732
 1231ACTN    H212771   1.556   2.010   4.034 -1.8996 -1.4537  4.6373
 1231ACTN    H312772   1.499   2.127   4.142 -0.6937  1.7571 -0.5603
 1232ACTN    H612773   3.243   8.098   1.456  2.2786 -0.7620  0.4794
 1232ACTN    C312774   3.206   7.995   1.453 -0.4428  0.1645 -0.0474
 1232ACTN    H412775   3.241   7.952   1.359  0.4754 -0.3507  0.5176
 1232ACTN    H512776   3.252   7.943   1.538 -0.2332  2.2223  1.1421
 1232ACTN    C212777   3.057   7.990   1.467 -0.3972 -0.8783  0.1046
 1232ACTN    O112778   2.986   8.091   1.446  0.0843 -0.0010  0.6230
 1232ACTN    C112779   2.991   7.862   1.499 -0.2068 -0.1794 -0.2599
 1232ACTN    H112780   2.917   7.839   1.423 -1.0730 -1.1882  0.8762
 1232ACTN    H212781   2.937   7.861   1.594  0.8741 -0.6691  0.3672
 1232ACTN    H312782   3.070   7.787   1.489 -0.2874 -0.4809  1.2028
 1233ACTN    H612783   0.787   0.109   1.527 -1.4512 -1.0386 -0.9477
 1233ACTN    C312784   0.816   0.173   1.443 -0.1208 -0.3251  0.0412
 1233ACTN    H412785   0.917   0.204   1.471 -0.5218  1.2649 -0.2261
 1233ACTN    H512786   0.819   0.121   1.347 -1.5342  0.4781 -0.4496
 1233ACTN    C212787   0.715   0.278   1.433  0.3132  0.1319 -0.8572
 1233ACTN    O112788   0.601   0.249   1.477 -0.5389 -0.7544  0.1884
 1233ACTN    C112789   0.749   0.424   1.419 -0.9375 -0.5259  0.3144
 1233ACTN    H112790   0.808   0.451   1.507 -1.6686  0.9470  0.3763
 1233ACTN    H212791   0.667   0.492   1.398  0.9315  1.8081  0.2824
 1233ACTN    H312792   0.807   0.434   1.327  1.1082 -3.3117  1.2482
 1234ACTN    H612793   1.602   0.064   4.898  0.0034 -0.9894 -1.5621
 1234ACTN    C312794   1.705   0.034   4.915 -0.0155 -0.0685  0.1996
 1234ACTN    H412795   1.761   0.114   4.866 -0.5388  0.6494  0.7507
 1234ACTN    H512796   1.730   0.038   5.021 -0.4086 -0.0601  0.2948
 1234ACTN    C212797   1.713  -0.102   4.856  0.6260 -0.2288  0.5603
 1234ACTN    O112798   1.727  -0.127   4.736  0.2487  0.0593 -0.2199
 1234ACTN    C112799   1.685  -0.206   4.949  0.3454 -0.6063  0.2730
 1234ACTN    H112800   1.691  -0.307   4.909 -0.1647  0.7104 -3.2973
 1234ACTN    H212801   1.588  -0.182   4.992 -0.7497  0.5871 -2.7066
 1234ACTN    H312802   1.754  -0.206   5.034 -0.0083 -1.8342  0.5709
 1235ACTN    H612803   7.669   8.245   8.488 -2.8531 -0.8348 -0.0904
 1235ACTN    C312804   7.680   8.138   8.472  0.0543 -0.6022  0.1068
 1235ACTN    H412805   7.780   8.105   8.501  0.7045 -0.1651 -1.6077
 1235ACTN    H512806   7.602   8.096   8.537 -1.4682 -1.5973 -2.3063
 1235ACTN    C212807   7.663   8.117   8.327 -0.8740  0.2183  0.2307
 1235ACTN    O112808   7.688   8.211   8.251 -0.2642 -0.0715 -0.0540
 1235ACTN    C112809   7.645   7.981   8.265  0.6432  0.2853 -0.6714
 1235ACTN    H112810   7.679   7.985   8.161  0.7452  0.5280 -0.6297
 1235ACTN    H212811   7.543   7.946   8.281  0.7649  0.0969 -0.2937
 1235ACTN    H312812   7.709   7.917   8.326  0.6398 -1.3553 -2.3158
 1236ACTN    H612813   2.499   5.304   6.957  0.0638 -0.2110  0.1616
 1236ACTN    C312814   2.432   5.305   6.871 -0.4286  0.0067  0.5452
 1236ACTN    H412815   2.341   5.353   6.908 -0.4245  0.5295 -0.1143
 1236ACTN    H512816   2.479   5.371   6.798 -0.5341  0.0324  0.4998
 1236ACTN    C212817   2.397   5.169   6.812 -0.0600 -0.1124  0.1335
 1236ACTN    O112818   2.279   5.136   6.799 -0.2046 -0.0869  0.7133
 1236ACTN    C112819   2.502   5.084   6.747  0.2115  0.2497  0.5548
 1236ACTN    H112820   2.572   5.051   6.825  3.3835  2.4190 -1.2496
 1236ACTN    H212821   2.564   5.135   6.673  1.0547 -0.5027  0.7294
 1236ACTN    H312822   2.462   4.994   6.702  0.9112 -0.4821  1.3604
 1237ACTN    H612823   8.558   7.126   3.330 -0.8981  0.1817 -2.6033
 1237ACTN    C312824   8.484   7.172   3.396  0.1685 -0.7479 -0.7098
 1237ACTN    H412825   8.389   7.155   3.345 -0.7504  0.5026  0.5471
 1237ACTN    H512826   8.488   7.281   3.401  0.5730 -0.6671 -2.3399
 1237ACTN    C212827   8.481   7.107   3.535  0.2790  1.0318  0.3818
 1237ACTN    O112828   8.591   7.079   3.591  0.3825  0.0743  0.0675
 1237ACTN    C112829   8.354   7.064   3.597  0.1376 -0.4710  0.1527
 1237ACTN    H112830   8.331   7.126   3.684  0.2050  0.4380 -0.4709
 1237ACTN    H212831   8.356   6.962   3.634  1.5523 -0.0306  1.3633
 1237ACTN    H312832   8.273   7.074   3.525  1.2097 -2.8229 -1.4660
 1238ACTN    H612833   8.898   7.023   2.514 -0.2767  0.0339 -0.4986
 1238ACTN    C312834   8.942   7.010   2.613 -0.9508 -0.0189 -0.1987
 1238ACTN    H412835   8.990   7.105   2.638 -1.1088 -0.0498  0.2184
 1238ACTN    H512836   8.871   6.993   2.694  1.1616  2.3296  2.2792
 1238ACTN    C212837   9.053   6.911   2.608  0.5508 -0.0760 -0.4050
 1238ACTN    O112838   9.167   6.950   2.624  0.1984 -0.3410  0.6793
 1238ACTN    C112839   9.022   6.763   2.585 -0.0965 -0.7937  0.6646
 1238ACTN    H112840   9.058   6.710   2.673  0.9763  2.2303  2.1434
 1238ACTN    H212841   9.074   6.723   2.498 -1.0318  1.9019 -1.1880
 1238ACTN    H312842   8.916   6.742   2.572 -0.3478 -0.9661  2.7254
 1239ACTN    H612843   5.261   8.389   8.553 -0.0632  3.4589 -1.0804
 1239ACTN    C312844   5.194   8.391   8.639 -0.0285  0.2548 -0.9290
 1239ACTN    H412845   5.222   8.314   8.711  3.8008 -0.3684 -2.9889
 1239ACTN    H512846   5.212   8.491   8.678  3.8792 -0.4481 -0.7217
 1239ACTN    C212847   5.050   8.384   8.594  0.1489  1.0173 -0.2984
 1239ACTN    O112848   4.968   8.394   8.683  0.2943  0.0715  0.2550
 1239ACTN    C112849   5.014   8.343   8.450 -0.2811 -0.3415 -0.6294
 1239ACTN    H112850   4.907   8.342   8.428 -0.3565 -0.7868 -0.2519
 1239ACTN    H212851   5.043   8.239   8.430  1.2450 -0.0567  0.0059
 1239ACTN    H312852   5.072   8.407   8.383 -0.3139 -1.4016 -1.7080
 1240ACTN    H612853   2.107   7.439   3.615  0.3144  2.2268 -1.3933
 1240ACTN    C312854   2.207   7.452   3.656 -0.1032  0.1265  0.3613
 1240ACTN    H412855   2.241   7.550   3.621 -1.1099  0.1686 -0.5049
 1240ACTN    H512856   2.264   7.374   3.606 -2.1335 -2.2339  1.6486
 1240ACTN    C212857   2.198   7.452   3.800 -0.2925 -0.1744  0.2413
 1240ACTN    O112858   2.200   7.349   3.866 -0.5819  0.1113 -0.4772
 1240ACTN    C112859   2.205   7.571   3.886 -0.5381  0.1916  0.2949
 1240ACTN    H112860   2.120   7.632   3.853 -0.9371 -0.8060 -0.5495
 1240ACTN    H212861   2.297   7.628   3.879 -0.4317 -0.0007  0.1364
 1240ACTN    H312862   2.188   7.541   3.989  1.1214 -4.0514 -0.5761
 1241ACTN    H612863   4.208   4.596   7.074 -2.4536 -1.4851  1.6314
 1241ACTN    C312864   4.267   4.505   7.060 -0.4091 -0.0349  0.4478
 1241ACTN    H412865   4.374   4.519   7.070 -0.3916 -0.5109  0.9802
 1241ACTN    H512866   4.232   4.435   7.136 -1.9015  0.7600  0.5155
 1241ACTN    C212867   4.248   4.451   6.929  0.6204  0.0427 -0.4822
 1241ACTN    O112868   4.308   4.344   6.910  0.3535 -0.1512  0.4747
 1241ACTN    C112869   4.169   4.515   6.823  0.0911 -0.1230  0.5176
 1241ACTN    H112870   4.207   4.477   6.728  0.7552 -0.6743  0.9933
 1241ACTN    H212871   4.190   4.621   6.814 -2.8114  0.7427  3.1875
 1241ACTN    H312872   4.061   4.506   6.823 -0.0423  1.3281  0.5930
 1242ACTN    H612873   3.409   8.879   5.254  1.0967  1.6923 -0.6625
 1242ACTN    C312874   3.403   8.901   5.361  0.9392 -0.1686 -0.2830
 1242ACTN    H412875   3.476   8.837   5.410 -0.9726 -2.2520 -0.0791
 1242ACTN    H512876   3.430   9.004   5.383  1.0817 -0.9218  3.4675
 1242ACTN    C212877   3.268   8.868   5.422 -0.9563 -0.7398  0.3679
 1242ACTN    O112878   3.253   8.818   5.536  0.1696  0.4526  0.4184
 1242ACTN    C112879   3.151   8.930   5.356 -0.1555 -0.3370 -0.1495
 1242ACTN    H112880   3.178   9.034   5.373  0.7297 -0.6779  0.5811
 1242ACTN    H212881   3.066   8.889   5.411  0.0103 -0.0031  0.3556
 1242ACTN    H312882   3.147   8.911   5.248  1.4075 -0.8232 -0.1395
 1243ACTN    H612883   8.022   2.304   7.465  2.1144 -0.2840 -1.6889
 1243ACTN    C312884   8.054   2.283   7.567 -0.2988 -0.0944 -0.8461
 1243ACTN    H412885   8.147   2.340   7.575 -0.0616 -0.2823 -2.1429
 1243ACTN    H512886   7.979   2.329   7.632 -1.3379 -1.5369 -1.0150
 1243ACTN    C212887   8.066   2.133   7.578 -0.4386  0.6512 -0.1325
 1243ACTN    O112888   8.125   2.091   7.678 -0.0883 -0.0312  0.3360
 1243ACTN    C112889   7.976   2.046   7.501 -0.5180  0.5016  0.5665
 1243ACTN    H112890   7.874   2.083   7.516  0.2010  2.0338  1.8512
 1243ACTN    H212891   7.986   1.941   7.530  1.9392  0.8187  0.9422
 1243ACTN    H312892   7.992   2.051   7.394 -1.7433  0.1259  0.3496
 1244ACTN    H612893   1.625   5.664   6.628  2.0277 -1.3881 -0.8225
 1244ACTN    C312894   1.555   5.582   6.613 -0.0581  0.2542 -0.3247
 1244ACTN    H412895   1.552   5.546   6.716  2.0731 -0.6395 -0.5476
 1244ACTN    H512896   1.461   5.628   6.581 -0.7905 -0.2486  1.0277
 1244ACTN    C212897   1.612   5.487   6.514  0.2679 -0.4892  0.1641
 1244ACTN    O112898   1.704   5.414   6.543 -0.7226 -0.3992 -0.3139
 1244ACTN    C112899   1.547   5.483   6.375  0.3710  0.2287  0.0181
 1244ACTN    H112900   1.630   5.495   6.305  1.6208 -1.7404  1.0999
 1244ACTN    H212901   1.472   5.562   6.367 -1.0391 -0.9617  1.1172
 1244ACTN    H312902   1.498   5.386   6.366  4.1810 -2.0128  1.9806
 1245ACTN    H612903   3.937   6.801   4.631 -0.8458  0.3260 -0.2639
 1245ACTN    C312904   3.906   6.771   4.731 -0.2393  0.1112 -0.1371
 1245ACTN    H412905   3.982   6.701   4.764 -1.9074 -1.8912 -0.4149
 1245ACTN    H512906   3.901   6.862   4.791 -1.0156  2.5145 -3.6546
 1245ACTN    C212907   3.765   6.726   4.730 -0.8793 -0.2862  0.4659
 1245ACTN    O112908   3.676   6.792   4.684  0.0196 -0.4137 -0.1945
 1245ACTN    C112909   3.736   6.580   4.745 -0.8663  0.5247  0.5123
 1245ACTN    H112910   3.686   6.556   4.839  0.7487  0.5182  1.3882
 1245ACTN    H212911   3.832   6.529   4.737 -0.0354  2.0113  0.7922
 1245ACTN    H312912   3.678   6.544   4.660 -1.8915 -0.3896  1.5757
 1246ACTN    H612913   3.945   6.880   0.924  2.8118  2.5018 -1.7703
 1246ACTN    C312914   3.992   6.793   0.877 -0.1867 -0.1438 -0.0860
 1246ACTN    H412915   3.993   6.819   0.771  0.8416  0.0722 -0.0323
 1246ACTN    H512916   4.093   6.787   0.918 -0.3304 -0.1244  0.2727
 1246ACTN    C212917   3.896   6.675   0.883  0.0847  0.3024  0.1731
 1246ACTN    O112918   3.777   6.701   0.873  0.2911  0.3463  0.2783
 1246ACTN    C112919   3.926   6.532   0.933 -0.0948  0.2367  0.9104
 1246ACTN    H112920   3.875   6.454   0.877  0.1801 -0.1593  1.2076
 1246ACTN    H212921   3.893   6.523   1.036  1.4430 -0.2856  1.3814
 1246ACTN    H312922   4.035   6.521   0.923 -0.2620 -0.6664 -0.0486
 1247ACTN    H612923   4.523   0.093   3.225 -0.4714  2.3976 -2.2699
 1247ACTN    C312924   4.632   0.097   3.226 -0.4005  0.9930 -0.2324
 1247ACTN    H412925   4.663   0.177   3.159 -0.7494  0.6031 -0.8784
 1247ACTN    H512926   4.680   0.127   3.318  1.5369  1.4554 -1.3635
 1247ACTN    C212927   4.685  -0.034   3.184 -0.4484  0.0698  0.0378
 1247ACTN    O112928   4.666  -0.067   3.066 -0.0642 -0.1457 -0.4781
 1247ACTN    C112929   4.756  -0.129   3.281  0.0020  0.0424 -0.1091
 1247ACTN    H112930   4.847  -0.168   3.235  0.7253 -1.3730  2.4264
 1247ACTN    H212931   4.691  -0.214   3.301 -0.8257  0.1059 -2.3773
 1247ACTN    H312932   4.779  -0.083   3.377  0.5370 -0.7481  0.1458
 1248ACTN    H612933   7.319   0.867   5.957  0.3340  2.7923 -1.8413
 1248ACTN    C312934   7.212   0.853   5.938  0.1580  0.6686  0.3707
 1248ACTN    H412935   7.201   0.877   5.832  0.9344  1.0411  0.3670
 1248ACTN    H512936   7.185   0.749   5.954  2.4946 -0.2187 -1.0967
 1248ACTN    C212937   7.128   0.953   6.005 -0.4167 -0.4309 -0.4895
 1248ACTN    O112938   7.066   0.925   6.108  0.9207  0.6114 -0.1586
 1248ACTN    C112939   7.126   1.099   5.948  0.3934  0.1759 -0.0045
 1248ACTN    H112940   7.024   1.134   5.928  0.4707 -0.1265 -0.9392
 1248ACTN    H212941   7.182   1.114   5.856  0.4093 -0.9963 -0.1908
 1248ACTN    H312942   7.158   1.167   6.027  0.0041 -1.2108  1.3678
 1249ACTN    H612943   4.412   6.794   2.394  0.0863 -0.2016 -0.2649
 1249ACTN    C312944   4.511   6.749   2.400  0.1082 -0.0968  0.2466
 1249ACTN    H412945   4.491   6.645   2.424 -1.7227  0.0270 -0.6623
 1249ACTN    H512946   4.559   6.760   2.302 -2.8943  0.9826 -1.1842
 1249ACTN    C212947   4.588   6.815   2.505 -0.6123  0.0850 -0.3915
 1249ACTN    O112948   4.560   6.806   2.621 -0.3027 -0.6031 -0.0593
 1249ACTN    C112949   4.698   6.907   2.461  0.2683  0.0888 -0.0428
 1249ACTN    H112950   4.760   6.849   2.393 -2.3887 -3.2067  0.2032
 1249ACTN    H212951   4.764   6.932   2.544 -2.4277 -0.3908  2.3248
 1249ACTN    H312952   4.660   7.001   2.420 -3.5821 -1.6464 -0.6714
 1250ACTN    H612953   2.403   8.298   3.439 -0.5685  1.9710  0.5823
 1250ACTN    C312954   2.306   8.277   3.485 -0.3130 -0.1918  0.1733
 1250ACTN    H412955   2.257   8.370   3.513  1.2621  0.9659 -0.8333
 1250ACTN    H512956   2.247   8.224   3.411 -1.2292  1.2868 -0.1683
 1250ACTN    C212957   2.325   8.187   3.607 -0.4610 -0.4951 -0.5353
 1250ACTN    O112958   2.280   8.073   3.612 -0.0651  0.6305  0.7705
 1250ACTN    C112959   2.402   8.242   3.718 -0.6169  0.4286  0.4730
 1250ACTN    H112960   2.436   8.337   3.677 -1.4073 -0.5533 -2.6279
 1250ACTN    H212961   2.471   8.166   3.754 -0.1664  0.6865  0.1596
 1250ACTN    H312962   2.334   8.275   3.797 -0.7405 -1.0603  0.9958
 1251ACTN    H612963   2.032   6.030   6.041  1.6866 -1.2673 -0.8890
 1251ACTN    C312964   1.972   5.939   6.039  0.1069 -0.2644 -0.1675
 1251ACTN    H412965   1.893   5.953   5.965  1.7506 -2.2362 -2.3814
 1251ACTN    H512966   2.040   5.864   5.998  2.1611  1.0766  0.7261
 1251ACTN    C212967   1.920   5.899   6.174 -1.3333  0.4503  0.8004
 1251ACTN    O112968   1.933   5.783   6.208  0.0522  0.8960  0.4232
 1251ACTN    C112969   1.845   5.992   6.257 -0.4677 -0.3889 -0.1121
 1251ACTN    H112970   1.849   6.091   6.212 -2.4867 -0.9208 -1.5327
 1251ACTN    H212971   1.885   5.992   6.358  0.9624 -1.5430 -0.6521
 1251ACTN    H312972   1.740   5.963   6.252 -0.0311 -1.8228 -1.4014
 1252ACTN    H612973   5.952   5.344   2.520 -0.7156 -4.8527  0.4123
 1252ACTN    C312974   6.060   5.337   2.507 -0.3180  0.5849 -0.0925
 1252ACTN    H412975   6.112   5.389   2.588 -1.2092 -3.1334  2.9752
 1252ACTN    H512976   6.085   5.234   2.531  0.3105  0.2119 -2.2433
 1252ACTN    C212977   6.114   5.368   2.371  0.4731  0.1011 -0.3727
 1252ACTN    O112978   6.054   5.326   2.272  0.2403  0.3759 -0.0078
 1252ACTN    C112979   6.197   5.493   2.363 -0.6298  0.4171  0.6404
 1252ACTN    H112980   6.211   5.534   2.462  2.1944 -0.2931  0.5993
 1252ACTN    H212981   6.141   5.570   2.311  0.7500  1.3112  0.4488
 1252ACTN    H312982   6.295   5.471   2.320 -1.0925 -2.7853  1.0677
 1253ACTN    H612983   1.247   7.553   3.521  0.5161  1.1805 -0.2113
 1253ACTN    C312984   1.267   7.551   3.628 -0.3439  0.6784 -0.0543
 1253ACTN    H412985   1.184   7.510   3.685 -0.1066  1.6082  0.9622
 1253ACTN    H512986   1.354   7.485   3.638 -0.6590  0.2564 -0.0789
 1253ACTN    C212987   1.290   7.689   3.682  0.1688  1.1248  0.4103
 1253ACTN    O112988   1.207   7.746   3.749 -0.0743  0.4694  0.3485
 1253ACTN    C112989   1.419   7.749   3.650  0.2042  0.7242 -0.7066
 1253ACTN    H112990   1.495   7.685   3.604 -0.1499 -1.1212  1.1696
 1253ACTN    H212991   1.463   7.781   3.745 -0.8629  1.0700 -0.3292
 1253ACTN    H312992   1.400   7.837   3.588 -1.7001  0.9253  0.1397
 1254ACTN    H612993   8.727   0.087   6.367  1.8962 -1.1150  0.7512
 1254ACTN    C312994   8.671  -0.006   6.376 -0.7679  0.3275 -0.3286
 1254ACTN    H412995   8.584   0.033   6.428 -0.6388  1.5195 -0.9661
 1254ACTN    H512996   8.648  -0.034   6.273  3.4724 -0.5501 -1.1648
 1254ACTN    C212997   8.762  -0.097   6.451 -0.7388 -0.4332  0.1596
 1254ACTN    O112998   8.768  -0.085   6.568  0.2366  0.0846 -0.7970
 1254ACTN    C112999   8.836  -0.198   6.370  0.1730  0.0897 -0.3212
 1254ACTN    H113000   8.912  -0.245   6.433  0.9493 -0.6234 -1.7796
 1254ACTN    H213001   8.876  -0.161   6.276  0.5192  1.7431  0.4585
 1254ACTN    H313002   8.759  -0.272   6.345 -0.9580 -0.0695  3.3132
 1255ACTN    H613003   8.790   2.628   0.737  1.9845 -0.1311  3.1357
 1255ACTN    C313004   8.856   2.562   0.680 -0.3987 -0.2645  0.4051
 1255ACTN    H413005   8.834   2.567   0.574 -1.5097 -1.0072  0.5903
 1255ACTN    H513006   8.957   2.598   0.700  0.2094 -2.0247  0.6285
 1255ACTN    C213007   8.838   2.417   0.713 -0.3712  1.2957 -0.1075
 1255ACTN    O113008   8.759   2.375   0.798  0.3982  0.2370 -0.4004
 1255ACTN    C113009   8.912   2.325   0.631 -0.7095 -0.1295 -0.1733
 1255ACTN    H113010   8.845   2.284   0.556 -0.8244  0.6033 -0.4828
 1255ACTN    H213011   8.947   2.239   0.687  1.2926 -0.2977 -1.6064
 1255ACTN    H313012   8.999   2.360   0.575  0.3009  0.4177  1.7045
 1256ACTN    H613013   2.883   0.824   1.223  1.8256  0.9870  3.7969
 1256ACTN    C313014   2.814   0.908   1.230 -0.1525 -0.0770 -0.8609
 1256ACTN    H413015   2.713   0.872   1.247  0.9931 -2.7352  0.6799
 1256ACTN    H513016   2.842   0.971   1.315 -1.7027 -0.3915 -0.0913
 1256ACTN    C213017   2.826   0.981   1.097  0.4861  0.5291 -0.4642
 1256ACTN    O113018   2.811   1.100   1.084  0.4451  0.4256 -0.4366
 1256ACTN    C113019   2.798   0.905   0.975 -0.1702 -0.1334 -0.0775
 1256ACTN    H113020   2.853   0.810   0.973 -1.7389 -1.0493 -0.6011
 1256ACTN    H213021   2.837   0.960   0.890 -3.0380 -0.1172 -1.4186
 1256ACTN    H313022   2.693   0.881   0.956 -0.0411 -1.9336  1.2907
 1257ACTN    H613023   2.608   5.636   4.056  0.5593  4.1042 -0.1760
 1257ACTN    C313024   2.712   5.636   4.091  0.6473 -0.2285 -0.1611
 1257ACTN    H413025   2.750   5.738   4.104  0.2874 -0.0779 -0.2811
 1257ACTN    H513026   2.711   5.599   4.193 -0.4985 -0.7069 -0.3414
 1257ACTN    C213027   2.803   5.561   4.000  0.3501 -0.9168  0.2493
 1257ACTN    O113028   2.770   5.444   3.979 -0.3542 -0.1558  1.0202
 1257ACTN    C113029   2.931   5.612   3.950  0.3702 -0.1999  0.7302
 1257ACTN    H113030   2.942   5.604   3.842 -1.4042 -0.2511  0.5342
 1257ACTN    H213031   3.017   5.565   3.998 -0.4363 -0.4404  1.9787
 1257ACTN    H313032   2.947   5.718   3.971 -1.1422 -0.2381  2.1819
 1258ACTN    H613033   5.529   7.940   7.927  0.3439 -0.5526  0.7701
 1258ACTN    C313034   5.581   8.022   7.976  0.4739 -0.3038  0.2100
 1258ACTN    H413035   5.681   8.043   7.938  0.4679 -0.2648  0.2183
 1258ACTN    H513036   5.519   8.109   7.951  1.4023  0.1223 -0.6769
 1258ACTN    C213037   5.575   7.999   8.123 -0.8036 -0.1664 -0.0137
 1258ACTN    O113038   5.577   7.881   8.158  0.2594 -0.2968  0.1801
 1258ACTN    C113039   5.591   8.112   8.220 -0.5524 -0.2857 -0.4714
 1258ACTN    H113040   5.586   8.078   8.323 -0.5666 -1.6976 -0.9288
 1258ACTN    H213041   5.528   8.199   8.205  0.8236  0.9261  0.6795
 1258ACTN    H313042   5.691   8.153   8.209 -0.2334 -0.5296  1.4034
 1259ACTN    H613043   8.348   5.294   3.719 -3.2949 -1.4160 -1.0363
 1259ACTN    C313044   8.361   5.379   3.652 -0.1739 -0.8151  0.2507
 1259ACTN    H413045   8.418   5.342   3.566  0.4985  0.1056  0.2993
 1259ACTN    H513046   8.258   5.409   3.631 -0.2547  1.6147  3.6989
 1259ACTN    C213047   8.435   5.485   3.720 -0.3217  0.6160 -0.2362
 1259ACTN    O113048   8.554   5.500   3.710 -0.6794 -0.4749 -0.4149
 1259ACTN    C113049   8.361   5.593   3.799  0.5298  0.2905 -0.2633
 1259ACTN    H113050   8.355   5.681   3.735  1.8863  1.2441  0.8852
 1259ACTN    H213051   8.403   5.615   3.897  3.1913  0.4093 -1.3719
 1259ACTN    H313052   8.262   5.549   3.812  0.4086  0.5972 -0.1500
 1260ACTN    H613053   0.670   3.211   8.256  1.2758 -1.8179 -0.1818
 1260ACTN    C313054   0.627   3.173   8.348  0.0598  0.2750  0.1381
 1260ACTN    H413055   0.717   3.143   8.403  1.1493  0.0169 -1.7398
 1260ACTN    H513056   0.573   3.252   8.402 -0.3804  2.0289 -2.7757
 1260ACTN    C213057   0.543   3.060   8.299  0.0614  0.2661 -1.1497
 1260ACTN    O113058   0.459   3.078   8.212 -0.3581 -1.0440 -0.2709
 1260ACTN    C113059   0.581   2.920   8.331 -0.3183  0.0132  0.5157
 1260ACTN    H113060   0.674   2.905   8.277 -0.2207  1.7056  0.1753
 1260ACTN    H213061   0.514   2.843   8.293 -0.4184  0.4795 -0.2857
 1260ACTN    H313062   0.605   2.891   8.433  0.8164  0.5034  0.4016
 1261ACTN    H613063   1.097   8.389   5.023 -0.6590 -0.1524  0.3475
 1261ACTN    C313064   1.099   8.465   5.101  0.3016  0.1027  0.0926
 1261ACTN    H413065   1.048   8.428   5.190 -1.3156  2.0827  0.0413
 1261ACTN    H513066   1.053   8.559   5.069  0.3169 -1.2590 -4.2702
 1261ACTN    C213067   1.245   8.481   5.129  0.4597  0.1278  0.0997
 1261ACTN    O113068   1.317   8.384   5.153  0.4083 -0.0315  0.5223
 1261ACTN    C113069   1.307   8.614   5.094 -0.7410  0.3874  0.0824
 1261ACTN    H113070   1.383   8.620   5.172  1.7521  0.3452 -2.2818
 1261ACTN    H213071   1.233   8.695   5.095  0.3305  1.3963  2.4593
 1261ACTN    H313072   1.350   8.609   4.994  0.6617  1.7436  0.5982
 1262ACTN    H613073   8.388   2.754   3.020 -2.2922  2.1510 -0.9076
 1262ACTN    C313074   8.379   2.770   3.128  0.0677  0.0673 -0.3509
 1262ACTN    H413075   8.405   2.872   3.152  0.4405  0.3182 -1.7785
 1262ACTN    H513076   8.275   2.746   3.151  0.1476 -0.9827 -0.9874
 1262ACTN    C213077   8.469   2.674   3.206 -0.2371 -0.2149 -0.0324
 1262ACTN    O113078   8.582   2.675   3.168 -0.3478 -0.5667 -0.3499
 1262ACTN    C113079   8.445   2.646   3.349  0.0979  0.4002  0.0951
 1262ACTN    H113080   8.337   2.634   3.353  0.3425 -1.1632  2.9681
 1262ACTN    H213081   8.480   2.722   3.418 -0.2190 -0.5138  1.2692
 1262ACTN    H313082   8.481   2.549   3.383  1.0189 -0.0736 -2.1330
 1263ACTN    H613083   7.651   8.808   2.399 -1.6758 -0.2751  0.0367
 1263ACTN    C313084   7.666   8.830   2.504 -0.1155 -0.7381 -0.0775
 1263ACTN    H413085   7.631   8.739   2.552  1.8864 -0.7549  1.3859
 1263ACTN    H513086   7.767   8.860   2.531 -0.6844  0.8913  0.3164
 1263ACTN    C213087   7.567   8.928   2.558  0.2801  0.3385 -0.2720
 1263ACTN    O113088   7.453   8.925   2.520  0.4647 -0.1367  0.2076
 1263ACTN    C113089   7.605   9.004   2.684 -0.3387  0.1362  0.4840
 1263ACTN    H113090   7.690   9.071   2.671 -0.3493 -0.0638 -0.6155
 1263ACTN    H213091   7.644   8.932   2.756  1.2187 -0.0906 -0.5578
 1263ACTN    H313092   7.521   9.061   2.725 -0.3796  0.9807 -0.7419
 1264ACTN    H613093   3.491   8.772   8.172 -2.0170  2.3992  0.4834
 1264ACTN    C313094   3.578   8.834   8.197 -0.3088  0.0014  0.6219
 1264ACTN    H413095   3.620   8.816   8.296 -0.1479 -0.1556  0.5250
 1264ACTN    H513096   3.652   8.801   8.124 -2.7373 -0.0436 -1.9348
 1264ACTN    C213097   3.528   8.971   8.178  0.0463  0.3906  0.4952
 1264ACTN    O113098   3.471   9.009   8.076 -0.6217 -0.3099 -0.5867
 1264ACTN    C113099   3.573   9.078   8.272 -0.4209  0.8523 -0.3289
 1264ACTN    H113100   3.538   9.178   8.247 -2.7249  0.8199  2.4597
 1264ACTN    H213101   3.681   9.085   8.285 -0.2383  1.0306 -1.9140
 1264ACTN    H313102   3.536   9.061   8.373  3.1696 -0.4563  0.8524
 1265ACTN    H613103   1.801   8.894   6.041  1.0491  0.2454 -1.2760
 1265ACTN    C313104   1.842   8.794   6.034  0.0752 -0.2827  0.3472
 1265ACTN    H413105   1.819   8.755   5.935 -3.0447  3.6076 -0.5695
 1265ACTN    H513106   1.951   8.795   6.032  0.0744 -1.0851 -1.6113
 1265ACTN    C213107   1.804   8.695   6.144 -0.0977  0.5202 -1.0529
 1265ACTN    O113108   1.767   8.581   6.118  0.5132  0.5184  0.0914
 1265ACTN    C113109   1.822   8.733   6.288 -0.3274  0.5033 -0.1622
 1265ACTN    H113110   1.895   8.676   6.346 -0.6049 -0.5101 -0.7939
 1265ACTN    H213111   1.723   8.725   6.334 -1.1579  2.9648 -1.4153
 1265ACTN    H313112   1.856   8.836   6.301  2.1145 -0.4002  0.9962
 1266ACTN    H613113   3.016   0.174   7.765  0.5810 -0.6443 -0.8434
 1266ACTN    C313114   2.997   0.090   7.832  0.1626 -0.3706 -0.6157
 1266ACTN    H413115   2.897   0.056   7.807 -0.3791  0.1855  0.7234
 1266ACTN    H513116   3.061   0.010   7.795  0.6562  0.7386 -2.2042
 1266ACTN    C213117   3.010   0.107   7.977  0.2140 -0.1489  0.3906
 1266ACTN    O113118   3.094   0.187   8.024 -0.2081  0.2033 -0.7951
 1266ACTN    C113119   2.920   0.024   8.064 -0.3173 -0.7507  0.3256
 1266ACTN    H113120   2.819   0.021   8.023 -0.4288 -0.3653  0.5700
 1266ACTN    H213121   2.910   0.069   8.163 -0.4614  1.4771 -0.6902
 1266ACTN    H313122   2.950  -0.079   8.084 -2.2972 -1.6244 -1.0431
 1267ACTN    H613123   0.116   0.720   2.619 -1.6986  0.9024  0.1065
 1267ACTN    C313124   0.048   0.637   2.632 -0.5542 -0.0235  0.2536
 1267ACTN    H413125  -0.056   0.671   2.622 -0.8199 -1.3076 -1.6191
 1267ACTN    H513126   0.061   0.562   2.554  0.5093 -1.6914  1.9873
 1267ACTN    C213127   0.047   0.583   2.771 -0.2051  0.4359  0.1028
 1267ACTN    O113128   0.149   0.578   2.839 -0.1193 -0.3721  0.4721
 1267ACTN    C113129  -0.069   0.497   2.811  0.3024  0.2790 -0.3011
 1267ACTN    H113130  -0.147   0.494   2.735 -1.8781  2.9865  1.6975
 1267ACTN    H213131  -0.111   0.548   2.898 -0.9061 -1.2117 -0.0058
 1267ACTN    H313132  -0.038   0.400   2.849 -1.5827 -0.6562 -1.1143
 1268ACTN    H613133   5.105   0.670   4.521  1.5526  0.6620 -0.0019
 1268ACTN    C313134   5.038   0.751   4.495  0.1823 -0.5167 -0.2024
 1268ACTN    H413135   4.936   0.736   4.532 -0.1776  2.8576  0.3506
 1268ACTN    H513136   5.080   0.841   4.539 -0.4535  0.5598 -1.7185
 1268ACTN    C213137   5.036   0.780   4.345 -0.6557  0.3803 -0.4635
 1268ACTN    O113138   4.942   0.759   4.271 -0.4143  0.2968  0.3603
 1268ACTN    C113139   5.156   0.846   4.287  0.2291  0.8413 -0.1603
 1268ACTN    H113140   5.222   0.894   4.360 -0.8613  2.2470 -0.0794
 1268ACTN    H213141   5.118   0.914   4.211  1.8159  1.5314 -0.3545
 1268ACTN    H313142   5.212   0.765   4.239 -0.7055  0.9473 -1.4606
 1269ACTN    H613143   7.957   5.102   3.963  0.4170 -0.0514  0.8101
 1269ACTN    C313144   8.063   5.087   3.943  0.3404  0.7615 -0.3307
 1269ACTN    H413145   8.106   5.019   4.017  2.2482  0.8018 -1.3636
 1269ACTN    H513146   8.061   5.050   3.841 -0.4205  0.8006 -0.3324
 1269ACTN    C213147   8.126   5.219   3.945 -0.1969 -0.7514 -0.4468
 1269ACTN    O113148   8.230   5.233   4.015 -0.0413 -0.6870  0.3411
 1269ACTN    C113149   8.048   5.340   3.908  0.6259  0.9037  0.0720
 1269ACTN    H113150   7.958   5.310   3.854  1.0952 -1.3940  0.5074
 1269ACTN    H213151   8.096   5.417   3.848  0.0526  1.9583  0.9651
 1269ACTN    H313152   8.018   5.384   4.002  2.4046 -1.0295  1.6124
 1270ACTN    H613153   3.657   6.618   7.069  1.3107 -1.1630 -0.1967
 1270ACTN    C313154   3.588   6.544   7.110 -0.0124  0.1624  0.0166
 1270ACTN    H413155   3.558   6.572   7.211  0.1663 -0.2116  0.1747
 1270ACTN    H513156   3.493   6.538   7.058 -0.6210  2.2448  0.8403
 1270ACTN    C213157   3.651   6.408   7.105 -0.5977  1.1341 -0.3446
 1270ACTN    O113158   3.575   6.316   7.075 -0.3489  0.2658 -0.9939
 1270ACTN    C113159   3.792   6.373   7.132  0.6321  0.2170  0.1694
 1270ACTN    H113160   3.830   6.304   7.056 -0.1583  1.1050 -1.0547
 1270ACTN    H213161   3.789   6.318   7.226  0.2126  1.1586  0.7151
 1270ACTN    H313162   3.853   6.462   7.141 -1.1616  1.3324  1.5592
 1271ACTN    H613163   5.062   2.527   6.022 -1.1894 -0.0644 -1.4201
 1271ACTN    C313164   4.993   2.468   6.082 -0.0252  0.2413  0.2666
 1271ACTN    H413165   5.036   2.397   6.152 -0.7916 -1.7096 -1.1906
 1271ACTN    H513166   4.935   2.540   6.139  0.1400  1.9469 -1.6457
 1271ACTN    C213167   4.906   2.381   5.997 -0.1321 -0.0437 -0.0095
 1271ACTN    O113168   4.804   2.430   5.945 -0.4508 -0.9998 -0.2370
 1271ACTN    C113169   4.957   2.258   5.920  1.0682  0.0685 -0.1475
 1271ACTN    H113170   5.038   2.286   5.854  1.2741  3.0310  1.3027
 1271ACTN    H213171   4.874   2.201   5.877  1.6955 -0.3192 -0.8631
 1271ACTN    H313172   5.008   2.190   5.989 -1.3786  0.7446  2.4700
 1272ACTN    H613173   5.709   7.660   6.339 -0.8328  1.2598 -0.0610
 1272ACTN    C313174   5.706   7.706   6.437  0.3291  0.0167  0.5757
 1272ACTN    H413175   5.789   7.667   6.495 -0.1651 -2.0112 -0.0541
 1272ACTN    H513176   5.720   7.813   6.420  0.8061 -0.0297  0.6810
 1272ACTN    C213177   5.591   7.667   6.527  0.1550 -0.6693  0.3493
 1272ACTN    O113178   5.564   7.547   6.531 -0.0984 -0.1954  0.0710
 1272ACTN    C113179   5.498   7.760   6.602  0.9757 -0.8291 -0.1286
 1272ACTN    H113180   5.479   7.716   6.700  1.4786  0.5599  0.6062
 1272ACTN    H213181   5.408   7.768   6.542 -0.9603 -1.1528  2.6283
 1272ACTN    H313182   5.551   7.853   6.624  0.4494 -0.4573 -0.4424
 1273ACTN    H613183   6.685   0.358   1.246  2.4307 -1.7863 -0.4971
 1273ACTN    C313184   6.634   0.330   1.154 -0.2762  0.3393  0.2726
 1273ACTN    H413185   6.664   0.399   1.075 -0.4987 -0.6081 -0.6474
 1273ACTN    H513186   6.667   0.230   1.124 -2.3673  0.0667 -1.2573
 1273ACTN    C213187   6.487   0.312   1.160  0.9519 -0.1278  0.0612
 1273ACTN    O113188   6.440   0.224   1.088 -0.0680 -0.6363 -0.1239
 1273ACTN    C113189   6.418   0.417   1.250 -0.1704  0.2628 -0.8808
 1273ACTN    H113190   6.441   0.519   1.220 -0.9637  1.1424  1.4050
 1273ACTN    H213191   6.440   0.398   1.355  0.1602 -2.3059 -1.3709
 1273ACTN    H313192   6.311   0.401   1.243 -0.5286  2.8595 -1.5641
 1274ACTN    H613193   4.877   5.459   4.688  2.7484  2.1265 -1.3708
 1274ACTN    C313194   4.800   5.495   4.620  0.2333  0.0502  0.2885
 1274ACTN    H413195   4.803   5.459   4.518 -2.8408  0.5783 -0.0309
 1274ACTN    H513196   4.704   5.479   4.669  0.0309  0.0825 -0.0963
 1274ACTN    C213197   4.822   5.643   4.622  0.2497  0.1780 -0.2490
 1274ACTN    O113198   4.728   5.720   4.653 -0.0548 -0.1986 -0.0664
 1274ACTN    C113199   4.946   5.699   4.564  0.1153 -0.2677  0.1964
 1274ACTN    H113200   4.989   5.778   4.626  1.6917 -1.8666  1.1792
 1274ACTN    H213201   4.926   5.740   4.465 -0.3375 -0.6524  0.1271
 1274ACTN    H313202   5.019   5.619   4.554 -0.2797 -0.6633  0.4705
 1275ACTN    H613203   0.252   2.332   1.835 -0.0171 -0.6078  0.3368
 1275ACTN    C313204   0.310   2.320   1.743  0.1214  0.4556  0.2731
 1275ACTN    H413205   0.258   2.374   1.665  0.7444 -0.8342 -1.0538
 1275ACTN    H513206   0.402   2.376   1.763  0.3413  0.4242 -0.6612
 1275ACTN    C213207   0.325   2.172   1.717 -0.6741 -1.4310 -0.2999
 1275ACTN    O113208   0.403   2.112   1.791  0.3503 -0.1924 -0.0529
 1275ACTN    C113209   0.230   2.095   1.648  0.1062  0.4841  0.9680
 1275ACTN    H113210   0.153   2.155   1.600 -2.3565 -1.8200  1.9278
 1275ACTN    H213211   0.179   2.023   1.712  1.4059 -0.2006  1.2490
 1275ACTN    H313212   0.283   2.048   1.564  2.1681  3.8140  0.2919
 1276ACTN    H613213   5.268   1.860   0.443 -0.7539  0.0792  2.5461
 1276ACTN    C313214   5.337   1.939   0.474 -0.1259  0.7862 -0.4991
 1276ACTN    H413215   5.409   1.903   0.546  0.4730 -0.7149 -1.8153
 1276ACTN    H513216   5.399   1.967   0.389  0.9590 -1.5521 -0.5154
 1276ACTN    C213217   5.255   2.050   0.532 -0.2166  0.1883 -0.3514
 1276ACTN    O113218   5.289   2.102   0.640  0.6153  0.0245 -0.0540
 1276ACTN    C113219   5.154   2.115   0.447 -0.4830 -0.6151 -0.5609
 1276ACTN    H113220   5.199   2.140   0.351 -0.9709 -1.0500 -0.9042
 1276ACTN    H213221   5.116   2.207   0.490  1.3775 -1.0870  2.2462
 1276ACTN    H313222   5.067   2.054   0.423 -1.7037  0.8260  0.1885
 1277ACTN    H613223   3.132   8.055   0.610  0.1189 -0.7233 -0.0795
 1277ACTN    C313224   3.161   8.115   0.524 -0.2783  0.4091  0.5585
 1277ACTN    H413225   3.213   8.051   0.453 -1.6433 -0.8130  0.6485
 1277ACTN    H513226   3.079   8.154   0.464  0.8588  1.2618 -0.4931
 1277ACTN    C213227   3.259   8.217   0.556 -0.0577 -0.2150  0.6907
 1277ACTN    O113228   3.252   8.327   0.497 -0.7173  0.0852 -0.7668
 1277ACTN    C113229   3.377   8.188   0.639  0.0985  0.1268  0.0526
 1277ACTN    H113230   3.391   8.087   0.678 -0.5081 -0.1178 -0.3661
 1277ACTN    H213231   3.372   8.247   0.731 -1.7147 -0.6245  0.4616
 1277ACTN    H313232   3.473   8.207   0.591  0.9704  2.6275  2.6256
 1278ACTN    H613233   3.167   5.391   6.080 -1.2699 -0.6510 -1.9013
 1278ACTN    C313234   3.068   5.420   6.113 -0.4829 -0.4126  0.3498
 1278ACTN    H413235   3.063   5.466   6.211  1.1946 -3.1011  1.7544
 1278ACTN    H513236   3.027   5.495   6.045  0.3264  1.6443  2.1035
 1278ACTN    C213237   2.985   5.293   6.115 -0.8007  0.3613  0.0032
 1278ACTN    O113238   2.914   5.261   6.021 -0.2946  0.6410  0.0394
 1278ACTN    C113239   3.000   5.193   6.228  0.5969 -0.2228  0.1146
 1278ACTN    H113240   2.911   5.130   6.235  0.2035  0.2468 -0.5703
 1278ACTN    H213241   3.000   5.255   6.318 -2.5415  0.7275 -0.4924
 1278ACTN    H313242   3.092   5.135   6.225 -0.5559 -2.0585 -0.0126
 1279ACTN    H613243   7.247   5.091   1.804 -2.0266 -1.4630 -0.2345
 1279ACTN    C313244   7.180   5.175   1.822 -0.1934 -0.1078  0.3461
 1279ACTN    H413245   7.081   5.135   1.842 -0.0393 -0.7972 -0.2708
 1279ACTN    H513246   7.224   5.219   1.912  1.1129 -1.4787  0.3882
 1279ACTN    C213247   7.190   5.268   1.710 -1.1841 -0.1279  0.3315
 1279ACTN    O113248   7.227   5.382   1.724 -0.1541  0.1152 -0.1355
 1279ACTN    C113249   7.149   5.209   1.582 -0.3284 -0.5998  1.1119
 1279ACTN    H113250   7.121   5.104   1.577 -0.0529 -0.6370  0.2235
 1279ACTN    H213251   7.227   5.225   1.507  1.4757 -0.5512  2.9703
 1279ACTN    H313252   7.063   5.266   1.546  1.2667  1.1509 -0.0525
 1280ACTN    H613253   2.777   0.537   6.226  0.9248 -0.5802  0.4659
 1280ACTN    C313254   2.782   0.468   6.142 -0.9590 -0.5836  0.3217
 1280ACTN    H413255   2.690   0.410   6.131  0.2406 -2.9723  2.3111
 1280ACTN    H513256   2.798   0.527   6.052 -0.0876 -2.1614 -0.5823
 1280ACTN    C213257   2.902   0.373   6.171 -0.6134 -0.9216  0.6217
 1280ACTN    O113258   2.885   0.255   6.175 -0.2200 -0.1076 -0.0409
 1280ACTN    C113259   3.025   0.445   6.229  0.5566  0.2005  0.0597
 1280ACTN    H113260   2.988   0.485   6.323 -1.6772 -3.1241  0.6761
 1280ACTN    H213261   3.041   0.538   6.174  1.0211 -0.7093 -1.3819
 1280ACTN    H313262   3.114   0.384   6.241  1.4820  2.2241  4.0949
 1281ACTN    H613263   2.261   8.296   4.437  0.8659 -0.2149 -0.3328
 1281ACTN    C313264   2.295   8.336   4.342 -0.2287  0.8152 -0.2976
 1281ACTN    H413265   2.322   8.441   4.356 -0.6097  0.8639  0.0490
 1281ACTN    H513266   2.385   8.282   4.311 -1.0789 -0.0138 -1.3618
 1281ACTN    C213267   2.195   8.317   4.236 -0.0065 -0.3371  0.1073
 1281ACTN    O113268   2.216   8.361   4.126  0.4306  0.4371 -0.4616
 1281ACTN    C113269   2.051   8.272   4.280  0.7513 -0.2388  1.3354
 1281ACTN    H113270   2.000   8.352   4.334  0.9025  1.5848 -1.1251
 1281ACTN    H213271   2.059   8.181   4.339  1.4960 -0.2647  1.1978
 1281ACTN    H313272   1.998   8.250   4.187  1.7160 -0.2962  0.7911
 1282ACTN    H613273   0.302   7.236   3.066  2.1709  0.2694 -0.2990
 1282ACTN    C313274   0.231   7.318   3.075  0.1517 -1.4898  0.3298
 1282ACTN    H413275   0.198   7.326   3.178 -0.0440  1.3687  0.0729
 1282ACTN    H513276   0.296   7.405   3.067 -3.0835  1.0498  0.5064
 1282ACTN    C213277   0.114   7.316   2.980 -0.4134  0.4401 -0.0975
 1282ACTN    O113278   0.140   7.291   2.863 -0.0631  0.0477 -0.5451
 1282ACTN    C113279  -0.025   7.345   3.031  0.4848 -0.6890  0.1093
 1282ACTN    H113280  -0.084   7.253   3.035 -1.2790  0.3335 -1.3900
 1282ACTN    H213281  -0.071   7.417   2.963  0.4872 -2.3112 -1.6535
 1282ACTN    H313282  -0.012   7.390   3.129  4.3376  2.3740 -1.6687
 1283ACTN    H613283   5.195   2.931   5.680 -1.6965  0.0606  1.0851
 1283ACTN    C313284   5.233   2.900   5.777  0.0652 -0.1491  0.3431
 1283ACTN    H413285   5.336   2.866   5.771  0.0107  0.0265 -2.2469
 1283ACTN    H513286   5.225   2.982   5.848 -1.3480  0.7134 -0.7855
 1283ACTN    C213287   5.155   2.790   5.834  0.1671  0.5325 -0.4341
 1283ACTN    O113288   5.211   2.682   5.860  0.1196 -0.5390  0.8233
 1283ACTN    C113289   5.011   2.811   5.828  0.1958 -0.4608  0.1668
 1283ACTN    H113290   4.981   2.875   5.910  0.5712 -0.1460  0.0604
 1283ACTN    H213291   4.952   2.720   5.838  0.2144 -0.8348 -2.8219
 1283ACTN    H313292   4.981   2.859   5.735  1.4412 -0.8798 -0.4703
 1284ACTN    H613293   2.165   0.100   3.250  2.5631  3.2039  0.1933
 1284ACTN    C313294   2.086   0.173   3.271 -0.1319  0.2945  0.5287
 1284ACTN    H413295   1.993   0.126   3.304  0.7411 -1.3859  0.6607
 1284ACTN    H513296   2.127   0.229   3.354 -1.5213  1.5907  0.3617
 1284ACTN    C213297   2.073   0.270   3.156 -0.0705 -0.6398 -0.2992
 1284ACTN    O113298   1.974   0.343   3.150  0.1727  0.5589  0.1008
 1284ACTN    C113299   2.174   0.268   3.050  0.3491 -0.1734 -0.4851
 1284ACTN    H113300   2.223   0.366   3.044  0.3889 -0.2586 -1.6074
 1284ACTN    H213301   2.124   0.252   2.955  0.4197 -1.6342 -0.2911
 1284ACTN    H313302   2.242   0.184   3.065 -0.4537 -0.9413 -1.1280
 1285ACTN    H613303   7.624   5.880   1.756 -0.8591 -2.2025 -3.4655
 1285ACTN    C313304   7.687   5.959   1.715 -0.2576 -0.0639  1.2895
 1285ACTN    H413305   7.672   6.034   1.793  0.7509  1.7758 -0.2606
 1285ACTN    H513306   7.789   5.922   1.706 -1.3557 -2.3870 -2.4079
 1285ACTN    C213307   7.612   5.988   1.591 -0.8397 -0.8153 -0.0059
 1285ACTN    O113308   7.601   5.899   1.503  0.2252  0.3884 -0.3366
 1285ACTN    C113309   7.541   6.116   1.578 -0.1590  0.1660  0.0172
 1285ACTN    H113310   7.581   6.196   1.640 -1.1664  0.9290 -0.3222
 1285ACTN    H213311   7.438   6.096   1.608  0.0587 -0.4018  0.3953
 1285ACTN    H313312   7.534   6.155   1.476 -1.0824 -0.0659 -0.0072
 1286ACTN    H613313   7.942   7.163   3.729 -1.6707 -0.3027  1.0930
 1286ACTN    C313314   8.006   7.076   3.743 -0.0791  0.6397 -0.1832
 1286ACTN    H413315   8.109   7.097   3.715  0.3020  0.2869  0.9520
 1286ACTN    H513316   8.009   7.054   3.850  1.2657 -0.1125 -0.3628
 1286ACTN    C213317   7.952   6.965   3.659 -0.0433 -0.4438  0.6367
 1286ACTN    O113318   7.936   6.982   3.537  0.5622 -0.3716 -0.4480
 1286ACTN    C113319   7.942   6.834   3.738 -0.7845  0.3433  0.5232
 1286ACTN    H113320   7.868   6.826   3.817 -1.9360 -2.0308 -0.7445
 1286ACTN    H213321   8.041   6.833   3.785 -0.5560 -1.6583  0.0456
 1286ACTN    H313322   7.941   6.745   3.676  0.8893  0.9702 -0.4642
 1287ACTN    H613323   4.429   8.436   5.773  2.0828  0.8839 -0.6412
 1287ACTN    C313324   4.479   8.436   5.870  0.8071  0.0643  0.0314
 1287ACTN    H413325   4.571   8.492   5.855  0.0791  0.6428 -2.5235
 1287ACTN    H513326   4.414   8.489   5.940 -1.3345 -1.7857 -0.4929
 1287ACTN    C213327   4.508   8.300   5.921  0.6163 -0.3532  0.6873
 1287ACTN    O113328   4.492   8.205   5.845 -0.0110 -0.2089 -0.3148
 1287ACTN    C113329   4.606   8.274   6.035  0.2705 -0.3966 -0.3260
 1287ACTN    H113330   4.699   8.324   6.009 -0.1752  0.5065 -0.2082
 1287ACTN    H213331   4.626   8.167   6.044  2.3744 -0.1339 -1.5618
 1287ACTN    H313332   4.573   8.318   6.130  2.2970 -2.0587  1.2047
 1288ACTN    H613333   2.036   6.636   3.391 -0.7134  0.5354 -1.2059
 1288ACTN    C313334   2.091   6.545   3.415 -0.5229  0.9668  0.0563
 1288ACTN    H413335   2.189   6.533   3.369 -0.8420  0.5831 -0.5406
 1288ACTN    H513336   2.110   6.546   3.522  1.4712 -2.4953 -0.1931
 1288ACTN    C213337   2.008   6.424   3.369  0.5424  0.4551  0.0364
 1288ACTN    O113338   1.929   6.382   3.454 -0.1158  0.4276 -0.3477
 1288ACTN    C113339   2.002   6.387   3.224 -0.2141 -0.2913  0.2294
 1288ACTN    H113340   1.898   6.378   3.193 -1.3534  1.6657  3.2345
 1288ACTN    H213341   2.057   6.293   3.219 -0.0952 -0.2711  0.9719
 1288ACTN    H313342   2.043   6.457   3.152 -1.8665 -2.1422 -2.5947
 1289ACTN    H613343   0.055   6.962   6.103 -0.8476  1.1290 -2.5089
 1289ACTN    C313344   0.149   6.924   6.063 -0.0437 -0.2294  0.5666
 1289ACTN    H413345   0.201   7.001   6.006 -1.6781 -0.6414 -1.5277
 1289ACTN    H513346   0.208   6.912   6.154  2.0262  0.2328 -0.6832
 1289ACTN    C213347   0.127   6.788   5.995 -0.1005 -1.3059  0.3923
 1289ACTN    O113348   0.181   6.687   6.038  0.5702 -0.5427  0.3209
 1289ACTN    C113349   0.035   6.780   5.879 -0.1646  0.0031  0.4598
 1289ACTN    H113350   0.002   6.881   5.853  3.3302  0.7532 -1.3304
 1289ACTN    H213351  -0.051   6.716   5.900 -0.5281  0.3947  0.1718
 1289ACTN    H313352   0.077   6.737   5.789  3.2438  3.1605  0.4139
 1290ACTN    H613353   3.356   0.098   7.465 -0.9981 -0.5940 -0.8927
 1290ACTN    C313354   3.421   0.064   7.384  0.3955 -1.1302  0.4244
 1290ACTN    H413355   3.519   0.110   7.391 -0.6124  1.1268  0.3185
 1290ACTN    H513356   3.437  -0.043   7.390 -1.2659 -1.4409 -0.3262
 1290ACTN    C213357   3.355   0.098   7.255 -0.4001  0.3998  1.2359
 1290ACTN    O113358   3.311   0.010   7.184 -0.0039 -0.2921  0.4763
 1290ACTN    C113359   3.342   0.236   7.212  0.3887 -0.5630  0.0954
 1290ACTN    H113360   3.356   0.314   7.287  0.7127  1.2174 -1.7779
 1290ACTN    H213361   3.240   0.244   7.174 -0.8397 -1.7041  3.0387
 1290ACTN    H313362   3.416   0.262   7.136 -2.0360  1.8192 -1.5554
 1291ACTN    H613363   0.514   7.085   8.537  2.0744  2.7912  0.7977
 1291ACTN    C313364   0.597   7.039   8.483 -0.0447  0.5260 -0.6335
 1291ACTN    H413365   0.633   6.950   8.535 -2.5935  0.5673  1.3357
 1291ACTN    H513366   0.566   7.003   8.385  2.1439 -1.7068 -0.5581
 1291ACTN    C213367   0.698   7.151   8.466 -0.1787  0.1057  0.2810
 1291ACTN    O113368   0.818   7.119   8.456  0.1345 -0.2699 -0.0982
 1291ACTN    C113369   0.642   7.279   8.413 -0.5563  0.1709 -0.3318
 1291ACTN    H113370   0.670   7.362   8.478  4.0783 -2.2158  0.9300
 1291ACTN    H213371   0.534   7.281   8.404 -0.7405  0.5694  1.7205
 1291ACTN    H313372   0.690   7.305   8.319  0.0179  1.8988  0.4025
 1292ACTN    H613373   5.681   4.335   6.376 -1.3831  1.7016  0.7006
 1292ACTN    C313374   5.742   4.341   6.466  0.2081 -0.3724 -0.1964
 1292ACTN    H413375   5.795   4.437   6.459  1.7827 -1.1708  0.4007
 1292ACTN    H513376   5.689   4.359   6.559  0.0015  2.0654 -0.7372
 1292ACTN    C213377   5.839   4.217   6.484  0.2355 -0.1492  0.5749
 1292ACTN    O113378   5.802   4.099   6.470  0.4166 -0.0342 -0.1166
 1292ACTN    C113379   5.983   4.250   6.487 -1.2291  0.5947  0.3065
 1292ACTN    H113380   6.045   4.174   6.536 -1.7012  0.4264  0.6562
 1292ACTN    H213381   5.992   4.349   6.532 -0.2154  1.3390 -1.4816
 1292ACTN    H313382   6.027   4.258   6.388 -0.0616  1.7655  0.9089
 1293ACTN    H613383   0.609   8.738   5.320  0.9684 -0.3802 -2.2356
 1293ACTN    C313384   0.692   8.692   5.374  0.2517  0.6882 -0.1710
 1293ACTN    H413385   0.742   8.776   5.420  1.8812 -0.6983  0.6468
 1293ACTN    H513386   0.659   8.627   5.456 -1.6008  0.0846 -1.3568
 1293ACTN    C213387   0.789   8.624   5.280 -0.2674 -0.2178  0.6656
 1293ACTN    O113388   0.831   8.509   5.298 -0.4440  0.5003  0.2855
 1293ACTN    C113389   0.817   8.701   5.161 -0.1725  0.3151 -0.3956
 1293ACTN    H113390   0.737   8.683   5.089 -2.1783 -0.0485  1.8560
 1293ACTN    H213391   0.915   8.690   5.116  1.4507  2.1620  2.4554
 1293ACTN    H313392   0.819   8.808   5.184 -2.1695  0.3185 -0.0902
 1294ACTN    H613393   4.474   8.151   3.240 -0.7133  0.7822 -2.0051
 1294ACTN    C313394   4.484   8.258   3.260  0.5180  0.3977 -0.5016
 1294ACTN    H413395   4.399   8.310   3.216  1.2911  1.3679 -0.8690
 1294ACTN    H513396   4.494   8.271   3.368  0.3319 -0.0350 -0.4333
 1294ACTN    C213397   4.611   8.300   3.189 -0.2978 -0.0076 -0.1080
 1294ACTN    O113398   4.642   8.245   3.085  0.3803  0.2040  0.3067
 1294ACTN    C113399   4.719   8.376   3.259 -0.3561 -0.7044  1.0959
 1294ACTN    H113400   4.711   8.482   3.235  0.3318 -1.4614 -2.7559
 1294ACTN    H213401   4.822   8.348   3.236 -0.3002 -0.7347  1.3770
 1294ACTN    H313402   4.705   8.349   3.364  1.0281 -1.1881  1.1720
 1295ACTN    H613403   0.092   6.501   3.468  0.5732 -0.2876 -0.5868
 1295ACTN    C313404   0.182   6.553   3.501 -0.1975  0.5749  0.1566
 1295ACTN    H413405   0.175   6.657   3.533 -0.8034  0.0077  1.9165
 1295ACTN    H513406   0.226   6.498   3.584 -0.5444  0.3104  0.1668
 1295ACTN    C213407   0.278   6.560   3.390 -0.3928 -0.3276 -0.5192
 1295ACTN    O113408   0.244   6.629   3.295 -0.7594 -0.3321 -0.7034
 1295ACTN    C113409   0.390   6.462   3.368  0.0880  0.1228 -0.2538
 1295ACTN    H113410   0.357   6.358   3.378 -0.6853  0.4360  0.4874
 1295ACTN    H213411   0.470   6.482   3.440 -1.5474  1.2279  1.2768
 1295ACTN    H313412   0.434   6.468   3.269  1.6527  2.2107  0.5332
 1296ACTN    H613413   5.806   2.152   3.400 -1.4344  1.6643 -2.1863
 1296ACTN    C313414   5.882   2.230   3.393  0.2237  0.2237 -0.5157
 1296ACTN    H413415   5.820   2.317   3.411  0.6412  0.7985 -1.8357
 1296ACTN    H513416   5.955   2.222   3.474 -1.0826 -1.7354  0.5105
 1296ACTN    C213417   5.926   2.213   3.251  0.1860 -0.5268  0.1455
 1296ACTN    O113418   5.969   2.318   3.206 -0.1633  0.5356  0.6525
 1296ACTN    C113419   5.938   2.087   3.171  0.4278 -0.0708  0.9038
 1296ACTN    H113420   5.883   2.010   3.224 -1.1203 -0.6588 -1.4743
 1296ACTN    H213421   6.043   2.056   3.171  0.1474 -1.0961 -0.5797
 1296ACTN    H313422   5.895   2.094   3.071  1.2650  0.3990  0.5680
 1297ACTN    H613423   5.665   1.619   0.778 -0.5557  1.0426  0.2341
 1297ACTN    C313424   5.569   1.623   0.726 -0.1392 -0.0037 -0.6274
 1297ACTN    H413425   5.563   1.718   0.674  1.5590  1.4600  1.7440
 1297ACTN    H513426   5.564   1.542   0.653 -2.8640 -0.2015 -0.2530
 1297ACTN    C213427   5.446   1.601   0.806  0.6531 -0.1884 -0.8907
 1297ACTN    O113428   5.399   1.695   0.874  0.3038  0.6980 -0.3371
 1297ACTN    C113429   5.383   1.465   0.815  0.3317  0.5570 -0.5150
 1297ACTN    H113430   5.307   1.460   0.894  0.7119 -0.2340 -0.2013
 1297ACTN    H213431   5.454   1.386   0.835 -0.1404  0.1414 -0.4730
 1297ACTN    H313432   5.337   1.460   0.716 -1.1810 -1.0308  0.2493
 1298ACTN    H613433   0.151   7.887   3.867  0.2177 -1.8588  0.5087
 1298ACTN    C313434   0.103   7.874   3.771 -0.4391 -0.5562  0.6481
 1298ACTN    H413435   0.177   7.880   3.691 -1.2560 -0.0253 -0.0754
 1298ACTN    H513436   0.052   7.777   3.774 -0.1271 -0.6767  2.6824
 1298ACTN    C213437   0.001   7.977   3.755  0.0302 -0.2591  0.1978
 1298ACTN    O113438  -0.025   8.021   3.642 -0.2498 -0.0531 -0.1302
 1298ACTN    C113439  -0.020   8.078   3.875  0.3649  0.2689 -0.9124
 1298ACTN    H113440  -0.018   8.181   3.839 -0.4383  1.2017  1.6011
 1298ACTN    H213441   0.069   8.063   3.937  0.5237  1.9099 -0.7283
 1298ACTN    H313442  -0.110   8.057   3.934 -0.2556 -1.1842 -2.3495
 1299ACTN    H613443   1.850   7.174   7.200  0.6068 -0.0389  1.3025
 1299ACTN    C313444   1.758   7.205   7.252  0.4198 -0.1400  1.0302
 1299ACTN    H413445   1.782   7.267   7.338  0.1851  0.7359  0.4720
 1299ACTN    H513446   1.715   7.266   7.173  3.3588  3.8576  2.3966
 1299ACTN    C213447   1.666   7.094   7.279 -0.6431 -0.3473  0.5772
 1299ACTN    O113448   1.611   7.086   7.391  0.4126 -1.0941  0.2157
 1299ACTN    C113449   1.625   6.999   7.170 -0.1011  0.0125  0.0489
 1299ACTN    H113450   1.572   6.910   7.205 -0.1460  0.1992  0.4550
 1299ACTN    H213451   1.711   6.960   7.115 -0.3559  0.6522 -0.8131
 1299ACTN    H313452   1.562   7.049   7.097 -0.1684  1.9076  1.3681
 1300ACTN    H613453   7.791   7.105   7.832 -0.3062  0.4925  0.2114
 1300ACTN    C313454   7.808   7.128   7.726 -0.0905  0.2329  0.1916
 1300ACTN    H413455   7.742   7.207   7.691  1.0632  1.4313  0.6537
 1300ACTN    H513456   7.911   7.158   7.705 -0.0439 -1.3078 -1.8714
 1300ACTN    C213457   7.794   6.997   7.662  0.3520 -0.1706  0.5136
 1300ACTN    O113458   7.696   6.983   7.587 -0.8900 -0.1611 -0.0294
 1300ACTN    C113459   7.825   6.881   7.744  0.5491  0.4644  0.2769
 1300ACTN    H113460   7.924   6.899   7.785  0.2383  2.4227  0.2201
 1300ACTN    H213461   7.818   6.795   7.676 -2.7421  0.4319  0.5559
 1300ACTN    H313462   7.750   6.871   7.822 -0.5206 -0.4626 -0.8435
 1301ACTN    H613463   5.250   6.768   8.860 -0.4528  0.9627 -2.2152
 1301ACTN    C313464   5.177   6.689   8.845 -0.2029  0.2965  0.0290
 1301ACTN    H413465   5.108   6.703   8.929 -1.6264 -2.4454 -0.6142
 1301ACTN    H513466   5.123   6.685   8.751  1.8572 -0.7336 -1.1491
 1301ACTN    C213467   5.245   6.551   8.864  0.2110 -0.1226  0.5563
 1301ACTN    O113468   5.328   6.529   8.947  0.4311  0.4928  0.2335
 1301ACTN    C113469   5.208   6.431   8.771 -0.1088 -0.1061  0.2383
 1301ACTN    H113470   5.248   6.340   8.815  0.9327 -0.0702 -0.5794
 1301ACTN    H213471   5.253   6.448   8.673 -2.2605 -2.1065 -1.1470
 1301ACTN    H313472   5.101   6.420   8.759  0.2342 -4.8668  0.4724
 1302ACTN    H613473   3.531   6.219   4.824 -0.3393  1.0914  0.6011
 1302ACTN    C313474   3.619   6.154   4.825 -0.9700  0.2105  0.0230
 1302ACTN    H413475   3.705   6.199   4.875 -2.9479  2.9725  1.1008
 1302ACTN    H513476   3.589   6.062   4.874 -0.0303 -1.2449 -2.0156
 1302ACTN    C213477   3.662   6.119   4.689  0.1979  0.7932 -0.5835
 1302ACTN    O113478   3.685   6.207   4.615  0.6352 -0.1080  0.5761
 1302ACTN    C113479   3.660   5.976   4.637  0.6166 -0.4457  0.4719
 1302ACTN    H113480   3.591   5.964   4.554  1.4816 -1.4850 -0.1104
 1302ACTN    H213481   3.622   5.913   4.717 -0.4312 -2.2068 -1.3787
 1302ACTN    H313482   3.759   5.939   4.609  1.9579  2.0235  1.7668
 1303ACTN    H613483   1.994   2.420   6.625  0.7016  0.3153 -0.1044
 1303ACTN    C313484   2.017   2.340   6.695 -0.3485  0.4531  0.4049
 1303ACTN    H413485   2.025   2.371   6.799 -0.8436  0.6985  0.3721
 1303ACTN    H513486   2.110   2.291   6.669 -0.7838 -0.2639  0.1760
 1303ACTN    C213487   1.913   2.229   6.673 -0.3156 -0.2475  0.3925
 1303ACTN    O113488   1.925   2.150   6.581 -0.2436 -0.7807 -0.3511
 1303ACTN    C113489   1.821   2.206   6.786  0.1424  0.0274  0.0110
 1303ACTN    H113490   1.863   2.131   6.853 -1.2520  0.2354  1.1342
 1303ACTN    H213491   1.720   2.184   6.750  0.0194  1.5002 -0.5467
 1303ACTN    H313492   1.812   2.298   6.843 -1.9006  0.2484 -0.6251
 1304ACTN    H613493   7.119   1.187   4.156 -1.5256 -0.6919 -1.5532
 1304ACTN    C313494   7.112   1.106   4.229 -0.4023  0.4155 -0.1812
 1304ACTN    H413495   7.212   1.062   4.221 -0.8650 -1.0418  1.5871
 1304ACTN    H513496   7.040   1.034   4.190  1.0734 -0.4787 -1.3262
 1304ACTN    C213497   7.092   1.149   4.370 -0.2804  0.1950  0.9200
 1304ACTN    O113498   7.163   1.096   4.458 -0.5687  0.2140  0.0727
 1304ACTN    C113499   7.025   1.281   4.392  0.1209  0.1268  0.3864
 1304ACTN    H113500   7.097   1.355   4.427  1.0129 -1.4672  2.0323
 1304ACTN    H213501   6.941   1.272   4.462 -0.1773  0.9295  0.1266
 1304ACTN    H313502   6.993   1.317   4.295  0.7057  0.8792  0.4628
 1305ACTN    H613503   1.721   6.915   4.870  0.5387 -3.2452  0.5820
 1305ACTN    C313504   1.764   6.947   4.965 -0.3994 -0.4413  0.1139
 1305ACTN    H413505   1.703   6.912   5.047 -0.3631 -2.3199 -0.6284
 1305ACTN    H513506   1.864   6.902   4.966  0.5582  1.6108 -0.1259
 1305ACTN    C213507   1.758   7.091   4.978  0.0096  0.6520  0.1980
 1305ACTN    O113508   1.841   7.153   5.042  0.4874 -0.2196  0.0450
 1305ACTN    C113509   1.634   7.157   4.936 -0.2198 -0.5512 -0.1447
 1305ACTN    H113510   1.625   7.253   4.986 -1.1179 -0.1304 -1.0885
 1305ACTN    H213511   1.549   7.096   4.965 -0.0668 -0.5685  0.2757
 1305ACTN    H313512   1.633   7.181   4.830  1.5266 -0.2694 -0.1085
 1306ACTN    H613513   7.194   1.667   6.522  0.8676  2.0332 -0.4372
 1306ACTN    C313514   7.294   1.623   6.528  0.2976  0.7710  0.1019
 1306ACTN    H413515   7.339   1.620   6.429  0.9826 -0.4454  0.4553
 1306ACTN    H513516   7.352   1.689   6.593 -0.8407  1.0272  0.8743
 1306ACTN    C213517   7.281   1.487   6.588  0.5686  0.7655 -0.4844
 1306ACTN    O113518   7.225   1.479   6.698 -0.3142 -0.3540 -0.1995
 1306ACTN    C113519   7.279   1.365   6.499 -0.6601 -0.6053 -0.0152
 1306ACTN    H113520   7.285   1.381   6.391 -0.6425 -0.1504  0.0518
 1306ACTN    H213521   7.192   1.301   6.514 -0.2124 -1.7417 -2.0926
 1306ACTN    H313522   7.361   1.298   6.525  0.5947  0.4647 -1.1557
 1307ACTN    H613523   0.034   7.552   3.481  3.2774 -0.3904  1.9445
 1307ACTN    C313524   0.081   7.651   3.479  0.8113  0.8127 -0.9644
 1307ACTN    H413525   0.009   7.733   3.487  0.6251  0.4597  1.4019
 1307ACTN    H513526   0.148   7.662   3.564  0.8891  0.5342 -0.9881
 1307ACTN    C213527   0.142   7.669   3.351 -0.4835  0.5048  0.0784
 1307ACTN    O113528   0.157   7.581   3.271  0.0192  0.4107 -0.4068
 1307ACTN    C113529   0.187   7.811   3.312  0.0235 -0.5171 -0.5649
 1307ACTN    H113530   0.108   7.883   3.292  1.4689  1.0499 -0.6963
 1307ACTN    H213531   0.234   7.800   3.214 -1.2007 -3.5780 -0.8720
 1307ACTN    H313532   0.262   7.854   3.379  0.8899 -1.2578 -1.0510
 1308ACTN    H613533   0.710   1.206   6.847 -0.8423  0.4421  0.7290
 1308ACTN    C313534   0.786   1.210   6.926  0.2381  0.0976 -0.2816
 1308ACTN    H413535   0.879   1.176   6.881 -0.3516  0.0007 -1.4580
 1308ACTN    H513536   0.807   1.313   6.956  1.8863 -0.2977 -0.0322
 1308ACTN    C213537   0.725   1.121   7.022 -0.4941  0.2096  0.3608
 1308ACTN    O113538   0.751   1.001   7.018 -0.3729  0.9265 -0.0808
 1308ACTN    C113539   0.638   1.173   7.130 -0.6769 -0.2420  0.6612
 1308ACTN    H113540   0.669   1.143   7.230  1.3687  2.0295  0.7712
 1308ACTN    H213541   0.534   1.141   7.122 -1.4476  2.3398 -0.0838
 1308ACTN    H313542   0.648   1.281   7.120  1.5466 -0.4333  0.6458
 1309ACTN    H613543   2.603   5.296   5.977 -1.2211 -1.1891 -0.8784
 1309ACTN    C313544   2.545   5.364   6.039  0.9903  0.3959 -0.4998
 1309ACTN    H413545   2.477   5.426   5.981 -0.5418 -0.5707  0.2343
 1309ACTN    H513546   2.472   5.307   6.096 -2.3005  1.8735 -3.0778
 1309ACTN    C213547   2.627   5.451   6.130  0.3081 -0.4975 -0.5143
 1309ACTN    O113548   2.632   5.419   6.249 -0.5289 -0.0730 -0.4863
 1309ACTN    C113549   2.695   5.574   6.079  0.2397 -0.3001 -0.7419
 1309ACTN    H113550   2.760   5.622   6.152  0.5934 -1.2667 -0.4035
 1309ACTN    H213551   2.613   5.631   6.036  0.7658 -0.5924 -2.1730
 1309ACTN    H313552   2.761   5.557   5.994  1.1213  2.4087 -0.6277
 1310ACTN    H613553   1.257   8.237   4.702 -2.2289  0.6101  0.5331
 1310ACTN    C313554   1.275   8.299   4.790  1.0681  0.0043  0.3343
 1310ACTN    H413555   1.221   8.392   4.776 -1.0404 -0.7717  2.7922
 1310ACTN    H513556   1.234   8.248   4.877  2.7575  0.6852  1.5628
 1310ACTN    C213557   1.421   8.338   4.813 -0.3382 -0.2079  0.7767
 1310ACTN    O113558   1.444   8.454   4.806 -0.2381 -0.2979 -0.0722
 1310ACTN    C113559   1.530   8.243   4.832 -0.2893 -0.0496  0.1447
 1310ACTN    H113560   1.609   8.263   4.760 -1.6105  2.7707 -0.5849
 1310ACTN    H213561   1.505   8.138   4.816  0.9212 -0.0209 -2.0899
 1310ACTN    H313562   1.570   8.254   4.933 -1.6701  0.0846  0.6913
 1311ACTN    H613563   5.510   3.041   0.413 -2.5592 -2.9218 -2.1034
 1311ACTN    C313564   5.584   2.962   0.395  0.2082 -0.7609 -0.4993
 1311ACTN    H413565   5.677   3.015   0.378 -0.8227  0.8829 -1.1948
 1311ACTN    H513566   5.598   2.894   0.479  2.3651 -2.0107 -1.8526
 1311ACTN    C213567   5.546   2.877   0.282 -0.3387 -0.4718  0.5031
 1311ACTN    O113568   5.595   2.906   0.172  0.1592  0.2144  0.5297
 1311ACTN    C113569   5.443   2.777   0.304  0.6693  0.7204  0.2057
 1311ACTN    H113570   5.401   2.771   0.405  0.3675  2.6240  0.1988
 1311ACTN    H213571   5.475   2.677   0.274 -1.2844  0.5424 -1.3699
 1311ACTN    H313572   5.358   2.805   0.243  0.2025  0.6756  0.8231
 1312ACTN    H613573   8.467   1.417   4.450  1.7742  0.2727 -2.0874
 1312ACTN    C313574   8.526   1.475   4.521 -0.2703 -0.2416  0.1320
 1312ACTN    H413575   8.511   1.583   4.525 -1.5661 -0.4548  1.0126
 1312ACTN    H513576   8.505   1.435   4.620  1.2413 -1.4080  0.0097
 1312ACTN    C213577   8.672   1.454   4.484  0.4798  0.0460 -0.1348
 1312ACTN    O113578   8.729   1.520   4.395  0.3590 -0.0660  0.2063
 1312ACTN    C113579   8.751   1.353   4.561  0.4937  0.1371  0.7500
 1312ACTN    H113580   8.695   1.307   4.642  0.1326  1.0202  1.0025
 1312ACTN    H213581   8.840   1.399   4.605  0.2063  0.9856  0.4451
 1312ACTN    H313582   8.794   1.275   4.499  0.5255  1.0378 -0.3742
 1313ACTN    H613583   5.565   0.601   1.364 -0.9011 -2.2243 -1.8866
 1313ACTN    C313584   5.482   0.647   1.310 -0.8364  0.2178  0.0031
 1313ACTN    H413585   5.395   0.642   1.375 -1.0221  0.5893 -0.2155
 1313ACTN    H513586   5.516   0.750   1.305 -0.3343  0.1243  1.2876
 1313ACTN    C213587   5.454   0.570   1.187 -0.8292  0.5733  0.2206
 1313ACTN    O113588   5.509   0.467   1.161  0.1979 -0.3101 -0.1515
 1313ACTN    C113589   5.348   0.612   1.090  0.4961 -0.3775  0.0312
 1313ACTN    H113590   5.280   0.677   1.145 -0.7548 -2.1860  0.6886
 1313ACTN    H213591   5.292   0.532   1.041  0.2308 -1.4483  2.0351
 1313ACTN    H313592   5.392   0.676   1.014 -0.2021  0.4769  0.3473
 1314ACTN    H613593   0.410   8.843   1.963  0.8786 -0.6191 -0.4192
 1314ACTN    C313594   0.513   8.858   1.994  0.5313  0.1546  0.3689
 1314ACTN    H413595   0.520   8.853   2.103 -0.2784  1.7449  0.5117
 1314ACTN    H513596   0.566   8.772   1.955 -0.6705 -0.0409 -0.8831
 1314ACTN    C213597   0.560   8.996   1.945  0.0950 -0.7601  0.3905
 1314ACTN    O113598   0.603   9.079   2.026  0.5977  0.1855  0.2969
 1314ACTN    C113599   0.531   9.044   1.807 -0.3691 -0.0596  0.3202
 1314ACTN    H113600   0.513   8.954   1.747  0.9754  0.8233 -1.4273
 1314ACTN    H213601   0.620   9.094   1.769 -0.1457 -1.3933 -0.9474
 1314ACTN    H313602   0.441   9.105   1.800 -0.4339 -0.3226 -1.2679
 1315ACTN    H613603   3.288   7.603   5.854 -1.8412 -0.0240 -0.2837
 1315ACTN    C313604   3.284   7.523   5.781  0.1061 -0.2844 -0.1330
 1315ACTN    H413605   3.306   7.428   5.829 -3.6934 -1.2007 -0.0656
 1315ACTN    H513606   3.181   7.523   5.745  0.2269 -0.9243 -0.4888
 1315ACTN    C213607   3.385   7.557   5.677  0.4275  0.0831 -0.1473
 1315ACTN    O113608   3.407   7.480   5.583 -0.2546 -0.1648  0.1416
 1315ACTN    C113609   3.434   7.698   5.666 -0.0265 -0.1759  0.2458
 1315ACTN    H113610   3.490   7.724   5.756 -2.2737 -1.4373  2.0352
 1315ACTN    H213611   3.352   7.768   5.652  1.1543  1.2376  0.3001
 1315ACTN    H313612   3.500   7.712   5.580  0.6138  0.2474  0.8024
 1316ACTN    H613613   6.908   1.214   6.350  1.0228 -1.0226  0.9757
 1316ACTN    C313614   6.905   1.308   6.406 -0.1722 -0.1547 -0.5240
 1316ACTN    H413615   6.802   1.316   6.442 -0.2995 -1.9014 -0.4514
 1316ACTN    H513616   6.971   1.295   6.492 -1.2941  0.9694  0.5311
 1316ACTN    C213617   6.949   1.420   6.326  0.8882  0.6325  0.4350
 1316ACTN    O113618   7.011   1.405   6.220  0.4751 -0.0435 -0.9276
 1316ACTN    C113619   6.899   1.550   6.375  0.1562 -0.3620 -0.7078
 1316ACTN    H113620   6.813   1.588   6.320 -2.0562 -1.5774  1.7673
 1316ACTN    H213621   6.973   1.630   6.363  0.6085 -1.0190 -2.3803
 1316ACTN    H313622   6.877   1.552   6.482  0.6688  1.6483 -0.6002
 1317ACTN    H613623   8.861   5.308   7.943  3.7758 -0.2833  0.2454
 1317ACTN    C313624   8.855   5.342   8.046 -0.1629 -0.1287  0.0417
 1317ACTN    H413625   8.813   5.443   8.040  0.9685  0.2705 -1.3354
 1317ACTN    H513626   8.780   5.284   8.099  1.8207 -2.4228  0.4490
 1317ACTN    C213627   8.986   5.348   8.107  0.2258  0.8154  1.2753
 1317ACTN    O113628   9.003   5.308   8.216  0.2622  0.3018 -0.0416
 1317ACTN    C113629   9.098   5.433   8.044 -0.0887  0.3357  0.1792
 1317ACTN    H113630   9.094   5.529   8.095 -0.6871  0.2038  0.3922
 1317ACTN    H213631   9.084   5.448   7.937 -0.0949  0.1215  0.1489
 1317ACTN    H313632   9.196   5.393   8.072 -0.4979 -0.5941  0.3031
 1318ACTN    H613633   6.938   6.141   4.661 -1.2267  2.8219  0.8222
 1318ACTN    C313634   6.906   6.097   4.756 -1.0951  0.5582 -0.1561
 1318ACTN    H413635   6.913   5.988   4.748 -0.5155  0.5183  0.8291
 1318ACTN    H513636   6.983   6.121   4.829  0.1153  1.0897 -1.5812
 1318ACTN    C213637   6.777   6.142   4.794 -0.3092 -0.0943  0.1539
 1318ACTN    O113638   6.759   6.259   4.791  0.1266 -0.1510  0.5871
 1318ACTN    C113639   6.665   6.042   4.825  0.0686  0.5675  0.2601
 1318ACTN    H113640   6.581   6.059   4.757  0.8679  1.3333 -0.5588
 1318ACTN    H213641   6.629   6.057   4.926  1.1722  0.3754  0.6948
 1318ACTN    H313642   6.693   5.937   4.821 -1.0728  0.3373 -2.5110
 1319ACTN    H613643   7.214   8.834   4.329  0.9279  2.3142 -0.3040
 1319ACTN    C313644   7.303   8.815   4.390 -0.0093  0.1438  0.4220
 1319ACTN    H413645   7.384   8.797   4.320 -0.2945  1.7384 -0.3378
 1319ACTN    H513646   7.314   8.907   4.447  0.7212  1.0009 -1.0864
 1319ACTN    C213647   7.296   8.689   4.470  0.9267  0.0133  0.5630
 1319ACTN    O113648   7.236   8.689   4.577 -0.2929 -0.0718 -0.0596
 1319ACTN    C113649   7.339   8.561   4.414  0.5621 -0.6552  0.5669
 1319ACTN    H113650   7.419   8.517   4.472  0.5766  0.0561  1.0900
 1319ACTN    H213651   7.367   8.574   4.309 -0.3799 -0.3989  0.3356
 1319ACTN    H313652   7.252   8.495   4.411  2.5760 -3.4906  2.0562
 1320ACTN    H613653   0.548   6.400   4.609 -0.0109 -1.2297  0.7184
 1320ACTN    C313654   0.511   6.456   4.695  0.7558  0.5632 -0.1020
 1320ACTN    H413655   0.505   6.383   4.776  0.8327  0.4943 -0.1586
 1320ACTN    H513656   0.582   6.536   4.716  1.6156  0.5638 -2.8157
 1320ACTN    C213657   0.369   6.492   4.660 -0.2080 -0.6767  0.4321
 1320ACTN    O113658   0.332   6.600   4.704 -0.1977  0.3077  0.6430
 1320ACTN    C113659   0.283   6.403   4.570  0.2931  0.3029  0.0899
 1320ACTN    H113660   0.262   6.458   4.478  2.8725 -0.4507 -1.0128
 1320ACTN    H213661   0.193   6.376   4.625  1.8730  1.5516  3.4513
 1320ACTN    H313662   0.327   6.306   4.544 -0.1004  0.5480 -1.5560
 1321ACTN    H613663   8.709   0.182   5.383  0.3069  1.4605  0.8447
 1321ACTN    C313664   8.730   0.160   5.487  0.5059 -1.1340  0.2981
 1321ACTN    H413665   8.637   0.177   5.542  0.9396  1.0019  0.3983
 1321ACTN    H513666   8.760   0.055   5.493 -1.9473 -1.9378 -0.9754
 1321ACTN    C213667   8.836   0.253   5.533  0.2483 -0.1054  0.4036
 1321ACTN    O113668   8.807   0.336   5.618  0.4686 -0.0058  0.4927
 1321ACTN    C113669   8.954   0.275   5.452 -0.6319  0.6402  0.7238
 1321ACTN    H113670   8.953   0.221   5.358  2.5375  0.2789  0.8490
 1321ACTN    H213671   9.049   0.251   5.499 -0.2764  1.7167  0.5773
 1321ACTN    H313672   8.962   0.382   5.431  1.2930 -0.1498 -2.8758
 1322ACTN    H613673   7.279   7.820   2.181  3.1354  0.3111  2.1160
 1322ACTN    C313674   7.332   7.800   2.088 -0.1874  0.3397  0.1340
 1322ACTN    H413675   7.374   7.700   2.094 -2.2617 -0.5354  0.2726
 1322ACTN    H513676   7.266   7.808   2.002 -3.1067 -0.4513  2.2254
 1322ACTN    C213677   7.444   7.889   2.068  0.0146  0.0985  0.0031
 1322ACTN    O113678   7.449   8.005   2.119 -0.2860 -0.4888  0.7326
 1322ACTN    C113679   7.569   7.844   2.004 -0.4730  0.7965 -0.1867
 1322ACTN    H113680   7.579   7.741   1.971  0.6161  0.9089 -0.2332
 1322ACTN    H213681   7.654   7.864   2.070 -1.1853 -1.3576  1.4276
 1322ACTN    H313682   7.579   7.905   1.914 -1.0617  0.4513 -0.4845
 1323ACTN    H613683   0.011   6.775   2.921 -0.6130 -1.1485 -0.5573
 1323ACTN    C313684  -0.042   6.729   3.004 -0.1796 -0.1332  0.3032
 1323ACTN    H413685   0.040   6.688   3.063  0.3133 -0.6750 -0.7474
 1323ACTN    H513686  -0.096   6.800   3.065 -1.1399 -0.4595 -0.1597
 1323ACTN    C213687  -0.120   6.624   2.937 -0.0303 -0.2965  0.2812
 1323ACTN    O113688  -0.163   6.640   2.828  0.1381 -0.5515 -0.3674
 1323ACTN    C113689  -0.115   6.485   3.000 -0.0195  0.0271 -0.3198
 1323ACTN    H113690  -0.195   6.418   2.970  0.3644  0.1912 -1.7556
 1323ACTN    H213691  -0.115   6.489   3.108  0.8928 -1.3848 -0.2516
 1323ACTN    H313692  -0.022   6.438   2.965 -0.9617  0.9064 -4.3062
 1324ACTN    H613693   0.114   8.512   2.671  0.7149 -0.9040  0.1686
 1324ACTN    C313694   0.006   8.522   2.657  0.7912 -0.4766 -0.1089
 1324ACTN    H413695  -0.036   8.425   2.683 -1.7354  0.0574 -2.0544
 1324ACTN    H513696  -0.015   8.549   2.554 -3.1551 -0.4393  0.6574
 1324ACTN    C213697  -0.039   8.638   2.749  0.7210  1.2776 -0.6192
 1324ACTN    O113698   0.033   8.687   2.836 -0.0265 -0.0589 -0.7390
 1324ACTN    C113699  -0.177   8.678   2.749  0.6348 -0.0109 -0.7481
 1324ACTN    H113700  -0.208   8.762   2.811 -2.3896 -1.3423 -0.3589
 1324ACTN    H213701  -0.238   8.592   2.777 -0.9925  0.8472 -1.5716
 1324ACTN    H313702  -0.206   8.692   2.644  2.8672 -1.3316 -1.5755
 1325ACTN    H613703   8.080   1.993   4.116  0.9218 -1.3827  0.9561
 1325ACTN    C313704   8.070   1.942   4.021 -0.2225  0.5773  0.0016
 1325ACTN    H413705   8.027   1.844   4.043  1.0539  0.1872  0.8164
 1325ACTN    H513706   8.008   2.000   3.953 -0.6249  1.1162  0.8233
 1325ACTN    C213707   8.204   1.915   3.969 -0.6791 -0.1795 -0.4752
 1325ACTN    O113708   8.274   2.003   3.938  0.3196 -0.6960  0.6006
 1325ACTN    C113709   8.257   1.775   3.955 -0.1131  0.1762 -0.6806
 1325ACTN    H113710   8.191   1.705   4.007 -0.8120  1.1207 -0.2798
 1325ACTN    H213711   8.363   1.762   3.976  0.1028  0.1334 -1.7972
 1325ACTN    H313712   8.253   1.743   3.851 -1.1796  3.3986 -1.6681
 1326ACTN    H613713   6.100   8.038   5.911  0.8401 -2.2648  1.1248
 1326ACTN    C313714   6.208   8.056   5.905  0.4554 -0.1327 -0.1080
 1326ACTN    H413715   6.249   7.992   5.984 -0.7997 -0.9800 -0.1123
 1326ACTN    H513716   6.224   8.007   5.809 -2.0089 -2.0432  0.4058
 1326ACTN    C213717   6.247   8.204   5.914 -0.1127  0.4847 -0.1737
 1326ACTN    O113718   6.168   8.280   5.969 -0.2545  0.5684  0.3950
 1326ACTN    C113719   6.350   8.255   5.823 -0.9362  0.4032  0.3162
 1326ACTN    H113720   6.411   8.179   5.775  0.4868  1.2437  0.7619
 1326ACTN    H213721   6.418   8.323   5.873 -0.7367  0.0547  0.5225
 1326ACTN    H313722   6.308   8.312   5.740  1.4603  0.7631 -0.6668
 1327ACTN    H613723   8.775   8.168   2.743 -0.6330  1.9130 -1.5757
 1327ACTN    C313724   8.696   8.115   2.691  0.0913 -0.5088 -0.2639
 1327ACTN    H413725   8.725   8.080   2.592  0.6233 -1.3721  0.1877
 1327ACTN    H513726   8.662   8.031   2.752 -0.7066  0.1933  0.2759
 1327ACTN    C213727   8.578   8.210   2.673  0.1355  0.4784  0.1566
 1327ACTN    O113728   8.560   8.312   2.727 -0.2253  0.2093 -0.5408
 1327ACTN    C113729   8.469   8.168   2.584  0.0735  0.6817 -0.4330
 1327ACTN    H113730   8.445   8.243   2.509 -0.2089  2.0487  0.9919
 1327ACTN    H213731   8.371   8.148   2.629  0.5781  2.5471  1.5847
 1327ACTN    H313732   8.487   8.073   2.534 -0.5229  1.1129 -1.4813
 1328ACTN    H613733   2.240   1.022   1.523  0.9558 -0.4652  1.5696
 1328ACTN    C313734   2.261   1.124   1.556 -0.2011  0.4268 -0.3710
 1328ACTN    H413735   2.369   1.138   1.567 -0.3435  1.3545 -0.1441
 1328ACTN    H513736   2.216   1.184   1.476 -1.8139  0.3914  0.5093
 1328ACTN    C213737   2.188   1.171   1.675 -0.1436 -0.1934  0.5578
 1328ACTN    O113738   2.070   1.183   1.661  0.9257 -0.3728  0.6699
 1328ACTN    C113739   2.254   1.177   1.815  0.0127 -0.2284 -0.4517
 1328ACTN    H113740   2.333   1.252   1.819  1.4219 -1.6442 -0.9405
 1328ACTN    H213741   2.302   1.083   1.846  0.1328 -0.2423 -0.6742
 1328ACTN    H313742   2.178   1.203   1.889  0.6309  1.1770 -0.2937
 1329ACTN    H613743   6.858   1.754   4.315  2.0501 -2.0572  0.2763
 1329ACTN    C313744   6.848   1.772   4.208  0.4018 -0.5976  0.6399
 1329ACTN    H413745   6.754   1.729   4.175  0.9747 -1.4877  0.1742
 1329ACTN    H513746   6.926   1.716   4.158  1.2449 -0.3204  1.6182
 1329ACTN    C213747   6.855   1.914   4.188  0.6606 -0.4975 -0.0444
 1329ACTN    O113748   6.754   1.973   4.145 -0.8278  0.3637  0.3721
 1329ACTN    C113749   6.986   1.988   4.213 -0.2785  0.0098  0.4042
 1329ACTN    H113750   7.060   1.931   4.269 -1.6365 -0.9788  1.2304
 1329ACTN    H213751   6.954   2.073   4.273 -2.1708  1.3143 -2.3431
 1329ACTN    H313752   7.029   2.032   4.123  0.0804 -0.9747  0.0878
 1330ACTN    H613753   2.557   7.900   3.512  1.2570  1.6167 -3.1062
 1330ACTN    C313754   2.647   7.866   3.562 -0.6398  0.5746 -0.2869
 1330ACTN    H413755   2.726   7.860   3.487 -0.4283  1.2232 -0.1193
 1330ACTN    H513756   2.670   7.945   3.634  0.1976  0.7689 -0.7627
 1330ACTN    C213757   2.616   7.739   3.641  0.3371 -0.8620 -1.1090
 1330ACTN    O113758   2.707   7.685   3.709  0.1032  0.0542  0.4447
 1330ACTN    C113759   2.475   7.702   3.689 -0.1067  0.3654 -0.4254
 1330ACTN    H113760   2.457   7.604   3.646 -0.6151 -0.2734  1.2193
 1330ACTN    H213761   2.393   7.768   3.661 -0.2437  0.1590 -0.5049
 1330ACTN    H313762   2.471   7.690   3.797 -1.8559  1.2506 -0.3763
 1331ACTN    H613763   1.390   3.416   3.315 -0.8136  2.3935 -0.4073
 1331ACTN    C313764   1.434   3.447   3.221  0.7391 -0.3365 -0.6299
 1331ACTN    H413765   1.455   3.553   3.239  1.8596 -0.2554 -2.3036
 1331ACTN    H513766   1.530   3.397   3.206  0.5057 -1.2788  0.9464
 1331ACTN    C213767   1.336   3.427   3.107  0.1792 -0.0648 -0.7573
 1331ACTN    O113768   1.356   3.337   3.035 -0.0025 -0.4608  0.3197
 1331ACTN    C113769   1.238   3.537   3.076  0.4247  0.2346 -0.0227
 1331ACTN    H113770   1.173   3.567   3.159 -1.7754  1.0182 -1.9842
 1331ACTN    H213771   1.181   3.507   2.989  0.9819 -3.2970  0.7586
 1331ACTN    H313772   1.304   3.618   3.043  1.7826 -0.6256  0.5156
 1332ACTN    H613773   8.244   8.781   4.579 -3.8123 -0.6457  1.7036
 1332ACTN    C313774   8.270   8.681   4.614 -0.3328 -0.3242  0.2227
 1332ACTN    H413775   8.180   8.628   4.647 -1.2652 -0.1152 -1.9042
 1332ACTN    H513776   8.301   8.626   4.525  1.4988  0.2745  0.4678
 1332ACTN    C213777   8.389   8.679   4.709  0.7788 -0.0676 -0.1405
 1332ACTN    O113778   8.444   8.571   4.717 -0.1443  0.5002  0.5134
 1332ACTN    C113779   8.449   8.812   4.749 -0.3858 -0.0705 -0.7369
 1332ACTN    H113780   8.428   8.837   4.853 -1.5670 -0.6620 -0.8270
 1332ACTN    H213781   8.397   8.891   4.694 -0.0988  0.3276 -0.4416
 1332ACTN    H313782   8.550   8.810   4.708 -0.2112  0.1473 -0.3189
 1333ACTN    H613783   8.930   0.155   8.028  0.1938 -3.5289 -1.7082
 1333ACTN    C313784   8.824   0.164   8.002  0.0847 -0.3547 -0.4661
 1333ACTN    H413785   8.803   0.270   7.994  0.0006 -0.2106  1.4651
 1333ACTN    H513786   8.820   0.130   7.898 -2.6179  3.5181 -1.7262
 1333ACTN    C213787   8.733   0.096   8.105 -0.5477 -0.2838  0.5528
 1333ACTN    O113788   8.760   0.103   8.226  0.3650  0.1937  0.4154
 1333ACTN    C113789   8.597   0.065   8.052 -0.1570  0.2137 -0.0500
 1333ACTN    H113790   8.542   0.022   8.136  0.7559  0.1226  0.5005
 1333ACTN    H213791   8.607  -0.001   7.966 -0.9231  2.2908 -1.7871
 1333ACTN    H313792   8.550   0.162   8.032 -0.1261  1.1753  3.9686
 1334ACTN    H613793   2.476   8.814   4.948 -0.4140 -0.5693 -2.3404
 1334ACTN    C313794   2.570   8.759   4.953 -0.1741  0.0577  0.5128
 1334ACTN    H413795   2.653   8.820   4.916  0.0371  0.5480  1.7525
 1334ACTN    H513796   2.597   8.720   5.051  0.2188 -1.6153 -0.2610
 1334ACTN    C213797   2.547   8.642   4.857  0.6205 -0.3620  0.1046
 1334ACTN    O113798   2.443   8.627   4.802 -0.2246 -0.0171 -0.0166
 1334ACTN    C113799   2.662   8.554   4.823  0.7093  1.0032 -0.2287
 1334ACTN    H113800   2.699   8.503   4.912  0.6540  0.3785 -0.5590
 1334ACTN    H213801   2.740   8.615   4.776  0.2131  0.1066 -2.2756
 1334ACTN    H313802   2.643   8.466   4.761  1.2952  0.4535  0.3499
 1335ACTN    H613803   0.265   7.072   3.663  5.0615  0.6135  2.0865
 1335ACTN    C313804   0.241   7.176   3.681 -0.5037 -0.1674  0.1603
 1335ACTN    H413805   0.142   7.200   3.642 -0.2272 -0.5535 -0.8009
 1335ACTN    H513806   0.250   7.196   3.788 -2.6305  0.4953  0.2497
 1335ACTN    C213807   0.336   7.266   3.604 -0.2291 -0.6050 -0.4713
 1335ACTN    O113808   0.456   7.267   3.648 -1.0834  0.3930  0.6119
 1335ACTN    C113809   0.298   7.343   3.483 -0.1510 -0.2382 -0.1894
 1335ACTN    H113810   0.194   7.328   3.453  0.6428 -0.3402 -3.0301
 1335ACTN    H213811   0.359   7.310   3.399  0.9663  1.4694 -0.0648
 1335ACTN    H313812   0.321   7.447   3.506  0.5920 -0.7235  1.2909
 1336ACTN    H613813   7.708   7.356   5.542 -1.0671 -2.4923  2.7272
 1336ACTN    C313814   7.690   7.442   5.605  0.0895 -0.8518  0.8741
 1336ACTN    H413815   7.621   7.406   5.682 -1.9763 -0.6552 -0.8361
 1336ACTN    H513816   7.779   7.463   5.665 -0.0700 -1.4531  1.3249
 1336ACTN    C213817   7.634   7.560   5.534  0.0997  0.4781 -0.2142
 1336ACTN    O113818   7.521   7.554   5.494 -0.0873  0.6653 -0.3844
 1336ACTN    C113819   7.716   7.683   5.524 -0.3136  0.1837 -0.4725
 1336ACTN    H113820   7.783   7.685   5.439  2.1867 -0.8901  1.4053
 1336ACTN    H213821   7.780   7.674   5.612  0.8798 -1.9191 -1.5094
 1336ACTN    H313822   7.651   7.770   5.526 -1.1445 -0.4392  1.9849
 1337ACTN    H613823   1.185   0.668   6.338 -1.7479 -2.5316 -1.2713
 1337ACTN    C313824   1.262   0.596   6.366  0.0965 -0.1233  0.0205
 1337ACTN    H413825   1.332   0.581   6.284  2.5017  1.2850  1.7144
 1337ACTN    H513826   1.312   0.636   6.455 -0.0683 -2.1042  1.0308
 1337ACTN    C213827   1.188   0.470   6.402  0.0484  0.5151 -0.2625
 1337ACTN    O113828   1.202   0.369   6.337 -0.2006 -0.5570  0.3325
 1337ACTN    C113829   1.113   0.470   6.536 -0.0443 -0.4703  0.0461
 1337ACTN    H113830   1.008   0.440   6.525 -0.5344  1.0054  0.6694
 1337ACTN    H213831   1.111   0.562   6.594 -1.8020  0.2931 -1.1873
 1337ACTN    H313832   1.163   0.398   6.600  0.5447 -1.1655 -1.1689
 1338ACTN    H613833   4.195   1.673   2.869 -0.1663  0.6043  2.5983
 1338ACTN    C313834   4.240   1.770   2.847 -0.0504 -0.1758 -0.7487
 1338ACTN    H413835   4.285   1.817   2.934  4.1372 -1.9466 -1.8128
 1338ACTN    H513836   4.325   1.733   2.788  1.0106  2.9279 -1.2381
 1338ACTN    C213837   4.161   1.855   2.757 -0.0670 -0.4849  0.4091
 1338ACTN    O113838   4.208   1.967   2.737  0.4662 -0.5220  0.4524
 1338ACTN    C113839   4.018   1.838   2.720 -0.0123 -0.1924  0.2198
 1338ACTN    H113840   4.010   1.880   2.619  0.0983 -1.0270 -0.1408
 1338ACTN    H213841   3.957   1.899   2.786  1.0588 -0.1324  1.1628
 1338ACTN    H313842   3.984   1.735   2.726  2.2404 -0.9677  0.3252
 1339ACTN    H613843   2.895   8.179   5.465 -2.8216  0.3859  0.1780
 1339ACTN    C313844   2.876   8.104   5.542 -0.3889 -0.2493  0.1947
 1339ACTN    H413845   2.797   8.037   5.508 -0.8405  0.5834 -0.4207
 1339ACTN    H513846   2.848   8.157   5.633  1.6915 -0.3376  0.9004
 1339ACTN    C213847   2.995   8.021   5.560  1.4276 -0.0204  0.2720
 1339ACTN    O113848   3.015   7.980   5.675  0.4094 -0.0308 -0.3561
 1339ACTN    C113849   3.087   7.989   5.442 -0.3964 -0.5522 -0.7852
 1339ACTN    H113850   3.026   7.977   5.352 -1.2521 -4.8067  0.2466
 1339ACTN    H213851   3.144   7.896   5.452  2.4729  1.3362  1.4498
 1339ACTN    H313852   3.168   8.062   5.434 -1.4581  0.5666 -1.3838
 1340ACTN    H613853   0.192   6.968   2.897 -0.1349 -0.5089  0.3579
 1340ACTN    C313854   0.296   6.981   2.926  0.0661  0.6312 -0.8726
 1340ACTN    H413855   0.319   7.087   2.911 -0.2924  1.2298  2.4403
 1340ACTN    H513856   0.302   6.959   3.032  0.2531  1.5873 -0.6746
 1340ACTN    C213857   0.395   6.899   2.851 -0.2593 -0.3140 -0.3777
 1340ACTN    O113858   0.382   6.776   2.847 -0.1640 -0.2761  0.1523
 1340ACTN    C113859   0.514   6.966   2.793  0.5205  0.3916  0.2880
 1340ACTN    H113860   0.605   6.905   2.796  0.5520  0.4984  2.4275
 1340ACTN    H213861   0.542   7.055   2.851 -0.6295  0.5348  0.6302
 1340ACTN    H313862   0.493   6.989   2.689 -1.5181 -2.1026  0.1030
 1341ACTN    H613863   6.430   4.531   6.626  2.2213  0.1203 -0.8147
 1341ACTN    C313864   6.443   4.639   6.618 -0.1471  0.4966 -0.0205
 1341ACTN    H413865   6.404   4.667   6.520 -0.4225 -1.4053 -0.4700
 1341ACTN    H513866   6.388   4.690   6.697 -0.2908  0.6494 -0.2186
 1341ACTN    C213867   6.590   4.689   6.630 -0.0259  1.1956 -0.2816
 1341ACTN    O113868   6.630   4.761   6.718  0.0130 -0.2636  0.6885
 1341ACTN    C113869   6.682   4.646   6.517  0.1736  0.2275  0.1190
 1341ACTN    H113870   6.646   4.561   6.458 -1.0897  1.0808 -0.3516
 1341ACTN    H213871   6.779   4.613   6.555 -0.4634 -3.0624 -0.8812
 1341ACTN    H313872   6.683   4.727   6.444 -2.9890 -1.3684 -1.8013
 1342ACTN    H613873   5.296   8.400   2.413  1.0585 -0.1207 -0.8761
 1342ACTN    C313874   5.312   8.504   2.384  0.7755  0.1420 -0.1155
 1342ACTN    H413875   5.309   8.558   2.479 -3.0422 -1.3941  0.7446
 1342ACTN    H513876   5.412   8.522   2.344  0.7523 -1.5118 -0.9917
 1342ACTN    C213877   5.203   8.553   2.278  0.0906  0.7868 -0.2856
 1342ACTN    O113878   5.173   8.672   2.274 -0.5182 -0.8838  0.1618
 1342ACTN    C113879   5.111   8.450   2.215  0.3969  0.5275  0.2792
 1342ACTN    H113880   5.022   8.494   2.170 -0.6652 -3.1598 -1.3554
 1342ACTN    H213881   5.076   8.369   2.279 -2.9043  0.8069 -1.0909
 1342ACTN    H313882   5.173   8.404   2.138  1.4242  1.8886  0.2653
 1343ACTN    H613883   7.292   7.627   8.778 -0.5058 -2.6485 -2.4307
 1343ACTN    C313884   7.378   7.665   8.723 -0.2549  0.7365  0.1175
 1343ACTN    H413885   7.442   7.711   8.798 -0.2905 -0.6513  1.0231
 1343ACTN    H513886   7.419   7.575   8.677  1.0019  0.2278  2.1675
 1343ACTN    C213887   7.320   7.768   8.629  0.1049  0.0556  0.0329
 1343ACTN    O113888   7.243   7.737   8.539  0.0664  0.3119 -0.8077
 1343ACTN    C113889   7.357   7.911   8.644  0.0860 -0.1028 -0.1833
 1343ACTN    H113890   7.379   7.944   8.543 -1.9481 -1.4808 -1.1099
 1343ACTN    H213891   7.442   7.927   8.710 -1.1610  0.7938  1.2486
 1343ACTN    H313892   7.271   7.971   8.675  0.8881  0.6895  0.5492
 1344ACTN    H613893   0.109   4.684   8.580  0.5601 -0.1821 -0.1406
 1344ACTN    C313894   0.127   4.612   8.500 -0.1759 -0.0581 -0.4229
 1344ACTN    H413895   0.035   4.554   8.493  0.1897 -0.5418 -1.1735
 1344ACTN    H513896   0.128   4.660   8.403  0.5148  2.5604  0.8372
 1344ACTN    C213897   0.247   4.533   8.530  0.3687 -0.0681  0.2763
 1344ACTN    O113898   0.347   4.529   8.460 -0.0437 -0.4529  0.5735
 1344ACTN    C113899   0.229   4.446   8.647 -0.1404  0.4838 -0.2860
 1344ACTN    H113900   0.214   4.500   8.740 -1.7549 -1.1877  0.4681
 1344ACTN    H213901   0.303   4.367   8.661 -0.6875 -0.2295 -1.2998
 1344ACTN    H313902   0.133   4.397   8.630  0.3616 -0.2400 -1.1044
 1345ACTN    H613903   3.174   4.515   8.155 -0.8068 -0.7508 -0.9880
 1345ACTN    C313904   3.160   4.501   8.262  0.1412  0.1730 -0.7236
 1345ACTN    H413905   3.071   4.441   8.281  0.1225  0.2992 -0.4089
 1345ACTN    H513906   3.133   4.598   8.304 -0.2744 -0.0931 -0.3663
 1345ACTN    C213907   3.273   4.435   8.327 -0.6956  0.4426 -0.4968
 1345ACTN    O113908   3.296   4.318   8.299 -0.1796 -0.2617 -0.1192
 1345ACTN    C113909   3.369   4.517   8.409 -0.8014 -0.1380  0.4475
 1345ACTN    H113910   3.369   4.482   8.513 -0.5953  1.0289  0.8469
 1345ACTN    H213911   3.331   4.618   8.423  1.3902  0.4775  2.2583
 1345ACTN    H313912   3.472   4.510   8.376 -0.3443  1.2849  1.5057
 1346ACTN    H613913   5.116   2.712   1.107  1.2824 -0.9984  0.6574
 1346ACTN    C313914   5.194   2.667   1.045  0.9534 -0.2907 -0.2703
 1346ACTN    H413915   5.190   2.716   0.947  0.0646 -1.9127 -1.0654
 1346ACTN    H513916   5.286   2.702   1.091 -0.0656 -1.0627  2.4297
 1346ACTN    C213917   5.184   2.517   1.026 -0.1163  0.4860 -0.3289
 1346ACTN    O113918   5.263   2.441   1.084  0.1615 -0.6836  0.4613
 1346ACTN    C113919   5.081   2.479   0.924 -0.1459  0.1301  0.3639
 1346ACTN    H113920   4.985   2.522   0.951 -0.3758 -0.3963  0.3877
 1346ACTN    H213921   5.075   2.374   0.899  0.1440  0.3491 -0.6390
 1346ACTN    H313922   5.116   2.532   0.836  3.0587 -1.4439  0.6235
 1347ACTN    H613923   0.475   0.006   6.177  0.4039  3.4612  1.6823
 1347ACTN    C313924   0.385   0.040   6.127  0.1423  0.0635 -0.2904
 1347ACTN    H413925   0.374   0.147   6.143  2.6537  0.1003  1.3798
 1347ACTN    H513926   0.306  -0.006   6.186  1.9215  1.4654  3.3089
 1347ACTN    C213927   0.360   0.006   5.983  0.0202  0.5975 -0.9675
 1347ACTN    O113928   0.279  -0.085   5.962 -0.4624  0.0217  0.2709
 1347ACTN    C113929   0.434   0.074   5.867  0.1561 -0.0471  0.8003
 1347ACTN    H113930   0.414   0.182   5.864 -2.0725 -0.4694 -0.8326
 1347ACTN    H213931   0.404   0.040   5.768  2.4040 -2.5554  0.9315
 1347ACTN    H313932   0.541   0.055   5.874  0.2725  0.7237  1.2785
 1348ACTN    H613933   3.195   3.073   2.788 -1.4230 -0.2002  1.3592
 1348ACTN    C313934   3.196   2.970   2.753  0.0039  0.2653 -0.0265
 1348ACTN    H413935   3.108   2.913   2.782  1.2462 -0.5333  2.3463
 1348ACTN    H513936   3.283   2.914   2.789  0.4240  1.4038  0.7547
 1348ACTN    C213937   3.199   2.985   2.608  0.0684 -0.0027 -0.4100
 1348ACTN    O113938   3.145   3.079   2.547  0.3827  0.1222 -0.0290
 1348ACTN    C113939   3.283   2.882   2.530 -0.0876  0.9887 -0.2374
 1348ACTN    H113940   3.388   2.911   2.538  1.3255 -3.8016  0.2606
 1348ACTN    H213941   3.257   2.889   2.424  4.3498  2.0261 -1.3717
 1348ACTN    H313942   3.271   2.776   2.554 -2.8266  1.1271 -0.8543
 1349ACTN    H613943   3.860   1.100   6.299 -1.0476  0.8747  0.1781
 1349ACTN    C313944   3.849   1.105   6.191 -0.2335 -0.8166 -0.0066
 1349ACTN    H413945   3.865   1.209   6.160 -2.2548 -0.5390 -0.1854
 1349ACTN    H513946   3.931   1.044   6.153  1.1443 -0.2339  1.9757
 1349ACTN    C213947   3.714   1.054   6.155 -0.0681  0.0389 -0.7248
 1349ACTN    O113948   3.668   0.962   6.225  0.1295  0.6839  0.2452
 1349ACTN    C113949   3.657   1.086   6.022  0.1905  0.9414 -0.1321
 1349ACTN    H113950   3.560   1.045   5.994  1.2648 -0.0858 -2.4881
 1349ACTN    H213951   3.729   1.049   5.949 -0.7639  1.6885 -1.4797
 1349ACTN    H313952   3.657   1.192   5.994 -0.2342  0.5706 -1.5984
 1350ACTN    H613953   1.389   1.308   3.571  0.4346 -0.8467  0.2322
 1350ACTN    C313954   1.361   1.318   3.466  0.6298  0.0343  0.2607
 1350ACTN    H413955   1.342   1.423   3.445  0.9097 -0.0787 -0.5809
 1350ACTN    H513956   1.438   1.280   3.399 -0.5446 -0.1938 -0.9614
 1350ACTN    C213957   1.221   1.249   3.441 -0.1959 -0.5443  0.8878
 1350ACTN    O113958   1.140   1.232   3.534 -0.3608  0.6568 -0.7223
 1350ACTN    C113959   1.176   1.232   3.301  0.1137  0.3015  0.6320
 1350ACTN    H113960   1.249   1.240   3.220 -0.2817 -1.1636  0.1047
 1350ACTN    H213961   1.102   1.310   3.282  1.6438  1.7195  0.3943
 1350ACTN    H313962   1.124   1.137   3.288  0.9308  0.2330 -2.5748
 1351ACTN    H613963   8.508   8.600   5.001 -0.6054  0.6487  1.0151
 1351ACTN    C313964   8.539   8.535   5.083  0.0484  0.2574  0.4631
 1351ACTN    H413965   8.647   8.521   5.071  0.0003 -0.2811  0.6856
 1351ACTN    H513966   8.518   8.577   5.181 -0.9271  0.4168  0.1908
 1351ACTN    C213967   8.483   8.399   5.076  0.1647  0.3989 -1.0453
 1351ACTN    O113968   8.537   8.310   5.140 -0.0783  0.4692 -0.8088
 1351ACTN    C113969   8.359   8.375   4.995 -0.1490 -0.0715 -0.9199
 1351ACTN    H113970   8.378   8.381   4.888 -0.9655  0.1788 -1.0534
 1351ACTN    H213971   8.281   8.442   5.030  2.2861  1.4411  1.8212
 1351ACTN    H313972   8.328   8.272   5.015 -0.3203 -0.4034 -2.8140
 1352ACTN    H613973   0.017   5.120   0.850  0.0432 -0.8550 -0.7301
 1352ACTN    C313974   0.092   5.187   0.807 -0.2299 -0.3412 -0.4108
 1352ACTN    H413975   0.177   5.127   0.776 -0.9987 -2.5874  1.6507
 1352ACTN    H513976   0.047   5.234   0.719 -0.0168  2.0356  0.7198
 1352ACTN    C213977   0.143   5.291   0.908  1.0459  0.6960  1.0955
 1352ACTN    O113978   0.179   5.401   0.869 -0.3987 -0.5633 -0.2623
 1352ACTN    C113979   0.154   5.248   1.051 -0.1313  0.0221  0.1332
 1352ACTN    H113980   0.254   5.220   1.087 -0.9217  0.6615  2.9719
 1352ACTN    H213981   0.091   5.161   1.067  2.5006 -1.4745  2.9604
 1352ACTN    H313982   0.119   5.333   1.109 -0.3401 -0.7136  1.1058
 1353ACTN    H613983   2.107   1.207   3.165  0.9305  0.2489 -1.8159
 1353ACTN    C313984   2.053   1.132   3.107 -0.3519 -0.2949  0.0529
 1353ACTN    H413985   1.985   1.186   3.041  1.5420  1.3749 -0.5855
 1353ACTN    H513986   2.127   1.069   3.058  0.8198  1.9231 -1.1080
 1353ACTN    C213987   1.971   1.049   3.205 -0.5613 -0.0658 -0.1901
 1353ACTN    O113988   1.858   1.091   3.227 -0.0807  0.2455  0.1604
 1353ACTN    C113989   2.034   0.943   3.298  0.0868 -0.5681 -0.1118
 1353ACTN    H113990   2.118   0.983   3.356 -1.4453  1.3597  0.8238
 1353ACTN    H213991   2.060   0.861   3.231 -1.6380  0.5315 -2.1695
 1353ACTN    H313992   1.968   0.897   3.371 -0.0357 -0.9460 -0.4599
 1354ACTN    H613993   7.415   0.329   0.348  0.6003  0.7466 -0.0893
 1354ACTN    C313994   7.399   0.258   0.430  0.4206  0.3343 -0.4792
 1354ACTN    H413995   7.426   0.302   0.526 -1.4147  0.0497  0.1877
 1354ACTN    H513996   7.295   0.225   0.429  1.3841 -2.8364  0.2419
 1354ACTN    C213997   7.483   0.134   0.401  0.3993 -0.1182  0.2712
 1354ACTN    O113998   7.439   0.033   0.351 -0.0802  0.1248  0.4947
 1354ACTN    C113999   7.616   0.132   0.469  0.4309 -0.7603  0.5431
 1354ACTN    H114000   7.637   0.235   0.499  0.1124 -0.7207  0.6423
 1354ACTN    H214001   7.707   0.107   0.415  1.1472 -0.8853  1.7849
 1354ACTN    H314002   7.612   0.075   0.562 -2.3617  0.2035  1.0782
 1355ACTN    H614003   0.391   8.423   1.228  0.1019 -1.1257  1.1722
 1355ACTN    C314004   0.431   8.341   1.169  0.5857  0.1664 -0.3496
 1355ACTN    H414005   0.505   8.381   1.101  0.7214  0.7004  0.1151
 1355ACTN    H514006   0.476   8.265   1.233  0.2285  3.0238  3.4176
 1355ACTN    C214007   0.334   8.270   1.072 -0.2218  0.4235  0.5631
 1355ACTN    O114008   0.379   8.183   0.999  0.0375  0.0091  0.2571
 1355ACTN    C114009   0.197   8.311   1.059 -0.1506 -0.1152  0.3003
 1355ACTN    H114010   0.196   8.407   1.008 -1.3590 -0.0036  0.5115
 1355ACTN    H214011   0.141   8.329   1.151  1.6289 -0.4639  1.4738
 1355ACTN    H314012   0.137   8.242   1.000  1.3769 -0.4682 -0.8750
 1356ACTN    H614013   3.599   7.773   7.049 -0.1554 -0.9358  0.2544
 1356ACTN    C314014   3.602   7.707   6.963 -0.4780 -0.3352 -0.2244
 1356ACTN    H414015   3.500   7.690   6.929 -0.7967  0.8900  0.1103
 1356ACTN    H514016   3.667   7.740   6.882 -0.0102 -1.8536 -0.4908
 1356ACTN    C214017   3.657   7.579   7.012  0.3345  0.0258 -0.1861
 1356ACTN    O114018   3.577   7.485   7.033  0.8447 -0.9803  0.4220
 1356ACTN    C114019   3.799   7.561   7.053  0.4178 -0.0833 -0.5187
 1356ACTN    H114020   3.854   7.573   6.960  2.4679  0.5216  0.7525
 1356ACTN    H214021   3.804   7.466   7.106 -2.8109  1.1877  2.3440
 1356ACTN    H314022   3.826   7.638   7.126 -1.2659  0.4802 -0.4748
 1357ACTN    H614023   2.677   0.445   3.671 -0.0914 -0.3784  0.2090
 1357ACTN    C314024   2.709   0.433   3.774 -0.4289 -0.3418  0.3172
 1357ACTN    H414025   2.777   0.517   3.792  1.5265 -1.9100  0.3831
 1357ACTN    H514026   2.625   0.447   3.843 -0.4063  1.2022  0.0513
 1357ACTN    C214027   2.779   0.302   3.790  0.9993  0.4977  0.4224
 1357ACTN    O114028   2.761   0.216   3.712 -0.5667 -0.0634 -0.6348
 1357ACTN    C114029   2.858   0.266   3.913  0.1008  0.6525 -0.2709
 1357ACTN    H114030   2.794   0.275   4.001  2.6229 -2.0045  1.9540
 1357ACTN    H214031   2.951   0.322   3.927  1.5300 -1.1612 -2.1368
 1357ACTN    H314032   2.894   0.163   3.912 -0.6339  0.3314  2.7916
 1358ACTN    H614033   2.520   8.954   8.985  0.2027  0.2485 -1.0033
 1358ACTN    C314034   2.427   8.918   9.028  0.6646 -0.1258 -0.3104
 1358ACTN    H414035   2.376   8.862   8.950  1.1493 -0.7659 -0.1695
 1358ACTN    H514036   2.456   8.859   9.115  1.0758  1.6849  0.8011
 1358ACTN    C214037   2.349   9.043   9.058 -0.3217 -0.7626  0.4121
 1358ACTN    O114038   2.303   9.052   9.169  0.2068 -0.2428  0.2070
 1358ACTN    C114039   2.310   9.153   8.963  0.4009  0.4361  0.6713
 1358ACTN    H114040   2.312   9.250   9.012  1.8038 -0.0397  1.6018
 1358ACTN    H214041   2.219   9.147   8.903  1.2398 -1.4627 -0.4438
 1358ACTN    H314042   2.386   9.170   8.887 -1.2599  4.1201 -0.2770
 1359ACTN    H614043   0.973   7.885   5.736  1.1556  0.4907 -1.0300
 1359ACTN    C314044   1.017   7.799   5.787  0.0765 -0.0062 -0.9156
 1359ACTN    H414045   1.079   7.742   5.718  2.2872  0.2731  0.7429
 1359ACTN    H514046   1.081   7.841   5.865 -0.9046  1.4557 -0.8769
 1359ACTN    C214047   0.899   7.727   5.856 -1.0983  0.3216 -0.7609
 1359ACTN    O114048   0.895   7.604   5.869  0.6681 -0.9060  0.3294
 1359ACTN    C114049   0.804   7.814   5.933 -0.3783  0.2953  0.3581
 1359ACTN    H114050   0.865   7.871   6.004 -1.0015  1.9556 -0.4084
 1359ACTN    H214051   0.733   7.747   5.982 -1.7005  1.0504 -0.4869
 1359ACTN    H314052   0.753   7.877   5.860  2.6863  0.3881 -1.7856
 1360ACTN    H614053   1.725   8.340   7.078 -1.0069 -0.4466  0.5724
 1360ACTN    C314054   1.780   8.246   7.083 -0.6180 -0.1952  0.9603
 1360ACTN    H414055   1.886   8.264   7.100 -0.8652  1.9566  0.3513
 1360ACTN    H514056   1.738   8.188   7.165  0.9757 -0.9798  1.2322
 1360ACTN    C214057   1.758   8.189   6.944  0.0388  0.7925  0.7400
 1360ACTN    O114058   1.645   8.171   6.906  0.3285  0.2336 -0.6739
 1360ACTN    C114059   1.872   8.143   6.861 -0.4076 -0.0440 -0.2693
 1360ACTN    H114060   1.842   8.112   6.761 -2.3339 -0.9805  0.5824
 1360ACTN    H214061   1.928   8.054   6.894 -0.6294 -0.9321 -2.2035
 1360ACTN    H314062   1.950   8.218   6.845  1.2210 -1.7406 -0.6000
 1361ACTN    H614063   8.428   8.602   7.426 -0.4555 -1.3394 -3.3157
 1361ACTN    C314064   8.460   8.501   7.452  0.3666 -0.2795  0.0675
 1361ACTN    H414065   8.373   8.436   7.462  1.2799 -1.2785  1.5949
 1361ACTN    H514066   8.519   8.474   7.365 -1.8713 -0.2599 -1.5067
 1361ACTN    C214067   8.526   8.504   7.579 -0.0321 -0.5327 -0.2554
 1361ACTN    O114068   8.613   8.421   7.595 -0.2900  0.0449 -0.2461
 1361ACTN    C114069   8.458   8.580   7.691  0.5151 -0.0259  0.0608
 1361ACTN    H114070   8.420   8.513   7.768  1.1247 -0.8239 -0.3298
 1361ACTN    H214071   8.375   8.635   7.646  0.1974  0.0263  0.7073
 1361ACTN    H314072   8.517   8.655   7.744  0.3650  0.6085 -0.6702
 1362ACTN    H614073   0.366   2.253   6.740 -0.1731  1.4305  1.8685
 1362ACTN    C314074   0.430   2.294   6.662 -0.8426  0.1498  0.6215
 1362ACTN    H414075   0.435   2.220   6.581  2.3820  1.1167 -0.1790
 1362ACTN    H514076   0.387   2.386   6.624 -1.4790 -0.9507 -1.4498
 1362ACTN    C214077   0.569   2.314   6.722  0.0576 -0.0071  0.2345
 1362ACTN    O114078   0.636   2.213   6.758 -0.5462 -0.1412 -0.1241
 1362ACTN    C114079   0.620   2.459   6.738  0.4698 -0.0311  0.0021
 1362ACTN    H114080   0.558   2.511   6.811 -0.8969 -0.6218 -0.7112
 1362ACTN    H214081   0.611   2.505   6.639  0.0218 -0.7368 -0.2920
 1362ACTN    H314082   0.725   2.468   6.766  0.8519  1.4862 -1.8641
 1363ACTN    H614083   8.909   7.136   7.477 -0.1829 -2.6484  0.5805
 1363ACTN    C314084   8.955   7.103   7.384  0.8933  0.1392  0.0628
 1363ACTN    H414085   8.883   7.050   7.322  0.3642  0.8768  0.0539
 1363ACTN    H514086   8.984   7.183   7.317  2.9634  0.9946  1.9194
 1363ACTN    C214087   9.066   7.019   7.424  0.5090 -0.3623 -0.1586
 1363ACTN    O114088   9.173   7.072   7.443 -0.0621 -0.2030 -0.5798
 1363ACTN    C114089   9.052   6.871   7.423 -0.6846 -0.1535  0.3459
 1363ACTN    H114090   9.129   6.824   7.361 -1.2084 -0.5850  0.0170
 1363ACTN    H214091   8.957   6.843   7.377  1.0501  0.8672 -4.0694
 1363ACTN    H314092   9.054   6.838   7.527 -2.6680  1.0108  0.7866
 1364ACTN    H614093   3.505   8.399   6.783  2.2804  2.8522 -0.5489
 1364ACTN    C314094   3.566   8.316   6.749 -0.6265 -0.0515  1.0190
 1364ACTN    H414095   3.545   8.314   6.642  0.2399 -0.6263  0.8459
 1364ACTN    H514096   3.670   8.338   6.773 -0.6241 -1.7844  2.7784
 1364ACTN    C214097   3.505   8.200   6.815  0.5457  0.1522  0.1523
 1364ACTN    O114098   3.541   8.169   6.926 -0.4637  0.0177  0.2732
 1364ACTN    C114099   3.381   8.133   6.764  0.4365 -0.1050  0.0155
 1364ACTN    H114100   3.399   8.033   6.726  0.6914  1.6842 -4.8799
 1364ACTN    H214101   3.336   8.191   6.683  1.8373 -1.2823 -1.6322
 1364ACTN    H314102   3.317   8.123   6.852  0.4068  0.7990  0.1072
 1365ACTN    H614103   0.342   5.590   8.416 -0.7151  0.4993  0.1683
 1365ACTN    C314104   0.324   5.566   8.311 -0.2162 -0.6101  0.3364
 1365ACTN    H414105   0.288   5.464   8.297  1.4049 -1.0380 -0.8307
 1365ACTN    H514106   0.253   5.642   8.279 -0.1325 -0.2312  1.0467
 1365ACTN    C214107   0.444   5.574   8.231 -0.2164  0.1546  0.1584
 1365ACTN    O114108   0.429   5.544   8.111 -0.0066  0.5057  0.0834
 1365ACTN    C114109   0.577   5.613   8.295 -0.1561 -0.4365 -0.4583
 1365ACTN    H114110   0.587   5.545   8.380 -1.4489 -0.1185 -0.0349
 1365ACTN    H214111   0.578   5.712   8.340  0.1081 -0.7397  0.2160
 1365ACTN    H314112   0.661   5.608   8.226 -0.1495 -1.3610 -0.3964
 1366ACTN    H614113   3.141   0.541   7.894  2.0216  1.8461  1.8405
 1366ACTN    C314114   3.240   0.504   7.867  0.8295  0.1707 -0.4342
 1366ACTN    H414115   3.307   0.536   7.946 -0.5823 -0.6863  1.1410
 1366ACTN    H514116   3.234   0.395   7.865  1.3619  0.1439 -0.5422
 1366ACTN    C214117   3.280   0.557   7.729 -0.6376  0.9052 -0.1790
 1366ACTN    O114118   3.247   0.482   7.638  0.1587 -0.6341 -0.4681
 1366ACTN    C114119   3.347   0.689   7.710  0.0110 -0.2927 -0.7844
 1366ACTN    H114120   3.268   0.745   7.660 -2.4353 -2.7144  0.2628
 1366ACTN    H214121   3.430   0.687   7.639 -0.4568  0.7959 -1.3917
 1366ACTN    H314122   3.367   0.734   7.807 -0.8631 -1.0043 -0.2660
 1367ACTN    H614123   5.912   8.928   8.902 -0.1945  1.4448 -0.8368
 1367ACTN    C314124   5.804   8.920   8.915  0.1013 -0.6484  0.6506
 1367ACTN    H414125   5.775   9.024   8.935  1.4949 -0.3332  1.0752
 1367ACTN    H514126   5.766   8.888   8.818  0.6561  2.4744 -0.6571
 1367ACTN    C214127   5.752   8.838   9.020  0.6905  0.0661  1.2584
 1367ACTN    O114128   5.661   8.883   9.090 -0.1529  0.0834  0.1601
 1367ACTN    C114129   5.838   8.726   9.067  0.1923  0.7072  0.1613
 1367ACTN    H114130   5.869   8.658   8.988  0.9393  0.6867  0.4723
 1367ACTN    H214131   5.778   8.665   9.135  0.4914  0.5743  0.3073
 1367ACTN    H314132   5.926   8.763   9.120  0.4584 -0.0974  0.2742
 1368ACTN    H614133   0.354   4.153   6.531  0.0351  0.0660  0.0295
 1368ACTN    C314134   0.275   4.157   6.606 -0.0091 -0.1744 -0.0025
 1368ACTN    H414135   0.188   4.207   6.562 -1.2661 -1.6728  0.7703
 1368ACTN    H514136   0.248   4.057   6.637  1.1916 -0.3909  0.3465
 1368ACTN    C214137   0.323   4.229   6.730 -0.2730  0.6290 -0.0221
 1368ACTN    O114138   0.274   4.208   6.837 -0.1860 -0.2766 -0.2021
 1368ACTN    C114139   0.414   4.345   6.715 -0.0751 -0.2882  0.0437
 1368ACTN    H114140   0.374   4.442   6.684 -1.4912 -0.1496  2.2417
 1368ACTN    H214141   0.488   4.316   6.639 -1.1918 -0.2040 -1.0913
 1368ACTN    H314142   0.469   4.364   6.807  1.1132 -1.1068 -0.4844
 1369ACTN    H614143   1.409   1.233   2.421 -1.5755  0.8992  0.3934
 1369ACTN    C314144   1.373   1.135   2.391  0.7070  0.0259  0.4066
 1369ACTN    H414145   1.451   1.092   2.328 -0.8859 -0.2063 -1.4491
 1369ACTN    H514146   1.360   1.067   2.475  1.0747  0.6799  0.9993
 1369ACTN    C214147   1.248   1.147   2.313  0.3609  0.3098 -0.3942
 1369ACTN    O114148   1.152   1.224   2.344 -0.2461  0.4644  0.1600
 1369ACTN    C114149   1.228   1.041   2.210  0.0263 -0.4268 -0.1603
 1369ACTN    H114150   1.230   1.091   2.113 -2.1025  0.7052  0.3431
 1369ACTN    H214151   1.132   0.989   2.206  0.1607 -0.7106  0.2338
 1369ACTN    H314152   1.307   0.966   2.208 -0.6916 -1.2630  1.8021
 1370ACTN    H614153   4.227   7.219   2.194 -0.0806 -0.9536  0.0773
 1370ACTN    C314154   4.126   7.215   2.154 -0.1948 -0.0604  0.2638
 1370ACTN    H414155   4.090   7.114   2.174 -1.0112  0.2166  0.2185
 1370ACTN    H514156   4.052   7.272   2.209 -1.6003 -2.2513  0.7083
 1370ACTN    C214157   4.136   7.254   2.011  0.0581 -0.6207 -0.1822
 1370ACTN    O114158   4.133   7.375   1.969  0.1059  0.0587  0.2174
 1370ACTN    C114159   4.104   7.144   1.917  0.2761 -0.7844  0.5686
 1370ACTN    H114160   4.004   7.104   1.931 -0.4796  0.9365  0.0986
 1370ACTN    H214161   4.176   7.065   1.940  0.1127 -0.3653  2.6402
 1370ACTN    H314162   4.113   7.175   1.813 -0.7350  1.0864  1.0293
 1371ACTN    H614163   1.619   1.362   4.699 -0.2498 -0.6134 -0.0787
 1371ACTN    C314164   1.591   1.389   4.598  0.1052 -0.2589 -0.0818
 1371ACTN    H414165   1.490   1.360   4.566 -1.1938  3.4757  0.3891
 1371ACTN    H514166   1.587   1.498   4.601 -0.5371 -0.2866  0.1029
 1371ACTN    C214167   1.711   1.362   4.509 -0.8102 -0.6134 -0.6346
 1371ACTN    O114168   1.689   1.303   4.398  0.2304 -0.0852 -0.1273
 1371ACTN    C114169   1.852   1.385   4.557 -0.1913  0.5737 -0.1118
 1371ACTN    H114170   1.898   1.297   4.601 -0.3738  0.3142 -0.4393
 1371ACTN    H214171   1.847   1.445   4.648 -3.3907 -1.0375  0.8427
 1371ACTN    H314172   1.924   1.428   4.487 -2.8582  0.2812 -3.1578
 1372ACTN    H614173   4.447   6.671   3.026 -0.8800 -1.0479 -0.7008
 1372ACTN    C314174   4.496   6.573   3.024  0.2479 -0.4979 -0.1267
 1372ACTN    H414175   4.602   6.582   2.999  0.3288 -2.5869 -0.5828
 1372ACTN    H514176   4.493   6.535   3.126 -3.2303  3.2241  1.3109
 1372ACTN    C214177   4.426   6.479   2.927 -0.2596 -0.3994  0.7090
 1372ACTN    O114178   4.455   6.357   2.932 -0.4200 -0.3821  0.2359
 1372ACTN    C114179   4.352   6.538   2.810  0.2671  0.3241  0.0136
 1372ACTN    H114180   4.406   6.503   2.722  0.0851 -0.0392  0.0475
 1372ACTN    H214181   4.361   6.646   2.816 -1.2338  0.4879 -0.4720
 1372ACTN    H314182   4.253   6.494   2.796  0.3404  0.7228 -1.9313
 1373ACTN    H614183   7.373   3.047   0.415 -2.5067  2.0965 -2.0372
 1373ACTN    C314184   7.292   2.981   0.447 -0.2632  0.0148 -0.4730
 1373ACTN    H414185   7.205   3.020   0.394 -2.0045  0.1271  2.3431
 1373ACTN    H514186   7.311   2.879   0.414  0.1485  0.0932 -0.4800
 1373ACTN    C214187   7.266   2.979   0.598  0.3303 -0.4819 -0.0077
 1373ACTN    O114188   7.347   2.930   0.677  0.2133 -0.2667  0.2155
 1373ACTN    C114189   7.134   3.019   0.640  0.3339 -0.4749  0.7111
 1373ACTN    H114190   7.120   3.121   0.603 -0.1442 -0.2635  1.4600
 1373ACTN    H214191   7.127   3.027   0.749 -1.1253 -0.2708  0.6085
 1373ACTN    H314192   7.060   2.945   0.609  0.3871 -0.0982 -0.3351
 1374ACTN    H614193   4.406   3.648   7.741 -0.1536 -1.5589  2.3575
 1374ACTN    C314194   4.505   3.648   7.789  0.6252  0.1413  0.7984
 1374ACTN    H414195   4.508   3.726   7.864 -0.4128  2.5085 -1.5220
 1374ACTN    H514196   4.577   3.668   7.709 -1.3007  1.9954 -0.5452
 1374ACTN    C214197   4.535   3.509   7.848  0.3186  0.0501 -0.8417
 1374ACTN    O114198   4.444   3.425   7.847  0.1047 -0.3264  0.4505
 1374ACTN    C114199   4.666   3.473   7.911 -0.1307 -0.1956 -0.3125
 1374ACTN    H114200   4.660   3.376   7.961 -0.2595 -0.4713 -0.8557
 1374ACTN    H214201   4.702   3.552   7.977 -0.2061  0.1782 -0.7175
 1374ACTN    H314202   4.735   3.460   7.827  1.0756  0.6673  0.5303
 1375ACTN    H614203   8.630   2.309   3.875  0.3707  2.9710  0.9162
 1375ACTN    C314204   8.546   2.342   3.814 -0.5353  0.7374  0.8998
 1375ACTN    H414205   8.452   2.300   3.851 -1.8872  2.4438 -0.5077
 1375ACTN    H514206   8.539   2.450   3.823  0.4980  0.7259  1.9241
 1375ACTN    C214207   8.567   2.297   3.681  0.4041  0.3052  0.1290
 1375ACTN    O114208   8.472   2.266   3.604 -0.2303 -0.1201 -0.4905
 1375ACTN    C114209   8.694   2.346   3.625  0.0946  0.1528 -0.8460
 1375ACTN    H114210   8.684   2.370   3.520 -0.9168 -2.0501 -1.2805
 1375ACTN    H214211   8.775   2.273   3.639 -0.8276 -0.3024  2.5811
 1375ACTN    H314212   8.709   2.445   3.669  2.7984  1.1588 -3.8622
 1376ACTN    H614213   3.201   0.741   1.009 -0.8090 -1.5792 -0.6802
 1376ACTN    C314214   3.180   0.808   0.926 -0.4458 -0.4585  0.1100
 1376ACTN    H414215   3.090   0.857   0.962 -1.9449 -1.9343 -1.5426
 1376ACTN    H514216   3.264   0.878   0.931 -0.0333 -1.0253  1.3004
 1376ACTN    C214217   3.161   0.740   0.793 -0.0602 -0.0416  0.6203
 1376ACTN    O114218   3.053   0.739   0.733  0.2830 -0.2457  0.6861
 1376ACTN    C114219   3.278   0.681   0.725  0.2200 -0.2368  0.1105
 1376ACTN    H114220   3.266   0.582   0.680 -2.2166  0.8566 -1.7213
 1376ACTN    H214221   3.359   0.673   0.798 -1.0943  1.5477  1.8079
 1376ACTN    H314222   3.310   0.743   0.641  2.2015 -0.7771  0.4337
 1377ACTN    H614223   3.094   7.398   4.994 -2.0331  0.1281  0.6217
 1377ACTN    C314224   3.143   7.451   5.075 -0.5744  0.0802 -0.2191
 1377ACTN    H414225   3.192   7.535   5.024 -0.5133  0.0750 -0.1688
 1377ACTN    H514226   3.070   7.486   5.148 -1.0624 -1.6538  0.1311
 1377ACTN    C214227   3.248   7.370   5.139  0.5754 -0.1341  0.7840
 1377ACTN    O114228   3.282   7.387   5.255  1.0923  0.0904  0.3278
 1377ACTN    C114229   3.292   7.243   5.073 -0.5045 -0.2102 -0.1985
 1377ACTN    H114230   3.317   7.246   4.967 -1.2916 -3.7199 -0.5297
 1377ACTN    H214231   3.213   7.170   5.088 -0.0616 -0.2536  2.0448
 1377ACTN    H314232   3.380   7.204   5.125 -0.2886 -1.1564 -1.2588
 1378ACTN    H614233   6.607   1.607   1.211  1.4604  0.2528  1.0849
 1378ACTN    C314234   6.608   1.560   1.112  1.0887  0.2466  1.0831
 1378ACTN    H414235   6.683   1.595   1.041  2.8069 -3.9190  0.7427
 1378ACTN    H514236   6.631   1.454   1.125 -1.4741 -0.3848  0.6182
 1378ACTN    C214237   6.469   1.587   1.063  0.8116  0.3536  0.1596
 1378ACTN    O114238   6.429   1.695   1.010  0.5672  0.8477  0.6613
 1378ACTN    C114239   6.367   1.479   1.075 -0.4685 -0.4453  0.6049
 1378ACTN    H114240   6.323   1.479   1.175  0.4595  0.0153  1.0178
 1378ACTN    H214241   6.411   1.382   1.055 -0.4690 -0.6303  1.4756
 1378ACTN    H314242   6.289   1.495   1.000  0.2075  0.1519  0.0179
 1379ACTN    H614243   6.110   7.329   3.910 -1.8589  0.1725 -0.5144
 1379ACTN    C314244   6.066   7.255   3.976  0.0124 -0.6484 -0.1445
 1379ACTN    H414245   5.960   7.279   3.993 -0.1595 -3.1313  2.7799
 1379ACTN    H514246   6.079   7.161   3.924 -2.3085  0.1662 -2.3100
 1379ACTN    C214247   6.125   7.245   4.114 -0.3827 -0.9761  0.7283
 1379ACTN    O114248   6.165   7.135   4.155  0.5103 -0.1271 -0.5236
 1379ACTN    C114249   6.172   7.371   4.180  0.4696 -0.4058  0.0347
 1379ACTN    H114250   6.179   7.460   4.119 -1.6437 -0.0631  0.2335
 1379ACTN    H214251   6.269   7.362   4.227  0.7254  2.9761  0.2197
 1379ACTN    H314252   6.095   7.390   4.255  0.6301 -0.1030  0.1189
 1380ACTN    H614253   6.608   4.830   5.898 -0.8373 -2.3136 -3.8894
 1380ACTN    C314254   6.535   4.910   5.882  0.4902 -0.0761  0.2847
 1380ACTN    H414255   6.487   4.875   5.790 -0.7167 -0.2168  0.9606
 1380ACTN    H514256   6.456   4.898   5.956  1.6387 -0.0078  1.5362
 1380ACTN    C214257   6.597   5.047   5.870 -0.3884 -0.0108 -0.7726
 1380ACTN    O114258   6.638   5.105   5.971  0.4044 -0.4182 -0.2285
 1380ACTN    C114259   6.584   5.119   5.744  0.2896  0.1938  0.2282
 1380ACTN    H114260   6.547   5.068   5.655 -3.4445  1.5856  0.8611
 1380ACTN    H214261   6.673   5.179   5.727  0.5665  0.1748  1.5720
 1380ACTN    H314262   6.510   5.198   5.762  0.3575 -0.0111  1.4821
 1381ACTN    H614263   1.182   0.887   2.715 -0.5890 -1.8306 -1.0468
 1381ACTN    C314264   1.279   0.850   2.749 -0.4129 -0.4240  0.0068
 1381ACTN    H414265   1.284   0.886   2.852 -2.0413  1.7607 -0.6333
 1381ACTN    H514266   1.368   0.889   2.699 -0.8058 -0.6392 -0.8727
 1381ACTN    C214267   1.263   0.700   2.749 -0.2349 -0.5372 -0.6920
 1381ACTN    O114268   1.150   0.652   2.724 -1.1065  0.0265  0.8788
 1381ACTN    C114269   1.388   0.613   2.754 -0.1077  0.6981 -0.2510
 1381ACTN    H114270   1.360   0.517   2.712 -2.7296  2.1177 -1.9688
 1381ACTN    H214271   1.405   0.604   2.861 -1.0005 -1.1438 -0.2524
 1381ACTN    H314272   1.466   0.664   2.698  1.4278 -0.6775  0.6309
 1382ACTN    H614273   3.140   6.458   3.102 -3.4444 -1.3404  0.8552
 1382ACTN    C314274   3.112   6.537   3.032  0.3262 -0.3698  0.3568
 1382ACTN    H414275   3.182   6.583   2.962 -0.9022  0.3990 -0.3791
 1382ACTN    H514276   3.031   6.493   2.974  0.7074 -1.7915  0.8760
 1382ACTN    C214277   3.045   6.640   3.115 -0.1291  0.2171 -0.1582
 1382ACTN    O114278   3.111   6.689   3.208 -0.0955 -0.4076  0.1634
 1382ACTN    C114279   2.896   6.646   3.116 -0.0076  0.1244 -0.2672
 1382ACTN    H114280   2.846   6.627   3.022  0.1055 -0.3146 -0.2379
 1382ACTN    H214281   2.868   6.747   3.148  1.3648  1.2124 -2.3448
 1382ACTN    H314282   2.861   6.573   3.189 -1.0669  0.5525 -0.3383
 1383ACTN    H614283   7.238   6.914   4.046 -0.2375 -0.7902 -1.1187
 1383ACTN    C314284   7.222   6.809   4.069 -0.5533 -0.5139 -0.0639
 1383ACTN    H414285   7.158   6.801   4.157  1.3329 -1.2216  1.2589
 1383ACTN    H514286   7.170   6.757   3.988 -0.0540 -1.5402  0.2699
 1383ACTN    C214287   7.357   6.748   4.099 -0.5164  0.5308  0.9387
 1383ACTN    O114288   7.398   6.746   4.212 -0.0020  0.4541 -0.3441
 1383ACTN    C114289   7.423   6.662   3.994 -0.4281 -0.0592 -0.0184
 1383ACTN    H114290   7.406   6.695   3.892  3.6119 -0.0319 -0.7970
 1383ACTN    H214291   7.385   6.560   4.003  1.3710 -0.7754 -0.2181
 1383ACTN    H314292   7.531   6.659   4.009 -0.5248  0.6777  0.8438
 1384ACTN    H614293   2.857   8.510   3.235 -0.2556  0.5023  1.6500
 1384ACTN    C314294   2.897   8.411   3.257 -0.1197  0.2132  0.1513
 1384ACTN    H414295   2.922   8.373   3.158  1.2050  0.1225  0.5024
 1384ACTN    H514296   2.989   8.419   3.315  0.2331  1.5801 -0.5678
 1384ACTN    C214297   2.800   8.328   3.338 -0.2344  0.1096  0.5166
 1384ACTN    O114298   2.713   8.264   3.278 -0.4919 -0.0782  0.1408
 1384ACTN    C114299   2.820   8.319   3.481 -0.2708 -0.1007 -0.8011
 1384ACTN    H114300   2.818   8.214   3.511 -0.3879  0.6249  1.9444
 1384ACTN    H214301   2.740   8.354   3.546 -0.5193 -0.8361 -0.7122
 1384ACTN    H314302   2.918   8.356   3.512  0.2799 -1.5580 -0.7529
 1385ACTN    H614303   8.112   7.481   3.957 -1.6624  0.1344 -0.8062
 1385ACTN    C314304   8.098   7.383   4.002  0.4974  0.2922  0.2680
 1385ACTN    H414305   7.991   7.368   3.987  0.9638 -1.7699 -1.2387
 1385ACTN    H514306   8.158   7.311   3.947 -1.3716 -0.5852 -0.6582
 1385ACTN    C214307   8.137   7.383   4.147 -0.0259 -0.8321  0.8814
 1385ACTN    O114308   8.249   7.397   4.182  0.1372 -0.5409 -0.3429
 1385ACTN    C114309   8.036   7.350   4.252  0.0056  0.1349  0.2045
 1385ACTN    H114310   7.987   7.262   4.212  0.3948  0.4435 -0.9784
 1385ACTN    H214311   7.968   7.434   4.268  3.0153  2.1483  3.3469
 1385ACTN    H314312   8.087   7.318   4.343  0.2544 -0.3877 -0.1144
 1386ACTN    H614313   7.588   4.660   4.141  0.3778  0.4893 -0.7557
 1386ACTN    C314314   7.483   4.636   4.158  0.5981 -0.3148 -0.4794
 1386ACTN    H414315   7.474   4.538   4.112  1.5475  0.3783 -2.1978
 1386ACTN    H514316   7.484   4.622   4.266  3.2748  2.2888 -0.0800
 1386ACTN    C214317   7.391   4.736   4.096 -0.0128 -0.6959 -0.4477
 1386ACTN    O114318   7.407   4.779   3.984  0.4596 -0.2575  0.4308
 1386ACTN    C114319   7.272   4.776   4.168  0.0430  0.2472  0.5295
 1386ACTN    H114320   7.281   4.792   4.276 -2.0356 -0.2169  0.8160
 1386ACTN    H214321   7.211   4.687   4.150 -0.2083  0.7610 -1.1522
 1386ACTN    H314322   7.221   4.860   4.122 -0.0015 -0.9690 -1.7184
 1387ACTN    H614323   8.512   1.267   2.492 -1.0852  0.0352  0.8841
 1387ACTN    C314324   8.509   1.358   2.432  0.4279  0.1165  0.9238
 1387ACTN    H414325   8.587   1.426   2.465  3.0219 -2.6544  0.7232
 1387ACTN    H514326   8.535   1.330   2.330 -0.2466 -0.7768  0.9942
 1387ACTN    C214327   8.374   1.417   2.437 -0.5741  0.0658 -0.5954
 1387ACTN    O114328   8.367   1.536   2.456  0.0106 -0.5403 -0.4516
 1387ACTN    C114329   8.260   1.324   2.447 -0.0067 -0.0180  0.1535
 1387ACTN    H114330   8.207   1.320   2.351  0.1735  2.3465 -0.0699
 1387ACTN    H214331   8.194   1.362   2.525  2.9028  1.1948  2.0779
 1387ACTN    H314332   8.292   1.221   2.463  2.8454  0.8857  0.6055
 1388ACTN    H614333   3.968   7.092   1.419 -0.1959  1.1647 -0.9819
 1388ACTN    C314334   4.022   7.045   1.336  0.4766 -0.2079  0.2094
 1388ACTN    H414335   3.948   7.027   1.258 -0.6550  0.8573  1.0119
 1388ACTN    H514336   4.093   7.118   1.296  1.1997 -1.5628 -1.0063
 1388ACTN    C214337   4.095   6.925   1.373 -0.2680  0.2320  0.1265
 1388ACTN    O114338   4.030   6.823   1.402 -0.5057  0.3154 -0.0577
 1388ACTN    C114339   4.247   6.922   1.356 -0.2738 -0.6056 -0.3952
 1388ACTN    H114340   4.287   6.911   1.256 -0.2483 -0.2279 -0.4263
 1388ACTN    H214341   4.294   6.846   1.419  0.1421 -1.0464 -1.2388
 1388ACTN    H314342   4.290   7.010   1.402 -0.5520 -1.3990  1.4586
 1389ACTN    H614343   6.632   0.148   3.212  2.0236  1.6153  0.2035
 1389ACTN    C314344   6.676   0.055   3.176 -0.1620  0.3649  0.6418
 1389ACTN    H414345   6.784   0.067   3.174 -0.0567 -0.6521 -1.7785
 1389ACTN    H514346   6.659  -0.017   3.256  0.1866 -0.1480  0.2613
 1389ACTN    C214347   6.614  -0.008   3.054  0.0048  0.0631  0.0489
 1389ACTN    O114348   6.502  -0.058   3.056 -0.6367 -0.2574  0.2682
 1389ACTN    C114349   6.694  -0.020   2.924 -0.5011  0.5790  0.2280
 1389ACTN    H114350   6.653   0.042   2.844 -1.0998  0.7331  0.6468
 1389ACTN    H214351   6.693  -0.124   2.890  1.0895 -0.1825  2.4088
 1389ACTN    H314352   6.798   0.010   2.933 -0.5453  0.5176  1.0399
 1390ACTN    H614353   6.851   2.488   4.194 -0.3704  0.3484 -0.1328
 1390ACTN    C314354   6.923   2.410   4.219 -0.3519  0.4127  0.0089
 1390ACTN    H414355   6.905   2.384   4.324  2.2197 -0.5680  0.2468
 1390ACTN    H514356   6.911   2.319   4.161 -1.6876  0.7354 -0.2580
 1390ACTN    C214357   7.056   2.469   4.216  0.0787 -0.3368 -0.3104
 1390ACTN    O114358   7.134   2.414   4.144  0.3089  0.5542 -0.0895
 1390ACTN    C114359   7.103   2.570   4.315 -0.7943 -0.0418 -0.4335
 1390ACTN    H114360   7.166   2.641   4.262  1.8474 -1.3087  0.9400
 1390ACTN    H214361   7.161   2.513   4.387  0.3956  0.8275 -0.6947
 1390ACTN    H314362   7.021   2.628   4.357 -1.0329  2.0165 -3.5614
 1391ACTN    H614363   6.916   0.527   5.989  1.6768  1.9297  0.4054
 1391ACTN    C314364   6.952   0.501   5.890  0.2542 -0.0106  0.3647
 1391ACTN    H414365   6.873   0.443   5.841 -1.1437  2.1801 -0.0643
 1391ACTN    H514366   6.972   0.586   5.825  0.6110 -1.1909 -1.0992
 1391ACTN    C214367   7.086   0.432   5.895 -0.0306 -0.0585  0.1278
 1391ACTN    O114368   7.094   0.321   5.857  0.4684  0.3116  0.0126
 1391ACTN    C114369   7.203   0.490   5.957  0.9017  0.0290  0.0278
 1391ACTN    H114370   7.159   0.570   6.016 -0.3902 -1.9265  1.8104
 1391ACTN    H214371   7.276   0.538   5.892  0.5925  2.6138  1.5259
 1391ACTN    H314372   7.255   0.424   6.027  0.3880 -0.1901  0.2019
 1392ACTN    H614373   5.365   3.241   2.566 -1.1122  0.1795 -1.6574
 1392ACTN    C314374   5.461   3.210   2.524 -0.1346  0.7618  0.0771
 1392ACTN    H414375   5.461   3.102   2.513  0.3387  0.8289 -0.5928
 1392ACTN    H514376   5.465   3.246   2.421 -0.2645 -2.7846 -1.2081
 1392ACTN    C214377   5.578   3.278   2.595  0.2975 -0.2044  0.5511
 1392ACTN    O114378   5.558   3.344   2.700 -0.0514 -0.1287  0.6160
 1392ACTN    C114379   5.717   3.255   2.531 -0.0483  0.3951  0.4179
 1392ACTN    H114380   5.718   3.181   2.451  0.0835 -0.0432  0.8250
 1392ACTN    H214381   5.783   3.221   2.610  0.7481  1.8307  0.3939
 1392ACTN    H314382   5.761   3.348   2.493 -0.2242  0.5957  0.7030
 1393ACTN    H614383   8.022   8.208   8.192 -4.5990  2.6741 -1.2988
 1393ACTN    C314384   8.000   8.134   8.115 -0.7941  0.5445 -0.4642
 1393ACTN    H414385   7.891   8.124   8.107 -0.7248  0.3988 -1.1982
 1393ACTN    H514386   8.018   8.184   8.020 -0.0699  0.3088 -0.4516
 1393ACTN    C214387   8.077   8.006   8.115 -0.0651  0.6220 -0.1535
 1393ACTN    O114388   8.053   7.919   8.200  0.3717  0.4401  0.6569
 1393ACTN    C114389   8.202   8.013   8.033 -0.0091 -0.0476  0.2051
 1393ACTN    H114390   8.178   8.046   7.932  1.8529  1.2696  0.1837
 1393ACTN    H214391   8.252   7.916   8.030  0.8366  0.4016 -0.5743
 1393ACTN    H314392   8.280   8.080   8.068  1.1083 -0.5505 -1.2599
 1394ACTN    H614393   0.354   2.479   5.900 -2.9672  0.4582 -0.2229
 1394ACTN    C314394   0.337   2.456   5.795  0.0817 -0.2341 -0.5987
 1394ACTN    H414395   0.433   2.446   5.743  0.7373  1.1281  0.3271
 1394ACTN    H514396   0.284   2.360   5.799 -1.1477  0.5264  2.6426
 1394ACTN    C214397   0.250   2.558   5.716 -0.2699 -0.8508 -0.4633
 1394ACTN    O114398   0.152   2.521   5.644  0.1120 -0.3236 -0.3051
 1394ACTN    C114399   0.298   2.699   5.706  0.0181 -0.6074 -0.0067
 1394ACTN    H114400   0.340   2.717   5.806 -2.5390 -3.9538  1.7999
 1394ACTN    H214401   0.214   2.768   5.701 -0.8502 -1.4884  1.8190
 1394ACTN    H314402   0.363   2.716   5.620  0.6330  2.3977  0.9937
 1395ACTN    H614403   8.954   0.885   2.458 -1.4383 -2.6502  0.1616
 1395ACTN    C314404   8.893   0.970   2.487  0.6665 -0.9316 -0.3260
 1395ACTN    H414405   8.788   0.948   2.469  0.5212 -0.5953  0.1069
 1395ACTN    H514406   8.912   0.974   2.594  0.2736 -1.8528 -0.2212
 1395ACTN    C214407   8.937   1.090   2.410  0.2435 -0.3755  0.6428
 1395ACTN    O114408   8.960   1.078   2.289 -0.4586  0.2851 -0.2532
 1395ACTN    C114409   8.907   1.231   2.465  0.3880 -0.0361 -0.1027
 1395ACTN    H114410   8.937   1.312   2.399  1.5910 -1.6200 -1.5249
 1395ACTN    H214411   8.953   1.242   2.564  0.1239  2.3263 -0.2124
 1395ACTN    H314412   8.799   1.247   2.466  0.0237 -2.3406 -0.1326
 1396ACTN    H614413   7.894   7.117   2.435  1.4431  0.0142 -1.6002
 1396ACTN    C314414   7.944   7.022   2.452 -0.3226 -0.6024  0.3259
 1396ACTN    H414415   7.909   6.945   2.384  0.7395 -2.3142  1.6824
 1396ACTN    H514416   8.048   7.028   2.419 -0.4966  1.9836  0.1630
 1396ACTN    C214417   7.930   6.973   2.591  0.3445 -0.4906  0.4617
 1396ACTN    O114418   8.000   6.874   2.624 -0.2105 -0.1711  0.1041
 1396ACTN    C114419   7.834   7.036   2.683  0.2836  0.0867 -0.8968
 1396ACTN    H114420   7.780   6.960   2.739  0.3437  0.7882  0.1198
 1396ACTN    H214421   7.757   7.100   2.641  0.7399  0.1265 -1.6861
 1396ACTN    H314422   7.897   7.086   2.756  1.8330 -2.5991 -0.3176
 1397ACTN    H614423   7.909   7.012   4.293  0.5098  0.0172  1.4566
 1397ACTN    C314424   7.848   6.926   4.318 -0.1407  0.3011  0.8638
 1397ACTN    H414425   7.912   6.859   4.375  0.7426 -1.2442 -1.8691
 1397ACTN    H514426   7.766   6.965   4.379  0.6514  1.7853  1.0173
 1397ACTN    C214427   7.802   6.868   4.187 -0.1938 -0.9152  0.1302
 1397ACTN    O114428   7.723   6.935   4.120 -0.4546 -0.3930  0.3554
 1397ACTN    C114429   7.863   6.749   4.133 -0.5745 -0.7422 -0.0009
 1397ACTN    H114430   7.947   6.717   4.196 -0.5171  0.2071  0.4238
 1397ACTN    H214431   7.906   6.769   4.035 -0.6758  1.7628  0.4274
 1397ACTN    H314432   7.796   6.665   4.117 -0.7353 -0.8707  1.2589
 1398ACTN    H614433   8.283   8.224   4.488 -1.4201  2.9071 -0.8331
 1398ACTN    C314434   8.272   8.252   4.593  0.1645 -0.0445  0.1848
 1398ACTN    H414435   8.338   8.194   4.658  1.0500  2.1870  1.3232
 1398ACTN    H514436   8.308   8.354   4.602  0.1120  0.1356 -1.4921
 1398ACTN    C214437   8.127   8.233   4.623  0.0861  0.1869  0.5547
 1398ACTN    O114438   8.040   8.186   4.551 -0.5808 -0.1506  0.5732
 1398ACTN    C114439   8.086   8.293   4.756  0.5023  0.1286 -0.0969
 1398ACTN    H114440   7.979   8.315   4.745  0.1007 -0.3749  2.4463
 1398ACTN    H214441   8.146   8.380   4.782  0.8858 -0.5874  1.4854
 1398ACTN    H314442   8.092   8.217   4.834  1.9894  1.7970  1.4688
 1399ACTN    H614443   5.103   1.855   5.679 -1.9110 -0.7920  0.1144
 1399ACTN    C314444   5.092   1.958   5.712  0.6341 -0.3578 -0.2924
 1399ACTN    H414445   5.164   2.011   5.650  0.9203 -0.7255 -0.2726
 1399ACTN    H514446   4.994   2.006   5.699  0.5472 -0.2609  0.6727
 1399ACTN    C214447   5.125   1.965   5.851 -0.6617  0.0178 -0.6135
 1399ACTN    O114448   5.069   1.899   5.938  0.4302 -0.6034  0.7961
 1399ACTN    C114449   5.256   2.032   5.883  0.4211 -0.4802 -0.1897
 1399ACTN    H114450   5.227   2.137   5.877 -1.0256 -0.8547 -0.0841
 1399ACTN    H214451   5.329   2.017   5.804 -0.7475  4.3757 -2.3406
 1399ACTN    H314452   5.285   2.008   5.986 -0.8298  0.0567  0.2991
 1400ACTN    H614453   0.791   0.566   4.650  1.9025  0.5542  3.0260
 1400ACTN    C314454   0.714   0.628   4.697  0.2135  0.4706  0.4841
 1400ACTN    H414455   0.675   0.693   4.619  1.8200  0.0765 -0.6735
 1400ACTN    H514456   0.642   0.571   4.755  0.7498 -1.3887 -0.6252
 1400ACTN    C214457   0.800   0.703   4.795  0.3307  0.0875 -0.1804
 1400ACTN    O114458   0.747   0.800   4.857 -0.0321 -0.4730  0.1268
 1400ACTN    C114459   0.954   0.686   4.801  0.6459 -0.3337 -0.0114
 1400ACTN    H114460   0.988   0.616   4.724  1.9200  0.6722 -0.3791
 1400ACTN    H214461   0.982   0.646   4.898  3.0803 -0.5431 -0.7694
 1400ACTN    H314462   1.007   0.779   4.779 -0.8381  0.9537  1.7394
 1401ACTN    H614463   0.050   0.596   8.458  2.3543  0.1953 -1.4628
 1401ACTN    C314464  -0.001   0.647   8.377 -0.4960  0.1878  0.2720
 1401ACTN    H414465  -0.059   0.725   8.425 -0.8475  0.7197 -1.0051
 1401ACTN    H514466   0.063   0.693   8.302  0.7287 -0.0503  1.1650
 1401ACTN    C214467  -0.095   0.556   8.297 -0.9225 -0.2606 -0.7613
 1401ACTN    O114468  -0.079   0.544   8.179  0.6275  0.1055  0.0588
 1401ACTN    C114469  -0.184   0.458   8.372  0.2470  0.9057  0.2805
 1401ACTN    H114470  -0.208   0.378   8.301  0.2193  1.7732 -0.7042
 1401ACTN    H214471  -0.275   0.513   8.399 -0.6330  0.2784 -1.3134
 1401ACTN    H314472  -0.133   0.420   8.460  2.3848  1.7888 -0.5576
 1402ACTN    H614473   8.048   8.743   8.886 -0.3619  0.7722  0.5539
 1402ACTN    C314474   7.946   8.710   8.870  0.1035 -0.2238 -0.4737
 1402ACTN    H414475   7.934   8.667   8.771 -0.8472  2.9201 -1.8078
 1402ACTN    H514476   7.916   8.636   8.945  1.3667  0.5563  0.8335
 1402ACTN    C214477   7.858   8.823   8.865  0.2674 -0.4044  0.4234
 1402ACTN    O114478   7.893   8.933   8.909  0.1180 -0.4077  0.0828
 1402ACTN    C114479   7.727   8.828   8.784 -0.3651  0.4402 -0.3571
 1402ACTN    H114480   7.683   8.927   8.787  1.2419  1.1694 -0.7129
 1402ACTN    H214481   7.654   8.755   8.820  0.9340 -1.0173 -0.6156
 1402ACTN    H314482   7.747   8.810   8.679 -1.6190  1.4110 -0.7662
 1403ACTN    H614483   2.137   2.415   5.261 -0.1607 -0.4669 -1.3200
 1403ACTN    C314484   2.207   2.332   5.258  0.2102 -0.2406  0.3414
 1403ACTN    H414485   2.309   2.368   5.274 -0.3371  2.2484 -1.4017
 1403ACTN    H514486   2.193   2.288   5.159 -3.3677 -3.3104  2.1074
 1403ACTN    C214487   2.167   2.236   5.369  0.3070  0.2116  0.0585
 1403ACTN    O114488   2.226   2.232   5.476  0.1030  0.4063  0.0221
 1403ACTN    C114489   2.055   2.132   5.352  0.1582 -0.0985 -0.6416
 1403ACTN    H114490   1.957   2.163   5.316  0.6793  0.6653 -1.4130
 1403ACTN    H214491   2.034   2.080   5.446  0.8943  1.3589  0.3423
 1403ACTN    H314492   2.093   2.054   5.285  0.5953  0.7055 -1.3276
 1404ACTN    H614493   1.481   6.780   6.840  2.5437  1.0725  1.7632
 1404ACTN    C314494   1.553   6.775   6.758 -0.3631 -0.1590 -0.8430
 1404ACTN    H414495   1.488   6.767   6.672  1.3670 -0.7859 -2.1204
 1404ACTN    H514496   1.610   6.682   6.769 -1.1775 -0.3775  1.9468
 1404ACTN    C214497   1.623   6.906   6.759 -0.0474  0.6429 -0.4827
 1404ACTN    O114498   1.740   6.910   6.786 -0.7348  0.1826 -0.2883
 1404ACTN    C114499   1.547   7.032   6.747 -0.8323  0.4623 -0.4481
 1404ACTN    H114500   1.447   7.023   6.705 -1.2642  3.1085 -0.0556
 1404ACTN    H214501   1.598   7.098   6.676 -2.2094  0.0426 -1.8524
 1404ACTN    H314502   1.556   7.090   6.839 -1.5437 -0.1545  0.0084
 1405ACTN    H614503   6.672   2.638   5.774 -0.3894 -2.5143 -0.0999
 1405ACTN    C314504   6.761   2.641   5.837 -0.7706 -0.4397  0.3754
 1405ACTN    H414505   6.793   2.537   5.842 -1.2979 -0.6185  0.1090
 1405ACTN    H514506   6.736   2.681   5.935  0.3627 -2.3590  1.4667
 1405ACTN    C214507   6.865   2.728   5.779  0.2657  0.3322 -0.1593
 1405ACTN    O114508   6.833   2.811   5.701  0.4114 -0.6203 -0.3744
 1405ACTN    C114509   7.004   2.735   5.826  0.2999  0.4382 -0.5449
 1405ACTN    H114510   7.025   2.647   5.887 -2.0860 -0.6584 -1.2444
 1405ACTN    H214511   7.026   2.824   5.886  1.5935  0.2338 -0.6980
 1405ACTN    H314512   7.076   2.735   5.744 -0.1035  2.0570 -0.9135
 1406ACTN    H614513   2.091   5.469   8.473 -0.0637 -1.4015  0.0996
 1406ACTN    C314514   2.032   5.438   8.559 -0.8566  0.5328  0.2786
 1406ACTN    H414515   2.040   5.329   8.564 -0.5530  0.5525  0.2020
 1406ACTN    H514516   2.084   5.487   8.641 -0.0514  1.1879 -0.6105
 1406ACTN    C214517   1.886   5.483   8.544 -0.5119 -0.4308 -0.9775
 1406ACTN    O114518   1.869   5.575   8.464  0.2705 -0.1046 -0.1578
 1406ACTN    C114519   1.780   5.430   8.642 -0.3702 -0.1235  0.1681
 1406ACTN    H114520   1.787   5.480   8.739  0.1054 -0.0133  0.0789
 1406ACTN    H214521   1.793   5.324   8.662  0.2318 -0.3060 -1.1455
 1406ACTN    H314522   1.679   5.432   8.603 -0.2742 -1.5371 -0.1655
 1407ACTN    H614523   0.917   6.098   3.015 -0.5639 -1.0135 -1.2522
 1407ACTN    C314524   1.001   6.047   3.063 -0.2475  0.3179 -0.3499
 1407ACTN    H414525   1.087   6.108   3.036  0.5129 -0.4803  0.2463
 1407ACTN    H514526   0.987   6.037   3.170 -1.5870 -1.9852 -0.7017
 1407ACTN    C214527   1.008   5.919   2.983 -0.4138  0.4292  0.0420
 1407ACTN    O114528   1.111   5.857   2.958 -0.2671 -0.1027  0.3425
 1407ACTN    C114529   0.881   5.853   2.958  0.0463 -0.7206  0.8074
 1407ACTN    H114530   0.861   5.846   2.851  0.9487  2.0268  0.4124
 1407ACTN    H214531   0.798   5.905   3.005  2.9679  3.0472  2.0498
 1407ACTN    H314532   0.888   5.752   2.999 -1.0207 -1.3936 -0.6215
 1408ACTN    H614533   8.121   8.370   0.416 -1.0375  1.4833 -2.0331
 1408ACTN    C314534   8.018   8.345   0.441 -0.1082 -0.4196  0.0561
 1408ACTN    H414535   7.998   8.390   0.538  2.0033 -0.2987  0.4590
 1408ACTN    H514536   7.966   8.406   0.367 -0.4280  0.5223  1.0410
 1408ACTN    C214537   7.982   8.195   0.422 -0.3356 -0.0477  0.4962
 1408ACTN    O114538   8.029   8.140   0.320 -0.1387 -0.2121  0.0725
 1408ACTN    C114539   7.929   8.111   0.529 -0.2474  0.1913  0.1926
 1408ACTN    H114540   7.896   8.177   0.609 -0.9171 -1.4294  1.2776
 1408ACTN    H214541   7.998   8.041   0.576 -2.2172 -2.2655 -0.4633
 1408ACTN    H314542   7.848   8.044   0.500  1.0559 -2.1727  1.8302
 1409ACTN    H614543   4.141   8.763   3.060 -0.5918 -0.6351  0.6413
 1409ACTN    C314544   4.202   8.844   3.101  0.0552 -0.3356 -0.8903
 1409ACTN    H414545   4.265   8.891   3.026  2.7894 -2.8630 -0.2561
 1409ACTN    H514546   4.142   8.929   3.134  0.8743  0.4545 -1.3955
 1409ACTN    C214547   4.303   8.793   3.200 -0.8777  0.5688 -0.3145
 1409ACTN    O114548   4.298   8.831   3.319 -0.5228  0.2783  0.3027
 1409ACTN    C114549   4.417   8.697   3.155 -0.0479  0.1636  0.1154
 1409ACTN    H114550   4.473   8.661   3.242 -1.9122  0.6498  1.5537
 1409ACTN    H214551   4.478   8.758   3.089 -1.4367 -1.3741 -2.6917
 1409ACTN    H314552   4.368   8.614   3.103 -0.0709  0.6070 -0.5741
 1410ACTN    H614553   5.354   4.758   2.996 -0.3505 -0.4126  0.0001
 1410ACTN    C314554   5.458   4.758   3.030 -0.2520  0.3634 -0.2898
 1410ACTN    H414555   5.522   4.700   2.965 -0.6554  0.4176 -0.7352
 1410ACTN    H514556   5.487   4.863   3.030 -1.6839  0.7912  0.7766
 1410ACTN    C214557   5.459   4.693   3.161  0.1402 -0.2803 -0.2800
 1410ACTN    O114558   5.535   4.728   3.252  0.2578  0.5879 -0.2631
 1410ACTN    C114559   5.350   4.584   3.178  0.1864 -1.1154  0.0355
 1410ACTN    H114560   5.392   4.512   3.248 -2.0989 -2.1303  0.4172
 1410ACTN    H214561   5.331   4.541   3.079  2.5346  0.2454 -1.0399
 1410ACTN    H314562   5.255   4.620   3.217  0.7986 -0.2923  0.7664
 1411ACTN    H614563   2.810   6.240   2.134 -0.2939 -0.6366  2.4106
 1411ACTN    C314564   2.723   6.304   2.118  0.1042 -0.7335 -0.3602
 1411ACTN    H414565   2.646   6.257   2.178  0.9493 -0.7947  0.6943
 1411ACTN    H514566   2.736   6.407   2.152 -1.5319 -0.7184  0.2589
 1411ACTN    C214567   2.680   6.318   1.973 -0.3371 -0.4759 -0.6079
 1411ACTN    O114568   2.753   6.386   1.899 -0.1492 -0.0263  0.8350
 1411ACTN    C114569   2.582   6.214   1.926 -0.0462  1.0433 -0.0236
 1411ACTN    H114570   2.632   6.136   1.869 -1.9403  0.7024 -1.2485
 1411ACTN    H214571   2.508   6.258   1.858  0.8286  0.4126 -1.4103
 1411ACTN    H314572   2.528   6.184   2.015  0.0665  0.5920 -0.1072
 1412ACTN    H614573   8.718   0.225   5.912  2.3905  1.0549  0.4716
 1412ACTN    C314574   8.773   0.131   5.912  0.4675 -0.0980  0.0662
 1412ACTN    H414575   8.772   0.082   6.009  0.5353  0.0134  0.1229
 1412ACTN    H514576   8.719   0.062   5.847  0.4202  0.5215 -0.5567
 1412ACTN    C214577   8.920   0.158   5.872  0.3602  0.2385 -0.7180
 1412ACTN    O114578   8.967   0.084   5.785 -0.2744 -0.3637 -0.1612
 1412ACTN    C114579   9.006   0.256   5.939 -0.5293 -0.3287  0.9647
 1412ACTN    H114580   9.012   0.345   5.877  2.6236 -0.0607  1.5792
 1412ACTN    H214581   9.104   0.213   5.961 -0.7133 -1.0728  0.3497
 1412ACTN    H314582   8.966   0.287   6.036 -0.9226  1.9783  0.0900
 1413ACTN    H614583   7.678   5.635   1.893  1.2443 -2.5104  0.8301
 1413ACTN    C314584   7.748   5.604   1.815  0.7751 -0.0216 -0.6220
 1413ACTN    H414585   7.702   5.637   1.721  1.7695 -0.3410 -1.2289
 1413ACTN    H514586   7.850   5.643   1.816  1.5672 -2.0730  1.0136
 1413ACTN    C214587   7.765   5.459   1.795  0.1434 -0.3997  0.8291
 1413ACTN    O114588   7.692   5.381   1.860 -0.4562 -0.0992  0.0476
 1413ACTN    C114589   7.854   5.406   1.683 -0.5975  0.7548 -0.7508
 1413ACTN    H114590   7.824   5.460   1.593  0.2961  1.1882 -0.7964
 1413ACTN    H214591   7.841   5.299   1.667  1.5859  0.2045  0.9370
 1413ACTN    H314592   7.961   5.421   1.696 -0.5508 -1.4069  1.6785
 1414ACTN    H614593   6.710   7.077   3.397 -0.2269 -1.2341 -1.8935
 1414ACTN    C314594   6.810   7.110   3.366  0.1131  0.1801  0.5874
 1414ACTN    H414595   6.824   7.033   3.290 -0.1784 -1.2163  1.9208
 1414ACTN    H514596   6.810   7.205   3.313  1.4848  0.4693  1.1154
 1414ACTN    C214597   6.920   7.112   3.467  0.2463 -0.5390 -0.2649
 1414ACTN    O114598   6.907   7.154   3.581  0.4926 -0.7387  0.0153
 1414ACTN    C114599   7.048   7.061   3.430  0.0844  0.3107 -0.3662
 1414ACTN    H114600   7.060   6.955   3.452 -1.9858  0.1652  0.1464
 1414ACTN    H214601   7.134   7.111   3.475 -0.5514  0.8476  0.2677
 1414ACTN    H314602   7.068   7.065   3.323  1.3130 -1.4902 -0.2255
 1415ACTN    H614603   7.582   8.217   4.965  0.7587  0.2606 -0.2535
 1415ACTN    C314604   7.613   8.224   5.070 -0.4970  0.1027  0.1345
 1415ACTN    H414605   7.548   8.292   5.124 -0.9441 -0.8831  0.8484
 1415ACTN    H514606   7.596   8.123   5.109 -1.5995  1.3584  2.9793
 1415ACTN    C214607   7.760   8.259   5.082 -0.0925 -0.0426  0.5424
 1415ACTN    O114608   7.790   8.361   5.019 -0.6283  0.4964 -0.4271
 1415ACTN    C114609   7.873   8.174   5.124  0.9098 -0.0479 -0.3204
 1415ACTN    H114610   7.831   8.084   5.169  0.3442 -0.0747 -0.8992
 1415ACTN    H214611   7.924   8.224   5.206 -0.0312  0.4234 -0.0215
 1415ACTN    H314612   7.946   8.145   5.048  1.6636 -0.0745  0.4139
 1416ACTN    H614613   1.132   8.407   4.169  1.5295 -1.0686 -1.7368
 1416ACTN    C314614   1.073   8.427   4.080 -1.4216 -0.5285  0.2427
 1416ACTN    H414615   1.137   8.399   3.996  1.0719  0.2155  1.8596
 1416ACTN    H514616   0.985   8.363   4.069 -2.0974  0.6716 -1.7196
 1416ACTN    C214617   1.027   8.569   4.069  0.1243 -0.0579 -0.0546
 1416ACTN    O114618   1.103   8.659   4.101  0.3104  0.4147  0.8060
 1416ACTN    C114619   0.880   8.608   4.057 -0.2745 -0.6413  0.4043
 1416ACTN    H114620   0.869   8.676   3.973 -0.3011 -0.1462  0.8083
 1416ACTN    H214621   0.846   8.662   4.145 -0.8062  2.1217 -1.4458
 1416ACTN    H314622   0.820   8.518   4.043  0.0998 -0.8327  0.0280
 1417ACTN    H614623   5.872   4.379   2.785  3.5343 -0.6475 -2.7825
 1417ACTN    C314624   5.926   4.468   2.818  0.2290  0.2370  0.5889
 1417ACTN    H414625   6.034   4.451   2.812 -0.1848 -2.7507  0.4843
 1417ACTN    H514626   5.897   4.552   2.756  2.4578 -0.2901 -1.2789
 1417ACTN    C214627   5.905   4.495   2.966 -0.3050  0.0046 -0.3838
 1417ACTN    O114628   5.827   4.586   3.002 -1.1715 -0.1989 -0.2447
 1417ACTN    C114629   5.928   4.377   3.060 -0.3196 -0.4254 -0.2791
 1417ACTN    H114630   5.993   4.310   3.003  1.3039 -0.4924  1.5733
 1417ACTN    H214631   5.845   4.322   3.102 -1.1931  0.2318 -1.1267
 1417ACTN    H314632   5.992   4.417   3.139 -0.6440 -0.2734 -0.0950
 1418ACTN    H614633   5.492   2.659   7.451 -0.6989  2.3043  0.5389
 1418ACTN    C314634   5.404   2.662   7.387 -0.5247 -0.2875  0.1578
 1418ACTN    H414635   5.323   2.599   7.424 -1.4812 -1.0433 -3.0404
 1418ACTN    H514636   5.428   2.627   7.286  0.1537 -0.3141  0.3298
 1418ACTN    C214637   5.353   2.807   7.371  0.0947  0.3946  0.5281
 1418ACTN    O114638   5.234   2.834   7.402 -0.2304  0.5950 -0.2928
 1418ACTN    C114639   5.449   2.909   7.371  0.4647 -0.5892 -0.5325
 1418ACTN    H114640   5.523   2.885   7.295 -1.3813 -1.4612 -2.0810
 1418ACTN    H214641   5.489   2.915   7.473 -0.5666  0.1357 -0.1648
 1418ACTN    H314642   5.407   3.006   7.347 -2.1862 -0.7133  3.1142
 1419ACTN    H614643   7.316   7.388   4.537  2.5629  0.2180 -0.1883
 1419ACTN    C314644   7.331   7.313   4.615  0.4911 -0.0252  0.0194
 1419ACTN    H414645   7.270   7.228   4.587 -0.4394 -0.0282  2.0117
 1419ACTN    H514646   7.437   7.287   4.622  0.7321  1.1606  1.2199
 1419ACTN    C214647   7.297   7.368   4.750  0.4868 -0.2031  0.1432
 1419ACTN    O114648   7.282   7.296   4.849 -0.2069 -0.3503  0.2585
 1419ACTN    C114649   7.293   7.512   4.772  0.9332 -1.1768 -1.1385
 1419ACTN    H114650   7.365   7.536   4.849 -0.3573  0.0232 -0.2924
 1419ACTN    H214651   7.194   7.544   4.804  0.0999 -3.6737 -1.0739
 1419ACTN    H314652   7.329   7.560   4.681  2.6149  0.7607  0.4952
 1420ACTN    H614653   2.925   4.415   4.705 -0.2341  1.4509  0.9181
 1420ACTN    C314654   2.935   4.502   4.639  1.1333  0.4313 -0.2454
 1420ACTN    H414655   3.038   4.505   4.603 -0.4054 -0.0945 -4.9905
 1420ACTN    H514656   2.865   4.492   4.557  0.8503 -0.8772  0.1391
 1420ACTN    C214657   2.909   4.629   4.718 -0.0190  0.2502 -0.0863
 1420ACTN    O114658   2.796   4.680   4.713 -0.5804  0.5596  0.0695
 1420ACTN    C114659   3.024   4.697   4.788 -0.0347  0.4282  0.5899
 1420ACTN    H114660   3.035   4.675   4.894  1.4088  0.4185  0.4606
 1420ACTN    H214661   3.011   4.804   4.776  1.1507  0.7014  1.5297
 1420ACTN    H314662   3.118   4.680   4.735 -0.9610 -2.2329 -0.3184
 1421ACTN    H614663   0.242   6.795   3.833  0.0073 -2.2809 -1.4795
 1421ACTN    C314664   0.181   6.767   3.919  0.8296 -0.4588 -0.2690
 1421ACTN    H414665   0.151   6.664   3.902  0.9758 -0.6472  0.6179
 1421ACTN    H514666   0.240   6.765   4.010 -1.4316 -1.2065  1.2360
 1421ACTN    C214667   0.059   6.854   3.942 -0.9051 -0.5597 -0.4740
 1421ACTN    O114668  -0.021   6.888   3.850 -0.6337  0.4192 -0.0748
 1421ACTN    C114669   0.039   6.909   4.076  0.6643 -0.1612  0.0531
 1421ACTN    H114670   0.107   6.992   4.096 -0.2813  0.8231 -0.7525
 1421ACTN    H214671   0.039   6.839   4.159  0.2600 -0.4058 -0.1505
 1421ACTN    H314672  -0.054   6.964   4.085  0.5087 -0.5868  1.0373
 1422ACTN    H614673   6.245   0.154   5.518  0.1284 -3.4246  3.1232
 1422ACTN    C314674   6.320   0.212   5.572  0.3787 -0.2156 -0.3877
 1422ACTN    H414675   6.342   0.301   5.514  1.5350  0.7074  1.3975
 1422ACTN    H514676   6.267   0.240   5.663 -0.5906 -1.1715 -0.6318
 1422ACTN    C214677   6.447   0.143   5.617  0.3279  0.0846 -0.1339
 1422ACTN    O114678   6.435   0.025   5.622  0.4561 -0.0891 -0.1475
 1422ACTN    C114679   6.539   0.204   5.709  0.9462  0.0945 -0.4054
 1422ACTN    H114680   6.567   0.298   5.661 -1.2911  1.9843  1.8415
 1422ACTN    H214681   6.624   0.141   5.736 -0.2543 -0.5243  2.0725
 1422ACTN    H314682   6.483   0.221   5.801  0.2111 -3.5104 -0.0971
 1423ACTN    H614683   1.094   2.242   5.119 -0.8412 -0.1538 -1.6899
 1423ACTN    C314684   1.000   2.296   5.125 -0.7610 -0.1254 -0.4642
 1423ACTN    H414685   1.013   2.396   5.166 -2.2055  0.1291 -0.5992
 1423ACTN    H514686   0.979   2.319   5.020 -1.2540  2.2312  0.1170
 1423ACTN    C214687   0.887   2.212   5.170 -0.4608  0.1349  0.5652
 1423ACTN    O114688   0.849   2.119   5.095  0.1344 -0.0534  0.1480
 1423ACTN    C114689   0.824   2.242   5.307 -0.3490 -0.0518  0.1764
 1423ACTN    H114690   0.767   2.334   5.292 -0.2106 -0.3805 -2.7441
 1423ACTN    H214691   0.901   2.257   5.382  0.9551  1.4921 -1.4118
 1423ACTN    H314692   0.765   2.158   5.342  1.0973 -1.2058 -0.1025
 1424ACTN    H614693   8.314   2.522   5.167 -2.8769  0.0209  0.8452
 1424ACTN    C314694   8.295   2.467   5.075  0.1480 -0.2988  0.3511
 1424ACTN    H414695   8.345   2.371   5.086 -1.2175 -1.0236  0.3528
 1424ACTN    H514696   8.187   2.453   5.066  0.2335  0.7713 -3.3202
 1424ACTN    C214697   8.342   2.540   4.952 -0.3564 -0.6861  0.4282
 1424ACTN    O114698   8.335   2.488   4.844  0.2711 -0.4346  0.0197
 1424ACTN    C114699   8.397   2.681   4.957  0.5429  0.1604  0.2432
 1424ACTN    H114700   8.392   2.727   5.055  1.3702  0.0556  0.3420
 1424ACTN    H214701   8.357   2.750   4.882 -0.5353 -1.0519 -0.3239
 1424ACTN    H314702   8.503   2.663   4.939 -0.0129 -3.1863  0.0626
 1425ACTN    H614703   2.259   3.170   0.195 -0.1585 -1.3468 -0.9997
 1425ACTN    C314704   2.165   3.124   0.225 -0.0262 -0.7459  0.3541
 1425ACTN    H414705   2.180   3.031   0.279 -0.4500 -2.2191 -2.0029
 1425ACTN    H514706   2.100   3.198   0.273  1.5999  0.8050  0.2348
 1425ACTN    C214707   2.098   3.064   0.104  0.8088 -0.2736 -0.2614
 1425ACTN    O114708   1.978   3.091   0.089 -0.6640 -0.1220  0.4984
 1425ACTN    C114709   2.158   2.955   0.030 -0.2440 -0.2286  0.5512
 1425ACTN    H114710   2.085   2.876   0.047  0.8063 -0.9440  1.7881
 1425ACTN    H214711   2.254   2.921   0.069 -0.5131 -2.6022 -0.7544
 1425ACTN    H314712   2.170   2.985  -0.074 -0.8779  3.3490  1.4294
 1426ACTN    H614713   5.892   8.217   2.804  0.3615  0.4533 -0.2238
 1426ACTN    C314714   5.966   8.242   2.728  0.3302 -0.0038 -0.4009
 1426ACTN    H414715   6.067   8.231   2.767  0.9343 -1.4463 -2.2997
 1426ACTN    H514716   5.959   8.168   2.647  2.5737  1.7893 -2.2995
 1426ACTN    C214717   5.934   8.382   2.677  0.2681 -0.3397 -0.2227
 1426ACTN    O114718   6.030   8.441   2.626  0.4439  0.1707 -0.4314
 1426ACTN    C114719   5.797   8.449   2.692  0.6501 -0.0277  0.9512
 1426ACTN    H114720   5.775   8.477   2.795 -1.4580 -1.7589  1.0108
 1426ACTN    H214721   5.713   8.387   2.663  0.6260 -0.0502  1.0713
 1426ACTN    H314722   5.794   8.542   2.636  1.7073  0.4156  1.6076
 1427ACTN    H614723   8.442   6.899   6.211  0.8818  0.3928  0.4480
 1427ACTN    C314724   8.547   6.910   6.236  0.8023  0.8055  0.6054
 1427ACTN    H414725   8.561   6.839   6.317  0.6033  0.6427  0.4962
 1427ACTN    H514726   8.564   7.016   6.256  2.4797  0.3934  1.5062
 1427ACTN    C214727   8.630   6.863   6.121 -0.1517  0.7073 -0.8589
 1427ACTN    O114728   8.635   6.927   6.018 -0.2380  0.5605  0.2222
 1427ACTN    C114729   8.731   6.755   6.132  0.0300 -0.0467 -0.8051
 1427ACTN    H114730   8.763   6.721   6.034  1.1889 -1.0623 -0.0763
 1427ACTN    H214731   8.697   6.672   6.193 -1.9491  1.7891  0.6823
 1427ACTN    H314732   8.820   6.795   6.181  0.8981 -0.5086 -1.9924
 1428ACTN    H614733   1.887   6.615   1.659  0.9771  3.2712 -0.2702
 1428ACTN    C314734   1.947   6.611   1.569  0.5275 -0.4733 -0.4828
 1428ACTN    H414735   1.884   6.630   1.482 -0.5301 -3.3180 -0.3783
 1428ACTN    H514736   2.027   6.685   1.574  1.7239 -1.6497 -1.6534
 1428ACTN    C214737   2.014   6.486   1.545  0.7643 -0.5881  0.1228
 1428ACTN    O114738   2.032   6.417   1.644 -0.7429  0.2626 -0.2893
 1428ACTN    C114739   2.075   6.450   1.417  0.5641 -0.3727 -0.0553
 1428ACTN    H114740   2.118   6.539   1.372 -1.6969  1.0376  0.4859
 1428ACTN    H214741   2.006   6.407   1.344  1.0128  0.1255 -0.7861
 1428ACTN    H314742   2.155   6.376   1.427 -1.2810 -2.7634 -1.9989
 1429ACTN    H614743   8.783   0.848   1.915 -2.0770  2.3161  0.5783
 1429ACTN    C314744   8.748   0.781   1.993  0.0931  0.1574 -0.2426
 1429ACTN    H414745   8.777   0.679   1.967  1.5840  0.4525  0.2205
 1429ACTN    H514746   8.798   0.809   2.086 -1.3896  1.1926  0.2536
 1429ACTN    C214747   8.600   0.774   2.005 -0.2773  0.3069  0.0138
 1429ACTN    O114748   8.538   0.738   2.104  0.0525  0.6384  0.1431
 1429ACTN    C114749   8.521   0.798   1.882  0.2865 -0.1875 -0.9022
 1429ACTN    H114750   8.421   0.754   1.885  0.1674  0.0076 -1.8162
 1429ACTN    H214751   8.570   0.743   1.802  1.3394  0.2509 -0.5714
 1429ACTN    H314752   8.502   0.903   1.859  1.0475 -0.2893 -2.0351
 1430ACTN    H614753   1.058   6.095   3.719 -0.1227 -0.4562  0.6403
 1430ACTN    C314754   1.161   6.094   3.755  0.2607  0.1286 -0.4363
 1430ACTN    H414755   1.199   5.993   3.774 -0.0129  0.3288  1.2359
 1430ACTN    H514756   1.230   6.144   3.687 -1.1063 -2.0618 -3.6029
 1430ACTN    C214757   1.161   6.164   3.889  0.0785 -0.1074  0.2294
 1430ACTN    O114758   1.141   6.285   3.897  0.0748 -0.2206  0.1793
 1430ACTN    C114759   1.209   6.089   4.008 -0.2480  0.3989 -0.4779
 1430ACTN    H114760   1.316   6.103   4.026  0.2822 -3.9384  0.2675
 1430ACTN    H214761   1.181   5.984   4.000 -2.7474  1.1362 -1.8758
 1430ACTN    H314762   1.156   6.120   4.098 -3.9125 -4.3001 -0.8320
 1431ACTN    H614763   8.021   4.923   2.388 -0.9175 -0.1007 -0.9679
 1431ACTN    C314764   7.947   4.865   2.444 -0.1480  0.2241  0.4136
 1431ACTN    H414765   7.908   4.909   2.535  2.8699  0.3116  1.7297
 1431ACTN    H514766   7.862   4.859   2.376 -0.5626  1.1443  0.8396
 1431ACTN    C214767   8.002   4.737   2.470  0.8365 -0.6463  0.4373
 1431ACTN    O114768   7.950   4.639   2.417 -0.0671  0.0173 -0.7598
 1431ACTN    C114769   8.099   4.717   2.580 -0.3266  0.2328  0.3783
 1431ACTN    H114770   8.118   4.815   2.626 -2.6099  1.1652 -0.6001
 1431ACTN    H214771   8.195   4.675   2.549 -0.2917  1.8031 -1.7703
 1431ACTN    H314772   8.061   4.651   2.658 -0.6352  1.4872  1.3034
 1432ACTN    H614773   6.152   1.201   7.004 -1.3685  1.2856  0.0654
 1432ACTN    C314774   6.085   1.116   7.018  0.7087 -0.3960 -0.0474
 1432ACTN    H414775   6.075   1.103   7.125 -0.1102  0.7307  0.0262
 1432ACTN    H514776   5.991   1.160   6.984  1.6906  0.6165 -1.5268
 1432ACTN    C214777   6.132   0.987   6.947 -0.5849  0.7829 -0.0702
 1432ACTN    O114778   6.086   0.955   6.842  0.7055 -0.1929 -0.1249
 1432ACTN    C114779   6.256   0.919   6.996 -0.0631 -0.2433 -0.6259
 1432ACTN    H114780   6.236   0.813   7.013 -0.4661 -0.1714 -0.6580
 1432ACTN    H214781   6.301   0.966   7.083 -0.5053  0.7946 -0.9562
 1432ACTN    H314782   6.333   0.931   6.919 -1.1903  0.6822 -1.6135
 1433ACTN    H614783   7.954   2.303   5.441  0.1141  0.4198  1.2424
 1433ACTN    C314784   8.009   2.397   5.432  0.4101  0.1577  0.2339
 1433ACTN    H414785   8.110   2.369   5.461  1.5471  1.3902 -2.3491
 1433ACTN    H514786   8.006   2.424   5.326 -0.9537  0.1605  0.2588
 1433ACTN    C214787   7.942   2.510   5.512 -0.6903 -0.3866  0.3945
 1433ACTN    O114788   7.825   2.532   5.504  0.3017  0.1473  0.1863
 1433ACTN    C114789   8.032   2.608   5.583  0.9053 -0.9555  0.6415
 1433ACTN    H114790   8.137   2.592   5.559  1.2154  1.1457  0.4562
 1433ACTN    H214791   8.014   2.608   5.690 -0.0278  0.4110  0.4915
 1433ACTN    H314792   8.005   2.708   5.550  1.8919 -0.6982  0.6201
 1434ACTN    H614793   7.457   4.919   8.470 -2.3473 -0.1649  0.9765
 1434ACTN    C314794   7.478   4.901   8.575  0.3772 -0.4329  0.4220
 1434ACTN    H414795   7.528   4.990   8.615 -0.4928 -0.7220  2.1939
 1434ACTN    H514796   7.380   4.879   8.618 -0.2048 -2.4464 -1.8476
 1434ACTN    C214797   7.566   4.787   8.596 -0.0157  0.1642 -0.2129
 1434ACTN    O114798   7.515   4.683   8.622 -0.5423 -0.3763  0.2379
 1434ACTN    C114799   7.715   4.807   8.576  0.5839 -0.6052 -0.5752
 1434ACTN    H114800   7.779   4.720   8.591 -0.3479 -0.9834  1.3430
 1434ACTN    H214801   7.759   4.879   8.646 -0.2597 -1.3937  0.7692
 1434ACTN    H314802   7.725   4.864   8.483 -0.2815  1.6992  0.6830
 1435ACTN    H614803   0.755   2.965   4.711 -2.1225 -0.3553 -3.1175
 1435ACTN    C314804   0.852   2.992   4.670 -0.4699 -0.8495  0.2514
 1435ACTN    H414805   0.842   3.091   4.627 -1.5014 -0.0331  2.2910
 1435ACTN    H514806   0.925   3.002   4.750 -0.2746  2.0998 -0.2465
 1435ACTN    C214807   0.894   2.873   4.582 -0.0704  0.2090 -0.1860
 1435ACTN    O114808   0.810   2.789   4.548  0.1536  0.3744 -0.1093
 1435ACTN    C114809   1.035   2.856   4.549 -0.5794  0.1450  0.0216
 1435ACTN    H114810   1.097   2.935   4.592 -2.7748  0.8767  1.9637
 1435ACTN    H214811   1.045   2.854   4.441  2.2345 -1.0949  0.2492
 1435ACTN    H314812   1.066   2.759   4.588 -1.0776  0.1825  0.5113
 1436ACTN    H614813   5.667   8.176   2.328  1.4197 -0.4044 -0.8654
 1436ACTN    C314814   5.634   8.072   2.338 -0.1890  0.1842  0.0782
 1436ACTN    H414815   5.549   8.069   2.406  0.6686 -2.5093  1.0735
 1436ACTN    H514816   5.601   8.028   2.244  1.5491 -2.3542  0.6115
 1436ACTN    C214817   5.745   7.996   2.407  1.3164  0.9496 -0.4591
 1436ACTN    O114818   5.753   7.992   2.530 -0.1105  0.2184  0.0032
 1436ACTN    C114819   5.823   7.895   2.324  0.5258  0.2223 -0.6106
 1436ACTN    H114820   5.766   7.805   2.302 -0.5971  0.7979 -0.0827
 1436ACTN    H214821   5.915   7.868   2.377 -0.7574  0.3077  1.7136
 1436ACTN    H314822   5.856   7.929   2.226 -1.3489  1.7012 -0.7447
 1437ACTN    H614823   5.839   6.820   2.875  0.3717  2.0003  0.7453
 1437ACTN    C314824   5.931   6.805   2.819 -0.4570  0.0174 -0.1492
 1437ACTN    H414825   5.974   6.706   2.836 -2.2739 -0.6370  0.7887
 1437ACTN    H514826   5.908   6.811   2.712  0.5474  0.6066 -0.3346
 1437ACTN    C214827   6.030   6.910   2.858 -0.4674  0.7516 -0.3271
 1437ACTN    O114828   6.096   6.900   2.955  0.7702 -0.1897 -0.9569
 1437ACTN    C114829   6.066   7.028   2.770  0.9891 -0.0386  0.3518
 1437ACTN    H114830   6.057   7.119   2.828  1.1009 -1.6879  3.0243
 1437ACTN    H214831   5.995   7.026   2.687  2.3845 -3.0423 -0.8905
 1437ACTN    H314832   6.163   7.014   2.721  0.5791  0.3671 -0.5843
 1438ACTN    H614833   7.605   1.311   2.395  0.0567 -1.3659  1.1549
 1438ACTN    C314834   7.690   1.371   2.426 -0.2055 -0.4877  0.2039
 1438ACTN    H414835   7.658   1.450   2.494  0.4596  0.7823 -0.9354
 1438ACTN    H514836   7.758   1.309   2.484 -1.9434 -0.5299  2.2972
 1438ACTN    C214837   7.764   1.424   2.303 -0.6579 -0.1493  0.2651
 1438ACTN    O114838   7.877   1.468   2.298  0.6941  0.1033 -0.3529
 1438ACTN    C114839   7.695   1.391   2.170  0.3413 -0.4824  0.3379
 1438ACTN    H114840   7.594   1.432   2.175  1.1502  1.6405 -0.1612
 1438ACTN    H214841   7.701   1.284   2.151 -0.7729  0.0548 -3.3186
 1438ACTN    H314842   7.743   1.444   2.087 -0.4435 -0.1418  0.1033
 1439ACTN    H614843   8.234   6.459   8.128  2.2060 -0.8037 -2.1006
 1439ACTN    C314844   8.143   6.433   8.073  0.5466  0.5181 -0.0393
 1439ACTN    H414845   8.107   6.335   8.104  2.1253 -0.6123 -1.7030
 1439ACTN    H514846   8.073   6.507   8.111 -0.2936 -0.1719 -0.2504
 1439ACTN    C214847   8.151   6.438   7.923 -0.0403 -0.2242  0.0830
 1439ACTN    O114848   8.234   6.358   7.868  0.1175 -0.1657  0.1480
 1439ACTN    C114849   8.084   6.548   7.848 -0.3261  0.3515  0.3921
 1439ACTN    H114850   7.981   6.563   7.882  0.1893 -0.7170  2.5386
 1439ACTN    H214851   8.082   6.522   7.742  0.3952 -1.9077  0.8907
 1439ACTN    H314852   8.137   6.643   7.856 -0.8813  0.6262  0.9300
 1440ACTN    H614853   7.162   7.954   8.087  2.0836  0.2536 -0.6290
 1440ACTN    C314854   7.168   8.063   8.093 -0.8274  0.4582 -0.6230
 1440ACTN    H414855   7.165   8.107   7.994  2.6174  0.4484 -0.8077
 1440ACTN    H514856   7.083   8.095   8.153 -0.2124  0.8285  0.0628
 1440ACTN    C214857   7.285   8.114   8.174 -0.0687  0.0956  0.0555
 1440ACTN    O114858   7.310   8.067   8.280 -0.0293 -0.4780 -0.2026
 1440ACTN    C114859   7.362   8.229   8.110 -0.0273  0.4937 -0.5216
 1440ACTN    H114860   7.325   8.260   8.012  0.6854 -2.7602 -1.8940
 1440ACTN    H214861   7.463   8.189   8.099 -0.0743  0.4446 -0.7825
 1440ACTN    H314862   7.370   8.322   8.166  4.0398  0.2116 -0.4759
 1441ACTN    H614863   8.098   4.648   3.574  0.3992 -1.2098 -0.5594
 1441ACTN    C314864   8.198   4.661   3.615 -0.0894  0.4331  0.1738
 1441ACTN    H414865   8.222   4.767   3.612  0.6559  0.2682  0.2070
 1441ACTN    H514866   8.193   4.638   3.721 -0.2560  1.1983  0.3337
 1441ACTN    C214867   8.307   4.576   3.546 -0.1730  0.1977 -0.8336
 1441ACTN    O114868   8.329   4.463   3.592  0.0004  0.5590  0.2785
 1441ACTN    C114869   8.347   4.607   3.412 -0.3025  0.6160 -0.6034
 1441ACTN    H114870   8.287   4.691   3.377 -0.3773  0.7261 -0.2150
 1441ACTN    H214871   8.332   4.521   3.347 -2.2276  0.3227  0.2101
 1441ACTN    H314872   8.454   4.627   3.409 -0.2111  0.5431  1.2630
 1442ACTN    H614873   2.385   7.905   4.493  0.4205 -0.0978  3.0534
 1442ACTN    C314874   2.277   7.887   4.501  0.0634  0.1295 -0.6381
 1442ACTN    H414875   2.217   7.969   4.461 -0.1471 -0.1852 -0.9668
 1442ACTN    H514876   2.261   7.798   4.441  0.7440 -1.1038  0.9772
 1442ACTN    C214877   2.237   7.857   4.645 -0.2424  0.2897 -0.3696
 1442ACTN    O114878   2.130   7.796   4.669 -0.0375 -0.2520 -0.2610
 1442ACTN    C114879   2.317   7.917   4.758 -0.1348  0.6567 -0.5942
 1442ACTN    H114880   2.252   7.972   4.826  1.0537 -1.5276  2.4200
 1442ACTN    H214881   2.378   7.991   4.707  0.5904  0.3593 -0.1644
 1442ACTN    H314882   2.382   7.857   4.821 -1.4369 -1.8022 -1.4987
 1443ACTN    H614883   5.912   7.883   6.014 -1.5650 -1.8988  0.0492
 1443ACTN    C314884   5.999   7.832   6.054 -0.0148 -0.0191 -0.8552
 1443ACTN    H414885   6.030   7.909   6.126 -3.9171  1.1433 -0.3219
 1443ACTN    H514886   6.072   7.829   5.973  1.3762 -1.2750  0.3946
 1443ACTN    C214887   5.978   7.696   6.112 -0.1040  0.0040 -0.3213
 1443ACTN    O114888   5.927   7.605   6.045 -0.4082 -0.0009  0.0360
 1443ACTN    C114889   6.015   7.678   6.252 -0.3994  1.1567 -0.5389
 1443ACTN    H114890   6.122   7.696   6.265 -0.0483 -0.6665 -0.6910
 1443ACTN    H214891   6.001   7.580   6.298  1.7679 -0.0351 -2.3343
 1443ACTN    H314892   5.961   7.749   6.314 -1.7794 -1.6705  1.6102
 1444ACTN    H614893   7.429   7.425   0.001  0.3679 -0.6486 -0.3953
 1444ACTN    C314894   7.518   7.489   0.001 -0.1440  0.0636  0.0799
 1444ACTN    H414895   7.596   7.424   0.040  1.4242  0.7561 -1.8112
 1444ACTN    H514896   7.549   7.503  -0.102  0.9280  0.2900  0.4347
 1444ACTN    C214897   7.504   7.617   0.083 -1.0695  0.2649  0.2560
 1444ACTN    O114898   7.436   7.708   0.038  0.0176 -0.7221  0.1206
 1444ACTN    C114899   7.562   7.626   0.218  0.8034  0.4765  0.9645
 1444ACTN    H114900   7.669   7.615   0.204  0.7676 -2.3479  2.6059
 1444ACTN    H214901   7.533   7.533   0.266 -0.7910  0.0948 -0.6953
 1444ACTN    H314902   7.530   7.716   0.270  0.9123  2.7594 -2.7373
 1445ACTN    H614903   6.298   5.213   2.109  1.5384 -0.0374 -0.6591
 1445ACTN    C314904   6.322   5.190   2.005 -0.0701  0.2449 -1.1111
 1445ACTN    H414905   6.250   5.115   1.972 -2.0416  1.3391  0.5924
 1445ACTN    H514906   6.321   5.280   1.945 -1.0759  1.2065  0.3109
 1445ACTN    C214907   6.461   5.134   1.983  0.5200 -0.2022  0.5861
 1445ACTN    O114908   6.518   5.145   1.876 -0.3083 -0.2107 -0.5850
 1445ACTN    C114909   6.513   5.040   2.083 -0.5435  0.3875 -0.3774
 1445ACTN    H114910   6.439   5.003   2.153 -1.3004  0.4119 -1.1551
 1445ACTN    H214911   6.595   5.089   2.136 -1.3787 -0.3192  1.6213
 1445ACTN    H314912   6.549   4.947   2.039  1.3566  1.1206 -0.4392
 1446ACTN    H614913   6.412   8.082   3.223 -1.6328  1.0433 -0.9782
 1446ACTN    C314914   6.409   7.991   3.163  0.2232 -0.2062  0.7296
 1446ACTN    H414915   6.424   7.918   3.242  2.1423  0.0259  0.5998
 1446ACTN    H514916   6.315   7.978   3.110  0.3945 -1.6100  0.7529
 1446ACTN    C214917   6.535   8.001   3.077 -0.5909  0.3070  0.2017
 1446ACTN    O114918   6.556   7.909   2.997  0.9734  0.7086 -0.0869
 1446ACTN    C114919   6.603   8.137   3.059 -0.4179 -0.3771 -0.0500
 1446ACTN    H114920   6.548   8.206   2.996  1.4663  1.8055  0.6226
 1446ACTN    H214921   6.699   8.135   3.008 -1.2360  0.4073 -1.6664
 1446ACTN    H314922   6.615   8.185   3.157  1.5936  0.7647 -0.8323
 1447ACTN    H614923   3.614   3.416   0.087  0.1129 -1.3987  0.3448
 1447ACTN    C314924   3.550   3.414  -0.002 -0.4185 -0.1264  0.6906
 1447ACTN    H414925   3.600   3.443  -0.095  2.1657  0.0840  2.0814
 1447ACTN    H514926   3.492   3.323  -0.012  0.7452 -0.8239  0.1902
 1447ACTN    C214927   3.445   3.517   0.031 -0.0995  0.1715 -0.1432
 1447ACTN    O114928   3.404   3.523   0.147 -0.1791 -0.4923 -0.0861
 1447ACTN    C114929   3.414   3.619  -0.077 -0.1370 -0.3033  0.4392
 1447ACTN    H114930   3.448   3.719  -0.051  3.1170 -1.2983  0.2215
 1447ACTN    H214931   3.306   3.628  -0.089 -0.0557 -0.9886 -0.9639
 1447ACTN    H314932   3.457   3.593  -0.174  0.8635 -2.0613  1.3247
 1448ACTN    H614933   6.853   4.889   8.781  0.0664 -0.0623 -0.5971
 1448ACTN    C314934   6.941   4.952   8.780  0.1289 -0.1422 -0.1246
 1448ACTN    H414935   7.014   4.930   8.701 -0.7557 -1.5905 -0.5504
 1448ACTN    H514936   6.906   5.055   8.778 -3.3205 -1.2664  0.2009
 1448ACTN    C214937   7.004   4.942   8.909  0.8210  0.5674  0.1846
 1448ACTN    O114938   7.085   5.025   8.939  0.1503  0.5610  0.1475
 1448ACTN    C114939   6.975   4.827   8.999 -0.2112 -0.8488  0.0528
 1448ACTN    H114940   7.068   4.795   9.045  1.6877  3.5915 -0.5332
 1448ACTN    H214941   6.930   4.743   8.946 -4.2833  1.4366 -0.3143
 1448ACTN    H314942   6.910   4.873   9.074 -0.7324 -2.4069  0.5889
 1449ACTN    H614943   7.056   8.021   3.811  1.7117  2.1567  0.0581
 1449ACTN    C314944   6.987   8.095   3.853 -0.0066  0.3960  0.3809
 1449ACTN    H414945   6.892   8.111   3.801  0.6833 -1.7206 -1.6716
 1449ACTN    H514946   6.969   8.070   3.957  2.7992  0.4256  0.8965
 1449ACTN    C214947   7.065   8.220   3.848  0.1291  0.7329  0.5179
 1449ACTN    O114948   7.169   8.228   3.787 -0.7164 -0.3491 -0.0968
 1449ACTN    C114949   6.993   8.343   3.899  0.0778  0.3158  0.0345
 1449ACTN    H114950   6.946   8.328   3.996  2.8965  0.4725  1.4767
 1449ACTN    H214951   7.067   8.421   3.921  1.6618 -1.0402 -0.4075
 1449ACTN    H314952   6.926   8.385   3.823 -1.7738 -2.5573  0.0282
 1450ACTN    H614953   7.991   0.478   3.646 -1.5539 -2.0552 -2.3894
 1450ACTN    C314954   8.056   0.392   3.660  0.7341 -0.0157  0.2978
 1450ACTN    H414955   8.102   0.411   3.757  0.8266  3.0799 -0.3262
 1450ACTN    H514956   7.986   0.309   3.675 -0.2640  0.7867  0.1170
 1450ACTN    C214957   8.159   0.375   3.546  0.2087  0.7205  0.5327
 1450ACTN    O114958   8.276   0.406   3.562  0.3337  0.3158  0.2320
 1450ACTN    C114959   8.093   0.356   3.406  0.2962 -0.2135  0.3176
 1450ACTN    H114960   8.037   0.263   3.401  0.0874 -0.0069 -1.5468
 1450ACTN    H214961   8.165   0.360   3.324 -0.5740 -4.1873 -0.7075
 1450ACTN    H314962   8.028   0.442   3.391  0.4401 -0.0864  0.4145
 1451ACTN    H614963   0.371   7.892   5.842  1.3995 -0.3038 -1.2665
 1451ACTN    C314964   0.356   7.965   5.762  0.1022  0.2003 -0.5748
 1451ACTN    H414965   0.404   7.927   5.672  2.6642 -3.6221  2.2025
 1451ACTN    H514966   0.249   7.979   5.747  0.3077  2.4311 -0.1155
 1451ACTN    C214967   0.413   8.089   5.816  1.3627 -0.0005 -0.2863
 1451ACTN    O114968   0.526   8.092   5.859  0.0455 -0.2569 -0.0083
 1451ACTN    C114969   0.340   8.216   5.797  0.2992 -0.2577  0.2025
 1451ACTN    H114970   0.246   8.207   5.742  0.0906  1.5542  0.2489
 1451ACTN    H214971   0.405   8.289   5.749 -2.2097  2.5815  0.9741
 1451ACTN    H314972   0.319   8.252   5.897  1.4252  2.4564 -0.5048
 1452ACTN    H614973   4.890   8.480   2.889 -2.1069 -2.6073  1.4588
 1452ACTN    C314974   4.870   8.447   2.787 -0.4018 -0.2149  0.2994
 1452ACTN    H414975   4.850   8.340   2.785 -1.8824  0.0743 -1.0406
 1452ACTN    H514976   4.782   8.498   2.748  0.5619 -1.0309 -3.0566
 1452ACTN    C214977   4.988   8.483   2.705 -0.3812  0.5383  0.0508
 1452ACTN    O114978   5.071   8.567   2.740 -0.1784  0.4411  0.4373
 1452ACTN    C114979   5.003   8.414   2.576 -0.3275  0.4059  0.4615
 1452ACTN    H114980   5.099   8.418   2.526 -1.0992  1.1023 -0.9666
 1452ACTN    H214981   4.936   8.466   2.508 -0.2471 -0.6459 -0.4304
 1452ACTN    H314982   4.973   8.310   2.591 -1.4142  0.5243 -0.8443
 1453ACTN    H614983   8.151   0.278   6.018  2.6410 -2.4907 -2.0890
 1453ACTN    C314984   8.189   0.246   6.115 -0.4929 -0.0698  0.0354
 1453ACTN    H414985   8.229   0.331   6.170  0.9630 -2.1660  2.3177
 1453ACTN    H514986   8.099   0.220   6.170  0.7709 -1.8072  1.3320
 1453ACTN    C214987   8.296   0.143   6.097 -0.2368 -0.5855 -0.1211
 1453ACTN    O114988   8.277   0.034   6.152 -0.3870 -0.3603  0.1523
 1453ACTN    C114989   8.410   0.167   6.007  0.3839  0.7457  0.4203
 1453ACTN    H114990   8.400   0.271   5.977 -1.9361  0.7750  1.1731
 1453ACTN    H214991   8.401   0.116   5.911 -1.0423  1.9367 -0.0964
 1453ACTN    H314992   8.505   0.137   6.052 -0.9681 -2.4910  1.2377
 1454ACTN    H614993   6.872   7.830   8.296 -0.8362 -0.4348 -2.0598
 1454ACTN    C314994   6.920   7.733   8.302  0.3844  0.2469 -0.3598
 1454ACTN    H414995   7.028   7.737   8.316  0.2420 -2.0837  1.7258
 1454ACTN    H514996   6.890   7.690   8.397 -0.3279 -0.3789 -0.8632
 1454ACTN    C214997   6.901   7.639   8.184  0.1617  0.0990 -0.0650
 1454ACTN    O114998   6.945   7.526   8.189  1.0429  0.4932  0.3013
 1454ACTN    C114999   6.808   7.689   8.075 -0.9574  0.1717 -0.3944
 1454ACTN    H115000   6.820   7.623   7.989  0.5386  0.8592 -0.7283
 1454ACTN    H215001   6.830   7.793   8.051 -4.0901  1.2115  0.8835
 1454ACTN    H315002   6.706   7.681   8.113 -0.3151 -1.9738  0.9842
 1455ACTN    H615003   3.882   1.191   4.845 -0.1832 -0.2855 -2.6633
 1455ACTN    C315004   3.774   1.177   4.837 -0.3812 -0.3949 -0.0955
 1455ACTN    H415005   3.732   1.261   4.781 -0.8161 -0.1449  0.5987
 1455ACTN    H515006   3.747   1.087   4.782 -1.0248 -1.8503  2.4957
 1455ACTN    C215007   3.696   1.167   4.956 -0.5462  0.4316  0.1610
 1455ACTN    O115008   3.746   1.185   5.069 -0.1046 -0.4061 -0.4205
 1455ACTN    C115009   3.562   1.109   4.940  0.5127 -0.1510 -0.0508
 1455ACTN    H115010   3.495   1.155   5.012  0.7666  0.2858 -0.0906
 1455ACTN    H215011   3.562   1.001   4.960 -0.2982  0.3507  3.0277
 1455ACTN    H315012   3.524   1.126   4.840  2.4517 -2.1718 -1.1913
 1456ACTN    H615013   6.292   2.798   4.050  1.0060 -2.3686 -0.8825
 1456ACTN    C315014   6.254   2.827   3.953  0.0662 -0.1996  0.1088
 1456ACTN    H415015   6.196   2.744   3.912 -0.3108  0.9224 -1.7011
 1456ACTN    H515016   6.191   2.917   3.956 -0.0916 -0.3170  0.3355
 1456ACTN    C215017   6.376   2.858   3.871 -0.3780 -0.2548  0.9990
 1456ACTN    O115018   6.487   2.812   3.902 -0.0071  0.3870 -0.2937
 1456ACTN    C115019   6.364   2.934   3.739 -0.1455  0.2542 -0.3882
 1456ACTN    H115020   6.462   2.975   3.715 -0.4453  1.1188 -0.1719
 1456ACTN    H215021   6.299   3.016   3.772 -3.4881 -2.2219 -0.5597
 1456ACTN    H315022   6.318   2.881   3.656  2.4297  3.5311 -4.0694
 1457ACTN    H615023   4.783   2.730   0.037  0.1585  1.2992 -0.5505
 1457ACTN    C315024   4.833   2.679  -0.046 -0.1115 -0.7011  0.4947
 1457ACTN    H415025   4.858   2.761  -0.114  1.7137 -0.6627  1.1713
 1457ACTN    H515026   4.917   2.621  -0.006  0.2672 -0.9270 -0.6199
 1457ACTN    C215027   4.739   2.588  -0.109  0.1097  0.9465  0.1352
 1457ACTN    O115028   4.782   2.484  -0.150 -0.0570 -0.0639  0.2453
 1457ACTN    C115029   4.588   2.614  -0.087 -0.3934 -0.1000  0.1322
 1457ACTN    H115030   4.553   2.529  -0.030  0.6244 -1.0861 -0.6947
 1457ACTN    H215031   4.539   2.626  -0.184  0.8009  1.2340 -0.3231
 1457ACTN    H315032   4.572   2.707  -0.032 -1.6693 -0.3889  0.2607
 1458ACTN    H615033   5.168   0.487   6.047  0.4450 -1.2648  2.8201
 1458ACTN    C315034   5.197   0.584   6.086  0.3544  0.2573 -0.7092
 1458ACTN    H415035   5.112   0.624   6.141  0.5707 -0.7059  0.3383
 1458ACTN    H515036   5.284   0.569   6.150  1.3721  2.5880 -1.4751
 1458ACTN    C215037   5.227   0.685   5.981  0.6333 -0.0702  0.3744
 1458ACTN    O115038   5.334   0.746   5.989 -0.0295  0.4716  0.0145
 1458ACTN    C115039   5.122   0.707   5.876  0.6200  0.2625 -0.2449
 1458ACTN    H115040   5.136   0.797   5.816 -0.3599  0.3422 -0.3636
 1458ACTN    H215041   5.030   0.731   5.930  0.1796 -0.9662 -0.4350
 1458ACTN    H315042   5.104   0.625   5.807  2.0551 -0.1576 -0.1455
 1459ACTN    H615043   5.173   5.286   1.856  0.6830 -0.0810 -0.3882
 1459ACTN    C315044   5.281   5.305   1.859  0.6979 -0.2093 -0.0462
 1459ACTN    H415045   5.312   5.301   1.963 -1.6758 -0.6671  0.6699
 1459ACTN    H515046   5.328   5.228   1.799  0.6516  0.2338 -0.6581
 1459ACTN    C215047   5.319   5.439   1.800 -0.2506 -0.6524 -0.6527
 1459ACTN    O115048   5.394   5.515   1.858 -0.0237 -0.4183 -0.4235
 1459ACTN    C115049   5.266   5.478   1.664  0.8960  0.0171  0.0687
 1459ACTN    H115050   5.324   5.553   1.612  0.0404  0.6889  0.0610
 1459ACTN    H215051   5.168   5.526   1.672  0.9670 -0.0134  1.2830
 1459ACTN    H315052   5.248   5.392   1.599  0.0893  1.4260 -1.5872
 1460ACTN    H615053   5.262   0.320   3.820  0.9875 -0.1679  0.7744
 1460ACTN    C315054   5.341   0.336   3.747 -0.0918  0.9586 -0.1581
 1460ACTN    H415055   5.299   0.405   3.674 -2.0203  1.1474  1.0794
 1460ACTN    H515056   5.422   0.377   3.806 -0.9222 -0.1993  1.8637
 1460ACTN    C215057   5.377   0.211   3.674 -0.4087 -0.1978 -0.0328
 1460ACTN    O115058   5.302   0.185   3.582 -0.0781  0.4813 -0.4689
 1460ACTN    C115059   5.452   0.101   3.735 -0.1335  0.2393 -0.2787
 1460ACTN    H115060   5.386   0.061   3.813 -0.5852 -1.3701 -1.4448
 1460ACTN    H215061   5.543   0.138   3.780 -0.9337 -0.2747  1.8211
 1460ACTN    H315062   5.482   0.024   3.664 -0.1826  1.0588 -1.1889
 1461ACTN    H615063   1.807   4.234   5.200 -0.2027 -1.0024  2.5806
 1461ACTN    C315064   1.733   4.277   5.267 -1.1719  0.6058  0.5311
 1461ACTN    H415065   1.646   4.214   5.247 -2.9662  3.5376 -1.1529
 1461ACTN    H515066   1.775   4.271   5.367 -0.3248  1.1349  0.2110
 1461ACTN    C215067   1.720   4.417   5.224 -0.0191  0.0790  0.1213
 1461ACTN    O115068   1.743   4.447   5.105 -0.7414  0.4706  0.1809
 1461ACTN    C115069   1.634   4.513   5.304  0.2644 -0.0859 -0.1763
 1461ACTN    H115070   1.537   4.468   5.329  1.4062 -1.6650  1.5310
 1461ACTN    H215071   1.614   4.603   5.247  0.9900  0.5679  0.5955
 1461ACTN    H315072   1.680   4.526   5.403  0.3118 -2.8211  0.1961
 1462ACTN    H615073   4.974   7.289   4.332 -0.0818 -1.0644 -1.0651
 1462ACTN    C315074   5.076   7.253   4.349 -0.2849 -0.8980  0.5483
 1462ACTN    H415075   5.090   7.205   4.446 -1.0315 -1.0972  0.5596
 1462ACTN    H515076   5.100   7.173   4.280  1.3160 -0.2058  0.2919
 1462ACTN    C215077   5.171   7.362   4.331  0.3128 -0.4300 -0.5677
 1462ACTN    O115078   5.132   7.477   4.315  0.1632  0.4263 -0.7116
 1462ACTN    C115079   5.316   7.330   4.306 -0.1991  0.4270 -0.2428
 1462ACTN    H115080   5.330   7.232   4.260 -1.0182  0.1282  0.1337
 1462ACTN    H215081   5.367   7.323   4.402 -2.0166 -0.9911  0.6275
 1462ACTN    H315082   5.369   7.402   4.243  1.0039 -0.9159 -0.7987
 1463ACTN    H615083   6.787   4.074   8.269 -0.2398 -1.2840 -2.0800
 1463ACTN    C315084   6.709   4.014   8.316  0.1521  0.0545  0.3537
 1463ACTN    H415085   6.704   3.917   8.267  0.2844 -0.4184  1.2591
 1463ACTN    H515086   6.734   3.991   8.420 -0.5874 -0.7101  0.3683
 1463ACTN    C215087   6.580   4.086   8.309 -0.7142 -0.2120  0.4202
 1463ACTN    O115088   6.553   4.160   8.401 -0.7770 -0.0738 -0.5666
 1463ACTN    C115089   6.475   4.037   8.210 -0.0670 -0.2927 -0.1622
 1463ACTN    H115090   6.381   4.009   8.258  0.1430  1.7556  1.5042
 1463ACTN    H215091   6.506   3.946   8.158  2.7076  0.0680  0.7281
 1463ACTN    H315092   6.454   4.112   8.134 -1.7456 -0.1567  0.4368
 1464ACTN    H615093   4.068   3.112   0.166  0.2403 -1.8601  0.8699
 1464ACTN    C315094   4.125   3.102   0.074 -0.5725 -0.1803  0.1635
 1464ACTN    H415095   4.227   3.136   0.091 -1.2750  1.9457  0.1911
 1464ACTN    H515096   4.129   2.996   0.049  2.3718 -0.3010  1.0442
 1464ACTN    C215097   4.057   3.178  -0.033 -0.0710 -0.6117 -0.4927
 1464ACTN    O115098   4.068   3.140  -0.148  0.2083 -0.1009  0.0256
 1464ACTN    C115099   3.940   3.262   0.015  0.2661  0.0503 -0.5082
 1464ACTN    H115100   3.863   3.281  -0.060  0.5434  1.7555 -0.3759
 1464ACTN    H215101   3.972   3.358   0.054  0.9371 -0.5070  0.3296
 1464ACTN    H315102   3.906   3.203   0.100 -1.1480  2.4612  0.6440
 1465ACTN    H615103   3.548   4.022   3.423 -0.6852 -1.1322 -0.6374
 1465ACTN    C315104   3.624   4.035   3.345 -0.3913 -0.2017 -0.1993
 1465ACTN    H415105   3.615   3.948   3.280  1.1609 -2.3445  2.2977
 1465ACTN    H515106   3.595   4.127   3.296  0.2021 -0.1065 -0.3712
 1465ACTN    C215107   3.760   4.057   3.413  0.4642 -0.4644  1.0102
 1465ACTN    O115108   3.858   3.990   3.392  0.2557  0.1693  0.2908
 1465ACTN    C115109   3.775   4.184   3.489 -0.0383  0.8941  0.0745
 1465ACTN    H115110   3.842   4.164   3.573 -0.4247 -2.5540 -0.3681
 1465ACTN    H215111   3.684   4.215   3.541 -0.9144 -1.2403 -0.1505
 1465ACTN    H315112   3.817   4.265   3.429  0.9122 -0.3395 -0.9373
 1466ACTN    H615113   0.254   5.615   7.310 -1.1943 -1.3393  2.2269
 1466ACTN    C315114   0.341   5.558   7.343  0.6107  0.0568  0.0483
 1466ACTN    H415115   0.374   5.614   7.431 -0.5039  2.6369 -1.1124
 1466ACTN    H515116   0.309   5.455   7.357  0.9218  0.1297  1.3617
 1466ACTN    C215117   0.451   5.562   7.244 -0.2626 -0.0495  0.0691
 1466ACTN    O115118   0.563   5.535   7.286  0.0006 -0.5513 -0.5567
 1466ACTN    C115119   0.423   5.553   7.101 -0.0739 -0.0790 -0.1295
 1466ACTN    H115120   0.477   5.465   7.068  0.9624  0.1554  0.8905
 1466ACTN    H215121   0.458   5.641   7.046  0.9034 -0.2300  0.2535
 1466ACTN    H315122   0.317   5.539   7.078  0.1301  0.0917 -1.1926
 1467ACTN    H615123   1.936   0.462   3.742  0.0615 -0.5686 -0.4085
 1467ACTN    C315124   1.932   0.520   3.834  0.1133 -0.4940 -0.4532
 1467ACTN    H415125   1.885   0.462   3.914  0.6250  2.3660  2.0074
 1467ACTN    H515126   2.031   0.552   3.865 -0.6285  1.6038 -0.1971
 1467ACTN    C215127   1.852   0.653   3.821  0.2086 -0.2027 -0.5795
 1467ACTN    O115128   1.792   0.694   3.918  0.0631 -0.3116 -0.9915
 1467ACTN    C115129   1.804   0.692   3.683  0.1758  0.4580 -0.2280
 1467ACTN    H115130   1.885   0.694   3.610  0.8706 -4.0718  0.2686
 1467ACTN    H215131   1.766   0.794   3.690  2.5227  1.4983 -2.0017
 1467ACTN    H315132   1.725   0.621   3.659 -0.5052  1.5897 -1.4055
 1468ACTN    H615133   2.413   3.216   0.572 -0.3298 -0.2551  0.4190
 1468ACTN    C315134   2.422   3.149   0.486  0.4435 -0.3783  0.5942
 1468ACTN    H415135   2.386   3.196   0.395 -0.2742 -0.7742  0.6764
 1468ACTN    H515136   2.356   3.064   0.506  0.4699 -0.7188 -0.7723
 1468ACTN    C215137   2.568   3.102   0.471 -0.1462  0.3215 -0.6039
 1468ACTN    O115138   2.602   3.045   0.364 -0.3490 -0.3109 -0.1982
 1468ACTN    C115139   2.670   3.149   0.572  0.5925  0.1876  0.1478
 1468ACTN    H115140   2.627   3.129   0.670  1.4205  0.2887  0.5284
 1468ACTN    H215141   2.685   3.257   0.563 -1.5379  0.7955  3.0229
 1468ACTN    H315142   2.763   3.093   0.563  0.0937 -0.8206  1.1678
 1469ACTN    H615143   0.016   6.364   2.612 -0.1890 -0.0975  0.2658
 1469ACTN    C315144  -0.023   6.284   2.549 -0.5264  0.3024 -0.0319
 1469ACTN    H415145   0.020   6.193   2.590 -2.1430  0.7278  2.7710
 1469ACTN    H515146  -0.132   6.280   2.544 -0.4994  0.1396 -0.5655
 1469ACTN    C215147   0.032   6.318   2.413 -0.8508  0.6786 -0.2055
 1469ACTN    O115148   0.016   6.423   2.358  0.0628 -0.4828 -0.1615
 1469ACTN    C115149   0.126   6.216   2.352 -0.4012 -0.8251 -0.4490
 1469ACTN    H115150   0.222   6.221   2.403 -0.5683  1.1817 -0.2618
 1469ACTN    H215151   0.142   6.230   2.245  0.0965 -1.5790 -0.4757
 1469ACTN    H315152   0.096   6.112   2.364  3.5836 -2.1762 -1.2829
 1470ACTN    H615153   7.505   0.455   5.590  1.8865  1.0067 -0.7236
 1470ACTN    C315154   7.589   0.429   5.655  0.4564 -0.3356  0.6013
 1470ACTN    H415155   7.599   0.320   5.655 -2.6736 -0.7084 -1.8115
 1470ACTN    H515156   7.682   0.465   5.612 -0.5150  0.6189 -0.7640
 1470ACTN    C215157   7.553   0.483   5.790  0.6443  0.1153  0.1610
 1470ACTN    O115158   7.510   0.415   5.888 -0.1095 -0.3492 -0.0249
 1470ACTN    C115159   7.573   0.630   5.805  1.2408  0.0802 -0.0996
 1470ACTN    H115160   7.679   0.648   5.791  1.5626 -0.6468  1.2555
 1470ACTN    H215161   7.553   0.667   5.906  0.1804 -0.4577 -0.1082
 1470ACTN    H315162   7.515   0.688   5.733  0.1684  1.1381  1.5835
 1471ACTN    H615163   8.741   3.301   0.004 -0.5096 -0.8336  0.0577
 1471ACTN    C315164   8.765   3.377  -0.071  0.4092 -1.3187 -0.1409
 1471ACTN    H415165   8.693   3.351  -0.149  1.8853  0.5697 -2.1794
 1471ACTN    H515166   8.735   3.475  -0.035 -0.3370 -2.3985  2.2523
 1471ACTN    C215167   8.908   3.375  -0.117  0.1612 -0.0794  0.2500
 1471ACTN    O115168   8.938   3.435  -0.218 -0.5886  0.5769 -0.4704
 1471ACTN    C115169   9.016   3.299  -0.039  0.4278 -0.1319  0.1838
 1471ACTN    H115170   9.008   3.194  -0.066 -1.3949 -0.6418  2.5096
 1471ACTN    H215171   9.008   3.311   0.070  1.0865 -0.9024  0.3206
 1471ACTN    H315172   9.110   3.349  -0.061  0.9919 -1.2396  0.0774
 1472ACTN    H615173   7.328   5.001   1.509  0.3128  1.4243  0.0966
 1472ACTN    C315174   7.369   5.007   1.408 -0.7699 -0.2195 -0.4627
 1472ACTN    H415175   7.286   5.007   1.338 -1.1166  1.0064 -0.0624
 1472ACTN    H515176   7.429   5.095   1.387  0.7898 -1.2344 -0.3615
 1472ACTN    C215177   7.444   4.879   1.381 -0.3386  0.4673 -0.0268
 1472ACTN    O115178   7.556   4.881   1.422 -0.2186  0.3088 -0.1034
 1472ACTN    C115179   7.381   4.745   1.389  0.0045 -0.3196 -0.5695
 1472ACTN    H115180   7.421   4.696   1.478 -0.4334  0.3111 -0.0271
 1472ACTN    H215181   7.390   4.688   1.296 -2.6891 -1.1189 -0.3725
 1472ACTN    H315182   7.275   4.748   1.411  0.2260 -0.0085  0.4887
 1473ACTN    H615183   3.841   7.257   2.073 -1.9370  0.0453 -0.6338
 1473ACTN    C315184   3.777   7.294   2.153 -0.2940 -0.1805  0.8320
 1473ACTN    H415185   3.809   7.392   2.186 -0.2604 -0.1459  0.6927
 1473ACTN    H515186   3.785   7.221   2.234  1.4857 -1.1646 -0.2159
 1473ACTN    C215187   3.636   7.306   2.103 -0.2170 -0.0760  0.2706
 1473ACTN    O115188   3.612   7.315   1.985 -0.1991  0.1824 -0.1276
 1473ACTN    C115189   3.532   7.329   2.205  0.3046 -0.3824 -0.7266
 1473ACTN    H115190   3.537   7.240   2.268 -1.2126  1.3783  1.9363
 1473ACTN    H215191   3.433   7.336   2.161  0.7375  1.7183 -1.4359
 1473ACTN    H315192   3.540   7.421   2.262 -0.9431 -3.2202  4.3361
 1474ACTN    H615193   7.885   3.123   3.265 -2.5910  2.1347  1.8520
 1474ACTN    C315194   7.871   3.046   3.341 -0.2585 -0.4676 -0.2711
 1474ACTN    H415195   7.764   3.040   3.361  0.0367  2.5061  2.5821
 1474ACTN    H515196   7.903   2.952   3.295 -0.8779 -1.4216  1.2095
 1474ACTN    C215197   7.942   3.083   3.472  0.7078  0.2245 -0.3054
 1474ACTN    O115198   8.051   3.037   3.516  0.0195  0.6984 -0.4030
 1474ACTN    C115199   7.889   3.197   3.546  0.7762 -0.4990 -0.4997
 1474ACTN    H115200   7.973   3.265   3.558  1.0410 -0.9770  0.4667
 1474ACTN    H215201   7.852   3.167   3.644  1.1471  3.2914  0.8928
 1474ACTN    H315202   7.816   3.254   3.489 -0.5977 -1.2203  0.4988
 1475ACTN    H615203   8.885   1.554   5.607  3.1066  0.4008 -2.7632
 1475ACTN    C315204   8.809   1.523   5.536  0.0634  0.3676  0.4081
 1475ACTN    H415205   8.738   1.604   5.521  0.3657  0.5746  0.1004
 1475ACTN    H515206   8.860   1.511   5.440  0.3368  0.9264  0.4822
 1475ACTN    C215207   8.739   1.396   5.575  0.2605 -0.0902  0.0240
 1475ACTN    O115208   8.810   1.303   5.608  0.0585 -0.2179 -0.5205
 1475ACTN    C115209   8.590   1.413   5.601  1.0308  0.1573  0.7193
 1475ACTN    H115210   8.551   1.316   5.630  1.3482 -0.0543  0.4393
 1475ACTN    H215211   8.538   1.437   5.508  0.7291 -1.7435  0.3779
 1475ACTN    H315212   8.559   1.484   5.678  0.6278  1.0752 -0.2750
 1476ACTN    H615213   6.990   1.973   6.591 -2.9795  2.2201 -0.6427
 1476ACTN    C315214   7.050   2.055   6.630 -0.1588 -0.2007  0.2712
 1476ACTN    H415215   7.083   2.025   6.730 -1.3279 -0.2560  0.6410
 1476ACTN    H515216   7.125   2.058   6.551 -0.0317 -0.1238  0.3938
 1476ACTN    C215217   6.961   2.173   6.626 -0.0343 -0.0921 -1.1319
 1476ACTN    O115218   6.895   2.202   6.527 -0.4150 -0.0060 -0.2157
 1476ACTN    C115219   6.946   2.262   6.748  0.0471  0.1267 -0.1363
 1476ACTN    H115220   7.014   2.220   6.822  1.7115 -0.1182 -1.7538
 1476ACTN    H215221   6.842   2.259   6.780  0.1909  0.2686  0.3497
 1476ACTN    H315222   6.965   2.369   6.733  1.0718 -0.2292 -1.5160
 1477ACTN    H615223   8.954   7.725   4.951  1.6279 -1.3361  1.8924
 1477ACTN    C315224   8.872   7.653   4.944  0.5929 -0.0302  0.1600
 1477ACTN    H415225   8.814   7.676   4.855  0.0415 -0.2705  0.4577
 1477ACTN    H515226   8.925   7.558   4.939 -0.3186 -0.5953  1.1623
 1477ACTN    C215227   8.786   7.658   5.066 -0.0398 -0.0002  0.0933
 1477ACTN    O115228   8.681   7.698   5.059  0.2202  0.2488  0.5424
 1477ACTN    C115229   8.849   7.621   5.199 -0.3304  0.1553 -0.6097
 1477ACTN    H115230   8.766   7.572   5.249  0.6420  0.5138  1.3877
 1477ACTN    H215231   8.879   7.705   5.262 -4.0158  0.4232  0.8841
 1477ACTN    H315232   8.936   7.556   5.188 -0.7301 -0.3105 -1.0156
 1478ACTN    H615233   6.204   1.257   6.433  2.3820  0.1143  2.5883
 1478ACTN    C315234   6.193   1.149   6.425  0.7554  0.3850  0.7032
 1478ACTN    H415235   6.142   1.097   6.507  0.8591 -1.5381 -0.4227
 1478ACTN    H515236   6.140   1.131   6.331 -0.1372  0.8118  1.1122
 1478ACTN    C215237   6.321   1.073   6.415  0.6232  0.4083  0.0638
 1478ACTN    O115238   6.402   1.098   6.323  0.3334 -0.2358  0.3002
 1478ACTN    C115239   6.330   0.945   6.498  0.1654 -0.1696 -0.0248
 1478ACTN    H115240   6.422   0.895   6.467  1.0639  1.3582  0.1235
 1478ACTN    H215241   6.251   0.870   6.496  1.5691 -1.8069  2.7102
 1478ACTN    H315242   6.345   0.976   6.601 -0.5729  0.5520 -0.1257
 1479ACTN    H615243   4.648   2.953   1.954  2.0663  2.1483 -1.6633
 1479ACTN    C315244   4.604   2.929   1.857 -0.0433 -0.8432 -0.0265
 1479ACTN    H415245   4.616   3.016   1.793  1.4295 -0.3489  0.8821
 1479ACTN    H515246   4.499   2.909   1.879  0.5249 -2.2864  1.4769
 1479ACTN    C215247   4.675   2.804   1.800  0.2421 -0.3856  0.3144
 1479ACTN    O115248   4.686   2.705   1.876 -0.0710 -0.9182  0.1232
 1479ACTN    C115249   4.694   2.774   1.658  0.7319  0.1828  0.6601
 1479ACTN    H115250   4.754   2.845   1.601 -0.9274 -1.2340 -3.0122
 1479ACTN    H215251   4.597   2.761   1.610  0.0491 -0.7965  2.2526
 1479ACTN    H315252   4.753   2.684   1.645 -0.3290 -0.4581  0.2040
 1480ACTN    H615253   2.250   7.850   5.115  0.1464  0.7045  1.8108
 1480ACTN    C315254   2.320   7.783   5.164  0.3041 -0.6311 -0.1919
 1480ACTN    H415255   2.419   7.795   5.118  0.4808  1.9118  0.8023
 1480ACTN    H515256   2.328   7.811   5.269  1.4747 -2.9980  0.3781
 1480ACTN    C215257   2.267   7.638   5.152  0.5078  0.0070  0.0183
 1480ACTN    O115258   2.218   7.590   5.047 -0.3905  0.0403  0.4105
 1480ACTN    C115259   2.272   7.554   5.270  0.8114  0.0581  0.3366
 1480ACTN    H115260   2.176   7.503   5.271  0.0385  1.3801 -2.0159
 1480ACTN    H215261   2.292   7.612   5.361  0.0681  0.3551  0.3167
 1480ACTN    H315262   2.349   7.481   5.245  0.6918  0.8147 -2.3923
 1481ACTN    H615263   6.883   7.820   2.163  0.0015  2.6027 -0.2987
 1481ACTN    C315264   6.926   7.871   2.250 -0.1257  1.2981  0.5442
 1481ACTN    H415265   6.853   7.912   2.320 -0.2003  1.4481  0.3797
 1481ACTN    H515266   6.992   7.805   2.306 -2.1213 -1.0334  0.2233
 1481ACTN    C215267   7.012   7.987   2.203 -0.6694 -0.1161 -0.1524
 1481ACTN    O115268   7.093   8.028   2.290  1.4625  0.0860  0.6699
 1481ACTN    C115269   7.021   8.034   2.061 -0.1700  0.7584  0.4515
 1481ACTN    H115270   6.935   7.991   2.009  0.9629 -1.3845  0.2805
 1481ACTN    H215271   7.116   8.001   2.018  0.2157  0.4948  1.4927
 1481ACTN    H315272   7.014   8.142   2.053 -0.6244  0.9260  2.7772
 1482ACTN    H615273   0.526   1.442   4.813 -1.2271 -1.0263  0.3469
 1482ACTN    C315274   0.475   1.506   4.741  0.1983 -0.6803 -0.3759
 1482ACTN    H415275   0.411   1.443   4.680  0.8091  1.2757 -3.1162
 1482ACTN    H515276   0.408   1.566   4.802 -1.0706 -1.6955 -0.7435
 1482ACTN    C215277   0.555   1.597   4.653 -0.2371 -0.4078 -0.3270
 1482ACTN    O115278   0.585   1.549   4.549 -0.3978  0.4576  0.5119
 1482ACTN    C115279   0.578   1.738   4.687  0.6582  0.1017 -0.7541
 1482ACTN    H115280   0.480   1.775   4.660 -1.7614 -4.6025  1.0182
 1482ACTN    H215281   0.654   1.790   4.628  1.6990  1.7757  1.9618
 1482ACTN    H315282   0.592   1.747   4.795  0.8787 -0.1084 -0.7645
 1483ACTN    H615283   6.546   0.688   2.369 -0.0395  1.1128  1.8138
 1483ACTN    C315284   6.595   0.754   2.298 -0.3301 -0.0067  0.5515
 1483ACTN    H415285   6.595   0.714   2.197  0.1319 -0.3534  0.6881
 1483ACTN    H515286   6.533   0.844   2.301  2.0784  1.8331 -1.8138
 1483ACTN    C215287   6.725   0.800   2.350 -0.6338  0.2074 -0.0922
 1483ACTN    O115288   6.735   0.828   2.469 -0.2023  0.2224 -0.1134
 1483ACTN    C115289   6.853   0.755   2.287 -0.0540 -0.2307  0.3440
 1483ACTN    H115290   6.932   0.821   2.324  0.7353 -0.2778 -1.2346
 1483ACTN    H215291   6.846   0.768   2.179  1.2296  0.2350  0.3089
 1483ACTN    H315292   6.881   0.651   2.306  1.5049  0.1620  0.2373
 1484ACTN    H615293   5.993   1.115   1.910  0.3266  0.0683 -0.5021
 1484ACTN    C315294   6.005   1.007   1.915  0.2866  0.0913  0.1392
 1484ACTN    H415295   6.028   0.978   1.812  1.5218  2.7616 -0.3869
 1484ACTN    H515296   6.089   0.971   1.975 -1.1138 -3.8012 -0.0643
 1484ACTN    C215297   5.880   0.944   1.969  0.4561  0.2067 -0.0792
 1484ACTN    O115298   5.822   1.015   2.056 -0.6581 -0.0380  0.2087
 1484ACTN    C115299   5.797   0.852   1.884  0.5398 -0.0585  0.9000
 1484ACTN    H115300   5.785   0.751   1.921 -1.0504 -0.8061 -1.5229
 1484ACTN    H215301   5.830   0.848   1.781  4.2536  2.0492  1.9254
 1484ACTN    H315302   5.695   0.893   1.879  1.7426  2.9188 -0.8388
 1485ACTN    H615303   4.003   8.686   3.308 -2.2701  1.5970  0.5230
 1485ACTN    C315304   3.957   8.616   3.239 -0.3195  0.2585  0.5430
 1485ACTN    H415305   3.960   8.648   3.134  0.6930  0.7873  0.7259
 1485ACTN    H515306   3.850   8.609   3.259 -0.3519 -1.1685 -0.0436
 1485ACTN    C215307   4.012   8.479   3.244 -0.0531 -0.1087  0.2302
 1485ACTN    O115308   4.107   8.443   3.180 -0.0015 -0.3212 -0.0791
 1485ACTN    C115309   3.930   8.365   3.290 -0.0805 -0.0990 -0.5187
 1485ACTN    H115310   3.870   8.384   3.380  0.6978  1.0007 -0.2272
 1485ACTN    H215311   3.993   8.278   3.305 -0.3502 -0.2003  0.0370
 1485ACTN    H315312   3.855   8.341   3.215 -0.1338  0.4509 -0.6408
 1486ACTN    H615313   3.459   3.889   1.481  0.9321  0.3494 -0.9220
 1486ACTN    C315314   3.417   3.985   1.451 -0.6985  0.0156  0.2332
 1486ACTN    H415315   3.309   3.981   1.461 -0.7958  0.3722 -0.6481
 1486ACTN    H515316   3.460   4.057   1.521  3.1500  1.5725 -3.5089
 1486ACTN    C215317   3.452   4.016   1.303 -1.0407  0.0311 -0.1583
 1486ACTN    O115318   3.543   3.962   1.245 -0.5368  0.0756 -0.2372
 1486ACTN    C115319   3.375   4.124   1.236  0.0013 -0.1292  0.1222
 1486ACTN    H115320   3.332   4.086   1.144  1.7316  0.2447 -0.8605
 1486ACTN    H215321   3.435   4.207   1.199  0.6172 -0.2188  0.8950
 1486ACTN    H315322   3.295   4.162   1.299  0.6910 -2.0151  2.1984
 1487ACTN    H615323   1.126   4.034   3.326  0.8919  1.1602  2.6234
 1487ACTN    C315324   1.193   4.088   3.259 -0.1168  0.0341  0.6247
 1487ACTN    H415325   1.137   4.113   3.170  0.7328 -0.2701 -0.0028
 1487ACTN    H515326   1.239   4.175   3.307  0.8956 -1.6423  2.8047
 1487ACTN    C215327   1.302   3.993   3.223  0.7078 -0.2656 -0.0311
 1487ACTN    O115328   1.391   3.966   3.301 -0.2512 -0.6829 -0.2931
 1487ACTN    C115329   1.308   3.948   3.079 -0.7133 -0.3213  0.3764
 1487ACTN    H115330   1.224   3.987   3.021 -1.7367  0.5103  2.3994
 1487ACTN    H215331   1.318   3.840   3.066  0.5956 -0.0960 -0.6895
 1487ACTN    H315332   1.394   3.995   3.031 -1.0635 -2.1551 -2.1619
 1488ACTN    H615333   0.489   7.311   6.510  0.0058  0.1786 -0.3061
 1488ACTN    C315334   0.381   7.301   6.520  0.1153 -0.9407 -0.1013
 1488ACTN    H415335   0.362   7.227   6.442 -0.0527 -0.1835 -0.7909
 1488ACTN    H515336   0.365   7.255   6.617 -1.0223  0.5577  0.4424
 1488ACTN    C215337   0.321   7.437   6.496 -0.4285 -0.5516  0.2019
 1488ACTN    O115338   0.258   7.493   6.586 -0.2009  0.5425 -0.1695
 1488ACTN    C115339   0.356   7.515   6.366 -0.2436  0.4968 -0.4504
 1488ACTN    H115340   0.432   7.457   6.314 -0.6408 -1.3455  0.9456
 1488ACTN    H215341   0.397   7.609   6.403 -2.4704  1.1848  0.3467
 1488ACTN    H315342   0.264   7.540   6.313  1.1663  4.0207 -1.3148
 1489ACTN    H615343   1.859   0.264   5.213  0.8532 -1.5746 -4.0744
 1489ACTN    C315344   1.759   0.290   5.177 -0.3183  0.1501  0.0888
 1489ACTN    H415345   1.748   0.263   5.072  2.8058 -1.7639  0.1589
 1489ACTN    H515346   1.675   0.247   5.231 -0.5696  1.0332  0.3961
 1489ACTN    C215347   1.741   0.435   5.177  0.8068 -0.3612  0.3188
 1489ACTN    O115348   1.828   0.509   5.130 -0.0821 -0.4322 -0.2496
 1489ACTN    C115349   1.620   0.510   5.236 -0.6677 -0.1958 -0.2980
 1489ACTN    H115350   1.562   0.564   5.161 -1.0147 -0.6370 -0.3491
 1489ACTN    H215351   1.658   0.574   5.316  0.1749 -0.3141 -0.5936
 1489ACTN    H315352   1.561   0.429   5.279 -1.7046 -0.1630 -1.6477
 1490ACTN    H615353   6.707   7.430   4.761 -0.0093  0.6036  0.1394
 1490ACTN    C315354   6.703   7.405   4.655  0.0691 -0.0068  0.2818
 1490ACTN    H415355   6.660   7.305   4.646 -0.1837  0.2947 -2.2388
 1490ACTN    H515356   6.637   7.480   4.611 -0.9072 -0.0784  1.5754
 1490ACTN    C215357   6.841   7.416   4.600 -0.2218  0.3468  0.2289
 1490ACTN    O115358   6.879   7.367   4.496  0.4686 -0.4173 -0.3738
 1490ACTN    C115359   6.948   7.475   4.688  0.6968 -0.1941  0.0675
 1490ACTN    H115360   6.905   7.494   4.786  0.4996  1.4265 -0.3195
 1490ACTN    H215361   6.980   7.571   4.649  1.5391 -0.2764  0.5532
 1490ACTN    H315362   7.040   7.417   4.696  0.7312 -0.0537  0.6686
 1491ACTN    H615363   8.653   7.435   3.519  1.5766 -0.1638  0.3433
 1491ACTN    C315364   8.633   7.490   3.428 -0.0721  0.0448  0.8284
 1491ACTN    H415365   8.653   7.426   3.342  2.3859  0.3950  1.1260
 1491ACTN    H515366   8.527   7.519   3.426  0.7054  3.2096  1.8968
 1491ACTN    C215367   8.710   7.613   3.411 -0.5474 -0.0042 -0.2996
 1491ACTN    O115368   8.764   7.658   3.514 -0.0335 -0.4219  0.3996
 1491ACTN    C115369   8.755   7.667   3.281  0.2543 -0.2611  0.1212
 1491ACTN    H115370   8.863   7.671   3.268  0.2358 -0.4621 -0.1059
 1491ACTN    H215371   8.722   7.770   3.272 -0.9440 -0.6632 -0.1582
 1491ACTN    H315372   8.712   7.607   3.201 -0.1215  0.9801 -0.6200
 1492ACTN    H615373   1.266   2.597   5.970  0.0408 -0.9680  0.2231
 1492ACTN    C315374   1.373   2.599   5.949  0.2075 -0.4052  1.0705
 1492ACTN    H415375   1.408   2.693   5.991  1.1781  0.7447 -2.1909
 1492ACTN    H515376   1.413   2.516   6.008  0.2671 -0.2778  1.2082
 1492ACTN    C215377   1.406   2.578   5.801  0.2975  0.4374 -0.7333
 1492ACTN    O115378   1.343   2.493   5.741  0.6600  0.1644 -0.5745
 1492ACTN    C115379   1.519   2.654   5.735 -0.2193  0.1389  0.8931
 1492ACTN    H115380   1.481   2.738   5.677  0.4848 -0.1031  0.0686
 1492ACTN    H215381   1.560   2.585   5.662 -0.2012 -0.8241  1.8014
 1492ACTN    H315382   1.591   2.686   5.810 -0.9309 -1.2508  2.1983
 1493ACTN    H615383   1.699   5.646   1.177 -1.1773  2.3978  1.3553
 1493ACTN    C315384   1.598   5.614   1.153 -0.3020  0.6336 -0.1047
 1493ACTN    H415385   1.521   5.675   1.200 -1.3850 -0.0271 -0.9973
 1493ACTN    H515386   1.600   5.620   1.044 -1.2522 -0.3289 -0.1913
 1493ACTN    C215387   1.561   5.471   1.188 -0.4471  0.3610  0.0820
 1493ACTN    O115388   1.642   5.389   1.164  0.1756  0.0343 -0.1888
 1493ACTN    C115389   1.449   5.448   1.284  0.1695  0.1975 -0.0150
 1493ACTN    H115390   1.482   5.462   1.387  0.1762  1.2665 -0.1504
 1493ACTN    H215391   1.417   5.345   1.272  2.6816 -0.4614 -1.5636
 1493ACTN    H315392   1.371   5.519   1.257  2.2565  2.4017 -0.5221
 1494ACTN    H615393   5.483   0.142   6.801  3.2069 -0.2714 -0.0538
 1494ACTN    C315394   5.462   0.038   6.775  0.0411  0.4209 -0.3979
 1494ACTN    H415395   5.539  -0.003   6.710  1.1323  1.4108  0.2475
 1494ACTN    H515396   5.496  -0.012   6.866 -0.6386  1.6935  0.5856
 1494ACTN    C215397   5.319   0.012   6.729  0.0706  0.4664  0.0077
 1494ACTN    O115398   5.231   0.082   6.780  0.1579 -0.5712 -0.6964
 1494ACTN    C115399   5.274  -0.123   6.680 -0.0254 -0.4268 -0.4460
 1494ACTN    H115400   5.322  -0.202   6.738  0.4739 -0.4957 -0.9469
 1494ACTN    H215401   5.296  -0.141   6.575 -1.1174 -0.2434 -0.7029
 1494ACTN    H315402   5.168  -0.141   6.697  0.4568 -2.9020  0.2318
 1495ACTN    H615403   7.848   8.831   6.191  1.8921  1.1392  1.9064
 1495ACTN    C315404   7.928   8.787   6.132 -0.5455 -0.1744 -0.5085
 1495ACTN    H415405   8.018   8.783   6.192 -1.7594 -2.6427  1.2069
 1495ACTN    H515406   7.907   8.682   6.111 -2.0513  0.2337 -1.1297
 1495ACTN    C215407   7.979   8.867   6.011  0.2512 -0.0534 -0.7966
 1495ACTN    O115408   7.946   8.984   5.988  0.3934  0.3045  0.4200
 1495ACTN    C115409   8.070   8.812   5.915 -0.1974  0.9633  0.4091
 1495ACTN    H115410   8.163   8.842   5.962 -0.9170  3.2010  0.4542
 1495ACTN    H215411   8.063   8.851   5.813 -0.6887  1.4723  0.6340
 1495ACTN    H315412   8.072   8.703   5.915  2.1259  0.9890  0.7229
 1496ACTN    H615413   8.175   4.292   5.165  2.5787 -2.8334 -0.7888
 1496ACTN    C315414   8.252   4.334   5.230  0.1230  0.6020  0.0553
 1496ACTN    H415415   8.221   4.435   5.258 -0.5945  0.1812  0.8107
 1496ACTN    H515416   8.253   4.280   5.325  0.6303 -1.1494 -0.9299
 1496ACTN    C215417   8.389   4.331   5.173 -0.6886 -0.3494  1.1893
 1496ACTN    O115418   8.404   4.353   5.050  0.4283 -0.0651  0.3559
 1496ACTN    C115419   8.498   4.257   5.238 -0.6386  0.0268 -0.1900
 1496ACTN    H115420   8.473   4.268   5.344  0.8051  2.6091 -0.0645
 1496ACTN    H215421   8.589   4.316   5.228 -0.1767 -0.0876  2.7220
 1496ACTN    H315422   8.503   4.154   5.202  1.9326 -0.6538  1.9570
 1497ACTN    H615423   2.861   8.729   1.845 -1.6612 -0.8555  0.7905
 1497ACTN    C315424   2.869   8.763   1.948 -0.1714 -0.6820  0.6270
 1497ACTN    H415425   2.835   8.867   1.953  0.8276 -0.2516 -1.2163
 1497ACTN    H515426   2.800   8.702   2.006 -1.0038  0.4037  0.7935
 1497ACTN    C215427   3.013   8.750   2.005 -0.1285  0.4758  0.7073
 1497ACTN    O115428   3.050   8.834   2.084  0.5876 -0.4645 -0.6879
 1497ACTN    C115429   3.081   8.620   1.993 -0.0931  1.1110  1.2418
 1497ACTN    H115430   3.015   8.547   1.945  0.9733  1.1323 -0.2855
 1497ACTN    H215431   3.104   8.572   2.088 -0.1908 -4.1732 -1.1933
 1497ACTN    H315432   3.173   8.629   1.935 -0.2768  0.3253  0.8226
 1498ACTN    H615433   1.610   1.256   2.172  1.0306 -1.1342 -0.9694
 1498ACTN    C315434   1.667   1.269   2.264 -0.5229  0.4493 -0.1923
 1498ACTN    H415435   1.639   1.188   2.332 -0.8138  0.2115 -0.5868
 1498ACTN    H515436   1.772   1.262   2.235 -0.0296  5.7336 -0.0887
 1498ACTN    C215437   1.647   1.401   2.338  0.8202  0.0319 -0.1642
 1498ACTN    O115438   1.562   1.481   2.297 -0.0033  0.2873 -0.4567
 1498ACTN    C115439   1.709   1.425   2.461 -0.2209 -0.0713  0.6733
 1498ACTN    H115440   1.816   1.407   2.457  0.2135  2.0365  2.0319
 1498ACTN    H215441   1.666   1.357   2.536 -2.5300  0.2962 -0.2614
 1498ACTN    H315442   1.691   1.527   2.494 -4.3469  0.1816 -1.9878
 1499ACTN    H615443   5.823   4.654   3.433  0.8778 -0.3335  3.0082
 1499ACTN    C315444   5.895   4.582   3.394 -0.1000  0.1942  0.0885
 1499ACTN    H415445   5.845   4.487   3.375  1.0854 -0.3533 -0.3306
 1499ACTN    H515446   5.945   4.609   3.302  1.3372  0.4200  0.9215
 1499ACTN    C215447   6.005   4.571   3.493  0.2782 -0.4822  0.2944
 1499ACTN    O115448   6.114   4.521   3.467  0.1321 -0.5358 -0.5323
 1499ACTN    C115449   5.993   4.654   3.618 -0.2611  0.2279  0.4517
 1499ACTN    H115450   5.920   4.607   3.684  1.0708 -1.9435  0.4211
 1499ACTN    H215451   5.960   4.757   3.603  0.3759  0.4316  0.4686
 1499ACTN    H315452   6.089   4.648   3.668 -1.0815 -2.4132  1.8430
 1500ACTN    H615453   6.783   5.317   2.438  0.8145 -1.2202  1.2028
 1500ACTN    C315454   6.713   5.241   2.401  0.2380  0.1939 -0.6822
 1500ACTN    H415455   6.676   5.285   2.309 -1.6021  2.8421  1.2461
 1500ACTN    H515456   6.766   5.147   2.386 -1.4477 -0.8073 -0.4501
 1500ACTN    C215457   6.597   5.214   2.504 -0.2778 -0.5857 -0.2951
 1500ACTN    O115458   6.636   5.212   2.616 -0.1451  0.4289 -0.9809
 1500ACTN    C115459   6.453   5.228   2.457 -0.0920 -0.3010  0.3212
 1500ACTN    H115460   6.444   5.214   2.350 -2.5785  3.6544 -0.0916
 1500ACTN    H215461   6.409   5.323   2.486 -0.8044  0.7607 -4.0046
 1500ACTN    H315462   6.397   5.147   2.504 -1.0215  1.5427  2.4671
 1501ACTN    H615463   2.462   6.430   3.803 -1.0877 -1.0610  0.6188
 1501ACTN    C315464   2.452   6.375   3.709 -0.5684 -0.4102  0.1755
 1501ACTN    H415465   2.429   6.273   3.738 -2.0790 -0.4726 -1.1453
 1501ACTN    H515466   2.365   6.400   3.647 -0.6164 -0.3798  0.2541
 1501ACTN    C215467   2.570   6.409   3.621  0.2758  0.3152  0.4430
 1501ACTN    O115468   2.639   6.314   3.573 -0.6162 -0.0844 -0.2977
 1501ACTN    C115469   2.592   6.545   3.571 -0.4955 -0.2507  0.6512
 1501ACTN    H115470   2.661   6.595   3.640 -0.5166  1.4462 -0.5457
 1501ACTN    H215471   2.504   6.608   3.565  0.4646  0.9700 -1.2474
 1501ACTN    H315472   2.641   6.550   3.474 -0.8496  2.3563  0.5632
 1502ACTN    H615473   6.261   3.815   3.797  1.6550  0.4312  1.0167
 1502ACTN    C315474   6.235   3.734   3.865 -0.5084  0.4854  0.2785
 1502ACTN    H415475   6.172   3.768   3.948 -1.1918 -0.2173  0.0525
 1502ACTN    H515476   6.167   3.660   3.822 -2.0115  2.3838 -0.6850
 1502ACTN    C215477   6.355   3.660   3.915 -0.0319  0.4813 -0.3726
 1502ACTN    O115478   6.469   3.668   3.877 -0.7584 -0.2878 -0.0324
 1502ACTN    C115479   6.317   3.540   3.994  0.4202 -0.2707  0.8197
 1502ACTN    H115480   6.237   3.476   3.957  1.3834 -2.0364  1.7440
 1502ACTN    H215481   6.281   3.579   4.089  0.2074  2.7613 -0.4397
 1502ACTN    H315482   6.402   3.478   4.021  0.5713 -0.3186  0.2361
 1503ACTN    H615483   8.060   1.278   5.832 -1.1110 -0.6567  1.0084
 1503ACTN    C315484   7.996   1.365   5.841 -0.3032 -0.0039  0.5497
 1503ACTN    H415485   8.049   1.460   5.837 -1.1216  0.3904 -2.2007
 1503ACTN    H515486   7.931   1.362   5.754 -0.3821  2.0103  0.5150
 1503ACTN    C215487   7.900   1.348   5.959 -0.1038 -0.1209 -0.5528
 1503ACTN    O115488   7.879   1.430   6.046  0.1873 -0.4110 -0.3930
 1503ACTN    C115489   7.824   1.217   5.970 -0.3651 -0.5065  0.6694
 1503ACTN    H115490   7.890   1.130   5.963 -0.9946 -0.9190 -0.4323
 1503ACTN    H215491   7.751   1.201   5.891 -1.2000  1.0611  1.1097
 1503ACTN    H315492   7.775   1.202   6.066  0.2802  0.1154  1.1019
 1504ACTN    H615493   1.145   1.305   1.398  0.2993 -0.6359 -0.2618
 1504ACTN    C315494   1.156   1.377   1.317 -0.3329 -0.3013 -0.0481
 1504ACTN    H415495   1.263   1.397   1.309 -0.3139 -0.5867 -0.5150
 1504ACTN    H515496   1.119   1.332   1.225  2.8948 -0.2228 -1.4356
 1504ACTN    C215497   1.084   1.498   1.352 -0.2065  0.2233  0.8287
 1504ACTN    O115498   0.991   1.537   1.277  0.3636 -0.2976 -0.1304
 1504ACTN    C115499   1.108   1.553   1.483  0.0045  0.3901 -0.6858
 1504ACTN    H115500   1.055   1.496   1.559  1.0832 -0.9974 -0.9527
 1504ACTN    H215501   1.076   1.657   1.476 -0.6347  0.1621 -1.2280
 1504ACTN    H315502   1.215   1.545   1.497  0.0242  0.5833 -0.7237
 1505ACTN    H615503   0.913   8.849   3.471  0.4994 -0.6214  2.1617
 1505ACTN    C315504   0.922   8.947   3.519  0.9009  0.2895  0.2787
 1505ACTN    H415505   0.992   9.013   3.468  0.4554 -0.2917 -1.1162
 1505ACTN    H515506   0.828   9.002   3.517  0.7669  0.2543  3.1704
 1505ACTN    C215507   0.970   8.930   3.657  0.7573  0.4310 -0.3102
 1505ACTN    O115508   0.948   8.825   3.708  0.7091  0.0772 -0.0942
 1505ACTN    C115509   1.062   9.032   3.718 -0.5279 -0.3652 -0.2392
 1505ACTN    H115510   1.022   9.060   3.816 -0.2360  1.1896 -0.5497
 1505ACTN    H215511   1.075   9.121   3.657  1.2543  0.2397  0.9912
 1505ACTN    H315512   1.163   8.996   3.737 -0.4557  0.5442  1.2712
 1506ACTN    H615513   1.927   2.122   3.535  1.0492 -0.3893  0.2555
 1506ACTN    C315514   1.944   2.021   3.497 -0.0451 -0.5731  0.2266
 1506ACTN    H415515   1.959   2.031   3.390  2.8198  1.2254  0.7438
 1506ACTN    H515516   2.039   1.990   3.542 -0.2330  0.5204  1.4038
 1506ACTN    C215517   1.830   1.924   3.527 -0.6708 -0.0508  0.8652
 1506ACTN    O115518   1.791   1.914   3.639  0.0226 -0.2751 -0.0960
 1506ACTN    C115519   1.770   1.843   3.414 -0.5503 -0.1076 -0.3742
 1506ACTN    H115520   1.841   1.782   3.358  3.0827  1.5948  2.1263
 1506ACTN    H215521   1.712   1.905   3.346 -1.4506  0.8029  1.2034
 1506ACTN    H315522   1.697   1.776   3.460  1.0710 -0.4976  1.7465
 1507ACTN    H615523   5.392   0.259   4.136 -2.9574  2.0245  0.0083
 1507ACTN    C315524   5.401   0.281   4.242  0.0100 -0.3381  0.3287
 1507ACTN    H415525   5.305   0.313   4.282 -0.2306  0.2740 -0.7311
 1507ACTN    H515526   5.429   0.186   4.287 -0.2638  0.3173  1.9222
 1507ACTN    C215527   5.505   0.383   4.257 -0.6660  0.1731  0.2211
 1507ACTN    O115528   5.523   0.474   4.179 -0.6417  0.0648  0.1605
 1507ACTN    C115529   5.617   0.363   4.351  1.0399 -0.3454  0.4910
 1507ACTN    H115530   5.686   0.282   4.326  3.0898  0.8757  2.0291
 1507ACTN    H215531   5.583   0.335   4.451 -1.3676  0.1256 -0.1494
 1507ACTN    H315532   5.683   0.446   4.376  1.3442 -0.6958  0.8589
 1508ACTN    H615533   4.257   4.175   0.415 -0.7301 -0.6049 -0.6593
 1508ACTN    C315534   4.200   4.257   0.458 -0.1643 -0.9710  0.8187
 1508ACTN    H415535   4.107   4.209   0.492 -1.4872  0.0751 -1.2360
 1508ACTN    H515536   4.258   4.309   0.534 -0.1915  0.0780  0.1260
 1508ACTN    C215537   4.175   4.345   0.337  0.2201  0.5883  0.3552
 1508ACTN    O115538   4.271   4.371   0.263 -0.0923  0.4854 -0.0131
 1508ACTN    C115539   4.061   4.441   0.331  0.6481 -0.1681  0.4652
 1508ACTN    H115540   4.088   4.546   0.346  3.7508 -0.8162 -0.3360
 1508ACTN    H215541   3.984   4.418   0.405  0.3666 -0.3768  0.1051
 1508ACTN    H315542   4.018   4.436   0.231  1.3786 -1.3736  0.2084
 1509ACTN    H615543   8.509   5.111   0.835 -0.3559  1.7219 -1.6569
 1509ACTN    C315544   8.415   5.154   0.869 -0.4127  0.0523  0.4374
 1509ACTN    H415545   8.409   5.137   0.976 -3.2321 -0.5156  0.2291
 1509ACTN    H515546   8.328   5.104   0.827 -1.4391  2.3841 -0.3534
 1509ACTN    C215547   8.406   5.302   0.841 -0.5027  0.6120 -1.0540
 1509ACTN    O115548   8.327   5.341   0.766 -0.3527 -0.3626 -0.3520
 1509ACTN    C115549   8.506   5.390   0.912 -0.0752 -0.1503  0.6334
 1509ACTN    H115550   8.472   5.468   0.981 -0.0466  0.5091 -0.1032
 1509ACTN    H215551   8.566   5.443   0.838 -0.4542 -0.2310  0.2696
 1509ACTN    H315552   8.581   5.333   0.967 -0.2112 -0.1715  0.7988
 1510ACTN    H615553   6.986   5.697   1.439 -0.0592 -0.0589  1.3241
 1510ACTN    C315554   6.956   5.802   1.433 -0.1119 -0.1715 -0.7652
 1510ACTN    H415555   6.932   5.833   1.332 -1.5942 -1.3575 -0.7909
 1510ACTN    H515556   6.860   5.809   1.483 -0.9135 -2.7039 -1.8721
 1510ACTN    C215557   7.046   5.897   1.507  0.6607 -0.3399 -0.0453
 1510ACTN    O115558   7.002   6.008   1.539  0.0906  0.4214 -0.3922
 1510ACTN    C115559   7.187   5.865   1.512 -0.5650 -0.0621  0.0608
 1510ACTN    H115560   7.237   5.944   1.455  0.2041 -0.3139  0.3771
 1510ACTN    H215561   7.214   5.769   1.468 -1.5102  0.5096 -1.8400
 1510ACTN    H315562   7.221   5.865   1.615 -1.5475  0.7750  0.3880
 1511ACTN    H615563   6.665   5.362   0.880  2.7254 -1.1021 -1.1436
 1511ACTN    C315564   6.621   5.417   0.798  0.5958 -0.2627  0.5209
 1511ACTN    H415565   6.706   5.482   0.777 -0.9680  1.4011 -0.9144
 1511ACTN    H515566   6.604   5.351   0.713 -1.5086 -0.2539  0.9027
 1511ACTN    C215567   6.494   5.498   0.833 -0.3534  0.6075  0.3972
 1511ACTN    O115568   6.507   5.613   0.870  0.3048 -0.1622  0.1512
 1511ACTN    C115569   6.365   5.431   0.811  0.1930 -0.7890  0.0553
 1511ACTN    H115570   6.301   5.501   0.755  0.3261  0.1579  1.0653
 1511ACTN    H215571   6.315   5.387   0.898  0.3411  0.1354  0.6157
 1511ACTN    H315572   6.378   5.349   0.741 -0.6478 -0.1757 -0.8453
 1512ACTN    H615573   6.618   8.654   5.379  0.7935 -0.5188 -1.3798
 1512ACTN    C315574   6.686   8.739   5.387 -0.2358  0.1631  0.5468
 1512ACTN    H415575   6.675   8.790   5.291 -0.7966 -0.2745  0.3761
 1512ACTN    H515576   6.655   8.804   5.469  0.3608  0.8656  0.2176
 1512ACTN    C215577   6.828   8.703   5.414  0.8320  0.6324  0.3153
 1512ACTN    O115578   6.868   8.589   5.389 -0.1585 -0.1100 -1.7527
 1512ACTN    C115579   6.920   8.810   5.466  0.1388  0.3879 -0.7077
 1512ACTN    H115580   6.882   8.853   5.558 -0.4507  1.1500 -1.3030
 1512ACTN    H215581   6.930   8.888   5.390 -1.3414 -1.7473 -3.1677
 1512ACTN    H315582   7.018   8.766   5.487 -0.8178 -1.1814  0.6018
 1513ACTN    H615583   8.927   0.695   7.074  0.7172  1.8906 -1.4427
 1513ACTN    C315584   8.832   0.731   7.112  0.5060  0.2775 -0.3688
 1513ACTN    H415585   8.860   0.801   7.190  0.9638 -0.7066  0.3517
 1513ACTN    H515586   8.777   0.780   7.031  2.8518  0.0947 -2.1206
 1513ACTN    C215587   8.768   0.616   7.183 -0.1898 -0.3307 -0.2923
 1513ACTN    O115588   8.642   0.616   7.186  0.0703 -0.3612  0.0976
 1513ACTN    C115589   8.839   0.489   7.205  0.1438 -0.1095 -0.0477
 1513ACTN    H115590   8.800   0.413   7.137  0.7548 -1.1647  0.7579
 1513ACTN    H215591   8.825   0.470   7.311 -0.1943  2.4174  0.3700
 1513ACTN    H315592   8.946   0.492   7.181 -0.3740 -1.0796 -2.7084
 1514ACTN    H615593   1.258   7.629   1.658 -2.2287  0.4019 -1.7232
 1514ACTN    C315594   1.220   7.701   1.730  0.7176 -0.0917  0.3729
 1514ACTN    H415595   1.276   7.794   1.721 -0.6954  0.5073 -2.4991
 1514ACTN    H515596   1.114   7.724   1.718  0.9255  0.2792 -0.8139
 1514ACTN    C215597   1.243   7.658   1.873  0.2915  0.1054  0.0598
 1514ACTN    O115598   1.239   7.734   1.963  0.5297 -0.6761  0.4832
 1514ACTN    C115599   1.308   7.519   1.895  0.1511 -0.5759 -0.5704
 1514ACTN    H115600   1.313   7.465   1.800 -2.1514 -0.2874 -0.8820
 1514ACTN    H215601   1.250   7.448   1.954  1.0970 -0.5166  0.4325
 1514ACTN    H315602   1.405   7.526   1.943  0.3681  0.0569 -1.0924
 1515ACTN    H615603   7.717   8.409   4.695 -1.1145 -1.5432 -1.8812
 1515ACTN    C315604   7.636   8.473   4.727  0.2841 -0.6331 -0.0044
 1515ACTN    H415605   7.587   8.427   4.813 -0.1492 -1.4312 -0.6674
 1515ACTN    H515606   7.560   8.467   4.648 -1.0243  2.7302  0.9201
 1515ACTN    C215607   7.679   8.615   4.744  0.3634  0.5381 -0.0325
 1515ACTN    O115608   7.731   8.667   4.648 -0.2463  0.3918 -0.1801
 1515ACTN    C115609   7.704   8.664   4.878 -0.3466  0.5485 -0.8540
 1515ACTN    H115610   7.802   8.627   4.908  0.7639  1.1548 -3.5609
 1515ACTN    H215611   7.626   8.626   4.944  1.3470  4.3063  3.5458
 1515ACTN    H315612   7.711   8.772   4.887  0.1805  0.2411  3.0718
 1516ACTN    H615613   6.916   6.346   3.953  0.9158 -2.3450  0.2899
 1516ACTN    C315614   6.827   6.325   3.893  0.2571 -0.9549  0.7504
 1516ACTN    H415615   6.850   6.341   3.788 -0.1962 -0.5773  0.7107
 1516ACTN    H515616   6.789   6.226   3.919 -2.3373 -0.7022 -1.8576
 1516ACTN    C215617   6.723   6.416   3.919  0.4518  0.3827  0.2064
 1516ACTN    O115618   6.740   6.505   4.000  0.5338 -0.1362 -0.5681
 1516ACTN    C115619   6.591   6.404   3.848 -0.8145 -0.4429 -0.0398
 1516ACTN    H115620   6.535   6.492   3.879  0.0674  0.3188 -0.5649
 1516ACTN    H215621   6.546   6.308   3.872  0.4185 -0.9049  0.4706
 1516ACTN    H315622   6.599   6.412   3.739 -1.6614 -1.4967 -0.1792
 1517ACTN    H615623   4.398   0.609   3.950  2.0265 -0.3326 -1.9584
 1517ACTN    C315624   4.455   0.583   4.039  0.1168  0.3835 -0.4975
 1517ACTN    H415625   4.482   0.477   4.036  1.6212  0.7148  0.9357
 1517ACTN    H515626   4.547   0.636   4.018  0.2677  0.1188 -0.5109
 1517ACTN    C215627   4.386   0.626   4.167 -1.1212 -0.0929 -0.1822
 1517ACTN    O115628   4.447   0.688   4.253  0.0015 -0.6071  0.0652
 1517ACTN    C115629   4.241   0.590   4.189  0.6981  0.3454 -0.2048
 1517ACTN    H115630   4.218   0.551   4.288 -0.9125  0.4974 -0.4977
 1517ACTN    H215631   4.222   0.514   4.113  1.4898 -0.5623  0.5009
 1517ACTN    H315632   4.187   0.683   4.170  0.6952  0.6892  1.4029
 1518ACTN    H615633   5.242   0.552   6.388 -1.1153  2.0766 -2.9742
 1518ACTN    C315634   5.281   0.642   6.436  0.3886  0.1255 -0.4192
 1518ACTN    H415635   5.192   0.702   6.451 -0.2208 -0.7719 -0.4097
 1518ACTN    H515636   5.320   0.624   6.536  1.5242  0.9168 -0.7170
 1518ACTN    C215637   5.389   0.712   6.350 -0.2360 -0.3319  0.1969
 1518ACTN    O115638   5.487   0.645   6.326 -0.4758 -0.0483 -0.2365
 1518ACTN    C115639   5.364   0.851   6.301  0.1525 -0.5813  0.7651
 1518ACTN    H115640   5.411   0.919   6.372  0.4474 -0.5434  0.5338
 1518ACTN    H215641   5.256   0.868   6.304 -0.2701 -2.2438 -2.5421
 1518ACTN    H315642   5.401   0.881   6.203  0.3814 -0.9684  0.7339
 1519ACTN    H615643   8.365   0.256   2.082 -0.7438  0.1877  0.7565
 1519ACTN    C315644   8.270   0.281   2.037  0.1399  0.6156 -0.9125
 1519ACTN    H415645   8.232   0.189   1.992  0.2580  0.8321 -1.4572
 1519ACTN    H515646   8.196   0.304   2.114 -1.8337 -0.5703 -2.3782
 1519ACTN    C215647   8.291   0.408   1.945 -0.0933  0.9189  0.3702
 1519ACTN    O115648   8.235   0.516   1.957  0.2060  0.0387 -0.0409
 1519ACTN    C115649   8.395   0.397   1.845 -0.8243 -0.4434 -0.1631
 1519ACTN    H115650   8.365   0.417   1.742 -2.0254  1.6639  0.5764
 1519ACTN    H215651   8.435   0.296   1.853 -1.4244 -0.7150 -0.5427
 1519ACTN    H315652   8.470   0.472   1.870  1.6189 -1.9744 -2.5791
 1520ACTN    H615653   8.054   4.054   3.226  1.0758 -2.1620 -2.0641
 1520ACTN    C315654   8.023   4.124   3.149  0.3201  0.1310  0.2305
 1520ACTN    H415655   8.023   4.075   3.051  1.9444 -0.6832  0.6323
 1520ACTN    H515656   7.920   4.154   3.170  0.7345  1.3715  0.5499
 1520ACTN    C215657   8.108   4.251   3.155  0.3050  0.4366 -0.8907
 1520ACTN    O115658   8.172   4.284   3.058  0.0741  0.1561 -0.4929
 1520ACTN    C115659   8.142   4.304   3.294 -0.4483 -0.6797  0.0021
 1520ACTN    H115660   8.250   4.291   3.303 -0.3394  0.5898  0.6333
 1520ACTN    H215661   8.097   4.239   3.369 -0.2557  1.3701  1.9516
 1520ACTN    H315662   8.110   4.407   3.313 -0.1737 -1.2456  4.0321
 1521ACTN    H615663   2.652   4.650   3.760  1.2556  1.6668  0.4046
 1521ACTN    C315664   2.670   4.674   3.655  0.7297  1.1633  0.1938
 1521ACTN    H415665   2.643   4.584   3.600 -0.6207  1.1087  0.9178
 1521ACTN    H515666   2.606   4.756   3.622  0.3855  0.6809 -0.3398
 1521ACTN    C215667   2.814   4.707   3.629 -0.8700  0.6298 -0.3954
 1521ACTN    O115668   2.906   4.693   3.710 -0.2400  0.4000  0.2105
 1521ACTN    C115669   2.857   4.774   3.507  0.3720 -0.3738  0.4409
 1521ACTN    H115670   2.769   4.795   3.447  0.2680 -0.2689  0.6300
 1521ACTN    H215671   2.930   4.725   3.442  0.2862  1.5648 -1.1667
 1521ACTN    H315672   2.890   4.878   3.515  0.1600 -0.3007  0.3650
 1522ACTN    H615673   5.364   8.969   5.960 -1.6894 -1.7707 -3.0771
 1522ACTN    C315674   5.341   8.884   6.024 -0.5375  0.2707  0.1289
 1522ACTN    H415675   5.317   8.802   5.956 -2.0164 -0.1547  1.1246
 1522ACTN    H515676   5.428   8.864   6.087  0.6543 -0.5090 -1.7484
 1522ACTN    C215677   5.223   8.915   6.115 -0.2993 -0.0287  0.4906
 1522ACTN    O115678   5.235   8.954   6.232 -0.4527  0.4823 -0.2008
 1522ACTN    C115679   5.092   8.926   6.046  1.3406 -0.5523 -0.2700
 1522ACTN    H115680   5.093   9.015   5.983  2.8819  0.1096  0.6487
 1522ACTN    H215681   4.999   8.919   6.103  2.4629 -2.5006  1.3902
 1522ACTN    H315682   5.075   8.846   5.975 -3.9651  0.2127 -0.0344
 1523ACTN    H615683   2.965   0.677   5.718 -0.9044  0.4002  2.2151
 1523ACTN    C315684   3.067   0.684   5.755  0.0769  0.1634 -0.3208
 1523ACTN    H415685   3.129   0.636   5.680 -0.4898 -1.1810  0.0540
 1523ACTN    H515686   3.092   0.790   5.759  1.1209 -0.0684 -0.6047
 1523ACTN    C215687   3.078   0.621   5.884 -0.0642 -0.3915 -0.2977
 1523ACTN    O115688   3.018   0.520   5.908  0.1667  0.1998  0.7022
 1523ACTN    C115689   3.150   0.678   5.998  0.4152  0.5236 -0.1582
 1523ACTN    H115690   3.076   0.698   6.075  0.4301 -2.7127  0.8127
 1523ACTN    H215691   3.196   0.770   5.963  1.4371 -0.6242 -1.8939
 1523ACTN    H315692   3.227   0.610   6.036  0.3755  2.1808  3.1033
 1524ACTN    H615693   1.765   5.141   8.370  1.2566 -1.4631 -1.6806
 1524ACTN    C315694   1.746   5.058   8.438 -0.2237  0.4483  0.3167
 1524ACTN    H415695   1.680   5.078   8.522  0.4901  0.8145  0.7941
 1524ACTN    H515696   1.705   4.971   8.386  1.0619  0.5197 -0.8455
 1524ACTN    C215697   1.877   5.013   8.498  0.8049  0.4378  0.2124
 1524ACTN    O115698   1.936   5.085   8.573 -0.0241  0.3899 -0.2280
 1524ACTN    C115699   1.945   4.895   8.447  0.0479  0.1337  0.0475
 1524ACTN    H115700   2.052   4.911   8.444  0.5829 -1.7918  4.5280
 1524ACTN    H215701   1.907   4.877   8.346  2.4093  2.2311 -1.2706
 1524ACTN    H315702   1.922   4.806   8.505 -0.5475  0.3550  0.1532
 1525ACTN    H615703   7.061   1.900   0.955  1.2379 -2.1340  2.7859
 1525ACTN    C315704   7.088   1.968   1.036  0.0638  0.5874  0.9568
 1525ACTN    H415705   7.163   1.912   1.091 -0.0018 -1.0906 -0.6123
 1525ACTN    H515706   7.151   2.049   1.000  1.4785 -0.7450  0.3377
 1525ACTN    C215707   6.971   2.023   1.117 -0.0071 -0.1516 -0.4340
 1525ACTN    O115708   6.986   2.065   1.237 -0.3855  0.4885 -0.1294
 1525ACTN    C115709   6.827   1.997   1.077  0.2613  0.0009  0.0627
 1525ACTN    H115710   6.788   2.099   1.070 -1.9492 -0.7268  1.3454
 1525ACTN    H215711   6.764   1.935   1.142  1.2022  0.5778  1.5438
 1525ACTN    H315712   6.810   1.966   0.974  0.9276 -0.9653  0.2427
 1526ACTN    H615713   6.130   0.061   3.977  0.4875  0.6967 -0.4517
 1526ACTN    C315714   6.196   0.094   4.059  0.1175 -0.2592  0.2350
 1526ACTN    H415715   6.263   0.010   4.078 -1.0232 -1.2356  0.0609
 1526ACTN    H515716   6.251   0.174   4.010  1.1988  0.0625  1.9478
 1526ACTN    C215717   6.113   0.130   4.178 -0.0035 -0.7457  0.4610
 1526ACTN    O115718   6.170   0.168   4.277 -0.7688 -0.9398  0.1817
 1526ACTN    C115719   5.967   0.121   4.180 -0.2064 -0.0476 -0.2247
 1526ACTN    H115720   5.937   0.040   4.246 -0.5169  0.5316  0.3503
 1526ACTN    H215721   5.938   0.096   4.078  0.2421 -1.5594 -0.0004
 1526ACTN    H315722   5.930   0.219   4.211  2.5078  0.8924  0.2146
 1527ACTN    H615723   4.904   8.849   4.448  0.4262  0.6449 -0.0390
 1527ACTN    C315724   4.813   8.909   4.451  0.0310  0.0961 -1.0228
 1527ACTN    H415725   4.742   8.843   4.501  1.7409  0.8248  2.5005
 1527ACTN    H515726   4.838   8.988   4.522  1.2756 -1.0953 -0.1188
 1527ACTN    C215727   4.746   8.954   4.324  0.7072  0.2501  0.4762
 1527ACTN    O115728   4.772   9.066   4.281 -0.6211 -0.0144 -0.6510
 1527ACTN    C115729   4.685   8.843   4.245  0.2235  0.0827 -0.4159
 1527ACTN    H115730   4.619   8.874   4.164  1.0612  1.6398 -0.5079
 1527ACTN    H215731   4.625   8.778   4.308  0.6338  1.3983  1.3805
 1527ACTN    H315732   4.756   8.781   4.191  0.6260 -0.5924  0.8639
 1528ACTN    H615733   6.162   1.714   0.243 -1.0247  0.6124  1.3581
 1528ACTN    C315734   6.202   1.768   0.329  0.9778  0.4406  0.5426
 1528ACTN    H415735   6.141   1.855   0.351  0.2972  0.2463 -0.5254
 1528ACTN    H515736   6.195   1.689   0.404 -0.2096 -0.6031 -0.6428
 1528ACTN    C215737   6.348   1.796   0.301 -0.0688  0.0833 -1.3444
 1528ACTN    O115738   6.409   1.719   0.228  0.5872  0.0350 -0.3903
 1528ACTN    C115739   6.392   1.938   0.301  0.7575  0.3252 -0.0593
 1528ACTN    H115740   6.489   1.964   0.344  1.5110  0.2750 -1.6979
 1528ACTN    H215741   6.321   2.011   0.340 -0.8508 -0.9710 -0.5198
 1528ACTN    H315742   6.387   1.964   0.196 -1.4401  0.8561  0.1576
 1529ACTN    H615743   8.177   8.036   8.500 -0.5839  1.0585  0.1237
 1529ACTN    C315744   8.191   8.144   8.495 -0.4453  1.0230 -0.2631
 1529ACTN    H415745   8.154   8.176   8.398  0.6338 -0.1952 -1.0923
 1529ACTN    H515746   8.130   8.186   8.575 -1.1840  1.0138 -0.8154
 1529ACTN    C215747   8.337   8.174   8.500  0.0814 -0.4661 -0.3232
 1529ACTN    O115748   8.382   8.254   8.582  0.3400 -0.0779 -0.0154
 1529ACTN    C115749   8.434   8.088   8.427  0.6295  0.1287  0.0727
 1529ACTN    H115750   8.384   8.036   8.345 -0.4898  1.6399 -0.2180
 1529ACTN    H215751   8.486   8.022   8.497  0.9453  0.6115  0.2933
 1529ACTN    H315752   8.511   8.153   8.385 -1.3915  1.8752 -1.0237
 1530ACTN    H615753   6.570   4.630   4.676 -1.8266 -1.7239 -0.3116
 1530ACTN    C315754   6.499   4.703   4.717 -0.5459 -0.6712  0.0461
 1530ACTN    H415755   6.399   4.684   4.678 -2.5528  1.0846  4.0532
 1530ACTN    H515756   6.494   4.695   4.825  2.0780 -2.3963  0.0893
 1530ACTN    C215757   6.556   4.842   4.692 -0.1148 -0.0633  0.7053
 1530ACTN    O115758   6.675   4.858   4.711 -0.5147  0.0032  0.2772
 1530ACTN    C115759   6.476   4.948   4.623 -0.5492 -0.2568 -0.5542
 1530ACTN    H115760   6.494   5.037   4.684 -2.6063 -0.8434  0.9644
 1530ACTN    H215761   6.371   4.920   4.627 -0.0725 -2.3137 -1.6455
 1530ACTN    H315762   6.514   4.967   4.523  1.5507 -1.5623 -0.0413
 1531ACTN    H615763   7.613   7.911   7.823  0.2843 -0.4130 -0.7167
 1531ACTN    C315764   7.694   7.899   7.894 -0.3794 -0.2821  0.0760
 1531ACTN    H415765   7.720   7.993   7.942  0.3942  0.2586 -1.3613
 1531ACTN    H515766   7.678   7.833   7.979 -1.7877  0.2028  0.1990
 1531ACTN    C215767   7.813   7.850   7.812 -0.2023 -0.8763 -0.1193
 1531ACTN    O115768   7.926   7.892   7.826  0.1507 -0.4814 -0.1015
 1531ACTN    C115769   7.782   7.738   7.720  0.3627  0.0846  0.2765
 1531ACTN    H115770   7.805   7.761   7.616 -2.4859 -0.5078 -0.5311
 1531ACTN    H215771   7.674   7.725   7.729  0.3190  0.6346  0.5676
 1531ACTN    H315772   7.818   7.638   7.744 -0.4917  0.0229  1.3711
 1532ACTN    H615773   8.364   1.304   0.557 -1.2927 -0.8844 -2.2022
 1532ACTN    C315774   8.296   1.383   0.588  0.2439  0.0890 -1.2756
 1532ACTN    H415775   8.207   1.364   0.528 -1.3050 -0.8303  1.2155
 1532ACTN    H515776   8.282   1.375   0.696  3.9542 -0.7312 -0.8001
 1532ACTN    C215777   8.352   1.514   0.563 -0.0035  0.3806  0.7308
 1532ACTN    O115778   8.302   1.602   0.492  0.7729  0.0185 -0.4927
 1532ACTN    C115779   8.494   1.527   0.610 -0.0870  0.3483  0.3057
 1532ACTN    H115780   8.560   1.512   0.525  0.4811  1.5817  0.5196
 1532ACTN    H215781   8.513   1.450   0.685  2.6686  0.5266 -0.1642
 1532ACTN    H315782   8.500   1.624   0.661  0.1860 -0.1947  1.3244
 1533ACTN    H615783   7.192   4.417   7.051 -1.8256  3.1955  3.0248
 1533ACTN    C315784   7.122   4.340   7.085 -0.3193  0.4627  0.1623
 1533ACTN    H415785   7.046   4.329   7.008  0.8724  0.0669 -0.9861
 1533ACTN    H515786   7.175   4.247   7.103  0.9230  1.2404  0.6259
 1533ACTN    C215787   7.059   4.379   7.208 -0.2045 -0.2050  0.0471
 1533ACTN    O115788   7.126   4.370   7.311  0.0231 -0.0312  0.0903
 1533ACTN    C115789   6.908   4.392   7.216  0.3993  0.6180 -0.1887
 1533ACTN    H115790   6.867   4.425   7.312 -0.5815  0.2913 -0.4996
 1533ACTN    H215791   6.857   4.301   7.186 -2.2334  2.1164 -0.4196
 1533ACTN    H315792   6.865   4.465   7.147  0.2378 -0.0363 -0.7800
 1534ACTN    H615793   8.865   6.073   1.068  0.9116  0.5584  0.1871
 1534ACTN    C315794   8.900   6.120   0.976  0.0966  0.4133 -0.2020
 1534ACTN    H415795   8.827   6.186   0.929  0.4429 -1.5480 -3.6575
 1534ACTN    H515796   8.987   6.176   1.012  0.3416  0.0675 -0.2592
 1534ACTN    C215797   8.930   6.010   0.876 -0.4593  0.2632 -0.2499
 1534ACTN    O115798   8.937   6.037   0.759  0.3035 -0.4513  0.3154
 1534ACTN    C115799   8.967   5.870   0.925 -0.6047  0.1278  0.1449
 1534ACTN    H115800   8.909   5.789   0.881  0.4160 -0.0130 -0.9835
 1534ACTN    H215801   8.944   5.871   1.032 -1.1834  0.3300  0.0208
 1534ACTN    H315802   9.074   5.853   0.908 -0.3081  2.5549 -0.4857
 1535ACTN    H615803   0.280   4.349   5.810 -0.8827 -0.4730 -0.8115
 1535ACTN    C315804   0.259   4.268   5.881  0.1920  0.0676  0.1401
 1535ACTN    H415805   0.165   4.290   5.932  0.2756  0.5912  0.0741
 1535ACTN    H515806   0.257   4.186   5.810  0.2488 -1.9279  2.4150
 1535ACTN    C215807   0.356   4.259   5.990  0.8409  0.5714  0.0816
 1535ACTN    O115808   0.340   4.337   6.083  0.2291  0.0482 -0.2879
 1535ACTN    C115809   0.471   4.164   5.995 -0.2081  0.5051  0.5744
 1535ACTN    H115810   0.430   4.071   6.034  0.4984 -1.2629 -2.6674
 1535ACTN    H215811   0.547   4.200   6.064 -0.2373 -0.1052  0.9272
 1535ACTN    H315812   0.524   4.133   5.905  0.1659  1.3828  0.4878
 1536ACTN    H615813   4.311   0.019   6.704  1.6386  0.7834 -2.9076
 1536ACTN    C315814   4.232  -0.040   6.658  0.3162 -0.1008  0.3241
 1536ACTN    H415815   4.156  -0.060   6.734 -1.0957 -1.2731 -1.3519
 1536ACTN    H515816   4.180   0.032   6.594  0.6592  1.0907  1.3749
 1536ACTN    C215817   4.268  -0.166   6.582  0.3046 -0.2155 -0.3864
 1536ACTN    O115818   4.366  -0.233   6.611  0.4114  0.4689 -0.2319
 1536ACTN    C115819   4.164  -0.227   6.492  0.2110 -0.3364  0.1950
 1536ACTN    H115820   4.194  -0.322   6.448  0.5596 -0.3843  0.5362
 1536ACTN    H215821   4.138  -0.155   6.414  0.9480  0.2182  0.4550
 1536ACTN    H315822   4.073  -0.238   6.552  1.5916  0.7859  2.5799
 1537ACTN    H615823   7.329   3.548   5.523 -1.6155  1.4764  0.9814
 1537ACTN    C315824   7.308   3.588   5.423 -0.0476  0.0272  0.0457
 1537ACTN    H415825   7.212   3.549   5.389 -0.2083 -0.4167  0.9815
 1537ACTN    H515826   7.292   3.695   5.439  0.5151  0.1161  0.0342
 1537ACTN    C215827   7.417   3.549   5.330 -0.0110 -0.1645  0.1183
 1537ACTN    O115828   7.537   3.565   5.360  0.2287  0.3879 -0.2188
 1537ACTN    C115829   7.393   3.469   5.203  0.2692 -0.3024  0.0524
 1537ACTN    H115830   7.306   3.403   5.206  0.1856 -0.2552 -1.3447
 1537ACTN    H215831   7.484   3.411   5.188  1.4271  1.3837  0.4723
 1537ACTN    H315832   7.379   3.535   5.118  1.6546  0.9632  0.7808
 1538ACTN    H615833   5.816   7.364   3.037 -0.3161  3.8808  1.5867
 1538ACTN    C315834   5.740   7.372   3.114 -0.9490  0.7093  1.3703
 1538ACTN    H415835   5.724   7.272   3.153 -1.2720 -1.0403 -2.9883
 1538ACTN    H515836   5.784   7.433   3.193  0.3773  0.8032  0.5711
 1538ACTN    C215837   5.622   7.437   3.054  0.5292  1.0772 -1.0767
 1538ACTN    O115838   5.642   7.533   2.986  0.5029 -0.3036 -0.5373
 1538ACTN    C115839   5.489   7.372   3.046  0.4907  0.3010 -0.5637
 1538ACTN    H115840   5.453   7.344   3.145  1.5777  1.2393  0.1091
 1538ACTN    H215841   5.489   7.280   2.988 -2.6422 -1.0590  1.5041
 1538ACTN    H315842   5.424   7.435   2.985 -1.2495  0.9058  1.8359
 1539ACTN    H615843   6.973   8.622   6.396  0.4704 -0.4490 -0.7277
 1539ACTN    C315844   7.008   8.689   6.317  0.0940  0.6559  0.0220
 1539ACTN    H415845   7.035   8.783   6.363  0.0505  1.4238 -1.4698
 1539ACTN    H515846   7.096   8.644   6.270  1.5111  3.1429  0.2643
 1539ACTN    C215847   6.901   8.726   6.213 -0.3692  0.5067  0.2080
 1539ACTN    O115848   6.932   8.742   6.098  0.3029 -0.4345 -0.4194
 1539ACTN    C115849   6.757   8.762   6.256 -0.1041 -0.3055  0.5921
 1539ACTN    H115850   6.766   8.861   6.301 -0.4751  1.1740 -2.4899
 1539ACTN    H215851   6.711   8.687   6.321 -1.3509  0.0554  0.1388
 1539ACTN    H315852   6.691   8.770   6.170  0.8872 -0.6271 -0.2104
 1540ACTN    H615853   3.048   0.947   1.765 -2.0019 -0.2572 -0.2021
 1540ACTN    C315854   3.068   0.875   1.845  0.4349  0.5962  0.0137
 1540ACTN    H415855   3.081   0.917   1.945 -0.0465  3.6891 -1.1744
 1540ACTN    H515856   2.982   0.808   1.841 -0.0958  1.2679  0.0922
 1540ACTN    C215857   3.187   0.796   1.824 -0.2648 -1.4371 -0.0722
 1540ACTN    O115858   3.288   0.849   1.773  0.8634 -0.0839  0.1597
 1540ACTN    C115859   3.194   0.651   1.843 -0.3215 -0.0546 -0.1874
 1540ACTN    H115860   3.299   0.622   1.845 -0.2624  0.2065  3.1159
 1540ACTN    H215861   3.157   0.599   1.754  1.4955  1.4129 -1.8534
 1540ACTN    H315862   3.153   0.606   1.933 -1.2896  0.1332 -0.5289
 1541ACTN    H615863   3.450   4.783   3.482 -1.0903 -1.5494  1.0148
 1541ACTN    C315864   3.466   4.757   3.586  0.2266 -0.5657  1.0670
 1541ACTN    H415865   3.505   4.656   3.580 -0.7659 -0.9618  1.0992
 1541ACTN    H515866   3.539   4.823   3.632  0.2954 -0.3409  0.6338
 1541ACTN    C215867   3.337   4.758   3.653  0.5494 -0.3838  0.6601
 1541ACTN    O115868   3.341   4.789   3.771  0.1914  0.3481  0.0173
 1541ACTN    C115869   3.217   4.703   3.582 -1.2109  0.3270 -0.5556
 1541ACTN    H115870   3.254   4.659   3.489 -0.0659  0.5209 -0.1920
 1541ACTN    H215871   3.140   4.779   3.567 -1.5271  0.4333  1.5504
 1541ACTN    H315872   3.170   4.624   3.641  2.4687 -0.7576  1.0325
 1542ACTN    H615873   0.316   6.416   8.939 -0.7239  0.9857  1.2221
 1542ACTN    C315874   0.409   6.432   8.994 -0.0952  0.7429  0.2251
 1542ACTN    H415875   0.397   6.413   9.100  0.3087 -0.7491  0.0120
 1542ACTN    H515876   0.482   6.365   8.948 -0.1245  0.6392  0.3337
 1542ACTN    C215877   0.459   6.578   8.971  0.0344  0.1533 -0.5423
 1542ACTN    O115878   0.375   6.660   8.931 -0.6854 -0.3493  0.3150
 1542ACTN    C115879   0.611   6.606   8.970 -0.6302 -0.6597 -0.2197
 1542ACTN    H115880   0.654   6.584   8.872 -1.5084 -1.2483 -0.4811
 1542ACTN    H215881   0.653   6.544   9.049  1.3587  0.5705 -0.2696
 1542ACTN    H315882   0.629   6.711   8.992 -2.2084 -1.1166  3.5659
 1543ACTN    H615883   2.163   0.694   1.432 -0.3910 -0.4431 -1.0826
 1543ACTN    C315884   2.103   0.775   1.390  0.1922  0.1225 -0.8459
 1543ACTN    H415885   2.032   0.730   1.321 -1.8337  0.3117  1.0362
 1543ACTN    H515886   2.048   0.816   1.475 -0.9343  0.1426 -1.5786
 1543ACTN    C215887   2.187   0.869   1.312  0.3318 -0.3316  0.9351
 1543ACTN    O115888   2.305   0.880   1.331 -0.0131  0.1224  0.3758
 1543ACTN    C115889   2.127   0.930   1.196  0.0210  0.3841  0.5007
 1543ACTN    H115890   2.183   0.918   1.103 -1.6339  0.8738 -0.5885
 1543ACTN    H215891   2.109   1.033   1.223 -0.9777  0.5162 -0.5842
 1543ACTN    H315892   2.024   0.895   1.180 -0.5007  1.2642  1.9330
 1544ACTN    H615893   4.818   6.335   4.731 -0.0238  0.0870 -0.1312
 1544ACTN    C315894   4.777   6.259   4.796  0.5079  0.2610  0.4144
 1544ACTN    H415895   4.859   6.208   4.846  0.0441  0.1625  1.0821
 1544ACTN    H515896   4.709   6.309   4.866 -0.0889 -0.3573  0.2903
 1544ACTN    C215897   4.705   6.146   4.716  0.1702 -1.2125  0.3412
 1544ACTN    O115898   4.650   6.175   4.605 -0.1707  0.5542  0.1391
 1544ACTN    C115899   4.668   6.015   4.775 -0.6052 -0.1300  0.3321
 1544ACTN    H115900   4.606   5.951   4.712 -0.0932  0.7015 -1.0485
 1544ACTN    H215901   4.610   6.037   4.865 -1.5502  1.0714 -0.5528
 1544ACTN    H315902   4.764   5.967   4.797  0.4800  1.2254 -1.2470
 1545ACTN    H615903   6.619   7.041   2.528 -0.3647 -0.9336  0.4981
 1545ACTN    C315904   6.656   7.106   2.608  0.6642 -0.0218 -0.7011
 1545ACTN    H415905   6.707   7.058   2.692  1.9380 -0.6187 -1.7965
 1545ACTN    H515906   6.733   7.168   2.561  0.0468  0.2413 -1.3641
 1545ACTN    C215907   6.555   7.194   2.674 -0.1878  0.3112 -0.1174
 1545ACTN    O115908   6.577   7.312   2.681  0.2551  0.0817 -0.0500
 1545ACTN    C115909   6.424   7.130   2.705  0.1994 -0.3181  0.3129
 1545ACTN    H115910   6.428   7.022   2.691  1.6386 -0.2539  0.1697
 1545ACTN    H215911   6.351   7.171   2.635 -0.1815 -0.5080  0.6009
 1545ACTN    H315912   6.396   7.155   2.807  0.7143  2.7754 -0.2551
 1546ACTN    H615913   0.211   0.142   3.678  0.5505 -0.3236 -0.1034
 1546ACTN    C315914   0.226   0.098   3.777 -0.3415 -0.0542  0.1586
 1546ACTN    H415915   0.253  -0.007   3.760  2.2101  0.4924  0.5446
 1546ACTN    H515916   0.305   0.158   3.823 -1.3871  0.6654  1.0174
 1546ACTN    C215917   0.094   0.112   3.859  0.0030 -0.8508 -0.0964
 1546ACTN    O115918   0.006   0.190   3.840 -0.2522  0.6626  0.0322
 1546ACTN    C115919   0.079   0.016   3.976  0.3748 -0.0896 -0.0551
 1546ACTN    H115920   0.167  -0.045   3.993 -0.1147  0.0484  3.3150
 1546ACTN    H215921  -0.004  -0.050   3.951  1.1805  0.1239 -3.6272
 1546ACTN    H315922   0.053   0.064   4.070  0.2878 -0.5746  0.1714
 1547ACTN    H615923   5.471   4.430   2.612 -0.7525 -0.4891 -0.6701
 1547ACTN    C315924   5.487   4.329   2.651 -0.3816 -0.1523  0.0766
 1547ACTN    H415925   5.403   4.271   2.612 -1.9760  0.3425  2.6842
 1547ACTN    H515926   5.577   4.291   2.602 -1.2637 -2.8822  0.5234
 1547ACTN    C215927   5.498   4.325   2.807  0.2848  0.8000 -0.0447
 1547ACTN    O115928   5.505   4.216   2.860  0.0706  0.6049  0.1936
 1547ACTN    C115929   5.529   4.445   2.881 -0.5204  0.4790  0.7033
 1547ACTN    H115930   5.461   4.525   2.851 -0.8757  0.4083  1.3159
 1547ACTN    H215931   5.631   4.464   2.846 -0.2469 -2.7998 -0.4117
 1547ACTN    H315932   5.528   4.428   2.988  0.9300  0.2514  0.6880
 1548ACTN    H615933   7.739   0.169   3.554  0.6310  0.2531 -0.0590
 1548ACTN    C315934   7.663   0.188   3.478  0.3882 -0.5558 -0.0179
 1548ACTN    H415935   7.568   0.214   3.526  0.4631  0.7147 -0.5423
 1548ACTN    H515936   7.699   0.260   3.404 -1.1788  1.5014  1.1536
 1548ACTN    C215937   7.644   0.057   3.414  0.7773  0.6013  0.2926
 1548ACTN    O115938   7.659   0.035   3.295  0.1292  0.3229 -0.8114
 1548ACTN    C115939   7.602  -0.054   3.504  0.4116 -0.3240 -0.6612
 1548ACTN    H115940   7.612  -0.043   3.612  1.2439 -1.9381 -0.5637
 1548ACTN    H215941   7.675  -0.133   3.484 -0.6938 -1.7192  0.6580
 1548ACTN    H315942   7.501  -0.090   3.483  0.5914 -1.1616 -0.1110
 1549ACTN    H615943   7.763   1.496   8.585  0.1403  0.2708 -0.4032
 1549ACTN    C315944   7.854   1.438   8.605  0.2927  0.5402 -0.3103
 1549ACTN    H415945   7.941   1.504   8.611  0.7698 -0.0311 -0.8428
 1549ACTN    H515946   7.843   1.397   8.705  0.0854  2.0057  0.2940
 1549ACTN    C215947   7.883   1.330   8.507  0.3362 -0.1130 -0.5052
 1549ACTN    O115948   7.838   1.335   8.392  0.4287 -0.2651  0.6472
 1549ACTN    C115949   7.988   1.227   8.538 -0.7280 -0.4657  0.0573
 1549ACTN    H115950   7.971   1.179   8.634  2.5264  0.8480  1.3409
 1549ACTN    H215951   8.085   1.277   8.535 -0.7077 -0.4984  0.1287
 1549ACTN    H315952   7.984   1.146   8.464  1.9783 -1.3497  0.8265
 1550ACTN    H615953   2.288   0.258   5.770 -1.6896 -0.5377 -1.2606
 1550ACTN    C315954   2.266   0.163   5.819  0.1294 -0.5311 -0.3815
 1550ACTN    H415955   2.188   0.111   5.763  1.0401 -2.1938 -0.1548
 1550ACTN    H515956   2.356   0.102   5.830  0.7545  0.1343 -1.6170
 1550ACTN    C215957   2.231   0.195   5.960 -0.2377 -0.4135  0.5965
 1550ACTN    O115958   2.191   0.103   6.030  0.2420  0.2339 -0.4570
 1550ACTN    C115959   2.221   0.336   6.010 -0.1520  0.2983 -0.1509
 1550ACTN    H115960   2.218   0.339   6.119 -1.0205 -1.1614 -0.1151
 1550ACTN    H215961   2.127   0.383   5.979 -0.9368 -1.1852 -0.0649
 1550ACTN    H315962   2.300   0.393   5.961 -1.2539  0.7692 -1.4436
 1551ACTN    H615963   1.948   4.957   7.783 -1.6417 -0.6704 -0.6611
 1551ACTN    C315964   1.896   5.049   7.758 -0.0954  0.4295  0.0934
 1551ACTN    H415965   1.930   5.084   7.661 -2.4996 -0.7769 -1.2174
 1551ACTN    H515966   1.788   5.037   7.770  0.0350 -0.6613  0.2339
 1551ACTN    C215967   1.936   5.146   7.873 -0.0762 -0.0379 -0.0912
 1551ACTN    O115968   2.047   5.199   7.872 -0.3610  1.0059  0.5104
 1551ACTN    C115969   1.838   5.165   7.981  0.2861 -0.2471 -0.1970
 1551ACTN    H115970   1.841   5.080   8.049  2.0241  0.9561  1.2659
 1551ACTN    H215971   1.741   5.171   7.932  0.0097 -1.4893  0.1685
 1551ACTN    H315972   1.867   5.254   8.037 -0.9403  0.5480 -0.7977
 1552ACTN    H615973   7.451   5.457   8.250  1.9057  0.6798 -0.7176
 1552ACTN    C315974   7.485   5.387   8.327  0.5930  0.8008 -0.0261
 1552ACTN    H415975   7.481   5.446   8.419  0.7403 -1.5407  1.4968
 1552ACTN    H515976   7.413   5.305   8.328  2.4486 -0.8700 -0.7440
 1552ACTN    C215977   7.610   5.316   8.295 -0.0296  1.2546 -0.3533
 1552ACTN    O115978   7.605   5.206   8.245 -0.3241  0.1051  0.5263
 1552ACTN    C115979   7.746   5.375   8.312 -0.4406 -0.0983  0.5772
 1552ACTN    H115980   7.776   5.430   8.402  0.1042  0.2427  0.1929
 1552ACTN    H215981   7.768   5.438   8.226 -0.6796 -0.1368  0.4890
 1552ACTN    H315982   7.812   5.289   8.307 -1.1871 -0.5233 -2.5600
 1553ACTN    H615983   7.720   4.149   6.781  0.4331  0.3134 -1.0703
 1553ACTN    C315984   7.792   4.076   6.742  0.8679  0.0776  0.1570
 1553ACTN    H415985   7.736   3.987   6.712  1.3522 -0.6105  1.2443
 1553ACTN    H515986   7.833   4.125   6.654  3.3261  0.7964  1.6706
 1553ACTN    C215987   7.907   4.039   6.836 -0.8153 -0.0117 -0.5577
 1553ACTN    O115988   7.978   4.124   6.894 -0.5658  0.4058 -0.4987
 1553ACTN    C115989   7.915   3.895   6.885  0.6026  0.6566 -0.2347
 1553ACTN    H115990   7.835   3.832   6.845 -0.1990  0.6950  1.2734
 1553ACTN    H215991   7.926   3.886   6.993 -0.1270 -0.8225 -0.2644
 1553ACTN    H315992   8.004   3.846   6.844 -0.1048  1.3098 -2.6136
 1554ACTN    H615993   4.634   3.123   3.409  1.0612 -2.1382  1.2592
 1554ACTN    C315994   4.575   3.168   3.489  0.3426 -0.4835 -0.1711
 1554ACTN    H415995   4.595   3.274   3.471 -1.1596  0.5723  3.8413
 1554ACTN    H515996   4.469   3.142   3.484 -0.0890  0.9611  1.1578
 1554ACTN    C215997   4.641   3.120   3.618 -0.2945 -0.2156  0.9882
 1554ACTN    O115998   4.705   3.193   3.691 -0.3566  0.0021  0.7073
 1554ACTN    C115999   4.618   2.977   3.653  0.0576 -0.1633 -0.0434
 1554ACTN    H116000   4.710   2.921   3.670 -0.3477 -0.9104 -0.2940
 1554ACTN    H216001   4.571   2.911   3.581  2.0928 -1.3713 -0.3222
 1554ACTN    H316002   4.555   2.973   3.742  1.4913 -0.8224  0.9770
 1555ACTN    H616003   0.283   6.420   2.781  0.5520  1.3581 -0.8373
 1555ACTN    C316004   0.378   6.383   2.742  0.0118 -0.5294 -0.4257
 1555ACTN    H416005   0.444   6.419   2.822 -1.2547 -2.8313  1.7335
 1555ACTN    H516006   0.382   6.275   2.730  0.5339 -0.6591  0.8300
 1555ACTN    C216007   0.404   6.446   2.605  0.7844 -0.1447 -0.9420
 1555ACTN    O116008   0.491   6.406   2.533 -0.5032 -0.1368  0.3737
 1555ACTN    C116009   0.295   6.541   2.555 -0.2452 -0.1577 -0.0600
 1555ACTN    H116010   0.233   6.503   2.474  0.6613 -2.1004  0.1068
 1555ACTN    H216011   0.346   6.627   2.511  1.6455 -1.0680  0.3069
 1555ACTN    H316012   0.228   6.565   2.637  0.5756  2.3019 -0.0718
 1556ACTN    H616013   8.943   4.082   2.146 -2.2957 -0.1304  1.1254
 1556ACTN    C316014   8.986   4.069   2.245 -0.1524 -0.6052  0.1538
 1556ACTN    H416015   8.919   4.009   2.306 -0.7168  1.1846  1.3330
 1556ACTN    H516016   9.077   4.010   2.232 -1.1910 -2.7501  2.1465
 1556ACTN    C216017   9.018   4.207   2.303  0.0518  0.8449 -0.0436
 1556ACTN    O116018   9.012   4.225   2.421 -0.4719  0.3167 -0.2958
 1556ACTN    C116019   9.063   4.316   2.213 -0.1664  0.0348 -0.1607
 1556ACTN    H116020   8.991   4.397   2.199 -0.3941 -0.6177 -3.1007
 1556ACTN    H216021   9.089   4.269   2.118 -1.5586 -1.6954  0.2821
 1556ACTN    H316022   9.156   4.356   2.253 -2.1186  1.2377  3.3512
 1557ACTN    H616023   7.801   6.203   0.439  0.9044  1.6554  1.3481
 1557ACTN    C316024   7.709   6.234   0.388  1.0201 -0.0158  0.0725
 1557ACTN    H416025   7.730   6.319   0.324  3.3687  0.7543  1.7795
 1557ACTN    H516026   7.679   6.149   0.327 -0.6761 -0.6689  1.7643
 1557ACTN    C216027   7.607   6.257   0.498  0.9693 -0.8203  0.1393
 1557ACTN    O116028   7.608   6.178   0.592  0.2836  0.3372  0.4082
 1557ACTN    C116029   7.521   6.377   0.494 -0.1794 -0.1278 -0.4681
 1557ACTN    H116030   7.587   6.461   0.470  3.2033 -2.6292 -0.2614
 1557ACTN    H216031   7.465   6.395   0.586  0.3281  0.4260 -0.2639
 1557ACTN    H316032   7.449   6.379   0.413  0.7676  0.4880 -1.3063
 1558ACTN    H616033   6.548   0.594   6.298 -0.6680  0.6211  0.4486
 1558ACTN    C316034   6.477   0.631   6.224  0.4956  0.0943 -0.9603
 1558ACTN    H416035   6.523   0.722   6.184  2.0234 -0.3491 -0.2601
 1558ACTN    H516036   6.469   0.563   6.139  0.1111 -0.0853 -0.7827
 1558ACTN    C216037   6.345   0.649   6.291  0.2786 -0.3454  0.3056
 1558ACTN    O116038   6.276   0.738   6.243 -0.4167  0.9247  0.6401
 1558ACTN    C116039   6.322   0.589   6.425 -0.2011  0.0219 -0.5206
 1558ACTN    H116040   6.377   0.641   6.504 -0.8308  1.2434 -0.8726
 1558ACTN    H216041   6.336   0.481   6.417 -0.3547 -0.1632  1.3884
 1558ACTN    H316042   6.215   0.596   6.447  0.0120  1.7660  0.0342
 1559ACTN    H616043   3.801   5.393   5.852  0.2043  1.1366  0.5545
 1559ACTN    C316044   3.703   5.374   5.807  0.6639  0.4889 -0.1702
 1559ACTN    H416045   3.632   5.443   5.852  0.7025  1.2976 -1.3319
 1559ACTN    H516046   3.707   5.405   5.702 -0.5306 -0.4882 -0.5090
 1559ACTN    C216047   3.659   5.233   5.818  0.0201 -0.3007 -0.5866
 1559ACTN    O116048   3.539   5.212   5.843 -0.0294  0.7684  0.6042
 1559ACTN    C116049   3.771   5.130   5.831 -0.7215 -0.9291 -0.2964
 1559ACTN    H116050   3.773   5.055   5.752 -0.5587  2.1415 -3.3229
 1559ACTN    H216051   3.777   5.097   5.935 -1.2257  3.4611  1.1959
 1559ACTN    H316052   3.864   5.185   5.816 -1.8292  1.0351  0.0014
 1560ACTN    H616053   7.648   2.229   3.748 -0.7357  0.4985  1.4209
 1560ACTN    C316054   7.752   2.206   3.773 -0.3240  0.5579 -0.1693
 1560ACTN    H416055   7.761   2.199   3.882 -1.9722  0.1523 -0.0390
 1560ACTN    H516056   7.778   2.107   3.737 -1.5409  0.3824 -0.5857
 1560ACTN    C216057   7.844   2.323   3.733 -0.4722  0.3977  0.3478
 1560ACTN    O116058   7.816   2.439   3.748 -0.2439 -0.0289  0.6291
 1560ACTN    C116059   7.958   2.282   3.645  0.0191 -0.2782 -0.4520
 1560ACTN    H116060   8.050   2.339   3.655  0.2715 -0.7889  0.1760
 1560ACTN    H216061   7.935   2.289   3.538  0.6890  0.5154 -0.5483
 1560ACTN    H316062   7.990   2.179   3.665 -0.0044  0.2781  2.5906
 1561ACTN    H616063   5.868   2.608   4.325  1.3797 -2.0369  0.8273
 1561ACTN    C316064   5.946   2.641   4.257 -0.3446  0.5957  0.0464
 1561ACTN    H416065   6.043   2.621   4.303 -0.3465  0.5999  0.0513
 1561ACTN    H516066   5.929   2.569   4.177  0.9271  0.2505  0.0776
 1561ACTN    C216067   5.930   2.786   4.208 -1.3187 -0.4390  0.3687
 1561ACTN    O116068   6.029   2.860   4.196  0.3297  0.3503  0.4351
 1561ACTN    C116069   5.796   2.851   4.210  0.1175 -0.2932 -0.0507
 1561ACTN    H116070   5.790   2.935   4.279  0.7587 -1.7389  1.8107
 1561ACTN    H216071   5.711   2.785   4.226 -0.7561  1.2114  1.7460
 1561ACTN    H316072   5.777   2.892   4.111 -0.8291 -1.8456 -0.5434
 1562ACTN    H616073   7.854   1.761   4.232  0.5450 -2.7569  2.4470
 1562ACTN    C316074   7.842   1.693   4.148 -0.3614 -0.0283  0.3102
 1562ACTN    H416075   7.805   1.740   4.056 -0.4393 -3.6610 -1.6073
 1562ACTN    H516076   7.938   1.656   4.113 -0.1537  1.4996 -0.8473
 1562ACTN    C216077   7.733   1.599   4.183 -0.4848 -0.4415  0.0614
 1562ACTN    O116078   7.740   1.543   4.295 -0.0077 -0.8711 -0.4094
 1562ACTN    C116079   7.611   1.599   4.102  0.4937 -0.4554  0.0443
 1562ACTN    H116080   7.593   1.497   4.068  1.6398  0.0240 -2.0715
 1562ACTN    H216081   7.611   1.665   4.016 -0.1260  0.0449  0.4244
 1562ACTN    H316082   7.530   1.633   4.166 -0.6908 -0.0698 -1.6310
 1563ACTN    H616083   6.094   7.416   2.886  1.2807  1.4576 -0.6656
 1563ACTN    C316084   6.094   7.488   2.968  0.0659 -0.0243  0.6776
 1563ACTN    H416085   5.994   7.529   2.984 -0.6963 -1.9833  1.0021
 1563ACTN    H516086   6.142   7.447   3.057 -2.6973 -1.8683  1.3857
 1563ACTN    C216087   6.185   7.593   2.913  0.1210 -0.0819 -0.2000
 1563ACTN    O116088   6.248   7.668   2.986  0.2120  0.0798  0.0131
 1563ACTN    C116089   6.242   7.579   2.781 -0.5164 -0.4613 -0.3959
 1563ACTN    H116090   6.292   7.482   2.772 -0.1918 -0.4840  1.4696
 1563ACTN    H216091   6.325   7.648   2.766  1.5798 -2.5383  1.0858
 1563ACTN    H316092   6.170   7.587   2.700  0.8691  2.4237 -1.3873
 1564ACTN    H616093   0.805   1.830   0.747  0.7462  2.4445 -0.6776
 1564ACTN    C316094   0.696   1.828   0.748  0.7683  0.2768 -0.6992
 1564ACTN    H416095   0.658   1.753   0.679 -0.2453  0.2433 -0.1125
 1564ACTN    H516096   0.653   1.818   0.848  1.3005  1.9073 -0.2904
 1564ACTN    C216097   0.644   1.961   0.702 -0.0550  0.3591 -0.5682
 1564ACTN    O116098   0.578   1.971   0.601 -0.2239 -0.3686  0.0047
 1564ACTN    C116099   0.695   2.089   0.771 -0.3776 -0.6510  0.9844
 1564ACTN    H116100   0.621   2.140   0.831  1.6136  0.9580  2.1399
 1564ACTN    H216101   0.747   2.155   0.701 -1.2496 -0.5506  0.4324
 1564ACTN    H316102   0.765   2.063   0.850  0.9779 -0.2722 -0.0683
 1565ACTN    H616103   7.842   1.701   1.414 -0.3719  1.3699  2.2951
 1565ACTN    C316104   7.744   1.662   1.441 -0.5053  0.1264  0.1051
 1565ACTN    H416105   7.775   1.605   1.528  1.4257  0.3408 -0.4072
 1565ACTN    H516106   7.691   1.756   1.453 -1.3797  0.0898 -2.9058
 1565ACTN    C216107   7.693   1.580   1.331 -0.1232  0.5440  0.5472
 1565ACTN    O116108   7.590   1.525   1.344 -0.3724 -0.4081  0.0732
 1565ACTN    C116109   7.744   1.613   1.192 -0.2651  0.0473 -0.3409
 1565ACTN    H116110   7.847   1.577   1.190 -0.0062  0.7882 -0.5893
 1565ACTN    H216111   7.754   1.720   1.173 -0.8446  0.4806  1.7394
 1565ACTN    H316112   7.684   1.569   1.113  0.8555 -0.3975 -0.9661
 1566ACTN    H616113   0.188   1.348   6.799 -1.7221  1.1705  0.7594
 1566ACTN    C316114   0.138   1.255   6.826  0.1154 -0.1205 -0.2544
 1566ACTN    H416115   0.032   1.277   6.825  0.3592  1.0996 -0.5370
 1566ACTN    H516116   0.159   1.190   6.741  2.3252  0.1999  0.0187
 1566ACTN    C216117   0.188   1.202   6.952 -0.2191  0.0152 -0.4936
 1566ACTN    O116118   0.277   1.254   7.018  0.7110  0.3443 -0.5048
 1566ACTN    C116119   0.125   1.071   6.997 -0.1009 -0.9860 -0.0166
 1566ACTN    H116120   0.100   1.072   7.103  1.0452  0.1057  0.2596
 1566ACTN    H216121   0.197   0.990   6.989  3.0677  1.5249  1.8930
 1566ACTN    H316122   0.035   1.046   6.942  0.5396  0.5408 -1.8119
 1567ACTN    H616123   0.775   2.023   1.485 -0.0795  1.7894  1.6525
 1567ACTN    C316124   0.686   1.974   1.524  0.3726 -0.0916  0.3457
 1567ACTN    H416125   0.617   2.058   1.533  0.2105  0.1788 -2.7634
 1567ACTN    H516126   0.647   1.924   1.435  1.0931 -1.1736  0.6225
 1567ACTN    C216127   0.701   1.893   1.639 -0.9840 -0.0616 -0.1237
 1567ACTN    O116128   0.627   1.901   1.734  0.0365  0.0739  0.4341
 1567ACTN    C116129   0.812   1.798   1.641  0.4113  0.5512 -0.6375
 1567ACTN    H116130   0.905   1.849   1.617  1.6959 -2.0222 -1.3407
 1567ACTN    H216131   0.790   1.718   1.570 -1.4197 -0.2015  0.7576
 1567ACTN    H316132   0.818   1.762   1.744  0.7768 -0.6221 -1.0513
 1568ACTN    H616133   2.479   7.167   2.475 -0.4674 -0.0380  1.2308
 1568ACTN    C316134   2.393   7.133   2.418 -0.2957  0.5000  0.6456
 1568ACTN    H416135   2.400   7.024   2.415  1.8021  0.6725 -1.3415
 1568ACTN    H516136   2.303   7.161   2.474 -1.0206 -0.1432 -0.1812
 1568ACTN    C216137   2.381   7.180   2.274 -0.2851  0.0572 -0.0999
 1568ACTN    O116138   2.279   7.236   2.234 -0.9585 -0.5091 -0.1637
 1568ACTN    C116139   2.497   7.149   2.180 -1.2564 -0.0607  0.0450
 1568ACTN    H116140   2.594   7.185   2.216 -1.4726  0.1030  0.4601
 1568ACTN    H216141   2.472   7.201   2.088 -1.3619  1.0482  0.6938
 1568ACTN    H316142   2.503   7.044   2.150  0.7479  0.0948 -0.2251
 1569ACTN    H616143   8.978   7.418   2.618 -2.5524 -0.1170 -0.0067
 1569ACTN    C316144   8.979   7.523   2.646 -0.5975 -0.1912  0.2111
 1569ACTN    H416145   8.948   7.579   2.558  1.1217 -0.5684 -0.6503
 1569ACTN    H516146   8.896   7.534   2.715 -0.6041 -2.3515  0.5745
 1569ACTN    C216147   9.110   7.584   2.703  0.1675  0.4150 -0.2478
 1569ACTN    O116148   9.103   7.663   2.798  0.0435 -0.1311 -0.7430
 1569ACTN    C116149   9.246   7.522   2.672  0.1402 -0.0048 -0.0098
 1569ACTN    H116150   9.240   7.465   2.580 -1.1439  0.7942 -0.4344
 1569ACTN    H216151   9.272   7.447   2.746  1.4575  0.2099 -0.2459
 1569ACTN    H316152   9.328   7.594   2.674  2.9219 -3.0856  0.5623
 1570ACTN    H616153   6.378   3.176   3.533 -0.8697 -0.8966  0.6318
 1570ACTN    C316154   6.359   3.280   3.560 -0.1551 -0.7312  0.5155
 1570ACTN    H416155   6.316   3.283   3.660 -1.6438 -1.4665 -0.0766
 1570ACTN    H516156   6.445   3.343   3.540 -1.7605  0.4953 -3.0128
 1570ACTN    C216157   6.250   3.314   3.469 -0.3594 -0.6991 -0.2000
 1570ACTN    O116158   6.202   3.426   3.483 -0.0239  0.6486 -0.4548
 1570ACTN    C116159   6.213   3.234   3.352 -0.0294  0.0404  0.0717
 1570ACTN    H116160   6.166   3.294   3.274 -1.1542  0.7300  1.2560
 1570ACTN    H216161   6.161   3.143   3.380 -0.3193 -0.4563 -2.0175
 1570ACTN    H316162   6.307   3.200   3.308 -0.2763 -0.7465  0.1488
 1571ACTN    H616163   7.589   4.048   6.317 -0.1471 -0.1573  0.3803
 1571ACTN    C316164   7.600   4.081   6.420  0.7211 -0.2977  0.3416
 1571ACTN    H416165   7.643   4.002   6.482  0.8531 -0.4716  0.0289
 1571ACTN    H516166   7.663   4.167   6.441 -2.9798  2.3281  1.1270
 1571ACTN    C216167   7.464   4.108   6.476  0.6030 -0.4562 -0.3167
 1571ACTN    O116168   7.439   4.211   6.531  0.5071 -0.8677  0.0867
 1571ACTN    C116169   7.362   3.993   6.450 -0.0140 -0.1274  0.8392
 1571ACTN    H116170   7.341   3.969   6.345 -1.5370 -0.9331  1.3187
 1571ACTN    H216171   7.262   4.024   6.482 -0.4636 -2.1417  1.4589
 1571ACTN    H316172   7.382   3.897   6.496 -0.2731  0.0311  1.2902
 1572ACTN    H616173   7.288   4.337   6.806  0.2515 -0.5965 -0.5533
 1572ACTN    C316174   7.204   4.364   6.743  0.0026 -0.0166  0.0231
 1572ACTN    H416175   7.223   4.316   6.646 -0.5811 -1.2117  0.4812
 1572ACTN    H516176   7.115   4.324   6.792 -1.4812  1.2702 -1.5404
 1572ACTN    C216177   7.196   4.515   6.741  0.4043 -0.1761 -0.1111
 1572ACTN    O116178   7.156   4.576   6.843  0.0367  0.3971  0.4567
 1572ACTN    C116179   7.200   4.583   6.608 -0.6979 -0.4892  0.2410
 1572ACTN    H116180   7.238   4.683   6.624 -1.1424 -0.0410 -1.3797
 1572ACTN    H216181   7.101   4.595   6.565  0.3630  0.4624 -2.0452
 1572ACTN    H316182   7.269   4.525   6.546  1.3587  1.5753  0.5521
 1573ACTN    H616183   3.770   8.846   8.709 -2.0936 -0.4886 -0.1996
 1573ACTN    C316184   3.772   8.915   8.793  0.8938  0.2232 -0.7851
 1573ACTN    H416185   3.668   8.942   8.811  0.4689  1.4815 -4.6367
 1573ACTN    H516186   3.810   8.860   8.879  1.2155 -1.9198 -2.2563
 1573ACTN    C216187   3.833   9.045   8.768  0.7197  0.0966 -0.2116
 1573ACTN    O116188   3.837   9.135   8.859 -0.7011  0.0274 -0.0520
 1573ACTN    C116189   3.870   9.082   8.628 -0.3560  0.9223 -0.6696
 1573ACTN    H116190   3.778   9.077   8.570 -1.4005 -0.6857  1.0826
 1573ACTN    H216191   3.935   9.003   8.590  1.3776  1.9909 -0.0226
 1573ACTN    H316192   3.908   9.184   8.627  0.8470  0.5060  0.6008
 1574ACTN    H616193   8.618   7.235   5.874 -0.7333 -1.7292  0.3326
 1574ACTN    C316194   8.614   7.280   5.974 -0.1886  0.4094 -0.5779
 1574ACTN    H416195   8.509   7.283   6.004  0.2575 -2.2745  1.4059
 1574ACTN    H516196   8.654   7.202   6.039  0.9222 -0.1644 -1.8971
 1574ACTN    C216197   8.689   7.404   5.997  0.1261  0.7637  0.0695
 1574ACTN    O116198   8.693   7.464   6.101  0.5651  0.3295  0.3382
 1574ACTN    C116199   8.766   7.454   5.883 -0.1035 -0.9541 -0.4754
 1574ACTN    H116200   8.837   7.384   5.839  2.1358 -0.1798  1.7846
 1574ACTN    H216201   8.824   7.543   5.907 -0.7529  0.1255 -2.7821
 1574ACTN    H316202   8.699   7.483   5.802 -0.2659 -0.7007 -0.2486
 1575ACTN    H616203   2.811   8.469   5.226  0.2426 -0.3699  0.4002
 1575ACTN    C316204   2.793   8.576   5.234  0.3608 -0.3133 -0.0300
 1575ACTN    H416205   2.779   8.633   5.143 -1.9059 -0.1506  0.3858
 1575ACTN    H516206   2.707   8.594   5.299  1.1908  2.5363  0.3745
 1575ACTN    C216207   2.918   8.626   5.299  0.4096 -0.1372 -0.4554
 1575ACTN    O116208   3.014   8.655   5.231  0.3328  0.4773  0.2733
 1575ACTN    C116209   2.921   8.657   5.448  0.3991  0.5068  0.6575
 1575ACTN    H116210   3.024   8.670   5.480  0.0509  2.0900  1.1523
 1575ACTN    H216211   2.865   8.748   5.469  0.9675  1.0791 -0.2238
 1575ACTN    H316212   2.878   8.581   5.513 -0.4080 -0.4904 -0.9731
 1576ACTN    H616213   7.681   0.446   4.690  1.3646 -2.3848 -0.7816
 1576ACTN    C316214   7.721   0.492   4.600 -0.3762  0.1363 -0.3248
 1576ACTN    H416215   7.665   0.466   4.511 -0.0825 -0.3559 -0.3690
 1576ACTN    H516216   7.710   0.600   4.607  1.4476  0.2852  0.5736
 1576ACTN    C216217   7.871   0.480   4.572  0.0770 -0.3033  0.3726
 1576ACTN    O116218   7.952   0.464   4.664  0.2108  0.2276  1.0463
 1576ACTN    C116219   7.916   0.531   4.445  0.3843 -0.3435  0.4252
 1576ACTN    H116220   7.967   0.450   4.393 -0.1364 -0.5978  0.3050
 1576ACTN    H216221   7.976   0.621   4.430  1.0311 -0.6156  1.4105
 1576ACTN    H316222   7.827   0.549   4.384  0.5596  1.0556  0.5518
 1577ACTN    H616223   4.141   3.746   3.148 -0.5742  0.6140  0.4633
 1577ACTN    C316224   4.110   3.796   3.057 -1.0449 -0.5265 -0.0116
 1577ACTN    H416225   4.140   3.898   3.078  0.5543 -1.5440  2.9910
 1577ACTN    H516226   4.175   3.762   2.977 -0.3611  0.4164  0.1348
 1577ACTN    C216227   3.973   3.757   3.017  0.4151 -0.3592  0.2558
 1577ACTN    O116228   3.956   3.742   2.900  0.3381  0.6545 -0.9298
 1577ACTN    C116229   3.862   3.792   3.108 -0.1941 -0.6489  0.0765
 1577ACTN    H116230   3.774   3.829   3.056  0.8707  1.4107 -0.3458
 1577ACTN    H216231   3.901   3.876   3.165  0.2972 -1.6461  1.2294
 1577ACTN    H316232   3.842   3.712   3.179  0.2382 -1.1698 -0.3818
 1578ACTN    H616233   0.028   5.639   8.955 -1.5643 -2.7458  0.2621
 1578ACTN    C316234   0.039   5.632   8.847  0.1833  0.5379  0.1721
 1578ACTN    H416235   0.111   5.550   8.838  0.6577  0.8452  1.0710
 1578ACTN    H516236  -0.061   5.606   8.815  0.3950  1.1208 -1.0069
 1578ACTN    C216237   0.102   5.758   8.790  0.1063 -0.1037 -0.2528
 1578ACTN    O116238   0.208   5.748   8.726  0.0606 -0.3877 -0.3951
 1578ACTN    C116239   0.007   5.879   8.765  0.3292 -0.2220  0.2844
 1578ACTN    H116240   0.036   5.971   8.816 -3.0463  0.0707  1.8139
 1578ACTN    H216241  -0.095   5.862   8.798 -0.0031 -1.2556 -1.2164
 1578ACTN    H316242   0.001   5.909   8.660  1.4057 -0.0843  0.2548
 1579ACTN    H616243   2.100   4.984   2.610 -0.4112  0.6687 -1.1162
 1579ACTN    C316244   2.185   5.051   2.618 -0.1823  0.2503  0.0546
 1579ACTN    H416245   2.250   5.042   2.531  0.8702  0.0761  0.8500
 1579ACTN    H516246   2.149   5.154   2.620  1.6863  1.0226 -3.0639
 1579ACTN    C216247   2.267   5.027   2.737 -0.2669 -0.0624  0.0731
 1579ACTN    O116248   2.386   5.064   2.749 -0.4099  0.5262  0.2485
 1579ACTN    C116249   2.184   4.977   2.853  0.6449  0.2904 -0.6228
 1579ACTN    H116250   2.083   5.017   2.848 -0.3839 -1.9418  1.3736
 1579ACTN    H216251   2.235   5.014   2.942 -0.3414 -0.4267  0.2492
 1579ACTN    H316252   2.186   4.868   2.851 -0.1241  0.2564  0.1531
 1580ACTN    H616253   8.045   4.912   0.059 -1.6818  0.9852 -0.3430
 1580ACTN    C316254   7.985   4.862  -0.017 -0.2180  0.2815 -1.0465
 1580ACTN    H416255   7.957   4.937  -0.091 -3.6194 -0.2601 -0.4216
 1580ACTN    H516256   8.039   4.778  -0.060 -0.5830 -2.3607  3.3593
 1580ACTN    C216257   7.852   4.796   0.017  0.0561 -0.7870 -0.7494
 1580ACTN    O116258   7.794   4.825   0.121  0.2606  0.3770  0.0465
 1580ACTN    C116259   7.776   4.720  -0.087 -0.1807 -0.8907 -0.0325
 1580ACTN    H116260   7.841   4.668  -0.156 -0.8887 -1.7925 -0.0331
 1580ACTN    H216261   7.711   4.786  -0.144  1.1361 -1.2796 -2.0222
 1580ACTN    H316262   7.710   4.643  -0.047 -0.6506  0.1976  1.3512
 1581ACTN    H616263   0.637   2.504   1.428  0.7044 -0.0269  0.7035
 1581ACTN    C316264   0.651   2.602   1.472 -0.4315  0.5100 -0.1313
 1581ACTN    H416265   0.717   2.595   1.558 -0.0466  0.0926 -0.4616
 1581ACTN    H516266   0.693   2.668   1.396 -0.7843  2.2009  1.0928
 1581ACTN    C216267   0.510   2.655   1.504  0.0521 -0.2310  0.1823
 1581ACTN    O116268   0.480   2.671   1.621  0.2102  0.7494 -0.7470
 1581ACTN    C116269   0.436   2.724   1.390 -0.1443  0.3261 -0.1225
 1581ACTN    H116270   0.404   2.652   1.315 -2.1992  1.4480 -0.3599
 1581ACTN    H216271   0.494   2.802   1.339 -2.7563  1.2060 -1.8769
 1581ACTN    H316272   0.345   2.773   1.426  1.4156  0.7124  3.4502
 1582ACTN    H616273   7.691   3.168   5.646 -0.8482 -2.5816 -2.9518
 1582ACTN    C316274   7.617   3.237   5.605  0.2339  0.5026 -0.0568
 1582ACTN    H416275   7.649   3.338   5.627 -0.8527  0.7031  0.6221
 1582ACTN    H516276   7.629   3.224   5.497 -0.8881 -0.1143 -0.1219
 1582ACTN    C216277   7.484   3.205   5.649 -0.2360  0.0923  0.0822
 1582ACTN    O116278   7.402   3.297   5.679 -0.0419 -0.1391  0.5372
 1582ACTN    C116279   7.432   3.064   5.629  0.1825 -0.1377  0.3613
 1582ACTN    H116280   7.349   3.071   5.559  0.4441  2.4571  0.2312
 1582ACTN    H216281   7.397   3.036   5.728  0.5574 -0.9887  0.2596
 1582ACTN    H316282   7.498   2.989   5.586 -0.3296  0.1937 -1.0292
 1583ACTN    H616283   8.443   0.496   7.618  1.2405  0.1409  0.5649
 1583ACTN    C316284   8.480   0.596   7.598  0.5228  0.3800  0.4055
 1583ACTN    H416285   8.572   0.633   7.643 -0.3187  1.7458  1.0296
 1583ACTN    H516286   8.479   0.600   7.489 -1.7610  3.6885  0.4878
 1583ACTN    C216287   8.373   0.697   7.630  0.7035  0.2991  0.3149
 1583ACTN    O116288   8.283   0.681   7.716  0.0951  0.2975 -0.2297
 1583ACTN    C116289   8.371   0.825   7.554  0.6335  0.2601  0.1067
 1583ACTN    H116290   8.271   0.840   7.512  0.1702 -0.9788  0.7429
 1583ACTN    H216291   8.437   0.823   7.467 -0.6033  0.6225 -0.8569
 1583ACTN    H316292   8.385   0.917   7.611  0.4059  1.2291 -1.3665
 1584ACTN    H616293   7.461   6.126   1.178  0.5112 -1.1441  0.4807
 1584ACTN    C316294   7.366   6.140   1.128  0.6452  0.1800  0.5781
 1584ACTN    H416295   7.385   6.115   1.024 -1.5881 -1.1991  0.4635
 1584ACTN    H516296   7.328   6.242   1.130 -0.0287 -0.0795  1.3387
 1584ACTN    C216297   7.266   6.052   1.183  0.4005  0.0589  0.5722
 1584ACTN    O116298   7.145   6.065   1.173 -0.8071 -0.3681 -0.7562
 1584ACTN    C116299   7.321   5.915   1.204  0.1508 -0.1534 -0.3632
 1584ACTN    H116300   7.238   5.847   1.224  0.0794  0.2586  0.8020
 1584ACTN    H216301   7.400   5.914   1.279  0.9995 -0.2056 -1.2494
 1584ACTN    H316302   7.362   5.868   1.115  0.1446 -0.7694 -0.0389
 1585ACTN    H616303   8.565   0.711   4.365 -1.7610 -0.9763  0.4523
 1585ACTN    C316304   8.633   0.627   4.378  0.2220  0.6193  0.6478
 1585ACTN    H416305   8.576   0.543   4.417 -0.1519  0.0899 -1.0070
 1585ACTN    H516306   8.689   0.595   4.290 -2.4834  0.8975 -1.2470
 1585ACTN    C216307   8.728   0.668   4.485 -0.2182  0.1356 -0.0642
 1585ACTN    O116308   8.836   0.715   4.453 -0.0101  0.1837  0.1271
 1585ACTN    C116309   8.693   0.652   4.629  0.1401  0.5662  1.0301
 1585ACTN    H116310   8.763   0.579   4.669  2.3441  2.4446  0.6885
 1585ACTN    H216311   8.587   0.627   4.634  0.2092 -0.0268 -0.1927
 1585ACTN    H316312   8.710   0.746   4.682 -0.4894  1.0895  0.3070
 1586ACTN    H616313   6.585   6.363   2.600 -0.9671  0.4031 -0.0296
 1586ACTN    C316314   6.566   6.443   2.672  0.3370  0.1584  0.5974
 1586ACTN    H416315   6.470   6.484   2.640  0.7098 -0.1685 -0.9595
 1586ACTN    H516316   6.547   6.389   2.765 -2.1054  2.2668  1.3689
 1586ACTN    C216317   6.672   6.537   2.679 -0.7808  0.8650  0.4893
 1586ACTN    O116318   6.651   6.658   2.683 -0.4791  0.3244  0.6557
 1586ACTN    C116319   6.809   6.479   2.690 -0.5501  0.2050  0.0211
 1586ACTN    H116320   6.862   6.506   2.782  2.9078  1.1977 -2.1653
 1586ACTN    H216321   6.870   6.521   2.610  2.5949  0.5046  2.4317
 1586ACTN    H316322   6.797   6.371   2.687  0.2065  0.0929  0.7375
 1587ACTN    H616323   0.291   8.028   2.353 -0.4550 -0.5240  0.0814
 1587ACTN    C316324   0.215   8.077   2.291 -0.3917 -0.4361  0.0730
 1587ACTN    H416325   0.266   8.159   2.241  0.1370 -2.1201 -2.2433
 1587ACTN    H516326   0.182   7.995   2.226 -1.5026 -1.7418  2.2212
 1587ACTN    C216327   0.101   8.122   2.378 -0.2781  0.5323  0.0329
 1587ACTN    O116328   0.004   8.049   2.397 -0.0810 -0.9335 -0.2983
 1587ACTN    C116329   0.134   8.228   2.484 -0.4113  0.8825  0.0290
 1587ACTN    H116330   0.208   8.188   2.553 -0.9831  0.0644  0.1748
 1587ACTN    H216331   0.046   8.255   2.542  0.4351 -0.9181  2.2107
 1587ACTN    H316332   0.175   8.313   2.429  1.0828 -1.3522 -2.4578
 1588ACTN    H616333   5.282   6.594   7.859 -0.2199  0.5576 -4.1212
 1588ACTN    C316334   5.353   6.676   7.875 -0.0478 -0.3395  0.3640
 1588ACTN    H416335   5.423   6.654   7.955  1.2034 -2.1589 -1.2049
 1588ACTN    H516336   5.412   6.680   7.784 -3.7516 -1.3691 -2.1960
 1588ACTN    C216337   5.273   6.801   7.902 -0.5392  0.0269 -0.8460
 1588ACTN    O116338   5.221   6.801   8.012 -0.8353 -0.5674  0.0026
 1588ACTN    C116339   5.222   6.885   7.793 -0.0779 -0.0522 -0.2308
 1588ACTN    H116340   5.148   6.954   7.834  0.3327 -0.0308  0.4888
 1588ACTN    H216341   5.169   6.817   7.726 -1.8488  1.1567 -0.1065
 1588ACTN    H316342   5.297   6.940   7.738  0.3338 -3.0015 -2.7181
 1589ACTN    H616343   8.934   1.620   2.397  0.0986  0.2170 -0.4496
 1589ACTN    C316344   9.000   1.659   2.475  0.1398 -0.0113 -0.3715
 1589ACTN    H416345   9.076   1.721   2.428  1.3811  1.2059  3.0971
 1589ACTN    H516346   8.946   1.726   2.541  2.0528  2.1667 -0.9514
 1589ACTN    C216347   9.064   1.549   2.555 -0.6507  0.5025  0.1378
 1589ACTN    O116348   9.168   1.492   2.513 -0.3073 -0.2175 -0.4318
 1589ACTN    C116349   8.996   1.499   2.679  0.0170  0.2851 -0.6411
 1589ACTN    H116350   9.052   1.425   2.736 -1.4061 -0.5693 -0.3359
 1589ACTN    H216351   8.911   1.440   2.644 -0.6816  0.8202  0.1617
 1589ACTN    H316352   8.975   1.582   2.745 -0.9711 -1.8874  1.8607
 1590ACTN    H616353   1.414   1.842   4.152  1.5075 -1.1706 -1.2902
 1590ACTN    C316354   1.429   1.775   4.237  0.2355  0.6544  0.4192
 1590ACTN    H416355   1.371   1.811   4.322  0.0061  2.2144 -0.3743
 1590ACTN    H516356   1.387   1.676   4.216 -0.8329  1.1265  0.2685
 1590ACTN    C216357   1.571   1.769   4.277 -0.3144  1.0124  0.5335
 1590ACTN    O116358   1.636   1.873   4.273 -0.7043 -0.0203 -0.1396
 1590ACTN    C116359   1.605   1.667   4.377 -0.1146  0.9134 -0.7223
 1590ACTN    H116360   1.521   1.602   4.402  0.4018  1.0502  1.4869
 1590ACTN    H216361   1.650   1.710   4.467 -0.3006  0.7533 -0.5514
 1590ACTN    H316362   1.683   1.605   4.332 -0.6674 -1.7342  1.7874
 1591ACTN    H616363   4.229   8.479   2.163 -0.8688  2.9159 -0.8997
 1591ACTN    C316364   4.226   8.464   2.055 -0.3254 -0.7438 -0.4386
 1591ACTN    H416365   4.122   8.463   2.021  0.3051 -0.3664 -2.4514
 1591ACTN    H516366   4.266   8.555   2.011 -1.3727 -0.8156 -1.5831
 1591ACTN    C216367   4.310   8.334   2.036 -0.2685 -0.4091 -0.5637
 1591ACTN    O116368   4.431   8.341   2.063 -0.1884  0.3645  0.1245
 1591ACTN    C116369   4.236   8.206   2.038 -0.0148  0.2555  0.3579
 1591ACTN    H116370   4.244   8.159   2.137 -0.5428 -0.3046  0.1358
 1591ACTN    H216371   4.270   8.136   1.962  0.2980  0.5945  0.1840
 1591ACTN    H316372   4.131   8.230   2.020  0.0158  1.3211  1.5179
 1592ACTN    H616373   7.629   7.651   6.109  0.7062 -1.3014 -3.0349
 1592ACTN    C316374   7.658   7.756   6.103  0.2096 -0.8810  0.4907
 1592ACTN    H416375   7.571   7.812   6.136  0.2661 -0.3731 -0.2080
 1592ACTN    H516376   7.738   7.788   6.170 -2.4930 -0.3282  3.5743
 1592ACTN    C216377   7.689   7.778   5.962  0.3704 -0.9901 -0.0074
 1592ACTN    O116378   7.604   7.815   5.887 -0.4967  0.0723 -0.1887
 1592ACTN    C116379   7.826   7.813   5.925 -0.0414  0.6196  0.1010
 1592ACTN    H116380   7.848   7.799   5.819  2.0645 -0.2434  0.6324
 1592ACTN    H216381   7.900   7.762   5.986  1.2744  2.4040  0.0391
 1592ACTN    H316382   7.842   7.920   5.937 -0.9393  1.0480 -2.2337
 1593ACTN    H616383   7.726   0.090   5.026  2.5707 -3.2372  3.5241
 1593ACTN    C316384   7.810   0.154   4.998 -0.5910 -0.6964 -0.6613
 1593ACTN    H416385   7.767   0.249   4.966 -0.4242 -0.1873  0.5816
 1593ACTN    H516386   7.867   0.168   5.090  1.7516  0.8592 -2.2979
 1593ACTN    C216387   7.883   0.088   4.894 -0.0926 -0.5499  0.1590
 1593ACTN    O116388   7.852  -0.026   4.866  0.1597 -0.6854 -0.0552
 1593ACTN    C116389   7.987   0.156   4.816 -0.2738  0.4825  0.2340
 1593ACTN    H116390   7.945   0.176   4.718  1.5284  0.7293 -0.5058
 1593ACTN    H216391   8.082   0.103   4.820  0.3220  1.5071 -0.1198
 1593ACTN    H316392   7.998   0.257   4.857  3.7280  1.0685 -2.0258
 1594ACTN    H616393   1.987   1.434   4.149 -0.1769 -0.3673  0.0582
 1594ACTN    C316394   2.011   1.537   4.174 -0.2493 -0.4079  0.3043
 1594ACTN    H416395   1.941   1.578   4.246  0.3500  0.7253  0.2513
 1594ACTN    H516396   2.113   1.545   4.212 -0.1568 -0.1899  0.0181
 1594ACTN    C216397   2.013   1.621   4.052  0.4584 -0.3264 -0.7380
 1594ACTN    O116398   2.085   1.597   3.957  0.2985 -0.6780  0.0243
 1594ACTN    C116399   1.934   1.748   4.053  0.1421  0.3385  0.0853
 1594ACTN    H116400   1.828   1.736   4.076 -0.0571  0.5221 -0.7334
 1594ACTN    H216401   1.933   1.804   3.960 -2.2204 -1.5257 -1.0665
 1594ACTN    H316402   1.970   1.808   4.137  1.7444 -0.4102 -0.0452
 1595ACTN    H616403   6.271   0.128   2.834 -1.0875  0.3789 -0.7878
 1595ACTN    C316404   6.298   0.057   2.757  0.2010  0.1394 -0.1297
 1595ACTN    H416405   6.236   0.083   2.671 -1.4151  2.2012  1.6212
 1595ACTN    H516406   6.399   0.067   2.717  0.4194 -0.3273  0.3036
 1595ACTN    C216407   6.256  -0.085   2.790 -0.1938 -0.1474 -0.2336
 1595ACTN    O116408   6.148  -0.108   2.847  0.1767 -0.6203 -0.6303
 1595ACTN    C116409   6.354  -0.198   2.773 -0.4694  1.0269  0.3576
 1595ACTN    H116410   6.456  -0.161   2.765 -0.0978  0.0443  0.4164
 1595ACTN    H216411   6.346  -0.261   2.684  2.3889  1.8942 -0.5637
 1595ACTN    H316412   6.339  -0.256   2.864  0.2336 -1.4011 -1.0101
 1596ACTN    H616413   7.388   0.197   3.187  0.0548  0.3641 -0.5547
 1596ACTN    C316414   7.368   0.126   3.107 -0.1158 -0.1201 -0.0842
 1596ACTN    H416415   7.426   0.036   3.128 -0.4018 -0.3134 -0.1183
 1596ACTN    H516416   7.269   0.085   3.123 -0.4834  0.0658 -1.7966
 1596ACTN    C216417   7.400   0.175   2.975  0.8689  0.1895  0.1023
 1596ACTN    O116418   7.326   0.161   2.880 -0.3519  0.3237 -0.2619
 1596ACTN    C116419   7.527   0.248   2.951  0.0110 -0.3357 -0.0714
 1596ACTN    H116420   7.579   0.218   2.860  0.2234 -1.6920  0.4922
 1596ACTN    H216421   7.601   0.231   3.030  0.5174  0.9689 -0.2411
 1596ACTN    H316422   7.506   0.355   2.942  1.0748 -0.0153  1.0248
 1597ACTN    H616423   5.415   5.729   8.755  1.1362  1.2561  0.4269
 1597ACTN    C316424   5.369   5.702   8.850 -0.1702 -0.4396 -0.6581
 1597ACTN    H416425   5.340   5.802   8.883  1.2700 -0.7248  1.6129
 1597ACTN    H516426   5.281   5.641   8.831 -0.7176  0.9660 -2.7657
 1597ACTN    C216427   5.474   5.635   8.929  0.7865 -0.6197 -0.0825
 1597ACTN    O116428   5.461   5.622   9.052 -0.0253 -0.6849 -0.0326
 1597ACTN    C116429   5.582   5.570   8.860  0.4991 -0.2831 -0.6463
 1597ACTN    H116430   5.529   5.491   8.806 -0.7430 -0.0587  0.2311
 1597ACTN    H216431   5.662   5.545   8.930  0.6381 -0.8652 -1.0093
 1597ACTN    H316432   5.625   5.634   8.783 -1.3116 -0.8476 -2.1610
 1598ACTN    H616433   4.316   6.905   2.591 -0.1454 -1.2756 -0.5157
 1598ACTN    C316434   4.227   6.854   2.630 -0.5310 -0.3328 -0.1502
 1598ACTN    H416435   4.259   6.756   2.666 -0.6964 -1.1771 -2.2539
 1598ACTN    H516436   4.201   6.895   2.727  1.9368 -2.1787  1.3691
 1598ACTN    C216437   4.114   6.850   2.534  0.7037 -0.5926 -0.4911
 1598ACTN    O116438   4.062   6.739   2.515  0.7839 -0.2498 -0.1498
 1598ACTN    C116439   4.070   6.975   2.457 -0.1762  0.3281 -0.8300
 1598ACTN    H116440   3.976   6.977   2.402  0.5200 -1.0518 -2.0930
 1598ACTN    H216441   4.146   6.998   2.383  0.8306 -0.8500 -0.1839
 1598ACTN    H316442   4.077   7.060   2.525  0.5860  0.9271 -1.6438
 1599ACTN    H616443   5.927   1.444   4.587 -0.5239  2.2475  2.2080
 1599ACTN    C316444   5.829   1.463   4.544  0.0622  0.1925 -0.0963
 1599ACTN    H416445   5.808   1.570   4.549  0.7301  0.3193 -0.0487
 1599ACTN    H516446   5.825   1.430   4.440 -1.6294  2.1027 -0.6630
 1599ACTN    C216447   5.723   1.398   4.626 -0.5400 -0.7846  0.4889
 1599ACTN    O116448   5.707   1.423   4.745  0.0145 -0.4672 -0.7538
 1599ACTN    C116449   5.609   1.325   4.548 -0.3705  0.1620 -0.1207
 1599ACTN    H116450   5.512   1.368   4.573 -0.3245 -0.7559  1.7343
 1599ACTN    H216451   5.611   1.224   4.588 -0.3600  0.3469  0.3489
 1599ACTN    H316452   5.609   1.332   4.439 -0.0944  0.7707 -0.0844
 1600ACTN    H616453   5.511   0.656   5.839 -2.4363 -0.7838  0.2107
 1600ACTN    C316454   5.506   0.634   5.732 -0.1736  0.3555 -0.1415
 1600ACTN    H416455   5.602   0.652   5.683 -0.1414 -0.8116 -0.5206
 1600ACTN    H516456   5.487   0.528   5.721 -0.4194 -0.0937  3.9536
 1600ACTN    C216457   5.396   0.727   5.676 -0.2659  1.0670  0.5202
 1600ACTN    O116458   5.301   0.682   5.609  0.0431  0.1788 -0.0684
 1600ACTN    C116459   5.409   0.878   5.701  0.0817 -0.0981  0.4208
 1600ACTN    H116460   5.432   0.891   5.806  0.0227 -3.0808  0.8387
 1600ACTN    H216461   5.313   0.926   5.683  0.0134 -0.5200 -0.3868
 1600ACTN    H316462   5.491   0.921   5.643  0.8140 -1.6552  0.2889
 1601ACTN    H616463   7.120   6.455   6.699 -0.4181  0.1435  1.7349
 1601ACTN    C316464   7.061   6.366   6.719 -0.3023 -0.3817 -0.1271
 1601ACTN    H416465   7.116   6.273   6.701 -1.0475 -1.7031  3.7304
 1601ACTN    H516466   6.978   6.360   6.649  0.3590 -0.2767 -0.9317
 1601ACTN    C216467   7.007   6.368   6.860  0.5194 -0.0291  0.3387
 1601ACTN    O116468   6.905   6.307   6.894 -0.0048 -0.2655  0.8259
 1601ACTN    C116469   7.104   6.435   6.970  0.0717  0.1203  0.5106
 1601ACTN    H116470   7.206   6.443   6.932  0.0919  0.6007  0.6571
 1601ACTN    H216471   7.101   6.375   7.061 -3.2462 -0.1479  0.2959
 1601ACTN    H316472   7.061   6.533   6.990 -0.2771  0.4986 -1.9677
 1602ACTN    H616473   8.909   5.451   3.355 -0.0394 -0.4536 -0.2705
 1602ACTN    C316474   8.829   5.490   3.419  0.5404 -0.0342  0.1974
 1602ACTN    H416475   8.777   5.573   3.371  3.0664  1.2520 -0.4195
 1602ACTN    H516476   8.750   5.420   3.446  0.4372 -0.7126 -1.8466
 1602ACTN    C216477   8.888   5.532   3.547 -0.7420  0.0478  0.2771
 1602ACTN    O116478   8.991   5.471   3.582 -0.1006  0.2927 -0.4665
 1602ACTN    C116479   8.846   5.656   3.623 -0.3617 -0.1991  0.4577
 1602ACTN    H116480   8.752   5.644   3.677  0.8671  2.1420  3.2856
 1602ACTN    H216481   8.824   5.738   3.555  0.2515  0.4218  1.0052
 1602ACTN    H316482   8.911   5.693   3.702  0.7465 -0.6088 -0.2504
 1603ACTN    H616483   1.136   5.815   0.208 -0.3491  0.1619 -0.1886
 1603ACTN    C316484   1.147   5.844   0.312  0.7749 -0.2620 -0.1790
 1603ACTN    H416485   1.054   5.811   0.359 -0.1396 -0.2071 -1.9241
 1603ACTN    H516486   1.226   5.790   0.365 -0.2139 -1.8178 -0.2538
 1603ACTN    C216487   1.154   5.996   0.330 -0.3347 -0.1630  0.5174
 1603ACTN    O116488   1.100   6.039   0.436 -0.0950  0.0434  0.0231
 1603ACTN    C116489   1.209   6.085   0.214  0.4181 -0.1668 -0.1808
 1603ACTN    H116490   1.214   6.191   0.237  0.7429  0.1690 -1.7523
 1603ACTN    H216491   1.143   6.069   0.129 -0.0956  0.2140  0.1415
 1603ACTN    H316492   1.311   6.054   0.189  0.5355  2.0749 -2.6331
 1604ACTN    H616493   5.548   7.880   3.294  1.5131 -0.7832 -0.4064
 1604ACTN    C316494   5.527   7.776   3.323  0.4399 -0.4353  0.0844
 1604ACTN    H416495   5.615   7.713   3.312 -0.8467 -2.3888  0.7755
 1604ACTN    H516496   5.509   7.784   3.430 -1.2836 -1.4553 -0.1128
 1604ACTN    C216497   5.415   7.727   3.240  0.0066 -0.3043 -0.5004
 1604ACTN    O116498   5.344   7.644   3.285 -0.7308 -0.2548  0.4676
 1604ACTN    C116499   5.376   7.807   3.122 -0.8538  0.7377 -0.4940
 1604ACTN    H116500   5.351   7.731   3.048 -0.8961 -2.1640  2.3736
 1604ACTN    H216501   5.456   7.873   3.089 -0.9851  0.9873 -0.3155
 1604ACTN    H316502   5.292   7.869   3.152 -0.2525 -0.9395  5.4618
 1605ACTN    H616503   0.216   1.908   7.594  1.0609  0.6730 -2.3273
 1605ACTN    C316504   0.120   1.885   7.548  0.2341 -0.1338 -0.2341
 1605ACTN    H416505   0.069   1.808   7.607 -0.5088  1.9591  1.9110
 1605ACTN    H516506   0.056   1.972   7.554  0.0325 -0.2478 -0.7099
 1605ACTN    C216507   0.136   1.828   7.414 -0.1319  0.1468  0.6291
 1605ACTN    O116508   0.043   1.817   7.341 -0.1281 -0.3421  0.5170
 1605ACTN    C116509   0.273   1.821   7.356 -0.0670 -0.3101  0.0491
 1605ACTN    H116510   0.274   1.777   7.256 -0.9191 -2.0533  0.7838
 1605ACTN    H216511   0.338   1.771   7.428 -0.9592 -0.4047  0.8005
 1605ACTN    H316512   0.305   1.925   7.349 -4.5183  1.1359 -0.5329
 1606ACTN    H616513   4.091   8.602   8.266 -2.1734 -0.1692  1.3524
 1606ACTN    C316514   4.114   8.497   8.248 -0.4988  0.4231 -0.0343
 1606ACTN    H416515   4.025   8.435   8.243 -1.2016  1.4335 -0.1033
 1606ACTN    H516516   4.163   8.489   8.150  0.5064 -0.6519  0.5452
 1606ACTN    C216517   4.195   8.452   8.362 -0.7156 -1.2817  0.3995
 1606ACTN    O116518   4.322   8.454   8.358 -0.0306 -0.0798 -0.1318
 1606ACTN    C116519   4.129   8.453   8.497 -0.4074 -0.0423  0.3248
 1606ACTN    H116520   4.135   8.354   8.543  0.2886  0.2696  0.9048
 1606ACTN    H216521   4.022   8.472   8.490  0.2324  3.4053 -0.7390
 1606ACTN    H316522   4.170   8.531   8.561 -2.1957  1.0816  0.1184
 1607ACTN    H616523   2.435   1.110   1.176 -0.9298 -0.6249 -1.2872
 1607ACTN    C316524   2.459   1.179   1.096 -0.7070  0.6050 -0.1781
 1607ACTN    H416525   2.568   1.180   1.095 -0.7053  0.1994 -0.3568
 1607ACTN    H516526   2.422   1.134   1.003 -1.1665 -0.2755  0.4304
 1607ACTN    C216527   2.402   1.318   1.123 -0.5355  0.3592  0.4500
 1607ACTN    O116528   2.321   1.341   1.207 -0.3903  0.2574  0.0817
 1607ACTN    C116529   2.462   1.436   1.049  0.2576 -0.3583 -0.3450
 1607ACTN    H116530   2.543   1.474   1.112 -1.0659  0.3667  0.9668
 1607ACTN    H216531   2.390   1.517   1.037  1.1569  0.4624 -0.2533
 1607ACTN    H316532   2.494   1.399   0.952  2.5427 -0.9083  0.5945
 1608ACTN    H616533   6.926   4.291   6.651 -0.3977  0.3551 -1.5245
 1608ACTN    C316534   6.860   4.361   6.703  0.4217  0.0164 -0.0077
 1608ACTN    H416535   6.909   4.445   6.753  0.1226  0.0010  0.3137
 1608ACTN    H516536   6.781   4.400   6.639 -1.6045 -2.5050  0.8566
 1608ACTN    C216537   6.791   4.278   6.807  0.4408 -0.7669  0.0384
 1608ACTN    O116538   6.850   4.180   6.860 -0.3273 -0.3904 -0.2025
 1608ACTN    C116539   6.669   4.340   6.868  0.9165  0.0654 -1.0216
 1608ACTN    H116540   6.580   4.290   6.829  1.3483 -3.7634  2.5785
 1608ACTN    H216541   6.674   4.448   6.853 -0.4100  0.4207  0.9257
 1608ACTN    H316542   6.671   4.318   6.975 -2.3480 -0.5156 -1.0294
 1609ACTN    H616543   6.644   8.408   2.790 -0.4873  0.1578 -0.9713
 1609ACTN    C316544   6.718   8.460   2.729  0.4782 -0.0581 -0.0019
 1609ACTN    H416545   6.777   8.391   2.669  3.2370  2.5663 -0.4336
 1609ACTN    H516546   6.656   8.529   2.672 -0.1114 -0.5232  0.0739
 1609ACTN    C216547   6.820   8.527   2.831  0.0424  0.0236  0.6870
 1609ACTN    O116548   6.774   8.569   2.935  0.1169  0.0798  0.6130
 1609ACTN    C116549   6.957   8.564   2.789  0.0450 -0.7789 -0.4919
 1609ACTN    H116550   6.977   8.541   2.684 -0.3278 -3.2622 -0.0396
 1609ACTN    H216551   7.032   8.517   2.852 -1.0386 -2.4449 -0.4181
 1609ACTN    H316552   6.962   8.673   2.790  0.7601 -0.7993 -1.2377
 1610ACTN    H616553   7.470   8.223   4.339 -0.2245  0.7205  0.3736
 1610ACTN    C316554   7.368   8.185   4.348  0.2189 -0.5694 -0.0303
 1610ACTN    H416555   7.364   8.081   4.381  0.2982 -0.3253  0.7559
 1610ACTN    H516556   7.326   8.245   4.429  0.9273 -0.6227  0.3851
 1610ACTN    C216557   7.305   8.212   4.207  0.2149 -0.0373 -0.0416
 1610ACTN    O116558   7.203   8.282   4.187 -0.5883 -0.1381 -0.6480
 1610ACTN    C116559   7.352   8.130   4.096 -0.6544 -0.3936 -0.3807
 1610ACTN    H116560   7.426   8.053   4.120 -0.3921  0.1425  0.5605
 1610ACTN    H216561   7.383   8.199   4.018  0.5394 -0.4689  0.0124
 1610ACTN    H316562   7.262   8.080   4.061 -0.6913  0.0905 -0.9752
 1611ACTN    H616563   7.608   2.212   5.982  1.4673  0.1131  0.3851
 1611ACTN    C316564   7.609   2.166   5.883  0.0977  0.6015  0.1224
 1611ACTN    H416565   7.559   2.069   5.887  2.4833 -0.8187 -2.3212
 1611ACTN    H516566   7.562   2.230   5.809 -1.1470  1.7409  1.8685
 1611ACTN    C216567   7.747   2.143   5.857  0.2369 -0.4355 -0.1873
 1611ACTN    O116568   7.810   2.219   5.780  0.3906 -0.1738 -0.3049
 1611ACTN    C116569   7.823   2.044   5.944 -0.0428  0.0247 -0.5818
 1611ACTN    H116570   7.926   2.022   5.919 -0.1825  0.4421 -1.5404
 1611ACTN    H216571   7.769   1.950   5.940 -0.1064  0.0978 -1.3860
 1611ACTN    H316572   7.818   2.086   6.045 -0.0430 -1.0784 -0.1215
 1612ACTN    H616573   7.521   2.488   4.070 -0.8285 -0.8439 -1.1964
 1612ACTN    C316574   7.619   2.487   4.022 -0.3475  0.0966 -0.2336
 1612ACTN    H416575   7.627   2.423   3.934  3.4809 -1.8336  1.3953
 1612ACTN    H516576   7.644   2.590   3.995  1.1111 -0.8822 -2.7304
 1612ACTN    C216577   7.723   2.445   4.123  0.1767  0.8447  0.3858
 1612ACTN    O116578   7.721   2.327   4.146 -0.1960  0.3999 -0.1797
 1612ACTN    C116579   7.772   2.551   4.217 -0.1701 -0.0510 -0.1581
 1612ACTN    H116580   7.704   2.558   4.302  0.3880 -1.2718  0.4086
 1612ACTN    H216581   7.785   2.645   4.164 -4.8842  1.3607  1.0082
 1612ACTN    H316582   7.870   2.518   4.254  0.9984  2.2287 -1.1287
 1613ACTN    H616583   6.864   8.876   2.630  2.7730  2.4132  1.2798
 1613ACTN    C316584   6.843   8.960   2.564  0.4051  1.0923  0.2631
 1613ACTN    H416585   6.866   9.046   2.628 -1.4755  1.5700  0.3113
 1613ACTN    H516586   6.909   8.962   2.477  1.6014  2.3701  1.1752
 1613ACTN    C216587   6.698   8.962   2.526 -0.5421 -0.7123  0.3447
 1613ACTN    O116588   6.624   9.055   2.565 -0.4641  0.5895 -0.2604
 1613ACTN    C116589   6.633   8.840   2.473 -0.1144 -0.7318  0.2842
 1613ACTN    H116590   6.682   8.819   2.378 -0.9367 -0.7849 -0.1294
 1613ACTN    H216591   6.525   8.846   2.462  0.1376  1.6618 -1.1767
 1613ACTN    H316592   6.654   8.756   2.540  4.8104  0.1567  0.0325
 1614ACTN    H616593   6.425   3.546   2.177 -0.2597  0.9544 -0.0332
 1614ACTN    C316594   6.476   3.465   2.126 -0.5582  0.4794  0.4264
 1614ACTN    H416595   6.445   3.472   2.021  1.2946  1.5299 -0.0589
 1614ACTN    H516596   6.584   3.476   2.133 -0.1978 -3.1879  2.1257
 1614ACTN    C216597   6.434   3.331   2.184 -0.8140  0.0215 -0.4337
 1614ACTN    O116598   6.521   3.237   2.187 -0.2000 -0.0662 -0.1098
 1614ACTN    C116599   6.288   3.299   2.219  0.0151 -0.3584 -0.1071
 1614ACTN    H116600   6.266   3.314   2.325 -0.5817 -1.4398 -0.0741
 1614ACTN    H216601   6.256   3.196   2.205  0.7338 -0.9053  1.9836
 1614ACTN    H316602   6.225   3.366   2.161  2.5498  2.3795  0.1755
 1615ACTN    H616603   8.823   4.462   6.371  2.3959  0.4984  0.2315
 1615ACTN    C316604   8.847   4.362   6.334  0.0096  0.0274 -0.1610
 1615ACTN    H416605   8.795   4.295   6.403  1.1591 -2.0581 -1.2717
 1615ACTN    H516606   8.793   4.366   6.240 -1.8313  1.2987  0.9307
 1615ACTN    C216607   8.994   4.347   6.310 -0.4988  0.5113 -0.2128
 1615ACTN    O116608   9.065   4.451   6.307  0.0273  0.2150  0.1554
 1615ACTN    C116609   9.055   4.218   6.272  0.4263 -0.2317  0.0867
 1615ACTN    H116610   9.100   4.207   6.174 -1.8917 -0.5823 -0.9779
 1615ACTN    H216611   8.975   4.144   6.273 -0.5585  0.8060 -1.1521
 1615ACTN    H316612   9.123   4.180   6.349  1.0768 -3.1844 -1.8463
 1616ACTN    H616613   4.509   7.260   3.637  0.4790 -0.2498  0.2288
 1616ACTN    C316614   4.442   7.175   3.647  0.4527 -0.2720 -0.1490
 1616ACTN    H416615   4.414   7.145   3.546 -2.2987 -0.5526  0.6513
 1616ACTN    H516616   4.491   7.095   3.701 -1.8984 -1.1125  0.8219
 1616ACTN    C216617   4.313   7.215   3.707  0.3489 -0.9453 -0.5778
 1616ACTN    O116618   4.263   7.319   3.664  0.5847 -0.0373 -0.1827
 1616ACTN    C116619   4.227   7.111   3.776 -0.3828  0.2734  0.2401
 1616ACTN    H116620   4.245   7.009   3.744  0.8397  1.0122 -1.4840
 1616ACTN    H216621   4.127   7.137   3.740 -1.0799 -1.1673  1.1023
 1616ACTN    H316622   4.212   7.117   3.884  0.1579  0.3565  0.3086
 1617ACTN    H616623   1.523   5.430   7.889  0.6695 -0.9141 -1.2985
 1617ACTN    C316624   1.598   5.494   7.938 -1.2017  0.5033 -0.2252
 1617ACTN    H416625   1.670   5.530   7.865 -0.6715 -0.2046 -0.0512
 1617ACTN    H516626   1.540   5.574   7.984 -2.6225  0.7302 -2.3263
 1617ACTN    C216627   1.666   5.426   8.059  0.1509  0.0998 -0.0276
 1617ACTN    O116628   1.769   5.476   8.100 -0.3260 -0.0192  0.1244
 1617ACTN    C116629   1.569   5.354   8.150  0.4237 -0.1933  0.3028
 1617ACTN    H116630   1.511   5.430   8.201  0.5579  1.2095 -1.5755
 1617ACTN    H216631   1.619   5.287   8.219 -0.3878 -1.4329 -0.2858
 1617ACTN    H316632   1.502   5.293   8.089 -0.0114  0.1410  0.4509
 1618ACTN    H616633   5.387   7.912   4.231  0.0537  0.7704 -0.4726
 1618ACTN    C316634   5.422   7.881   4.132  0.1512  0.3780 -0.3174
 1618ACTN    H416635   5.446   7.776   4.148 -2.6526 -0.1269  0.8335
 1618ACTN    H516636   5.344   7.888   4.056 -0.5814  0.4039  0.4216
 1618ACTN    C216637   5.545   7.951   4.075  0.0018 -0.3954  0.1569
 1618ACTN    O116638   5.542   8.012   3.966  0.0142 -0.1327  0.4012
 1618ACTN    C116639   5.669   7.959   4.158 -0.2858 -0.2496 -0.7354
 1618ACTN    H116640   5.654   7.905   4.251 -1.0364  0.0129 -0.6948
 1618ACTN    H216641   5.700   8.060   4.186  2.0051 -1.3776  0.8930
 1618ACTN    H316642   5.753   7.914   4.107 -1.6469 -3.0815 -0.5521
 1619ACTN    H616643   8.125   8.265   5.528  1.6169  1.1802  1.4222
 1619ACTN    C316644   8.138   8.160   5.554  0.4498  0.5991 -0.2505
 1619ACTN    H416645   8.222   8.125   5.493  0.9393  2.5048 -0.7071
 1619ACTN    H516646   8.167   8.145   5.658  2.2709  0.2811 -0.7782
 1619ACTN    C216647   8.011   8.095   5.528  0.1050  0.3969  0.1631
 1619ACTN    O116648   7.922   8.160   5.468  0.0878  0.7017 -0.4359
 1619ACTN    C116649   7.989   7.964   5.597 -0.3473  0.0751 -0.4457
 1619ACTN    H116650   7.894   7.970   5.650 -0.7598 -2.0609 -0.8938
 1619ACTN    H216651   8.066   7.952   5.673 -0.6248  1.8400  0.1233
 1619ACTN    H316652   7.989   7.879   5.528  0.7977 -0.0242 -0.3391
 1620ACTN    H616653   7.174   6.060   8.323 -0.0469  0.0357 -0.4303
 1620ACTN    C316654   7.207   6.000   8.409 -0.0925  0.5390 -0.0591
 1620ACTN    H416655   7.184   6.060   8.497  0.7426 -1.0520  1.2603
 1620ACTN    H516656   7.162   5.901   8.399  1.4696 -0.1532 -0.4164
 1620ACTN    C216657   7.352   5.978   8.410 -0.0692  0.4268 -0.0245
 1620ACTN    O116658   7.395   5.878   8.470  0.5673 -0.1001  0.0005
 1620ACTN    C116659   7.444   6.096   8.398 -0.2508  0.0158  0.2820
 1620ACTN    H116660   7.432   6.131   8.295  3.7700  0.1588 -0.2161
 1620ACTN    H216661   7.545   6.072   8.430 -0.7082  2.5581  3.9002
 1620ACTN    H316662   7.407   6.179   8.458 -0.2215  0.1690  0.0874
 1621ACTN    H616663   7.578   3.600   6.940  0.1734 -1.5856  0.2427
 1621ACTN    C316664   7.623   3.594   6.841 -0.1551 -0.6055  0.0236
 1621ACTN    H416665   7.730   3.613   6.855 -0.5992  2.5491 -0.5599
 1621ACTN    H516666   7.606   3.492   6.805 -1.1731  0.1853 -1.7410
 1621ACTN    C216667   7.583   3.697   6.740  0.0545  0.3422  0.1610
 1621ACTN    O116668   7.641   3.714   6.636 -0.8509 -0.3499 -0.0327
 1621ACTN    C116669   7.458   3.782   6.765  0.3989  0.1374  1.2205
 1621ACTN    H116670   7.457   3.878   6.714 -2.9444 -0.8817 -0.7980
 1621ACTN    H216671   7.448   3.800   6.872 -0.6051 -0.7198  1.2853
 1621ACTN    H316672   7.365   3.734   6.734  1.3235 -0.5902 -0.4665
 1622ACTN    H616673   0.410   8.546   8.542  0.0539 -2.4167  1.1736
 1622ACTN    C316674   0.374   8.501   8.449  0.3105 -0.2293 -0.0123
 1622ACTN    H416675   0.316   8.575   8.393  0.3618 -1.8254 -2.2492
 1622ACTN    H516676   0.459   8.471   8.388  0.7814  2.4600 -0.7668
 1622ACTN    C216677   0.283   8.388   8.485  0.1664 -0.6737  0.5289
 1622ACTN    O116678   0.333   8.290   8.538 -0.1989 -0.0077  0.2431
 1622ACTN    C116679   0.136   8.382   8.460 -0.7774 -0.4076 -0.9449
 1622ACTN    H116680   0.112   8.363   8.355  0.9208 -0.5406 -1.3200
 1622ACTN    H216681   0.093   8.479   8.485  0.2700  0.0945 -1.0741
 1622ACTN    H316682   0.078   8.316   8.525 -0.5056  0.9822  0.7549
 1623ACTN    H616683   5.752   0.300   4.943  0.6302  2.4035 -0.0824
 1623ACTN    C316684   5.744   0.301   5.052  0.3119  0.3017 -0.0654
 1623ACTN    H416685   5.646   0.285   5.096  0.8771  2.7218  2.1677
 1623ACTN    H516686   5.801   0.214   5.086  1.4125  0.9946 -0.1123
 1623ACTN    C216687   5.804   0.428   5.104  0.2689  0.3513  0.2782
 1623ACTN    O116688   5.747   0.497   5.185  0.1622  0.4803  0.3424
 1623ACTN    C116689   5.940   0.460   5.063 -0.2821 -0.5180  0.0407
 1623ACTN    H116690   5.940   0.496   4.960  1.3890  1.0866  0.5747
 1623ACTN    H216691   6.007   0.375   5.062 -0.0138 -0.3218 -2.1102
 1623ACTN    H316692   5.986   0.537   5.125 -0.4559 -0.0041 -0.4618
 1624ACTN    H616693   7.757   8.239   8.859 -1.1564  1.3202 -1.6799
 1624ACTN    C316694   7.800   8.338   8.876 -0.1001  0.5816  0.0159
 1624ACTN    H416695   7.729   8.413   8.844  0.1423  0.9173  0.2599
 1624ACTN    H516696   7.837   8.353   8.978  0.8363  1.2186 -0.4055
 1624ACTN    C216697   7.927   8.339   8.788 -0.1588  0.2890 -0.1981
 1624ACTN    O116698   7.920   8.319   8.669 -0.6234 -0.2146 -0.5974
 1624ACTN    C116699   8.061   8.366   8.843 -0.4088  0.4684  1.0887
 1624ACTN    H116700   8.052   8.459   8.898  0.4871  0.5850  1.0360
 1624ACTN    H216701   8.135   8.367   8.763 -2.5354 -0.1384 -0.9332
 1624ACTN    H316702   8.103   8.288   8.906 -0.0143  1.4784  2.0762
 1625ACTN    H616703   2.385   1.729   5.924  0.2567  1.1526 -1.2628
 1625ACTN    C316704   2.473   1.763   5.978 -0.2084 -0.7258  0.6882
 1625ACTN    H416705   2.503   1.861   5.942  0.6654 -1.6726 -1.2054
 1625ACTN    H516706   2.441   1.784   6.080  2.0709  0.9412  1.0893
 1625ACTN    C216707   2.595   1.671   5.966 -0.4092 -0.0477 -0.6702
 1625ACTN    O116708   2.697   1.680   6.041  1.0928  0.2095  0.5475
 1625ACTN    C116709   2.584   1.587   5.843  0.2721 -0.3532  0.0403
 1625ACTN    H116710   2.686   1.548   5.833  0.0987 -1.1283  1.2372
 1625ACTN    H216711   2.568   1.655   5.760 -0.6905 -1.2668 -0.5363
 1625ACTN    H316712   2.515   1.503   5.855  1.7712 -1.9220 -1.7708
 1626ACTN    H616713   7.390   5.449   4.210  2.1496  2.7998 -1.1357
 1626ACTN    C316714   7.476   5.385   4.229  0.3073  0.5018 -0.1947
 1626ACTN    H416715   7.541   5.423   4.308  0.2722 -1.5521  0.8495
 1626ACTN    H516716   7.539   5.373   4.141 -1.1818  1.1140 -1.3697
 1626ACTN    C216717   7.436   5.254   4.276  0.0907  1.0701 -0.1115
 1626ACTN    O116718   7.445   5.160   4.197  0.4678 -0.0019  0.2194
 1626ACTN    C116719   7.375   5.236   4.412  0.1196 -0.1104  0.4411
 1626ACTN    H116720   7.462   5.231   4.477  2.1761 -1.1822 -2.2423
 1626ACTN    H216721   7.320   5.143   4.425 -1.1936  0.3651 -1.4539
 1626ACTN    H316722   7.305   5.315   4.436 -1.0498 -1.5370  1.8324
 1627ACTN    H616723   0.719   4.796   0.568 -1.4425 -0.0311 -0.9880
 1627ACTN    C316724   0.700   4.712   0.635  0.3306  0.4278  0.1223
 1627ACTN    H416725   0.633   4.744   0.715  0.0780  2.9954 -1.0786
 1627ACTN    H516726   0.655   4.631   0.577  1.4493 -0.3751  0.3494
 1627ACTN    C216727   0.827   4.658   0.687  0.1418  0.1420  0.9933
 1627ACTN    O116728   0.830   4.602   0.795  0.2352  0.8386  0.1937
 1627ACTN    C116729   0.949   4.653   0.604  0.3623  0.4210 -0.4797
 1627ACTN    H116730   0.937   4.714   0.514  2.3823  1.2980 -0.1693
 1627ACTN    H216731   0.963   4.552   0.567 -0.4896 -0.7833  2.3430
 1627ACTN    H316732   1.034   4.690   0.662 -0.8115  1.3827  0.6674
 1628ACTN    H616733   0.725   7.248   3.898  0.0348 -0.2172 -0.8946
 1628ACTN    C316734   0.673   7.153   3.905 -0.2272 -0.0141 -0.1171
 1628ACTN    H416735   0.568   7.174   3.929  0.1769  0.0836  1.6566
 1628ACTN    H516736   0.686   7.111   3.806 -1.5955 -0.6653 -0.0431
 1628ACTN    C216737   0.743   7.064   4.003 -0.1246 -0.2103 -0.3115
 1628ACTN    O116738   0.778   7.113   4.111 -0.2755  0.3509  0.1151
 1628ACTN    C116739   0.792   6.929   3.970  0.6803 -0.3930  0.3368
 1628ACTN    H116740   0.713   6.855   3.957  2.2110 -2.0546  0.3184
 1628ACTN    H216741   0.858   6.880   4.042 -0.7927 -1.4918  0.9863
 1628ACTN    H316742   0.837   6.939   3.871 -0.8013 -1.5334 -0.4683
 1629ACTN    H616743   7.789   4.148   8.827  0.6060 -0.9372 -0.6440
 1629ACTN    C316744   7.855   4.228   8.860  0.5716 -1.4228  0.6317
 1629ACTN    H416745   7.927   4.190   8.933  1.1979  1.2142  1.4508
 1629ACTN    H516746   7.903   4.263   8.769 -0.3238  0.2254  0.7775
 1629ACTN    C216747   7.773   4.340   8.922  0.0742 -0.2466  0.2055
 1629ACTN    O116748   7.806   4.393   9.028  0.2833 -0.2232 -0.0547
 1629ACTN    C116749   7.659   4.386   8.841 -0.3113 -0.4650  0.1284
 1629ACTN    H116750   7.648   4.493   8.858 -1.0673 -0.4180 -0.6404
 1629ACTN    H216751   7.571   4.328   8.867  1.5728 -3.8936 -0.7895
 1629ACTN    H316752   7.671   4.368   8.734 -2.3156  2.0925 -0.5998
 1630ACTN    H616753   6.880   4.612   8.527 -1.3740 -1.3689 -1.5857
 1630ACTN    C316754   6.965   4.607   8.458  0.5298 -0.0783  0.5705
 1630ACTN    H416755   6.968   4.503   8.426  0.3559  0.8447 -2.6080
 1630ACTN    H516756   6.969   4.666   8.366 -2.7770  1.8057  1.5526
 1630ACTN    C216757   7.084   4.642   8.544 -0.0691  0.5877 -0.5322
 1630ACTN    O116758   7.074   4.678   8.661 -0.2466 -0.4921 -0.0582
 1630ACTN    C116759   7.219   4.616   8.488 -0.3532  0.7996 -0.1870
 1630ACTN    H116760   7.278   4.706   8.478  0.3491  0.1702 -1.8325
 1630ACTN    H216761   7.212   4.577   8.386 -0.1459  1.3571 -0.4129
 1630ACTN    H316762   7.274   4.540   8.544 -2.9706  0.5538  2.1807
 1631ACTN    H616763   1.790   8.530   2.125  0.3956  0.6161 -0.4439
 1631ACTN    C316764   1.841   8.434   2.129 -0.0938  0.3855  0.2871
 1631ACTN    H416765   1.895   8.433   2.035  1.6018 -3.6063  1.1873
 1631ACTN    H516766   1.763   8.359   2.141 -2.0411  2.1651 -0.9655
 1631ACTN    C216767   1.942   8.418   2.238 -0.1013 -0.0173 -0.3268
 1631ACTN    O116768   2.021   8.504   2.271  0.1729  0.3276 -0.1063
 1631ACTN    C116769   1.929   8.297   2.325  0.0174  0.3660  0.4081
 1631ACTN    H116770   1.888   8.215   2.266  1.6399 -0.3748  0.2830
 1631ACTN    H216771   1.884   8.309   2.423  2.4673  1.0716  1.4815
 1631ACTN    H316772   2.027   8.258   2.350  0.3701  1.0490  0.0874
 1632ACTN    H616773   1.354   2.908   8.878  1.7858 -0.3542 -0.6067
 1632ACTN    C316774   1.347   2.853   8.784 -0.1567 -0.2997 -0.5219
 1632ACTN    H416775   1.242   2.843   8.756 -0.9349  0.0862  2.1734
 1632ACTN    H516776   1.391   2.754   8.798  1.6449  0.6264  0.5397
 1632ACTN    C216777   1.402   2.929   8.669 -0.1708 -0.5446 -0.5339
 1632ACTN    O116778   1.474   3.023   8.690 -0.2275 -0.6516  0.3244
 1632ACTN    C116779   1.392   2.874   8.529  0.5076 -0.2359  0.2641
 1632ACTN    H116780   1.333   2.783   8.519  1.3045 -0.6861 -0.4476
 1632ACTN    H216781   1.493   2.841   8.504  1.0876  1.6424  0.0268
 1632ACTN    H316782   1.353   2.941   8.451 -1.0368 -1.0741  0.2933
 1633ACTN    H616783   8.715   6.502   3.794  0.1393 -0.8030 -0.1215
 1633ACTN    C316784   8.759   6.488   3.893 -0.3357 -0.3287  0.1579
 1633ACTN    H416785   8.705   6.403   3.935 -1.0688  0.1005  0.1004
 1633ACTN    H516786   8.863   6.456   3.889 -0.1975  0.0916  0.3678
 1633ACTN    C216787   8.744   6.613   3.967 -0.7211  0.9933  0.7803
 1633ACTN    O116788   8.795   6.620   4.078 -0.0571 -0.1002 -0.8209
 1633ACTN    C116789   8.687   6.741   3.905  0.3059  0.3742  0.1596
 1633ACTN    H116790   8.744   6.769   3.816 -1.9605 -0.3200 -1.5760
 1633ACTN    H216791   8.677   6.828   3.969  0.2475  0.7574 -0.3653
 1633ACTN    H316792   8.585   6.725   3.869  1.3383 -1.0779 -2.3166
 1634ACTN    H616793   8.446   5.407   7.854 -1.7621 -1.6100  2.3328
 1634ACTN    C316794   8.526   5.442   7.920 -0.7463  0.7034 -0.0377
 1634ACTN    H416795   8.503   5.411   8.022 -2.0166 -3.3621 -1.4530
 1634ACTN    H516796   8.619   5.393   7.892 -1.4988 -1.4004  1.0316
 1634ACTN    C216797   8.543   5.588   7.918 -0.0405  0.8867 -0.5093
 1634ACTN    O116798   8.627   5.638   7.986  0.4082 -0.6221 -0.0509
 1634ACTN    C116799   8.454   5.673   7.842  1.0593 -0.0933 -0.8567
 1634ACTN    H116800   8.361   5.622   7.822  1.8020 -2.1360  0.6945
 1634ACTN    H216801   8.499   5.693   7.744 -0.2756  2.8596 -0.9329
 1634ACTN    H316802   8.424   5.761   7.899  2.0558 -0.9134  0.9731
 1635ACTN    H616803   7.444   4.774   0.040 -1.0129 -0.9093  1.1755
 1635ACTN    C316804   7.367   4.850   0.051  0.2520  0.4952  0.4307
 1635ACTN    H416805   7.301   4.836  -0.034 -0.8029 -0.8192  1.4555
 1635ACTN    H516806   7.318   4.826   0.145 -1.6899 -0.7596 -0.8732
 1635ACTN    C216807   7.403   4.994   0.054  0.3757 -0.0091 -0.0528
 1635ACTN    O116808   7.343   5.078   0.114  0.0003  0.2241 -0.5849
 1635ACTN    C116809   7.525   5.033  -0.036 -0.3823  0.4574  0.4449
 1635ACTN    H116810   7.515   4.982  -0.132 -1.3491  0.4298  0.5535
 1635ACTN    H216811   7.616   4.996   0.011 -0.3266 -0.0746 -0.0809
 1635ACTN    H316812   7.535   5.141  -0.047 -0.6885  0.5774  1.3255
 1636ACTN    H616813   7.877   6.232   1.421 -0.5035 -0.8609 -0.5761
 1636ACTN    C316814   7.953   6.176   1.477  0.0845 -0.3367 -0.8497
 1636ACTN    H416815   8.013   6.251   1.528 -2.3442  1.8393 -1.0413
 1636ACTN    H516816   7.895   6.124   1.553 -0.3596 -0.1201 -1.0400
 1636ACTN    C216817   8.043   6.075   1.402 -0.2920 -0.5408 -0.2906
 1636ACTN    O116818   7.989   6.006   1.321  0.1164  0.0248 -0.5469
 1636ACTN    C116819   8.187   6.064   1.422 -0.2955 -0.0984  0.0324
 1636ACTN    H116820   8.224   6.042   1.522  3.0734  0.3932 -1.0431
 1636ACTN    H216821   8.240   6.153   1.388  0.6311 -1.0022 -0.9429
 1636ACTN    H316822   8.220   5.979   1.362 -0.3261  0.0507 -0.1949
 1637ACTN    H616823   0.078   6.158   8.710  0.1371 -0.5824 -1.2671
 1637ACTN    C316824   0.120   6.252   8.746 -0.7193 -0.4563 -0.5872
 1637ACTN    H416825   0.224   6.232   8.769 -1.2792 -0.5616  1.9222
 1637ACTN    H516826   0.112   6.324   8.664  1.5309  1.8194  1.1189
 1637ACTN    C216827   0.061   6.314   8.876 -0.1104  0.2319  0.0933
 1637ACTN    O116828   0.012   6.428   8.886 -0.6491  0.2156 -0.7664
 1637ACTN    C116829   0.082   6.238   9.001 -0.0477 -0.7482  0.3035
 1637ACTN    H116830   0.149   6.292   9.068  0.7104 -2.2322  0.7613
 1637ACTN    H216831   0.126   6.145   8.966 -1.0630  0.1364 -3.5247
 1637ACTN    H316832  -0.014   6.222   9.051 -0.1911 -1.2785 -0.1402
 1638ACTN    H616833   2.416   7.305   2.933 -0.0670  0.5308 -0.2810
 1638ACTN    C316834   2.386   7.241   2.850 -0.3537 -0.2044  0.3821
 1638ACTN    H416835   2.281   7.214   2.866  0.1425 -0.4537  3.5979
 1638ACTN    H516836   2.399   7.302   2.761 -1.2363 -1.2095 -0.4406
 1638ACTN    C216837   2.454   7.108   2.834 -1.0412 -0.0605 -0.6071
 1638ACTN    O116838   2.430   7.028   2.744  0.1145  0.4066 -0.5949
 1638ACTN    C116839   2.548   7.064   2.943  0.2681  0.5216  0.5640
 1638ACTN    H116840   2.534   7.131   3.028  0.6761  1.9327 -0.4610
 1638ACTN    H216841   2.653   7.066   2.916 -0.0248 -0.4460 -0.6961
 1638ACTN    H316842   2.521   6.960   2.963 -2.0021  1.0773  0.5008
 1639ACTN    H616843   1.318   4.205   7.774  3.0505  1.0092  0.8964
 1639ACTN    C316844   1.324   4.240   7.671 -0.0925  0.1857  0.3568
 1639ACTN    H416845   1.229   4.252   7.619  0.3930  0.3959 -0.4946
 1639ACTN    H516846   1.371   4.156   7.619 -0.1174  0.6924 -0.4837
 1639ACTN    C216847   1.389   4.375   7.648 -0.2315  1.1849  0.7878
 1639ACTN    O116848   1.512   4.374   7.650  0.1345 -0.0388 -0.8965
 1639ACTN    C116849   1.307   4.499   7.666 -0.8032 -0.2086 -0.6347
 1639ACTN    H116850   1.328   4.574   7.590 -1.1644 -1.0359 -1.5560
 1639ACTN    H216851   1.335   4.520   7.770  0.6791  1.2966 -1.3059
 1639ACTN    H316852   1.199   4.485   7.661 -1.0922  1.9993 -1.1241
 1640ACTN    H616853   7.931   3.460   0.705 -5.1435  1.6211  1.1022
 1640ACTN    C316854   7.929   3.433   0.811 -0.0957 -0.9085  0.6640
 1640ACTN    H416855   7.835   3.468   0.853 -0.0526 -1.9660  1.6744
 1640ACTN    H516856   7.925   3.325   0.827 -2.1421 -0.8630  0.5398
 1640ACTN    C216857   8.060   3.485   0.870  0.9645 -0.2024 -0.0789
 1640ACTN    O116858   8.135   3.412   0.936 -0.0233 -0.6967  0.0065
 1640ACTN    C116859   8.094   3.629   0.842  0.2984  0.2679 -0.5253
 1640ACTN    H116860   8.193   3.619   0.797  1.3139  0.2287  1.6812
 1640ACTN    H216861   8.102   3.684   0.936  1.5843 -3.0985  1.4011
 1640ACTN    H316862   8.030   3.680   0.770  0.0505 -1.4065 -1.4988
 1641ACTN    H616863   8.421   8.254   0.197 -0.6500 -2.4905  1.6480
 1641ACTN    C316864   8.375   8.322   0.269  0.1520 -0.3705  0.2216
 1641ACTN    H416865   8.299   8.259   0.314  0.5288 -0.2506  1.0483
 1641ACTN    H516866   8.443   8.344   0.352  3.2345  1.2777 -2.6115
 1641ACTN    C216867   8.325   8.445   0.203  0.0143  0.0016  0.1084
 1641ACTN    O116868   8.265   8.432   0.100 -1.1218  0.3225 -0.0370
 1641ACTN    C116869   8.329   8.577   0.270  0.2243  0.3528  0.1948
 1641ACTN    H116870   8.390   8.569   0.360  2.8686  0.2478 -1.5401
 1641ACTN    H216871   8.225   8.601   0.293  0.8505  1.3361  2.0341
 1641ACTN    H316872   8.369   8.651   0.200 -2.6316  1.8024  0.0318
 1642ACTN    H616873   8.681   1.770   7.917  3.7446 -0.2809 -2.1096
 1642ACTN    C316874   8.614   1.752   7.833 -0.2803 -0.0328  0.8650
 1642ACTN    H416875   8.680   1.769   7.748  1.0750 -0.0708  1.8908
 1642ACTN    H516876   8.561   1.657   7.843 -0.9137  0.1933 -0.2129
 1642ACTN    C216877   8.515   1.859   7.840 -0.2503 -0.2604  0.0840
 1642ACTN    O116878   8.530   1.966   7.787  0.7452  0.2231 -0.2799
 1642ACTN    C116879   8.412   1.845   7.945 -0.1706  0.0091 -0.9559
 1642ACTN    H116880   8.375   1.942   7.979  1.5621  0.5526 -0.5939
 1642ACTN    H216881   8.459   1.789   8.025 -0.2740  0.8667 -0.2889
 1642ACTN    H316882   8.331   1.784   7.903 -1.1899 -0.5569  1.7064
 1643ACTN    H616883   1.811   8.741   1.252 -2.0622 -1.0812 -0.0517
 1643ACTN    C316884   1.744   8.824   1.273 -0.5954  0.1814 -0.2105
 1643ACTN    H416885   1.806   8.913   1.278  2.3000 -1.8103  0.4283
 1643ACTN    H516886   1.679   8.828   1.185 -2.0865  1.0333  0.8936
 1643ACTN    C216887   1.674   8.818   1.409  0.5898 -0.0321 -0.4390
 1643ACTN    O116888   1.592   8.900   1.442 -0.0557  0.4066 -1.0002
 1643ACTN    C116889   1.713   8.716   1.512  0.1647  0.2579 -0.2529
 1643ACTN    H116890   1.821   8.707   1.528 -0.1028 -0.1488  1.3830
 1643ACTN    H216891   1.678   8.620   1.475  1.0368  0.2408 -1.0631
 1643ACTN    H316892   1.669   8.734   1.610  0.1983 -0.2922 -0.1371
 1644ACTN    H616893   8.085   5.320   7.578  0.1777  0.4893  0.3790
 1644ACTN    C316894   8.063   5.366   7.674 -0.2428  0.1682  0.4364
 1644ACTN    H416895   8.162   5.392   7.712  0.0283  0.1221 -0.2261
 1644ACTN    H516896   8.005   5.455   7.651 -0.2885  0.1077  0.3156
 1644ACTN    C216897   8.003   5.268   7.769  0.5568 -0.8762 -0.6965
 1644ACTN    O116898   7.919   5.194   7.736  0.6385  0.1252  0.1243
 1644ACTN    C116899   8.045   5.288   7.910 -0.5351 -0.9220 -0.4705
 1644ACTN    H116900   7.978   5.260   7.992 -0.0882 -1.1470 -0.1790
 1644ACTN    H216901   8.064   5.394   7.929 -1.0054 -1.5017  3.8776
 1644ACTN    H316902   8.137   5.233   7.929 -0.2350  0.7548  3.5009
 1645ACTN    H616903   7.045   0.326   8.500 -0.7242 -0.5953  0.6823
 1645ACTN    C316904   6.947   0.320   8.548 -0.3420 -0.3156  1.5218
 1645ACTN    H416905   6.896   0.405   8.503 -0.3967 -1.5592 -0.8888
 1645ACTN    H516906   6.895   0.231   8.510 -0.4101 -0.0660  1.0244
 1645ACTN    C216907   6.952   0.331   8.698  0.6696  0.0091 -0.2863
 1645ACTN    O116908   6.945   0.442   8.755  0.2585  0.2563 -0.1649
 1645ACTN    C116909   6.995   0.215   8.776  0.0342 -0.6577 -0.0724
 1645ACTN    H116910   7.048   0.242   8.868  1.3164 -1.3174 -0.6015
 1645ACTN    H216911   7.055   0.144   8.718  0.1001 -1.4719  0.9667
 1645ACTN    H316912   6.902   0.166   8.806 -0.8868  0.2971 -1.3131
 1646ACTN    H616913   6.089   5.870   0.651 -0.0884  0.2179 -0.0644
 1646ACTN    C316914   6.035   5.782   0.686  0.0460  0.0840 -0.1925
 1646ACTN    H416915   6.105   5.699   0.692  0.4136  0.5283  2.0564
 1646ACTN    H516916   5.988   5.800   0.783  1.7054  0.7996  0.4984
 1646ACTN    C216917   5.939   5.746   0.573 -0.0385  0.2540  0.2328
 1646ACTN    O116918   5.967   5.773   0.456  0.4345 -0.1761 -0.3082
 1646ACTN    C116919   5.796   5.709   0.613 -0.0339  0.6617 -0.7484
 1646ACTN    H116920   5.750   5.797   0.657  0.2946 -0.9885  3.1030
 1646ACTN    H216921   5.795   5.631   0.690 -0.8688 -0.1805 -1.6008
 1646ACTN    H316922   5.740   5.673   0.527  0.1193  2.6451 -1.6831
 1647ACTN    H616923   0.064   4.997   0.611  0.9484  0.1357  0.7413
 1647ACTN    C316924  -0.022   4.931   0.611  0.6169  0.5652  1.0276
 1647ACTN    H416925  -0.007   4.845   0.546 -2.3065  0.0045  0.9920
 1647ACTN    H516926  -0.046   4.898   0.712 -0.0794  0.5512  0.8606
 1647ACTN    C216927  -0.146   5.009   0.562  0.0360 -0.4139  0.8444
 1647ACTN    O116928  -0.235   5.019   0.644 -0.1071  0.1022 -0.2700
 1647ACTN    C116929  -0.185   5.011   0.419 -0.0299 -0.5012  0.2177
 1647ACTN    H116930  -0.201   5.113   0.383 -1.4994 -0.0730  2.0458
 1647ACTN    H216931  -0.280   4.961   0.407  0.1307 -0.5674 -0.8840
 1647ACTN    H316932  -0.124   4.956   0.346  0.1543 -1.8742  1.3910
 1648ACTN    H616933   5.443   8.489   0.775 -4.2117 -0.3134 -1.2735
 1648ACTN    C316934   5.461   8.463   0.671  0.4398  0.5722 -0.7756
 1648ACTN    H416935   5.531   8.532   0.623 -1.1294  1.6592 -1.5281
 1648ACTN    H516936   5.498   8.363   0.650 -0.0076  0.2501 -0.0596
 1648ACTN    C216937   5.325   8.468   0.616  0.0765  0.0650 -0.4927
 1648ACTN    O116938   5.276   8.361   0.580 -0.2195  0.5694 -0.2434
 1648ACTN    C116939   5.264   8.588   0.574 -0.5994  0.0815 -0.1565
 1648ACTN    H116940   5.192   8.622   0.648 -1.4303  0.1251 -0.9866
 1648ACTN    H216941   5.205   8.572   0.484  0.1702 -0.3071 -0.5961
 1648ACTN    H316942   5.345   8.660   0.559  1.0095 -2.0601 -2.0235
 1649ACTN    H616943   8.977   1.361   7.580 -1.0904 -2.8949 -2.1320
 1649ACTN    C316944   8.884   1.383   7.632  0.8209  0.3820  0.1911
 1649ACTN    H416945   8.840   1.285   7.654  0.9295 -0.3297 -2.5522
 1649ACTN    H516946   8.905   1.438   7.723 -0.2433  0.6103  0.3102
 1649ACTN    C216947   8.794   1.455   7.539 -0.0082 -0.3667  0.2225
 1649ACTN    O116948   8.713   1.391   7.477 -0.0842  0.3454  0.1844
 1649ACTN    C116949   8.828   1.598   7.509 -0.3559  0.5132 -0.8852
 1649ACTN    H116950   8.927   1.621   7.467  1.1780 -0.7935  1.8565
 1649ACTN    H216951   8.832   1.655   7.602 -2.4576  2.8015 -2.1415
 1649ACTN    H316952   8.758   1.647   7.442 -1.6155 -0.5422 -0.3602
 1650ACTN    H616953   0.099   1.478   1.693 -0.0412 -2.9204 -1.0365
 1650ACTN    C316954   0.201   1.506   1.665 -0.3016 -1.0872 -0.2087
 1650ACTN    H416955   0.268   1.453   1.733  2.0638 -0.6160 -2.0928
 1650ACTN    H516956   0.227   1.478   1.562  1.0425 -2.7188  0.5548
 1650ACTN    C216957   0.217   1.651   1.676  0.5647 -0.2779  0.1843
 1650ACTN    O116958   0.124   1.728   1.660  0.0640  0.1544 -0.3495
 1650ACTN    C116959   0.352   1.705   1.715 -0.9649  0.2258 -0.4887
 1650ACTN    H116960   0.418   1.688   1.631 -0.6196 -0.3079 -0.1095
 1650ACTN    H216961   0.396   1.648   1.797 -1.1951  1.0709  0.2383
 1650ACTN    H316962   0.352   1.810   1.744 -0.5964  0.2092 -0.4359
 1651ACTN    H616963   8.301   2.587   2.136 -2.8807 -1.3593 -2.6731
 1651ACTN    C316964   8.378   2.585   2.058  0.1527 -0.1196  0.1446
 1651ACTN    H416965   8.322   2.562   1.968 -0.1274 -1.6306  0.6763
 1651ACTN    H516966   8.428   2.682   2.055  3.0528 -1.4470  2.3462
 1651ACTN    C216967   8.465   2.470   2.088 -0.1027 -0.4093 -0.1859
 1651ACTN    O116968   8.416   2.359   2.083 -0.3150  0.0100  0.1678
 1651ACTN    C116969   8.610   2.500   2.126  0.1235 -0.4038  0.3697
 1651ACTN    H116970   8.646   2.578   2.060  1.9874 -0.5849  1.1427
 1651ACTN    H216971   8.674   2.412   2.119  1.0161  0.4092 -2.0883
 1651ACTN    H316972   8.627   2.538   2.227 -2.2973  2.3808 -0.2315
 1652ACTN    H616973   2.798   4.873   6.515  0.5655 -0.8105 -0.3618
 1652ACTN    C316974   2.761   4.850   6.615 -0.1997  0.1405 -0.4145
 1652ACTN    H416975   2.843   4.834   6.685  2.1249 -0.2899 -3.1066
 1652ACTN    H516976   2.704   4.933   6.657  0.3583  0.2316  0.1764
 1652ACTN    C216977   2.672   4.729   6.595 -0.2949  0.1297 -0.0696
 1652ACTN    O116978   2.577   4.728   6.517 -0.1410 -0.3030 -0.4625
 1652ACTN    C116979   2.704   4.600   6.666  0.3169  0.4260 -0.1369
 1652ACTN    H116980   2.627   4.566   6.735  0.6752  1.5754  0.8361
 1652ACTN    H216981   2.799   4.609   6.719  0.0972 -2.7172  0.9106
 1652ACTN    H316982   2.711   4.518   6.594 -0.6763  0.2030  0.0198
 1653ACTN    H616983   8.311   6.132   0.417 -0.5049  0.9919  2.1563
 1653ACTN    C316984   8.416   6.153   0.439  0.0884  0.2137  0.2285
 1653ACTN    H416985   8.459   6.225   0.370 -1.6194 -1.2671 -2.4864
 1653ACTN    H516986   8.428   6.188   0.541  0.6838  1.0787 -0.1331
 1653ACTN    C216987   8.503   6.032   0.443 -0.0541 -0.5380 -1.0870
 1653ACTN    O116988   8.521   5.963   0.342  0.0390  0.5873  0.1588
 1653ACTN    C116989   8.553   5.990   0.583  0.3126  0.1571  0.4341
 1653ACTN    H116990   8.464   5.975   0.644  0.6687 -2.3222  0.3972
 1653ACTN    H216991   8.625   6.066   0.615  2.0784 -1.2083 -0.2025
 1653ACTN    H316992   8.603   5.893   0.577 -1.9330 -0.9066 -2.2094
 1654ACTN    H616993   0.907   0.324   2.122  0.0699  0.9622  0.4621
 1654ACTN    C316994   0.904   0.344   2.014 -0.0167 -0.0712  0.2711
 1654ACTN    H416995   0.801   0.373   1.992  0.1684  0.2592 -0.1642
 1654ACTN    H516996   0.961   0.431   1.982 -1.0223 -0.2264 -2.0264
 1654ACTN    C216997   0.931   0.239   1.919  0.2148  0.2093 -0.2384
 1654ACTN    O116998   0.980   0.139   1.962  0.1895  0.1719 -0.9878
 1654ACTN    C116999   0.914   0.268   1.769  0.3878 -0.0118 -0.4146
 1654ACTN    H117000   0.974   0.358   1.753  2.0309 -0.6325  1.9680
 1654ACTN    H217001   0.808   0.289   1.752  0.5789  2.4215  1.1501
 1654ACTN    H317002   0.942   0.181   1.709  1.4068  0.3848 -0.5334
 1655ACTN    H617003   1.546   2.649   8.436 -1.2267  0.3781  0.9264
 1655ACTN    C317004   1.523   2.543   8.450  0.3944 -0.1555 -0.3066
 1655ACTN    H417005   1.430   2.527   8.395 -0.2788 -1.0744  1.0953
 1655ACTN    H517006   1.597   2.477   8.404 -0.2964 -0.7235 -0.6141
 1655ACTN    C217007   1.506   2.509   8.595 -0.2610 -0.0104 -0.5516
 1655ACTN    O117008   1.563   2.575   8.673  0.5380 -0.5914 -0.4442
 1655ACTN    C117009   1.422   2.388   8.622 -0.0873  0.0778 -0.2692
 1655ACTN    H117010   1.471   2.330   8.701 -1.9596 -0.3849  0.5855
 1655ACTN    H217011   1.420   2.339   8.525 -1.0643  2.3217 -1.4017
 1655ACTN    H317012   1.321   2.411   8.656 -0.4181 -2.3081  0.4610
 1656ACTN    H617013   6.581   1.576   6.224 -0.3793 -0.1814  0.5872
 1656ACTN    C317014   6.581   1.663   6.159 -0.0728 -0.5755  0.0507
 1656ACTN    H417015   6.481   1.706   6.168  0.6029  0.7245  1.7316
 1656ACTN    H517016   6.656   1.739   6.182 -0.2283 -0.5665  0.5332
 1656ACTN    C217017   6.588   1.613   6.015 -0.4553  0.1935 -0.0720
 1656ACTN    O117018   6.491   1.623   5.943  0.0754  0.1611 -0.5218
 1656ACTN    C117019   6.711   1.546   5.970  0.3377  0.0285  0.5986
 1656ACTN    H117020   6.794   1.612   5.995 -0.3873  1.3181 -0.3760
 1656ACTN    H217021   6.710   1.535   5.862 -2.7994  0.7477  0.5167
 1656ACTN    H317022   6.731   1.447   6.011  0.2554 -0.1119  0.2997
 1657ACTN    H617023   5.790   5.092   0.227 -2.1202  0.3497  0.0369
 1657ACTN    C317024   5.794   5.185   0.284  0.1105  0.2006  0.1789
 1657ACTN    H417025   5.700   5.193   0.339  0.9674  1.8026  1.4747
 1657ACTN    H517026   5.876   5.180   0.356  2.0241  0.8386 -1.9011
 1657ACTN    C217027   5.803   5.299   0.198 -0.3641  0.3257  0.6520
 1657ACTN    O117028   5.849   5.402   0.230 -0.2459 -0.1814  0.3978
 1657ACTN    C117029   5.724   5.292   0.078  0.6503 -0.7340  0.1000
 1657ACTN    H117030   5.744   5.199   0.024  1.8944 -0.8298  0.7204
 1657ACTN    H217031   5.744   5.371   0.005  0.4243  0.7388  1.6145
 1657ACTN    H317032   5.616   5.296   0.095  0.6469  0.9075 -0.2557
 1658ACTN    H617033   2.386   5.707   8.734  0.1226 -0.0780 -0.6317
 1658ACTN    C317034   2.399   5.684   8.840 -0.5486  0.6381 -0.3872
 1658ACTN    H417035   2.331   5.603   8.865 -1.6005  0.8287 -2.5029
 1658ACTN    H517036   2.504   5.657   8.854 -1.2155 -0.7242  2.2630
 1658ACTN    C217037   2.367   5.805   8.920  0.0829 -0.6314 -0.5473
 1658ACTN    O117038   2.245   5.835   8.938 -0.4638 -0.1127  0.7639
 1658ACTN    C117039   2.468   5.867   9.017 -1.0976 -1.0411 -0.2123
 1658ACTN    H117040   2.462   5.855   9.125 -1.5386  0.6915 -0.0235
 1658ACTN    H217041   2.474   5.975   9.003  0.1140 -0.9127  1.2082
 1658ACTN    H317042   2.566   5.826   8.994 -2.1746 -2.5773 -2.2913
 1659ACTN    H617043   4.558   1.376   5.433 -1.7380  2.7848  1.3966
 1659ACTN    C317044   4.642   1.384   5.501  0.0146  0.2785 -0.3868
 1659ACTN    H417045   4.736   1.409   5.452  0.7874  0.7245  1.2970
 1659ACTN    H517046   4.617   1.462   5.574 -0.3104 -0.3293  0.1538
 1659ACTN    C217047   4.657   1.252   5.575 -0.2421  0.1173 -0.8035
 1659ACTN    O117048   4.717   1.244   5.686 -0.1617  0.2704  0.2280
 1659ACTN    C117049   4.647   1.131   5.497 -0.3272 -0.1975  0.6148
 1659ACTN    H117050   4.637   1.161   5.393 -3.6776  0.8573  1.2009
 1659ACTN    H217051   4.556   1.078   5.525 -1.1280 -0.2575 -1.9908
 1659ACTN    H317052   4.730   1.061   5.508  0.1509  0.5251  1.6791
 1660ACTN    H617053   6.762   6.312   7.568  2.2925 -1.9438 -0.1149
 1660ACTN    C317054   6.678   6.260   7.523  1.1205  0.0873 -0.3670
 1660ACTN    H417055   6.591   6.247   7.588  3.2405 -2.2247  2.1126
 1660ACTN    H517056   6.646   6.304   7.428 -0.2264  1.1335  0.5618
 1660ACTN    C217057   6.717   6.121   7.479  0.4702  0.2010 -0.6006
 1660ACTN    O117058   6.815   6.103   7.413 -0.3775 -0.0707  0.1638
 1660ACTN    C117059   6.639   6.008   7.531 -0.2221  0.6426  0.0531
 1660ACTN    H117060   6.537   6.044   7.550 -0.3114  0.1705  0.4690
 1660ACTN    H217061   6.682   5.975   7.626  0.7158  2.3399  0.2388
 1660ACTN    H317062   6.626   5.932   7.454 -1.4873  0.4124  0.4763
 1661ACTN    H617063   0.290   5.892   3.609 -0.5690 -0.2332  0.1216
 1661ACTN    C317064   0.260   5.983   3.661 -0.5174  0.2547 -0.7010
 1661ACTN    H417065   0.152   6.002   3.658 -0.6488 -0.2807  0.4978
 1661ACTN    H517066   0.278   5.960   3.765 -1.9792 -0.3776 -0.5677
 1661ACTN    C217067   0.339   6.096   3.617  0.3511 -0.3192  0.2503
 1661ACTN    O117068   0.278   6.186   3.559  0.3504  0.7927  0.3452
 1661ACTN    C117069   0.487   6.087   3.610  0.4432  0.4894  0.1058
 1661ACTN    H117070   0.515   5.983   3.622 -0.8331  0.4650  3.5241
 1661ACTN    H217071   0.539   6.148   3.684  0.9572 -0.5642  0.6240
 1661ACTN    H317072   0.512   6.122   3.509  0.7069  1.2432  0.4249
 1662ACTN    H617073   8.433   0.939   4.471 -1.0410  0.5667  0.3703
 1662ACTN    C317074   8.466   1.037   4.436  0.0691  0.3323  0.7568
 1662ACTN    H417075   8.375   1.088   4.405  1.3811  0.9546 -2.3018
 1662ACTN    H517076   8.510   1.099   4.514 -0.6236  0.1967  1.2637
 1662ACTN    C217077   8.551   1.031   4.308  0.1535 -0.1203  0.5500
 1662ACTN    O117078   8.556   0.931   4.242 -0.0396  0.1276 -0.1480
 1662ACTN    C117079   8.664   1.134   4.298  0.1559  0.3781  0.0501
 1662ACTN    H117080   8.648   1.222   4.361 -3.1143  0.6001 -0.9874
 1662ACTN    H217081   8.683   1.167   4.196  0.0268 -2.9136 -1.0899
 1662ACTN    H317082   8.760   1.097   4.335  1.3694  2.5886 -0.7981
 1663ACTN    H617083   2.015   8.741   7.818 -2.2978  1.2817 -1.2981
 1663ACTN    C317084   2.002   8.657   7.750 -0.3624 -0.4786  0.4119
 1663ACTN    H417085   2.037   8.692   7.654  1.5743 -0.1127  1.2335
 1663ACTN    H517086   2.073   8.579   7.778 -1.8829 -1.6457  1.1198
 1663ACTN    C217087   1.868   8.590   7.750  0.7529 -0.2070  0.6307
 1663ACTN    O117088   1.770   8.661   7.724  0.0330  0.3369  0.2603
 1663ACTN    C117089   1.847   8.455   7.771 -0.1294 -0.1624  0.2915
 1663ACTN    H117090   1.811   8.395   7.688  1.5415  0.4276 -0.8847
 1663ACTN    H217091   1.788   8.435   7.860 -2.7128  0.1112 -1.2992
 1663ACTN    H317092   1.943   8.408   7.792 -0.1867 -0.1396  0.6032
 1664ACTN    H617093   0.209   8.342   2.058  0.0937 -0.2128  0.7052
 1664ACTN    C317094   0.119   8.284   2.042  0.4338 -0.5679  0.0422
 1664ACTN    H417095   0.076   8.314   1.947  1.2782  1.9437  0.4049
 1664ACTN    H517096   0.134   8.176   2.037 -2.1970 -1.0017  0.6285
 1664ACTN    C217097   0.020   8.329   2.142  0.2525  0.6178 -0.4125
 1664ACTN    O117098   0.047   8.424   2.217  0.1948  0.0675 -0.6236
 1664ACTN    C117099  -0.115   8.262   2.147 -0.2610  0.0206  0.1657
 1664ACTN    H117100  -0.129   8.174   2.085  1.2185  0.2458 -0.5106
 1664ACTN    H217101  -0.189   8.335   2.117  0.1227 -0.4564 -2.0402
 1664ACTN    H317102  -0.125   8.228   2.250 -2.2117 -0.0172 -0.0148
 1665ACTN    H617103   0.478   1.633   2.513 -2.1754 -0.8244  0.6599
 1665ACTN    C317104   0.450   1.705   2.437  0.3451 -0.2010  0.3058
 1665ACTN    H417105   0.530   1.700   2.362 -1.0160 -1.7234 -1.1016
 1665ACTN    H517106   0.364   1.662   2.385  0.4958 -0.9558  0.6802
 1665ACTN    C217107   0.426   1.841   2.487 -0.2798  0.3812  0.1411
 1665ACTN    O117108   0.494   1.937   2.449  0.0696  0.1455  0.1608
 1665ACTN    C117109   0.306   1.867   2.566 -0.3181  0.1938 -0.4331
 1665ACTN    H117110   0.325   1.956   2.625 -0.2516  1.2158 -1.9509
 1665ACTN    H217111   0.270   1.792   2.636 -0.9024 -0.1939 -1.1262
 1665ACTN    H317112   0.220   1.885   2.500 -0.6481 -1.4880 -0.4918
 1666ACTN    H617113   3.668   7.144   3.082  1.0873  1.5107 -0.0086
 1666ACTN    C317114   3.760   7.086   3.090 -0.0587 -0.3088  0.1187
 1666ACTN    H417115   3.758   7.035   2.993 -0.8376 -0.1130  0.0268
 1666ACTN    H517116   3.844   7.155   3.094 -0.3620  0.0466  0.3729
 1666ACTN    C217117   3.765   6.994   3.206  0.2931  0.0058  0.2128
 1666ACTN    O117118   3.699   7.015   3.307  0.3853  0.0028  0.6468
 1666ACTN    C117119   3.889   6.916   3.212  0.5189 -0.5304 -0.2798
 1666ACTN    H117120   3.964   6.986   3.249  2.7820 -2.7911 -0.4520
 1666ACTN    H217121   3.927   6.883   3.115  0.2314 -0.9455 -0.2557
 1666ACTN    H317122   3.880   6.826   3.273  2.3026 -0.1289  0.5947
 1667ACTN    H617123   6.910   0.555   3.824 -0.7811 -1.3391  1.6855
 1667ACTN    C317124   6.814   0.608   3.823 -0.0124  0.0891  0.9759
 1667ACTN    H417125   6.737   0.533   3.842  0.1373 -1.9860 -5.2803
 1667ACTN    H517126   6.790   0.645   3.723  1.0259 -1.0198  0.2938
 1667ACTN    C217127   6.822   0.724   3.918  0.2259  0.3717 -0.3938
 1667ACTN    O117128   6.733   0.756   3.992 -0.4509 -0.5665 -0.5815
 1667ACTN    C117129   6.955   0.796   3.922  0.0850 -0.6732  0.2715
 1667ACTN    H117130   7.025   0.739   3.983 -1.7285 -1.5982  1.5110
 1667ACTN    H217131   6.952   0.896   3.966  1.0313 -1.3687  1.9661
 1667ACTN    H317132   6.999   0.795   3.821 -3.5325 -1.3867 -1.3614
 1668ACTN    H617133   6.831   8.407   3.492 -1.6882  1.5813 -2.3098
 1668ACTN    C317134   6.747   8.439   3.554 -0.1703  0.3969  0.4179
 1668ACTN    H417135   6.786   8.486   3.644 -0.6621  3.3167 -0.8551
 1668ACTN    H517136   6.689   8.521   3.512 -0.2292  0.4334  0.5666
 1668ACTN    C217137   6.659   8.321   3.598  0.2688 -0.1826 -0.2427
 1668ACTN    O117138   6.707   8.213   3.604  0.6555 -1.1970  0.0607
 1668ACTN    C117139   6.512   8.341   3.601 -0.4442 -0.6116 -0.0411
 1668ACTN    H117140   6.456   8.252   3.633  0.2174 -0.5316  1.3663
 1668ACTN    H217141   6.481   8.377   3.503  1.1189 -2.3772 -1.2289
 1668ACTN    H317142   6.491   8.420   3.672  0.3891  0.3179 -0.8242
 1669ACTN    H617143   7.797   8.939   5.309 -2.0710  0.3133  0.3791
 1669ACTN    C317144   7.747   8.850   5.271 -0.4551 -0.5143  0.1937
 1669ACTN    H417145   7.642   8.860   5.297 -0.0717  4.1521  0.3210
 1669ACTN    H517146   7.751   8.854   5.162 -2.6126  0.8362  0.1504
 1669ACTN    C217147   7.798   8.721   5.327 -0.1338 -0.0691 -0.4674
 1669ACTN    O117148   7.794   8.689   5.444 -0.2395  0.2549  0.1139
 1669ACTN    C117149   7.859   8.625   5.228  0.0090  0.3964 -0.4993
 1669ACTN    H117150   7.962   8.600   5.253  0.9702  3.7024 -0.7952
 1669ACTN    H217151   7.865   8.671   5.129 -0.7053 -0.6661 -1.0345
 1669ACTN    H317152   7.803   8.532   5.226  1.5407 -0.5825  1.0951
 1670ACTN    H617153   3.031   0.202   2.989 -0.0690  0.7967 -2.1083
 1670ACTN    C317154   3.135   0.211   2.955  0.6866  0.0148 -0.0825
 1670ACTN    H417155   3.198   0.258   3.030 -0.4178  0.4262  0.6011
 1670ACTN    H517156   3.176   0.113   2.931  1.9010  0.4962 -0.0187
 1670ACTN    C217157   3.138   0.289   2.830  0.6023 -0.3823  0.2557
 1670ACTN    O117158   3.109   0.231   2.729  0.1417  0.5991 -0.2676
 1670ACTN    C117159   3.204   0.423   2.830  0.3871 -0.2020  0.2660
 1670ACTN    H117160   3.212   0.463   2.931 -1.0173  0.4704  0.1286
 1670ACTN    H217161   3.144   0.487   2.766  1.4834  1.6130  1.0199
 1670ACTN    H317162   3.301   0.411   2.783  0.8445 -0.3576  1.2309
 1671ACTN    H617163   0.245   6.213   4.992 -1.6246  0.1378 -1.1773
 1671ACTN    C317164   0.236   6.318   4.963  0.5173  0.7533  0.2579
 1671ACTN    H417165   0.280   6.310   4.863 -0.8761 -0.0994 -0.3035
 1671ACTN    H517166   0.307   6.385   5.011  2.7322 -1.7925  0.6782
 1671ACTN    C217167   0.102   6.368   4.972  0.4370 -0.2055 -0.1594
 1671ACTN    O117168   0.074   6.416   5.080 -0.8649 -0.4027 -0.7515
 1671ACTN    C117169   0.008   6.353   4.851 -0.6870 -0.0032 -0.3003
 1671ACTN    H117170  -0.063   6.273   4.874 -0.0504 -0.4355  0.1856
 1671ACTN    H217171   0.058   6.338   4.756  1.3092 -1.4234  0.9256
 1671ACTN    H317172  -0.037   6.452   4.840  0.9102  0.5770 -1.8394
 1672ACTN    H617173   8.701   7.143   4.995  0.2157 -5.0160  1.5745
 1672ACTN    C317174   8.772   7.129   4.914  0.3251  0.2934  0.5514
 1672ACTN    H417175   8.762   7.025   4.884 -1.4927  1.0059 -1.4382
 1672ACTN    H517176   8.761   7.195   4.828  1.5415  0.7660  0.7532
 1672ACTN    C217177   8.902   7.171   4.970 -0.5908 -0.3840 -0.2718
 1672ACTN    O117178   8.914   7.288   5.016  0.0736  0.1938 -0.0375
 1672ACTN    C117179   9.014   7.074   4.966  0.4952 -0.3411  0.4868
 1672ACTN    H117180   9.111   7.122   4.951  0.5116 -0.9717 -1.5729
 1672ACTN    H217181   9.003   7.012   4.878 -1.9885  3.3524 -1.9680
 1672ACTN    H317182   9.013   7.003   5.049  1.1672 -0.7292  0.1656
 1673ACTN    H617183   7.144   7.051   2.861 -0.6467  0.4992  0.6729
 1673ACTN    C317184   7.073   7.042   2.944 -0.8379 -0.2104  0.4302
 1673ACTN    H417185   7.125   7.001   3.030 -1.1358 -0.7843  0.3353
 1673ACTN    H517186   7.040   7.144   2.962  0.8898  1.1984 -3.7094
 1673ACTN    C217187   6.959   6.954   2.912 -0.2724 -0.2744  0.0389
 1673ACTN    O117188   6.842   6.990   2.923  0.1789 -0.4100  0.1642
 1673ACTN    C117189   6.985   6.804   2.931  0.8620  0.2121  0.9773
 1673ACTN    H117190   6.926   6.747   2.859  0.8550  0.4653  0.7844
 1673ACTN    H217191   6.981   6.757   3.030 -1.9599 -2.8762 -0.5077
 1673ACTN    H317192   7.087   6.783   2.902  0.0392  1.8030 -3.3889
 1674ACTN    H617193   0.800   1.358   4.587  4.4230  2.0485 -0.4253
 1674ACTN    C317194   0.826   1.293   4.503 -0.2755 -0.6901  0.0461
 1674ACTN    H417195   0.772   1.331   4.416  1.4115  1.0455 -0.2916
 1674ACTN    H517196   0.930   1.303   4.472 -0.4735  0.1271 -0.3648
 1674ACTN    C217197   0.797   1.145   4.526  0.4708  0.3626  0.9141
 1674ACTN    O117198   0.848   1.064   4.454  0.8735  0.0398 -0.0048
 1674ACTN    C117199   0.696   1.110   4.623  0.0082  0.3932 -1.0470
 1674ACTN    H117200   0.605   1.162   4.595 -0.5650 -0.4464 -0.7620
 1674ACTN    H217201   0.733   1.132   4.723 -2.8942 -1.1324  0.4180
 1674ACTN    H317202   0.677   1.003   4.614  0.6992  0.1573  0.2241
 1675ACTN    H617203   8.428   8.565   2.178 -0.1167 -0.8435  0.0036
 1675ACTN    C317204   8.535   8.579   2.193 -0.3095  0.4302  0.2099
 1675ACTN    H417205   8.585   8.510   2.126 -0.9087 -1.3832  1.5832
 1675ACTN    H517206   8.553   8.681   2.159 -0.6355  0.2653 -0.4649
 1675ACTN    C217207   8.575   8.560   2.335 -0.0506  0.9671 -0.4709
 1675ACTN    O117208   8.566   8.658   2.411  0.3108 -0.8950  0.0511
 1675ACTN    C117209   8.625   8.423   2.379 -0.3125 -0.3082  0.8359
 1675ACTN    H117210   8.543   8.351   2.364 -0.1951 -0.4758  1.0066
 1675ACTN    H217211   8.638   8.419   2.487 -1.4837  0.1520  1.0092
 1675ACTN    H317212   8.714   8.387   2.328  0.0282 -0.3564  1.4658
 1676ACTN    H617213   0.232   2.314   8.533 -0.8522  0.9018 -0.8435
 1676ACTN    C317214   0.205   2.408   8.582 -1.0980  0.5500 -0.2962
 1676ACTN    H417215   0.215   2.410   8.690 -0.9130 -0.6912 -0.2888
 1676ACTN    H517216   0.258   2.491   8.534 -1.3176  0.3656 -0.8650
 1676ACTN    C217217   0.063   2.440   8.563  0.3572 -0.2521  0.2020
 1676ACTN    O117218   0.022   2.439   8.448 -0.5078  0.5336 -0.2441
 1676ACTN    C117219  -0.016   2.523   8.671  0.2259 -0.4461  0.0947
 1676ACTN    H117220   0.006   2.630   8.662  1.8931 -0.7190  0.7970
 1676ACTN    H217221   0.004   2.495   8.774  3.4811 -0.4241 -0.4958
 1676ACTN    H317222  -0.125   2.517   8.663  0.3555 -0.4439 -2.0177
 1677ACTN    H617223   4.297   7.356   5.352 -4.8663 -2.5060 -0.4895
 1677ACTN    C317224   4.317   7.348   5.245  0.1902  0.4315  0.0380
 1677ACTN    H417225   4.416   7.306   5.226  0.1330  0.3350 -0.0524
 1677ACTN    H517226   4.238   7.284   5.205 -1.3461  1.7565  0.8969
 1677ACTN    C217227   4.303   7.481   5.188 -0.4195 -0.3131 -0.3352
 1677ACTN    O117228   4.398   7.546   5.154 -0.7122 -0.3489 -0.3122
 1677ACTN    C117229   4.166   7.535   5.159 -0.4887  0.4283 -0.3552
 1677ACTN    H117230   4.154   7.538   5.051  0.5721  0.6841 -0.4717
 1677ACTN    H217231   4.155   7.635   5.202  0.8483  0.1413  0.6655
 1677ACTN    H317232   4.087   7.477   5.207 -1.2828  1.8189  0.0613
 1678ACTN    H617233   7.708   7.778   3.613  0.1545  0.4251  0.4988
 1678ACTN    C317234   7.805   7.788   3.566  0.3271  0.1021  0.7821
 1678ACTN    H417235   7.812   7.722   3.479 -1.6126  1.9434 -0.7979
 1678ACTN    H517236   7.812   7.888   3.524 -1.2645  0.2748  0.9315
 1678ACTN    C217237   7.917   7.770   3.658 -0.2342  0.0418 -0.4738
 1678ACTN    O117238   8.019   7.826   3.636  0.1029  0.3506  0.1569
 1678ACTN    C117239   7.912   7.677   3.774  0.1306  0.2242 -0.4074
 1678ACTN    H117240   7.925   7.743   3.860  2.5659 -0.5111 -0.1645
 1678ACTN    H217241   7.991   7.601   3.765 -3.3343 -3.5945 -0.2053
 1678ACTN    H317242   7.814   7.630   3.783  1.8948 -3.8653 -1.0789
 1679ACTN    H617243   8.979   7.664   4.623 -1.5666  0.4157  3.5357
 1679ACTN    C317244   8.936   7.565   4.608  0.3306  0.0579 -0.0811
 1679ACTN    H417245   8.847   7.553   4.670  2.2025 -1.4294  2.4246
 1679ACTN    H517246   8.919   7.559   4.501 -2.2609 -0.2369  0.3291
 1679ACTN    C217247   9.039   7.469   4.650  0.5081 -0.5809  0.5591
 1679ACTN    O117248   9.011   7.352   4.635 -0.3634 -0.3486  0.6482
 1679ACTN    C117249   9.179   7.521   4.657  0.4898  0.2239  0.5940
 1679ACTN    H117250   9.250   7.439   4.649  1.5351  0.9650  2.0796
 1679ACTN    H217251   9.187   7.569   4.754  1.1616  1.3376 -0.0038
 1679ACTN    H317252   9.204   7.596   4.582  2.1902  0.9036  1.8022
 1680ACTN    H617253   7.245   8.102   5.271 -0.9293  0.3123  0.3957
 1680ACTN    C317254   7.231   8.200   5.226  0.5381  0.2622 -0.2063
 1680ACTN    H417255   7.303   8.218   5.146 -0.5815  3.1186 -0.6238
 1680ACTN    H517256   7.251   8.269   5.308  0.5647  1.7159 -1.4072
 1680ACTN    C217257   7.093   8.230   5.182 -1.3053 -0.5045  0.6127
 1680ACTN    O117258   7.059   8.230   5.070  0.4205 -0.0132 -0.0278
 1680ACTN    C117259   6.989   8.235   5.281 -0.0953  0.2726 -0.3648
 1680ACTN    H117260   6.892   8.248   5.233  1.1985 -0.2290 -3.2483
 1680ACTN    H217261   6.989   8.322   5.347  3.3411  0.5210 -0.5740
 1680ACTN    H317262   6.980   8.146   5.342  0.4349  0.4014 -0.0939
 1681ACTN    H617263   7.087   0.448   5.123 -0.5404 -1.4245 -1.0242
 1681ACTN    C317264   7.052   0.511   5.041  0.1239 -0.1020 -0.3094
 1681ACTN    H417265   6.947   0.483   5.030 -1.1355  3.5593  1.5317
 1681ACTN    H517266   7.052   0.610   5.088  2.1275 -0.9799  1.6283
 1681ACTN    C217267   7.119   0.497   4.904  0.2652  0.5541 -0.0010
 1681ACTN    O117268   7.231   0.448   4.893 -0.4160 -0.1266 -1.0307
 1681ACTN    C117269   7.051   0.561   4.786  0.5385 -0.3911  0.0040
 1681ACTN    H117270   6.950   0.520   4.785 -0.2257  1.3875  1.4545
 1681ACTN    H217271   7.098   0.538   4.690 -0.5783  4.1356 -1.7336
 1681ACTN    H317272   7.049   0.669   4.795 -0.4398 -0.6560  3.6994
 1682ACTN    H617273   2.086   0.877   8.340 -0.5401  1.0450  0.3022
 1682ACTN    C317274   2.120   0.847   8.439  0.4723  0.2821 -0.2726
 1682ACTN    H417275   2.112   0.926   8.513  0.1632  0.6959 -0.7458
 1682ACTN    H517276   2.053   0.770   8.476  2.0542  0.3724  2.9190
 1682ACTN    C217277   2.254   0.780   8.458 -0.8594 -0.1124 -0.1632
 1682ACTN    O117278   2.332   0.784   8.361  0.5086 -0.2721  0.4213
 1682ACTN    C117279   2.295   0.725   8.597  0.1554  0.1467  0.4631
 1682ACTN    H117280   2.363   0.802   8.633 -0.3699  1.1262 -0.6168
 1682ACTN    H217281   2.360   0.637   8.602  0.7855  0.5753 -0.0668
 1682ACTN    H317282   2.216   0.713   8.671 -0.3578 -0.6740 -0.2035
 1683ACTN    H617283   2.758   1.144   1.433  2.1784  0.9110  2.2425
 1683ACTN    C317284   2.669   1.162   1.494  0.5757 -0.1426  0.2965
 1683ACTN    H417285   2.658   1.270   1.487 -0.1646 -0.2914 -1.0342
 1683ACTN    H517286   2.581   1.116   1.449  1.3271  0.7323 -2.1947
 1683ACTN    C217287   2.704   1.137   1.641  0.0414 -0.0282  0.0440
 1683ACTN    O117288   2.753   1.223   1.708 -0.6626 -0.1328  0.6461
 1683ACTN    C117289   2.661   1.013   1.710  0.0862  0.6083 -0.6358
 1683ACTN    H117290   2.607   1.029   1.803  0.0308  0.7625 -0.6940
 1683ACTN    H217291   2.742   0.943   1.731 -0.4532  1.1028  3.4106
 1683ACTN    H317292   2.589   0.958   1.649 -0.2073  0.9262 -0.5758
 1684ACTN    H617293   6.364   0.895   7.334  0.3819  0.4984  0.9527
 1684ACTN    C317294   6.425   0.817   7.289  0.1857  0.8649  0.0193
 1684ACTN    H417295   6.402   0.796   7.185 -0.4578 -1.3935  0.5672
 1684ACTN    H517296   6.530   0.840   7.309  1.2329 -2.0672 -1.7720
 1684ACTN    C217297   6.398   0.692   7.374  0.2838 -0.2669 -1.0151
 1684ACTN    O117298   6.489   0.620   7.408 -0.3857 -0.0341  0.4108
 1684ACTN    C117299   6.256   0.648   7.403 -0.2012 -0.4313  0.5596
 1684ACTN    H117300   6.246   0.630   7.510 -1.6533  1.0193  0.6835
 1684ACTN    H217301   6.234   0.560   7.343  0.8481  1.3193 -2.5055
 1684ACTN    H317302   6.183   0.726   7.385  0.2284  0.4180  2.3758
 1685ACTN    H617303   3.731   0.356   4.573  1.4280 -2.1657  3.1282
 1685ACTN    C317304   3.830   0.375   4.533  0.1923 -0.3573  0.7508
 1685ACTN    H417305   3.865   0.472   4.568  2.2407 -1.4047  1.7352
 1685ACTN    H517306   3.895   0.305   4.587 -1.3321 -1.7406  0.8298
 1685ACTN    C217307   3.858   0.375   4.379 -0.4385  0.1173  0.1111
 1685ACTN    O117308   3.781   0.325   4.304 -0.3076 -0.0735 -0.5116
 1685ACTN    C117309   3.975   0.447   4.333  0.4740 -0.5333  0.7011
 1685ACTN    H117310   4.012   0.504   4.418  0.3168  0.8819 -0.1645
 1685ACTN    H217311   3.956   0.520   4.254 -0.1693 -2.5647 -1.0675
 1685ACTN    H317312   4.050   0.372   4.308  2.1116  1.2759  0.0153
 1686ACTN    H617313   2.475   1.267   8.684  0.3336 -0.5243  1.2334
 1686ACTN    C317314   2.508   1.243   8.583  0.3862 -0.7073  1.2935
 1686ACTN    H417315   2.528   1.341   8.539 -1.5282 -1.7491 -2.0495
 1686ACTN    H517316   2.602   1.195   8.611  1.3334  1.3261  1.6992
 1686ACTN    C217317   2.416   1.143   8.513  0.3060  0.5594  0.1693
 1686ACTN    O117318   2.331   1.074   8.569 -0.2587  0.5734  0.0604
 1686ACTN    C117319   2.432   1.123   8.368 -0.3932  0.6841 -1.1436
 1686ACTN    H117320   2.437   1.016   8.345  1.7119  0.8063 -1.3308
 1686ACTN    H217321   2.522   1.171   8.331 -1.9152  3.9521 -0.8134
 1686ACTN    H317322   2.347   1.163   8.312 -0.4135  0.5039 -1.2441
 1687ACTN    H617323   2.297   6.859   6.012 -1.9422  1.5216  1.8097
 1687ACTN    C317324   2.360   6.801   6.079 -0.1818  0.2979 -0.8522
 1687ACTN    H417325   2.460   6.787   6.038  0.5106  0.3535  0.7739
 1687ACTN    H517326   2.373   6.869   6.162  1.0329 -1.4551  0.4430
 1687ACTN    C217327   2.308   6.665   6.117 -0.1362 -0.5330  0.2886
 1687ACTN    O117328   2.233   6.606   6.047  0.6361 -0.6864 -0.3990
 1687ACTN    C117329   2.319   6.629   6.259 -0.2379  0.7570  0.0184
 1687ACTN    H117330   2.418   6.584   6.271 -1.4766 -2.0820 -0.0992
 1687ACTN    H217331   2.245   6.555   6.286  0.3778  0.3606  0.6277
 1687ACTN    H317332   2.304   6.719   6.319 -0.6222  0.5258  0.2660
 1688ACTN    H617333   7.826   6.474   5.048  1.8224  3.3261  0.1630
 1688ACTN    C317334   7.862   6.471   4.945 -0.0711 -0.7333 -0.4911
 1688ACTN    H417335   7.970   6.489   4.952 -0.3738  0.4957  1.8580
 1688ACTN    H517336   7.849   6.369   4.911  0.0401 -0.6982 -0.6361
 1688ACTN    C217337   7.777   6.563   4.860  0.5835  0.0444  0.5400
 1688ACTN    O117338   7.658   6.543   4.836 -0.2259 -0.1116  0.2704
 1688ACTN    C117339   7.844   6.664   4.777  0.6237  0.5810  0.4244
 1688ACTN    H117340   7.918   6.717   4.837 -0.2763  0.8693  1.2984
 1688ACTN    H217341   7.775   6.741   4.743  0.6774  1.4334  2.1591
 1688ACTN    H317342   7.894   6.623   4.689  0.0485 -0.3429  0.5253
 1689ACTN    H617343   1.449   7.553   7.272 -0.1938 -0.3671 -0.6944
 1689ACTN    C317344   1.517   7.470   7.250  0.0042 -0.2995 -0.3489
 1689ACTN    H417345   1.550   7.475   7.146  0.6996 -0.8874 -0.1530
 1689ACTN    H517346   1.591   7.477   7.329 -2.2584 -0.4364  1.8269
 1689ACTN    C217347   1.430   7.354   7.271  0.7861 -0.0061  0.6042
 1689ACTN    O117348   1.401   7.261   7.191  0.2742  0.3576 -0.2772
 1689ACTN    C117349   1.355   7.347   7.402 -0.4926 -1.0641  0.2482
 1689ACTN    H117350   1.273   7.417   7.414  1.0644  0.8605 -0.1079
 1689ACTN    H217351   1.426   7.372   7.482 -2.0652 -1.5360  1.8291
 1689ACTN    H317352   1.325   7.244   7.419  4.2307 -2.6114 -0.0360
 1690ACTN    H617353   2.316   3.588   8.871  3.1556  2.1380 -1.8461
 1690ACTN    C317354   2.348   3.498   8.819  0.5242  0.0096  0.0406
 1690ACTN    H417355   2.293   3.496   8.724  2.2054 -1.8704 -0.9306
 1690ACTN    H517356   2.455   3.511   8.802  0.4851 -0.0638 -0.2653
 1690ACTN    C217357   2.321   3.367   8.894 -0.6403 -0.4929 -0.4274
 1690ACTN    O117358   2.315   3.367   9.016 -0.5048  0.0370 -0.3856
 1690ACTN    C117359   2.292   3.231   8.829  0.3046  0.3390 -0.2818
 1690ACTN    H117360   2.352   3.147   8.865 -0.0439 -0.3060 -1.1692
 1690ACTN    H217361   2.302   3.247   8.722  0.8705  1.2753 -0.0914
 1690ACTN    H317362   2.186   3.205   8.835  0.5823 -0.8511 -0.4163
 1691ACTN    H617363   6.298   8.659   6.993  1.1031  0.4018  2.0881
 1691ACTN    C317364   6.209   8.631   7.048  0.2676 -0.5603  0.2733
 1691ACTN    H417365   6.143   8.718   7.048  0.7203 -0.2173 -0.1156
 1691ACTN    H517366   6.158   8.557   6.986  1.4700 -2.6067  1.6384
 1691ACTN    C217367   6.237   8.580   7.190  0.1677 -0.0126 -0.2963
 1691ACTN    O117368   6.267   8.463   7.220 -0.0121  0.2910  0.2056
 1691ACTN    C117369   6.207   8.676   7.303  0.4800 -0.1950 -0.3405
 1691ACTN    H117370   6.174   8.624   7.393 -0.8148  0.2841 -0.5343
 1691ACTN    H217371   6.126   8.739   7.268  0.5103  0.0210 -0.0218
 1691ACTN    H317372   6.287   8.746   7.329  0.4883  0.2426 -1.5236
 1692ACTN    H617373   1.424   6.677   3.709  1.5565  1.6983  0.0405
 1692ACTN    C317374   1.340   6.744   3.693  0.3944  0.2884  0.1783
 1692ACTN    H417375   1.383   6.842   3.672 -1.7245  1.0222 -0.9745
 1692ACTN    H517376   1.288   6.714   3.602  2.9090  2.9472 -2.2235
 1692ACTN    C217377   1.248   6.737   3.813 -0.1705 -0.0132  0.6410
 1692ACTN    O117378   1.153   6.814   3.828 -0.3597  0.5482 -0.3801
 1692ACTN    C117379   1.274   6.640   3.925  0.5735 -0.0645 -0.1679
 1692ACTN    H117380   1.303   6.693   4.015 -0.2115  1.5844 -0.8572
 1692ACTN    H217381   1.357   6.578   3.892 -0.6750 -1.9240  0.1226
 1692ACTN    H317382   1.188   6.575   3.939  0.8530 -0.9394 -2.2718
 1693ACTN    H617383   7.873   1.233   4.447  0.4587  2.8845  0.4336
 1693ACTN    C317384   7.780   1.221   4.502  0.8287 -0.5956  0.3850
 1693ACTN    H417385   7.792   1.183   4.603  0.1888  0.6666  0.9476
 1693ACTN    H517386   7.748   1.324   4.513 -1.0643 -1.1700  0.5239
 1693ACTN    C217387   7.679   1.151   4.426 -0.2863  0.2240 -0.2307
 1693ACTN    O117388   7.716   1.045   4.385 -0.2479 -0.2632  0.1378
 1693ACTN    C117389   7.540   1.201   4.396 -0.9750  0.7298  0.2232
 1693ACTN    H117390   7.471   1.130   4.441 -1.2373 -0.3472 -1.8342
 1693ACTN    H217391   7.526   1.198   4.288 -0.3336 -1.7869  0.1728
 1693ACTN    H317392   7.523   1.302   4.433  0.4075  1.1666 -0.2776
 1694ACTN    H617393   7.462   8.039   3.797 -0.3753  2.3502 -0.1418
 1694ACTN    C317394   7.445   8.052   3.690  0.0456  0.8101 -0.4043
 1694ACTN    H417395   7.383   8.141   3.682 -0.2887  0.4790 -1.5512
 1694ACTN    H517396   7.536   8.080   3.637 -0.1870  1.8942 -0.2302
 1694ACTN    C217397   7.393   7.930   3.630 -0.3779 -0.1414  0.0577
 1694ACTN    O117398   7.307   7.859   3.682  0.4543 -0.0359 -0.4861
 1694ACTN    C117399   7.447   7.882   3.504  0.6895 -0.3149 -0.0189
 1694ACTN    H117400   7.406   7.784   3.478  0.1223  0.0455 -0.4925
 1694ACTN    H217401   7.556   7.878   3.514  0.7068  0.5126  0.1524
 1694ACTN    H317402   7.419   7.949   3.423  0.6607  1.7051  1.6295
 1695ACTN    H617403   7.631   7.756   5.252 -0.4287  1.1819 -0.4118
 1695ACTN    C317404   7.596   7.717   5.156 -0.2933  0.1125 -0.0379
 1695ACTN    H417405   7.641   7.776   5.076  2.2653 -1.6425  0.0523
 1695ACTN    H517406   7.646   7.620   5.151 -0.0730  0.3268 -2.5143
 1695ACTN    C217407   7.447   7.718   5.145  0.0546 -0.1617 -0.5333
 1695ACTN    O117408   7.392   7.617   5.105  0.7067 -0.2268  0.8941
 1695ACTN    C117409   7.367   7.843   5.170 -0.3387  0.0622 -0.1952
 1695ACTN    H117410   7.421   7.922   5.117  1.1320  0.0976  1.3191
 1695ACTN    H217411   7.348   7.870   5.274 -0.1581 -0.1664 -0.1041
 1695ACTN    H317412   7.269   7.827   5.126 -0.8602 -2.8499  1.9163
 1696ACTN    H617413   6.031   1.177   0.184 -0.7793  0.7915  0.4253
 1696ACTN    C317414   5.942   1.213   0.132 -0.7321  0.3695  0.0491
 1696ACTN    H417415   5.982   1.273   0.049  0.7250 -0.7610 -0.0977
 1696ACTN    H517416   5.898   1.130   0.078  1.1873 -0.2102 -0.6880
 1696ACTN    C217417   5.866   1.309   0.216 -0.2556  0.1593 -0.8980
 1696ACTN    O117418   5.887   1.342   0.330  0.6016  0.3325 -0.2019
 1696ACTN    C117419   5.748   1.374   0.147 -0.1099  0.2243 -0.0173
 1696ACTN    H117420   5.673   1.301   0.116 -0.3706  0.6874 -0.4915
 1696ACTN    H217421   5.762   1.441   0.062  0.5367 -0.4256 -0.4297
 1696ACTN    H317422   5.692   1.435   0.219 -0.5358 -1.5425  1.1781
 1697ACTN    H617423   8.679   8.318   0.290  0.1142 -0.9958  0.1655
 1697ACTN    C317424   8.761   8.373   0.244 -0.5111 -0.0350  0.2118
 1697ACTN    H417425   8.809   8.433   0.321  0.1172 -0.5090  0.1892
 1697ACTN    H517426   8.828   8.298   0.203 -0.6244 -0.5134  0.9089
 1697ACTN    C217427   8.711   8.458   0.138 -0.5092  0.2508 -0.0177
 1697ACTN    O117428   8.673   8.409   0.035  0.5935 -0.1945  0.0666
 1697ACTN    C117429   8.729   8.604   0.151 -0.2379  0.2317  0.2663
 1697ACTN    H117430   8.755   8.652   0.056 -0.7825  2.2113  1.0857
 1697ACTN    H217431   8.804   8.628   0.226 -0.1053  0.5088  0.0481
 1697ACTN    H317432   8.630   8.642   0.175 -1.5524 -1.0184 -2.8281
 1698ACTN    H617433   3.238   0.666   2.489 -0.4394 -1.5183 -3.3304
 1698ACTN    C317434   3.168   0.749   2.493  0.9841 -0.4333 -0.0027
 1698ACTN    H417435   3.118   0.757   2.590  0.4911 -1.2318 -0.1900
 1698ACTN    H517436   3.229   0.839   2.481 -0.9701  1.0163  0.6641
 1698ACTN    C217437   3.073   0.732   2.375  1.1038 -1.1242  0.3474
 1698ACTN    O117438   3.000   0.636   2.369 -0.3697  0.0010  0.1241
 1698ACTN    C117439   3.032   0.854   2.299  0.2672 -0.2702 -0.3690
 1698ACTN    H117440   2.926   0.875   2.311  0.6834  1.5362  0.1826
 1698ACTN    H217441   3.052   0.845   2.192 -0.0254 -3.7623 -0.2075
 1698ACTN    H317442   3.074   0.947   2.335  2.3796 -1.1191 -0.5765
 1699ACTN    H617443   6.456   0.477   4.156 -0.8702 -2.7613  1.7958
 1699ACTN    C317444   6.355   0.469   4.116 -0.5595 -0.4853  0.4403
 1699ACTN    H417445   6.367   0.443   4.011  0.9563  2.9299 -0.2976
 1699ACTN    H517446   6.301   0.390   4.169 -0.7449 -0.4683  0.2729
 1699ACTN    C217447   6.281   0.599   4.134 -0.4924  0.4646  0.3009
 1699ACTN    O117448   6.190   0.615   4.214 -0.0258 -0.2345  0.2049
 1699ACTN    C117449   6.322   0.730   4.057 -0.2967  0.0834  0.6040
 1699ACTN    H117450   6.402   0.715   3.985 -0.3694  0.1716  0.5045
 1699ACTN    H217451   6.353   0.812   4.122 -0.8353 -1.3539  2.7320
 1699ACTN    H317452   6.242   0.765   3.991 -0.9781 -0.9959  0.8374
 1700ACTN    H617453   7.713   7.935   8.828  0.8261  3.1508  0.8844
 1700ACTN    C317454   7.774   7.925   8.917  0.3543 -0.6052  0.8793
 1700ACTN    H417455   7.817   7.825   8.923  1.7018  0.0769  3.4462
 1700ACTN    H517456   7.858   7.993   8.897 -1.7474  0.9750 -3.0288
 1700ACTN    C217457   7.715   7.958   9.045 -0.5442 -0.4538 -0.9201
 1700ACTN    O117458   7.619   8.032   9.049  0.1136  0.1802  0.6220
 1700ACTN    C117459   7.806   7.952   9.162 -0.0074  0.6031  0.6905
 1700ACTN    H117460   7.768   8.020   9.238 -3.3532  0.3460 -0.6712
 1700ACTN    H217461   7.908   7.979   9.137  0.7109  1.0781  3.8791
 1700ACTN    H317462   7.800   7.853   9.207  0.9516 -0.1116 -0.7181
 1701ACTN    H617463   8.918   2.324   1.817 -0.3587  1.0069 -1.5842
 1701ACTN    C317464   8.951   2.243   1.751 -0.5449  0.2702 -0.7874
 1701ACTN    H417465   9.013   2.290   1.675  1.0656 -0.4455  0.0729
 1701ACTN    H517466   9.017   2.181   1.811 -0.6468  1.3458  0.4730
 1701ACTN    C217467   8.846   2.165   1.691  1.1730 -0.3060  0.1679
 1701ACTN    O117468   8.740   2.218   1.667 -0.2025  0.1757 -0.0145
 1701ACTN    C117469   8.876   2.028   1.638 -0.0851 -0.2462  0.1517
 1701ACTN    H117470   8.878   1.960   1.723  2.4369 -2.6309 -1.7367
 1701ACTN    H217471   8.973   2.016   1.590  0.6598  3.9362  0.3842
 1701ACTN    H317472   8.795   1.990   1.577 -1.0384  1.9584 -0.0114
 1702ACTN    H617473   6.834   8.725   3.545  1.1435 -0.1115  2.1689
 1702ACTN    C317474   6.917   8.796   3.546  0.5086  0.6898 -0.1594
 1702ACTN    H417475   6.955   8.806   3.444  0.7743 -1.9017 -0.3512
 1702ACTN    H517476   6.878   8.890   3.583 -0.5899 -0.1162  0.7783
 1702ACTN    C217477   7.032   8.733   3.630 -0.6964 -0.6951 -0.2071
 1702ACTN    O117478   7.005   8.629   3.691  0.2104 -0.1646  0.4665
 1702ACTN    C117479   7.161   8.813   3.658  0.9820  0.8117  0.0733
 1702ACTN    H117480   7.209   8.845   3.566  1.5617 -0.2176  0.0132
 1702ACTN    H217481   7.234   8.758   3.718  1.5253  1.2159 -0.2069
 1702ACTN    H317482   7.134   8.906   3.707 -3.1476  0.0349 -0.5223
 1703ACTN    H617483   7.057   7.196   7.652  0.1427 -0.4249 -1.4424
 1703ACTN    C317484   7.147   7.257   7.663 -0.2326  0.0153 -0.8376
 1703ACTN    H417485   7.227   7.226   7.596 -0.7305  0.6850 -1.7636
 1703ACTN    H517486   7.120   7.357   7.629  1.5995  0.7998  0.0109
 1703ACTN    C217487   7.211   7.251   7.804  0.4017  0.2236  0.3006
 1703ACTN    O117488   7.307   7.318   7.824 -0.2608 -0.1303  0.1582
 1703ACTN    C117489   7.134   7.192   7.926 -0.0894  0.3776  0.7191
 1703ACTN    H117490   7.082   7.104   7.887  2.0863 -0.5307 -0.1837
 1703ACTN    H217491   7.060   7.268   7.949 -1.2842 -0.7089  0.5180
 1703ACTN    H317492   7.197   7.164   8.011  0.2561  0.3230  0.4468
 1704ACTN    H617493   4.821   0.410   1.579 -0.4111 -0.4667  1.5087
 1704ACTN    C317494   4.713   0.430   1.580 -0.2521  0.5341  0.2402
 1704ACTN    H417495   4.661   0.340   1.547  0.7219 -0.2201  0.7232
 1704ACTN    H517496   4.688   0.440   1.686  1.1453  0.9820  0.5480
 1704ACTN    C217497   4.682   0.553   1.502  0.0872 -0.1686 -0.7668
 1704ACTN    O117498   4.761   0.594   1.410  0.0089  0.6250 -0.6017
 1704ACTN    C117499   4.565   0.648   1.537  0.0105 -0.3030  0.1377
 1704ACTN    H117500   4.545   0.641   1.644 -2.5232 -0.4808 -0.3179
 1704ACTN    H217501   4.472   0.615   1.493  0.4564  1.3769 -2.1387
 1704ACTN    H317502   4.588   0.753   1.521 -2.1711  0.1512 -0.0618
 1705ACTN    H617503   6.349   2.343   3.546 -1.0695  1.3688  1.6642
 1705ACTN    C317504   6.263   2.282   3.517 -0.2424  0.5042  1.0321
 1705ACTN    H417505   6.205   2.329   3.437  0.7482 -0.9843 -0.6172
 1705ACTN    H517506   6.304   2.191   3.472 -0.2122 -0.4194  2.9072
 1705ACTN    C217507   6.179   2.244   3.635 -0.2054 -0.1200  0.2809
 1705ACTN    O117508   6.202   2.140   3.690 -0.1900  0.0155 -0.3154
 1705ACTN    C117509   6.087   2.342   3.705  0.0507  0.0861  0.0244
 1705ACTN    H117510   5.984   2.310   3.688 -0.6480  1.8757  0.6423
 1705ACTN    H217511   6.095   2.445   3.669 -0.9023  0.7317  1.5559
 1705ACTN    H317512   6.111   2.327   3.810 -0.0596 -0.0875  0.0241
 1706ACTN    H617513   1.231   3.951   5.688 -0.1868  0.3650  0.3422
 1706ACTN    C317514   1.241   3.845   5.710 -0.6565  0.2194 -0.1334
 1706ACTN    H417515   1.183   3.829   5.801  1.7310 -0.9476  1.2548
 1706ACTN    H517516   1.197   3.796   5.623  0.8991  1.3171 -1.5848
 1706ACTN    C217517   1.383   3.814   5.739 -0.5321 -0.4821 -0.1381
 1706ACTN    O117518   1.415   3.713   5.797 -0.0339  0.2650 -0.0909
 1706ACTN    C117519   1.484   3.909   5.689  0.3472 -0.5889  0.2768
 1706ACTN    H117520   1.445   3.970   5.607  0.5400 -0.3068  0.3920
 1706ACTN    H217521   1.574   3.865   5.647  1.2576  2.3300 -1.0130
 1706ACTN    H317522   1.514   3.973   5.772 -4.2170  0.9505  0.8794
 1707ACTN    H617523   0.463   6.750   8.603 -0.3007  2.6816 -1.1647
 1707ACTN    C317524   0.387   6.713   8.535 -0.3058 -0.1102  0.2941
 1707ACTN    H417525   0.404   6.770   8.444 -1.3570  1.8040  1.2639
 1707ACTN    H517526   0.402   6.606   8.520  2.7234  0.3602 -0.2881
 1707ACTN    C217527   0.241   6.740   8.565  0.2060  1.0478  0.2389
 1707ACTN    O117528   0.201   6.852   8.603  0.2458 -0.0333  0.1534
 1707ACTN    C117529   0.136   6.635   8.566 -0.4637 -0.9884  0.1258
 1707ACTN    H117530   0.042   6.676   8.601 -0.2612  0.1125 -0.5590
 1707ACTN    H217531   0.168   6.555   8.632 -0.5267  0.4846  1.9561
 1707ACTN    H317532   0.121   6.602   8.463  1.2464  3.0346 -1.5502
 1708ACTN    H617533   6.829   8.795   4.008  1.5410  0.9075 -1.5161
 1708ACTN    C317534   6.880   8.700   3.996 -0.1338 -0.3363  0.8181
 1708ACTN    H417535   6.813   8.629   3.947 -1.4842  1.4622 -0.0090
 1708ACTN    H517536   6.967   8.719   3.933 -0.6616 -0.6163 -0.0028
 1708ACTN    C217537   6.916   8.650   4.128 -0.1293 -0.2496 -0.5418
 1708ACTN    O117538   6.826   8.612   4.202 -0.6626 -0.2355  0.2259
 1708ACTN    C117539   7.058   8.655   4.173  0.7901 -0.0576 -0.0046
 1708ACTN    H117540   7.063   8.647   4.281  0.4298  0.1644  0.0281
 1708ACTN    H217541   7.111   8.749   4.158  0.1615  1.2575  5.1849
 1708ACTN    H317542   7.122   8.575   4.136 -0.9753 -1.2329 -0.5834
 1709ACTN    H617543   8.938   8.536   7.847  0.2906  0.1856 -0.2819
 1709ACTN    C317544   8.861   8.578   7.782  0.1094  0.0869 -0.1325
 1709ACTN    H417545   8.906   8.665   7.733  1.8563 -0.4032  0.5454
 1709ACTN    H517546   8.847   8.498   7.710  0.7150  1.1482 -1.4589
 1709ACTN    C217547   8.749   8.632   7.858 -1.1271  0.1194  0.5972
 1709ACTN    O117548   8.732   8.753   7.872  0.4425  0.3074  0.4668
 1709ACTN    C117549   8.680   8.553   7.963  0.8966  0.4888 -0.4129
 1709ACTN    H117550   8.626   8.478   7.904  0.0254  1.9900 -1.5580
 1709ACTN    H217551   8.635   8.607   8.046  0.6687 -2.9687  1.8332
 1709ACTN    H317552   8.758   8.499   8.016 -0.0463  0.5470  1.0575
 1710ACTN    H617553   4.939   0.451   3.974 -0.9163  0.5095 -1.2777
 1710ACTN    C317554   5.015   0.518   3.933  0.3908 -0.4133 -0.4027
 1710ACTN    H417555   5.025   0.485   3.829 -1.2226  1.2328 -1.0941
 1710ACTN    H517556   4.975   0.619   3.944 -0.2085 -0.1671 -4.0864
 1710ACTN    C217557   5.140   0.518   4.012 -0.1858 -0.1979  0.5007
 1710ACTN    O117558   5.162   0.456   4.115 -0.2218  0.3242 -0.2193
 1710ACTN    C117559   5.233   0.626   3.978 -0.0749  0.6693 -0.2775
 1710ACTN    H117560   5.326   0.585   3.937  0.2975  0.6104  0.6275
 1710ACTN    H217561   5.263   0.689   4.061 -0.6829  0.7719 -0.1369
 1710ACTN    H317562   5.185   0.683   3.899  0.5455  0.5052 -0.7834
 1711ACTN    H617563   7.589   7.090   8.952  0.7426 -0.5941 -4.0990
 1711ACTN    C317564   7.581   6.981   8.959  0.5892 -0.3663  0.8302
 1711ACTN    H417565   7.671   6.933   8.921 -1.3779 -2.0483 -1.8876
 1711ACTN    H517566   7.576   6.952   9.064  2.0136  0.7776  1.2297
 1711ACTN    C217567   7.465   6.950   8.874  0.0814 -0.0016  0.3417
 1711ACTN    O117568   7.479   6.891   8.770 -0.6024  0.1449  0.3164
 1711ACTN    C117569   7.330   7.017   8.913 -0.0128 -0.2396  0.2914
 1711ACTN    H117570   7.344   7.089   8.994  0.4207 -0.6280  0.5581
 1711ACTN    H217571   7.264   6.942   8.957  1.2129 -1.3541  0.2261
 1711ACTN    H317572   7.282   7.067   8.829 -0.1911  0.1011  0.5936
 1712ACTN    H617573   5.439   6.645   6.915 -1.3026 -1.8550 -0.0664
 1712ACTN    C317574   5.529   6.598   6.956 -0.4739 -0.1142  0.1526
 1712ACTN    H417575   5.502   6.503   7.002 -0.7668 -0.4335 -0.6770
 1712ACTN    H517576   5.571   6.663   7.033  2.8702 -3.6860  1.4626
 1712ACTN    C217577   5.631   6.564   6.856 -0.5921 -0.2744  0.1595
 1712ACTN    O117578   5.601   6.573   6.738  0.2966 -0.0923 -0.1148
 1712ACTN    C117579   5.755   6.492   6.892 -0.2347  0.4218  0.0927
 1712ACTN    H117580   5.783   6.424   6.811  1.9507  0.5896  0.6952
 1712ACTN    H217581   5.736   6.429   6.979 -1.0373 -1.8241 -1.6544
 1712ACTN    H317582   5.836   6.559   6.919 -2.3235  2.1645  2.2589
 1713ACTN    H617583   3.015   6.941   6.310  0.8116  0.6012 -1.2862
 1713ACTN    C317584   2.991   7.047   6.296  0.5683  0.6304 -0.6719
 1713ACTN    H417585   3.060   7.089   6.223 -1.1064  3.7134 -0.5568
 1713ACTN    H517586   2.889   7.053   6.258 -0.2061 -3.7814  0.3790
 1713ACTN    C217587   3.019   7.120   6.425 -0.2066 -0.2023  0.2181
 1713ACTN    O117588   3.095   7.074   6.508  0.0013 -0.0612 -0.3905
 1713ACTN    C117589   2.988   7.257   6.441 -0.0136 -0.2188  0.0861
 1713ACTN    H117590   3.021   7.309   6.351  0.9464  0.8892  1.0716
 1713ACTN    H217591   3.036   7.303   6.527 -1.0200  2.4784 -0.7406
 1713ACTN    H317592   2.882   7.276   6.452 -0.0573 -0.0923 -0.5350
 1714ACTN    H617593   8.227   6.774   8.973  0.4974  0.1626 -0.4680
 1714ACTN    C317594   8.193   6.675   8.943  0.3625 -0.0235  0.2830
 1714ACTN    H417595   8.189   6.677   8.834  1.5525 -0.1463  0.2350
 1714ACTN    H517596   8.273   6.604   8.963  0.4103  0.4580  1.8833
 1714ACTN    C217597   8.062   6.655   9.004 -0.6492 -0.4200  0.4498
 1714ACTN    O117598   7.966   6.684   8.940  0.0723  0.2534 -0.2898
 1714ACTN    C117599   8.064   6.624   9.150 -0.3834 -0.2523 -0.0027
 1714ACTN    H117600   8.161   6.632   9.199 -0.5693  0.8798  0.1839
 1714ACTN    H217601   8.042   6.518   9.166 -2.2047 -0.1688 -1.7433
 1714ACTN    H317602   7.997   6.691   9.204  1.8558  2.4428 -0.4667
 1715ACTN    H617603   5.623   8.638   8.380  0.8921  0.5023 -0.6285
 1715ACTN    C317604   5.618   8.715   8.304  0.1336  0.6049 -0.4814
 1715ACTN    H417605   5.515   8.749   8.294 -0.4709 -0.9896  0.1453
 1715ACTN    H517606   5.687   8.792   8.340 -0.1040  0.5217  0.1510
 1715ACTN    C217607   5.671   8.650   8.183 -0.8966  0.0179 -0.0375
 1715ACTN    O117608   5.622   8.545   8.134  0.0157  0.4224  0.1884
 1715ACTN    C117609   5.802   8.698   8.130 -1.2281 -0.1055 -0.0716
 1715ACTN    H117610   5.886   8.676   8.195 -0.8033 -0.3026 -0.6870
 1715ACTN    H217611   5.793   8.806   8.126 -0.9168 -0.1042 -0.6812
 1715ACTN    H317612   5.820   8.652   8.033  1.4223  3.5227 -1.3917
 1716ACTN    H617613   7.333   8.823   8.718  0.8624 -2.2443  0.5433
 1716ACTN    C317614   7.273   8.749   8.665 -0.0938 -0.8549 -0.3400
 1716ACTN    H417615   7.313   8.651   8.690 -2.0501 -1.4750  0.4518
 1716ACTN    H517616   7.170   8.768   8.696 -0.3368 -1.1009 -0.9905
 1716ACTN    C217617   7.298   8.789   8.518  0.5334  0.3078  0.0693
 1716ACTN    O117618   7.254   8.889   8.465 -0.1641 -0.3184 -0.2280
 1716ACTN    C117619   7.376   8.703   8.425  0.3548  1.2140 -0.4217
 1716ACTN    H117620   7.305   8.641   8.371 -1.5611  1.8125  1.3635
 1716ACTN    H217621   7.441   8.637   8.483 -2.4762 -1.8266 -0.5679
 1716ACTN    H317622   7.427   8.757   8.345  2.2558  0.8582  0.5001
 1717SOL     OW17623   8.277   3.644   4.983  0.7560 -0.3212  0.1155
 1717SOL    HW117624   8.322   3.725   5.021  0.0483  1.0206 -1.8442
 1717SOL    HW217625   8.183   3.640   5.017 -0.2512  1.5232 -2.2886
 1718SOL     OW17626   3.247   6.387   1.163 -0.2457 -0.3347 -0.3889
 1718SOL    HW117627   3.209   6.422   1.248 -0.3147  0.1868 -0.6352
 1718SOL    HW217628   3.303   6.306   1.182  0.9536  0.6486  0.3388
 1719SOL     OW17629   0.269   5.029   2.020  0.0915  0.4867  0.3459
 1719SOL    HW117630   0.350   4.993   1.974  0.6013  1.8748  0.1214
 1719SOL    HW217631   0.291   5.050   2.115 -0.5521 -0.9887  0.8218
 1720SOL     OW17632   0.209   4.297   7.849 -0.6149 -0.0978 -0.3445
 1720SOL    HW117633   0.119   4.321   7.813 -0.5721  1.2632  0.4201
 1720SOL    HW217634   0.203   4.283   7.948 -0.0331 -0.2847 -0.3297
 1721SOL     OW17635   3.621   8.133   1.722  0.0472  0.1589 -0.8107
 1721SOL    HW117636   3.668   8.087   1.647 -0.2444  1.3425 -1.7399
 1721SOL    HW217637   3.531   8.090   1.736  1.0005 -1.5013  0.3502
 1722SOL     OW17638   7.567   2.421   2.411  0.5616  0.5007  0.5615
 1722SOL    HW117639   7.659   2.390   2.435  0.8883  1.4401  0.5444
 1722SOL    HW217640   7.506   2.342   2.405  1.3771 -0.1352  0.5143
 1723SOL     OW17641   3.904   1.387   3.962  0.3155 -0.6848 -0.4192
 1723SOL    HW117642   3.912   1.311   3.898  0.1238  0.7206 -2.1539
 1723SOL    HW217643   3.995   1.420   3.987  0.4083 -1.7413  0.6664
 1724SOL     OW17644   6.011   7.166   0.469  0.6595  0.0299  0.2041
 1724SOL    HW117645   5.986   7.262   0.482 -0.4854 -0.0593 -1.1834
 1724SOL    HW217646   6.103   7.150   0.505  0.6372  1.5139  0.9470
 1725SOL     OW17647   3.848   1.567   4.869 -0.4473 -0.1371 -0.0246
 1725SOL    HW117648   3.856   1.488   4.930  0.1023  0.4506  0.6702
 1725SOL    HW217649   3.797   1.640   4.916  2.0195  1.2132  0.6521
 1726SOL     OW17650   4.418   8.199   6.977 -0.1624  0.1009 -0.4886
 1726SOL    HW117651   4.382   8.291   6.989 -0.7493 -0.0035 -1.4473
 1726SOL    HW217652   4.485   8.180   7.049  0.2218  1.3932 -0.4945
 1727SOL     OW17653   4.226   0.655   2.778  0.4892  0.1569  0.1522
 1727SOL    HW117654   4.182   0.711   2.707  0.0186  1.0990  1.1639
 1727SOL    HW217655   4.309   0.700   2.809 -0.5832  0.9972  1.9073
 1728SOL     OW17656   1.355   1.530   5.255  0.2468  0.0718  0.0206
 1728SOL    HW117657   1.446   1.535   5.213  0.3940 -0.4510  0.2656
 1728SOL    HW217658   1.322   1.436   5.251 -0.3068  0.2728 -0.1131
 1729SOL     OW17659   1.251   3.397   0.476  0.2706 -0.2800 -0.3553
 1729SOL    HW117660   1.349   3.400   0.454  0.2372  0.7400 -0.4158
 1729SOL    HW217661   1.203   3.338   0.411  0.6958  0.0049 -0.9282
 1730SOL     OW17662   4.346   8.763   6.922 -0.1361  0.5013 -0.1704
 1730SOL    HW117663   4.418   8.705   6.884 -0.5316  0.1500 -0.3766
 1730SOL    HW217664   4.328   8.839   6.860 -1.5365 -0.6599 -1.2201
 1731SOL     OW17665   2.149   6.890   4.820  0.3824  0.1606  0.5412
 1731SOL    HW117666   2.163   6.900   4.919  0.7973 -0.5872  0.5714
 1731SOL    HW217667   2.093   6.809   4.803  2.0835 -0.9669  0.0863
 1732SOL     OW17668   8.357   8.281   1.952 -0.4033 -0.0055  0.4245
 1732SOL    HW117669   8.349   8.181   1.954  1.0951 -0.1864 -1.0662
 1732SOL    HW217670   8.453   8.306   1.936 -0.7144  1.6846  1.0964
 1733SOL     OW17671   8.472   7.984   7.658  0.4878 -0.4368 -0.5595
 1733SOL    HW117672   8.531   7.905   7.676  1.8626  0.2368 -1.9959
 1733SOL    HW217673   8.453   7.989   7.560 -2.4272 -0.9503 -0.0642
 1734SOL     OW17674   5.210   0.223   0.653 -0.3984 -0.0231  0.1206
 1734SOL    HW117675   5.182   0.142   0.704 -0.5799  0.2456  0.4555
 1734SOL    HW217676   5.129   0.268   0.615 -0.1374 -1.0076 -1.6041
 1735SOL     OW17677   0.962   0.470   5.082 -0.0014  0.6451  0.4970
 1735SOL    HW117678   0.947   0.553   5.135  1.1236  0.1508  1.6275
 1735SOL    HW217679   1.059   0.465   5.055 -0.2732  0.1911 -0.3945
 1736SOL     OW17680   5.583   6.917   3.693 -0.3390  0.3956  0.4939
 1736SOL    HW117681   5.661   6.978   3.712 -0.8949  0.7080  1.7613
 1736SOL    HW217682   5.567   6.858   3.772 -1.3880  0.3208  0.2206
 1737SOL     OW17683   3.941   7.213   5.306 -0.2964  0.2891 -0.2004
 1737SOL    HW117684   3.959   7.165   5.220 -0.7353 -0.3625  0.0586
 1737SOL    HW217685   3.893   7.299   5.287  2.0580  1.4914 -0.7983
 1738SOL     OW17686   8.200   5.229   0.484  0.0079 -0.0817  0.1143
 1738SOL    HW117687   8.204   5.155   0.551  0.7753 -1.8462 -1.8431
 1738SOL    HW217688   8.149   5.200   0.404  0.5244  1.4248 -0.7952
 1739SOL     OW17689   7.480   8.958   1.378  0.5712  0.0398 -0.0552
 1739SOL    HW117690   7.401   8.952   1.438  0.4572 -0.4473 -0.2543
 1739SOL    HW217691   7.452   8.947   1.283  0.8744 -0.1306 -0.1282
 1740SOL     OW17692   7.836   0.645   8.106 -0.2046 -0.0524 -0.0526
 1740SOL    HW117693   7.805   0.729   8.151  0.3681 -0.1328  0.4955
 1740SOL    HW217694   7.758   0.596   8.069 -0.5231  0.8223 -0.5377
 1741SOL     OW17695   0.326   3.012   6.244 -0.0959 -0.2452  0.2492
 1741SOL    HW117696   0.290   2.995   6.153  1.2789 -0.2521 -0.3127
 1741SOL    HW217697   0.311   2.933   6.303 -2.6047  0.4421  0.5726
 1742SOL     OW17698   2.479   6.630   5.759 -0.0979 -0.2191  0.1391
 1742SOL    HW117699   2.551   6.564   5.780  0.4011  0.0884 -0.5584
 1742SOL    HW217700   2.391   6.594   5.789  0.2325 -0.9850  0.2113
 1743SOL     OW17701   3.467   2.893   4.292  0.1249 -0.5745  0.9322
 1743SOL    HW117702   3.403   2.920   4.220  1.4877 -0.8000 -0.3773
 1743SOL    HW217703   3.455   2.954   4.371 -2.0819 -0.9637  0.9426
 1744SOL     OW17704   4.496   8.659   2.168 -0.4628 -0.4540 -0.1360
 1744SOL    HW117705   4.524   8.638   2.074  0.2286  0.0172 -0.0385
 1744SOL    HW217706   4.567   8.714   2.212 -1.4444  0.5943  0.1718
 1745SOL     OW17707   8.237   4.515   2.360 -0.0349 -0.0377  0.8130
 1745SOL    HW117708   8.153   4.504   2.414 -1.6716 -1.8528 -1.9705
 1745SOL    HW217709   8.213   4.535   2.265  2.7573  0.8612  0.2396
 1746SOL     OW17710   6.513   2.680   3.456 -0.1280  0.4587 -0.4117
 1746SOL    HW117711   6.463   2.751   3.408  0.3339  1.1272  0.0657
 1746SOL    HW217712   6.532   2.604   3.395  0.7640  1.4482 -1.3961
 1747SOL     OW17713   1.077   1.005   0.871 -0.3141 -0.2656  0.1068
 1747SOL    HW117714   1.144   1.020   0.798  0.4248 -0.6487  0.7045
 1747SOL    HW217715   1.047   0.909   0.869  1.3468 -0.8463  1.6759
 1748SOL     OW17716   2.733   1.822   3.251  0.1099 -0.0215  0.0491
 1748SOL    HW117717   2.750   1.723   3.245 -1.1288 -0.1331 -2.2190
 1748SOL    HW217718   2.715   1.847   3.346  0.4622 -1.9839  0.6557
 1749SOL     OW17719   0.541   7.598   2.809  0.3139  0.0324  0.2465
 1749SOL    HW117720   0.623   7.611   2.864  0.8004  0.6104 -0.5977
 1749SOL    HW217721   0.460   7.622   2.863  0.9128  2.5361  0.0935
 1750SOL     OW17722   0.119   1.951   2.845 -0.3331 -0.2374 -0.4665
 1750SOL    HW117723   0.077   1.971   2.934  0.3254  0.2513 -0.2579
 1750SOL    HW217724   0.190   1.882   2.857 -1.0672 -1.0577 -0.8175
 1751SOL     OW17725   2.653   3.195   2.905 -0.8190  0.0926 -0.0332
 1751SOL    HW117726   2.721   3.266   2.889 -0.4194  0.1384  1.6925
 1751SOL    HW217727   2.693   3.123   2.962 -2.1044 -0.0269  0.7503
 1752SOL     OW17728   7.868   0.613   2.235 -0.1305  0.4868  0.3016
 1752SOL    HW117729   7.925   0.683   2.278 -1.0337  0.3589  1.7569
 1752SOL    HW217730   7.887   0.524   2.278 -0.4662  0.2040 -0.1307
 1753SOL     OW17731   5.444   2.146   4.162 -0.2031  0.1418  0.4437
 1753SOL    HW117732   5.469   2.225   4.217  2.4464  0.2827 -0.8905
 1753SOL    HW217733   5.505   2.139   4.083 -1.1817 -2.5206 -0.1476
 1754SOL     OW17734   3.956   3.196   5.082 -0.3005 -0.3299  0.0491
 1754SOL    HW117735   3.901   3.233   5.008 -0.8648 -0.7467  0.2504
 1754SOL    HW217736   3.900   3.133   5.136 -0.3979  1.2075  1.8105
 1755SOL     OW17737   4.167   2.592   7.048  0.0597 -0.6338  0.0530
 1755SOL    HW117738   4.080   2.623   7.086  0.3922 -0.7455  0.9074
 1755SOL    HW217739   4.224   2.553   7.121  0.9334 -0.3163 -0.4475
 1756SOL     OW17740   4.555   1.956   8.429 -0.3012  0.2700 -0.3056
 1756SOL    HW117741   4.515   1.869   8.453  0.3553 -1.0483 -3.6360
 1756SOL    HW217742   4.644   1.966   8.473 -1.5495  0.5179  2.2385
 1757SOL     OW17743   0.804   5.309   8.303 -0.4772 -0.4105 -0.3948
 1757SOL    HW117744   0.786   5.321   8.401 -1.9879 -1.0980 -0.5734
 1757SOL    HW217745   0.851   5.390   8.268 -1.4116  0.5626  0.5648
 1758SOL     OW17746   2.892   1.766   5.718 -0.5827 -0.2318  0.3052
 1758SOL    HW117747   2.913   1.682   5.767  2.5311  0.2551 -0.1192
 1758SOL    HW217748   2.946   1.842   5.756  0.4168  0.5383 -2.5410
 1759SOL     OW17749   6.648   7.208   3.620  0.3379  0.4557  0.1033
 1759SOL    HW117750   6.740   7.171   3.605  0.5414  1.1550 -0.3571
 1759SOL    HW217751   6.597   7.205   3.534 -0.0054  0.2684  0.3110
 1760SOL     OW17752   3.553   4.699   3.960  0.1839  0.0125  0.5636
 1760SOL    HW117753   3.476   4.743   3.914 -0.0163  0.7794  1.6166
 1760SOL    HW217754   3.531   4.603   3.977 -0.2434  0.0418  0.1957
 1761SOL     OW17755   5.292   8.528   5.310 -0.4512 -0.7106 -0.4028
 1761SOL    HW117756   5.388   8.517   5.288 -0.5493 -0.4979 -0.9351
 1761SOL    HW217757   5.265   8.624   5.297 -0.6101 -0.6602  0.2398
 1762SOL     OW17758   1.034   3.912   6.316 -0.3325  0.2198  0.0816
 1762SOL    HW117759   1.051   3.877   6.407 -0.8004 -0.2096  0.0029
 1762SOL    HW217760   1.090   3.994   6.300  1.2263 -0.8507  0.0331
 1763SOL     OW17761   8.435   4.022   0.374  0.2468  0.9796  0.0809
 1763SOL    HW117762   8.404   4.107   0.332 -1.8426  0.2902  0.1963
 1763SOL    HW217763   8.441   3.951   0.305 -0.5152  0.5588  0.4418
 1764SOL     OW17764   2.581   7.125   1.338 -0.3461 -0.1515  0.1839
 1764SOL    HW117765   2.482   7.114   1.336 -0.3316 -0.1733 -0.8707
 1764SOL    HW217766   2.622   7.077   1.260  0.2252  2.3434 -1.1258
 1765SOL     OW17767   0.725   8.489   6.249 -0.1930 -0.5390 -0.0350
 1765SOL    HW117768   0.823   8.469   6.245  0.2652  1.3075  1.2032
 1765SOL    HW217769   0.694   8.489   6.344 -0.8235  1.4250 -0.2187
 1766SOL     OW17770   8.766   5.755   7.597 -0.9194 -1.4322 -0.6678
 1766SOL    HW117771   8.774   5.667   7.644  0.2926 -0.8465  0.2477
 1766SOL    HW217772   8.843   5.766   7.534 -0.1630 -0.3101  0.4432
 1767SOL     OW17773   8.820   5.833   2.914  0.1688 -0.1145 -0.0834
 1767SOL    HW117774   8.746   5.896   2.939  0.7046 -0.3618  2.2192
 1767SOL    HW217775   8.805   5.745   2.959  1.3978 -0.4528 -0.3140
 1768SOL     OW17776   4.169   2.001   2.020  0.1704  0.6541 -0.0751
 1768SOL    HW117777   4.234   1.988   2.095  1.5477 -1.5289 -1.5497
 1768SOL    HW217778   4.215   2.047   1.944 -0.3172  0.1063 -0.7118
 1769SOL     OW17779   3.685   0.283   2.213 -0.0737  0.8338  0.4194
 1769SOL    HW117780   3.712   0.246   2.302 -0.6140 -0.1857  0.1659
 1769SOL    HW217781   3.717   0.222   2.141  0.2142  1.5725 -0.0761
 1770SOL     OW17782   5.709   5.023   7.476  0.2404 -0.0453  0.6790
 1770SOL    HW117783   5.698   5.112   7.432 -1.4964 -1.4510 -1.8747
 1770SOL    HW217784   5.642   5.014   7.549 -0.8105  0.0777 -0.2489
 1771SOL     OW17785   7.298   5.717   4.384 -0.0447 -0.0538 -0.7290
 1771SOL    HW117786   7.241   5.792   4.417 -0.3285  0.2873 -1.9519
 1771SOL    HW217787   7.369   5.696   4.451  1.7321  3.1413 -1.5464
 1772SOL     OW17788   6.935   4.135   4.016 -0.1210  0.6188 -0.2153
 1772SOL    HW117789   6.972   4.211   3.962 -1.6433  1.0472 -0.6813
 1772SOL    HW217790   6.938   4.051   3.961 -0.8269  0.8683 -0.6331
 1773SOL     OW17791   0.294   7.200   8.122 -0.2703 -0.8678  0.2410
 1773SOL    HW117792   0.203   7.164   8.141 -0.0852 -1.6336 -0.3308
 1773SOL    HW217793   0.360   7.125   8.118 -0.2393 -0.7486 -3.1372
 1774SOL     OW17794   0.759   5.756   6.923  0.1347 -0.5850 -0.6305
 1774SOL    HW117795   0.661   5.770   6.940  0.3156 -0.2206  0.1208
 1774SOL    HW217796   0.797   5.838   6.878  0.2900 -0.3558 -0.0833
 1775SOL     OW17797   3.812   7.639   4.813 -0.7251 -0.1476 -0.1275
 1775SOL    HW117798   3.755   7.569   4.770 -0.7814 -0.0332 -0.2388
 1775SOL    HW217799   3.901   7.644   4.766 -1.2364  0.8260 -1.0154
 1776SOL     OW17800   0.512   5.099   2.152  0.4148 -0.0351 -0.5501
 1776SOL    HW117801   0.557   5.014   2.126 -0.3355 -0.8549  0.8109
 1776SOL    HW217802   0.471   5.090   2.243  1.9618  2.3809  0.4690
 1777SOL     OW17803   5.859   3.584   1.879 -0.0861  0.1734 -0.0741
 1777SOL    HW117804   5.777   3.526   1.879 -1.0254  1.4861  0.5889
 1777SOL    HW217805   5.836   3.674   1.916  1.4069  0.9201 -0.9456
 1778SOL     OW17806   2.135   6.046   8.088 -0.3256 -1.0823 -0.1011
 1778SOL    HW117807   2.081   6.100   8.024  2.3770  1.4882 -0.2855
 1778SOL    HW217808   2.163   5.960   8.045  1.1156  0.4382 -2.2506
 1779SOL     OW17809   0.669   3.505   0.036 -0.0618 -0.0190 -0.2785
 1779SOL    HW117810   0.623   3.420   0.062  1.1611 -1.0267 -1.3491
 1779SOL    HW217811   0.665   3.516  -0.063  0.1672  0.9611 -0.1812
 1780SOL     OW17812   4.918   3.420   0.572  0.4261  0.2090 -0.0550
 1780SOL    HW117813   5.002   3.435   0.626  1.7036  0.2024 -1.9952
 1780SOL    HW217814   4.885   3.508   0.538 -0.6651  0.2709  1.1018
 1781SOL     OW17815   2.234   5.760   7.292 -0.2457 -0.7046  0.0840
 1781SOL    HW117816   2.245   5.723   7.200 -1.7376 -1.9498  0.3822
 1781SOL    HW217817   2.250   5.687   7.359 -0.2882 -0.0796  0.7748
 1782SOL     OW17818   4.696   0.244   6.765  0.6704  0.5030  0.2082
 1782SOL    HW117819   4.749   0.329   6.764  1.3677  0.0793  0.7012
 1782SOL    HW217820   4.757   0.167   6.783  0.2303 -0.2419 -1.3995
 1783SOL     OW17821   2.486   0.381   2.908 -0.1352 -0.1602 -0.1596
 1783SOL    HW117822   2.501   0.387   3.006 -1.2640 -3.5229  0.2879
 1783SOL    HW217823   2.455   0.289   2.884 -1.5473  1.0568 -3.4413
 1784SOL     OW17824   8.780   5.130   7.640 -0.5273  0.0175 -0.3007
 1784SOL    HW117825   8.730   5.099   7.721 -1.1848 -1.3325 -1.2063
 1784SOL    HW217826   8.874   5.153   7.666 -1.0247  0.5954  1.0336
 1785SOL     OW17827   6.556   5.940   2.426  0.3486 -0.1953 -0.5869
 1785SOL    HW117828   6.560   5.932   2.326 -1.8896  1.9132 -0.9031
 1785SOL    HW217829   6.521   5.855   2.465  1.5551 -1.1520 -1.5699
 1786SOL     OW17830   7.944   3.815   0.542 -0.0140  0.0008  0.5354
 1786SOL    HW117831   7.906   3.749   0.477 -0.0261  1.2722 -0.7927
 1786SOL    HW217832   8.044   3.813   0.538 -0.0090 -0.3984  0.9598
 1787SOL     OW17833   3.763   7.076   4.967 -0.5843 -0.4733  0.0693
 1787SOL    HW117834   3.771   6.976   4.961 -1.7573 -0.6229  0.8869
 1787SOL    HW217835   3.833   7.112   5.028 -0.6122 -0.8673  0.3346
 1788SOL     OW17836   7.330   6.567   4.686 -0.0037  0.0851  0.2315
 1788SOL    HW117837   7.311   6.470   4.697 -0.1581  0.2014  1.0313
 1788SOL    HW217838   7.321   6.613   4.774  0.6280  0.7282 -0.0333
 1789SOL     OW17839   8.369   3.586   0.346 -0.3449 -0.5655  0.3029
 1789SOL    HW117840   8.435   3.607   0.418 -0.0317 -0.8427  0.0957
 1789SOL    HW217841   8.276   3.595   0.383 -0.2016  0.2934  0.4571
 1790SOL     OW17842   3.183   1.922   1.607  0.4160  0.2005 -0.6338
 1790SOL    HW117843   3.141   1.901   1.696  0.8484 -0.3482 -0.5578
 1790SOL    HW217844   3.116   1.907   1.535 -0.3156  1.8008 -0.3186
 1791SOL     OW17845   2.797   2.247   6.363  0.0811  0.1801 -0.1488
 1791SOL    HW117846   2.841   2.157   6.359 -1.3250 -0.5794  1.1946
 1791SOL    HW217847   2.730   2.255   6.290 -0.4132 -0.1980  0.2624
 1792SOL     OW17848   5.182   6.482   7.153 -0.3190 -0.0150  0.6019
 1792SOL    HW117849   5.220   6.419   7.085  1.7805  1.9357 -0.1247
 1792SOL    HW217850   5.135   6.557   7.107 -2.8374 -1.0254  1.4583
 1793SOL     OW17851   0.342   1.881   0.459 -0.2630 -0.5294  0.3225
 1793SOL    HW117852   0.294   1.959   0.499 -0.7678 -0.0536 -1.1778
 1793SOL    HW217853   0.432   1.872   0.501 -0.6518  0.1664  1.3121
 1794SOL     OW17854   3.481   1.119   1.275 -0.4002  0.4104  0.1461
 1794SOL    HW117855   3.547   1.193   1.283 -0.0693  0.2315 -0.8268
 1794SOL    HW217856   3.434   1.106   1.362 -0.8012  2.0770  0.1897
 1795SOL     OW17857   2.953   7.554   2.659 -0.1943  0.0779 -0.3651
 1795SOL    HW117858   2.978   7.644   2.693 -1.8847 -0.1984  1.6700
 1795SOL    HW217859   2.853   7.546   2.655 -0.2080 -2.9921  3.2106
 1796SOL     OW17860   7.310   5.347   6.793 -0.5575 -0.1277  0.1191
 1796SOL    HW117861   7.313   5.293   6.709 -0.7433 -1.0020  0.6653
 1796SOL    HW217862   7.372   5.306   6.860  0.0980  0.9542  0.1843
 1797SOL     OW17863   5.939   7.139   6.590  0.4835 -0.3704 -0.6130
 1797SOL    HW117864   5.904   7.216   6.642  0.4517 -0.0870 -1.0512
 1797SOL    HW217865   5.873   7.063   6.594  0.8073 -0.6077  0.3487
 1798SOL     OW17866   4.820   3.731   0.898 -0.4159  0.9358 -0.9884
 1798SOL    HW117867   4.779   3.736   0.807 -0.7776  0.5782 -0.8454
 1798SOL    HW217868   4.771   3.792   0.960 -1.9663 -0.9245 -0.3471
 1799SOL     OW17869   6.153   6.569   5.135 -0.4351  0.3393  0.2028
 1799SOL    HW117870   6.243   6.571   5.092  0.1090  0.8359  1.3595
 1799SOL    HW217871   6.088   6.523   5.074 -0.1555  2.9113 -2.1209
 1800SOL     OW17872   0.715   0.213   5.726  0.6910  0.4057 -0.4807
 1800SOL    HW117873   0.698   0.285   5.794  1.9371 -0.0289  0.3068
 1800SOL    HW217874   0.813   0.205   5.710  0.5035 -0.5578 -1.1870
 1801SOL     OW17875   2.990   3.909   7.829 -0.2537 -0.0864 -0.6942
 1801SOL    HW117876   3.020   3.960   7.749  0.1156 -1.0279 -1.1611
 1801SOL    HW217877   3.069   3.865   7.873 -0.7255 -1.2521 -1.0005
 1802SOL     OW17878   4.653   6.924   5.706 -0.3365 -0.3695  0.3411
 1802SOL    HW117879   4.637   6.842   5.760 -0.6475 -2.5188 -2.9250
 1802SOL    HW217880   4.568   6.954   5.663  0.2324  0.3523 -0.3107
 1803SOL     OW17881   0.801   7.161   6.715 -0.0148 -0.2534  0.4163
 1803SOL    HW117882   0.768   7.138   6.807  0.1182  0.8994  0.7633
 1803SOL    HW217883   0.744   7.115   6.647 -0.6582 -0.4271  1.0586
 1804SOL     OW17884   6.251   0.194   0.867  0.0051  0.3402 -0.2951
 1804SOL    HW117885   6.314   0.214   0.942  0.8558 -2.2547 -0.2470
 1804SOL    HW217886   6.158   0.185   0.902  0.1491  0.7064  0.1808
 1805SOL     OW17887   7.030   7.641   5.879  0.2084 -0.3445 -0.1934
 1805SOL    HW117888   7.107   7.667   5.820  0.9707  2.4875  1.9406
 1805SOL    HW217889   6.945   7.674   5.839  0.1600 -2.5552 -2.0273
 1806SOL     OW17890   4.431   7.215   0.088  0.6919 -0.3311  0.0598
 1806SOL    HW117891   4.523   7.214   0.049  0.9052  1.2426  0.4986
 1806SOL    HW217892   4.436   7.247   0.183 -0.2408 -0.8394  0.2877
 1807SOL     OW17893   3.573   1.792   8.203  0.5915 -0.1098  0.4791
 1807SOL    HW117894   3.552   1.720   8.136  3.4993 -0.6064  0.0380
 1807SOL    HW217895   3.530   1.878   8.174 -0.7491 -1.0560 -0.3742
 1808SOL     OW17896   6.447   2.493   2.357 -0.0370  0.0939 -0.1973
 1808SOL    HW117897   6.435   2.394   2.346  1.4999 -0.0119 -1.1216
 1808SOL    HW217898   6.449   2.515   2.454  2.0716 -1.1266  0.0692
 1809SOL     OW17899   0.678   0.047   4.595 -0.0798 -0.0752 -0.2069
 1809SOL    HW117900   0.734   0.058   4.677  0.7955  0.5399 -0.8755
 1809SOL    HW217901   0.705  -0.038   4.548  0.4080  0.2874 -0.5994
 1810SOL     OW17902   1.468   3.093   7.552  0.0127  0.6359  0.0933
 1810SOL    HW117903   1.489   3.141   7.637 -1.6274  1.3267  0.1262
 1810SOL    HW217904   1.375   3.055   7.557  0.7682 -1.3457 -0.4732
 1811SOL     OW17905   0.295   1.735   4.323  0.0009  0.5417 -0.7584
 1811SOL    HW117906   0.392   1.756   4.327  0.1118  0.0746 -0.9865
 1811SOL    HW217907   0.273   1.663   4.389 -0.2719  0.9704 -0.3825
 1812SOL     OW17908   4.629   2.989   6.465 -0.2086 -0.5324 -0.0405
 1812SOL    HW117909   4.676   2.909   6.502  1.8771  0.8507  0.4014
 1812SOL    HW217910   4.665   3.011   6.375  0.5706  0.9957  0.6189
 1813SOL     OW17911   3.117   8.038   2.417 -0.1619 -0.1785 -0.2627
 1813SOL    HW117912   3.101   7.961   2.354  4.0531  0.0709 -1.7858
 1813SOL    HW217913   3.175   8.007   2.492  1.5033  1.4821 -0.8495
 1814SOL     OW17914   2.143   3.220   5.534  0.6584  0.1704  0.2409
 1814SOL    HW117915   2.138   3.279   5.454  2.2307 -0.4775 -0.3533
 1814SOL    HW217916   2.069   3.244   5.597 -1.0876  0.1333 -1.7386
 1815SOL     OW17917   4.144   4.413   4.060  0.3865 -0.0948 -0.2989
 1815SOL    HW117918   4.148   4.512   4.073  2.9754 -0.3262  1.0742
 1815SOL    HW217919   4.130   4.392   3.963 -1.0019  1.6062 -0.4849
 1816SOL     OW17920   2.057   6.151   5.793 -0.3001 -0.0360 -0.3513
 1816SOL    HW117921   2.035   6.189   5.883  0.3458 -2.8391  1.0495
 1816SOL    HW217922   1.996   6.075   5.773 -0.2955  0.4311 -2.2112
 1817SOL     OW17923   4.733   7.418   7.766  0.1335 -0.4030 -0.1707
 1817SOL    HW117924   4.724   7.393   7.862 -0.2408 -0.1958 -0.1545
 1817SOL    HW217925   4.663   7.484   7.741  0.4887 -0.1377 -0.4804
 1818SOL     OW17926   6.489   4.385   0.805  0.1314  0.4507  0.1372
 1818SOL    HW117927   6.547   4.404   0.726  0.3051  0.5802  0.2947
 1818SOL    HW217928   6.412   4.449   0.805 -0.4012 -0.1920 -0.4668
 1819SOL     OW17929   7.204   7.113   6.750 -0.0679 -0.2144  0.6691
 1819SOL    HW117930   7.138   7.038   6.748 -0.4908  0.2110 -2.5655
 1819SOL    HW217931   7.271   7.101   6.677 -0.7581  3.0977 -0.5628
 1820SOL     OW17932   8.338   2.983   3.499  0.1343 -0.3890  0.1710
 1820SOL    HW117933   8.351   3.029   3.411  0.1221 -2.0471 -0.7254
 1820SOL    HW217934   8.242   2.989   3.527 -0.4168 -2.0620 -1.2358
 1821SOL     OW17935   0.576   4.603   5.941  0.3718 -0.1747 -0.4613
 1821SOL    HW117936   0.606   4.525   5.887 -0.5596 -0.8345 -0.0524
 1821SOL    HW217937   0.647   4.673   5.942  0.8839 -0.6747 -1.5076
 1822SOL     OW17938   6.221   7.831   7.226  0.1671  0.6497  0.4184
 1822SOL    HW117939   6.139   7.843   7.170  0.7006  0.9743 -0.2956
 1822SOL    HW217940   6.261   7.920   7.247  0.7476  0.4479  0.1555
 1823SOL     OW17941   7.556   2.546   7.448  0.3919 -0.4318  0.4062
 1823SOL    HW117942   7.583   2.613   7.517  1.5217 -1.4979  1.0229
 1823SOL    HW217943   7.530   2.461   7.493 -0.1917 -0.7012 -0.4251
 1824SOL     OW17944   4.046   7.427   6.803 -0.3322 -0.0121  0.0793
 1824SOL    HW117945   4.068   7.512   6.851  1.1323  1.2315 -2.6397
 1824SOL    HW217946   4.120   7.361   6.818 -0.3203  0.0507  0.2985
 1825SOL     OW17947   2.639   2.798   8.505  0.3111  0.0854  0.6115
 1825SOL    HW117948   2.586   2.877   8.536  0.2927 -0.6937  2.6456
 1825SOL    HW217949   2.707   2.774   8.573 -0.0665 -2.0065  0.2985
 1826SOL     OW17950   7.854   6.600   2.226  0.3544  0.1399 -0.3648
 1826SOL    HW117951   7.861   6.524   2.160  0.6654  2.9520 -3.7170
 1826SOL    HW217952   7.946   6.630   2.251  0.2290 -0.5086  0.8962
 1827SOL     OW17953   4.493   7.746   6.750  0.0758  0.0839 -0.0087
 1827SOL    HW117954   4.555   7.743   6.829 -0.0947 -0.6626  0.1007
 1827SOL    HW217955   4.439   7.830   6.753  1.2911  0.8802 -0.2622
 1828SOL     OW17956   5.289   8.949   3.009 -0.2598  0.0161  0.2925
 1828SOL    HW117957   5.283   9.048   3.001 -0.3786  0.2279  2.6688
 1828SOL    HW217958   5.216   8.907   2.955 -1.1642  1.2692  0.5122
 1829SOL     OW17959   3.680   6.074   5.695 -0.2426 -0.6134  0.2743
 1829SOL    HW117960   3.744   5.998   5.706  1.7037  0.9605 -0.0115
 1829SOL    HW217961   3.595   6.040   5.654  0.6704 -2.5888 -0.0370
 1830SOL     OW17962   6.568   4.529   6.211  0.4698  0.3550 -0.0465
 1830SOL    HW117963   6.622   4.535   6.127  2.0076 -0.5522  0.8395
 1830SOL    HW217964   6.596   4.448   6.263 -1.2838  0.2641  0.7744
 1831SOL     OW17965   0.090   4.178   2.944  0.1272 -0.4131 -0.5471
 1831SOL    HW117966   0.123   4.258   2.996 -0.7234 -0.5681  0.2286
 1831SOL    HW217967  -0.001   4.197   2.909 -0.3103 -1.2744  0.1299
 1832SOL     OW17968   2.048   1.528   6.974 -0.2369 -0.2583  0.2841
 1832SOL    HW117969   2.118   1.595   6.998 -0.0272  0.1246 -1.3663
 1832SOL    HW217970   1.971   1.575   6.931 -2.4410 -0.3949  3.8606
 1833SOL     OW17971   3.801   4.395   1.686  0.3607  0.6427  0.2738
 1833SOL    HW117972   3.870   4.409   1.616  0.7464 -0.5440  0.4066
 1833SOL    HW217973   3.710   4.391   1.643  0.5864 -0.0026 -0.1508
 1834SOL     OW17974   5.032   3.568   1.405 -0.1608  0.4723  0.4563
 1834SOL    HW117975   5.102   3.638   1.396  0.5731 -0.2212  0.7662
 1834SOL    HW217976   4.990   3.550   1.316 -0.4864  1.4325  0.4066
 1835SOL     OW17977   7.740   8.026   6.253 -0.7398 -0.4397 -0.3754
 1835SOL    HW117978   7.797   8.097   6.212 -2.7879  1.1362 -0.5214
 1835SOL    HW217979   7.644   8.052   6.246 -1.3533 -1.9978  1.9437
 1836SOL     OW17980   5.518   4.984   7.067 -0.0446  0.0504  0.0763
 1836SOL    HW117981   5.435   4.931   7.049 -1.6561  2.1374  1.0763
 1836SOL    HW217982   5.543   5.036   6.985  0.1600 -0.4015 -0.1513
 1837SOL     OW17983   0.333   7.910   2.733  0.2002 -0.1346  0.0121
 1837SOL    HW117984   0.263   7.861   2.682  0.2274  1.8560 -2.0421
 1837SOL    HW217985   0.409   7.933   2.671  1.5435 -0.1229  1.6272
 1838SOL     OW17986   5.768   5.911   8.497 -0.6991 -0.2727 -0.2238
 1838SOL    HW117987   5.782   5.932   8.400 -0.1869  0.2730 -0.0320
 1838SOL    HW217988   5.832   5.964   8.553  0.5708 -2.2621  0.2777
 1839SOL     OW17989   6.868   1.058   0.659 -0.2269  0.6483 -0.1119
 1839SOL    HW117990   6.851   1.140   0.712 -1.2680  0.7000 -0.5007
 1839SOL    HW217991   6.962   1.057   0.627 -1.0147  3.2588 -2.7254
 1840SOL     OW17992   2.603   3.817   2.907  0.1279  0.2478 -0.2746
 1840SOL    HW117993   2.594   3.888   2.838 -0.7138 -0.1803 -0.6178
 1840SOL    HW217994   2.531   3.827   2.976  1.0059  0.7153  0.5872
 1841SOL     OW17995   0.704   4.513   3.294 -0.4080  0.1614 -0.1044
 1841SOL    HW117996   0.728   4.608   3.274  0.0526  0.1356  0.3190
 1841SOL    HW217997   0.655   4.509   3.381 -3.9746  0.4883 -2.0224
 1842SOL     OW17998   2.301   2.540   2.724  0.1864  0.2477 -0.3961
 1842SOL    HW117999   2.334   2.517   2.816  0.0063 -0.9916 -0.6329
 1842SOL    HW218000   2.374   2.584   2.672  0.3487  0.7836  0.2666
 1843SOL     OW18001   1.885   2.630   0.916  0.2941  0.1442 -0.2588
 1843SOL    HW118002   1.867   2.590   0.827 -1.0367 -0.9630  0.4904
 1843SOL    HW218003   1.873   2.729   0.912 -2.0859 -0.1395 -0.7646
 1844SOL     OW18004   3.398   0.368   0.485 -0.3500  0.4125  0.4448
 1844SOL    HW118005   3.379   0.457   0.443 -0.9160  0.4238  0.7130
 1844SOL    HW218006   3.420   0.380   0.582  0.6357  0.3572  0.2250
 1845SOL     OW18007   0.643   3.200   0.766 -0.0249  0.2508  0.0053
 1845SOL    HW118008   0.601   3.275   0.715 -0.1083  0.4182  0.3152
 1845SOL    HW218009   0.573   3.136   0.795 -0.0755  0.5494  0.5546
 1846SOL     OW18010   5.391   7.592   4.519 -0.0890 -0.1133  0.0252
 1846SOL    HW118011   5.332   7.673   4.518  0.1108  0.0408  0.9077
 1846SOL    HW218012   5.390   7.551   4.610  2.0663  0.5316  0.3579
 1847SOL     OW18013   1.724   5.158   4.329 -0.0554 -0.7010  0.6154
 1847SOL    HW118014   1.807   5.208   4.304 -1.0378  0.1696 -0.9697
 1847SOL    HW218015   1.656   5.222   4.365  0.0619 -1.4594  2.2577
 1848SOL     OW18016   3.266   3.473   7.047  0.4137  0.0929 -0.0719
 1848SOL    HW118017   3.190   3.500   6.988  1.1739  0.4436 -0.9027
 1848SOL    HW218018   3.333   3.421   6.993  1.9906  1.9638  0.0559
 1849SOL     OW18019   5.390   3.692   1.446 -0.3531 -0.3848  0.3734
 1849SOL    HW118020   5.489   3.696   1.460 -0.6493  0.2157  2.3655
 1849SOL    HW218021   5.362   3.596   1.441  0.2764 -0.5635  0.0875
 1850SOL     OW18022   2.060   4.562   2.689  0.2487 -0.2942  0.4253
 1850SOL    HW118023   2.143   4.614   2.673 -0.2663 -0.0156 -1.4423
 1850SOL    HW218024   2.048   4.495   2.615 -0.4157 -1.3276  1.4573
 1851SOL     OW18025   6.300   3.534   7.687 -0.5183  0.0960  0.1107
 1851SOL    HW118026   6.373   3.563   7.749  0.3417 -3.5788  0.8869
 1851SOL    HW218027   6.213   3.573   7.718  0.6347  2.2544  0.7517
 1852SOL     OW18028   0.424   1.515   8.814  0.0415  0.1644  0.1722
 1852SOL    HW118029   0.359   1.538   8.886 -2.9089 -0.1483 -2.2799
 1852SOL    HW218030   0.473   1.431   8.838 -0.9599  0.0285  1.7790
 1853SOL     OW18031   8.436   7.706   0.247  0.1811  0.1153  0.1718
 1853SOL    HW118032   8.367   7.636   0.226 -0.0399  0.1203  0.8703
 1853SOL    HW218033   8.470   7.745   0.161  1.8401 -2.3059 -0.3568
 1854SOL     OW18034   2.902   0.932   7.523  0.2653  0.6975  0.0481
 1854SOL    HW118035   2.895   0.984   7.437 -1.7261  0.0795 -0.1892
 1854SOL    HW218036   2.819   0.879   7.536  1.4679 -0.9165  1.2862
 1855SOL     OW18037   2.380   1.415   4.288 -0.1652  0.5354  0.6503
 1855SOL    HW118038   2.341   1.469   4.363 -0.1513  0.3527  0.7911
 1855SOL    HW218039   2.358   1.458   4.201  0.9460  1.4871  0.8207
 1856SOL     OW18040   6.996   4.855   5.623 -0.2551  1.1110 -0.1473
 1856SOL    HW118041   6.909   4.850   5.574 -0.1876  0.5127 -0.2154
 1856SOL    HW218042   7.061   4.908   5.569 -0.7727  2.1056  0.2068
 1857SOL     OW18043   3.259   0.798   6.965 -0.0928 -0.4021 -0.0093
 1857SOL    HW118044   3.230   0.722   6.907  0.4081 -1.5560  1.2088
 1857SOL    HW218045   3.268   0.881   6.911 -1.0126 -1.1262 -1.2951
 1858SOL     OW18046   1.022   7.510   0.988 -0.7475 -0.5681  0.1881
 1858SOL    HW118047   1.047   7.415   1.005  2.3577  0.4609  1.7886
 1858SOL    HW218048   1.065   7.541   0.904  1.5629  0.5002  1.6943
 1859SOL     OW18049   3.286   5.345   0.341  0.2267 -1.0768  0.2067
 1859SOL    HW118050   3.288   5.397   0.256  2.3677 -1.6858 -0.1465
 1859SOL    HW218051   3.371   5.360   0.392 -1.6559  0.5522  3.0478
 1860SOL     OW18052   5.654   6.894   5.358  0.0035  0.2362  0.0823
 1860SOL    HW118053   5.580   6.844   5.403 -0.5339  0.5955 -0.3957
 1860SOL    HW218054   5.616   6.956   5.289  0.6412  1.5329  0.8756
 1861SOL     OW18055   1.584   3.272   8.128  0.2588 -0.1703  0.6020
 1861SOL    HW118056   1.485   3.258   8.127  0.2282  0.0540 -1.0386
 1861SOL    HW218057   1.604   3.363   8.165 -0.1582 -0.1040  0.6701
 1862SOL     OW18058   7.620   2.281   0.495  0.3040  0.3189 -0.6705
 1862SOL    HW118059   7.577   2.372   0.491  3.1521  1.8300  1.3691
 1862SOL    HW218060   7.558   2.217   0.541  0.1462  2.4468  2.2048
 1863SOL     OW18061   8.037   5.427   1.965  0.0904 -0.2371 -0.7797
 1863SOL    HW118062   8.040   5.343   1.911 -0.5264 -0.2567 -0.7959
 1863SOL    HW218063   8.101   5.420   2.041  0.0098 -0.7441 -0.7535
 1864SOL     OW18064   2.334   2.635   2.044  0.1728 -0.2018 -0.2672
 1864SOL    HW118065   2.402   2.590   2.101  0.2215 -0.1630 -0.2946
 1864SOL    HW218066   2.324   2.730   2.072  1.0616  0.1420 -1.0899
 1865SOL     OW18067   1.514   3.272   8.898  0.2743  0.4116 -0.0510
 1865SOL    HW118068   1.522   3.365   8.861  1.2394  0.0648 -0.7331
 1865SOL    HW218069   1.521   3.206   8.824  0.3891 -0.2360  0.5350
 1866SOL     OW18070   4.698   6.785   8.964  0.4061 -0.5933  0.3840
 1866SOL    HW118071   4.610   6.829   8.947  0.2905 -0.7622  0.5358
 1866SOL    HW218072   4.733   6.747   8.878  0.5013 -0.2163  0.2568
 1867SOL     OW18073   2.449   1.300   3.262  0.1695  0.9428  0.4259
 1867SOL    HW118074   2.382   1.354   3.211  0.2851  0.9865  0.3190
 1867SOL    HW218075   2.518   1.265   3.199 -0.5304 -0.2774  0.3316
 1868SOL     OW18076   2.831   0.233   8.692  0.2316 -0.3276  0.2792
 1868SOL    HW118077   2.749   0.261   8.641  0.5076 -0.7888 -0.4211
 1868SOL    HW218078   2.810   0.232   8.790 -1.4046 -2.9900 -0.0368
 1869SOL     OW18079   0.347   7.981   5.089  0.3454 -0.3650 -0.1063
 1869SOL    HW118080   0.355   7.895   5.038  0.1899  0.6799 -1.9587
 1869SOL    HW218081   0.283   8.041   5.042  1.1469  1.1195  0.6734
 1870SOL     OW18082   1.305   4.476   2.995  0.3414  0.2168  0.1699
 1870SOL    HW118083   1.365   4.548   2.960  1.2390 -1.1137 -1.1459
 1870SOL    HW218084   1.302   4.480   3.094  0.6259  1.8654  0.1249
 1871SOL     OW18085   2.331   8.710   6.816  0.0084  0.3641  0.0539
 1871SOL    HW118086   2.324   8.613   6.793  2.5397  0.1555  0.0423
 1871SOL    HW218087   2.257   8.734   6.878 -1.0785 -1.4079 -0.5103
 1872SOL     OW18088   0.425   6.125   6.044  0.1307 -0.1308 -0.5272
 1872SOL    HW118089   0.453   6.173   5.960  2.8812 -1.7568 -0.5964
 1872SOL    HW218090   0.458   6.031   6.041 -0.3660 -0.4177  2.0653
 1873SOL     OW18091   4.304   4.589   4.844  0.3874  0.2791 -0.0690
 1873SOL    HW118092   4.270   4.496   4.829  1.2710  0.2428 -1.9195
 1873SOL    HW218093   4.386   4.604   4.789  0.3484  2.1218  0.3410
 1874SOL     OW18094   2.159   1.657   2.024 -0.4123  0.0793 -0.3596
 1874SOL    HW118095   2.094   1.728   2.052  1.4068  0.9372  1.7896
 1874SOL    HW218096   2.199   1.682   1.936  0.2852  1.8203  0.4146
 1875SOL     OW18097   3.640   3.029   3.042 -0.2716 -0.3648 -0.3051
 1875SOL    HW118098   3.551   3.020   3.086  1.1968  0.9824  3.0796
 1875SOL    HW218099   3.652   3.122   3.008  0.7591  0.1956  1.4831
 1876SOL     OW18100   4.747   4.091   8.627  0.1441  0.0796 -0.5751
 1876SOL    HW118101   4.807   4.081   8.707 -1.3698 -2.6803  0.2820
 1876SOL    HW218102   4.770   4.176   8.579  2.6650  0.6150  1.4393
 1877SOL     OW18103   7.895   0.922   5.368  0.3074 -0.5712  0.1126
 1877SOL    HW118104   7.808   0.956   5.404  0.3074  1.0744 -1.3465
 1877SOL    HW218105   7.962   0.919   5.442 -0.7252 -0.9356  1.0525
 1878SOL     OW18106   8.349   2.233   0.350  0.4279 -0.5540  0.0508
 1878SOL    HW118107   8.391   2.275   0.269 -0.0597 -1.9561 -0.9527
 1878SOL    HW218108   8.271   2.287   0.379  1.3631  0.6614  0.3663
 1879SOL     OW18109   3.429   3.326   6.405  0.0650 -0.2542  0.4973
 1879SOL    HW118110   3.424   3.425   6.391 -1.3982 -0.2680  0.7890
 1879SOL    HW218111   3.397   3.280   6.322 -3.8699 -0.3933  1.9743
 1880SOL     OW18112   8.594   7.736   7.741  0.4875  0.0125 -0.1343
 1880SOL    HW118113   8.533   7.682   7.682  0.7602 -0.7560  0.2841
 1880SOL    HW218114   8.565   7.726   7.836  0.9505  0.0689  0.0112
 1881SOL     OW18115   7.464   8.425   1.600  0.1780  0.2476  0.2684
 1881SOL    HW118116   7.468   8.506   1.542  0.0131 -0.3379 -0.5770
 1881SOL    HW218117   7.400   8.359   1.561  0.8729 -0.6043  0.5300
 1882SOL     OW18118   4.569   1.908   3.002 -0.2495 -0.3533 -0.2313
 1882SOL    HW118119   4.549   1.982   3.067  2.8497  0.2651  0.0842
 1882SOL    HW218120   4.537   1.821   3.041 -0.8121  0.3602  0.9434
 1883SOL     OW18121   7.959   4.961   4.254  0.1485  0.4246  0.0111
 1883SOL    HW118122   8.033   4.973   4.320 -0.4785 -0.8146  0.9526
 1883SOL    HW218123   7.914   4.873   4.269 -1.9172  1.4066 -0.1484
 1884SOL     OW18124   1.203   3.107   2.434 -0.2736  0.6503  0.1667
 1884SOL    HW118125   1.282   3.160   2.463 -0.4722  1.0245  0.0264
 1884SOL    HW218126   1.172   3.139   2.345  0.7786 -0.9671 -0.8210
 1885SOL     OW18127   8.669   6.767   6.713 -0.5743  0.0300 -0.7564
 1885SOL    HW118128   8.597   6.814   6.765 -0.4096  0.5471 -0.9899
 1885SOL    HW218129   8.714   6.699   6.771  0.3531  1.3685  0.1230
 1886SOL     OW18130   7.006   8.527   7.236 -0.5666  0.1922 -0.2639
 1886SOL    HW118131   7.104   8.546   7.238 -0.3025 -1.1928  0.0314
 1886SOL    HW218132   6.967   8.564   7.152  0.0089  1.6572  0.0874
 1887SOL     OW18133   2.966   1.941   5.461 -1.0759 -0.5927  0.2075
 1887SOL    HW118134   2.971   1.881   5.541  0.8965 -0.1665  0.4182
 1887SOL    HW218135   2.930   2.030   5.488  4.9000  1.5681  1.9266
 1888SOL     OW18136   2.844   6.208   7.981  0.1155 -0.1769 -0.0468
 1888SOL    HW118137   2.813   6.120   8.016 -1.2104  0.1726 -0.2982
 1888SOL    HW218138   2.798   6.228   7.895  0.4145  0.7512  0.0009
 1889SOL     OW18139   0.741   2.001   4.862  0.3943 -0.5175 -0.3916
 1889SOL    HW118140   0.766   2.043   4.950  0.8350  0.2589 -0.8841
 1889SOL    HW218141   0.807   1.929   4.839  0.7545 -0.1573 -0.4867
 1890SOL     OW18142   1.737   0.391   0.772  0.2356 -0.2180  0.0898
 1890SOL    HW118143   1.805   0.330   0.731  0.3459 -0.9369  1.3012
 1890SOL    HW218144   1.647   0.348   0.770 -0.3248  0.9779 -2.0417
 1891SOL     OW18145   6.970   5.396   3.671 -0.3987  0.2491 -0.0270
 1891SOL    HW118146   6.913   5.318   3.645  0.6377  0.1677 -2.2261
 1891SOL    HW218147   7.061   5.364   3.696 -0.8707  0.5052  2.0900
 1892SOL     OW18148   7.578   5.667   4.080 -0.1701  0.5720 -0.1583
 1892SOL    HW118149   7.654   5.688   4.142 -0.5556  2.6868 -0.3408
 1892SOL    HW218150   7.494   5.707   4.116 -0.8123 -0.0487 -0.9561
 1893SOL     OW18151   5.293   7.239   5.511 -0.0113  0.2486 -0.1229
 1893SOL    HW118152   5.313   7.169   5.580 -0.1017 -0.5088 -0.8559
 1893SOL    HW218153   5.246   7.197   5.434  0.0114  1.1084 -0.6075
 1894SOL     OW18154   3.745   7.993   1.039  0.0467 -0.0649 -0.4609
 1894SOL    HW118155   3.654   8.002   0.998 -0.1856 -2.4003 -0.4958
 1894SOL    HW218156   3.767   8.077   1.089 -0.9989  1.5721 -2.6687
 1895SOL     OW18157   7.756   0.225   6.711 -0.2726  0.0615  0.6505
 1895SOL    HW118158   7.847   0.266   6.711 -0.2581  0.0455 -0.0040
 1895SOL    HW218159   7.759   0.137   6.663 -0.4592 -0.3330  1.3647
 1896SOL     OW18160   1.794   1.125   1.572 -0.3577 -0.2060  0.0225
 1896SOL    HW118161   1.780   1.026   1.575 -0.2208 -0.2355 -0.2767
 1896SOL    HW218162   1.892   1.144   1.582 -0.1442 -0.2008 -1.8803
 1897SOL     OW18163   3.871   8.919   6.364 -0.0861  0.1200 -0.1003
 1897SOL    HW118164   3.941   8.895   6.296 -0.6102  1.7606 -1.2490
 1897SOL    HW218165   3.782   8.887   6.332 -0.2223  0.2222  0.1778
 1898SOL     OW18166   2.482   6.159   4.577  0.0790 -0.7655 -0.2468
 1898SOL    HW118167   2.439   6.164   4.667  1.6306 -1.4696  0.5560
 1898SOL    HW218168   2.578   6.131   4.587  0.6857  0.5585 -1.9989
 1899SOL     OW18169   7.732   6.656   5.557  0.4804  0.4473 -0.0495
 1899SOL    HW118170   7.657   6.694   5.611  0.6431  0.8193 -0.0833
 1899SOL    HW218171   7.805   6.723   5.549  0.7241  0.1671 -0.2057
 1900SOL     OW18172   2.811   2.769   3.115 -0.5003  0.2382  0.6934
 1900SOL    HW118173   2.905   2.747   3.087 -0.3894  2.8044 -1.2279
 1900SOL    HW218174   2.747   2.721   3.055 -0.3235  1.9313 -0.8850
 1901SOL     OW18175   8.502   4.885   0.620  0.3042 -0.9233 -0.5057
 1901SOL    HW118176   8.565   4.962   0.631 -1.6420  0.4073  1.6308
 1901SOL    HW218177   8.442   4.901   0.541  0.0150 -0.3473 -0.1646
 1902SOL     OW18178   0.337   2.130   7.678 -0.3296 -0.5367 -0.9245
 1902SOL    HW118179   0.408   2.184   7.632  0.1701 -0.9454 -0.6329
 1902SOL    HW218180   0.247   2.162   7.648 -0.0337  0.3654 -0.8689
 1903SOL     OW18181   1.998   2.918   3.663 -0.0714 -0.5516 -0.2070
 1903SOL    HW118182   1.923   2.982   3.645  0.0229  0.1322  1.6828
 1903SOL    HW218183   2.004   2.900   3.761  2.7637  0.0710 -0.2136
 1904SOL     OW18184   1.068   8.088   1.721 -0.2497  0.3849  0.7684
 1904SOL    HW118185   1.054   8.062   1.817  2.7830 -0.4288  1.0346
 1904SOL    HW218186   1.125   8.169   1.717  0.6559 -0.3012 -0.3795
 1905SOL     OW18187   6.611   1.532   6.580 -0.5382  0.3991  0.6145
 1905SOL    HW118188   6.612   1.436   6.552 -1.7924  0.5506 -0.0071
 1905SOL    HW218189   6.516   1.562   6.592 -0.1220  1.2815  1.7854
 1906SOL     OW18190   7.368   6.441   7.299  0.1147 -0.3638 -0.4388
 1906SOL    HW118191   7.291   6.505   7.304  0.7887  0.4667 -0.6065
 1906SOL    HW218192   7.352   6.376   7.224 -0.6312 -0.4810 -0.1866
 1907SOL     OW18193   5.047   1.756   1.063  0.2037  0.0966  0.1976
 1907SOL    HW118194   4.972   1.792   1.118 -0.0703 -0.8465  0.4501
 1907SOL    HW218195   5.063   1.816   0.984 -1.3932 -0.1812 -0.3411
 1908SOL     OW18196   3.480   1.699   6.671  0.0739 -0.2382  0.6981
 1908SOL    HW118197   3.522   1.646   6.745  3.2233  0.0600 -0.7890
 1908SOL    HW218198   3.517   1.669   6.583 -3.1608 -0.1766 -0.7839
 1909SOL     OW18199   0.988   0.038   0.587  0.1469  0.2698  0.1659
 1909SOL    HW118200   0.990   0.003   0.681 -0.4572 -0.9234 -0.2651
 1909SOL    HW218201   1.073   0.015   0.541 -0.6849 -1.5804 -0.4574
 1910SOL     OW18202   3.182   6.409   8.492  0.4830 -0.0995 -0.4850
 1910SOL    HW118203   3.206   6.488   8.436 -0.3365  0.5985  0.1481
 1910SOL    HW218204   3.089   6.379   8.469  0.6097 -0.5853 -0.3757
 1911SOL     OW18205   3.618   5.875   1.541 -0.2266  0.3531  0.4959
 1911SOL    HW118206   3.672   5.867   1.458  0.2066  1.9185  0.6136
 1911SOL    HW218207   3.673   5.844   1.619  0.0648  0.7720  0.4567
 1912SOL     OW18208   3.488   8.114   7.281  0.1542 -0.2004  0.6255
 1912SOL    HW118209   3.545   8.083   7.357  1.5178  0.4315 -0.1056
 1912SOL    HW218210   3.539   8.102   7.195  0.1206  2.6075  0.1847
 1913SOL     OW18211   2.938   8.994   6.310  0.1261 -0.2591  0.8630
 1913SOL    HW118212   2.994   9.034   6.382  0.1025  0.2827  0.5793
 1913SOL    HW218213   2.920   9.062   6.239  0.7812 -0.9936 -0.0356
 1914SOL     OW18214   7.375   8.822   6.379  0.7757  0.2373  0.1208
 1914SOL    HW118215   7.318   8.783   6.452  3.5127 -0.0159  2.2319
 1914SOL    HW218216   7.391   8.919   6.399  1.1467  0.2815 -0.4028
 1915SOL     OW18217   4.119   8.777   2.090 -0.0662  0.1372 -0.0703
 1915SOL    HW118218   4.070   8.725   2.160  0.5373  0.0409  0.2887
 1915SOL    HW218219   4.207   8.807   2.127  0.1447  0.3034 -0.7049
 1916SOL     OW18220   1.764   3.683   0.787  0.4152 -0.2941  0.1438
 1916SOL    HW118221   1.824   3.747   0.835  0.7920  1.1086 -2.1342
 1916SOL    HW218222   1.670   3.718   0.790  0.2199 -0.8633  0.9335
 1917SOL     OW18223   5.406   7.244   8.548  0.0411  0.1917  0.3172
 1917SOL    HW118224   5.422   7.231   8.646 -0.3281  0.6633  0.4433
 1917SOL    HW218225   5.400   7.155   8.503  0.7770 -0.0180  0.6281
 1918SOL     OW18226   8.470   5.325   7.600 -0.5234  0.0661 -0.0936
 1918SOL    HW118227   8.546   5.266   7.626  1.0437  0.6405 -3.1193
 1918SOL    HW218228   8.389   5.269   7.579 -0.2965 -0.6913  1.0033
 1919SOL     OW18229   3.145   1.958   8.253 -0.0598 -0.2972 -0.1294
 1919SOL    HW118230   3.051   1.982   8.275 -0.0150  0.6238 -0.8971
 1919SOL    HW218231   3.202   1.967   8.335 -0.7413 -1.5086  0.5036
 1920SOL     OW18232   4.082   4.080   4.723  0.2495  0.3711  0.1666
 1920SOL    HW118233   4.074   4.094   4.624 -0.9646 -0.6326  0.1148
 1920SOL    HW218234   3.994   4.053   4.760  0.9405 -0.2682  1.3704
 1921SOL     OW18235   3.764   5.619   8.557 -0.8609 -0.5847 -0.9989
 1921SOL    HW118236   3.749   5.686   8.485 -0.8005 -1.0024 -1.3979
 1921SOL    HW218237   3.694   5.630   8.627 -0.6370  0.1380 -0.8773
 1922SOL     OW18238   1.251   3.542   4.998 -0.6516  0.0727 -0.1796
 1922SOL    HW118239   1.188   3.499   5.062  0.0225 -0.3689  0.1765
 1922SOL    HW218240   1.343   3.505   5.009 -0.3636  0.5579 -0.8551
 1923SOL     OW18241   8.020   4.349   6.515 -0.2539  0.7172 -0.3437
 1923SOL    HW118242   8.104   4.338   6.568 -0.3746  2.3294  0.2071
 1923SOL    HW218243   8.040   4.399   6.431 -0.5986  0.7965 -0.3775
 1924SOL     OW18244   0.746   0.738   7.650  0.0161 -0.3729 -0.2259
 1924SOL    HW118245   0.677   0.744   7.578 -0.6618 -1.4749  0.3158
 1924SOL    HW218246   0.836   0.753   7.612 -0.3393 -0.9763 -1.3140
 1925SOL     OW18247   7.888   5.670   6.949 -0.8335  0.3784 -0.1137
 1925SOL    HW118248   7.884   5.755   7.001 -1.4868  0.0087  0.4479
 1925SOL    HW218249   7.804   5.618   6.963 -0.6760 -0.0981 -0.9053
 1926SOL     OW18250   6.607   7.052   6.416 -0.0410 -0.5061 -0.0759
 1926SOL    HW118251   6.649   7.033   6.327 -0.4384  0.9581 -0.5851
 1926SOL    HW218252   6.679   7.065   6.484  0.2973 -0.0602 -0.5144
 1927SOL     OW18253   4.499   4.213   8.269  0.1046  0.3510  0.9407
 1927SOL    HW118254   4.539   4.255   8.349 -0.8411  0.0595  1.5758
 1927SOL    HW218255   4.485   4.282   8.198  0.6832  0.6624  1.1322
 1928SOL     OW18256   3.177   1.790   2.704  0.2571 -0.3299  0.4360
 1928SOL    HW118257   3.230   1.851   2.646 -0.1680 -0.4453 -0.0788
 1928SOL    HW218258   3.171   1.828   2.796 -1.0278  0.9978 -0.1811
 1929SOL     OW18259   1.292   3.723   6.799 -0.0219 -0.4140  0.1311
 1929SOL    HW118260   1.226   3.682   6.736  1.2545 -1.0669 -0.7936
 1929SOL    HW218261   1.379   3.673   6.794  0.5349  0.4084  1.3661
 1930SOL     OW18262   6.780   8.942   5.790  0.4094 -0.2125  0.3050
 1930SOL    HW118263   6.850   8.879   5.825  0.2159  0.8610  2.7317
 1930SOL    HW218264   6.690   8.899   5.798  0.6044 -0.9132 -1.1781
 1931SOL     OW18265   4.302   6.917   4.944  0.1056  0.4622 -0.0425
 1931SOL    HW118266   4.233   6.855   4.981  0.2410  0.2846 -0.0833
 1931SOL    HW218267   4.372   6.935   5.013  0.9667 -0.7720 -0.5595
 1932SOL     OW18268   8.291   1.956   5.711 -0.4986  0.0070  0.1431
 1932SOL    HW118269   8.247   2.029   5.659 -1.4586  0.1409  1.1249
 1932SOL    HW218270   8.377   1.989   5.749  0.6399 -0.3572 -2.0605
 1933SOL     OW18271   1.772   2.876   7.397 -0.2556  0.2974 -0.5703
 1933SOL    HW118272   1.721   2.958   7.420  2.5759  2.1912 -0.7960
 1933SOL    HW218273   1.756   2.806   7.467 -3.0601  0.8440 -0.6381
 1934SOL     OW18274   3.053   1.840   0.425  0.2718  0.3139 -0.4079
 1934SOL    HW118275   3.005   1.806   0.505 -1.0100  0.0993 -1.2460
 1934SOL    HW218276   3.127   1.902   0.453  1.3992 -1.6294  1.0305
 1935SOL     OW18277   3.635   3.429   5.745  0.4768  0.3285  0.1073
 1935SOL    HW118278   3.574   3.505   5.723  0.5393  0.2115 -0.4919
 1935SOL    HW218279   3.680   3.446   5.832  0.0311  0.6926  0.2677
 1936SOL     OW18280   1.164   2.858   7.148 -0.0043  0.0435  0.3866
 1936SOL    HW118281   1.231   2.925   7.180  1.9017 -1.8574  0.5016
 1936SOL    HW218282   1.140   2.797   7.223 -1.4736  0.3574  0.1951
 1937SOL     OW18283   0.092   7.211   1.851 -0.5546 -0.2470  0.0511
 1937SOL    HW118284   0.008   7.264   1.858 -0.3167  0.0589  0.7212
 1937SOL    HW218285   0.151   7.233   1.930 -0.2595 -1.1564  0.0825
 1938SOL     OW18286   3.405   2.604   2.687  0.0817  0.4193 -0.4861
 1938SOL    HW118287   3.446   2.512   2.682  2.1100  1.2048  0.9958
 1938SOL    HW218288   3.345   2.609   2.767 -1.1007 -0.0229 -1.3399
 1939SOL     OW18289   7.628   3.488   4.540  0.0433  0.5371 -0.2716
 1939SOL    HW118290   7.704   3.423   4.534 -1.2139 -1.0276  0.5198
 1939SOL    HW218291   7.593   3.490   4.633 -1.2166  0.8749 -0.7440
 1940SOL     OW18292   5.525   7.118   2.082  0.0233  0.8971 -0.0609
 1940SOL    HW118293   5.537   7.192   2.148 -1.2114  0.1608  1.0095
 1940SOL    HW218294   5.428   7.104   2.064  0.1692 -1.1362  0.5426
 1941SOL     OW18295   4.057   0.018   5.303 -0.1192 -0.4121 -0.1042
 1941SOL    HW118296   4.001   0.076   5.362 -1.0921 -1.6648  0.2335
 1941SOL    HW218297   4.116   0.075   5.246  0.5911  0.8275  1.8303
 1942SOL     OW18298   5.204   0.353   0.311 -0.8336  0.5932 -0.4046
 1942SOL    HW118299   5.234   0.258   0.322 -0.3640  0.8285  0.3701
 1942SOL    HW218300   5.278   0.407   0.272 -0.2335  1.1663  1.4869
 1943SOL     OW18301   2.099   7.214   8.017 -0.1498  0.1162  0.0973
 1943SOL    HW118302   2.001   7.217   8.033 -0.6348 -1.6290 -2.2877
 1943SOL    HW218303   2.139   7.139   8.070 -0.5173 -0.8020 -0.9216
 1944SOL     OW18304   8.500   1.456   6.274 -0.0995 -0.0877 -0.8597
 1944SOL    HW118305   8.480   1.393   6.199 -0.1884 -0.5529 -0.4478
 1944SOL    HW218306   8.572   1.418   6.332  0.6178  0.6847 -1.2185
 1945SOL     OW18307   1.894   4.283   7.086  0.3195  0.0678 -0.3597
 1945SOL    HW118308   1.900   4.278   6.987  0.9466 -3.1718 -0.2010
 1945SOL    HW218309   1.799   4.283   7.115  0.1625 -0.8148 -0.8877
 1946SOL     OW18310   2.901   4.767   1.163 -0.1442  0.6185  0.0270
 1946SOL    HW118311   2.845   4.805   1.237 -0.5134 -1.1692  0.7054
 1946SOL    HW218312   2.995   4.755   1.195 -0.3118 -0.1893  0.2284
 1947SOL     OW18313   5.601   0.086   4.860 -0.1570 -0.0201 -0.0670
 1947SOL    HW118314   5.533   0.079   4.933  0.0460  0.5260  0.1775
 1947SOL    HW218315   5.650  -0.000   4.851 -1.7040 -0.8247 -1.0543
 1948SOL     OW18316   3.050   2.983   6.981  0.0291  0.3302  0.0219
 1948SOL    HW118317   3.046   2.892   6.940  0.6486 -0.0271  0.7384
 1948SOL    HW218318   3.041   3.052   6.910  0.5606 -0.2849 -0.6472
 1949SOL     OW18319   3.298   7.780   4.506  0.0075 -0.0156  0.8535
 1949SOL    HW118320   3.198   7.783   4.518 -0.2137  0.1977 -0.9015
 1949SOL    HW218321   3.319   7.776   4.408  1.7620  1.0398  1.1813
 1950SOL     OW18322   0.896   5.895   2.522  0.6514  0.2613 -0.1506
 1950SOL    HW118323   0.821   5.851   2.474  0.0543 -0.7246  1.6269
 1950SOL    HW218324   0.880   5.994   2.527 -0.1893  0.1346 -0.3772
 1951SOL     OW18325   8.914   4.763   4.544  0.4458  0.1129 -0.5748
 1951SOL    HW118326   8.854   4.711   4.604 -0.7837  0.9206 -1.0743
 1951SOL    HW218327   9.010   4.743   4.566  0.0499  1.3640  2.5273
 1952SOL     OW18328   8.488   4.048   8.715  0.2359  0.7009  0.1464
 1952SOL    HW118329   8.429   4.085   8.643  1.4109  1.4620 -0.4328
 1952SOL    HW218330   8.580   4.035   8.680  0.5846  0.1520  1.2449
 1953SOL     OW18331   4.757   8.966   8.246 -0.0421 -0.4408  0.4372
 1953SOL    HW118332   4.782   8.876   8.281 -1.2112 -1.1298 -0.4797
 1953SOL    HW218333   4.733   8.958   8.149  2.2119  1.2672 -0.3036
 1954SOL     OW18334   7.692   3.894   2.078 -0.0021 -0.5023  0.5009
 1954SOL    HW118335   7.613   3.836   2.096 -0.9412  0.2453 -1.1686
 1954SOL    HW218336   7.771   3.859   2.129 -0.9573 -2.2733  0.8006
 1955SOL     OW18337   8.398   5.567   1.287 -0.0535  0.5678  0.0278
 1955SOL    HW118338   8.493   5.534   1.290  0.0250  0.6978 -0.8692
 1955SOL    HW218339   8.352   5.527   1.208 -0.6379  0.7990  0.2552
 1956SOL     OW18340   1.842   3.972   1.771  0.2841 -0.0457 -0.1077
 1956SOL    HW118341   1.801   3.892   1.726 -0.0987 -1.0253  1.9339
 1956SOL    HW218342   1.820   3.970   1.868  1.5964  1.7383  0.2412
 1957SOL     OW18343   3.731   7.328   5.754 -0.1232 -0.6023  0.1452
 1957SOL    HW118344   3.699   7.274   5.832 -0.3039 -0.9874 -0.1938
 1957SOL    HW218345   3.745   7.268   5.675 -1.4176  0.0244 -0.5678
 1958SOL     OW18346   2.396   6.165   4.831 -0.7726 -0.2031  0.2379
 1958SOL    HW118347   2.471   6.122   4.882 -0.8442  0.1267  0.6192
 1958SOL    HW218348   2.309   6.140   4.874 -1.0263 -2.2478 -1.3911
 1959SOL     OW18349   1.646   8.759   2.678  0.1525 -0.3406  0.5159
 1959SOL    HW118350   1.556   8.727   2.648  0.1186 -0.6206  0.9176
 1959SOL    HW218351   1.675   8.835   2.619  0.3501 -1.2606 -0.6039
 1960SOL     OW18352   1.064   7.075   3.180 -0.5251 -0.3583 -0.2638
 1960SOL    HW118353   1.094   7.131   3.103  1.3242 -2.8207 -1.3847
 1960SOL    HW218354   0.982   7.024   3.154 -1.2149  0.5041  0.1852
 1961SOL     OW18355   6.844   3.515   3.079  0.4007  0.1188 -0.1526
 1961SOL    HW118356   6.856   3.608   3.113  1.2242  0.5368 -1.5839
 1961SOL    HW218357   6.868   3.450   3.152  1.1248  1.0071  0.4112
 1962SOL     OW18358   0.014   8.457   7.493  0.3297 -0.2637  0.1137
 1962SOL    HW118359   0.077   8.491   7.562  0.0232 -0.2802  0.3996
 1962SOL    HW218360   0.024   8.511   7.409  0.3086  0.1056  0.3509
 1963SOL     OW18361   0.548   0.735   1.281 -0.0819 -0.3749 -0.0649
 1963SOL    HW118362   0.558   0.693   1.191  0.0255  0.0805 -0.2699
 1963SOL    HW218363   0.452   0.761   1.295  0.2029  1.1507 -0.7818
 1964SOL     OW18364   3.050   3.624   0.069 -0.5507 -0.3157  0.5337
 1964SOL    HW118365   3.111   3.632   0.148  0.2624  0.8765 -0.1999
 1964SOL    HW218366   3.010   3.533   0.067  0.3397 -0.7426  1.6612
 1965SOL     OW18367   7.286   6.267   0.735 -0.2791 -0.7537  0.1511
 1965SOL    HW118368   7.197   6.246   0.774 -0.0697 -1.2488  0.3559
 1965SOL    HW218369   7.345   6.187   0.739 -0.4103 -0.9544 -1.6224
 1966SOL     OW18370   8.446   3.571   1.661 -0.2922  0.3546  0.5247
 1966SOL    HW118371   8.402   3.646   1.612 -2.3656 -1.3448 -0.2521
 1966SOL    HW218372   8.421   3.577   1.758 -1.1722  0.1483  0.3118
 1967SOL     OW18373   5.647   5.933   6.740 -0.3879 -0.1988 -0.3257
 1967SOL    HW118374   5.691   5.879   6.669  1.0714 -0.6105  0.8732
 1967SOL    HW218375   5.561   5.888   6.767 -1.1967  0.2078 -2.1158
 1968SOL     OW18376   0.887   0.472   0.820  0.3447  0.0169 -0.2074
 1968SOL    HW118377   0.928   0.523   0.896 -0.8057 -1.5973  1.5312
 1968SOL    HW218378   0.809   0.524   0.784  1.1521  0.9861 -0.5689
 1969SOL     OW18379   1.083   5.854   1.186 -0.1814  0.3306  0.0585
 1969SOL    HW118380   1.071   5.755   1.192  1.5145  0.1947  1.3954
 1969SOL    HW218381   1.135   5.886   1.265 -0.2215  2.2161 -0.6639
 1970SOL     OW18382   3.687   2.855   5.738 -0.6471  0.1469 -0.1098
 1970SOL    HW118383   3.627   2.834   5.815 -1.7616 -0.6904 -1.1860
 1970SOL    HW218384   3.648   2.817   5.654  0.5238  1.0951 -1.1022
 1971SOL     OW18385   1.864   2.118   1.696  0.4146  0.1573  0.0757
 1971SOL    HW118386   1.949   2.162   1.725  0.6020  0.2786 -0.6551
 1971SOL    HW218387   1.790   2.146   1.757  0.8073  0.4027  0.4450
 1972SOL     OW18388   1.858   5.598   4.996 -0.0827 -0.2064  0.3144
 1972SOL    HW118389   1.927   5.615   4.925  0.5499 -0.6476  0.8171
 1972SOL    HW218390   1.889   5.639   5.082 -0.1281 -1.0068  0.7131
 1973SOL     OW18391   0.523   2.763   7.059 -0.4231  0.4209  0.2905
 1973SOL    HW118392   0.509   2.830   6.986 -1.3884 -0.5590 -0.4510
 1973SOL    HW218393   0.449   2.695   7.055  1.2789 -1.4726  0.1547
 1974SOL     OW18394   6.263   3.907   6.057 -0.1116 -0.6492 -0.1427
 1974SOL    HW118395   6.350   3.954   6.061 -0.6726  0.4035 -0.2207
 1974SOL    HW218396   6.265   3.838   5.984  0.6925 -0.7256 -0.0501
 1975SOL     OW18397   0.926   1.531   7.721  1.0696  0.8253 -0.3544
 1975SOL    HW118398   0.977   1.617   7.724  0.3252  1.2955 -1.0220
 1975SOL    HW218399   0.836   1.547   7.680  0.2349  0.0777  1.1398
 1976SOL     OW18400   1.844   5.323   1.985 -0.3103  0.1867  0.2883
 1976SOL    HW118401   1.799   5.237   2.011 -1.1099  0.6348  0.3869
 1976SOL    HW218402   1.779   5.398   1.993 -0.2833  0.4885 -2.0539
 1977SOL     OW18403   0.899   8.795   8.929 -0.2809 -0.3396  0.3726
 1977SOL    HW118404   0.847   8.781   9.014  0.3703  0.5209  0.9104
 1977SOL    HW218405   0.837   8.785   8.851 -1.0389 -0.3882  0.9722
 1978SOL     OW18406   4.471   6.646   1.997  0.3523  0.1020  0.4585
 1978SOL    HW118407   4.462   6.737   2.039  0.8849  1.1967 -1.7270
 1978SOL    HW218408   4.548   6.598   2.038  0.3013  0.7801  1.3736
 1979SOL     OW18409   1.376   4.391   8.130  0.4429 -0.1684 -0.0047
 1979SOL    HW118410   1.469   4.424   8.118  0.7559 -0.4473  1.5413
 1979SOL    HW218411   1.321   4.461   8.175 -0.2664  0.2312 -1.4635
 1980SOL     OW18412   5.592   2.841   3.948 -0.3659  0.9706  0.6285
 1980SOL    HW118413   5.531   2.766   3.923  1.6528 -0.4964 -0.0503
 1980SOL    HW218414   5.621   2.890   3.866  3.9146 -1.9978  0.1853
 1981SOL     OW18415   1.815   7.932   0.456  0.1566 -0.0178  0.7417
 1981SOL    HW118416   1.748   7.858   0.454  0.4071 -0.2021 -1.9936
 1981SOL    HW218417   1.776   8.010   0.504 -2.0397 -0.1322 -0.7672
 1982SOL     OW18418   6.003   1.729   3.850 -0.4510  0.0784 -0.1221
 1982SOL    HW118419   5.981   1.631   3.848 -0.0038 -0.0280 -3.3720
 1982SOL    HW218420   6.037   1.754   3.940 -1.0327 -2.6617  0.9077
 1983SOL     OW18421   7.534   2.599   0.437  0.2450 -0.2526 -0.0452
 1983SOL    HW118422   7.538   2.557   0.347 -1.1380  0.2649 -0.3576
 1983SOL    HW218423   7.439   2.615   0.463  0.6740  0.9536  0.8705
 1984SOL     OW18424   7.124   5.411   0.639  0.3055 -0.1377  0.0387
 1984SOL    HW118425   7.042   5.402   0.583 -0.0835 -0.4297  0.6546
 1984SOL    HW218426   7.136   5.506   0.665  1.1562  0.2023 -1.5436
 1985SOL     OW18427   1.131   4.337   8.000 -0.3535  0.8282 -0.4294
 1985SOL    HW118428   1.223   4.359   8.033  0.0410  1.3990 -1.8459
 1985SOL    HW218429   1.120   4.238   7.995 -0.6262  0.7185  1.9188
 1986SOL     OW18430   4.294   8.768   2.339  0.4026  0.7542  0.1785
 1986SOL    HW118431   4.344   8.825   2.404 -1.3772  1.4052  0.9933
 1986SOL    HW218432   4.355   8.698   2.303  2.1277  2.0574  0.5193
 1987SOL     OW18433   5.147   8.311   4.627 -0.4964 -0.3004  0.3180
 1987SOL    HW118434   5.061   8.318   4.678 -1.5008  0.0081 -1.3791
 1987SOL    HW218435   5.131   8.335   4.532  1.6029  0.2949  0.0930
 1988SOL     OW18436   5.118   2.822   8.460  0.2960  0.0189  0.0520
 1988SOL    HW118437   5.161   2.844   8.548 -0.1433 -0.6972  0.4475
 1988SOL    HW218438   5.178   2.760   8.409  0.8785  0.9841 -0.4644
 1989SOL     OW18439   5.806   0.009   0.848  0.5169 -0.4098 -0.0663
 1989SOL    HW118440   5.719  -0.037   0.831 -0.8033  1.7873  0.4112
 1989SOL    HW218441   5.881  -0.042   0.807 -0.9668 -2.5212 -0.1951
 1990SOL     OW18442   7.110   5.482   1.414 -0.4009  0.7394 -0.6313
 1990SOL    HW118443   7.028   5.479   1.472 -0.8768 -1.3884 -1.3525
 1990SOL    HW218444   7.185   5.524   1.466 -1.5884  1.5283  0.4963
 1991SOL     OW18445   0.678   6.429   0.983 -0.2704  0.3796 -0.4575
 1991SOL    HW118446   0.687   6.332   1.001 -2.9803 -0.1014 -1.5333
 1991SOL    HW218447   0.639   6.475   1.063 -0.1425  0.3815 -0.3962
 1992SOL     OW18448   7.052   4.936   2.464  0.1643  0.0105 -0.4785
 1992SOL    HW118449   7.083   4.945   2.559 -2.4022 -1.1684  0.5229
 1992SOL    HW218450   7.029   4.840   2.446 -1.3762  0.5842 -1.6501
 1993SOL     OW18451   2.208   4.786   1.345  0.6099  0.5810  0.6613
 1993SOL    HW118452   2.193   4.696   1.385 -0.8768  0.3052 -0.4542
 1993SOL    HW218453   2.164   4.855   1.402  0.3713  0.4308  0.6598
 1994SOL     OW18454   1.735   6.393   1.220 -0.5175 -0.1037 -0.4598
 1994SOL    HW118455   1.735   6.298   1.189  0.8882 -0.3742  0.3199
 1994SOL    HW218456   1.813   6.441   1.180 -1.4469  0.8509 -1.1714
 1995SOL     OW18457   6.814   4.234   8.090 -0.1705 -0.1192  0.2638
 1995SOL    HW118458   6.748   4.309   8.094 -0.6859 -0.4600 -1.3920
 1995SOL    HW218459   6.904   4.267   8.116 -0.2416  1.2625 -1.1795
 1996SOL     OW18460   4.648   0.223   0.658  1.3223 -1.1264 -0.4850
 1996SOL    HW118461   4.565   0.274   0.633  1.7676  1.0278  2.1512
 1996SOL    HW218462   4.720   0.242   0.592  1.0575  0.6055 -0.3022
 1997SOL     OW18463   4.595   6.693   7.648 -0.0060  0.7877  0.6869
 1997SOL    HW118464   4.692   6.701   7.623 -0.4457 -1.9795 -2.1273
 1997SOL    HW218465   4.540   6.753   7.590 -0.2755  0.0481  0.1718
 1998SOL     OW18466   0.992   3.080   8.686 -0.2919 -0.3706  0.5793
 1998SOL    HW118467   1.010   3.100   8.782 -0.1673  1.5490  0.1728
 1998SOL    HW218468   0.903   3.116   8.660 -0.5621 -1.3607  0.1098
 1999SOL     OW18469   5.085   1.273   1.450  0.0520 -0.7888  0.0825
 1999SOL    HW118470   5.069   1.233   1.541 -0.0133  0.0091  0.4278
 1999SOL    HW218471   5.057   1.208   1.380 -0.8674 -1.0186  0.6495
 2000SOL     OW18472   3.667   4.447   0.067 -0.5321 -0.0271 -0.7267
 2000SOL    HW118473   3.607   4.368   0.084 -0.8132  0.5085  0.8910
 2000SOL    HW218474   3.611   4.529   0.057 -0.1001  0.4560  0.6562
 2001SOL     OW18475   5.345   3.318   3.067 -0.0473 -0.6826  0.3293
 2001SOL    HW118476   5.257   3.298   3.111 -0.4409 -0.2787 -0.2730
 2001SOL    HW218477   5.397   3.233   3.056  0.2654 -0.7432  1.9976
 2002SOL     OW18478   8.203   5.500   2.746 -0.2060 -0.0786  0.4397
 2002SOL    HW118479   8.183   5.598   2.736 -1.4119 -0.3004  0.6185
 2002SOL    HW218480   8.177   5.470   2.838 -1.8286 -1.0355 -0.3164
 2003SOL     OW18481   5.824   5.374   4.083  0.1291 -0.5900 -0.4101
 2003SOL    HW118482   5.865   5.301   4.028 -1.0035  0.2704 -2.4679
 2003SOL    HW218483   5.792   5.447   4.023  0.1835  1.0763  1.5290
 2004SOL     OW18484   0.380   7.739   2.368 -0.3451 -0.1401  0.2420
 2004SOL    HW118485   0.424   7.812   2.419 -3.7512  1.4005  1.1514
 2004SOL    HW218486   0.431   7.654   2.381  1.3157  1.1592  2.6532
 2005SOL     OW18487   7.452   5.719   0.810 -0.5524 -0.5030 -0.6859
 2005SOL    HW118488   7.435   5.623   0.834  1.2616 -0.5387  0.5978
 2005SOL    HW218489   7.509   5.723   0.728 -1.3005 -0.5025 -1.2086
 2006SOL     OW18490   4.416   5.069   6.728  0.0244  0.2513 -0.3887
 2006SOL    HW118491   4.399   5.104   6.635 -0.9287  0.9053  0.0207
 2006SOL    HW218492   4.367   4.983   6.740  0.9124 -0.3177 -0.8006
 2007SOL     OW18493   7.819   0.683   1.903  0.7039  0.2592  0.0565
 2007SOL    HW118494   7.808   0.675   2.002  0.2707  1.8275  0.1417
 2007SOL    HW218495   7.833   0.779   1.878  1.2278 -0.1657 -1.3652
 2008SOL     OW18496   3.632   4.752   1.090 -0.1031 -0.5005 -0.0204
 2008SOL    HW118497   3.659   4.658   1.069  0.0469 -0.3271 -0.6252
 2008SOL    HW218498   3.534   4.755   1.109 -0.4916 -0.4776 -1.9239
 2009SOL     OW18499   4.016   2.604   0.150  0.0976  0.2345 -0.1819
 2009SOL    HW118500   3.970   2.650   0.074 -0.8698 -0.0417  0.2263
 2009SOL    HW218501   4.049   2.515   0.121 -0.4177  0.0607 -0.2460
 2010SOL     OW18502   2.953   6.179   8.286  0.3921  0.6307 -0.0552
 2010SOL    HW118503   2.967   6.245   8.360 -1.8761  0.2647  0.7436
 2010SOL    HW218504   3.014   6.101   8.298  1.1232  1.2922  0.5604
 2011SOL     OW18505   5.427   0.705   7.856 -0.2803 -0.2404 -0.1138
 2011SOL    HW118506   5.479   0.708   7.942 -0.2456 -0.0576 -0.1418
 2011SOL    HW218507   5.423   0.796   7.816 -0.8121 -0.2096  0.0015
 2012SOL     OW18508   0.784   5.798   1.746 -0.0918  0.0391 -0.5907
 2012SOL    HW118509   0.848   5.748   1.804 -0.2210  1.3046  0.6996
 2012SOL    HW218510   0.821   5.806   1.653  1.9203  1.2294  0.2617
 2013SOL     OW18511   1.619   6.794   1.048  0.7200 -0.1203  0.4743
 2013SOL    HW118512   1.706   6.809   1.001 -0.1282  0.7190 -0.8474
 2013SOL    HW218513   1.567   6.879   1.050 -1.6444 -1.4518 -1.9591
 2014SOL     OW18514   6.346   0.400   3.125 -0.1280 -0.6185  0.0361
 2014SOL    HW118515   6.412   0.463   3.084  0.3976 -0.9509  0.3754
 2014SOL    HW218516   6.277   0.375   3.057  0.4273 -0.7264 -0.4885
 2015SOL     OW18517   8.410   6.186   7.427 -0.4567 -0.1061 -0.0665
 2015SOL    HW118518   8.453   6.102   7.393  0.8036  0.4489  0.1146
 2015SOL    HW218519   8.356   6.165   7.509  0.6064 -0.5870  0.5194
 2016SOL     OW18520   3.374   4.227   1.829 -0.1192  0.1064 -0.7952
 2016SOL    HW118521   3.361   4.129   1.816 -0.4977 -0.0611  0.6751
 2016SOL    HW218522   3.466   4.244   1.867 -0.6407  0.1665  0.4601
 2017SOL     OW18523   4.721   3.871   8.453  0.9058 -0.4661  0.5271
 2017SOL    HW118524   4.719   3.949   8.514  1.2418 -1.4014  1.7577
 2017SOL    HW218525   4.642   3.811   8.471  1.0049 -0.7494  0.0501
 2018SOL     OW18526   4.527   5.642   1.678  0.4799 -0.1482 -0.0029
 2018SOL    HW118527   4.624   5.667   1.684 -0.3372  3.0734  1.1066
 2018SOL    HW218528   4.472   5.725   1.662 -2.1254 -1.8725 -0.3431
 2019SOL     OW18529   5.650   7.116   6.166 -0.0753  0.2368  0.4358
 2019SOL    HW118530   5.705   7.176   6.108  1.4176 -0.0302  1.5673
 2019SOL    HW218531   5.602   7.171   6.235 -1.1588  0.4528 -0.4685
 2020SOL     OW18532   2.061   8.511   6.920  0.8014  0.1045  0.0354
 2020SOL    HW118533   1.973   8.531   6.963  1.8035  0.6956  1.8793
 2020SOL    HW218534   2.128   8.487   6.990  2.9811  2.9006 -0.9634
 2021SOL     OW18535   8.716   0.444   7.771 -0.0416 -0.5822 -0.2487
 2021SOL    HW118536   8.745   0.387   7.694  0.8088 -1.1254  0.4597
 2021SOL    HW218537   8.791   0.502   7.800 -0.2941 -0.5212  0.2979
 2022SOL     OW18538   7.811   5.501   3.161  0.1777 -0.4380  0.2129
 2022SOL    HW118539   7.762   5.584   3.187  1.0925  0.5094 -1.0457
 2022SOL    HW218540   7.903   5.503   3.200  0.4891 -0.4636 -0.5111
 2023SOL     OW18541   1.155   1.714   8.869  0.2181 -0.6307 -0.0165
 2023SOL    HW118542   1.211   1.669   8.939 -0.4894  0.9873  1.6154
 2023SOL    HW218543   1.214   1.770   8.810  0.3341  1.0923  1.7115
 2024SOL     OW18544   3.077   6.268   6.563  0.3656 -0.1787 -0.3958
 2024SOL    HW118545   3.040   6.179   6.535  0.0608 -0.0766 -0.3134
 2024SOL    HW218546   3.022   6.341   6.524  0.8685 -0.0172 -0.8123
 2025SOL     OW18547   1.388   5.760   8.993  0.6345 -0.4310 -0.2208
 2025SOL    HW118548   1.447   5.761   9.074  1.0974  0.8520 -0.5710
 2025SOL    HW218549   1.444   5.745   8.912  0.3453 -0.2674 -0.4520
 2026SOL     OW18550   3.026   5.886   1.744 -0.1609 -0.6258  0.4248
 2026SOL    HW118551   2.967   5.870   1.666 -1.0102 -1.7242  1.2881
 2026SOL    HW218552   3.083   5.966   1.726 -0.7792 -0.5017 -1.0563
 2027SOL     OW18553   4.366   1.427   2.989 -0.2807 -0.5063 -0.4418
 2027SOL    HW118554   4.443   1.363   2.993 -0.6632 -1.0209 -1.2081
 2027SOL    HW218555   4.290   1.385   2.940 -0.7500  0.3179 -0.4363
 2028SOL     OW18556   4.569   1.032   2.717 -0.1840 -0.7060 -0.9700
 2028SOL    HW118557   4.648   1.060   2.663 -0.4736 -0.5973 -1.3407
 2028SOL    HW218558   4.489   1.083   2.687  0.0153  0.6763  0.7751
 2029SOL     OW18559   6.595   3.977   0.917 -0.0203 -0.2190  0.7834
 2029SOL    HW118560   6.530   4.024   0.858 -0.6990 -0.3062  1.4439
 2029SOL    HW218561   6.576   4.001   1.013  1.0195 -0.1241  0.9743
 2030SOL     OW18562   4.570   1.830   0.333 -0.2217  0.2070  0.1469
 2030SOL    HW118563   4.508   1.835   0.411  1.6655  2.4566  1.5895
 2030SOL    HW218564   4.520   1.848   0.248 -1.6919  1.1063  1.1930
 2031SOL     OW18565   6.127   7.308   5.841  0.3651  0.1908  0.0111
 2031SOL    HW118566   6.047   7.363   5.817 -0.3896 -1.1367 -0.5960
 2031SOL    HW218567   6.098   7.215   5.865  1.7780 -0.5307 -0.9683
 2032SOL     OW18568   8.664   1.132   7.982 -0.6332  0.7856  0.0211
 2032SOL    HW118569   8.609   1.048   7.984 -0.9785  1.0372  2.8188
 2032SOL    HW218570   8.760   1.108   7.968 -0.5185 -0.2368  2.3424
 2033SOL     OW18571   1.987   4.287   6.820 -0.1574  0.3697 -0.4920
 2033SOL    HW118572   1.946   4.323   6.736 -0.3279  1.8640  0.2239
 2033SOL    HW218573   2.057   4.349   6.853 -0.8669  0.3530  1.0910
 2034SOL     OW18574   5.365   5.893   3.368  0.4453 -0.3996  0.6126
 2034SOL    HW118575   5.282   5.909   3.422  0.2537 -1.5413  0.6633
 2034SOL    HW218576   5.415   5.979   3.359 -1.8514  0.8156 -1.2612
 2035SOL     OW18577   3.318   4.973   4.094  0.2474  0.0100 -0.5091
 2035SOL    HW118578   3.318   4.887   4.043  0.8580 -1.3403  1.6958
 2035SOL    HW218579   3.398   4.976   4.154  0.1386  2.0515 -0.4365
 2036SOL     OW18580   1.328   4.326   7.240 -0.0207  0.4269  0.5427
 2036SOL    HW118581   1.286   4.235   7.232 -0.0256  0.5054 -0.3061
 2036SOL    HW218582   1.358   4.357   7.150  1.0620  0.7604  1.0194
 2037SOL     OW18583   0.649   4.182   1.242 -0.1994  0.0100 -0.3653
 2037SOL    HW118584   0.664   4.279   1.259  2.1055 -0.4549  0.3671
 2037SOL    HW218585   0.651   4.165   1.143 -2.0534  0.8955 -0.5871
 2038SOL     OW18586   1.883   1.586   1.369 -0.4809  0.0832  0.1982
 2038SOL    HW118587   1.915   1.513   1.309 -1.2721 -1.1425  1.2347
 2038SOL    HW218588   1.915   1.674   1.335 -0.1176 -0.6779 -1.4753
 2039SOL     OW18589   8.576   6.546   7.608 -0.0252 -0.6336 -0.4819
 2039SOL    HW118590   8.579   6.617   7.678 -0.0472 -0.0898 -1.0310
 2039SOL    HW218591   8.480   6.525   7.586 -0.0339 -1.6269  0.4786
 2040SOL     OW18592   2.103   5.421   4.333  0.3485 -0.1409 -0.1789
 2040SOL    HW118593   2.076   5.361   4.257 -1.0544  0.1134  0.0932
 2040SOL    HW218594   2.202   5.433   4.333  0.4290 -0.6952 -1.5624
 2041SOL     OW18595   8.153   1.222   6.175 -0.3289 -0.5708  0.4602
 2041SOL    HW118596   8.196   1.198   6.262  2.6323  0.0901 -0.7829
 2041SOL    HW218597   8.144   1.141   6.119  2.4073 -0.1944 -0.5863
 2042SOL     OW18598   8.296   4.849   6.934 -0.1773 -0.1070  0.0701
 2042SOL    HW118599   8.227   4.892   6.992  0.3893  1.0743 -0.1079
 2042SOL    HW218600   8.369   4.810   6.991  0.8590  1.8789  0.1599
 2043SOL     OW18601   2.887   3.813   2.666 -0.0575  0.0197  0.0284
 2043SOL    HW118602   2.858   3.721   2.638 -1.4466  0.2105  0.8048
 2043SOL    HW218603   2.807   3.872   2.677  0.5773  0.4713  2.4993
 2044SOL     OW18604   5.852   3.113   0.016 -0.0480 -0.2772 -0.1013
 2044SOL    HW118605   5.823   3.113  -0.080 -0.4545 -0.2722  0.0221
 2044SOL    HW218606   5.952   3.122   0.020  0.0371 -1.0061 -0.5375
 2045SOL     OW18607   5.705   6.242   2.126 -0.3763 -0.1538  0.7789
 2045SOL    HW118608   5.777   6.187   2.084 -0.0857  0.9344 -0.1846
 2045SOL    HW218609   5.617   6.195   2.118 -0.2842 -0.0641 -0.8347
 2046SOL     OW18610   8.276   4.065   4.366 -0.1119 -0.0238 -0.4185
 2046SOL    HW118611   8.300   4.082   4.461  0.8225  1.0338 -0.8266
 2046SOL    HW218612   8.313   3.977   4.337 -0.8414 -0.5871  0.3351
 2047SOL     OW18613   3.717   7.447   7.409  0.6296  0.2961  0.3619
 2047SOL    HW118614   3.630   7.494   7.429  0.7970  0.8963 -0.2911
 2047SOL    HW218615   3.699   7.350   7.397 -0.1280  0.5582 -0.7743
 2048SOL     OW18616   1.530   6.571   1.223  0.0749  0.2146  0.2104
 2048SOL    HW118617   1.570   6.643   1.167  0.2786  1.2559  1.6841
 2048SOL    HW218618   1.602   6.511   1.258 -0.0334 -0.2894 -0.3974
 2049SOL     OW18619   7.353   6.010   7.772  0.1733  0.0772 -0.3703
 2049SOL    HW118620   7.353   6.110   7.776  2.9894  0.2009 -1.9893
 2049SOL    HW218621   7.384   5.974   7.860 -0.6375  0.6224  0.1475
 2050SOL     OW18622   4.537   7.954   0.156  0.5169 -0.2189  0.0828
 2050SOL    HW118623   4.489   7.897   0.090 -0.8131  1.8350 -0.7551
 2050SOL    HW218624   4.634   7.930   0.157  0.5069 -0.4071 -2.4689
 2051SOL     OW18625   2.531   2.860   2.174  0.0348 -0.1475  0.4027
 2051SOL    HW118626   2.553   2.952   2.206  1.6496 -0.5181  0.4201
 2051SOL    HW218627   2.446   2.829   2.217  0.0436  0.9257  1.2122
 2052SOL     OW18628   5.843   4.773   8.088 -0.0058  0.5318 -0.1019
 2052SOL    HW118629   5.749   4.788   8.117  0.1819  2.2895 -0.3313
 2052SOL    HW218630   5.844   4.742   7.993 -0.3837 -0.0909  0.0986
 2053SOL     OW18631   0.376   3.406   2.461 -0.0151  0.0583  0.3956
 2053SOL    HW118632   0.373   3.399   2.561  0.3081 -1.1495  0.3283
 2053SOL    HW218633   0.316   3.337   2.422 -1.4623  1.6260 -0.2357
 2054SOL     OW18634   1.348   3.933   7.029 -0.0507 -0.2275 -0.0351
 2054SOL    HW118635   1.335   3.869   6.954 -0.0219 -0.3780  0.0884
 2054SOL    HW218636   1.435   3.914   7.074 -0.9909 -1.4713  1.3323
 2055SOL     OW18637   8.553   7.702   5.769 -0.3795 -0.2512  0.5622
 2055SOL    HW118638   8.601   7.739   5.849  1.4220 -1.2966 -0.0032
 2055SOL    HW218639   8.468   7.752   5.756 -0.8243 -0.2097  3.2766
 2056SOL     OW18640   5.511   7.361   1.412 -0.1080 -0.0433 -1.1706
 2056SOL    HW118641   5.413   7.369   1.395 -0.1077  0.6409 -0.8330
 2056SOL    HW218642   5.560   7.432   1.362  0.1938 -0.1996 -1.1005
 2057SOL     OW18643   6.479   3.344   2.546 -0.0852  0.6535 -0.2490
 2057SOL    HW118644   6.469   3.347   2.645 -1.5998 -1.3002 -0.2916
 2057SOL    HW218645   6.451   3.432   2.507  0.9186  1.5791  1.0618
 2058SOL     OW18646   0.126   3.206   5.141  0.0893 -0.6537 -0.1431
 2058SOL    HW118647   0.128   3.128   5.079 -1.0755 -2.2262  1.7294
 2058SOL    HW218648   0.216   3.217   5.184 -0.5006 -2.8835  1.8092
 2059SOL     OW18649   6.527   5.895   1.239 -0.2557 -0.6939  0.0896
 2059SOL    HW118650   6.554   5.991   1.228 -0.8820 -0.4677  0.4909
 2059SOL    HW218651   6.589   5.837   1.187  1.6596 -0.2801  1.8815
 2060SOL     OW18652   5.658   4.206   0.217 -0.0677  0.5567  0.2067
 2060SOL    HW118653   5.589   4.164   0.276  1.3814 -1.0294  0.8210
 2060SOL    HW218654   5.613   4.253   0.142 -1.8458  0.2242  1.0244
 2061SOL     OW18655   2.152   7.140   0.694 -0.2398 -0.3323  0.0967
 2061SOL    HW118656   2.152   7.069   0.764  0.9748  0.8193  1.2790
 2061SOL    HW218657   2.126   7.227   0.734  0.9716  0.4439 -0.7653
 2062SOL     OW18658   6.881   5.242   5.589  0.1418  0.5076 -0.1665
 2062SOL    HW118659   6.867   5.263   5.686  0.2943 -0.7528  0.1289
 2062SOL    HW218660   6.956   5.177   5.579  0.8414  1.4678 -1.2199
 2063SOL     OW18661   2.788   3.649   3.365  0.3630  0.3293  0.4717
 2063SOL    HW118662   2.717   3.717   3.344 -0.4516  0.2767  2.8479
 2063SOL    HW218663   2.773   3.567   3.310 -1.0083  0.6044  0.4188
 2064SOL     OW18664   3.938   8.305   6.107 -0.1661  0.0403  0.6343
 2064SOL    HW118665   3.933   8.205   6.105  0.9956 -0.0365  1.1141
 2064SOL    HW218666   3.849   8.343   6.084 -0.7958 -1.1177  1.1135
 2065SOL     OW18667   4.085   3.893   8.338  0.2022  1.0475 -0.4709
 2065SOL    HW118668   4.153   3.967   8.346  0.1622  1.0325  0.0336
 2065SOL    HW218669   4.038   3.901   8.250  0.5510  1.3217 -0.6358
 2066SOL     OW18670   5.100   3.475   5.062 -0.0088 -0.1667  0.2186
 2066SOL    HW118671   5.055   3.495   4.975  1.4126  0.4988 -0.3726
 2066SOL    HW218672   5.142   3.559   5.098  3.2983 -1.3444 -0.7193
 2067SOL     OW18673   2.812   6.712   4.935 -0.1316 -0.3710  0.6399
 2067SOL    HW118674   2.871   6.714   4.854  0.3727 -0.9842  0.9871
 2067SOL    HW218675   2.756   6.795   4.937  2.2671  1.2870  1.4196
 2068SOL     OW18676   3.420   8.447   3.998  0.3544  0.2633 -0.3017
 2068SOL    HW118677   3.486   8.419   4.067  0.8139 -0.2775 -0.9551
 2068SOL    HW218678   3.406   8.546   4.003  0.3973  0.2281  0.5483
 2069SOL     OW18679   0.454   8.267   8.782 -0.0639  0.9276  0.7410
 2069SOL    HW118680   0.543   8.314   8.778 -0.7064  2.1175  0.0797
 2069SOL    HW218681   0.408   8.275   8.694 -1.5783  1.8406  1.5784
 2070SOL     OW18682   2.476   6.816   4.422  0.3961 -0.2941 -0.6045
 2070SOL    HW118683   2.509   6.890   4.364  0.9777  0.4100  0.6077
 2070SOL    HW218684   2.436   6.854   4.505  0.0253 -1.3135 -0.3049
 2071SOL     OW18685   5.343   4.757   5.773 -0.3151  0.0669 -0.0263
 2071SOL    HW118686   5.287   4.734   5.694  0.8160 -3.7763  0.2107
 2071SOL    HW218687   5.285   4.767   5.853 -0.8648 -2.3160 -0.1026
 2072SOL     OW18688   6.652   8.099   1.382 -0.2209  0.4221  0.9439
 2072SOL    HW118689   6.688   8.053   1.463  0.9678  0.3738  0.4046
 2072SOL    HW218690   6.728   8.129   1.324 -1.0631  0.2009 -0.2999
 2073SOL     OW18691   3.424   2.435   0.142 -0.2191 -0.0395 -0.1217
 2073SOL    HW118692   3.390   2.348   0.106 -1.5431 -0.4300  1.9821
 2073SOL    HW218693   3.523   2.442   0.127 -0.2212 -1.5960 -0.8981
 2074SOL     OW18694   8.039   4.501   4.629  0.2421  0.3904 -0.0734
 2074SOL    HW118695   8.127   4.534   4.663 -0.4652  2.3090 -0.0448
 2074SOL    HW218696   8.027   4.531   4.534 -0.2471 -0.1465 -0.1862
 2075SOL     OW18697   6.911   7.140   5.886  0.1733 -0.3405 -0.0864
 2075SOL    HW118698   6.998   7.100   5.914  0.5919 -1.5622 -2.9446
 2075SOL    HW218699   6.851   7.148   5.965  2.8080  0.4097  1.9245
 2076SOL     OW18700   0.676   6.700   1.692 -0.0742 -0.2349 -0.0722
 2076SOL    HW118701   0.663   6.796   1.671  0.7279 -0.5080 -1.8617
 2076SOL    HW218702   0.684   6.647   1.607 -0.0191 -1.8124  0.8808
 2077SOL     OW18703   5.070   4.945   0.927 -0.1004  0.4386 -0.7084
 2077SOL    HW118704   5.000   4.878   0.951  0.1557  0.0018 -1.1645
 2077SOL    HW218705   5.087   5.005   1.005 -0.4968  0.1167 -0.3710
 2078SOL     OW18706   3.016   7.332   8.080  0.7252 -0.1101  0.1783
 2078SOL    HW118707   2.957   7.292   8.009 -0.0405 -0.3275  0.9137
 2078SOL    HW218708   3.104   7.284   8.082  0.4133 -0.6989 -0.0326
 2079SOL     OW18709   0.734   0.346   8.120 -0.2084 -0.2212  0.8055
 2079SOL    HW118710   0.650   0.399   8.107 -0.5164 -0.2841  2.3894
 2079SOL    HW218711   0.739   0.273   8.052  1.2822  3.0856 -2.8319
 2080SOL     OW18712   5.573   0.338   8.706 -0.4105 -0.0180  0.3937
 2080SOL    HW118713   5.557   0.328   8.804  0.1571  1.2646  0.6317
 2080SOL    HW218714   5.568   0.248   8.662 -0.6710 -0.6023  1.5912
 2081SOL     OW18715   4.718   4.036   0.532  0.2720  0.3862  0.2714
 2081SOL    HW118716   4.766   4.107   0.481  0.5950 -0.0669 -0.0642
 2081SOL    HW218717   4.665   4.078   0.606  1.0361  0.9078  0.5294
 2082SOL     OW18718   5.218   2.864   8.707 -0.0677 -0.1401  0.4027
 2082SOL    HW118719   5.143   2.885   8.770  0.3529  2.0384  0.2246
 2082SOL    HW218720   5.303   2.855   8.759  0.2543  1.5121  0.1674
 2083SOL     OW18721   3.818   7.565   8.823 -0.2556  0.3918  0.0545
 2083SOL    HW118722   3.821   7.635   8.894 -1.6036  0.5464 -0.0327
 2083SOL    HW218723   3.810   7.475   8.866 -1.3300  0.5035  0.1075
 2084SOL     OW18724   6.224   0.885   7.587 -0.7320  0.0545  0.0933
 2084SOL    HW118725   6.270   0.796   7.587  1.1970  1.0070  0.7256
 2084SOL    HW218726   6.293   0.957   7.587 -2.2766  1.5589 -0.7651
 2085SOL     OW18727   5.266   6.372   3.532 -0.0135 -0.6805 -0.9704
 2085SOL    HW118728   5.280   6.365   3.631  0.8852 -1.4818 -1.1530
 2085SOL    HW218729   5.168   6.359   3.512 -0.6516  2.1923  0.0336
 2086SOL     OW18730   0.105   5.456   2.593  0.1854 -0.4747  0.5750
 2086SOL    HW118731   0.031   5.417   2.648 -1.3395  0.6619 -0.6383
 2086SOL    HW218732   0.071   5.535   2.541  2.3820  0.4283  0.4273
 2087SOL     OW18733   0.481   3.297   7.039  0.1460  0.6897  0.3379
 2087SOL    HW118734   0.400   3.246   7.011  0.1347  0.4365  0.8200
 2087SOL    HW218735   0.496   3.284   7.137  1.1763  0.1611  0.1194
 2088SOL     OW18736   6.796   2.597   6.705 -0.0690  0.4623  0.5354
 2088SOL    HW118737   6.774   2.538   6.783 -0.2439  1.6065  1.3760
 2088SOL    HW218738   6.742   2.682   6.712 -0.1517  0.5325 -0.8855
 2089SOL     OW18739   0.127   3.682   5.657  0.0319 -0.3710  0.2260
 2089SOL    HW118740   0.072   3.602   5.680 -2.5817  1.8707  2.2730
 2089SOL    HW218741   0.185   3.707   5.734 -0.2101  0.4838  0.1459
 2090SOL     OW18742   6.980   2.643   8.494 -0.1482  0.3508 -0.5473
 2090SOL    HW118743   6.969   2.724   8.551 -2.0583 -0.4848  0.3050
 2090SOL    HW218744   7.042   2.579   8.540  1.4391  1.3363 -1.2660
 2091SOL     OW18745   1.121   3.204   2.862 -0.0084  0.3756 -0.2455
 2091SOL    HW118746   1.211   3.240   2.885  0.4841  0.2878 -1.9236
 2091SOL    HW218747   1.084   3.153   2.940  2.4052 -1.5230 -0.2674
 2092SOL     OW18748   8.749   0.854   0.953  0.0136  0.2009 -0.8094
 2092SOL    HW118749   8.717   0.948   0.951 -0.4380  0.0507 -0.9074
 2092SOL    HW218750   8.670   0.792   0.962  0.3467 -0.1446 -0.2855
 2093SOL     OW18751   3.336   1.398   1.518  0.6854 -0.5598 -0.2593
 2093SOL    HW118752   3.246   1.361   1.492  0.7195 -0.2580 -0.8174
 2093SOL    HW218753   3.346   1.490   1.480  0.2766  0.3595  1.8051
 2094SOL     OW18754   1.653   1.023   1.260  0.6281  0.5386  0.7461
 2094SOL    HW118755   1.683   0.931   1.285 -0.2254  0.1158  0.2561
 2094SOL    HW218756   1.598   1.018   1.177 -0.1494  1.3923  1.2057
 2095SOL     OW18757   8.653   0.817   5.560 -0.3746 -0.9963  0.3649
 2095SOL    HW118758   8.609   0.871   5.489  2.4479  1.5753  0.4656
 2095SOL    HW218759   8.720   0.755   5.518  0.8628  0.0967  0.6897
 2096SOL     OW18760   2.704   2.832   8.985  0.7348  0.4804 -0.4415
 2096SOL    HW118761   2.685   2.756   9.048 -1.4256  1.4834  0.1602
 2096SOL    HW218762   2.746   2.907   9.035 -1.6354  1.5546  0.0033
 2097SOL     OW18763   0.945   2.905   7.773 -0.5559  0.2752 -0.0927
 2097SOL    HW118764   0.922   2.973   7.842 -0.9483  0.0733 -0.0238
 2097SOL    HW218765   1.034   2.864   7.795 -0.8267 -0.0161  0.4728
 2098SOL     OW18766   1.982   5.905   0.141  0.0471 -0.9726 -0.0900
 2098SOL    HW118767   2.013   5.986   0.090 -0.3006 -0.5969  0.2904
 2098SOL    HW218768   1.898   5.871   0.099  0.3190 -1.2750 -0.3905
 2099SOL     OW18769   8.684   5.842   3.880  0.2909 -0.1942 -0.7907
 2099SOL    HW118770   8.729   5.924   3.842  0.1063  0.3191  0.0830
 2099SOL    HW218771   8.617   5.808   3.814  0.4757  0.2678 -1.2282
 2100SOL     OW18772   4.464   2.014   6.358  0.2624 -0.2047 -0.3911
 2100SOL    HW118773   4.452   1.916   6.343 -1.6915  0.2123 -1.6030
 2100SOL    HW218774   4.375   2.057   6.372  1.1611  1.3067  0.8334
 2101SOL     OW18775   0.254   5.020   2.288 -0.3617  0.6269  0.1407
 2101SOL    HW118776   0.245   4.921   2.305  1.2924  0.3455 -0.5235
 2101SOL    HW218777   0.175   5.067   2.327  0.0127 -0.6883  2.6589
 2102SOL     OW18778   6.330   5.510   3.419 -0.1055 -0.1954 -0.3968
 2102SOL    HW118779   6.387   5.555   3.350 -0.6223 -0.0694 -0.7438
 2102SOL    HW218780   6.333   5.563   3.504  1.4052 -0.9357  0.0300
 2103SOL     OW18781   8.071   3.897   0.132 -0.2439 -0.5032 -0.2250
 2103SOL    HW118782   8.036   3.928   0.044  0.0515 -0.5910 -0.3738
 2103SOL    HW218783   7.998   3.851   0.183 -0.2966 -0.8637 -0.6183
 2104SOL     OW18784   4.981   0.168   3.800  0.0567 -0.3670 -0.0154
 2104SOL    HW118785   5.023   0.088   3.756  1.7062  0.2978  0.3109
 2104SOL    HW218786   4.926   0.218   3.733  0.0625 -1.0658 -0.5483
 2105SOL     OW18787   7.595   5.796   0.152 -0.3148  0.2664 -0.2178
 2105SOL    HW118788   7.543   5.825   0.233 -0.1470  1.1075 -0.4050
 2105SOL    HW218789   7.601   5.697   0.150  1.4585  0.2906  1.9301
 2106SOL     OW18790   2.769   5.768   0.802  0.0281 -0.1884  0.4186
 2106SOL    HW118791   2.677   5.733   0.815  0.3570 -0.7900  1.2297
 2106SOL    HW218792   2.766   5.867   0.789 -0.7793 -0.2963 -0.2578
 2107SOL     OW18793   0.592   3.966   5.355 -0.1853 -0.6931  0.4028
 2107SOL    HW118794   0.530   3.887   5.349 -1.0268 -0.1557  1.8640
 2107SOL    HW218795   0.538   4.050   5.357  0.6329 -0.1770  0.8550
 2108SOL     OW18796   2.038   6.702   1.886  0.1677 -0.0936  0.6323
 2108SOL    HW118797   2.034   6.618   1.833 -0.0026 -0.0283  0.5448
 2108SOL    HW218798   2.024   6.681   1.983 -0.2237 -0.1195  0.5692
 2109SOL     OW18799   6.982   4.708   7.115 -0.2764 -0.4423  0.2626
 2109SOL    HW118800   6.973   4.644   7.038  1.8488 -1.7264  1.0275
 2109SOL    HW218801   6.894   4.752   7.132 -1.5219 -2.3338 -1.0275
 2110SOL     OW18802   8.707   7.851   5.966  0.4663 -0.2510  0.6371
 2110SOL    HW118803   8.784   7.891   5.917  0.0176  3.1102  2.6016
 2110SOL    HW218804   8.741   7.797   6.043  0.9312 -0.9955 -0.0781
 2111SOL     OW18805   4.257   3.011   3.678 -0.2975 -0.6256 -0.2988
 2111SOL    HW118806   4.302   3.017   3.589  0.8243 -0.4588  0.2692
 2111SOL    HW218807   4.222   2.918   3.691 -0.6242 -0.6036 -0.9825
 2112SOL     OW18808   4.676   7.686   7.475  0.4705 -0.1640  0.5633
 2112SOL    HW118809   4.717   7.618   7.415 -0.8904 -0.9735  0.5267
 2112SOL    HW218810   4.607   7.738   7.424 -1.0247 -1.1635  1.5040
 2113SOL     OW18811   0.331   6.202   1.886 -0.2378 -0.1402  0.0512
 2113SOL    HW118812   0.375   6.115   1.908 -0.5880 -0.3104  0.0758
 2113SOL    HW218813   0.344   6.266   1.962 -0.0809 -0.2072  0.0813
 2114SOL     OW18814   0.130   5.185   2.928  0.0685  0.0423  0.2606
 2114SOL    HW118815   0.214   5.150   2.968  0.0850  0.8713  0.9622
 2114SOL    HW218816   0.119   5.149   2.835  1.2850  0.0771  0.1019
 2115SOL     OW18817   6.141   6.270   5.796  0.2991 -0.1092  0.5460
 2115SOL    HW118818   6.221   6.240   5.849  1.4676  0.0747 -1.0927
 2115SOL    HW218819   6.131   6.369   5.804  1.1307  0.0571 -0.4769
 2116SOL     OW18820   0.395   7.954   7.307  0.5563 -0.6337  0.1956
 2116SOL    HW118821   0.377   7.921   7.400  1.0390 -1.4779 -0.0030
 2116SOL    HW218822   0.460   7.892   7.262  0.1072 -0.3939 -0.7948
 2117SOL     OW18823   2.872   0.264   0.386  0.5949 -0.4599 -0.1079
 2117SOL    HW118824   2.789   0.214   0.412  1.5586 -1.2731  1.5115
 2117SOL    HW218825   2.884   0.259   0.287 -0.2968 -1.9132 -0.1695
 2118SOL     OW18826   7.792   1.113   7.802 -0.4568 -0.7040 -0.0473
 2118SOL    HW118827   7.731   1.109   7.881 -1.3683  3.1693 -0.4737
 2118SOL    HW218828   7.748   1.165   7.728  3.0786  1.6481 -0.5918
 2119SOL     OW18829   5.441   7.647   5.354  0.9984  0.7182 -0.2647
 2119SOL    HW118830   5.536   7.672   5.371  1.0140  0.1510  0.4806
 2119SOL    HW218831   5.382   7.691   5.422  0.9619 -0.7262  0.6598
 2120SOL     OW18832   0.865   5.310   1.657  0.1910  0.1801  0.6496
 2120SOL    HW118833   0.849   5.370   1.578 -0.9699  0.8357  1.3764
 2120SOL    HW218834   0.852   5.215   1.629  0.0396  0.3890 -0.0137
 2121SOL     OW18835   4.215   1.581   2.170  0.3265  0.5084 -0.1840
 2121SOL    HW118836   4.201   1.669   2.215  2.3250 -0.0190  1.5569
 2121SOL    HW218837   4.150   1.514   2.205  1.8364  0.1118  1.9872
 2122SOL     OW18838   1.902   4.931   6.537 -0.0933  0.0208 -0.0230
 2122SOL    HW118839   1.851   4.865   6.591 -0.5816 -0.3088 -0.8841
 2122SOL    HW218840   1.989   4.890   6.508 -0.4166 -0.2682 -0.5956
 2123SOL     OW18841   5.097   6.600   5.489 -0.4422  0.5041  0.6350
 2123SOL    HW118842   5.043   6.529   5.443  0.5465  0.6632 -0.7940
 2123SOL    HW218843   5.103   6.579   5.587 -2.4059  0.0639  0.6833
 2124SOL     OW18844   3.970   3.775   6.943 -0.2611 -0.3173  0.2883
 2124SOL    HW118845   3.884   3.822   6.965 -0.9119 -2.2436  1.9960
 2124SOL    HW218846   3.951   3.697   6.884  0.3136 -0.7579  0.6834
 2125SOL     OW18847   3.456   7.282   8.371  0.2397  0.6670 -0.1100
 2125SOL    HW118848   3.491   7.320   8.457 -1.4406  0.1611  0.8161
 2125SOL    HW218849   3.493   7.190   8.358  1.2096  1.0849 -0.4048
 2126SOL     OW18850   2.529   2.895   7.983 -0.6653 -0.1049  0.6546
 2126SOL    HW118851   2.513   2.797   7.969  0.4667 -0.4339  1.5938
 2126SOL    HW218852   2.476   2.925   8.062 -0.3189 -0.1604  0.9090
 2127SOL     OW18853   0.995   6.524   4.867 -0.1677  0.3848  0.3249
 2127SOL    HW118854   1.016   6.431   4.896  0.0828  0.2913 -0.1454
 2127SOL    HW218855   0.911   6.555   4.910  0.3629  0.3596  1.3920
 2128SOL     OW18856   6.658   1.604   2.149  0.0752 -0.3927  0.6564
 2128SOL    HW118857   6.611   1.635   2.066  1.0262 -0.9453 -0.1031
 2128SOL    HW218858   6.591   1.568   2.214 -0.6918  0.1503  0.1741
 2129SOL     OW18859   7.393   4.388   2.088 -0.5876  0.0638 -0.3679
 2129SOL    HW118860   7.326   4.337   2.142  0.7913  0.0427  1.3542
 2129SOL    HW218861   7.437   4.457   2.145  0.9805 -0.0113 -1.4319
 2130SOL     OW18862   2.816   5.594   7.800  0.4795 -0.3755 -0.2354
 2130SOL    HW118863   2.895   5.654   7.817  1.6330 -1.0020 -3.1205
 2130SOL    HW218864   2.739   5.649   7.769  0.0177  0.1365  1.7484
 2131SOL     OW18865   5.703   6.155   2.423 -0.3717 -0.2561 -0.6100
 2131SOL    HW118866   5.689   6.059   2.447 -1.2561  0.4115  1.6579
 2131SOL    HW218867   5.618   6.195   2.391 -0.5939  0.3708  0.7127
 2132SOL     OW18868   2.943   2.382   7.696  0.1986  0.0114 -0.7663
 2132SOL    HW118869   3.033   2.339   7.692 -0.5834 -1.7118 -0.1076
 2132SOL    HW218870   2.873   2.313   7.715 -1.0250  1.6470  0.8719
 2133SOL     OW18871   5.197   3.907   1.402  0.0840  0.0134  0.2283
 2133SOL    HW118872   5.281   3.868   1.443  0.9021 -0.9524 -2.2701
 2133SOL    HW218873   5.220   3.991   1.353 -0.1367 -0.9858 -1.6213
 2134SOL     OW18874   5.434   5.743   6.173 -0.2131 -0.0926  0.2526
 2134SOL    HW118875   5.346   5.733   6.220 -1.2092 -0.2778 -1.6205
 2134SOL    HW218876   5.442   5.673   6.101  0.9718  0.6484 -0.3547
 2135SOL     OW18877   8.325   2.825   0.786  0.3397 -0.3906 -0.2076
 2135SOL    HW118878   8.418   2.789   0.783  0.7200  0.6695 -1.0904
 2135SOL    HW218879   8.273   2.788   0.709  0.2149 -0.4557 -0.0922
 2136SOL     OW18880   4.309   6.668   6.391 -1.0766  0.3507  0.1318
 2136SOL    HW118881   4.250   6.707   6.320  0.7446 -0.5128 -1.9234
 2136SOL    HW218882   4.351   6.742   6.443 -1.7867  1.0173 -0.2316
 2137SOL     OW18883   2.229   5.146   3.341  0.0772  0.2118 -0.4298
 2137SOL    HW118884   2.322   5.110   3.346  0.4773  1.2764 -0.0855
 2137SOL    HW218885   2.233   5.245   3.323 -0.9654  0.3822  0.2593
 2138SOL     OW18886   4.628   0.769   1.107  0.5310  0.2078  0.2831
 2138SOL    HW118887   4.698   0.748   1.175  0.5965 -0.4640  0.0144
 2138SOL    HW218888   4.563   0.692   1.102  0.7677  0.0726 -0.7105
 2139SOL     OW18889   1.558   7.540   8.086  0.3709 -0.7181  0.4127
 2139SOL    HW118890   1.651   7.577   8.094  0.7633 -1.6188  0.1123
 2139SOL    HW218891   1.495   7.614   8.061  1.0105 -0.1107  0.5589
 2140SOL     OW18892   2.146   8.085   7.592 -0.0046 -0.1223 -0.2868
 2140SOL    HW118893   2.080   8.087   7.517 -0.1426  0.5814 -0.1443
 2140SOL    HW218894   2.113   8.022   7.663 -0.2760 -0.1559 -0.4415
 2141SOL     OW18895   0.037   4.980   3.124 -0.3301  0.2222 -0.6956
 2141SOL    HW118896  -0.031   4.993   3.196 -1.8311 -0.0338 -2.0395
 2141SOL    HW218897   0.110   5.049   3.134 -0.9775  0.7373  0.5341
 2142SOL     OW18898   2.517   2.154   3.615 -0.2277 -0.1082 -0.1298
 2142SOL    HW118899   2.505   2.252   3.630 -1.7742 -0.4843  1.2367
 2142SOL    HW218900   2.443   2.104   3.661  1.8239 -2.0504  1.1383
 2143SOL     OW18901   2.326   5.565   3.254 -0.5561 -0.0017 -0.0723
 2143SOL    HW118902   2.406   5.548   3.313  1.3450  1.8948 -2.0027
 2143SOL    HW218903   2.256   5.612   3.307  1.4102  2.3297  0.5862
 2144SOL     OW18904   5.459   0.912   7.543 -0.0811  0.4243 -0.2318
 2144SOL    HW118905   5.448   0.981   7.615  0.9484  1.1248 -0.7253
 2144SOL    HW218906   5.542   0.932   7.491 -0.2946 -0.6455 -0.9938
 2145SOL     OW18907   4.663   6.324   0.954 -0.1574 -0.0145 -0.2509
 2145SOL    HW118908   4.564   6.337   0.951 -0.3980 -1.9700 -1.8080
 2145SOL    HW218909   4.698   6.351   1.044 -1.8090  2.4321 -0.2945
 2146SOL     OW18910   5.527   5.751   1.746  0.4000 -0.2238 -0.5225
 2146SOL    HW118911   5.614   5.741   1.794  0.3206  2.2583  0.1634
 2146SOL    HW218912   5.460   5.687   1.784  1.2231 -0.4335  0.5942
 2147SOL     OW18913   0.427   2.197   7.297  0.6178 -0.3541  0.2035
 2147SOL    HW118914   0.369   2.279   7.295 -2.2574 -2.2768  1.3079
 2147SOL    HW218915   0.482   2.198   7.381 -0.3137 -0.1432  0.8214
 2148SOL     OW18916   2.368   5.338   0.553 -0.3590 -0.2171  0.0771
 2148SOL    HW118917   2.285   5.382   0.587 -0.9594 -2.1024  1.1015
 2148SOL    HW218918   2.418   5.297   0.630  1.4357  0.7162 -0.5482
 2149SOL     OW18919   3.093   2.578   2.076  0.3171  0.7154 -0.1896
 2149SOL    HW118920   3.103   2.536   1.986  0.3779  1.9119 -0.7561
 2149SOL    HW218921   3.182   2.582   2.121  1.0322  3.7217 -1.7431
 2150SOL     OW18922   8.102   2.896   7.088  0.5593 -0.2764  0.5672
 2150SOL    HW118923   8.200   2.894   7.072  0.5119  0.9636  0.0604
 2150SOL    HW218924   8.054   2.880   7.002  0.3220  2.9791  0.0330
 2151SOL     OW18925   0.189   3.473   1.928  0.7282 -0.4290  0.3983
 2151SOL    HW118926   0.201   3.375   1.946  0.3651 -0.7015 -0.7799
 2151SOL    HW218927   0.130   3.513   1.999  0.0860 -1.2751  0.3466
 2152SOL     OW18928   2.018   6.944   2.482  0.4652  0.1557  0.4923
 2152SOL    HW118929   1.973   6.927   2.395  1.3706  1.6411 -0.2812
 2152SOL    HW218930   2.012   7.041   2.505  2.3008  0.1859  0.9046
 2153SOL     OW18931   8.242   6.193   8.811  0.3618 -0.0820 -0.4799
 2153SOL    HW118932   8.293   6.244   8.742  0.6012  0.3790  0.0284
 2153SOL    HW218933   8.268   6.097   8.807  1.5130  0.1945 -0.0280
 2154SOL     OW18934   6.581   5.308   6.946 -0.3042  0.1669  0.5561
 2154SOL    HW118935   6.632   5.274   6.866 -2.5718 -2.4929  0.1419
 2154SOL    HW218936   6.640   5.304   7.027 -0.0705 -3.8933  0.3121
 2155SOL     OW18937   0.520   6.192   8.073  0.1898  0.1132  0.4906
 2155SOL    HW118938   0.452   6.119   8.080 -0.2016 -0.0966 -3.9341
 2155SOL    HW218939   0.484   6.275   8.116 -1.3999 -0.9551  1.2704
 2156SOL     OW18940   5.922   4.818   5.510 -0.0851 -0.6001 -0.0502
 2156SOL    HW118941   5.890   4.770   5.592 -0.9070 -1.6998 -1.0025
 2156SOL    HW218942   5.862   4.897   5.493  0.7370  0.2801  1.0060
 2157SOL     OW18943   5.072   5.762   4.894  0.1388 -0.4890 -0.1101
 2157SOL    HW118944   5.124   5.782   4.978  1.9590  0.3418 -1.3881
 2157SOL    HW218945   5.045   5.666   4.894  1.2352 -0.8152  0.8547
 2158SOL     OW18946   8.390   6.718   7.996 -0.8609  0.1617  0.1575
 2158SOL    HW118947   8.480   6.724   8.039 -1.0045 -0.2113  0.5138
 2158SOL    HW218948   8.399   6.678   7.905 -0.5445  1.0324 -0.1955
 2159SOL     OW18949   8.364   2.705   1.022  0.1818  0.0878 -0.5069
 2159SOL    HW118950   8.430   2.644   0.977 -0.5302  0.2900 -1.8299
 2159SOL    HW218951   8.342   2.781   0.962  1.5280  2.0223  1.3837
 2160SOL     OW18952   4.872   2.258   3.271  0.0729  0.2430 -0.8803
 2160SOL    HW118953   4.902   2.349   3.240 -1.1096  0.1417 -2.3726
 2160SOL    HW218954   4.922   2.188   3.221 -1.9359  0.0782 -2.7243
 2161SOL     OW18955   0.081   5.505   1.640  0.3448  0.1610 -0.4249
 2161SOL    HW118956   0.134   5.579   1.681  1.4472  0.0258 -1.5738
 2161SOL    HW218957   0.136   5.422   1.637 -0.8392 -0.6935  0.7301
 2162SOL     OW18958   1.285   0.462   7.227 -0.2047  0.4884  0.1366
 2162SOL    HW118959   1.235   0.376   7.230  0.5541  0.0705  2.0562
 2162SOL    HW218960   1.383   0.444   7.234 -0.0325  1.4852  0.4175
 2163SOL     OW18961   1.621   6.675   1.759  0.1290 -0.0534  0.3169
 2163SOL    HW118962   1.709   6.721   1.759 -0.4240  1.0304  2.5834
 2163SOL    HW218963   1.598   6.645   1.851 -2.0644  0.0219 -0.1795
 2164SOL     OW18964   3.034   2.316   3.945  0.3101 -0.2794 -0.1508
 2164SOL    HW118965   3.039   2.339   3.848 -2.5041 -1.1946 -0.5666
 2164SOL    HW218966   2.979   2.384   3.993 -0.4400 -1.2079  0.3167
 2165SOL     OW18967   6.258   6.361   5.329 -0.2720  0.1954  0.0294
 2165SOL    HW118968   6.299   6.273   5.353  0.9053  0.5472 -0.6166
 2165SOL    HW218969   6.213   6.354   5.240 -0.9258  0.0276  0.3675
 2166SOL     OW18970   3.482   1.763   8.906 -0.1169  0.3536 -0.2713
 2166SOL    HW118971   3.488   1.696   8.832 -3.4450  0.3179 -0.6075
 2166SOL    HW218972   3.446   1.719   8.988  1.9658  0.7688  0.9062
 2167SOL     OW18973   7.920   2.968   1.069 -0.3807  0.5896  0.5217
 2167SOL    HW118974   8.002   3.013   1.034 -0.7084 -0.4380 -1.5936
 2167SOL    HW218975   7.930   2.954   1.168  1.6297  1.2147  0.4281
 2168SOL     OW18976   2.386   8.699   7.501  0.5677  0.1031 -1.0188
 2168SOL    HW118977   2.434   8.624   7.545 -0.0078  2.1206  3.3592
 2168SOL    HW218978   2.294   8.670   7.475  0.3691 -0.7710  0.6050
 2169SOL     OW18979   7.658   5.723   0.609  0.1616  0.1168 -0.3041
 2169SOL    HW118980   7.634   5.659   0.536  0.9378 -1.0418  0.4259
 2169SOL    HW218981   7.709   5.800   0.571 -0.3218  0.0315 -1.1264
 2170SOL     OW18982   3.849   6.789   6.096  0.4680  0.2727 -0.1421
 2170SOL    HW118983   3.786   6.754   6.165  1.1252 -0.5382  0.0626
 2170SOL    HW218984   3.820   6.880   6.067 -1.0452 -0.2777 -0.3884
 2171SOL     OW18985   3.503   2.449   5.288  0.0961  0.5805 -0.6844
 2171SOL    HW118986   3.443   2.381   5.246  1.0981 -1.6372  1.3606
 2171SOL    HW218987   3.593   2.409   5.301  0.9520  2.6312 -0.2436
 2172SOL     OW18988   0.724   6.582   1.430  0.4340  0.0733  0.2144
 2172SOL    HW118989   0.725   6.483   1.439 -1.6251  0.0054 -0.0575
 2172SOL    HW218990   0.817   6.618   1.442  0.9234 -1.7143  2.0560
 2173SOL     OW18991   1.800   2.931   0.909 -0.3885  0.4852  0.3096
 2173SOL    HW118992   1.837   3.022   0.887 -0.2484  1.1756  3.1700
 2173SOL    HW218993   1.748   2.936   0.994 -0.7330 -2.0526  0.2872
 2174SOL     OW18994   3.133   4.769   1.931  0.2204  0.3360 -0.0145
 2174SOL    HW118995   3.163   4.696   1.992  0.7303  1.6392  1.3318
 2174SOL    HW218996   3.056   4.818   1.973 -0.2869  0.4067 -1.0252
 2175SOL     OW18997   0.666   4.134   2.980  0.2133  0.3611 -0.2280
 2175SOL    HW118998   0.715   4.050   2.957 -0.3325  0.1181 -0.4805
 2175SOL    HW218999   0.582   4.112   3.029 -0.5528  0.7028 -1.3836
 2176SOL     OW19000   5.478   6.693   6.183 -0.0199  0.0911 -0.6297
 2176SOL    HW119001   5.393   6.736   6.151  0.9436  2.2820 -0.3819
 2176SOL    HW219002   5.456   6.615   6.241 -1.9278  1.7452  0.9549
 2177SOL     OW19003   7.361   8.457   3.861  0.0213 -0.1910 -0.0041
 2177SOL    HW119004   7.276   8.413   3.835  0.2105 -0.4695 -0.1588
 2177SOL    HW219005   7.430   8.386   3.880  1.0253  0.0748 -2.5669
 2178SOL     OW19006   3.676   6.356   6.123 -0.3136 -0.0917  0.2401
 2178SOL    HW119007   3.742   6.285   6.101 -0.0144  0.3806 -0.4006
 2178SOL    HW219008   3.691   6.388   6.217  0.5493  0.2219 -0.0053
 2179SOL     OW19009   7.265   3.570   4.525  0.3380 -0.0864 -0.3157
 2179SOL    HW119010   7.309   3.635   4.587 -0.8200  0.8546 -0.4579
 2179SOL    HW219011   7.182   3.535   4.569 -1.9012  2.5107 -2.2760
 2180SOL     OW19012   1.194   6.897   4.118 -0.2468 -0.2105 -0.2454
 2180SOL    HW119013   1.175   6.875   4.023 -1.1950 -1.5267  0.2258
 2180SOL    HW219014   1.187   6.996   4.132  1.1333  0.1170 -1.7902
 2181SOL     OW19015   4.686   4.547   4.853 -0.1260  0.6469 -0.8522
 2181SOL    HW119016   4.664   4.620   4.788  1.1587 -0.5892 -2.7546
 2181SOL    HW219017   4.618   4.475   4.847 -0.2842  0.7605 -0.4477
 2182SOL     OW19018   6.220   4.388   8.177  0.1700  0.3057  0.5879
 2182SOL    HW119019   6.165   4.470   8.197  0.8522  1.7511 -3.0848
 2182SOL    HW219020   6.253   4.392   8.083 -1.4331 -5.2081 -0.3741
 2183SOL     OW19021   7.486   8.283   2.350  0.4573 -0.1537 -0.3695
 2183SOL    HW119022   7.471   8.323   2.441  1.7398 -1.7511  0.5829
 2183SOL    HW219023   7.571   8.231   2.351 -0.0497 -1.0509 -2.2118
 2184SOL     OW19024   0.376   2.203   4.718  0.5176 -0.1928 -0.2232
 2184SOL    HW119025   0.307   2.255   4.770 -0.8203 -0.3789 -1.7801
 2184SOL    HW219026   0.467   2.231   4.748 -0.1637  2.7625 -0.6942
 2185SOL     OW19027   8.418   7.948   4.293  0.1062  0.2165 -0.2547
 2185SOL    HW119028   8.324   7.924   4.316  0.2886 -0.2718 -0.0101
 2185SOL    HW219029   8.431   8.046   4.305  0.1261  0.0218  1.5038
 2186SOL     OW19030   8.013   8.660   0.635 -0.4260  0.2453 -0.4473
 2186SOL    HW119031   8.102   8.671   0.678 -1.1623 -0.3328  1.3091
 2186SOL    HW219032   7.951   8.732   0.667 -0.4225  0.9989 -2.1187
 2187SOL     OW19033   1.353   8.139   6.138 -0.1220 -0.1632 -0.6934
 2187SOL    HW119034   1.270   8.185   6.170  1.0253  0.4364  1.5401
 2187SOL    HW219035   1.346   8.122   6.039 -1.9157  1.9711 -0.9821
 2188SOL     OW19036   8.673   3.354   1.898  0.1414  0.5089  0.1315
 2188SOL    HW119037   8.746   3.299   1.856 -1.7082 -0.5981 -1.6930
 2188SOL    HW219038   8.656   3.434   1.841 -2.6084 -1.1687 -1.4868
 2189SOL     OW19039   1.597   3.438   3.921 -0.3693 -0.1239 -0.3567
 2189SOL    HW119040   1.673   3.447   3.985  0.7074  0.5392 -1.7125
 2189SOL    HW219041   1.578   3.341   3.905  0.9462 -0.3095 -0.8666
 2190SOL     OW19042   4.346   6.867   1.850  0.7174  0.3150  0.1213
 2190SOL    HW119043   4.349   6.776   1.808  2.1599 -0.1780  1.2709
 2190SOL    HW219044   4.370   6.935   1.781  1.4207 -0.3424 -0.2975
 2191SOL     OW19045   5.558   1.056   7.203 -0.4104 -0.3958 -0.3601
 2191SOL    HW119046   5.631   0.991   7.183 -2.1041 -2.1321 -1.1654
 2191SOL    HW219047   5.524   1.095   7.117 -0.2744  0.5549  0.0204
 2192SOL     OW19048   2.411   7.468   7.634 -0.4349 -0.0708 -0.0461
 2192SOL    HW119049   2.367   7.428   7.554  0.0739 -0.3300 -0.1973
 2192SOL    HW219050   2.451   7.396   7.690 -0.2448  0.1569  0.1162
 2193SOL     OW19051   7.634   3.950   5.256  0.5301 -0.2304 -0.2731
 2193SOL    HW119052   7.547   3.966   5.301  0.6313  1.8141 -0.7228
 2193SOL    HW219053   7.618   3.924   5.161  0.3667 -2.4035  0.3351
 2194SOL     OW19054   6.547   3.892   2.742  0.2502  0.5105  0.1152
 2194SOL    HW119055   6.590   3.802   2.733  0.7548  0.7579  0.0288
 2194SOL    HW219056   6.557   3.924   2.836  2.7624  1.8095 -0.5453
 2195SOL     OW19057   8.014   6.777   0.819  0.7379  0.0093 -0.1899
 2195SOL    HW119058   7.941   6.780   0.750  0.0058 -0.0890  0.5682
 2195SOL    HW219059   8.086   6.715   0.789 -0.9073 -2.2488  0.4018
 2196SOL     OW19060   3.320   1.984   8.920 -0.6451  0.0278  0.4794
 2196SOL    HW119061   3.372   1.902   8.895 -1.9280 -0.5436 -0.3999
 2196SOL    HW219062   3.358   2.063   8.873  1.1635  0.1154  2.0260
 2197SOL     OW19063   1.287   4.512   8.883  0.0229 -0.2030 -0.0439
 2197SOL    HW119064   1.319   4.451   8.811 -2.0077 -1.8459  0.4090
 2197SOL    HW219065   1.263   4.601   8.843  1.4770 -0.1806 -0.9338
 2198SOL     OW19066   5.447   6.778   5.463 -0.2527  0.2321 -0.7298
 2198SOL    HW119067   5.454   6.766   5.562  1.2195 -1.7959 -1.0571
 2198SOL    HW219068   5.351   6.796   5.439 -0.8512 -0.5963  0.9218
 2199SOL     OW19069   4.727   5.955   8.827 -0.4221  0.3322 -0.1528
 2199SOL    HW119070   4.740   6.054   8.839  1.4844  0.1076 -0.1930
 2199SOL    HW219071   4.677   5.938   8.743 -2.2715  1.3313  0.7107
 2200SOL     OW19072   7.099   1.253   3.000  0.4385  0.1453  0.4400
 2200SOL    HW119073   7.199   1.249   3.000  0.5673  2.3292  1.3732
 2200SOL    HW219074   7.067   1.289   2.912  0.5595  0.7056  0.6209
 2201SOL     OW19075   3.539   6.124   7.536 -0.7339  0.3050 -0.0969
 2201SOL    HW119076   3.512   6.028   7.530 -0.7257  0.3194 -0.3417
 2201SOL    HW219077   3.581   6.141   7.626 -0.7075  0.0737 -0.0659
 2202SOL     OW19078   4.190   0.620   6.235 -0.1676 -0.1807  0.0766
 2202SOL    HW119079   4.162   0.528   6.210  0.1253 -0.1359 -0.4405
 2202SOL    HW219080   4.120   0.685   6.207 -0.6071 -0.2933  0.9057
 2203SOL     OW19081   0.080   4.405   0.297  0.1660 -0.5116 -0.4445
 2203SOL    HW119082   0.072   4.404   0.197 -1.0757  0.4833 -0.3771
 2203SOL    HW219083   0.084   4.311   0.331  2.0998 -0.8321 -1.5263
 2204SOL     OW19084   2.907   6.529   2.782 -0.1321  0.0745 -0.2817
 2204SOL    HW119085   2.911   6.460   2.855 -0.1826  0.4679  0.0971
 2204SOL    HW219086   2.999   6.565   2.766 -0.0619 -0.2810 -0.6731
 2205SOL     OW19087   6.001   1.804   1.541  0.0064  0.1782 -0.0704
 2205SOL    HW119088   5.942   1.859   1.481  0.0801  1.1345  0.7152
 2205SOL    HW219089   6.082   1.775   1.490 -0.0573  0.7574 -0.5153
 2206SOL     OW19090   8.068   5.059   6.668  0.5618 -0.2301  0.0273
 2206SOL    HW119091   8.129   4.980   6.668 -1.0310 -1.5004 -0.3277
 2206SOL    HW219092   8.088   5.117   6.747  1.0765 -1.5326  0.8610
 2207SOL     OW19093   6.978   6.602   3.363  0.2810  0.4260  0.0810
 2207SOL    HW119094   6.978   6.549   3.277 -1.0847  1.6153 -0.6594
 2207SOL    HW219095   6.969   6.539   3.440  2.2222 -0.7301 -0.5764
 2208SOL     OW19096   5.067   6.961   5.890  0.4343 -0.2952  0.2358
 2208SOL    HW119097   5.005   7.039   5.896  1.7635  0.7715  0.4355
 2208SOL    HW219098   5.056   6.916   5.801 -0.3827  0.0728  0.1477
 2209SOL     OW19099   3.556   5.645   6.480  0.1672 -0.1701  0.3469
 2209SOL    HW119100   3.556   5.614   6.575  0.5585 -1.5024 -0.0820
 2209SOL    HW219101   3.649   5.666   6.452  0.1454 -0.4804  0.0376
 2210SOL     OW19102   4.999   1.112   3.211  0.0297  0.5648 -0.6497
 2210SOL    HW119103   4.952   1.199   3.195  1.5097  1.4444 -0.3486
 2210SOL    HW219104   5.080   1.107   3.153  0.9718  0.2197  0.6709
 2211SOL     OW19105   0.638   5.561   1.929 -0.7028  0.6315 -0.1698
 2211SOL    HW119106   0.732   5.594   1.933 -0.3617  0.0376 -2.3798
 2211SOL    HW219107   0.636   5.462   1.929 -1.2955  0.6362 -0.3354
 2212SOL     OW19108   3.813   8.698   2.278  0.4767 -0.3651  0.2185
 2212SOL    HW119109   3.760   8.695   2.363 -1.4124 -3.6340 -0.9692
 2212SOL    HW219110   3.862   8.611   2.266  0.2466 -0.1900 -2.2775
 2213SOL     OW19111   6.945   2.741   1.699 -0.4604 -0.3192 -0.4754
 2213SOL    HW119112   6.927   2.710   1.792  1.3221 -2.9249 -0.9626
 2213SOL    HW219113   6.869   2.717   1.640 -1.5973  1.3412  0.2706
 2214SOL     OW19114   2.223   3.602   6.268  0.4249  0.0601  0.3536
 2214SOL    HW119115   2.272   3.522   6.306  2.0889  1.4848  1.2846
 2214SOL    HW219116   2.207   3.668   6.341  1.4115  1.7373 -0.9203
 2215SOL     OW19117   0.781   8.226   6.876  0.7952  0.3429 -0.5526
 2215SOL    HW119118   0.744   8.164   6.945 -0.7303  0.9118 -0.8512
 2215SOL    HW219119   0.860   8.183   6.831 -0.7920 -1.7587 -1.3990
 2216SOL     OW19120   3.503   7.959   0.864  0.2823  0.2400 -0.8702
 2216SOL    HW119121   3.571   7.889   0.843  1.8099  1.2560  0.5950
 2216SOL    HW219122   3.420   7.942   0.811  1.2668 -1.6621 -1.8320
 2217SOL     OW19123   6.184   0.186   7.909  0.2213 -0.1099 -0.9011
 2217SOL    HW119124   6.159   0.209   7.814  0.9464  0.3379 -0.9858
 2217SOL    HW219125   6.254   0.250   7.941 -1.0941  0.6728  0.4481
 2218SOL     OW19126   3.937   4.390   6.545 -0.3871  0.3497 -0.6215
 2218SOL    HW119127   3.864   4.423   6.606 -0.9520  0.9726 -1.6244
 2218SOL    HW219128   3.930   4.291   6.537  0.4714  0.1135  1.3236
 2219SOL     OW19129   0.917   4.009   3.552  0.9457 -0.0939  0.0477
 2219SOL    HW119130   0.860   4.004   3.469  0.1769  1.3661  0.4660
 2219SOL    HW219131   0.861   4.042   3.628  2.1490  0.4783  0.6891
 2220SOL     OW19132   3.868   0.782   7.961 -0.6712  0.1780 -0.3173
 2220SOL    HW119133   3.864   0.728   7.877  1.3515 -0.6850  0.1056
 2220SOL    HW219134   3.826   0.731   8.036  0.5280 -0.5303 -0.0952
 2221SOL     OW19135   4.484   1.939   3.668  0.4248  0.3818  0.0532
 2221SOL    HW119136   4.501   2.034   3.697 -1.1383  0.0399  2.2356
 2221SOL    HW219137   4.450   1.886   3.746 -2.8704 -0.8950 -2.1061
 2222SOL     OW19138   7.206   1.998   7.770  0.2901  0.0934  0.1795
 2222SOL    HW119139   7.128   2.045   7.730  0.0746 -0.3231  0.1069
 2222SOL    HW219140   7.174   1.922   7.828  0.6279  0.0918  0.3679
 2223SOL     OW19141   4.028   3.985   7.960  0.4716  0.5329 -0.3142
 2223SOL    HW119142   4.077   4.065   7.996  0.3724  0.4883 -0.0800
 2223SOL    HW219143   4.078   3.948   7.882  1.5702 -0.3645  0.7911
 2224SOL     OW19144   0.761   5.711   1.084  0.0524 -0.1888 -0.7369
 2224SOL    HW119145   0.816   5.742   1.161  0.3582 -0.3910 -0.8744
 2224SOL    HW219146   0.693   5.645   1.116  1.6800 -2.0508 -0.9909
 2225SOL     OW19147   7.408   2.540   3.359  0.1047  0.4296  0.3950
 2225SOL    HW119148   7.317   2.518   3.326  0.4990 -2.4171  1.0460
 2225SOL    HW219149   7.402   2.614   3.426 -1.7185  0.2626  0.4424
 2226SOL     OW19150   0.912   7.434   2.924  0.2476  0.3991  0.4628
 2226SOL    HW119151   0.865   7.358   2.969  1.1290 -0.0786  0.5797
 2226SOL    HW219152   0.862   7.519   2.942 -1.6210 -0.3601 -0.9571
 2227SOL     OW19153   2.726   1.564   8.047  0.0614  0.0133 -0.4996
 2227SOL    HW119154   2.722   1.483   8.105  2.4129 -0.3815 -0.8447
 2227SOL    HW219155   2.656   1.557   7.976 -1.3289 -0.5650  0.8903
 2228SOL     OW19156   5.241   5.030   2.584  0.1509 -0.4839 -0.0596
 2228SOL    HW119157   5.263   4.934   2.597 -0.2860 -0.3974  1.4634
 2228SOL    HW219158   5.172   5.040   2.512  1.6540 -1.1317 -1.6172
 2229SOL     OW19159   4.195   2.935   5.281 -0.6655  0.0594  0.4159
 2229SOL    HW119160   4.190   3.007   5.350 -1.4788 -2.3052  2.9275
 2229SOL    HW219161   4.103   2.913   5.248 -0.6114 -1.0316  0.9729
 2230SOL     OW19162   1.441   8.744   7.347  0.2823  0.3581 -0.3372
 2230SOL    HW119163   1.396   8.816   7.294  1.6015  1.5810  0.1803
 2230SOL    HW219164   1.540   8.751   7.336  0.4394 -1.2996 -0.1602
 2231SOL     OW19165   8.933   2.826   3.419 -0.0912  0.3591  0.7626
 2231SOL    HW119166   8.963   2.731   3.424  0.0539  0.1334 -2.7259
 2231SOL    HW219167   9.012   2.885   3.402 -0.2840  1.0235  2.1180
 2232SOL     OW19168   3.987   8.036   0.527  0.4397 -0.4163  0.0791
 2232SOL    HW119169   3.970   8.002   0.619 -0.1171 -0.4529 -0.0319
 2232SOL    HW219170   4.080   8.070   0.520  0.0157  0.9982  1.0969
 2233SOL     OW19171   4.802   4.982   3.739 -0.0365 -0.1395 -0.0699
 2233SOL    HW119172   4.724   5.041   3.758 -0.3504  0.0747 -1.9412
 2233SOL    HW219173   4.869   5.032   3.685  1.3451 -0.3677  1.4006
 2234SOL     OW19174   8.110   0.912   5.548 -0.4216 -0.2415  0.6871
 2234SOL    HW119175   8.192   0.904   5.492 -0.0713 -2.8724  1.5092
 2234SOL    HW219176   8.130   0.967   5.630 -0.1200  1.0257 -0.2186
 2235SOL     OW19177   4.830   6.110   0.835 -0.0319 -0.2791 -0.2729
 2235SOL    HW119178   4.774   6.192   0.851  0.0431 -0.1954 -0.4449
 2235SOL    HW219179   4.785   6.032   0.878 -1.3022 -0.5803 -2.1036
 2236SOL     OW19180   2.450   3.736   1.106 -0.3014  0.5744 -0.1304
 2236SOL    HW119181   2.471   3.641   1.130  0.2189  1.1671  1.8445
 2236SOL    HW219182   2.458   3.748   1.007 -4.9754 -2.5651 -1.0099
 2237SOL     OW19183   1.581   3.313   2.092  0.6392 -0.2886 -0.6948
 2237SOL    HW119184   1.565   3.235   2.153 -1.3179 -0.0351 -0.8506
 2237SOL    HW219185   1.592   3.280   1.998  0.4217 -0.4391 -0.6700
 2238SOL     OW19186   1.947   7.572   7.038 -0.1971  0.1168  0.5956
 2238SOL    HW119187   1.858   7.525   7.041  0.4683 -1.1187  2.0631
 2238SOL    HW219188   1.955   7.631   7.118 -0.0886  0.9667 -0.0449
 2239SOL     OW19189   2.926   1.850   3.061 -1.4390  0.2678  0.5028
 2239SOL    HW119190   2.887   1.780   3.001 -2.7571  1.0688  0.4121
 2239SOL    HW219191   2.866   1.866   3.139 -0.0282 -0.3284  1.7371
 2240SOL     OW19192   1.723   2.979   4.316  0.0133 -0.4418 -1.0724
 2240SOL    HW119193   1.671   2.957   4.233  1.9634 -1.3453 -2.0772
 2240SOL    HW219194   1.764   2.895   4.352  0.9648  0.3094 -0.4074
 2241SOL     OW19195   3.760   7.711   3.427  0.2592 -0.2551 -0.1239
 2241SOL    HW119196   3.778   7.646   3.500  0.9111 -0.0710 -0.1201
 2241SOL    HW219197   3.662   7.712   3.407  0.4211 -2.3308 -1.1585
 2242SOL     OW19198   2.637   4.623   3.151 -0.2345  0.0253 -0.1377
 2242SOL    HW119199   2.586   4.547   3.112 -2.0750  0.9151  0.4859
 2242SOL    HW219200   2.615   4.707   3.102 -0.4266  0.6616  1.0096
 2243SOL     OW19201   2.100   5.641   3.728  0.0936  0.3885  0.1371
 2243SOL    HW119202   2.055   5.593   3.804  0.7173 -0.2788  0.0796
 2243SOL    HW219203   2.132   5.731   3.760 -0.8803  0.6908  0.2951
 2244SOL     OW19204   1.905   2.095   1.410 -0.5172 -0.1569 -0.3391
 2244SOL    HW119205   1.912   2.175   1.351  4.2479 -0.5638 -0.5058
 2244SOL    HW219206   1.875   2.122   1.501  1.1504  1.8811 -0.3595
 2245SOL     OW19207   0.945   6.412   6.921 -0.3919 -0.3483 -0.5911
 2245SOL    HW119208   0.955   6.501   6.967 -0.2572 -0.3873 -0.5442
 2245SOL    HW219209   0.860   6.368   6.951 -0.7976  0.0662 -1.1190
 2246SOL     OW19210   6.899   6.800   1.582 -0.1627  0.1784 -0.1822
 2246SOL    HW119211   6.886   6.733   1.510  2.4332  0.2598 -0.8049
 2246SOL    HW219212   6.870   6.890   1.550  0.9986  0.2149 -1.1470
 2247SOL     OW19213   4.274   5.286   3.212 -0.3871 -0.4717 -0.2440
 2247SOL    HW119214   4.354   5.237   3.176 -0.4618 -0.0188 -1.0412
 2247SOL    HW219215   4.222   5.225   3.271  0.2460 -0.9448 -0.1651
 2248SOL     OW19216   3.549   2.653   7.916 -0.1864  0.3173  0.3638
 2248SOL    HW119217   3.558   2.566   7.965 -0.5952 -0.2261 -0.5283
 2248SOL    HW219218   3.579   2.728   7.976  0.4536 -0.4634  1.0240
 2249SOL     OW19219   6.466   1.081   8.924 -0.4263  0.3280 -0.2534
 2249SOL    HW119220   6.433   1.014   8.991  1.3741 -0.5132 -0.1510
 2249SOL    HW219221   6.392   1.107   8.862 -1.5424 -0.5877  0.6813
 2250SOL     OW19222   3.047   7.850   4.567 -0.3244  0.3577 -0.0789
 2250SOL    HW119223   3.013   7.856   4.661 -0.4405  2.5317 -0.2277
 2250SOL    HW219224   2.973   7.817   4.507 -0.3881 -0.5886  0.5105
 2251SOL     OW19225   0.588   5.440   5.256 -0.0567  0.0197  0.4211
 2251SOL    HW119226   0.655   5.401   5.318  2.3824  0.2601 -1.9824
 2251SOL    HW219227   0.599   5.539   5.252  0.2556 -0.0591 -0.8805
 2252SOL     OW19228   3.479   5.879   7.493  0.0797  0.2647  0.3064
 2252SOL    HW119229   3.561   5.822   7.482 -0.4358 -0.8128  1.9339
 2252SOL    HW219230   3.437   5.894   7.403  0.5053 -1.5163 -0.2151
 2253SOL     OW19231   5.064   2.974   3.271 -0.4932 -0.0207  0.3022
 2253SOL    HW119232   5.102   2.997   3.361 -0.9617 -0.3799  0.5945
 2253SOL    HW219233   5.091   3.044   3.205 -2.1648  1.5750  1.2421
 2254SOL     OW19234   6.379   6.619   4.089  0.5959 -0.8409 -0.1261
 2254SOL    HW119235   6.399   6.672   4.172  0.0069 -1.3202  0.3285
 2254SOL    HW219236   6.315   6.546   4.111 -0.2325 -0.4415 -1.1930
 2255SOL     OW19237   0.093   2.096   5.986 -0.2735  0.4880 -0.6615
 2255SOL    HW119238   0.146   2.076   5.903  0.9661 -2.4980  0.8050
 2255SOL    HW219239   0.155   2.126   6.058 -0.2936 -3.9162  1.3491
 2256SOL     OW19240   3.737   2.410   6.138  0.2685 -0.0817 -0.2705
 2256SOL    HW119241   3.764   2.498   6.179 -0.5645 -0.6297  1.4844
 2256SOL    HW219242   3.661   2.371   6.190  1.6566 -2.6000 -0.0674
 2257SOL     OW19243   6.017   4.484   1.437  0.6709 -0.2503  0.5938
 2257SOL    HW119244   6.070   4.511   1.517  1.8081 -0.5759 -0.0479
 2257SOL    HW219245   6.053   4.529   1.356 -0.7334  0.3983  0.3117
 2258SOL     OW19246   3.794   3.780   1.953  0.5948  0.2292 -0.3511
 2258SOL    HW119247   3.738   3.818   1.879  0.5520  1.8515  0.5051
 2258SOL    HW219248   3.887   3.817   1.946  0.9921 -0.7693 -0.4610
 2259SOL     OW19249   1.349   0.078   6.530 -0.4900  0.6031  0.1101
 2259SOL    HW119250   1.311   0.167   6.504 -0.3716  0.3878 -0.7880
 2259SOL    HW219251   1.421   0.091   6.598 -0.6653  1.1674  0.1917
 2260SOL     OW19252   8.492   0.969   5.428 -0.3527  0.4527  0.0068
 2260SOL    HW119253   8.457   1.059   5.404  1.1387  0.7052 -1.3163
 2260SOL    HW219254   8.424   0.899   5.406 -0.5307  1.0392 -1.3693
 2261SOL     OW19255   2.108   6.248   6.671 -0.0795  0.1996  0.5590
 2261SOL    HW119256   2.098   6.312   6.747 -0.0139  1.4484 -0.4681
 2261SOL    HW219257   2.192   6.268   6.621  1.4665 -2.5525  1.9263
 2262SOL     OW19258   4.060   4.526   8.898 -0.1976 -0.4663 -0.6352
 2262SOL    HW119259   4.077   4.502   8.994 -2.2142  0.7144  0.0426
 2262SOL    HW219260   3.979   4.479   8.865  0.5178 -0.9029 -1.8022
 2263SOL     OW19261   5.537   1.089   6.649  0.0259  0.0748  0.0477
 2263SOL    HW119262   5.623   1.063   6.694  0.4072  1.1533 -0.0560
 2263SOL    HW219263   5.543   1.067   6.552 -0.0942 -0.5280  0.1748
 2264SOL     OW19264   1.369   7.754   0.649 -0.4329 -0.4871 -0.0061
 2264SOL    HW119265   1.402   7.833   0.597 -1.3035  0.3015  0.6055
 2264SOL    HW219266   1.396   7.670   0.603  1.8549  0.1286  0.1286
 2265SOL     OW19267   6.950   0.168   6.600 -0.3783  0.0962 -0.6975
 2265SOL    HW119268   7.031   0.129   6.557 -0.1726 -1.6609  1.2164
 2265SOL    HW219269   6.965   0.177   6.699 -2.9876 -1.5479 -0.1043
 2266SOL     OW19270   6.392   2.214   0.502  0.3941 -0.2686  0.3592
 2266SOL    HW119271   6.376   2.303   0.459  0.2396 -0.1665  0.6244
 2266SOL    HW219272   6.307   2.180   0.543  0.3818 -0.6805 -0.0054
 2267SOL     OW19273   1.780   5.507   3.509  0.3938  0.0083 -0.7853
 2267SOL    HW119274   1.860   5.467   3.465  0.2912 -0.7474 -0.3077
 2267SOL    HW219275   1.797   5.603   3.531  0.8379  0.0911 -1.4885
 2268SOL     OW19276   4.310   1.455   4.813  0.3003  0.4166  0.1505
 2268SOL    HW119277   4.245   1.399   4.865  2.3618 -2.7423 -0.5236
 2268SOL    HW219278   4.259   1.517   4.753 -2.0777 -0.0463  1.6061
 2269SOL     OW19279   8.146   0.006   6.674  0.1009 -0.2659  0.1006
 2269SOL    HW119280   8.231  -0.046   6.682  1.0724  0.9219 -1.9092
 2269SOL    HW219281   8.110  -0.004   6.582  0.0517  2.1600 -0.1899
 2270SOL     OW19282   4.637   2.026   4.564 -0.1716  0.7518 -0.0848
 2270SOL    HW119283   4.644   2.118   4.524  0.9654  0.6986  0.0023
 2270SOL    HW219284   4.656   2.032   4.662  1.1539  0.2279 -0.3034
 2271SOL     OW19285   6.232   1.819   2.512  0.1115 -0.0285  0.7253
 2271SOL    HW119286   6.179   1.866   2.441  0.0764 -1.7237 -0.3888
 2271SOL    HW219287   6.304   1.765   2.469  0.7686 -0.2240  2.0570
 2272SOL     OW19288   6.001   0.180   0.985  0.1314 -0.0956  0.0795
 2272SOL    HW119289   5.920   0.126   0.962  1.7131 -2.6548  0.2604
 2272SOL    HW219290   6.033   0.155   1.076 -0.0399  2.4002  0.8628
 2273SOL     OW19291   4.992   0.981   2.367  0.7656 -0.5379  0.2562
 2273SOL    HW119292   5.069   0.979   2.304  1.1578 -0.7672  0.7443
 2273SOL    HW219293   5.018   0.940   2.454 -0.2305 -1.6555  0.0513
 2274SOL     OW19294   3.290   2.550   3.295 -0.0175 -0.0471 -0.4499
 2274SOL    HW119295   3.286   2.650   3.289  2.7159  0.1376  0.1453
 2274SOL    HW219296   3.355   2.515   3.228  1.2938 -1.1510  1.3403
 2275SOL     OW19297   3.232   5.744   4.285 -0.0198  0.4183 -0.2602
 2275SOL    HW119298   3.258   5.678   4.215 -0.5099 -1.7776  1.5639
 2275SOL    HW219299   3.306   5.754   4.351  0.0922  1.7963 -0.5818
 2276SOL     OW19300   4.247   4.614   4.453 -0.0659 -0.1720  0.2427
 2276SOL    HW119301   4.296   4.540   4.407  0.2102  1.1503 -1.6635
 2276SOL    HW219302   4.150   4.589   4.461 -0.0019 -0.6916 -0.4957
 2277SOL     OW19303   2.179   5.806   0.559 -0.2789  0.6867  0.2381
 2277SOL    HW119304   2.234   5.727   0.587 -1.0065  0.4528  1.0339
 2277SOL    HW219305   2.212   5.840   0.471  0.1277 -0.4240 -0.0490
 2278SOL     OW19306   7.031   8.730   7.632  0.3636  0.1367  0.1346
 2278SOL    HW119307   7.018   8.667   7.709  0.7524 -0.8607 -0.6142
 2278SOL    HW219308   7.030   8.824   7.666  2.1277 -0.3382  1.5859
 2279SOL     OW19309   1.921   5.204   1.630  0.5870 -0.2195 -0.2340
 2279SOL    HW119310   1.944   5.287   1.578  0.3543  0.6065  0.9490
 2279SOL    HW219311   1.822   5.193   1.631  0.5877 -0.1918  0.0928
 2280SOL     OW19312   5.521   4.313   1.204  0.1640 -0.4012 -0.1444
 2280SOL    HW119313   5.480   4.239   1.257 -1.9194  1.0632  0.3534
 2280SOL    HW219314   5.608   4.339   1.246  0.1859 -1.5468  0.5499
 2281SOL     OW19315   1.427   2.392   5.483  0.1868 -0.0160  0.3424
 2281SOL    HW119316   1.381   2.464   5.536  0.9116  1.6045 -1.2021
 2281SOL    HW219317   1.362   2.319   5.463 -1.0413  1.0461  0.3922
 2282SOL     OW19318   1.901   0.608   3.055  0.6325  0.2695  0.5446
 2282SOL    HW119319   1.980   0.657   3.019  0.6617  0.1444  0.4387
 2282SOL    HW219320   1.929   0.516   3.083 -0.4950 -1.8169 -4.5160
 2283SOL     OW19321   0.860   7.033   2.768  0.6844 -0.1184 -0.8126
 2283SOL    HW119322   0.835   7.019   2.672  1.0858  1.3941 -1.1498
 2283SOL    HW219323   0.811   7.112   2.804  2.4074  0.8187 -0.4973
 2284SOL     OW19324   2.524   6.519   7.915  0.2016 -0.0207  0.4241
 2284SOL    HW119325   2.467   6.522   7.997 -1.3752 -0.7456 -0.6095
 2284SOL    HW219326   2.604   6.577   7.927 -0.8970  1.2347  1.8161
 2285SOL     OW19327   5.976   0.590   1.818  0.0849 -0.1815  0.6181
 2285SOL    HW119328   5.881   0.563   1.801  0.2167  0.3000 -0.9936
 2285SOL    HW219329   6.033   0.509   1.826 -0.2080 -0.4586 -0.0214
 2286SOL     OW19330   2.232   1.179   5.929 -0.1791  0.1605  0.2797
 2286SOL    HW119331   2.324   1.140   5.937  0.4550  1.7570  0.8417
 2286SOL    HW219332   2.193   1.193   6.020 -0.7620  0.0504  0.0547
 2287SOL     OW19333   0.209   0.955   0.150  0.0134  0.4494  0.1019
 2287SOL    HW119334   0.114   0.926   0.147 -0.2088  0.9271  2.0061
 2287SOL    HW219335   0.261   0.894   0.209  0.7916  0.4913 -0.5219
 2288SOL     OW19336   0.394   5.224   6.899 -0.0644  0.7926 -0.0843
 2288SOL    HW119337   0.360   5.169   6.976  1.1512  0.9541  0.5747
 2288SOL    HW219338   0.492   5.211   6.889 -0.4189 -0.3223 -2.5232
 2289SOL     OW19339   5.771   0.821   3.712 -0.1345  0.1856 -0.5377
 2289SOL    HW119340   5.834   0.838   3.637  1.2995 -0.6309  0.4588
 2289SOL    HW219341   5.762   0.722   3.727 -0.9513  0.3176 -0.0853
 2290SOL     OW19342   8.371   0.437   5.687  0.3409  0.4262  0.2387
 2290SOL    HW119343   8.443   0.449   5.755  1.1278 -0.5281 -0.4175
 2290SOL    HW219344   8.287   0.483   5.718  0.6385 -0.1677  1.9240
 2291SOL     OW19345   1.422   8.453   4.274 -0.0232 -0.1233 -0.5719
 2291SOL    HW119346   1.474   8.450   4.189 -0.5161  0.4706 -0.8917
 2291SOL    HW219347   1.390   8.361   4.297  0.4413 -0.3494 -0.8136
 2292SOL     OW19348   5.919   0.335   8.967 -0.2091  0.1582  0.0139
 2292SOL    HW119349   5.977   0.254   8.967 -2.1822 -1.2955  1.0986
 2292SOL    HW219350   5.827   0.310   8.934 -0.2678  2.3858 -1.6474
 2293SOL     OW19351   2.522   6.728   7.024  0.0386 -0.4458  0.3569
 2293SOL    HW119352   2.481   6.649   7.069 -3.1422  2.2836  2.5386
 2293SOL    HW219353   2.603   6.757   7.075 -0.0527 -1.0132  0.8256
 2294SOL     OW19354   6.003   5.900   4.039  0.3323  0.5015  0.9555
 2294SOL    HW119355   5.938   5.899   3.963  2.0456  0.7186 -0.5695
 2294SOL    HW219356   6.091   5.935   4.006  1.9484 -2.0966  2.3430
 2295SOL     OW19357   3.420   3.305   2.689  0.2047 -0.0606 -0.2492
 2295SOL    HW119358   3.466   3.233   2.639  0.8046 -1.5616  2.3635
 2295SOL    HW219359   3.487   3.369   2.726 -0.0365 -0.4101  0.8058
 2296SOL     OW19360   2.589   5.585   7.258 -0.2791 -0.1042  0.0478
 2296SOL    HW119361   2.602   5.490   7.288  0.2116  0.3290  1.2224
 2296SOL    HW219362   2.575   5.643   7.337  0.4598  0.9746 -0.6037
 2297SOL     OW19363   0.300   8.189   5.284 -0.0741  0.2048 -0.5308
 2297SOL    HW119364   0.333   8.105   5.241  1.9791  1.2344 -1.0363
 2297SOL    HW219365   0.229   8.167   5.352 -1.9081 -1.6202 -2.9476
 2298SOL     OW19366   5.669   6.103   5.584  0.9742 -0.7443  0.2306
 2298SOL    HW119367   5.738   6.149   5.641  1.2189 -0.9654  0.1086
 2298SOL    HW219368   5.708   6.082   5.495  1.0894 -1.8501  0.5331
 2299SOL     OW19369   5.383   4.089   6.530  0.4974  0.3738  0.3848
 2299SOL    HW119370   5.441   4.103   6.610 -2.5259 -0.1898  2.7385
 2299SOL    HW219371   5.297   4.139   6.542 -1.0557 -1.8167 -1.3374
 2300SOL     OW19372   0.447   6.078   3.156  0.0167  0.1035  0.1608
 2300SOL    HW119373   0.381   6.149   3.130 -0.8003 -1.0257 -0.9266
 2300SOL    HW219374   0.538   6.118   3.164 -0.5123  1.3590 -0.0151
 2301SOL     OW19375   6.646   3.860   6.200 -1.0608 -0.4288  0.5697
 2301SOL    HW119376   6.687   3.777   6.162 -0.2575  0.5517 -0.7430
 2301SOL    HW219377   6.587   3.902   6.132 -3.1619 -1.0447  1.9533
 2302SOL     OW19378   0.794   0.896   3.429 -0.2368 -0.2842 -0.0429
 2302SOL    HW119379   0.848   0.883   3.512  0.0528 -0.4783 -0.2568
 2302SOL    HW219380   0.722   0.827   3.423 -1.5930  1.0091  1.0903
 2303SOL     OW19381   0.895   6.948   1.195  0.1437  0.9472 -0.1017
 2303SOL    HW119382   0.868   6.963   1.290  0.3858 -0.9685  0.2934
 2303SOL    HW219383   0.818   6.968   1.135 -0.8898 -0.5127  0.7070
 2304SOL     OW19384   8.928   3.478   5.675 -0.2821 -0.0316  1.0660
 2304SOL    HW119385   8.982   3.395   5.658 -0.5955 -0.1430  0.6170
 2304SOL    HW219386   8.895   3.514   5.588  0.2219  0.8139  1.2225
 2305SOL     OW19387   5.334   1.289   2.848 -0.4723 -0.1740  0.0106
 2305SOL    HW119388   5.307   1.333   2.762 -1.1237 -0.9049 -0.1615
 2305SOL    HW219389   5.375   1.357   2.909 -1.0627  0.5877 -0.4355
 2306SOL     OW19390   7.417   2.014   0.202  0.3538  0.2841  0.1727
 2306SOL    HW119391   7.408   1.968   0.113  2.2041 -0.5365  0.3925
 2306SOL    HW219392   7.350   2.087   0.208 -1.0475 -0.8468 -1.1554
 2307SOL     OW19393   4.500   4.760   3.045  0.2236 -0.0524  0.1483
 2307SOL    HW119394   4.407   4.777   3.078  0.4890  1.3118  0.2461
 2307SOL    HW219395   4.556   4.722   3.118 -0.2017 -0.6556  0.1563
 2308SOL     OW19396   6.940   0.993   8.719 -0.0945  0.0178 -0.1180
 2308SOL    HW119397   6.903   1.056   8.788 -1.4555 -0.8750 -0.0012
 2308SOL    HW219398   6.984   0.916   8.765  0.0032 -0.0039 -0.2484
 2309SOL     OW19399   8.410   0.064   7.176  0.0431  0.0685  0.8170
 2309SOL    HW119400   8.436   0.157   7.150 -0.6730 -0.4552 -1.8837
 2309SOL    HW219401   8.486   0.002   7.156 -0.8446 -0.4749 -0.9625
 2310SOL     OW19402   2.145   4.114   3.318  0.2434  0.5335 -0.1037
 2310SOL    HW119403   2.146   4.142   3.414 -0.8378  1.2962 -0.3081
 2310SOL    HW219404   2.093   4.030   3.308  1.0157  0.0242  0.0815
 2311SOL     OW19405   0.824   3.093   7.360  0.0921 -0.2705 -0.2828
 2311SOL    HW119406   0.815   3.019   7.427  0.7895 -0.4044 -0.3368
 2311SOL    HW219407   0.859   3.175   7.405 -0.5198 -0.0179 -0.2578
 2312SOL     OW19408   4.876   5.530   3.467 -0.0524  0.6666 -0.1830
 2312SOL    HW119409   4.792   5.570   3.503 -1.0058 -0.5116 -1.0565
 2312SOL    HW219410   4.872   5.431   3.477  0.0466  0.3841 -2.7058
 2313SOL     OW19411   2.206   2.311   3.439  0.1011  0.1142  0.1954
 2313SOL    HW119412   2.211   2.323   3.539  1.6045 -0.2603  0.1842
 2313SOL    HW219413   2.267   2.377   3.395 -0.5264  0.2453 -0.4756
 2314SOL     OW19414   5.104   6.603   1.765 -0.0278 -0.2291  0.3815
 2314SOL    HW119415   5.166   6.526   1.775  1.0518  0.8953  2.7510
 2314SOL    HW219416   5.138   6.665   1.694 -0.1375 -1.1981 -0.5238
 2315SOL     OW19417   2.846   4.183   6.659 -0.3453  0.1413 -0.2711
 2315SOL    HW119418   2.884   4.090   6.662 -2.0364 -0.5675 -0.0768
 2315SOL    HW219419   2.831   4.209   6.564  1.6375  0.8775 -0.4128
 2316SOL     OW19420   2.374   2.197   8.213 -0.3650  0.0776 -0.0838
 2316SOL    HW119421   2.381   2.267   8.284  0.8980 -2.1369  2.0563
 2316SOL    HW219422   2.287   2.149   8.223  0.0598 -0.6145  0.3676
 2317SOL     OW19423   2.014   3.871   3.313 -0.0189  0.6129 -0.3994
 2317SOL    HW119424   2.040   3.855   3.217 -2.4384 -0.4834 -0.9089
 2317SOL    HW219425   2.014   3.784   3.363 -0.1060  0.9827  0.2480
 2318SOL     OW19426   8.050   2.542   4.837  0.3462  0.2455  0.4604
 2318SOL    HW119427   8.015   2.585   4.919  0.9980  1.9292 -0.1329
 2318SOL    HW219428   8.148   2.561   4.828  0.2716  0.1310 -0.7306
 2319SOL     OW19429   3.766   4.517   3.496  0.4159 -0.1169  0.0138
 2319SOL    HW119430   3.695   4.449   3.481 -0.3380  0.7434 -0.3651
 2319SOL    HW219431   3.779   4.571   3.413 -0.0933  1.2086  0.7638
 2320SOL     OW19432   3.622   1.141   7.027 -0.3983  0.5988  0.0631
 2320SOL    HW119433   3.613   1.047   7.059 -3.4745  1.5219  2.1376
 2320SOL    HW219434   3.645   1.201   7.103  1.2398  1.5897 -1.1807
 2321SOL     OW19435   4.470   4.490   0.688 -0.8168  0.5425  0.7058
 2321SOL    HW119436   4.379   4.450   0.684  0.3670 -2.0431 -1.1247
 2321SOL    HW219437   4.528   4.436   0.749  0.5312 -0.0372 -1.0523
 2322SOL     OW19438   3.371   4.363   2.120 -0.5112  0.1240  0.1008
 2322SOL    HW119439   3.466   4.331   2.123 -0.6185 -0.3399 -1.1351
 2322SOL    HW219440   3.321   4.311   2.051 -1.5276  0.7562  0.3547
 2323SOL     OW19441   8.569   5.162   3.743 -0.4424  0.5082  0.7670
 2323SOL    HW119442   8.641   5.231   3.755 -0.5449  0.8920 -0.7934
 2323SOL    HW219443   8.601   5.074   3.780  0.7261  0.7338  0.3341
 2324SOL     OW19444   2.395   0.402   4.306  0.1690  0.0564  0.1197
 2324SOL    HW119445   2.311   0.406   4.360 -0.2566  1.9491 -0.6276
 2324SOL    HW219446   2.472   0.383   4.367 -0.6707 -0.6691  0.9661
 2325SOL     OW19447   8.276   1.460   5.419 -0.0372  0.2909 -0.7161
 2325SOL    HW119448   8.286   1.524   5.495  1.1552 -0.3638 -0.3115
 2325SOL    HW219449   8.185   1.418   5.423 -0.1478  0.5975  0.0887
 2326SOL     OW19450   4.735   6.276   7.086  0.3522  0.4783  0.1093
 2326SOL    HW119451   4.738   6.194   7.143  1.6320  0.9047  0.6635
 2326SOL    HW219452   4.645   6.282   7.043  0.3247 -1.3584 -0.1573
 2327SOL     OW19453   7.140   1.111   1.653  0.0794  0.2176 -0.5734
 2327SOL    HW119454   7.055   1.161   1.668  0.8235  1.3441  0.0375
 2327SOL    HW219455   7.153   1.044   1.726  0.0961  0.6027 -0.2163
 2328SOL     OW19456   0.634   2.982   1.513  0.1011  0.0106  0.2148
 2328SOL    HW119457   0.577   2.922   1.569 -0.0372 -2.5310 -2.5502
 2328SOL    HW219458   0.727   2.946   1.510  0.2791  0.5321 -0.6321
 2329SOL     OW19459   4.308   1.206   1.547 -0.4009 -0.0853  0.0568
 2329SOL    HW119460   4.289   1.236   1.453  2.5949  1.1880 -0.1760
 2329SOL    HW219461   4.322   1.285   1.606  1.8770 -0.9106  0.6719
 2330SOL     OW19462   1.752   7.436   7.814  0.5895  0.1629  0.0245
 2330SOL    HW119463   1.711   7.355   7.854 -0.0142 -0.3551 -1.6187
 2330SOL    HW219464   1.783   7.497   7.887 -2.2408  0.1358  1.3131
 2331SOL     OW19465   7.279   2.976   6.983  0.3967  0.4681 -0.2864
 2331SOL    HW119466   7.361   3.029   7.005 -0.5539  0.8906  2.3088
 2331SOL    HW219467   7.206   3.037   6.952  0.6483  0.2162 -1.4033
 2332SOL     OW19468   0.408   3.304   5.172 -0.1031  0.0432  0.2151
 2332SOL    HW119469   0.457   3.290   5.085  0.6226 -0.0007  0.6215
 2332SOL    HW219470   0.411   3.219   5.225  0.9967  0.5886  1.0436
 2333SOL     OW19471   2.282   5.566   5.120 -0.1298  0.4162  0.3009
 2333SOL    HW119472   2.340   5.647   5.116  1.1420 -0.3364  2.4661
 2333SOL    HW219473   2.191   5.591   5.152  0.2539  1.0290  0.9384
 2334SOL     OW19474   3.213   4.860   5.027  0.4075 -0.2050 -0.2575
 2334SOL    HW119475   3.211   4.894   4.933  0.2610  0.2197 -0.1031
 2334SOL    HW219476   3.306   4.831   5.050  0.5676  0.2296 -0.3473
 2335SOL     OW19477   1.610   5.599   5.128  0.0875  0.2455  0.3065
 2335SOL    HW119478   1.696   5.607   5.077 -0.2722  0.9893 -0.1948
 2335SOL    HW219479   1.609   5.666   5.202  0.9273 -1.3301  1.7807
 2336SOL     OW19480   7.354   5.824   7.242 -0.2934  0.6100 -0.2747
 2336SOL    HW119481   7.304   5.891   7.297  0.4649  0.2150  0.9168
 2336SOL    HW219482   7.367   5.860   7.149  1.2868  2.7010  0.7327
 2337SOL     OW19483   3.784   7.603   3.718 -0.0042 -0.1652 -0.1152
 2337SOL    HW119484   3.699   7.570   3.677 -1.2237  0.1216  2.1203
 2337SOL    HW219485   3.763   7.668   3.791  2.2107  1.4212 -0.8426
 2338SOL     OW19486   0.494   2.033   3.083  0.4957  0.0127 -0.4415
 2338SOL    HW119487   0.421   2.077   3.031  1.5305  1.1536 -0.9374
 2338SOL    HW219488   0.570   2.011   3.022  1.2545  0.3447  0.3686
 2339SOL     OW19489   7.924   1.868   2.192  0.0934 -0.3478  0.0150
 2339SOL    HW119490   7.861   1.807   2.241  1.3530  0.0469  2.1784
 2339SOL    HW219491   8.017   1.852   2.222  0.5708  1.9553 -0.1086
 2340SOL     OW19492   0.882   4.285   3.293 -0.1029 -0.2071  0.3787
 2340SOL    HW119493   0.946   4.301   3.218 -0.5939  0.7045  0.1378
 2340SOL    HW219494   0.818   4.362   3.299 -0.4770 -0.5796  1.3195
 2341SOL     OW19495   3.069   7.069   3.748  0.0828 -0.2826 -0.1664
 2341SOL    HW119496   3.027   7.047   3.836 -0.6822  0.7032 -0.2612
 2341SOL    HW219497   3.143   7.005   3.728 -0.6425 -1.3526  0.5519
 2342SOL     OW19498   3.716   2.348   3.157 -0.2471 -0.5930 -0.0288
 2342SOL    HW119499   3.765   2.272   3.114  0.1680  0.7350 -1.9748
 2342SOL    HW219500   3.746   2.358   3.252  2.4277 -0.5324 -0.8460
 2343SOL     OW19501   1.022   4.841   4.515 -0.1762  0.2999 -0.2597
 2343SOL    HW119502   1.001   4.938   4.523 -0.6442  0.2745 -1.1191
 2343SOL    HW219503   1.022   4.814   4.419  1.6893 -0.1756 -0.1512
 2344SOL     OW19504   7.443   1.280   0.674  0.1382  0.3342  0.1082
 2344SOL    HW119505   7.406   1.360   0.627  2.1236  0.8240 -0.6676
 2344SOL    HW219506   7.386   1.259   0.753 -1.8212  1.0101 -1.0844
 2345SOL     OW19507   5.279   2.954   4.568 -0.7178  0.0250 -1.1607
 2345SOL    HW119508   5.271   2.899   4.485 -0.2727  0.4651 -1.4988
 2345SOL    HW219509   5.246   3.046   4.550 -0.2890  0.2235 -0.9495
 2346SOL     OW19510   4.103   1.345   4.519  0.0511  0.0295 -0.3992
 2346SOL    HW119511   4.183   1.369   4.463  0.3488  0.7598  0.3194
 2346SOL    HW219512   4.128   1.273   4.584  0.1270  0.2557 -0.1771
 2347SOL     OW19513   5.151   0.931   1.748 -0.4444  0.0262 -0.0030
 2347SOL    HW119514   5.211   0.932   1.828 -1.8569 -0.6641  1.0840
 2347SOL    HW219515   5.122   1.024   1.726  0.7271  0.3251 -0.3237
 2348SOL     OW19516   2.360   1.942   1.942 -0.1035  0.0112  0.1496
 2348SOL    HW119517   2.336   1.862   1.887 -1.9329  0.4112  0.3238
 2348SOL    HW219518   2.298   2.017   1.918  0.7603  0.9685  0.9245
 2349SOL     OW19519   1.639   7.415   3.319 -0.3003  0.0637  0.4727
 2349SOL    HW119520   1.673   7.391   3.227 -0.3194  0.6139  0.3224
 2349SOL    HW219521   1.678   7.502   3.347  0.1553 -0.3775  1.2287
 2350SOL     OW19522   1.097   5.136   5.256 -0.1081 -0.4258  0.4686
 2350SOL    HW119523   1.165   5.164   5.323 -0.2942 -1.1591  0.9736
 2350SOL    HW219524   1.120   5.174   5.166 -0.7329  1.9077  1.2511
 2351SOL     OW19525   8.610   6.209   3.779  0.1100  0.3525  0.0023
 2351SOL    HW119526   8.579   6.289   3.727  2.2602  0.0528 -1.8038
 2351SOL    HW219527   8.678   6.158   3.725  1.8827 -0.3708  2.8067
 2352SOL     OW19528   2.708   3.441   3.167  0.7010  0.1689  0.0322
 2352SOL    HW119529   2.760   3.453   3.083 -2.5564  1.0340 -1.9298
 2352SOL    HW219530   2.658   3.355   3.164  0.5440  0.2137  1.0803
 2353SOL     OW19531   2.778   1.303   4.057  0.5996 -0.0672 -0.0669
 2353SOL    HW119532   2.707   1.243   4.021  0.3945  1.5044 -2.3901
 2353SOL    HW219533   2.762   1.319   4.154  0.2575 -3.1505  0.4474
 2354SOL     OW19534   8.208   7.957   3.079 -0.1322  0.1319 -0.2875
 2354SOL    HW119535   8.195   7.990   3.172 -1.5512  0.4861 -0.6010
 2354SOL    HW219536   8.294   7.994   3.043 -0.6777  1.8650  0.1034
 2355SOL     OW19537   4.522   4.770   0.732  0.1231 -0.3386  0.3044
 2355SOL    HW119538   4.476   4.682   0.718  0.8989 -0.7184  0.1223
 2355SOL    HW219539   4.604   4.775   0.674 -0.3045  0.7935 -0.2267
 2356SOL     OW19540   0.160   1.368   6.299 -0.5390 -0.1599  0.0791
 2356SOL    HW119541   0.222   1.294   6.273 -0.7683 -0.0836 -0.6926
 2356SOL    HW219542   0.077   1.363   6.244 -1.1566 -0.1665  0.9991
 2357SOL     OW19543   8.918   8.119   5.646  0.2012  0.2483 -0.1773
 2357SOL    HW119544   8.891   8.198   5.703 -1.9840 -0.5065 -0.1064
 2357SOL    HW219545   8.947   8.044   5.706  1.0150  0.5623 -0.1847
 2358SOL     OW19546   4.361   7.909   7.032 -0.6282  0.2302 -0.0869
 2358SOL    HW119547   4.319   7.848   6.964  0.4837 -0.2642 -0.3383
 2358SOL    HW219548   4.365   8.002   6.995 -0.3050  0.0239 -0.5740
 2359SOL     OW19549   0.324   4.379   4.823  0.2377  0.2299 -0.1735
 2359SOL    HW119550   0.393   4.425   4.768  2.2168  0.3951  2.3222
 2359SOL    HW219551   0.236   4.423   4.811  1.1557  1.7909 -1.2746
 2360SOL     OW19552   3.638   5.988   1.926  0.3725 -0.4296  0.2570
 2360SOL    HW119553   3.666   6.073   1.969 -1.2095 -0.9000  2.2787
 2360SOL    HW219554   3.689   5.912   1.966  2.1948 -0.4224 -1.9381
 2361SOL     OW19555   4.307   5.896   7.967  0.2025 -0.1704  0.3102
 2361SOL    HW119556   4.317   5.804   7.927 -1.4020  0.2094 -1.0156
 2361SOL    HW219557   4.215   5.930   7.950  0.9131  1.8703  0.4093
 2362SOL     OW19558   6.858   5.831   6.868  0.3571  0.4689 -0.6453
 2362SOL    HW119559   6.950   5.851   6.901 -0.3882  0.2637  1.6371
 2362SOL    HW219560   6.791   5.877   6.926 -1.0188 -0.2026 -1.6802
 2363SOL     OW19561   7.865   3.920   3.730 -0.1696 -0.1902 -0.0341
 2363SOL    HW119562   7.847   3.967   3.817 -0.8584 -0.1430 -0.2005
 2363SOL    HW219563   7.929   3.845   3.746  0.4976  0.4575  0.3320
 2364SOL     OW19564   3.103   2.438   4.792 -0.5231 -0.1723  0.0675
 2364SOL    HW119565   3.035   2.512   4.791 -0.5136 -0.1684 -0.3800
 2364SOL    HW219566   3.127   2.413   4.698  0.9098  0.5758  0.2180
 2365SOL     OW19567   8.002   5.121   5.065 -0.0376  0.5621 -0.0652
 2365SOL    HW119568   7.987   5.027   5.035 -2.6636  1.1485 -0.7144
 2365SOL    HW219569   8.042   5.174   4.990 -0.1921  0.3894 -0.2684
 2366SOL     OW19570   4.722   2.215   8.433  0.1054  0.1193 -0.3760
 2366SOL    HW119571   4.626   2.202   8.408  0.3776 -1.5789 -0.5393
 2366SOL    HW219572   4.779   2.207   8.351  0.6860 -2.0814  0.2380
 2367SOL     OW19573   0.400   3.401   6.798 -0.5475  0.1730 -0.3691
 2367SOL    HW119574   0.414   3.500   6.791 -0.7278  0.1579 -0.8848
 2367SOL    HW219575   0.458   3.365   6.872  0.6873  0.4180 -1.2126
 2368SOL     OW19576   4.478   5.136   3.496  0.0170 -0.0819 -0.3207
 2368SOL    HW119577   4.537   5.078   3.440  0.1082  0.6706 -0.9949
 2368SOL    HW219578   4.520   5.149   3.586  0.3628 -0.4125 -0.4347
 2369SOL     OW19579   7.955   7.517   7.197  0.9710 -0.0104 -0.0792
 2369SOL    HW119580   8.031   7.550   7.141  0.6431 -0.4196 -0.7853
 2369SOL    HW219581   7.871   7.562   7.167  0.4164 -1.8646 -1.4531
 2370SOL     OW19582   8.481   5.356   4.564  0.0578  0.0049  0.0067
 2370SOL    HW119583   8.558   5.296   4.584  0.5558  0.5495 -0.2392
 2370SOL    HW219584   8.406   5.303   4.523  1.1900 -0.1350 -1.9145
 2371SOL     OW19585   1.332   8.898   5.451 -0.1560 -0.5301  0.4868
 2371SOL    HW119586   1.278   8.961   5.506  1.2383 -0.1352  1.4188
 2371SOL    HW219587   1.309   8.803   5.475 -0.4520 -0.3645  0.8529
 2372SOL     OW19588   4.240   8.659   6.155 -0.2776  0.2982 -0.4485
 2372SOL    HW119589   4.225   8.586   6.088  0.1751  1.0028 -1.3212
 2372SOL    HW219590   4.325   8.707   6.134 -0.9618  1.5732 -0.3412
 2373SOL     OW19591   3.252   2.757   8.161 -0.3609  0.8930  0.1443
 2373SOL    HW119592   3.343   2.770   8.122 -0.9487 -0.5562 -1.8000
 2373SOL    HW219593   3.254   2.680   8.225 -0.3899  0.3168 -0.5405
 2374SOL     OW19594   6.594   7.671   7.423 -0.7409  0.3424  0.0401
 2374SOL    HW119595   6.644   7.703   7.343  2.2933 -0.7142  1.4329
 2374SOL    HW219596   6.553   7.750   7.470  2.0149  1.6340  0.3989
 2375SOL     OW19597   2.792   8.468   7.017  0.0715  0.5186 -0.0572
 2375SOL    HW119598   2.841   8.402   7.074 -1.3234 -0.6229 -0.1311
 2375SOL    HW219599   2.706   8.494   7.063 -0.5321  0.4407 -1.1277
 2376SOL     OW19600   5.210   6.146   1.745 -0.0235  0.0359  0.5539
 2376SOL    HW119601   5.290   6.090   1.724 -0.9428 -0.7499 -0.9480
 2376SOL    HW219602   5.141   6.089   1.790 -0.6388  0.1722 -0.2247
 2377SOL     OW19603   2.044   0.992   6.432 -0.2193 -0.0194  0.1030
 2377SOL    HW119604   2.081   0.920   6.491  0.4120  0.9861  0.9539
 2377SOL    HW219605   2.031   1.076   6.486 -0.6532  0.6035 -0.9478
 2378SOL     OW19606   8.666   8.538   6.033  0.3616  0.2985  0.0442
 2378SOL    HW119607   8.618   8.616   6.071  0.9809  1.7699 -2.0538
 2378SOL    HW219608   8.600   8.475   5.991 -0.0401  0.2719  0.7064
 2379SOL     OW19609   7.014   5.191   3.026  0.1539  0.4190  0.3138
 2379SOL    HW119610   7.027   5.273   2.970 -0.1532 -0.0900 -0.5207
 2379SOL    HW219611   6.933   5.203   3.084 -0.6908  0.1825 -0.7952
 2380SOL     OW19612   5.086   0.115   4.075  0.3745 -0.0565 -0.3683
 2380SOL    HW119613   5.026   0.035   4.075 -0.8372  0.8317 -0.6896
 2380SOL    HW219614   5.084   0.158   3.985  1.7281 -0.1903 -0.4590
 2381SOL     OW19615   1.428   8.380   8.238  0.5389 -0.3160 -0.0363
 2381SOL    HW119616   1.439   8.281   8.227  0.4572 -0.4259  0.8378
 2381SOL    HW219617   1.342   8.409   8.198  0.5153 -0.6194 -0.2040
 2382SOL     OW19618   7.082   5.536   4.504  0.3057 -0.3429 -0.1741
 2382SOL    HW119619   7.159   5.598   4.517 -0.6296  0.6915  0.5189
 2382SOL    HW219620   7.090   5.491   4.415  2.0364 -0.7195  0.1516
 2383SOL     OW19621   0.682   5.721   5.291  0.4399 -0.2737  0.0320
 2383SOL    HW119622   0.723   5.729   5.200 -1.0399  1.0388 -0.5362
 2383SOL    HW219623   0.629   5.804   5.311 -0.2896 -1.0979  1.5712
 2384SOL     OW19624   5.164   2.938   2.577  0.1691 -0.4317  0.0745
 2384SOL    HW119625   5.129   2.979   2.493 -0.3709 -3.2167 -1.0821
 2384SOL    HW219626   5.223   2.861   2.555  0.3728 -0.9228  2.2454
 2385SOL     OW19627   4.101   2.242   6.160 -0.8293 -0.0757  0.0453
 2385SOL    HW119628   4.002   2.247   6.171 -0.8351  0.9901 -0.4410
 2385SOL    HW219629   4.123   2.191   6.077 -0.9813  0.3183 -0.2359
 2386SOL     OW19630   5.509   3.920   5.391  0.0033 -0.2070 -0.7222
 2386SOL    HW119631   5.600   3.897   5.357  0.7158  1.2161  0.1661
 2386SOL    HW219632   5.510   3.919   5.491 -0.1449  2.7653 -0.6575
 2387SOL     OW19633   4.300   6.314   6.687 -0.3048 -0.6398  0.5282
 2387SOL    HW119634   4.354   6.331   6.770 -0.4601  2.3128  0.0500
 2387SOL    HW219635   4.337   6.234   6.640  0.7823 -1.4025  2.6003
 2388SOL     OW19636   2.385   2.777   3.608 -0.1473 -0.0992 -0.3010
 2388SOL    HW119637   2.460   2.761   3.544 -0.3524 -0.8429 -0.3697
 2388SOL    HW219638   2.298   2.778   3.558 -0.4382 -2.0830  0.1290
 2389SOL     OW19639   5.760   3.059   2.869  0.2582  0.4515 -0.1196
 2389SOL    HW119640   5.738   3.047   2.773 -0.0609  1.4012 -0.1713
 2389SOL    HW219641   5.853   3.096   2.877  0.2724  0.4041 -0.0680
 2390SOL     OW19642   4.542   6.567   1.735 -0.1522 -0.0243 -0.0702
 2390SOL    HW119643   4.525   6.586   1.832  0.6819 -2.1802  0.5250
 2390SOL    HW219644   4.633   6.599   1.710 -0.2574  0.2791 -0.0615
 2391SOL     OW19645   6.568   0.055   8.993  0.1130 -0.0373  0.2651
 2391SOL    HW119646   6.655   0.013   8.967  0.3122 -0.4453  1.5647
 2391SOL    HW219647   6.549   0.036   9.089 -0.7078  1.2795  0.3800
 2392SOL     OW19648   0.730   0.304   4.857 -0.5267  1.0820  0.2792
 2392SOL    HW119649   0.694   0.332   4.767 -1.4401  2.1090  0.9457
 2392SOL    HW219650   0.727   0.383   4.919  0.1624  0.3881  1.1881
 2393SOL     OW19651   2.485   3.475   0.451  0.3166  0.0684 -0.2732
 2393SOL    HW119652   2.510   3.459   0.547  0.2102  0.7545 -0.1271
 2393SOL    HW219653   2.385   3.474   0.442  0.3030  0.6695 -0.2491
 2394SOL     OW19654   4.349   1.849   3.938 -0.0243  0.1824  0.1150
 2394SOL    HW119655   4.285   1.923   3.919  0.0135  0.1755 -0.0386
 2394SOL    HW219656   4.350   1.830   4.036  1.2651  1.5612  0.3794
 2395SOL     OW19657   6.778   4.453   1.797 -0.1908  0.2458 -0.3749
 2395SOL    HW119658   6.680   4.432   1.804 -0.1353  0.3167  0.6534
 2395SOL    HW219659   6.797   4.540   1.842  0.6782 -0.7904  1.3471
 2396SOL     OW19660   2.149   2.092   7.866  0.3087  0.5186  0.6576
 2396SOL    HW119661   2.204   2.153   7.808  0.7442  1.0086  1.5583
 2396SOL    HW219662   2.123   2.141   7.950 -1.2671  0.1904  0.3731
 2397SOL     OW19663   2.927   1.646   6.485  0.3257  0.4415 -0.1756
 2397SOL    HW119664   2.840   1.691   6.462  0.1119 -0.7011 -1.7167
 2397SOL    HW219665   2.956   1.674   6.576 -0.4505  2.6792 -0.5932
 2398SOL     OW19666   5.793   1.428   7.127 -0.1418  0.1498 -0.0683
 2398SOL    HW119667   5.710   1.378   7.154 -0.3142  0.6978  0.4546
 2398SOL    HW219668   5.817   1.493   7.200 -0.5702  1.6214 -1.2183
 2399SOL     OW19669   8.222   3.820   0.515 -0.0040  0.5268  0.7061
 2399SOL    HW119670   8.280   3.815   0.596  0.0705 -1.2356  0.5540
 2399SOL    HW219671   8.260   3.887   0.451  1.7958 -0.4883  0.6709
 2400SOL     OW19672   1.859   8.552   2.676 -0.3584  0.4628  0.0551
 2400SOL    HW119673   1.956   8.562   2.654  0.0937 -0.5306  1.5170
 2400SOL    HW219674   1.810   8.636   2.651  0.7134  0.6639 -1.4459
 2401SOL     OW19675   1.283   7.470   8.972  0.3397  0.1628 -0.0545
 2401SOL    HW119676   1.378   7.442   8.954 -0.0001 -0.8054 -0.4242
 2401SOL    HW219677   1.239   7.401   9.030  0.0202  0.8789  0.5488
 2402SOL     OW19678   6.074   8.422   0.013  0.1349  0.1884  0.5695
 2402SOL    HW119679   6.119   8.485  -0.050  1.3562  1.3927  2.5830
 2402SOL    HW219680   6.130   8.340   0.025 -0.4415 -0.3639 -0.4247
 2403SOL     OW19681   5.881   8.304   8.507 -0.1066  0.7952 -0.1554
 2403SOL    HW119682   5.786   8.300   8.474 -0.1509  0.0595  0.0343
 2403SOL    HW219683   5.881   8.299   8.607  0.0700  2.1525 -0.0759
 2404SOL     OW19684   0.257   1.203   7.494  0.2221  0.2658  0.3225
 2404SOL    HW119685   0.268   1.111   7.454  1.3249  0.3055  0.5081
 2404SOL    HW219686   0.330   1.262   7.460 -0.1901  0.9358  0.6055
 2405SOL     OW19687   5.784   5.049   2.457  0.1791  0.2208 -0.0660
 2405SOL    HW119688   5.826   4.988   2.389 -0.3225  0.1214 -0.2856
 2405SOL    HW219689   5.741   5.126   2.409 -1.7508 -0.7880  0.0178
 2406SOL     OW19690   0.396   5.789   6.229  0.0931  0.3859  0.1350
 2406SOL    HW119691   0.371   5.695   6.207  0.4088  0.4961 -0.7232
 2406SOL    HW219692   0.315   5.847   6.227 -0.0197  0.2313  0.1668
 2407SOL     OW19693   4.219   8.212   8.837  0.2673 -0.1009  0.3183
 2407SOL    HW119694   4.202   8.169   8.748 -3.5494  0.9435  0.4624
 2407SOL    HW219695   4.221   8.142   8.908 -0.8012 -0.5363 -0.0730
 2408SOL     OW19696   1.604   7.376   0.253  0.2984 -0.2443 -0.3260
 2408SOL    HW119697   1.531   7.385   0.321  1.9535 -0.4649  1.5333
 2408SOL    HW219698   1.645   7.466   0.236 -0.9680  0.0313 -2.0447
 2409SOL     OW19699   6.399   4.096   0.770  0.2591 -0.0689 -0.7844
 2409SOL    HW119700   6.398   4.196   0.765  1.2152 -0.0948 -1.5967
 2409SOL    HW219701   6.329   4.066   0.834  1.5846  1.2321  1.3489
 2410SOL     OW19702   3.054   6.185   2.822 -0.0735 -0.5077 -0.0993
 2410SOL    HW119703   3.097   6.267   2.784 -0.5049  0.0550  0.5982
 2410SOL    HW219704   3.039   6.118   2.749  1.8905 -0.6792 -0.3632
 2411SOL     OW19705   1.472   1.204   6.503  0.0270  0.0685 -0.3436
 2411SOL    HW119706   1.516   1.121   6.538 -0.0735  0.1896  0.0750
 2411SOL    HW219707   1.424   1.251   6.578  0.7768  0.9409 -0.3955
 2412SOL     OW19708   8.424   0.881   8.946 -0.5222 -0.6259  0.2892
 2412SOL    HW119709   8.431   0.898   9.044  1.1005 -0.3735  0.1358
 2412SOL    HW219710   8.358   0.944   8.905 -0.1779  0.1877  0.9843
 2413SOL     OW19711   6.657   6.155   1.270  0.7361 -0.3715 -0.0747
 2413SOL    HW119712   6.673   6.165   1.368 -0.5177 -0.5070  0.1511
 2413SOL    HW219713   6.742   6.171   1.221  1.3676 -0.2717  1.0334
 2414SOL     OW19714   4.764   2.847   6.766  0.2521 -0.2650 -0.1632
 2414SOL    HW119715   4.858   2.816   6.781  0.1649 -0.2948  0.3617
 2414SOL    HW219716   4.729   2.809   6.681  0.6793 -0.3464 -0.3036
 2415SOL     OW19717   3.494   1.391   0.120  0.6276  0.0945  0.2707
 2415SOL    HW119718   3.587   1.356   0.132 -0.1575 -1.7953  1.0790
 2415SOL    HW219719   3.439   1.323   0.071 -0.8935  0.2558  1.6950
 2416SOL     OW19720   7.396   6.334   6.473  0.2422 -0.1912 -0.1864
 2416SOL    HW119721   7.451   6.382   6.404  0.5356 -0.0350  0.1541
 2416SOL    HW219722   7.403   6.382   6.561 -1.8231  0.8138 -0.5547
 2417SOL     OW19723   5.298   6.233   3.856  0.3623  0.3823  0.0442
 2417SOL    HW119724   5.199   6.240   3.852  0.5416  3.4586 -0.1411
 2417SOL    HW219725   5.324   6.159   3.919 -2.0087 -1.0945 -0.6483
 2418SOL     OW19726   8.161   1.392   7.363 -0.4392 -0.0898  0.3972
 2418SOL    HW119727   8.249   1.433   7.339 -0.9790  0.4097 -0.7880
 2418SOL    HW219728   8.155   1.301   7.322 -0.6558  0.0544  0.1111
 2419SOL     OW19729   3.483   5.465   0.563 -0.2034 -0.7003  0.0486
 2419SOL    HW119730   3.422   5.486   0.639  0.0794 -1.8607  0.5923
 2419SOL    HW219731   3.506   5.550   0.514 -2.3308 -0.2743 -0.2314
 2420SOL     OW19732   0.389   7.194   4.900 -0.5155  0.0403 -0.0494
 2420SOL    HW119733   0.347   7.128   4.838  0.9109 -2.3450  1.4776
 2420SOL    HW219734   0.450   7.147   4.964  1.2692  2.9482  0.4779
 2421SOL     OW19735   1.534   1.404   4.173  0.2385 -0.1723  0.4772
 2421SOL    HW119736   1.583   1.347   4.106 -0.8316  0.1565 -0.5946
 2421SOL    HW219737   1.568   1.383   4.264  5.2403  2.8321 -0.4672
 2422SOL     OW19738   2.044   7.356   6.572  0.6931  0.3508 -0.0453
 2422SOL    HW119739   1.975   7.314   6.631 -0.5020 -0.5871 -2.0490
 2422SOL    HW219740   2.125   7.379   6.626 -0.5558 -0.0282  2.0286
 2423SOL     OW19741   3.233   7.899   6.026 -0.8233  0.2912  0.0263
 2423SOL    HW119742   3.144   7.876   5.987 -0.9561  1.3825 -0.3274
 2423SOL    HW219743   3.230   7.991   6.065  0.3428  0.6063 -0.5932
 2424SOL     OW19744   1.648   6.130   2.551  0.1099  0.0936 -0.0186
 2424SOL    HW119745   1.681   6.223   2.539 -0.5532  0.1389 -1.6443
 2424SOL    HW219746   1.687   6.071   2.479  0.2134 -0.8015  0.7578
 2425SOL     OW19747   1.582   6.365   5.945 -0.1594  0.1296 -0.1602
 2425SOL    HW119748   1.665   6.354   5.999 -1.3820 -2.3511  1.3272
 2425SOL    HW219749   1.599   6.338   5.850  1.5468  2.8063 -0.6500
 2426SOL     OW19750   2.867   8.843   6.798  0.3127  0.2425  0.3507
 2426SOL    HW119751   2.903   8.749   6.797  1.4718  0.6966 -0.1665
 2426SOL    HW219752   2.935   8.904   6.838 -0.7535  0.7523  1.4285
 2427SOL     OW19753   5.576   7.264   2.290 -0.2486 -0.2522  0.4340
 2427SOL    HW119754   5.511   7.249   2.364 -0.5497 -0.6472  0.0873
 2427SOL    HW219755   5.654   7.202   2.300 -0.5162 -0.6383  0.1560
 2428SOL     OW19756   3.307   2.399   8.639 -0.2142 -0.7437  0.0590
 2428SOL    HW119757   3.315   2.372   8.544  0.1550  0.3790 -0.2372
 2428SOL    HW219758   3.382   2.461   8.663 -2.3194  1.8800  0.0462
 2429SOL     OW19759   1.119   2.339   5.754  0.4554 -0.1568 -0.0877
 2429SOL    HW119760   1.053   2.412   5.772  0.3366 -0.3288  0.1774
 2429SOL    HW219761   1.210   2.378   5.740 -0.0118  0.2245 -2.2042
 2430SOL     OW19762   4.366   5.704   8.616  0.3036  1.0342  0.2493
 2430SOL    HW119763   4.375   5.605   8.609 -0.8138  0.9437 -0.0130
 2430SOL    HW219764   4.274   5.731   8.588  1.4094  2.3859 -2.2648
 2431SOL     OW19765   8.899   5.235   2.628  1.3005  0.5877 -0.1615
 2431SOL    HW119766   8.865   5.201   2.716 -0.1648 -0.6386 -1.1738
 2431SOL    HW219767   8.996   5.215   2.620  1.0617 -0.8654  0.4471
 2432SOL     OW19768   3.805   2.804   4.202  0.0340  0.1776  0.5068
 2432SOL    HW119769   3.711   2.832   4.182  0.3780 -0.1648 -1.7367
 2432SOL    HW219770   3.804   2.719   4.255 -0.9081  0.6859  1.3369
 2433SOL     OW19771   1.809   4.701   2.342  0.1602  0.4475 -0.0776
 2433SOL    HW119772   1.857   4.619   2.374  0.8085  0.9538  0.2465
 2433SOL    HW219773   1.755   4.739   2.417 -0.4411  0.0963 -0.3354
 2434SOL     OW19774   5.987   2.203   2.624 -0.5847  0.4629 -0.2379
 2434SOL    HW119775   5.893   2.234   2.609 -0.5702  0.0067 -1.3611
 2434SOL    HW219776   6.050   2.279   2.611 -0.8245  0.8572  0.8912
 2435SOL     OW19777   5.934   0.413   8.659 -0.5658  0.5264  0.1852
 2435SOL    HW119778   5.945   0.448   8.752  0.6279 -1.6802  0.8975
 2435SOL    HW219779   6.023   0.408   8.614 -0.9108 -0.1701 -0.4257
 2436SOL     OW19780   5.816   3.496   3.049 -0.2205 -0.1771 -0.6923
 2436SOL    HW119781   5.855   3.568   3.106 -1.4164 -0.5198  0.5881
 2436SOL    HW219782   5.785   3.535   2.962  2.0365  0.2678 -1.3378
 2437SOL     OW19783   2.529   2.818   6.001 -0.0640 -0.6519 -0.1183
 2437SOL    HW119784   2.559   2.818   6.096  1.3491 -1.6720 -0.5495
 2437SOL    HW219785   2.504   2.912   5.974  1.5689  0.0116  0.6269
 2438SOL     OW19786   5.074   6.725   0.207  0.7206  0.0620 -0.1317
 2438SOL    HW119787   5.170   6.714   0.233  0.7822  2.0061  0.5212
 2438SOL    HW219788   5.033   6.635   0.195  3.1722 -0.7907 -2.5497
 2439SOL     OW19789   8.275   7.556   5.487  0.1540 -0.2217 -0.3937
 2439SOL    HW119790   8.299   7.534   5.581  1.2119 -0.1423 -0.6388
 2439SOL    HW219791   8.337   7.626   5.452 -1.3161  0.9943 -0.5945
 2440SOL     OW19792   4.755   1.587   6.927  0.0996  0.9202  0.0611
 2440SOL    HW119793   4.716   1.580   7.018 -0.6003  1.2465 -0.2156
 2440SOL    HW219794   4.846   1.629   6.933  1.2972 -1.6925  0.9326
 2441SOL     OW19795   8.538   4.603   0.557  0.0607 -0.0421 -0.0460
 2441SOL    HW119796   8.514   4.694   0.589 -0.5201 -0.0637 -0.4124
 2441SOL    HW219797   8.602   4.610   0.480  0.2002  0.0457  0.0756
 2442SOL     OW19798   1.456   4.556   5.938  0.1624 -0.6233  0.2122
 2442SOL    HW119799   1.381   4.545   5.872 -0.1009 -0.9113  0.5565
 2442SOL    HW219800   1.429   4.515   6.025  0.1920  0.4494  0.7307
 2443SOL     OW19801   3.512   0.069   1.535 -0.2163  0.4943  0.0601
 2443SOL    HW119802   3.498   0.149   1.476  2.3888  0.9572  0.0168
 2443SOL    HW219803   3.595   0.021   1.507 -0.0775 -0.4594  2.0388
 2444SOL     OW19804   3.764   1.653   1.118 -0.0707  0.2516  0.6354
 2444SOL    HW119805   3.741   1.556   1.119  1.8939 -0.2406  0.0338
 2444SOL    HW219806   3.832   1.672   1.188 -0.7013  1.2703  0.9804
 2445SOL     OW19807   8.649   6.048   2.995 -0.1201 -0.4856  0.4952
 2445SOL    HW119808   8.568   5.996   3.020  0.2110 -2.1098 -1.6493
 2445SOL    HW219809   8.629   6.104   2.914  0.8961 -0.8997 -0.0464
 2446SOL     OW19810   4.683   4.175   1.115  0.0206 -0.3736 -0.1803
 2446SOL    HW119811   4.626   4.219   1.183 -2.8579  0.1136 -2.8220
 2446SOL    HW219812   4.669   4.076   1.118 -1.4296 -0.2197 -1.1510
 2447SOL     OW19813   2.731   5.659   1.411  0.2305 -0.6270 -0.1192
 2447SOL    HW119814   2.809   5.720   1.400  0.7990 -1.2075  0.6805
 2447SOL    HW219815   2.750   5.592   1.483 -0.9215 -0.8961 -0.0477
 2448SOL     OW19816   7.978   7.082   8.443  0.0010  0.2834  0.3066
 2448SOL    HW119817   7.964   7.166   8.390  0.8515 -0.8972 -1.8389
 2448SOL    HW219818   7.890   7.047   8.473 -0.5715  0.5208 -1.0626
 2449SOL     OW19819   8.895   5.378   3.997 -0.6168 -0.2414 -0.4863
 2449SOL    HW119820   8.957   5.441   4.044  1.6922 -2.4504 -0.4672
 2449SOL    HW219821   8.850   5.320   4.065 -1.9901  0.6720 -0.5841
 2450SOL     OW19822   5.579   5.904   1.191 -0.5137  0.0254 -0.0254
 2450SOL    HW119823   5.638   5.938   1.264 -0.8288 -0.8951  0.6644
 2450SOL    HW219824   5.484   5.928   1.210 -0.6362 -0.5109  0.0510
 2451SOL     OW19825   7.750   5.074   6.372  0.2996 -0.8862  0.1027
 2451SOL    HW119826   7.745   5.032   6.282 -1.7115 -0.0449 -0.2257
 2451SOL    HW219827   7.701   5.161   6.371  1.6891 -0.0490  1.5822
 2452SOL     OW19828   6.116   5.048   1.738 -0.1346  0.1305 -0.1748
 2452SOL    HW119829   6.180   5.057   1.661  0.4503 -1.0289  0.1663
 2452SOL    HW219830   6.072   4.958   1.734 -0.1527  0.0906  0.7986
 2453SOL     OW19831   3.675   2.275   0.697 -0.0016 -0.7362  0.1821
 2453SOL    HW119832   3.635   2.194   0.740  0.0124 -0.2425  1.1244
 2453SOL    HW219833   3.611   2.312   0.630 -0.1302 -1.3431 -0.0376
 2454SOL     OW19834   2.078   5.954   4.355 -0.4836 -0.5977 -0.0923
 2454SOL    HW119835   2.089   6.052   4.335  2.8434 -1.3215 -2.1576
 2454SOL    HW219836   2.152   5.925   4.415  0.4573 -2.5352 -2.1355
 2455SOL     OW19837   7.546   6.304   6.853  0.1514  0.2308 -0.3276
 2455SOL    HW119838   7.557   6.285   6.950 -0.5752  1.9870  0.1095
 2455SOL    HW219839   7.635   6.300   6.807  0.7254  1.0474  0.7117
 2456SOL     OW19840   6.145   2.654   3.548 -0.1865 -0.1535  0.2927
 2456SOL    HW119841   6.118   2.604   3.466  0.2110  0.8155 -0.4390
 2456SOL    HW219842   6.108   2.747   3.545 -0.1978 -0.1138  1.2247
 2457SOL     OW19843   1.046   3.733   0.720 -0.3649 -0.0915 -0.0884
 2457SOL    HW119844   0.960   3.682   0.734  0.0201 -0.5908  0.5112
 2457SOL    HW219845   1.101   3.728   0.803 -0.2811  1.2506 -0.0581
 2458SOL     OW19846   0.926   3.280   1.459 -0.1845 -0.7090 -0.1433
 2458SOL    HW119847   0.985   3.200   1.470  0.1728 -0.6754 -1.6697
 2458SOL    HW219848   0.845   3.255   1.406  0.3622  0.1395 -1.3941
 2459SOL     OW19849   1.971   1.600   2.361 -0.3035  0.6408  0.0193
 2459SOL    HW119850   1.920   1.586   2.276  0.0743 -0.4346 -0.0392
 2459SOL    HW219851   1.912   1.644   2.428 -0.6099  1.4911 -0.7942
 2460SOL     OW19852   7.772   4.813   6.961 -0.3408  0.2272 -0.0735
 2460SOL    HW119853   7.685   4.786   6.918 -1.2481  0.3465  1.6340
 2460SOL    HW219854   7.835   4.735   6.959 -1.1951 -0.4869  0.4253
 2461SOL     OW19855   8.932   6.146   8.232  0.3772 -0.1323  0.1768
 2461SOL    HW119856   8.927   6.199   8.316 -0.1973  0.5801 -0.3035
 2461SOL    HW219857   8.850   6.088   8.224  0.1750  0.2041 -0.1635
 2462SOL     OW19858   2.269   7.464   5.607 -0.3498  0.3034  0.2402
 2462SOL    HW119859   2.333   7.448   5.531 -0.6098  0.6990 -0.0609
 2462SOL    HW219860   2.255   7.378   5.656  2.1149  0.6469  1.6519
 2463SOL     OW19861   1.555   3.192   2.394 -0.1842 -0.7166  0.9099
 2463SOL    HW119862   1.654   3.186   2.402  0.1314 -0.8641 -2.1548
 2463SOL    HW219863   1.515   3.101   2.399  0.0934 -0.9095 -0.2240
 2464SOL     OW19864   7.884   4.831   1.890 -0.0863  0.7932  0.2267
 2464SOL    HW119865   7.915   4.881   1.809 -3.8252  1.3240 -0.9445
 2464SOL    HW219866   7.864   4.897   1.963  0.0962  0.5779  0.4696
 2465SOL     OW19867   7.349   3.777   2.360 -0.6509  0.0726  0.5153
 2465SOL    HW119868   7.261   3.749   2.401  1.1115 -1.9029  3.1547
 2465SOL    HW219869   7.405   3.696   2.346  1.2244  1.4458 -0.0135
 2466SOL     OW19870   4.165   0.789   7.267  0.3507 -1.3057  0.2547
 2466SOL    HW119871   4.178   0.757   7.173  0.9742 -2.1922  0.6237
 2466SOL    HW219872   4.190   0.715   7.330  1.2530 -0.2681  1.1368
 2467SOL     OW19873   8.402   2.940   7.569 -0.5220  0.5141 -0.4921
 2467SOL    HW119874   8.308   2.971   7.562 -0.2890  1.3723  0.0548
 2467SOL    HW219875   8.434   2.907   7.480 -0.9901  1.2365 -0.9322
 2468SOL     OW19876   2.762   5.725   0.455  0.1563 -0.3679  0.2481
 2468SOL    HW119877   2.768   5.733   0.554 -1.0368 -0.1237  0.3015
 2468SOL    HW219878   2.789   5.811   0.412  0.7823 -0.5094  0.3527
 2469SOL     OW19879   2.552   1.008   5.449 -0.5405 -0.5396 -0.0382
 2469SOL    HW119880   2.589   0.989   5.540  2.5319 -1.2859 -1.3820
 2469SOL    HW219881   2.575   1.101   5.422  0.4421 -1.0029 -0.8735
 2470SOL     OW19882   6.298   6.713   2.507  0.5185 -0.0005 -0.4254
 2470SOL    HW119883   6.339   6.714   2.598 -1.6846 -1.4825  0.6470
 2470SOL    HW219884   6.305   6.621   2.468 -1.7722 -0.3093 -0.1774
 2471SOL     OW19885   6.624   4.195   2.302  0.3416  0.5978  0.0437
 2471SOL    HW119886   6.552   4.207   2.233 -1.3566  0.1180  1.6817
 2471SOL    HW219887   6.629   4.099   2.328 -0.0528  1.0020  1.6431
 2472SOL     OW19888   6.057   4.951   3.133 -1.3595  0.0276 -0.1319
 2472SOL    HW119889   5.983   4.939   3.068 -2.6064 -2.7073  1.6822
 2472SOL    HW219890   6.120   4.873   3.127  2.5289  3.1964 -2.9738
 2473SOL     OW19891   2.886   3.700   3.051  0.0768 -0.2045  1.0545
 2473SOL    HW119892   2.807   3.694   2.991  1.1352  0.3437 -0.4135
 2473SOL    HW219893   2.855   3.707   3.146 -1.6246 -0.0512  0.5037
 2474SOL     OW19894   8.401   3.854   4.753  0.2093 -0.3722 -0.0079
 2474SOL    HW119895   8.401   3.950   4.724 -0.5487 -0.7746 -1.3754
 2474SOL    HW219896   8.364   3.797   4.680  0.9496 -1.7544  0.6788
 2475SOL     OW19897   8.015   5.032   6.412 -0.4460  0.1171 -0.2310
 2475SOL    HW119898   8.033   5.057   6.507 -1.3621 -0.6645  0.1603
 2475SOL    HW219899   7.917   5.042   6.392 -0.1023  1.3558 -1.4296
 2476SOL     OW19900   3.176   4.693   7.507  0.4353  0.4125 -0.1179
 2476SOL    HW119901   3.088   4.655   7.538 -0.6248  2.7457 -0.1947
 2476SOL    HW219902   3.249   4.656   7.564 -0.7702 -0.4003  0.9372
 2477SOL     OW19903   6.493   6.535   8.029  0.2079  0.4763 -0.6841
 2477SOL    HW119904   6.397   6.525   8.056  0.3913 -0.0111 -0.1938
 2477SOL    HW219905   6.534   6.444   8.020 -0.0174  0.5930 -3.2345
 2478SOL     OW19906   4.934   8.655   1.086  1.1246 -0.2342  0.6956
 2478SOL    HW119907   4.835   8.641   1.085  0.9588  0.9231 -0.2807
 2478SOL    HW219908   4.974   8.607   1.165  0.1822 -3.2013 -0.5643
 2479SOL     OW19909   5.696   3.390   6.945  0.1038  0.0316  0.2905
 2479SOL    HW119910   5.661   3.344   6.864 -1.6064 -2.2415  2.2531
 2479SOL    HW219911   5.622   3.435   6.994  1.0928  1.2883  0.6712
 2480SOL     OW19912   4.457   0.799   2.846  0.4654  0.1320  0.0490
 2480SOL    HW119913   4.513   0.778   2.926  0.6555 -0.2361 -0.1773
 2480SOL    HW219914   4.482   0.890   2.811  0.8125  0.0331  0.0408
 2481SOL     OW19915   6.390   7.226   1.411 -0.1084 -0.0769  0.7962
 2481SOL    HW119916   6.400   7.325   1.402 -2.0180  0.0114 -0.5767
 2481SOL    HW219917   6.309   7.205   1.464 -0.7936 -0.9181 -0.5479
 2482SOL     OW19918   2.636   5.755   7.025  0.2322 -0.2064 -0.1556
 2482SOL    HW119919   2.678   5.846   7.028 -0.8475  0.2964 -0.2814
 2482SOL    HW219920   2.623   5.721   7.118 -1.7029  0.8533 -0.0228
 2483SOL     OW19921   5.201   4.055   0.263 -0.1324  0.5618 -0.2663
 2483SOL    HW119922   5.255   4.107   0.328  0.0336 -0.2746  0.2781
 2483SOL    HW219923   5.225   4.082   0.170  0.3948  1.0106 -0.0033
 2484SOL     OW19924   8.382   2.840   6.955 -0.5459 -0.4314 -0.0109
 2484SOL    HW119925   8.457   2.906   6.946 -0.4152 -0.6006 -0.1704
 2484SOL    HW219926   8.419   2.752   6.987 -0.8773 -0.0889  1.3187
 2485SOL     OW19927   1.681   4.169   0.062 -0.3164 -0.0260 -0.4039
 2485SOL    HW119928   1.719   4.090   0.014 -0.2482  0.8830 -1.8518
 2485SOL    HW219929   1.596   4.143   0.108 -0.5017 -0.8399 -1.1976
 2486SOL     OW19930   7.027   4.967   0.707 -0.3721 -0.0296  0.5785
 2486SOL    HW119931   6.933   4.954   0.674 -0.7452 -1.2305  2.0536
 2486SOL    HW219932   7.071   4.878   0.715  0.3720  0.4102  1.4093
 2487SOL     OW19933   0.589   4.532   2.079 -0.4325 -0.1392  0.3883
 2487SOL    HW119934   0.519   4.563   2.143 -1.1203  2.0808 -1.4159
 2487SOL    HW219935   0.546   4.497   1.996  0.5628  0.7824 -0.5305
 2488SOL     OW19936   3.093   3.548   0.376 -0.0201  0.0887 -0.5691
 2488SOL    HW119937   3.013   3.608   0.369 -0.4392 -0.3307  0.5838
 2488SOL    HW219938   3.173   3.603   0.403 -0.4961  0.0691  0.9119
 2489SOL     OW19939   2.987   1.670   3.542  0.2797 -0.4054  0.2905
 2489SOL    HW119940   3.056   1.675   3.615  0.5846 -0.5163  0.0089
 2489SOL    HW219941   2.938   1.583   3.549  1.5952 -1.2462 -0.7958
 2490SOL     OW19942   3.990   6.589   6.362  0.0666 -0.0532  0.6112
 2490SOL    HW119943   3.894   6.608   6.340 -0.1902 -1.3992  0.5065
 2490SOL    HW219944   4.049   6.638   6.298 -0.6118 -0.9791 -0.7486
 2491SOL     OW19945   7.057   3.538   2.219  0.2174  0.0615  0.2147
 2491SOL    HW119946   7.051   3.593   2.136 -1.4460  0.1999  0.4074
 2491SOL    HW219947   6.972   3.488   2.231  0.7486 -0.5594  1.4300
 2492SOL     OW19948   3.256   6.616   2.560  0.1825 -0.2902  0.2999
 2492SOL    HW119949   3.182   6.639   2.497  0.8828 -0.9199 -0.7680
 2492SOL    HW219950   3.319   6.552   2.516  1.3304  0.1857  1.2239
 2493SOL     OW19951   1.894   4.233   1.693 -0.1081 -0.6601 -0.2056
 2493SOL    HW119952   1.991   4.259   1.699 -0.6738  1.4693  0.2813
 2493SOL    HW219953   1.885   4.134   1.705  1.9362 -0.7755  0.5997
 2494SOL     OW19954   4.976   6.590   2.399  0.8680 -0.6844 -0.1378
 2494SOL    HW119955   4.955   6.641   2.483  0.2241 -1.1290 -0.0230
 2494SOL    HW219956   5.000   6.654   2.326  1.6276 -0.3069  0.4433
 2495SOL     OW19957   8.315   7.429   8.891 -0.1353 -0.0475 -0.3229
 2495SOL    HW119958   8.256   7.371   8.835  1.7980 -0.5615 -1.8568
 2495SOL    HW219959   8.410   7.415   8.865  0.4642  2.8813  0.1405
 2496SOL     OW19960   0.579   4.693   7.330  0.0628  0.1562  0.1403
 2496SOL    HW119961   0.621   4.763   7.272 -1.8035  2.0117  0.9647
 2496SOL    HW219962   0.490   4.667   7.292  0.1893 -0.8663  0.5244
 2497SOL     OW19963   0.156   2.909   1.579  0.4605 -0.0442 -0.0489
 2497SOL    HW119964   0.198   2.980   1.636 -1.1628  0.7365  0.2185
 2497SOL    HW219965   0.155   2.940   1.484 -1.2367  0.7937  0.2248
 2498SOL     OW19966   3.635   7.963   7.452 -0.2964 -0.0564 -0.1141
 2498SOL    HW119967   3.686   8.024   7.392 -0.3870  0.4346  0.3115
 2498SOL    HW219968   3.698   7.900   7.497 -0.2370 -0.4884 -0.7931
 2499SOL     OW19969   1.264   1.415   0.212  0.0321  0.3676  0.5287
 2499SOL    HW119970   1.328   1.420   0.135 -0.7700 -3.0667 -0.4457
 2499SOL    HW219971   1.172   1.438   0.180 -0.1957 -0.4402  0.6031
 2500SOL     OW19972   3.878   3.793   8.069 -0.0803 -0.2412 -0.6475
 2500SOL    HW119973   3.929   3.845   8.000 -1.1467  1.4852 -0.1965
 2500SOL    HW219974   3.782   3.821   8.066 -0.0457  0.2661  1.8961
 2501SOL     OW19975   7.778   4.766   0.879 -0.2558  0.1285  0.0653
 2501SOL    HW119976   7.872   4.781   0.910 -0.5510  1.0349  0.5322
 2501SOL    HW219977   7.775   4.765   0.779  0.4994 -1.5259  0.0519
 2502SOL     OW19978   0.129   7.750   0.907  0.2751 -0.0169 -0.4961
 2502SOL    HW119979   0.206   7.802   0.943  0.8447 -1.3576  0.2535
 2502SOL    HW219980   0.045   7.780   0.952  0.7330 -0.4157  0.6358
 2503SOL     OW19981   1.084   4.773   3.945  0.0998  0.7720  0.1319
 2503SOL    HW119982   0.995   4.798   3.984 -0.5004 -0.1842 -0.5981
 2503SOL    HW219983   1.072   4.750   3.848  0.7270 -1.7221  0.6258
 2504SOL     OW19984   3.295   1.194   7.974  0.3929 -0.2529  0.9130
 2504SOL    HW119985   3.298   1.140   8.058  0.9438  0.3500  1.2829
 2504SOL    HW219986   3.347   1.279   7.987 -0.3748  0.3214  0.3073
 2505SOL     OW19987   4.683   2.923   8.593  0.4863 -0.6628  0.5310
 2505SOL    HW119988   4.739   2.997   8.555  0.1268 -1.9490 -2.6212
 2505SOL    HW219989   4.736   2.838   8.593 -0.5829 -1.3415 -0.0736
 2506SOL     OW19990   6.063   0.610   2.136 -0.7889 -0.8168  0.0431
 2506SOL    HW119991   6.154   0.624   2.175 -0.9875 -0.4427  0.3713
 2506SOL    HW219992   6.065   0.631   2.038 -0.6274 -0.3767  0.1429
 2507SOL     OW19993   6.915   1.775   8.625 -0.0322 -0.6163 -0.0864
 2507SOL    HW119994   6.861   1.853   8.656  1.4213  0.9321 -1.3341
 2507SOL    HW219995   6.865   1.690   8.641 -1.7453  0.5931  1.0547
 2508SOL     OW19996   1.526   4.048   7.866 -0.6101 -0.5584  0.8062
 2508SOL    HW119997   1.509   4.082   7.959  1.2153 -0.5029  1.1480
 2508SOL    HW219998   1.448   3.994   7.836 -1.7619  0.4379  1.8912
 2509SOL     OW19999   8.673   3.870   1.835 -0.0369  0.4596 -0.4774
 2509SOL    HW120000   8.644   3.837   1.745 -1.2154 -2.2417  0.8497
 2509SOL    HW220001   8.606   3.936   1.869 -0.7668 -0.2024 -0.6219
 2510SOL     OW20002   0.236   4.654   7.185 -0.7435  0.1413 -0.7985
 2510SOL    HW120003   0.298   4.576   7.186 -0.3210  0.4733 -0.5009
 2510SOL    HW220004   0.142   4.622   7.183 -0.5663 -0.3723 -0.9578
 2511SOL     OW20005   6.325   1.419   7.581  0.0380 -0.1499 -0.2671
 2511SOL    HW120006   6.244   1.360   7.578  2.2105 -3.3429  1.8485
 2511SOL    HW220007   6.317   1.480   7.660 -0.9681  0.6215 -0.9404
 2512SOL     OW20008   3.358   0.725   1.430  0.0387  0.5478  0.3117
 2512SOL    HW120009   3.417   0.740   1.509  0.5812  0.6985 -0.1246
 2512SOL    HW220010   3.322   0.631   1.433  2.2606 -0.3662 -0.7242
 2513SOL     OW20011   0.127   4.056   0.409  0.2948  0.2022 -0.7075
 2513SOL    HW120012   0.121   3.966   0.452 -2.0630  0.7137  0.1082
 2513SOL    HW220013   0.187   4.115   0.465  0.4106 -0.3149 -0.2775
 2514SOL     OW20014   8.867   3.302   1.559 -0.2988  0.5387 -0.9589
 2514SOL    HW120015   8.874   3.371   1.487 -0.9429  2.9752  1.2483
 2514SOL    HW220016   8.824   3.219   1.521 -1.4996  2.1085 -3.1488
 2515SOL     OW20017   5.657   5.772   4.270 -0.2119 -0.0186  0.3546
 2515SOL    HW120018   5.723   5.702   4.243 -0.1666  0.4734 -0.8524
 2515SOL    HW220019   5.565   5.732   4.274  0.0931 -0.6106  1.6512
 2516SOL     OW20020   8.023   8.623   6.879 -0.4891 -0.5784  0.1518
 2516SOL    HW120021   7.947   8.593   6.821 -0.8069  2.4823 -1.0992
 2516SOL    HW220022   7.996   8.704   6.931  1.1814 -0.8123  1.4458
 2517SOL     OW20023   2.867   2.032   8.200  0.3092 -0.6407  0.7184
 2517SOL    HW120024   2.771   2.059   8.207  0.1793 -0.8190 -0.2490
 2517SOL    HW220025   2.875   1.956   8.136  1.1048 -0.6108  0.7770
 2518SOL     OW20026   6.222   8.863   0.668 -0.8278 -0.0779 -0.2043
 2518SOL    HW120027   6.213   8.958   0.638 -2.3018 -0.2878 -0.4388
 2518SOL    HW220028   6.134   8.830   0.701 -0.1214 -1.0999  0.6723
 2519SOL     OW20029   1.016   4.024   4.952 -0.0228  0.4961 -0.0827
 2519SOL    HW120030   1.025   4.082   4.872 -1.0734 -0.3133 -0.8107
 2519SOL    HW220031   1.041   3.930   4.929  1.3150  0.5697  0.9874
 2520SOL     OW20032   3.931   4.148   8.563 -0.0188  0.0792 -0.4693
 2520SOL    HW120033   4.015   4.200   8.581 -0.0206  0.5680 -1.8390
 2520SOL    HW220034   3.929   4.120   8.467 -0.8759 -0.9255 -0.1654
 2521SOL     OW20035   2.867   5.059   2.655 -0.1290 -0.4560 -0.7545
 2521SOL    HW120036   2.896   5.025   2.743 -1.1424  0.0902 -0.1928
 2521SOL    HW220037   2.945   5.097   2.605 -0.0273  1.8672  1.1094
 2522SOL     OW20038   1.804   6.920   0.856  0.0535 -0.0258 -0.0030
 2522SOL    HW120039   1.790   7.006   0.805  1.5482  0.8584  1.0489
 2522SOL    HW220040   1.902   6.902   0.863 -0.1861 -0.7231  1.6019
 2523SOL     OW20041   2.306   6.146   0.296  0.0475 -0.2549 -0.1435
 2523SOL    HW120042   2.344   6.143   0.389  2.3302  1.1918 -0.9662
 2523SOL    HW220043   2.252   6.064   0.279  1.6918 -1.7518  1.6195
 2524SOL     OW20044   6.829   2.849   6.330 -0.0786 -0.5298 -0.1192
 2524SOL    HW120045   6.873   2.865   6.418 -0.5247  1.2676 -0.1974
 2524SOL    HW220046   6.862   2.763   6.291 -1.0446 -2.1617  2.5026
 2525SOL     OW20047   7.349   2.546   0.851  0.4464 -0.0391 -0.7667
 2525SOL    HW120048   7.412   2.536   0.774 -0.3648  2.4364 -1.7801
 2525SOL    HW220049   7.397   2.588   0.928 -0.2728  3.2555 -2.0419
 2526SOL     OW20050   8.680   8.229   8.105 -0.0247 -0.2350 -0.6070
 2526SOL    HW120051   8.737   8.207   8.025  0.6757 -0.0162 -0.1753
 2526SOL    HW220052   8.599   8.280   8.076  0.3794  0.1021 -1.1431
 2527SOL     OW20053   8.599   8.791   7.448 -0.6397 -0.1710 -0.9929
 2527SOL    HW120054   8.512   8.839   7.438 -0.5574 -0.3910 -2.9517
 2527SOL    HW220055   8.645   8.822   7.531 -0.9885  2.5440 -1.7659
 2528SOL     OW20056   7.671   0.103   7.022 -0.4097  0.2684 -0.4891
 2528SOL    HW120057   7.632   0.131   6.935  0.3379  0.4010 -0.7854
 2528SOL    HW220058   7.628   0.018   7.053 -1.1531  0.5835 -0.6502
 2529SOL     OW20059   1.889   2.635   7.986 -0.2867 -0.2441 -0.3860
 2529SOL    HW120060   1.849   2.719   7.951  0.5530  0.1765 -0.3472
 2529SOL    HW220061   1.966   2.608   7.927  2.1051  1.2726  1.9696
 2530SOL     OW20062   4.743   5.792   5.817  0.3683  0.0254  0.6485
 2530SOL    HW120063   4.744   5.877   5.869 -0.8248 -0.3449  1.3086
 2530SOL    HW220064   4.833   5.748   5.822  0.3787  0.1812  2.1094
 2531SOL     OW20065   7.948   3.093   5.786  0.3855 -0.1147 -0.0422
 2531SOL    HW120066   8.015   3.162   5.815  0.2647 -0.1905  0.4129
 2531SOL    HW220067   7.874   3.088   5.852  0.2856 -0.5384 -0.1826
 2532SOL     OW20068   5.118   3.762   6.781  0.3504 -0.1936 -0.0941
 2532SOL    HW120069   5.024   3.752   6.813 -0.0136  0.9781 -0.7685
 2532SOL    HW220070   5.117   3.801   6.689  1.5300  0.6554  0.2536
 2533SOL     OW20071   1.798   6.593   2.668  0.4067  1.1176 -0.3238
 2533SOL    HW120072   1.774   6.687   2.646 -0.5630  0.8653 -0.3972
 2533SOL    HW220073   1.779   6.575   2.764  0.1632  0.8751 -0.4154
 2534SOL     OW20074   5.622   5.567   8.325 -0.0349  0.0039  0.0736
 2534SOL    HW120075   5.546   5.632   8.330 -0.7371 -0.9494  2.6315
 2534SOL    HW220076   5.689   5.588   8.396  0.4115 -1.2100  0.0301
 2535SOL     OW20077   0.984   1.642   8.651  0.8280 -0.2677 -0.2904
 2535SOL    HW120078   1.020   1.674   8.738  2.8978 -0.9410 -0.8833
 2535SOL    HW220079   0.902   1.695   8.628  1.1689  0.9820  1.2825
 2536SOL     OW20080   5.970   1.435   3.812  0.2004 -0.1406  0.0450
 2536SOL    HW120081   6.033   1.381   3.868  0.1952 -0.4143 -0.2104
 2536SOL    HW220082   5.899   1.376   3.775 -0.0298  0.1139  0.0814
 2537SOL     OW20083   5.125   3.657   3.425  0.0238  0.1191  0.3478
 2537SOL    HW120084   5.202   3.643   3.487 -0.1886 -1.8886  0.1963
 2537SOL    HW220085   5.082   3.746   3.444  1.6315  0.7260  1.2166
 2538SOL     OW20086   4.558   2.773   5.092  0.0609  0.0333  0.1969
 2538SOL    HW120087   4.485   2.750   5.157 -0.9724 -0.7349 -1.2129
 2538SOL    HW220088   4.636   2.713   5.108 -0.5236 -0.7504  0.1526
 2539SOL     OW20089   2.288   6.514   7.517  0.0260  0.1377 -0.1492
 2539SOL    HW120090   2.304   6.567   7.600  1.3803  0.8485 -0.8285
 2539SOL    HW220091   2.254   6.575   7.445 -2.9985 -0.8345  0.4255
 2540SOL     OW20092   8.553   6.261   8.016 -0.3457 -0.2950  0.0049
 2540SOL    HW120093   8.551   6.332   8.086 -0.8193  0.6993 -1.0033
 2540SOL    HW220094   8.465   6.256   7.970  0.5755  0.5314 -1.9452
 2541SOL     OW20095   7.566   4.758   3.172 -0.6479 -0.0577 -0.3005
 2541SOL    HW120096   7.503   4.724   3.102 -1.0539 -0.9837  0.5139
 2541SOL    HW220097   7.658   4.767   3.133 -1.0716  0.3837 -1.2239
 2542SOL     OW20098   4.871   6.621   5.921 -0.4122  0.4339  0.2414
 2542SOL    HW120099   4.838   6.534   5.959  0.7401 -0.2853 -0.3764
 2542SOL    HW220100   4.873   6.690   5.994 -1.5984  0.0219  0.6738
 2543SOL     OW20101   4.793   0.923   5.239 -0.3006 -0.4676  0.2875
 2543SOL    HW120102   4.762   0.876   5.322 -1.1188 -0.6356 -0.1031
 2543SOL    HW220103   4.803   0.857   5.165 -0.7987 -0.1292 -0.0837
 2544SOL     OW20104   1.575   4.778   0.565 -0.3532  0.1609 -0.2239
 2544SOL    HW120105   1.572   4.700   0.627 -0.4101 -1.1367 -1.8026
 2544SOL    HW220106   1.670   4.806   0.552 -0.3320  0.3588  0.3478
 2545SOL     OW20107   1.892   3.129   2.735 -0.0759  0.2805  0.2666
 2545SOL    HW120108   1.813   3.184   2.760  0.4111  0.2059  2.0705
 2545SOL    HW220109   1.862   3.042   2.696 -0.8475  1.0842 -0.9846
 2546SOL     OW20110   1.097   6.773   4.936  0.4515  0.6943 -0.4003
 2546SOL    HW120111   1.043   6.713   4.876 -1.5752  1.5488  0.5284
 2546SOL    HW220112   1.110   6.729   5.024  0.7132  0.7670 -0.4026
 2547SOL     OW20113   6.480   8.520   8.590  0.4060 -0.5478 -0.3630
 2547SOL    HW120114   6.555   8.576   8.554  0.6722  0.0613  1.0908
 2547SOL    HW220115   6.400   8.578   8.606  0.2583 -0.8279 -0.0809
 2548SOL     OW20116   1.393   3.324   6.534  0.9578 -0.5959 -0.0334
 2548SOL    HW120117   1.417   3.243   6.588 -1.5248 -0.9852  0.5727
 2548SOL    HW220118   1.293   3.335   6.533  1.2944  3.5259  1.4970
 2549SOL     OW20119   2.859   4.796   2.005  0.1862 -0.1085  0.0096
 2549SOL    HW120120   2.846   4.793   2.105 -0.6205 -1.0502 -0.1146
 2549SOL    HW220121   2.809   4.720   1.963 -1.8227  1.9109 -1.3542
 2550SOL     OW20122   6.248   7.043   3.430  0.2208  0.2102  0.2403
 2550SOL    HW120123   6.324   6.986   3.400  0.9289  1.6739 -0.8290
 2550SOL    HW220124   6.189   6.991   3.491 -0.4690 -2.3956 -2.5647
 2551SOL     OW20125   0.373   5.852   0.496  0.0789 -0.2296  0.7984
 2551SOL    HW120126   0.312   5.931   0.506  1.5374  1.0902 -0.4001
 2551SOL    HW220127   0.338   5.791   0.425  0.4188  0.8116 -0.2852
 2552SOL     OW20128   4.048   6.601   1.626 -0.0952  0.1719 -0.5594
 2552SOL    HW120129   4.078   6.508   1.650  0.8874 -0.1670 -2.9359
 2552SOL    HW220130   4.104   6.635   1.551 -2.1278  1.6969 -1.4251
 2553SOL     OW20131   2.005   6.670   0.824 -0.1520 -0.2727  0.0519
 2553SOL    HW120132   1.943   6.615   0.768 -0.9666  1.0037 -0.3389
 2553SOL    HW220133   2.075   6.612   0.866 -1.0164 -1.5853 -0.3263
 2554SOL     OW20134   3.206   4.486   6.051  0.4533 -0.3868 -0.0877
 2554SOL    HW120135   3.178   4.522   6.141 -0.9927 -0.0383 -0.6688
 2554SOL    HW220136   3.204   4.560   5.984  2.0927 -0.5147 -0.3125
 2555SOL     OW20137   2.802   2.241   4.642 -0.2592 -0.0891 -0.3644
 2555SOL    HW120138   2.866   2.212   4.572 -1.0080  0.4463 -1.2870
 2555SOL    HW220139   2.852   2.274   4.722  0.5945 -2.7476  0.2406
 2556SOL     OW20140   6.538   3.207   1.743  0.3623 -0.7338  0.0560
 2556SOL    HW120141   6.542   3.177   1.647 -2.0351  0.6330 -0.4941
 2556SOL    HW220142   6.564   3.303   1.749  0.5375 -0.8258  0.8009
 2557SOL     OW20143   0.785   0.467   5.356  0.4621 -0.1127 -0.2637
 2557SOL    HW120144   0.718   0.444   5.427  0.8474  1.5467  0.6758
 2557SOL    HW220145   0.756   0.429   5.269 -0.5580 -1.3082  0.5819
 2558SOL     OW20146   7.691   0.097   5.593  0.6178  0.0592 -0.6163
 2558SOL    HW120147   7.629   0.025   5.624 -0.5806  1.3192  0.0167
 2558SOL    HW220148   7.727   0.147   5.672 -0.4254  1.6502 -1.1104
 2559SOL     OW20149   6.340   5.107   4.874  0.6787 -0.3937  0.1620
 2559SOL    HW120150   6.293   5.122   4.787 -0.4311 -0.2220  0.7951
 2559SOL    HW220151   6.372   5.195   4.910 -0.4966 -0.2429  0.8495
 2560SOL     OW20152   0.428   1.029   3.271 -0.3910  0.3958 -0.0230
 2560SOL    HW120153   0.416   0.988   3.180  0.2404 -1.3543  0.6618
 2560SOL    HW220154   0.447   0.957   3.337 -0.3583  1.7170  1.4190
 2561SOL     OW20155   7.285   8.770   2.995  0.3892  0.1820 -0.2809
 2561SOL    HW120156   7.311   8.770   3.091 -0.8203 -0.9697  0.0631
 2561SOL    HW220157   7.286   8.676   2.960 -2.0879  0.2153 -0.5644
 2562SOL     OW20158   2.591   3.820   7.440  0.5061 -0.4328 -0.1838
 2562SOL    HW120159   2.494   3.796   7.438  0.2639  0.5794 -1.9444
 2562SOL    HW220160   2.605   3.904   7.492  0.3584 -0.2434 -0.4522
 2563SOL     OW20161   2.053   3.556   4.946 -0.1542 -0.0745  0.0481
 2563SOL    HW120162   1.973   3.616   4.936 -0.5312 -0.7531 -1.1073
 2563SOL    HW220163   2.087   3.562   5.040  1.0363  3.4881 -0.5282
 2564SOL     OW20164   7.190   6.001   7.359  0.2167  0.0227  0.9102
 2564SOL    HW120165   7.162   6.045   7.444  1.2121 -0.2275  1.3696
 2564SOL    HW220166   7.154   6.053   7.281 -1.2491 -0.1282  1.4858
 2565SOL     OW20167   0.759   3.608   5.643  0.4519  0.2712 -0.3126
 2565SOL    HW120168   0.743   3.545   5.567  1.0402  1.3384 -1.3472
 2565SOL    HW220169   0.796   3.558   5.721 -0.6912 -0.9302 -0.5225
 2566SOL     OW20170   3.785   0.055   3.120  0.5714  0.4337 -0.8100
 2566SOL    HW120171   3.821   0.143   3.151 -4.7159  2.5491 -0.1152
 2566SOL    HW220172   3.758   0.001   3.199  2.2142 -1.1938 -1.3149
 2567SOL     OW20173   3.285   8.262   2.213 -0.0353 -0.9514  0.0998
 2567SOL    HW120174   3.367   8.285   2.265 -1.5319 -0.3849  2.3316
 2567SOL    HW220175   3.235   8.190   2.262 -2.5060  0.9868  0.5637
 2568SOL     OW20176   4.784   7.762   6.176  0.0318 -0.6623  0.0361
 2568SOL    HW120177   4.876   7.723   6.174  0.5436  0.5783 -0.5744
 2568SOL    HW220178   4.730   7.715   6.246  0.9677 -1.7346  0.0529
 2569SOL     OW20179   4.081   0.156   1.992  0.0436  0.2177 -0.0861
 2569SOL    HW120180   4.088   0.220   1.915  0.7591  0.0318 -0.1826
 2569SOL    HW220181   4.027   0.197   2.065 -0.5430  0.4406 -0.6428
 2570SOL     OW20182   8.193   5.010   8.052  0.2004  0.1702 -0.5217
 2570SOL    HW120183   8.244   5.090   8.083  2.2140 -0.7221 -1.4450
 2570SOL    HW220184   8.238   4.927   8.086 -2.3961 -0.5758  1.2256
 2571SOL     OW20185   2.168   3.984   7.579  0.2406  0.4484  0.3605
 2571SOL    HW120186   2.081   4.029   7.601 -0.0781  0.5886 -1.1376
 2571SOL    HW220187   2.208   4.026   7.497  1.4536  0.0141  0.7127
 2572SOL     OW20188   6.918   3.084   3.179  0.3964  0.3560 -0.3300
 2572SOL    HW120189   6.961   3.136   3.253  0.5540  2.4541 -1.8505
 2572SOL    HW220190   6.822   3.112   3.169  0.0865 -0.6515 -0.2763
 2573SOL     OW20191   5.097   3.655   7.292 -1.1196 -0.1250 -0.0972
 2573SOL    HW120192   5.048   3.569   7.279 -1.8035  0.2418  0.0399
 2573SOL    HW220193   5.152   3.650   7.376  2.6612 -2.1896 -2.5711
 2574SOL     OW20194   8.414   0.756   8.326  0.7701  0.0690 -0.0411
 2574SOL    HW120195   8.329   0.774   8.375  0.1268 -1.4170 -0.6010
 2574SOL    HW220196   8.485   0.817   8.360 -0.6180  1.6395  0.1389
 2575SOL     OW20197   8.189   5.782   4.839  0.0854 -0.6875  0.2702
 2575SOL    HW120198   8.233   5.735   4.915 -1.4971 -0.4681  1.3301
 2575SOL    HW220199   8.189   5.880   4.855 -0.1808 -0.6312 -0.0537
 2576SOL     OW20200   1.003   8.934   5.825  0.2626 -0.4023 -0.5856
 2576SOL    HW120201   1.068   8.972   5.759  1.3877  0.1721  0.8139
 2576SOL    HW220202   1.023   8.837   5.839  0.9637 -0.1840 -0.0164
 2577SOL     OW20203   1.785   4.349   1.311 -0.2823  0.2722 -0.4750
 2577SOL    HW120204   1.736   4.425   1.266 -0.5164 -1.1341 -2.6561
 2577SOL    HW220205   1.882   4.355   1.289  0.1790  1.5912  1.7676
 2578SOL     OW20206   7.046   4.135   8.686  0.2289  0.3670 -0.3130
 2578SOL    HW120207   7.000   4.222   8.670  0.1330  0.2427 -0.7183
 2578SOL    HW220208   7.125   4.150   8.746  0.9789  0.9481 -1.4183
 2579SOL     OW20209   1.552   7.663   4.694 -0.0217  0.4342 -0.4103
 2579SOL    HW120210   1.466   7.658   4.744  0.0075  3.4065  0.0141
 2579SOL    HW220211   1.533   7.671   4.596 -0.2522  1.2685 -0.3022
 2580SOL     OW20212   1.117   4.302   0.892 -0.0777 -0.3080  0.1408
 2580SOL    HW120213   1.107   4.381   0.952  3.5068  0.5536 -0.3031
 2580SOL    HW220214   1.089   4.220   0.941  1.3770  0.5543  2.5430
 2581SOL     OW20215   5.061   6.734   6.277  0.0685 -0.2127 -0.0790
 2581SOL    HW120216   5.098   6.776   6.360 -0.7769 -0.1916  0.2882
 2581SOL    HW220217   5.034   6.640   6.296 -0.1304 -0.2073 -0.3250
 2582SOL     OW20218   5.398   0.954   4.053  0.6806 -0.7500 -0.0064
 2582SOL    HW120219   5.393   0.990   4.146 -3.0555  0.5881 -0.6489
 2582SOL    HW220220   5.459   0.874   4.051  0.7877 -0.8179  3.5739
 2583SOL     OW20221   1.330   3.492   2.764  0.8225  0.5550  0.2863
 2583SOL    HW120222   1.352   3.434   2.686  1.2053  0.9125  0.1246
 2583SOL    HW220223   1.413   3.535   2.797  0.6641  0.3945  0.9039
 2584SOL     OW20224   1.096   2.800   2.848 -0.0294  0.3981  0.1280
 2584SOL    HW120225   1.126   2.880   2.796 -2.5941  1.3695  0.0888
 2584SOL    HW220226   1.010   2.820   2.894  0.4735 -1.5882  2.0378
 2585SOL     OW20227   2.647   1.346   4.325  0.4673 -0.0509 -0.1562
 2585SOL    HW120228   2.658   1.326   4.422  0.8660  1.5155  0.1395
 2585SOL    HW220229   2.550   1.354   4.303  0.4116  1.2461  0.4873
 2586SOL     OW20230   2.800   1.960   7.102 -0.4481 -0.0228 -0.0827
 2586SOL    HW120231   2.864   1.943   7.027 -0.2741  0.4308 -0.0358
 2586SOL    HW220232   2.756   1.874   7.127  0.8293 -0.5190  0.5055
 2587SOL     OW20233   5.377   3.806   2.677  0.4389 -0.5248 -0.6533
 2587SOL    HW120234   5.309   3.733   2.689 -1.3882  1.1313 -0.6136
 2587SOL    HW220235   5.417   3.828   2.766  1.3213 -1.7554 -0.7294
 2588SOL     OW20236   0.246   0.071   0.090  0.0583 -0.6443 -0.1627
 2588SOL    HW120237   0.162   0.018   0.099  0.2331 -1.0543 -0.9403
 2588SOL    HW220238   0.290   0.078   0.180 -0.8432 -0.3528  0.2632
 2589SOL     OW20239   2.017   5.665   4.787  0.0808 -0.0273 -0.0692
 2589SOL    HW120240   2.006   5.636   4.691  1.9107 -1.1589  0.0480
 2589SOL    HW220241   2.057   5.757   4.790 -0.5590  0.2631 -0.3950
 2590SOL     OW20242   6.960   2.800   7.289  0.0536 -0.4010 -0.1646
 2590SOL    HW120243   7.059   2.812   7.286  0.3730 -2.6790 -0.0654
 2590SOL    HW220244   6.935   2.752   7.374 -1.3216  1.5591  0.5816
 2591SOL     OW20245   8.637   5.616   4.014 -1.2632 -0.5282  0.4989
 2591SOL    HW120246   8.692   5.626   4.096  0.3058 -1.6741 -0.3955
 2591SOL    HW220247   8.636   5.702   3.963 -2.7768  0.3898  2.0011
 2592SOL     OW20248   2.311   4.094   2.437 -0.1818  0.1351  0.0170
 2592SOL    HW120249   2.285   4.188   2.459 -0.8201 -0.1930  0.6818
 2592SOL    HW220250   2.286   4.074   2.342 -0.3002  0.5503 -0.0399
 2593SOL     OW20251   2.514   6.907   5.742  0.0038 -0.5664 -0.0330
 2593SOL    HW120252   2.454   6.938   5.816  0.6910 -0.1319  0.3380
 2593SOL    HW220253   2.529   6.808   5.751 -2.2292 -1.0592 -1.2518
 2594SOL     OW20254   8.009   5.457   5.837 -0.2829  0.2642  0.0091
 2594SOL    HW120255   7.990   5.378   5.895 -0.1592 -0.6933 -1.2268
 2594SOL    HW220256   7.923   5.492   5.800 -0.2819  0.3669  0.1022
 2595SOL     OW20257   7.348   4.800   1.818 -0.5707  0.0882 -0.3489
 2595SOL    HW120258   7.334   4.738   1.895  0.3934 -0.3030 -0.4847
 2595SOL    HW220259   7.391   4.751   1.743 -3.2186 -0.0018 -1.8714
 2596SOL     OW20260   5.039   3.449   6.508 -0.6751  0.5528  0.3433
 2596SOL    HW120261   4.944   3.421   6.505 -0.2465 -0.9880  0.7072
 2596SOL    HW220262   5.057   3.514   6.435 -2.5380  2.5976  1.6520
 2597SOL     OW20263   5.851   6.272   1.653  0.2764  0.5980 -0.0700
 2597SOL    HW120264   5.919   6.318   1.710  1.6536 -1.2138 -0.2181
 2597SOL    HW220265   5.890   6.254   1.562 -0.0661 -1.2811  0.1416
 2598SOL     OW20266   3.420   4.075   6.873  0.2994 -1.1414  0.3998
 2598SOL    HW120267   3.508   4.029   6.856  0.4281 -0.7075 -0.0854
 2598SOL    HW220268   3.431   4.139   6.949  0.6262 -0.4270 -0.2516
 2599SOL     OW20269   3.520   6.560   5.485  0.3463 -0.1063 -0.2805
 2599SOL    HW120270   3.536   6.535   5.581 -0.4533  2.6483  0.6111
 2599SOL    HW220271   3.463   6.490   5.442  0.0229 -0.9574  1.4874
 2600SOL     OW20272   1.043   3.755   4.956 -0.1294  0.4445  0.1236
 2600SOL    HW120273   1.001   3.756   4.866  0.3935  0.0084 -0.1274
 2600SOL    HW220274   1.095   3.670   4.968  0.4239  0.8335  0.5421
 2601SOL     OW20275   8.966   3.798   2.448  0.2638 -0.0360  0.0146
 2601SOL    HW120276   8.914   3.754   2.521 -0.7232 -0.5236 -0.9663
 2601SOL    HW220277   8.968   3.897   2.464  2.6052 -0.4149  2.2949
 2602SOL     OW20278   3.963   4.089   7.514  0.0128 -0.0184  0.4415
 2602SOL    HW120279   3.931   4.143   7.592 -0.7250 -0.6812  0.6043
 2602SOL    HW220280   3.894   4.020   7.491  1.7452 -2.1613  1.4430
 2603SOL     OW20281   4.641   6.293   0.110  0.2409  0.1299  0.0421
 2603SOL    HW120282   4.652   6.316   0.207  0.2103  0.3228 -0.0001
 2603SOL    HW220283   4.594   6.368   0.063 -0.1564 -0.1621 -0.0266
 2604SOL     OW20284   6.567   2.260   7.094  0.4932  0.1683  0.4659
 2604SOL    HW120285   6.497   2.313   7.046  1.5869  0.4060 -0.8978
 2604SOL    HW220286   6.525   2.179   7.135 -0.2780 -0.8112 -2.1176
 2605SOL     OW20287   3.064   4.861   8.338  0.1409 -0.2542  0.6454
 2605SOL    HW120288   3.148   4.878   8.286 -0.6280  1.9419  0.1088
 2605SOL    HW220289   2.995   4.820   8.279  0.6511 -1.6644  0.9866
 2606SOL     OW20290   4.541   4.450   2.444  0.3364  0.5387 -0.5025
 2606SOL    HW120291   4.614   4.510   2.477 -1.0442  2.6218 -1.1330
 2606SOL    HW220292   4.452   4.488   2.470 -0.6085 -0.5809 -1.9881
 2607SOL     OW20293   3.771   8.755   5.288 -0.1873 -0.5690 -0.2573
 2607SOL    HW120294   3.822   8.785   5.369 -0.6451 -2.4956  0.7670
 2607SOL    HW220295   3.703   8.824   5.264  0.5688  0.4408  0.4394
 2608SOL     OW20296   1.993   8.811   4.131  0.3477 -0.6884  0.5884
 2608SOL    HW120297   2.043   8.838   4.048  1.4732 -0.2840  1.3947
 2608SOL    HW220298   2.053   8.755   4.189  0.3668  1.0042  2.2408
 2609SOL     OW20299   1.048   8.003   1.033  0.9915 -0.6252  0.1246
 2609SOL    HW120300   1.099   8.034   0.952  1.0205  0.3097  0.4998
 2609SOL    HW220301   0.957   7.971   1.004 -0.0833  2.3271  0.0134
 2610SOL     OW20302   7.785   8.903   0.219 -0.6883  0.9269  0.6964
 2610SOL    HW120303   7.713   8.834   0.223 -0.3339  0.5035 -0.0090
 2610SOL    HW220304   7.844   8.884   0.140 -1.4745  2.9185 -0.3959
 2611SOL     OW20305   2.207   5.211   6.020 -0.5261 -0.0292  0.5691
 2611SOL    HW120306   2.215   5.111   6.016  3.2901  0.2357 -0.4851
 2611SOL    HW220307   2.234   5.242   6.111 -0.0387  0.1331  0.3718
 2612SOL     OW20308   5.977   4.567   7.887 -0.2152  0.0463  0.4981
 2612SOL    HW120309   6.051   4.596   7.827 -0.0411  0.3203  0.8443
 2612SOL    HW220310   5.900   4.535   7.832 -0.7304  1.9225  0.0726
 2613SOL     OW20311   6.289   2.224   0.835  0.1112  0.6206 -0.2685
 2613SOL    HW120312   6.305   2.132   0.799  0.7241  0.9670 -0.8929
 2613SOL    HW220313   6.375   2.275   0.835  0.1291  0.6038  1.7898
 2614SOL     OW20314   0.880   3.049   0.716 -0.2770  0.2540 -0.0857
 2614SOL    HW120315   0.930   3.010   0.794  1.7464 -0.2513 -1.5796
 2614SOL    HW220316   0.802   3.101   0.749 -0.9261 -2.0213  2.1536
 2615SOL     OW20317   5.326   2.100   4.486 -0.4726  0.2626 -0.2449
 2615SOL    HW120318   5.368   2.184   4.519  0.7672 -0.0156 -1.0862
 2615SOL    HW220319   5.348   2.025   4.549 -3.4728  0.9451  1.7843
 2616SOL     OW20320   6.320   6.077   1.669 -0.1101  0.8080 -0.4233
 2616SOL    HW120321   6.322   6.086   1.768  1.7242  1.0071 -0.4622
 2616SOL    HW220322   6.342   5.983   1.643  0.3795  0.9845 -0.6613
 2617SOL     OW20323   6.471   6.642   3.523 -0.0144  0.1508  0.7323
 2617SOL    HW120324   6.460   6.723   3.465  0.7389  1.0867  1.8756
 2617SOL    HW220325   6.530   6.576   3.476 -0.4135  0.3711 -0.0904
 2618SOL     OW20326   2.689   4.026   2.682 -0.6104  0.1070 -0.4148
 2618SOL    HW120327   2.620   3.997   2.615 -2.4170 -0.1185  1.4881
 2618SOL    HW220328   2.696   4.126   2.681  0.2662  0.0444 -1.7828
 2619SOL     OW20329   3.487   6.654   1.898  0.3402  0.5348 -0.1632
 2619SOL    HW120330   3.559   6.706   1.943  0.6629  0.2085 -0.2967
 2619SOL    HW220331   3.438   6.600   1.966 -0.1232  1.1681  0.0012
 2620SOL     OW20332   5.435   0.534   5.193 -0.1851  0.1270 -0.2537
 2620SOL    HW120333   5.395   0.504   5.106 -0.9248  0.3476  0.0083
 2620SOL    HW220334   5.533   0.550   5.181  0.1472 -1.9628 -0.5214
 2621SOL     OW20335   4.310   7.335   4.060 -0.4450 -0.0581  0.9656
 2621SOL    HW120336   4.289   7.427   4.092  1.6689  0.1048  2.0311
 2621SOL    HW220337   4.321   7.275   4.140 -2.1444 -1.3098  0.2672
 2622SOL     OW20338   2.260   0.976   6.670  0.2654 -0.2425 -0.7534
 2622SOL    HW120339   2.222   0.891   6.634 -1.3239 -0.5991  1.6320
 2622SOL    HW220340   2.192   1.020   6.729  2.7773  0.2472  1.8525
 2623SOL     OW20341   6.151   3.206   8.970  0.2401  0.0334  0.2325
 2623SOL    HW120342   6.114   3.235   8.881 -1.8199 -0.7879  0.7754
 2623SOL    HW220343   6.250   3.195   8.963  0.0756 -0.3802 -2.0752
 2624SOL     OW20344   1.398   5.802   4.325  0.4496 -0.6223 -0.3811
 2624SOL    HW120345   1.324   5.862   4.295  0.3029 -0.2376  0.7108
 2624SOL    HW220346   1.486   5.849   4.315  0.3234 -0.1731  0.5884
 2625SOL     OW20347   5.071   1.610   1.750 -0.3306  0.0326 -0.0728
 2625SOL    HW120348   5.120   1.555   1.681 -0.5411 -1.6518  1.0774
 2625SOL    HW220349   5.090   1.707   1.734  2.0720 -0.4806 -0.6764
 2626SOL     OW20350   1.234   1.740   4.832 -0.5312 -0.5149 -0.3509
 2626SOL    HW120351   1.225   1.731   4.733 -1.7787  1.1661 -0.4169
 2626SOL    HW220352   1.311   1.800   4.853 -1.5249  0.8320 -0.4086
 2627SOL     OW20353   1.393   0.558   5.819  0.7349  0.5021 -0.0002
 2627SOL    HW120354   1.341   0.643   5.832 -0.2715  0.0640 -1.0761
 2627SOL    HW220355   1.431   0.555   5.727 -0.9915 -1.1196 -0.7155
 2628SOL     OW20356   0.099   3.470   8.524 -0.6366  0.6949 -0.2320
 2628SOL    HW120357   0.030   3.451   8.594 -0.7419  3.2659  0.4168
 2628SOL    HW220358   0.189   3.442   8.558 -0.6440  2.2214  1.0883
 2629SOL     OW20359   5.407   8.281   2.093  0.4660  0.4666 -0.3435
 2629SOL    HW120360   5.487   8.339   2.103  1.4461 -0.8934 -0.0955
 2629SOL    HW220361   5.379   8.278   1.997 -0.5541  2.5817 -0.1243
 2630SOL     OW20362   6.027   2.870   6.905  0.3317  0.0736 -0.3055
 2630SOL    HW120363   6.014   2.844   6.810 -0.3739  1.2094 -0.5288
 2630SOL    HW220364   5.940   2.902   6.944  0.2715 -1.7939  1.1715
 2631SOL     OW20365   8.532   3.051   7.009 -0.1136 -0.2439  0.2431
 2631SOL    HW120366   8.630   3.071   7.014 -0.2813  0.3886  1.0500
 2631SOL    HW220367   8.485   3.095   7.085 -0.7225 -2.4182  1.1511
 2632SOL     OW20368   3.050   4.170   0.349  0.3646  0.2232  0.2087
 2632SOL    HW120369   2.980   4.231   0.311  0.7954  0.7838  0.3151
 2632SOL    HW220370   3.061   4.091   0.288  0.9086  1.0169 -0.7396
 2633SOL     OW20371   6.932   5.427   8.680 -0.4668 -0.0491 -0.1447
 2633SOL    HW120372   6.996   5.459   8.609 -1.4640 -0.2306 -1.1361
 2633SOL    HW220373   6.891   5.506   8.726  2.2556  0.0990  2.1613
 2634SOL     OW20374   3.461   1.239   3.709  0.2106  0.3172 -0.6159
 2634SOL    HW120375   3.518   1.289   3.775  1.0010  1.4725 -2.1511
 2634SOL    HW220376   3.499   1.148   3.695  1.3667  0.8737 -1.1812
 2635SOL     OW20377   2.560   3.561   2.034  0.0632 -0.4055  0.5010
 2635SOL    HW120378   2.646   3.588   1.991  0.8418 -1.0419  1.6466
 2635SOL    HW220379   2.490   3.550   1.964  0.9028  0.1468 -0.4357
 2636SOL     OW20380   7.303   4.008   1.351  0.4535  0.3744 -0.1592
 2636SOL    HW120381   7.330   3.941   1.420 -0.8869 -0.9100 -0.8454
 2636SOL    HW220382   7.205   4.026   1.359  0.5516  1.2488 -0.8497
 2637SOL     OW20383   8.022   7.691   8.346  0.3168  0.2007 -0.0795
 2637SOL    HW120384   7.935   7.666   8.388 -0.2364  0.1423 -1.2358
 2637SOL    HW220385   8.009   7.769   8.285  1.2007  0.5906  0.2163
 2638SOL     OW20386   2.475   7.061   7.954 -0.0050  0.2787 -0.1264
 2638SOL    HW120387   2.407   7.004   8.000 -2.3054  2.1380 -1.1607
 2638SOL    HW220388   2.519   7.121   8.021  0.0386 -0.3296  0.4007
 2639SOL     OW20389   1.480   7.208   7.844 -0.2184 -0.0237 -0.4218
 2639SOL    HW120390   1.563   7.189   7.897 -0.7733 -1.9813 -0.2163
 2639SOL    HW220391   1.400   7.198   7.903 -0.6279  1.5727 -0.6940
 2640SOL     OW20392   8.963   6.215   6.223 -0.5488  0.0117  0.0402
 2640SOL    HW120393   9.024   6.288   6.254 -1.0348  0.7137 -0.6278
 2640SOL    HW220394   9.009   6.163   6.150  0.3256 -1.2121  1.4174
 2641SOL     OW20395   7.722   6.185   6.178 -0.1050 -0.4208 -0.2023
 2641SOL    HW120396   7.699   6.251   6.250 -2.1653  0.1295 -1.3426
 2641SOL    HW220397   7.763   6.232   6.101 -1.9420 -0.3854 -1.1817
 2642SOL     OW20398   5.881   7.325   8.539  0.7665  0.1583 -0.0613
 2642SOL    HW120399   5.851   7.232   8.518  1.1213  0.2454 -0.9703
 2642SOL    HW220400   5.825   7.391   8.487 -0.3902  0.5332  1.5940
 2643SOL     OW20401   5.908   7.435   5.715  0.1853  0.1130  0.4650
 2643SOL    HW120402   5.822   7.385   5.729  1.9900 -2.8355  1.5170
 2643SOL    HW220403   5.935   7.429   5.619 -0.4698  0.5473  0.2479
 2644SOL     OW20404   0.837   3.599   6.232  0.5382  0.1718  0.4259
 2644SOL    HW120405   0.855   3.653   6.150 -1.7794  1.4725  0.7349
 2644SOL    HW220406   0.790   3.515   6.207  3.3989 -1.3834  0.0374
 2645SOL     OW20407   6.833   2.220   1.963 -0.1527 -0.0635 -0.0166
 2645SOL    HW120408   6.877   2.208   2.053 -0.0304  0.3175 -0.0250
 2645SOL    HW220409   6.886   2.170   1.894 -0.0033 -0.0069  0.0547
 2646SOL     OW20410   3.855   2.877   3.160 -0.0622 -0.2436 -0.0919
 2646SOL    HW120411   3.787   2.927   3.107  0.1130  2.2586  1.9822
 2646SOL    HW220412   3.936   2.861   3.103 -0.2068  1.6741 -0.8716
 2647SOL     OW20413   6.916   0.658   3.060  0.1908  0.1763  0.1190
 2647SOL    HW120414   6.920   0.746   3.014  1.5135 -0.0724 -0.2665
 2647SOL    HW220415   6.874   0.590   2.999  0.9916  0.0863 -0.3386
 2648SOL     OW20416   7.672   5.107   0.844 -0.2950 -0.3540  0.2712
 2648SOL    HW120417   7.574   5.126   0.840 -0.5442 -1.9222 -1.6925
 2648SOL    HW220418   7.695   5.037   0.776  2.1575 -0.1184  0.8310
 2649SOL     OW20419   3.078   8.972   5.794  0.6348 -0.2878  0.3152
 2649SOL    HW120420   3.033   9.044   5.741 -0.6358 -0.9261  0.5152
 2649SOL    HW220421   3.146   8.927   5.736  1.1842  0.8154  0.0770
 2650SOL     OW20422   5.553   2.689   6.992 -0.1880 -0.0264  0.9688
 2650SOL    HW120423   5.465   2.700   7.038 -0.8626 -2.3193  0.2968
 2650SOL    HW220424   5.626   2.686   7.060 -1.0202 -1.8914  1.8320
 2651SOL     OW20425   7.014   1.123   7.023 -0.0302 -0.3120 -0.1605
 2651SOL    HW120426   7.022   1.196   7.091  2.4019 -1.5948  0.9839
 2651SOL    HW220427   7.021   1.163   6.931 -0.9493  1.1466  0.3860
 2652SOL     OW20428   8.300   5.899   3.632 -0.4275 -0.1277  0.2336
 2652SOL    HW120429   8.380   5.935   3.680 -1.8854  1.3489  1.5827
 2652SOL    HW220430   8.330   5.832   3.564  1.9070  0.0008  1.0943
 2653SOL     OW20431   6.818   2.667   7.825  0.4795  0.6587 -0.5561
 2653SOL    HW120432   6.895   2.653   7.887 -0.3540  2.6802  0.9519
 2653SOL    HW220433   6.739   2.616   7.858 -0.1588  2.2718  0.4233
 2654SOL     OW20434   3.630   5.287   5.427  0.4046  0.5988 -0.2462
 2654SOL    HW120435   3.559   5.217   5.420 -0.2751  1.1730  0.8516
 2654SOL    HW220436   3.718   5.243   5.445 -0.0879  0.0524  0.8751
 2655SOL     OW20437   0.489   4.483   3.508 -0.4477  0.2998  0.3602
 2655SOL    HW120438   0.519   4.570   3.547 -1.1166  0.5248  0.3755
 2655SOL    HW220439   0.495   4.412   3.578 -0.7326  0.5081  0.5938
 2656SOL     OW20440   1.646   0.999   6.597 -0.4083 -0.1733  0.0949
 2656SOL    HW120441   1.700   0.915   6.597 -0.4747 -0.2111 -0.8908
 2656SOL    HW220442   1.697   1.073   6.552 -0.2450  0.3909  1.1742
 2657SOL     OW20443   6.318   0.321   3.620  0.3893 -0.2604  0.4553
 2657SOL    HW120444   6.375   0.403   3.621 -1.7428  1.2736  0.6199
 2657SOL    HW220445   6.299   0.293   3.526 -0.1610  0.3642  0.3799
 2658SOL     OW20446   4.087   5.619   6.711 -0.0598 -0.1067  0.6552
 2658SOL    HW120447   4.141   5.642   6.630 -0.3531  0.3219  0.5811
 2658SOL    HW220448   4.117   5.674   6.788 -0.9066  0.6947  0.4237
 2659SOL     OW20449   1.108   3.047   8.234 -0.2444  0.5873 -0.4874
 2659SOL    HW120450   1.068   3.000   8.312  1.0604 -0.1826 -0.2690
 2659SOL    HW220451   1.145   3.136   8.263  1.1026 -0.1139 -0.0170
 2660SOL     OW20452   8.484   6.140   5.831 -0.0887  0.1277 -0.3110
 2660SOL    HW120453   8.549   6.194   5.778  0.7948  0.3212  0.9687
 2660SOL    HW220454   8.519   6.126   5.924 -1.4295 -0.5795  0.0996
 2661SOL     OW20455   3.412   7.207   0.276  0.4159  0.8036  0.2027
 2661SOL    HW120456   3.433   7.136   0.209  0.1348 -0.8638  1.8654
 2661SOL    HW220457   3.315   7.205   0.299  0.6945  0.6761  1.4296
 2662SOL     OW20458   2.874   4.131   5.044  0.0930  0.1285 -0.0414
 2662SOL    HW120459   2.785   4.104   5.009  0.0279 -1.0984  1.0450
 2662SOL    HW220460   2.878   4.231   5.050 -1.6645  0.1519  1.0799
 2663SOL     OW20461   5.276   8.698   4.657  0.3558 -0.3149  0.0598
 2663SOL    HW120462   5.361   8.695   4.605  0.2057 -1.0431 -0.1450
 2663SOL    HW220463   5.198   8.694   4.595  0.1599  1.0661  0.1989
 2664SOL     OW20464   2.257   0.235   0.817 -0.1558 -0.3500 -0.6209
 2664SOL    HW120465   2.261   0.323   0.771 -0.5400  0.3734  0.6989
 2664SOL    HW220466   2.289   0.163   0.755  0.8065  0.7968 -1.4722
 2665SOL     OW20467   4.279   4.968   5.642 -0.1402 -0.3920  0.3164
 2665SOL    HW120468   4.372   5.005   5.649 -1.7133  3.7353  0.5446
 2665SOL    HW220469   4.255   4.922   5.727  1.9878 -2.3063 -0.0799
 2666SOL     OW20470   7.200   5.306   7.221 -0.0454  0.1873  0.2774
 2666SOL    HW120471   7.162   5.371   7.155  0.6597  0.4513  0.1316
 2666SOL    HW220472   7.190   5.343   7.313  0.9065  0.7870  0.1490
 2667SOL     OW20473   3.854   1.101   2.849  0.6728  0.1692  0.4750
 2667SOL    HW120474   3.760   1.097   2.883 -0.1445  1.2552 -1.5426
 2667SOL    HW220475   3.912   1.041   2.904 -1.2767 -0.8366  1.4960
 2668SOL     OW20476   0.937   7.309   7.370 -0.1584  0.1291  0.0842
 2668SOL    HW120477   0.904   7.278   7.460  0.7813 -0.3298  0.2766
 2668SOL    HW220478   0.858   7.328   7.311 -0.8038  1.4515  1.3336
 2669SOL     OW20479   4.238   8.356   0.227 -0.0592 -0.3384  0.3224
 2669SOL    HW120480   4.175   8.411   0.282 -0.5394 -1.2505  0.6937
 2669SOL    HW220481   4.286   8.415   0.163 -1.5908  0.3162 -0.2423
 2670SOL     OW20482   6.181   1.227   7.900  0.3176  0.5118 -0.5621
 2670SOL    HW120483   6.204   1.158   7.969 -0.2321 -0.2701 -1.1529
 2670SOL    HW220484   6.154   1.311   7.946  1.5356  0.5246  0.1638
 2671SOL     OW20485   7.080   6.174   7.546 -0.1733  0.3490 -0.5345
 2671SOL    HW120486   6.999   6.166   7.487 -1.4026  1.5126  0.9496
 2671SOL    HW220487   7.056   6.224   7.629  2.0262  0.4836  0.0571
 2672SOL     OW20488   3.124   4.606   0.097  0.3359 -0.0073  0.0262
 2672SOL    HW120489   3.105   4.586   0.193 -3.6716 -0.3298 -0.7310
 2672SOL    HW220490   3.065   4.681   0.067 -0.0774 -1.4071 -2.7680
 2673SOL     OW20491   4.065   3.520   3.653  0.4378 -0.5598  0.0382
 2673SOL    HW120492   4.019   3.532   3.565 -0.0952 -0.5490  0.3206
 2673SOL    HW220493   4.127   3.441   3.647  0.7189 -0.3034 -0.4731
 2674SOL     OW20494   8.759   3.979   1.399 -0.2081 -0.2105  0.0740
 2674SOL    HW120495   8.692   3.958   1.471 -1.2879  1.2426 -0.4814
 2674SOL    HW220496   8.851   3.967   1.435 -0.7241  0.9396  1.8667
 2675SOL     OW20497   5.630   3.224   0.143  0.2988 -0.0045  0.1042
 2675SOL    HW120498   5.575   3.140   0.144  0.2385  0.0182  2.9571
 2675SOL    HW220499   5.723   3.203   0.113 -0.6672 -0.4115 -2.7483
 2676SOL     OW20500   1.028   2.942   3.789  0.7364 -0.0526 -0.6309
 2676SOL    HW120501   1.105   2.917   3.731  0.7320 -2.1131  0.2166
 2676SOL    HW220502   1.012   2.870   3.856  1.0802  2.4707  2.3003
 2677SOL     OW20503   8.419   4.505   7.420  0.4785  0.2918  0.6066
 2677SOL    HW120504   8.446   4.443   7.346 -0.8234  0.2803  0.1092
 2677SOL    HW220505   8.344   4.563   7.388  0.7074  1.1040  1.5435
 2678SOL     OW20506   1.869   8.315   0.204 -0.2535 -0.9072 -0.3547
 2678SOL    HW120507   1.861   8.215   0.215  0.0641 -0.8233  0.7182
 2678SOL    HW220508   1.963   8.343   0.223 -0.4150 -0.3650 -0.3487
 2679SOL     OW20509   2.031   2.934   7.334  0.7500  0.5188 -0.8268
 2679SOL    HW120510   1.952   2.907   7.388  0.9454  2.3573  0.4196
 2679SOL    HW220511   2.047   3.032   7.343  2.3613  0.4197 -2.1497
 2680SOL     OW20512   8.525   5.325   3.260 -0.6034  0.3758  0.1579
 2680SOL    HW120513   8.468   5.267   3.202 -0.6066  0.6381 -0.1010
 2680SOL    HW220514   8.556   5.272   3.339  0.6216 -0.4121 -0.8405
 2681SOL     OW20515   0.053   5.253   3.303 -0.4027 -0.0162  0.6179
 2681SOL    HW120516   0.091   5.345   3.310  0.8422 -0.5697  1.2965
 2681SOL    HW220517  -0.019   5.242   3.372 -1.8890  1.0639 -0.7309
 2682SOL     OW20518   8.149   7.058   7.660  0.1241  0.3220 -0.1974
 2682SOL    HW120519   8.248   7.054   7.646  0.2338  1.2984  0.2221
 2682SOL    HW220520   8.130   7.066   7.758 -0.4165 -0.8851 -0.1965
 2683SOL     OW20521   0.738   2.931   4.260  0.1235  0.1364  0.5095
 2683SOL    HW120522   0.817   2.969   4.212  0.8294  0.1556  1.6634
 2683SOL    HW220523   0.683   3.004   4.300  0.8689  0.0276  1.7752
 2684SOL     OW20524   3.844   2.752   8.961 -0.1935  0.0825  0.9299
 2684SOL    HW120525   3.752   2.752   9.001 -0.1668  1.3062  1.0091
 2684SOL    HW220526   3.856   2.833   8.904  0.4787 -0.6145  0.0678
 2685SOL     OW20527   7.925   1.950   1.738 -0.0449 -0.3321 -0.6653
 2685SOL    HW120528   7.845   1.914   1.786  2.0292 -2.2186  1.5574
 2685SOL    HW220529   7.951   1.887   1.665 -2.1541  1.6589 -3.2175
 2686SOL     OW20530   5.927   6.238   3.181  0.1443 -0.1110 -0.2532
 2686SOL    HW120531   6.001   6.305   3.181 -0.0413  0.1438  1.9597
 2686SOL    HW220532   5.857   6.267   3.247 -1.0993 -1.2342 -1.0634
 2687SOL     OW20533   6.193   4.726   0.739 -0.0883  0.5843 -0.1642
 2687SOL    HW120534   6.164   4.683   0.653 -0.7003  0.6270  0.0257
 2687SOL    HW220535   6.114   4.748   0.794  0.3335 -0.0638  0.7227
 2688SOL     OW20536   3.611   1.693   2.421  0.1598  0.2521 -0.0763
 2688SOL    HW120537   3.705   1.672   2.393  0.0524 -1.2828  0.7048
 2688SOL    HW220538   3.548   1.629   2.378 -0.5696  1.4617 -0.8272
 2689SOL     OW20539   5.805   1.142   7.933 -0.2299  0.0760 -0.5376
 2689SOL    HW120540   5.726   1.084   7.955 -1.2995  1.0358 -1.7390
 2689SOL    HW220541   5.840   1.119   7.842 -0.3104  0.9070 -0.7903
 2690SOL     OW20542   3.181   5.737   4.564  0.2263  0.0256  0.7292
 2690SOL    HW120543   3.084   5.740   4.587  0.1390 -1.4030  0.5636
 2690SOL    HW220544   3.218   5.646   4.584  1.2992  0.2567 -0.1150
 2691SOL     OW20545   5.437   4.583   4.796  0.4977  0.1062  0.4565
 2691SOL    HW120546   5.512   4.617   4.853 -0.2030 -0.5879  1.8131
 2691SOL    HW220547   5.474   4.524   4.725  1.3152  0.3539  0.6676
 2692SOL     OW20548   2.292   4.708   2.671 -0.5222  0.8012  0.7229
 2692SOL    HW120549   2.340   4.721   2.584 -0.2256  1.0009  0.9156
 2692SOL    HW220550   2.356   4.720   2.746 -0.2564 -1.5718  0.9264
 2693SOL     OW20551   6.139   7.962   8.192  0.0269 -0.3737  0.1987
 2693SOL    HW120552   6.112   7.874   8.153  1.5344 -0.9292  0.3583
 2693SOL    HW220553   6.095   7.974   8.280 -0.0367 -1.0717  0.2707
 2694SOL     OW20554   3.708   7.656   4.395 -0.3810  0.0042 -0.7047
 2694SOL    HW120555   3.642   7.729   4.378 -1.0770 -0.6057 -0.6745
 2694SOL    HW220556   3.784   7.691   4.450 -1.9750  0.0923  1.4816
 2695SOL     OW20557   1.102   8.717   2.797  0.7006 -0.3289 -0.4003
 2695SOL    HW120558   1.046   8.673   2.867  0.0930  1.5144  0.2926
 2695SOL    HW220559   1.051   8.725   2.712  0.4002  0.0968 -0.1794
 2696SOL     OW20560   4.360   5.705   3.040 -0.2946 -0.1255 -0.1853
 2696SOL    HW120561   4.394   5.740   3.127 -0.7350 -1.2868  0.4622
 2696SOL    HW220562   4.387   5.767   2.966  1.3212  0.1017  0.5948
 2697SOL     OW20563   8.603   5.391   7.254  0.5707 -0.0430  0.3923
 2697SOL    HW120564   8.658   5.347   7.325  0.5525 -1.1148 -0.2369
 2697SOL    HW220565   8.552   5.467   7.293  1.9286  0.5083  1.1464
 2698SOL     OW20566   6.630   0.540   3.369 -0.3412  0.1731  0.3651
 2698SOL    HW120567   6.684   0.478   3.313 -0.1767  0.9305 -0.3193
 2698SOL    HW220568   6.566   0.590   3.311  0.2465  1.3989  0.7618
 2699SOL     OW20569   0.134   3.531   2.219 -0.7985 -0.0234 -0.3950
 2699SOL    HW120570   0.105   3.436   2.231 -2.2995  0.6240  1.3278
 2699SOL    HW220571   0.166   3.568   2.306 -2.9920  1.9167 -0.3419
 2700SOL     OW20572   7.372   1.556   2.466  0.2315 -0.6057  0.7682
 2700SOL    HW120573   7.383   1.605   2.553 -0.9232 -1.0700  1.1819
 2700SOL    HW220574   7.281   1.515   2.462  0.4143 -0.9068 -0.5076
 2701SOL     OW20575   3.406   3.615   1.895 -0.4786 -0.0734  0.0485
 2701SOL    HW120576   3.360   3.702   1.913  0.7164  0.1856  1.9458
 2701SOL    HW220577   3.458   3.587   1.975  0.9847 -1.4230 -1.3241
 2702SOL     OW20578   3.599   2.909   7.046  0.1149 -0.2546  0.2438
 2702SOL    HW120579   3.622   2.873   6.955  0.2962 -0.0641  0.2144
 2702SOL    HW220580   3.591   2.833   7.111 -0.4295 -0.4270 -0.0212
 2703SOL     OW20581   3.302   3.694   4.642 -0.0390  0.1771 -0.8500
 2703SOL    HW120582   3.282   3.615   4.700 -0.6553  0.0235 -1.2653
 2703SOL    HW220583   3.259   3.776   4.681 -1.0200 -0.0466 -1.4307
 2704SOL     OW20584   6.131   2.891   2.939  0.0445 -0.0551 -0.2411
 2704SOL    HW120585   6.140   2.956   2.863 -0.9905  0.0234 -0.2980
 2704SOL    HW220586   6.214   2.895   2.996  1.5509 -1.3256 -2.2998
 2705SOL     OW20587   6.001   7.953   3.309 -0.2302 -0.7978  0.1912
 2705SOL    HW120588   6.054   7.989   3.386 -1.1590 -1.0700  0.9636
 2705SOL    HW220589   5.992   8.024   3.239 -1.0308  0.0902  1.1810
 2706SOL     OW20590   3.105   2.927   5.057 -0.4318 -0.1023  0.5824
 2706SOL    HW120591   3.194   2.921   5.103  0.4232 -2.1204 -1.2625
 2706SOL    HW220592   3.118   2.921   4.958 -2.6069  0.0729  0.2553
 2707SOL     OW20593   3.998   1.056   1.406  0.6057 -0.5696 -0.4030
 2707SOL    HW120594   3.937   1.041   1.328  0.8177  0.3146 -0.7386
 2707SOL    HW220595   3.956   1.120   1.470  1.4496  0.5642 -0.9619
 2708SOL     OW20596   4.742   3.810   1.147  0.2189  0.3819  0.3024
 2708SOL    HW120597   4.731   3.727   1.200  0.4407  0.6614  0.7893
 2708SOL    HW220598   4.828   3.855   1.172 -0.4566  1.3697  0.9003
 2709SOL     OW20599   7.980   0.512   2.830 -0.2734 -0.5310 -1.0177
 2709SOL    HW120600   7.900   0.523   2.888  0.6346 -0.5573  0.2726
 2709SOL    HW220601   8.032   0.598   2.829  0.2557 -0.8477 -0.9555
 2710SOL     OW20602   0.585   8.756   4.703  0.0123 -0.0103  0.4014
 2710SOL    HW120603   0.639   8.794   4.778 -1.0028 -2.3046  2.3276
 2710SOL    HW220604   0.637   8.684   4.658 -0.6623 -0.8700  0.9964
 2711SOL     OW20605   6.705   2.379   0.423  0.1177  0.4263  0.1459
 2711SOL    HW120606   6.722   2.302   0.484  1.4671 -0.4453 -1.3036
 2711SOL    HW220607   6.779   2.445   0.430  0.3288  0.2743 -0.6271
 2712SOL     OW20608   3.255   8.232   7.367  0.2028  0.5037  0.1155
 2712SOL    HW120609   3.291   8.317   7.405  1.6921 -0.1498  0.1965
 2712SOL    HW220610   3.321   8.193   7.302 -0.4082 -0.6581  0.1651
 2713SOL     OW20611   6.652   3.900   3.820  0.3438  0.1575 -0.0687
 2713SOL    HW120612   6.591   3.823   3.836  1.2378 -0.0856  2.3027
 2713SOL    HW220613   6.624   3.978   3.875  2.3185 -0.0549  1.2929
 2714SOL     OW20614   2.448   0.403   8.536 -0.8410  0.1015 -0.1110
 2714SOL    HW120615   2.405   0.367   8.454  0.4473 -1.3046 -0.1869
 2714SOL    HW220616   2.543   0.427   8.517 -0.1278 -1.4937  1.2741
 2715SOL     OW20617   3.332   6.877   8.488 -0.4794  0.2289  0.2207
 2715SOL    HW120618   3.355   6.806   8.556  1.3296  0.8987  0.3499
 2715SOL    HW220619   3.300   6.959   8.535 -0.3481  0.2920  0.1984
 2716SOL     OW20620   4.153   3.402   2.391 -0.4950 -0.7024  0.2264
 2716SOL    HW120621   4.221   3.448   2.449 -0.2418  1.3341 -1.6418
 2716SOL    HW220622   4.150   3.446   2.302 -4.4423 -0.6278  0.3153
 2717SOL     OW20623   4.629   1.801   8.218 -0.4926  0.6563 -0.2684
 2717SOL    HW120624   4.639   1.869   8.290 -1.2256 -0.7530  1.1944
 2717SOL    HW220625   4.713   1.747   8.211  1.1270  3.3945 -3.2631
 2718SOL     OW20626   8.976   1.675   4.511  0.6773  0.2869 -0.3149
 2718SOL    HW120627   9.019   1.608   4.572  1.8436 -0.6871 -2.1613
 2718SOL    HW220628   8.926   1.628   4.439  0.0071  1.4265 -0.6055
 2719SOL     OW20629   2.384   2.808   0.233  0.2368 -0.2569  0.9670
 2719SOL    HW120630   2.449   2.738   0.205 -0.8072 -0.2192 -1.7304
 2719SOL    HW220631   2.429   2.897   0.237 -0.0881  0.1810 -3.2424
 2720SOL     OW20632   4.860   3.043   4.503  0.3262 -0.0212 -0.3249
 2720SOL    HW120633   4.863   3.131   4.455  2.8612 -0.8293 -1.7828
 2720SOL    HW220634   4.783   2.989   4.469 -0.0009  0.8273 -0.9517
 2721SOL     OW20635   5.463   3.992   8.985 -0.3704  0.8414  0.8157
 2721SOL    HW120636   5.540   4.015   8.926 -1.0607 -1.2034 -0.9068
 2721SOL    HW220637   5.487   3.915   9.043 -1.2421 -0.0664 -0.0127
 2722SOL     OW20638   5.135   4.714   0.459 -0.2111 -0.1779  0.7863
 2722SOL    HW120639   5.114   4.747   0.551  0.9063  1.4283  0.4904
 2722SOL    HW220640   5.170   4.620   0.464 -0.6445 -0.2866  1.9446
 2723SOL     OW20641   5.807   5.315   7.218  0.6366  0.0899  0.2770
 2723SOL    HW120642   5.768   5.325   7.126  2.8636  0.6774 -0.6336
 2723SOL    HW220643   5.859   5.397   7.242 -1.0991  0.5322  2.6681
 2724SOL     OW20644   8.567   3.329   3.119  0.4758 -0.1619  0.0795
 2724SOL    HW120645   8.607   3.238   3.127 -2.7295 -1.6670 -0.1430
 2724SOL    HW220646   8.509   3.332   3.038  1.1717  2.3562 -0.3566
 2725SOL     OW20647   1.479   4.658   2.868 -0.2617  0.4693  0.5079
 2725SOL    HW120648   1.545   4.652   2.793 -0.7339  1.0307  0.0488
 2725SOL    HW220649   1.516   4.718   2.940 -0.2348  0.7228  0.2839
 2726SOL     OW20650   8.659   4.477   3.104  0.2664  0.1374  0.0568
 2726SOL    HW120651   8.702   4.388   3.087 -0.1371 -0.3465  1.5159
 2726SOL    HW220652   8.725   4.550   3.084  0.6574 -0.4938 -0.9699
 2727SOL     OW20653   1.461   7.852   0.199  0.0096  0.1272 -0.3315
 2727SOL    HW120654   1.402   7.803   0.135  1.6491 -1.1600 -0.8916
 2727SOL    HW220655   1.504   7.929   0.153  0.4290 -0.2188 -0.5269
 2728SOL     OW20656   1.352   1.965   8.715 -0.1938 -0.2146  0.4347
 2728SOL    HW120657   1.260   1.993   8.743 -0.8044 -0.4410 -1.3359
 2728SOL    HW220658   1.354   1.866   8.701  0.4608 -0.2836  0.9670
 2729SOL     OW20659   3.457   1.938   3.661 -0.4132 -0.4318 -0.0871
 2729SOL    HW120660   3.358   1.944   3.655 -0.4406 -0.0950  0.6186
 2729SOL    HW220661   3.497   1.933   3.570 -1.1619 -1.8617 -0.3489
 2730SOL     OW20662   8.260   5.147   1.573 -0.0742  0.2036 -0.1901
 2730SOL    HW120663   8.247   5.224   1.511  0.3378 -1.0939 -1.9044
 2730SOL    HW220664   8.357   5.128   1.583 -0.1914 -0.4220 -0.1941
 2731SOL     OW20665   5.898   0.872   1.312 -0.0330 -0.7503  0.2424
 2731SOL    HW120666   5.911   0.779   1.348 -0.4092 -0.9661 -0.1803
 2731SOL    HW220667   5.876   0.867   1.214  0.4996 -0.1890  0.0895
 2732SOL     OW20668   7.235   4.327   5.016 -0.0586 -0.8487  0.0849
 2732SOL    HW120669   7.181   4.410   5.026  0.8908 -0.3052  0.7433
 2732SOL    HW220670   7.187   4.251   5.059 -0.1900 -0.3141  0.8979
 2733SOL     OW20671   3.218   1.817   3.361  0.0118 -0.0703 -0.0064
 2733SOL    HW120672   3.148   1.772   3.416  0.9327  0.3844  1.5655
 2733SOL    HW220673   3.175   1.882   3.298 -0.9350  0.7055  1.4115
 2734SOL     OW20674   1.017   2.573   0.419  0.1606  0.4926  0.9528
 2734SOL    HW120675   0.956   2.494   0.416  0.8669 -0.0211 -0.4741
 2734SOL    HW220676   1.110   2.542   0.438  0.8666  0.6855 -1.9529
 2735SOL     OW20677   0.777   8.177   3.910  0.2530  0.2126  0.1151
 2735SOL    HW120678   0.823   8.197   3.823 -0.7685 -1.0469 -0.7315
 2735SOL    HW220679   0.720   8.254   3.937  0.6537  0.6458 -0.2732
 2736SOL     OW20680   0.196   5.941   6.341 -0.6551 -0.2759 -0.4388
 2736SOL    HW120681   0.107   5.982   6.321 -0.4756 -0.2378 -1.1632
 2736SOL    HW220682   0.267   6.011   6.332 -0.4584 -0.5119 -0.7014
 2737SOL     OW20683   8.951   4.389   0.031  0.6409 -0.3185 -0.2727
 2737SOL    HW120684   8.994   4.305  -0.002 -0.6320 -0.5620 -1.3668
 2737SOL    HW220685   8.957   4.460  -0.040  1.0207  0.2739  0.3455
 2738SOL     OW20686   5.060   6.182   0.221  0.0383  0.1307 -0.6357
 2738SOL    HW120687   5.143   6.237   0.219  1.1914 -1.5950 -0.9045
 2738SOL    HW220688   5.042   6.150   0.314  0.5754 -0.8323 -0.8576
 2739SOL     OW20689   4.834   1.993   8.589 -0.7333  0.9005  0.5250
 2739SOL    HW120690   4.930   2.020   8.602 -0.6961  0.4409  1.1984
 2739SOL    HW220691   4.781   2.074   8.562 -0.3263  1.3415  1.0169
 2740SOL     OW20692   7.090   7.642   0.615  0.0285  0.0199  0.7091
 2740SOL    HW120693   7.004   7.643   0.564 -0.2247  1.4980  1.1568
 2740SOL    HW220694   7.071   7.663   0.711  1.1267  2.4765  0.4222
 2741SOL     OW20695   4.254   5.453   3.858 -0.1189 -0.3678  0.7261
 2741SOL    HW120696   4.238   5.507   3.941 -1.1039 -2.1559  1.7376
 2741SOL    HW220697   4.343   5.478   3.819  1.1379 -0.7098  3.2707
 2742SOL     OW20698   1.953   5.962   8.628 -0.2788  0.1119  0.1105
 2742SOL    HW120699   2.024   6.002   8.686  1.1646  0.2498 -1.7217
 2742SOL    HW220700   1.993   5.937   8.540 -2.1444 -1.3396 -0.3385
 2743SOL     OW20701   2.631   5.574   4.666  0.1693 -0.4733  0.2675
 2743SOL    HW120702   2.688   5.507   4.619 -0.5194 -0.5020 -0.5433
 2743SOL    HW220703   2.535   5.549   4.656 -0.0695  0.3923  0.3406
 2744SOL     OW20704   2.442   8.451   7.586  0.0806  0.0163 -0.2346
 2744SOL    HW120705   2.366   8.391   7.613  0.2446 -0.6770 -1.2817
 2744SOL    HW220706   2.521   8.432   7.644 -0.0897 -0.2715 -0.0909
 2745SOL     OW20707   4.047   0.411   8.576  0.0299  0.0212  0.1762
 2745SOL    HW120708   3.974   0.446   8.516 -1.0504 -1.4768  0.5771
 2745SOL    HW220709   4.088   0.331   8.533  1.0823  0.5444  0.2104
 2746SOL     OW20710   3.695   0.027   3.709 -0.1091 -0.7773 -0.1993
 2746SOL    HW120711   3.755   0.051   3.632  1.3326 -0.2245  1.0763
 2746SOL    HW220712   3.655  -0.063   3.692  0.7732 -0.9915 -1.2595
 2747SOL     OW20713   1.245   7.767   2.510 -0.4970 -0.3596  0.3962
 2747SOL    HW120714   1.336   7.726   2.498  0.7423  2.7313 -1.4598
 2747SOL    HW220715   1.187   7.741   2.432 -0.0421  0.5213 -0.2478
 2748SOL     OW20716   3.919   1.965   8.953  0.0195 -0.5536 -0.0823
 2748SOL    HW120717   3.894   1.962   8.856  1.8183  0.4469 -0.5981
 2748SOL    HW220718   3.848   1.921   9.007 -0.7833 -1.5479 -1.9066
 2749SOL     OW20719   6.498   8.105   1.040  0.1850 -0.0843 -0.5497
 2749SOL    HW120720   6.406   8.097   1.079 -0.0086 -0.4847 -1.0815
 2749SOL    HW220721   6.506   8.044   0.961  1.4851 -1.3959  0.5736
 2750SOL     OW20722   2.903   8.274   6.417 -0.6717  0.5478  0.4466
 2750SOL    HW120723   2.865   8.354   6.463  1.0250  1.2257  0.6722
 2750SOL    HW220724   2.932   8.299   6.325 -3.4467 -0.6534 -0.8361
 2751SOL     OW20725   0.760   4.709   1.758 -0.4340  0.0607 -0.0433
 2751SOL    HW120726   0.759   4.803   1.724  1.2662 -0.4720 -1.6191
 2751SOL    HW220727   0.806   4.705   1.847  1.5150  0.4079 -1.0095
 2752SOL     OW20728   1.837   4.356   0.527 -0.1681 -0.7855  0.2163
 2752SOL    HW120729   1.807   4.357   0.432 -0.0333 -0.1963  0.1786
 2752SOL    HW220730   1.914   4.292   0.537 -1.2052 -2.0387  0.2500
 2753SOL     OW20731   8.442   1.384   7.641 -0.3219  0.1101  0.3357
 2753SOL    HW120732   8.477   1.405   7.549  1.5143  2.2813  1.4903
 2753SOL    HW220733   8.357   1.435   7.656 -0.0959  0.5314  0.1986
 2754SOL     OW20734   6.417   4.505   8.962 -0.1080  0.7335  0.0339
 2754SOL    HW120735   6.331   4.488   9.011 -0.0090  1.5400  0.4927
 2754SOL    HW220736   6.473   4.422   8.963  0.0275  0.8274  1.5488
 2755SOL     OW20737   8.621   4.095   4.118 -0.2818 -0.0287  0.5153
 2755SOL    HW120738   8.660   4.138   4.199 -0.9747  3.0627 -0.7085
 2755SOL    HW220739   8.522   4.091   4.126 -0.3771  0.5462 -0.2914
 2756SOL     OW20740   8.362   0.481   8.361 -0.0689 -0.9088  0.1872
 2756SOL    HW120741   8.378   0.577   8.385 -2.3660 -0.4517 -0.0075
 2756SOL    HW220742   8.391   0.465   8.267  0.4824 -0.4576  0.2753
 2757SOL     OW20743   1.358   7.893   5.752 -0.1789 -0.0155 -0.0127
 2757SOL    HW120744   1.331   7.848   5.667 -1.4663 -1.1317  0.9508
 2757SOL    HW220745   1.317   7.844   5.830 -1.1554  2.4831  1.1089
 2758SOL     OW20746   3.622   4.617   2.358  0.0068  0.4238  0.8756
 2758SOL    HW120747   3.575   4.696   2.318  0.4292  0.5787  0.6807
 2758SOL    HW220748   3.716   4.642   2.382  0.3188 -0.1661  0.3045
 2759SOL     OW20749   0.802   2.798   0.645 -0.1808 -0.3089  0.1510
 2759SOL    HW120750   0.732   2.815   0.575 -1.9740  0.5367  2.1002
 2759SOL    HW220751   0.834   2.886   0.681  0.6752 -0.7499  0.4792
 2760SOL     OW20752   7.447   1.854   2.920 -0.4665  0.0885 -0.0301
 2760SOL    HW120753   7.393   1.938   2.910  2.5079  1.9934 -0.5793
 2760SOL    HW220754   7.537   1.876   2.956  1.4442 -2.5131 -2.9840
 2761SOL     OW20755   0.423   7.732   4.920  0.1877 -0.0652 -0.1720
 2761SOL    HW120756   0.499   7.781   4.878 -0.5107 -1.6341 -3.5183
 2761SOL    HW220757   0.424   7.637   4.889 -2.3316 -0.4703  0.8313
 2762SOL     OW20758   3.212   8.509   8.345 -0.1503 -0.7445 -0.5426
 2762SOL    HW120759   3.198   8.432   8.408  1.0091 -0.5719 -0.0579
 2762SOL    HW220760   3.292   8.492   8.288  0.6924  0.5132  0.2260
 2763SOL     OW20761   1.962   5.513   3.926  0.0636 -0.1934 -0.5788
 2763SOL    HW120762   1.863   5.523   3.936  0.3245  1.4162  0.5845
 2763SOL    HW220763   1.989   5.421   3.956 -1.3574 -1.6407 -3.4285
 2764SOL     OW20764   0.306   4.403   7.517 -0.7017 -0.0683  0.5052
 2764SOL    HW120765   0.209   4.383   7.502 -1.1879  1.5121  1.4372
 2764SOL    HW220766   0.353   4.411   7.429 -0.9029 -3.0976  0.0566
 2765SOL     OW20767   6.586   1.362   8.786 -0.3544  0.1646  0.1362
 2765SOL    HW120768   6.532   1.435   8.745  0.0642 -1.5491 -3.7010
 2765SOL    HW220769   6.528   1.283   8.803 -0.3358  0.5549  2.1422
 2766SOL     OW20770   2.513   0.562   4.032  0.0121 -0.0761  0.4466
 2766SOL    HW120771   2.447   0.540   4.104 -0.0301  0.9730  0.7486
 2766SOL    HW220772   2.578   0.487   4.022  1.1098  0.4923  2.8288
 2767SOL     OW20773   3.676   8.944   5.079 -0.4644 -0.0997  0.0769
 2767SOL    HW120774   3.688   8.884   5.000 -1.3968  0.4616 -0.4971
 2767SOL    HW220775   3.757   9.003   5.089 -1.1677  1.1999 -1.6371
 2768SOL     OW20776   5.813   5.644   8.545  0.8118  0.3230 -0.5404
 2768SOL    HW120777   5.902   5.660   8.589  1.3205  0.2617 -1.5448
 2768SOL    HW220778   5.769   5.731   8.527  0.3913  0.3353  0.5115
 2769SOL     OW20779   3.595   7.321   0.555 -0.1012  0.0222 -0.0758
 2769SOL    HW120780   3.572   7.224   0.556  1.6931 -0.4227 -0.2380
 2769SOL    HW220781   3.636   7.345   0.467  0.7186  0.6184  0.4591
 2770SOL     OW20782   0.754   4.452   8.487  0.4314 -0.2355 -0.1169
 2770SOL    HW120783   0.816   4.529   8.474  1.5143 -1.2919 -1.3172
 2770SOL    HW220784   0.780   4.401   8.568  0.8517 -0.3943 -0.3483
 2771SOL     OW20785   7.614   6.546   2.668  0.1173 -0.4409 -0.3641
 2771SOL    HW120786   7.581   6.635   2.637 -0.2716 -0.5679 -0.3182
 2771SOL    HW220787   7.673   6.506   2.598  0.3953 -0.0915 -0.3307
 2772SOL     OW20788   3.937   0.359   1.094  0.3200 -0.1598  0.0373
 2772SOL    HW120789   4.019   0.303   1.083  0.9781  0.3186  2.1701
 2772SOL    HW220790   3.859   0.299   1.112  0.3419 -0.5797 -1.2528
 2773SOL     OW20791   5.775   7.364   0.433  0.3075  0.6430  0.2949
 2773SOL    HW120792   5.685   7.408   0.443 -1.3549 -3.4084  4.4339
 2773SOL    HW220793   5.767   7.288   0.369  0.3778 -0.7192  1.8937
 2774SOL     OW20794   3.449   7.611   3.037 -0.2580 -0.1860 -0.2800
 2774SOL    HW120795   3.478   7.615   2.942 -0.4856  0.2582 -0.3318
 2774SOL    HW220796   3.349   7.609   3.042 -0.2548  0.1723 -0.0374
 2775SOL     OW20797   3.517   0.100   0.107  0.1907 -0.2462  0.0965
 2775SOL    HW120798   3.510   0.196   0.132 -1.9976 -0.4132  0.2363
 2775SOL    HW220799   3.464   0.084   0.023 -1.8564 -1.8483  1.6329
 2776SOL     OW20800   0.206   8.351   0.724 -0.4109 -0.3615  0.3289
 2776SOL    HW120801   0.255   8.434   0.697 -1.5398  0.3746  0.5285
 2776SOL    HW220802   0.272   8.283   0.756  0.5442  0.3635 -0.0591
 2777SOL     OW20803   7.727   7.581   1.712  1.1739 -0.3802 -0.1741
 2777SOL    HW120804   7.744   7.492   1.669 -1.8129 -1.2924  0.3713
 2777SOL    HW220805   7.765   7.581   1.804 -0.4196 -1.8389  0.5199
 2778SOL     OW20806   4.914   0.888   3.117 -0.5650 -0.6371  0.7628
 2778SOL    HW120807   4.994   0.828   3.117 -1.2715 -1.6007  1.2089
 2778SOL    HW220808   4.938   0.975   3.159  0.7869 -0.1520 -0.9571
 2779SOL     OW20809   0.779   3.218   5.947 -0.1932  0.0562  0.2821
 2779SOL    HW120810   0.774   3.122   5.974  2.2476  0.6737  3.1119
 2779SOL    HW220811   0.778   3.224   5.847 -2.8160 -2.7160  0.0692
 2780SOL     OW20812   5.071   5.874   3.879  0.2357 -0.7072  0.5721
 2780SOL    HW120813   5.082   5.828   3.791  0.8328 -1.6720  1.1446
 2780SOL    HW220814   4.975   5.872   3.906 -0.2388  1.1464 -0.8830
 2781SOL     OW20815   5.166   7.617   0.933  0.1598  0.2006 -0.1750
 2781SOL    HW120816   5.175   7.715   0.912 -1.4425  0.9150  2.2144
 2781SOL    HW220817   5.108   7.574   0.864 -1.0622  1.4650  0.0368
 2782SOL     OW20818   3.962   5.191   2.304 -0.1910  0.0706 -0.1403
 2782SOL    HW120819   3.988   5.156   2.215 -1.7385 -0.7088 -0.3037
 2782SOL    HW220820   3.873   5.236   2.297  0.0620  0.7507  0.8434
 2783SOL     OW20821   4.080   3.012   7.421  0.5722  0.0959  0.1668
 2783SOL    HW120822   4.095   2.956   7.502 -1.9511  0.1371  0.7212
 2783SOL    HW220823   4.157   3.002   7.358  1.1906 -2.2270  1.2486
 2784SOL     OW20824   7.196   2.689   3.205 -0.4752 -0.3649 -0.5415
 2784SOL    HW120825   7.259   2.701   3.128 -2.3259  1.5960 -1.8047
 2784SOL    HW220826   7.226   2.748   3.280  0.4791 -1.1657 -0.2725
 2785SOL     OW20827   1.386   8.273   7.188  0.2278  0.0845 -0.1794
 2785SOL    HW120828   1.413   8.366   7.213  0.6604 -0.4657  1.4952
 2785SOL    HW220829   1.467   8.214   7.185  0.1868  0.1025 -2.9299
 2786SOL     OW20830   5.426   4.371   8.388  0.0974  0.4974 -0.1499
 2786SOL    HW120831   5.512   4.360   8.339 -0.3716 -0.1651 -0.8408
 2786SOL    HW220832   5.370   4.289   8.375 -0.7885  1.0722 -0.0132
 2787SOL     OW20833   1.988   7.340   2.061  0.3501  0.5424  0.4326
 2787SOL    HW120834   1.997   7.255   2.010 -0.5601  1.8615 -1.9676
 2787SOL    HW220835   2.071   7.355   2.116  1.7521 -0.4322 -1.3695
 2788SOL     OW20836   5.919   0.776   2.599 -0.6482 -0.1962 -0.1887
 2788SOL    HW120837   5.840   0.785   2.659  0.8083 -0.5074  1.8100
 2788SOL    HW220838   5.922   0.854   2.536 -2.6230 -0.2769 -0.4152
 2789SOL     OW20839   6.149   6.896   4.398 -0.3060 -0.0899 -0.3141
 2789SOL    HW120840   6.215   6.901   4.323 -1.6009 -1.8511 -1.6007
 2789SOL    HW220841   6.176   6.823   4.461  0.6618  1.2462  0.8365
 2790SOL     OW20842   3.248   4.212   3.722 -0.2801  0.0368 -0.2728
 2790SOL    HW120843   3.231   4.264   3.638  0.1987  0.0247 -0.3794
 2790SOL    HW220844   3.172   4.227   3.786 -0.2296  0.7291 -0.3687
 2791SOL     OW20845   4.080   1.761   0.580  0.1451 -0.7871  0.0807
 2791SOL    HW120846   4.063   1.782   0.484 -0.2055 -0.4903  0.2086
 2791SOL    HW220847   4.143   1.683   0.586  1.6139  0.3254 -0.4078
 2792SOL     OW20848   2.421   5.140   5.179  0.4151  0.6318  0.2695
 2792SOL    HW120849   2.482   5.156   5.257  0.8529  0.3695 -0.0162
 2792SOL    HW220850   2.409   5.226   5.129  2.1936  0.2584 -0.8489
 2793SOL     OW20851   8.455   6.298   1.580  0.5386 -0.4047 -0.0434
 2793SOL    HW120852   8.546   6.265   1.604  0.6418  0.7093  1.1226
 2793SOL    HW220853   8.449   6.396   1.597 -1.0061 -0.5443  0.2502
 2794SOL     OW20854   3.356   4.403   4.329  0.1890 -0.7151 -0.5636
 2794SOL    HW120855   3.377   4.348   4.248  3.2370 -0.5068  0.0586
 2794SOL    HW220856   3.395   4.494   4.318  0.7656 -0.7348  1.2112
 2795SOL     OW20857   3.717   3.768   5.883  0.4529 -0.3785  0.4746
 2795SOL    HW120858   3.660   3.755   5.801  1.0897 -1.1577  0.1386
 2795SOL    HW220859   3.743   3.678   5.919  1.2334 -0.0297  0.7857
 2796SOL     OW20860   1.178   3.505   2.332 -0.0433  0.0750 -0.7306
 2796SOL    HW120861   1.209   3.576   2.269  0.2086  0.4342 -0.2001
 2796SOL    HW220862   1.171   3.418   2.283  1.0330  0.1614 -1.0341
 2797SOL     OW20863   1.746   5.536   6.904  0.0137  0.5926  0.4213
 2797SOL    HW120864   1.680   5.484   6.959 -1.0349  1.6768  0.2163
 2797SOL    HW220865   1.721   5.632   6.905  0.1962  0.6794 -1.6618
 2798SOL     OW20866   2.723   6.320   7.762 -0.0023 -0.1812  0.0113
 2798SOL    HW120867   2.673   6.258   7.701  0.4167  1.0930 -1.6706
 2798SOL    HW220868   2.658   6.376   7.813 -0.4050 -2.4447  2.0561
 2799SOL     OW20869   4.240   1.312   6.819  0.5722  0.7616 -0.6196
 2799SOL    HW120870   4.291   1.254   6.882  0.2922 -0.8895 -1.9008
 2799SOL    HW220871   4.303   1.358   6.757  0.7445  1.3831  0.0051
 2800SOL     OW20872   1.741   0.146   7.381  0.0164 -0.1657 -0.2443
 2800SOL    HW120873   1.819   0.091   7.350  0.1069  0.1128 -0.5094
 2800SOL    HW220874   1.772   0.212   7.449 -0.3831 -1.5645  1.3505
 2801SOL     OW20875   0.777   1.850   8.628 -0.4644 -0.1029 -0.4013
 2801SOL    HW120876   0.686   1.821   8.599 -0.2476  0.1236 -1.3210
 2801SOL    HW220877   0.799   1.938   8.585  0.1785 -0.1452 -0.1635
 2802SOL     OW20878   5.737   5.035   8.373 -0.2029  0.1678 -0.2482
 2802SOL    HW120879   5.725   5.095   8.294  2.8220  0.6028 -0.4291
 2802SOL    HW220880   5.677   5.066   8.447 -1.8432  0.7628 -1.7771
 2803SOL     OW20881   4.445   0.151   7.876  0.1745  0.2691  0.5069
 2803SOL    HW120882   4.412   0.176   7.785 -0.1697  0.3176  0.6462
 2803SOL    HW220883   4.534   0.106   7.867 -0.4446 -0.8838  0.0318
 2804SOL     OW20884   2.134   5.037   3.577 -0.0770  0.1539  0.3024
 2804SOL    HW120885   2.052   4.981   3.569  0.6875 -1.3510  2.4060
 2804SOL    HW220886   2.163   5.068   3.487 -1.6233 -1.2282 -0.6930
 2805SOL     OW20887   8.453   4.217   8.951  0.3348  0.7055 -0.0468
 2805SOL    HW120888   8.517   4.191   9.024  0.5015 -1.2882 -0.8702
 2805SOL    HW220889   8.463   4.154   8.874 -4.4433 -1.4057  0.8458
 2806SOL     OW20890   8.775   2.897   8.070 -0.0526  0.1182 -0.0893
 2806SOL    HW120891   8.771   2.937   7.979  0.0170 -1.0171 -0.6022
 2806SOL    HW220892   8.831   2.814   8.068 -2.5827 -1.6432  0.3119
 2807SOL     OW20893   6.441   8.766   8.944  0.2001 -0.2629 -0.2149
 2807SOL    HW120894   6.465   8.841   8.883  0.6121 -0.7056 -0.6064
 2807SOL    HW220895   6.518   8.702   8.949  0.5169  0.2110  1.4548
 2808SOL     OW20896   3.122   7.350   3.476  0.3304 -0.0129 -0.6305
 2808SOL    HW120897   3.168   7.315   3.394 -0.2648  0.1610 -1.0429
 2808SOL    HW220898   3.187   7.402   3.531  0.6784  0.0581 -1.1050
 2809SOL     OW20899   1.453   7.559   1.458  1.0397 -0.5617 -0.0807
 2809SOL    HW120900   1.422   7.653   1.447  0.5014 -0.5865  1.1050
 2809SOL    HW220901   1.543   7.558   1.501  1.5099 -0.5668 -1.0517
 2810SOL     OW20902   6.446   3.226   8.425 -0.5778 -0.2898 -0.0156
 2810SOL    HW120903   6.463   3.150   8.363  1.3134 -0.4653  0.6871
 2810SOL    HW220904   6.408   3.303   8.373 -3.4293 -1.9853 -0.5635
 2811SOL     OW20905   6.629   3.737   0.766  0.0163  0.2425  0.1880
 2811SOL    HW120906   6.722   3.717   0.734  0.2211 -0.0059  0.9244
 2811SOL    HW220907   6.630   3.824   0.816 -0.5888  1.3811 -1.7453
 2812SOL     OW20908   4.302   3.139   8.095 -0.1671  0.3565 -0.6672
 2812SOL    HW120909   4.343   3.153   8.185  0.9398 -0.7454 -0.9989
 2812SOL    HW220910   4.228   3.072   8.101  1.1418 -1.1170 -0.9165
 2813SOL     OW20911   6.731   6.619   7.844  0.9806  0.0300  0.3350
 2813SOL    HW120912   6.800   6.586   7.908 -0.4027  0.4794  2.1141
 2813SOL    HW220913   6.640   6.599   7.881  0.1466  0.3534 -1.4821
 2814SOL     OW20914   8.850   5.082   2.849  0.9332  0.0454 -0.0909
 2814SOL    HW120915   8.782   5.147   2.883  2.2369  2.5040 -1.9275
 2814SOL    HW220916   8.924   5.074   2.916  0.8031  0.5753  0.1233
 2815SOL     OW20917   3.202   3.718   7.627 -0.2495  0.2552 -0.8056
 2815SOL    HW120918   3.145   3.637   7.609  0.7617 -0.4943 -0.6521
 2815SOL    HW220919   3.176   3.791   7.564 -1.2702 -0.1392 -0.8539
 2816SOL     OW20920   3.294   0.390   5.410  0.2652  0.5610  0.1513
 2816SOL    HW120921   3.319   0.331   5.486 -1.4127  0.2057  0.4605
 2816SOL    HW220922   3.195   0.387   5.397  0.2602  2.5536 -0.4543
 2817SOL     OW20923   2.834   3.031   4.200  0.1813 -0.3364 -0.8869
 2817SOL    HW120924   2.771   3.108   4.206 -0.3363 -0.8618  0.7614
 2817SOL    HW220925   2.843   3.002   4.104 -0.2247  1.2395 -1.4197
 2818SOL     OW20926   0.787   0.054   2.253  0.2950  0.1722 -0.3253
 2818SOL    HW120927   0.719   0.058   2.179  0.0918  0.0035 -0.1481
 2818SOL    HW220928   0.879   0.054   2.213  0.1902  0.3239 -0.5691
 2819SOL     OW20929   4.462   7.313   6.625 -0.5931 -0.6825  0.1068
 2819SOL    HW120930   4.435   7.409   6.620 -2.4709 -1.2230 -0.5805
 2819SOL    HW220931   4.417   7.262   6.552 -0.6222 -2.3107  1.2356
 2820SOL     OW20932   2.573   2.088   2.516 -0.5743 -0.3409  0.3943
 2820SOL    HW120933   2.476   2.092   2.492 -0.8833  0.3672  1.6933
 2820SOL    HW220934   2.583   2.044   2.606  0.4275 -1.6571 -0.3301
 2821SOL     OW20935   5.619   7.423   5.098 -0.3078 -0.2181 -0.3924
 2821SOL    HW120936   5.589   7.481   5.022  0.1405 -0.8152 -1.0370
 2821SOL    HW220937   5.544   7.411   5.163 -1.1668 -0.9263 -1.4967
 2822SOL     OW20938   8.045   3.283   7.671 -0.3995  0.1198 -0.2745
 2822SOL    HW120939   7.991   3.363   7.698 -0.7836  0.0273 -0.7785
 2822SOL    HW220940   8.142   3.307   7.674 -0.5052  0.5487 -0.2341
 2823SOL     OW20941   5.911   2.611   1.432 -0.2156  0.6446  0.1157
 2823SOL    HW120942   5.926   2.513   1.439 -2.3130  0.3883  1.1747
 2823SOL    HW220943   5.864   2.632   1.346  1.4291  0.8841 -0.7426
 2824SOL     OW20944   6.960   4.646   1.703  0.3375 -0.1494  0.7280
 2824SOL    HW120945   7.006   4.647   1.614 -0.5565  0.5303  0.2635
 2824SOL    HW220946   6.956   4.553   1.738  3.7911 -0.0195  1.6857
 2825SOL     OW20947   2.968   4.402   3.572  0.1652 -0.4232 -0.0277
 2825SOL    HW120948   2.979   4.466   3.649 -1.2516  0.5570 -0.6051
 2825SOL    HW220949   2.896   4.337   3.594 -0.0436 -0.3190 -0.4116
 2826SOL     OW20950   2.765   5.500   5.367 -0.4447  0.6058 -0.4122
 2826SOL    HW120951   2.813   5.448   5.296 -2.3457 -2.3388  0.3833
 2826SOL    HW220952   2.823   5.506   5.448 -0.3897 -0.7416 -0.3383
 2827SOL     OW20953   7.082   7.087   7.176  0.0835 -0.1811  0.0237
 2827SOL    HW120954   7.064   7.163   7.239  2.0425  0.7434 -0.4734
 2827SOL    HW220955   7.174   7.098   7.138 -1.6717  0.3059 -4.3626
 2828SOL     OW20956   7.160   8.252   5.627  0.7286 -0.0016  0.3525
 2828SOL    HW120957   7.070   8.290   5.606  0.5917  0.1317  1.1410
 2828SOL    HW220958   7.149   8.160   5.665  1.0327 -0.6502 -1.1077
 2829SOL     OW20959   2.153   3.546   4.524  0.4766  0.0280  0.4050
 2829SOL    HW120960   2.222   3.618   4.514  1.4983 -0.9910  0.0215
 2829SOL    HW220961   2.066   3.578   4.486  0.8652  1.1388  0.4272
 2830SOL     OW20962   6.363   2.808   6.545 -0.7783 -0.1022  0.0359
 2830SOL    HW120963   6.413   2.767   6.622  0.9903  3.0635  0.6578
 2830SOL    HW220964   6.421   2.807   6.464 -1.3996 -0.4088 -0.4091
 2831SOL     OW20965   7.508   7.203   0.797 -0.3387 -0.0202  0.0013
 2831SOL    HW120966   7.500   7.141   0.719 -0.5237  0.0810 -0.0610
 2831SOL    HW220967   7.435   7.271   0.793  0.4992  0.8667 -0.5216
 2832SOL     OW20968   1.782   2.523   5.570 -0.1485 -0.1779 -0.0725
 2832SOL    HW120969   1.864   2.545   5.516 -0.7539  1.7068 -0.2681
 2832SOL    HW220970   1.737   2.443   5.530 -0.0738  0.6261 -1.8573
 2833SOL     OW20971   0.918   5.841   5.383 -0.7930  0.2487  0.1674
 2833SOL    HW120972   0.827   5.800   5.375 -0.6939  0.3495 -1.6296
 2833SOL    HW220973   0.986   5.768   5.388 -0.7809  0.1747 -0.9753
 2834SOL     OW20974   8.155   4.502   1.317  0.0624  0.4813 -0.1581
 2834SOL    HW120975   8.147   4.601   1.325 -1.7336  0.2933  0.5925
 2834SOL    HW220976   8.112   4.471   1.232  1.2161  0.3888 -0.7295
 2835SOL     OW20977   1.888   7.129   0.427  1.0350 -0.0465 -0.0878
 2835SOL    HW120978   1.794   7.098   0.414  1.4722 -1.0508 -0.9483
 2835SOL    HW220979   1.888   7.221   0.467 -0.3016 -0.1445  0.1525
 2836SOL     OW20980   3.651   2.269   7.817 -0.7279  0.3352 -0.3752
 2836SOL    HW120981   3.699   2.215   7.886 -0.9502 -0.9797 -1.2419
 2836SOL    HW220982   3.691   2.361   7.814 -0.0507  0.0973  0.7873
 2837SOL     OW20983   3.114   7.328   7.723 -0.0196 -0.9012 -0.3585
 2837SOL    HW120984   3.105   7.409   7.665  3.2712  1.4467  2.2240
 2837SOL    HW220985   3.029   7.315   7.776 -1.1722 -0.1415 -1.9851
 2838SOL     OW20986   8.808   8.497   6.297  0.5955 -0.5013  0.1710
 2838SOL    HW120987   8.745   8.482   6.220  1.6472  1.8717 -1.1970
 2838SOL    HW220988   8.895   8.532   6.262  1.4615 -0.4184  2.3742
 2839SOL     OW20989   1.059   4.286   2.202  0.1922 -0.1408  0.2559
 2839SOL    HW120990   0.989   4.220   2.177  0.0958 -0.6409  1.8089
 2839SOL    HW220991   1.025   4.345   2.276  0.5637  1.1409 -0.5669
 2840SOL     OW20992   5.369   1.275   4.878 -0.2120 -0.1141 -0.1570
 2840SOL    HW120993   5.467   1.256   4.884 -0.4885 -1.4379  0.6306
 2840SOL    HW220994   5.329   1.269   4.970 -1.3093 -1.2933 -0.6846
 2841SOL     OW20995   5.755   2.305   1.797  0.2212 -0.0480 -0.5062
 2841SOL    HW120996   5.834   2.291   1.856  3.0023 -1.0462 -4.2960
 2841SOL    HW220997   5.748   2.402   1.774 -1.6612  0.5717  2.3629
 2842SOL     OW20998   3.496   8.766   8.824  0.0731  0.0633  0.0112
 2842SOL    HW120999   3.403   8.732   8.839 -1.0584  2.7588 -0.4903
 2842SOL    HW221000   3.515   8.767   8.726  0.5285 -0.2190  0.0974
 2843SOL     OW21001   2.010   1.100   7.039 -0.2035  0.2337 -0.3181
 2843SOL    HW121002   1.979   1.119   6.946  0.1438  0.4569 -0.3905
 2843SOL    HW221003   2.108   1.077   7.038 -0.7394 -2.2248 -0.3163
 2844SOL     OW21004   2.519   6.976   0.196  0.0609  0.2437  0.0067
 2844SOL    HW121005   2.454   6.935   0.260  0.9373  0.6650  1.1786
 2844SOL    HW221006   2.611   6.944   0.216 -0.1253 -3.0588 -3.8259
 2845SOL     OW21007   4.846   3.113   8.416  0.5551  0.1221 -0.1892
 2845SOL    HW121008   4.911   3.074   8.351  0.1778 -0.6614 -0.0976
 2845SOL    HW221009   4.775   3.163   8.367  0.0284 -0.8328 -0.4053
 2846SOL     OW21010   5.477   7.269   8.134  0.4793 -0.2594 -0.3294
 2846SOL    HW121011   5.468   7.172   8.155 -0.1983 -0.6120 -2.1376
 2846SOL    HW221012   5.506   7.318   8.216 -1.8657 -1.5717  1.3680
 2847SOL     OW21013   5.694   3.478   8.388  0.2553  0.0687 -0.0831
 2847SOL    HW121014   5.632   3.539   8.339  1.3981 -0.0635 -1.7511
 2847SOL    HW221015   5.718   3.401   8.328  2.8580  0.6762  0.1375
 2848SOL     OW21016   2.335   6.865   0.361 -0.5541  0.1678  0.1267
 2848SOL    HW121017   2.244   6.887   0.395 -1.0644 -1.0662 -0.4249
 2848SOL    HW221018   2.382   6.807   0.428 -0.8047 -0.5876 -0.3472
 2849SOL     OW21019   0.671   6.047   5.854 -0.0145  0.3620  0.0255
 2849SOL    HW121020   0.735   6.085   5.921 -0.4585  1.0708  0.0583
 2849SOL    HW221021   0.618   5.974   5.898 -0.2323  0.7540  0.4312
 2850SOL     OW21022   2.570   4.939   5.550 -0.4298  0.3244 -0.3960
 2850SOL    HW121023   2.663   4.968   5.573 -0.5064  1.7649 -1.7575
 2850SOL    HW221024   2.506   5.012   5.575 -1.1838 -0.6230  0.4472
 2851SOL     OW21025   2.710   0.648   8.268 -0.0263  0.0705  0.0176
 2851SOL    HW121026   2.611   0.637   8.257  0.1136 -1.0078 -0.1616
 2851SOL    HW221027   2.753   0.656   8.178 -0.0730  1.7572  0.1182
 2852SOL     OW21028   3.796   0.034   6.108 -0.3035  0.5749  0.1355
 2852SOL    HW121029   3.734  -0.038   6.137 -1.3150  1.3303 -0.1088
 2852SOL    HW221030   3.890   0.008   6.128 -0.6247 -1.0034 -0.3884
 2853SOL     OW21031   1.611   3.530   0.396 -0.3074  0.7207  0.0758
 2853SOL    HW121032   1.638   3.524   0.301 -0.8145  0.0845 -0.0346
 2853SOL    HW221033   1.545   3.605   0.407 -0.9759  0.1872 -0.2538
 2854SOL     OW21034   2.472   6.150   0.761  0.3387  0.2690  0.4526
 2854SOL    HW121035   2.446   6.159   0.664  1.5145  0.6254  0.1640
 2854SOL    HW221036   2.452   6.235   0.809 -1.9103 -0.5000  0.9378
 2855SOL     OW21037   1.814   4.154   2.303  0.2264 -0.3953  0.1910
 2855SOL    HW121038   1.771   4.074   2.344  0.0725  0.0011  0.8044
 2855SOL    HW221039   1.766   4.178   2.218 -0.5864 -0.1232  0.7231
 2856SOL     OW21040   6.058   2.444   8.825  0.0014 -0.1314 -0.5669
 2856SOL    HW121041   6.035   2.535   8.790  0.3402 -0.1647 -0.8706
 2856SOL    HW221042   6.123   2.400   8.764  0.4788 -0.2515  0.0249
 2857SOL     OW21043   7.786   4.665   6.166 -0.5374  0.4303  0.0020
 2857SOL    HW121044   7.741   4.602   6.230 -0.1373 -0.3847 -0.5157
 2857SOL    HW221045   7.851   4.722   6.216  2.2606 -2.4774 -0.1396
 2858SOL     OW21046   6.562   7.653   1.201 -0.3857 -0.2648 -0.0735
 2858SOL    HW121047   6.536   7.626   1.108  1.2585 -0.8293 -0.3914
 2858SOL    HW221048   6.610   7.741   1.197  2.0912 -1.5750 -0.1100
 2859SOL     OW21049   5.570   7.344   7.173  0.0236  0.3313  0.5000
 2859SOL    HW121050   5.509   7.335   7.251  0.1169 -2.3871  0.3013
 2859SOL    HW221051   5.604   7.438   7.168 -1.9603  1.1860  2.2122
 2860SOL     OW21052   8.273   2.471   1.364 -0.5364  0.0760 -0.2586
 2860SOL    HW121053   8.343   2.518   1.418  0.2219 -0.5584 -0.6699
 2860SOL    HW221054   8.231   2.536   1.300  0.6943  0.1474 -1.0130
 2861SOL     OW21055   0.575   5.586   7.881  0.1736  0.6340 -0.4492
 2861SOL    HW121056   0.533   5.543   7.961  0.5887 -0.6376 -0.9076
 2861SOL    HW221057   0.512   5.654   7.844 -1.2550 -0.8316 -0.7727
 2862SOL     OW21058   3.149   7.644   2.978 -0.2781  0.2280  0.3321
 2862SOL    HW121059   3.155   7.630   3.077 -2.1033 -0.2334  0.3920
 2862SOL    HW221060   3.142   7.556   2.932  1.1068  0.4139 -0.2758
 2863SOL     OW21061   1.887   2.035   2.562 -0.1570 -0.3202 -0.9439
 2863SOL    HW121062   1.856   1.942   2.581  0.3209 -0.0516  1.2744
 2863SOL    HW221063   1.967   2.031   2.503  0.6562 -1.3986  0.1968
 2864SOL     OW21064   4.091   2.819   3.052  0.0189 -0.3896  0.7994
 2864SOL    HW121065   4.151   2.879   2.998 -2.3472  1.0068 -0.3733
 2864SOL    HW221066   4.092   2.727   3.014  0.6777 -0.1325  0.1919
 2865SOL     OW21067   3.785   6.767   8.285 -0.1011  0.3363  0.5499
 2865SOL    HW121068   3.698   6.726   8.311 -1.6756  2.7034 -0.7430
 2865SOL    HW221069   3.797   6.854   8.334  1.4000  0.1922  0.4777
 2866SOL     OW21070   0.301   0.362   6.169 -0.2742 -0.1302  0.2052
 2866SOL    HW121071   0.307   0.310   6.255 -1.2042  0.9083  0.9037
 2866SOL    HW221072   0.241   0.441   6.182  2.6660  2.2722 -0.2640
 2867SOL     OW21073   4.548   7.670   6.375  0.1125  0.5696  0.2187
 2867SOL    HW121074   4.502   7.586   6.346  1.1801 -0.3230  1.0626
 2867SOL    HW221075   4.480   7.742   6.387 -0.8890 -0.3138 -0.0230
 2868SOL     OW21076   0.876   1.620   4.627 -0.5479  0.2921  0.0095
 2868SOL    HW121077   0.883   1.540   4.687  1.9833 -1.5735 -2.6425
 2868SOL    HW221078   0.811   1.601   4.554 -0.9536  1.2290  0.1102
 2869SOL     OW21079   3.165   5.450   6.916 -0.2705  0.2139  0.1494
 2869SOL    HW121080   3.065   5.445   6.916 -0.3061  0.8754  0.9933
 2869SOL    HW221081   3.196   5.495   6.833 -0.5688 -1.7317 -1.0612
 2870SOL     OW21082   2.150   4.206   3.631 -0.5915  0.0777  0.0280
 2870SOL    HW121083   2.201   4.201   3.717 -1.2329  2.6842  0.5955
 2870SOL    HW221084   2.066   4.257   3.645 -0.7328  0.4779 -2.1420
 2871SOL     OW21085   0.696   5.297   2.013 -0.2055 -0.5944 -0.1195
 2871SOL    HW121086   0.660   5.213   2.053  1.1177 -0.4919  1.2967
 2871SOL    HW221087   0.757   5.274   1.937 -0.5523 -0.8678 -0.3215
 2872SOL     OW21088   1.343   2.776   4.881 -0.6266 -0.3940 -0.0289
 2872SOL    HW121089   1.365   2.873   4.868 -1.7858 -0.2789 -1.3307
 2872SOL    HW221090   1.363   2.726   4.797  3.6613 -2.0527  1.8723
 2873SOL     OW21091   1.196   1.393   4.084 -0.6301  0.8047  0.5804
 2873SOL    HW121092   1.294   1.407   4.098 -0.4497 -1.6661  2.0935
 2873SOL    HW221093   1.181   1.314   4.025 -1.7065  0.1259  1.7136
 2874SOL     OW21094   6.935   8.541   7.891  0.1152 -0.2221  0.3380
 2874SOL    HW121095   6.862   8.538   7.822 -0.9140 -1.9365  1.4752
 2874SOL    HW221096   6.901   8.585   7.974  1.0531  0.9014  0.1581
 2875SOL     OW21097   8.039   3.508   8.271  0.3899  0.4890  0.1888
 2875SOL    HW121098   8.006   3.495   8.177 -0.9984 -1.4208  0.9162
 2875SOL    HW221099   8.123   3.455   8.285  0.1842  0.1841  0.2546
 2876SOL     OW21100   4.290   3.692   6.639 -0.2635 -0.0939 -0.0403
 2876SOL    HW121101   4.319   3.695   6.735 -0.4961  1.3449 -0.0136
 2876SOL    HW221102   4.302   3.599   6.604  0.3219 -0.5060  1.2281
 2877SOL     OW21103   2.407   0.644   7.814  0.6422 -0.2666 -0.1183
 2877SOL    HW121104   2.340   0.575   7.842  0.1400  0.8281  1.4368
 2877SOL    HW221105   2.378   0.684   7.728 -1.9925  1.8160  1.6530
 2878SOL     OW21106   6.711   6.137   6.382 -0.0768 -0.3128 -0.2014
 2878SOL    HW121107   6.736   6.173   6.472  0.6037  2.1159 -1.3330
 2878SOL    HW221108   6.762   6.053   6.364 -0.7952 -1.2692  1.9731
 2879SOL     OW21109   2.499   4.418   1.761 -0.0191 -0.2349 -0.2263
 2879SOL    HW121110   2.482   4.335   1.707  1.2567 -2.5348  2.7373
 2879SOL    HW221111   2.598   4.428   1.775 -0.3373  0.0318  1.9967
 2880SOL     OW21112   1.523   0.518   5.586 -0.0693  0.8214  0.6952
 2880SOL    HW121113   1.456   0.481   5.522 -0.1262  0.9273  0.6951
 2880SOL    HW221114   1.598   0.452   5.597  0.2686  1.0876  0.0117
 2881SOL     OW21115   8.569   2.662   4.066 -0.3388 -0.1774 -0.2652
 2881SOL    HW121116   8.485   2.609   4.055  0.5819 -1.1389 -2.9464
 2881SOL    HW221117   8.647   2.600   4.077  0.2838  0.6810  0.2528
 2882SOL     OW21118   0.293   3.563   7.152  0.1916 -0.3607  0.6902
 2882SOL    HW121119   0.387   3.537   7.130  0.3060 -0.5151  1.3431
 2882SOL    HW221120   0.294   3.636   7.219 -0.1563 -0.3606  0.6959
 2883SOL     OW21121   5.838   4.044   6.043 -0.2669 -0.4478  0.1453
 2883SOL    HW121122   5.866   3.950   6.064  1.9697  0.5064  1.5982
 2883SOL    HW221123   5.768   4.073   6.108  0.2049 -0.5693  0.7148
 2884SOL     OW21124   4.205   5.789   1.198 -0.1371 -0.6635  0.1711
 2884SOL    HW121125   4.190   5.734   1.116  2.8864  1.6608 -2.0082
 2884SOL    HW221126   4.150   5.872   1.193  1.7868  0.5958 -0.6654
 2885SOL     OW21127   1.912   4.265   7.957 -0.3880 -0.5821 -0.2102
 2885SOL    HW121128   1.915   4.290   7.860  0.2166 -0.4896 -0.1663
 2885SOL    HW221129   1.962   4.333   8.011 -1.7556  0.0383  0.3088
 2886SOL     OW21130   6.886   8.528   7.465  0.8539 -1.2056 -0.2488
 2886SOL    HW121131   6.909   8.621   7.492 -1.0551 -0.4132 -1.2892
 2886SOL    HW221132   6.923   8.511   7.373 -0.7791 -0.6783 -1.0128
 2887SOL     OW21133   3.057   5.156   8.571 -0.2505 -0.0685 -0.2322
 2887SOL    HW121134   2.993   5.135   8.645 -0.1807  1.6233  0.3379
 2887SOL    HW221135   3.007   5.186   8.490 -0.2985 -1.4089 -0.7156
 2888SOL     OW21136   6.039   2.908   2.078  0.1668  0.1730 -0.3998
 2888SOL    HW121137   6.023   2.922   1.980 -0.5678  0.6464 -0.2178
 2888SOL    HW221138   6.137   2.914   2.097  0.5151 -1.8637 -1.3952
 2889SOL     OW21139   8.248   5.949   6.456 -0.3994  0.2426  0.0729
 2889SOL    HW121140   8.245   5.994   6.545  0.3859  1.0224 -0.2826
 2889SOL    HW221141   8.174   5.984   6.398 -0.7489 -0.0740  0.3268
 2890SOL     OW21142   8.129   4.401   1.938  0.5075 -0.1989  0.5223
 2890SOL    HW121143   8.040   4.386   1.980 -0.8633 -2.0197 -2.8368
 2890SOL    HW221144   8.133   4.493   1.899  0.5586  0.2978  1.6790
 2891SOL     OW21145   6.494   4.243   8.949 -0.8837  0.6042 -0.0073
 2891SOL    HW121146   6.554   4.210   8.876 -0.8057 -0.8100  0.6667
 2891SOL    HW221147   6.533   4.218   9.038 -2.8990 -1.1887  0.4230
 2892SOL     OW21148   0.426   5.845   3.004 -0.1447 -0.0547  0.3560
 2892SOL    HW121149   0.431   5.944   3.019 -1.7405  0.3168 -1.3869
 2892SOL    HW221150   0.519   5.809   2.992  0.3673  1.4865 -0.5350
 2893SOL     OW21151   4.543   2.739   2.301 -0.2317  0.2277  0.4808
 2893SOL    HW121152   4.520   2.736   2.399 -1.5685 -0.2079  0.1668
 2893SOL    HW221153   4.500   2.819   2.260  2.0220  1.5680  0.6409
 2894SOL     OW21154   4.742   7.241   1.466  0.2308 -0.8275  0.1484
 2894SOL    HW121155   4.671   7.310   1.483  1.3713  0.0772  1.3771
 2894SOL    HW221156   4.733   7.206   1.373 -1.6558 -0.5304  0.2062
 2895SOL     OW21157   8.778   3.585   3.716  0.3683  0.4139 -0.3483
 2895SOL    HW121158   8.694   3.546   3.754  1.5082 -0.3055  1.4657
 2895SOL    HW221159   8.783   3.564   3.618 -1.9791  1.2171 -0.6680
 2896SOL     OW21160   2.706   2.344   0.746 -0.2431  0.1792  0.2875
 2896SOL    HW121161   2.675   2.249   0.748  0.7195 -0.1446  0.4340
 2896SOL    HW221162   2.750   2.363   0.658 -1.6203  0.8886 -0.2592
 2897SOL     OW21163   3.009   1.830   5.185  0.1382 -0.0423  0.6134
 2897SOL    HW121164   3.051   1.895   5.122  0.5396 -0.4087  0.5043
 2897SOL    HW221165   2.991   1.876   5.272  1.8742 -0.1963  1.0767
 2898SOL     OW21166   1.792   0.614   7.534 -0.0863  0.1423  0.3418
 2898SOL    HW121167   1.876   0.641   7.485  0.9551 -0.3027  1.8554
 2898SOL    HW221168   1.785   0.666   7.619 -0.8427 -0.5183  0.6867
 2899SOL     OW21169   4.237   3.781   6.995  0.8360  0.1665 -0.0210
 2899SOL    HW121170   4.280   3.707   6.944  1.7060  0.5467  0.1539
 2899SOL    HW221171   4.142   3.792   6.964  0.7493 -0.9073 -0.1540
 2900SOL     OW21172   1.992   0.573   0.278  0.4371 -0.3159 -0.4618
 2900SOL    HW121173   1.948   0.534   0.359  0.2980 -1.2480 -0.9831
 2900SOL    HW221174   2.000   0.672   0.289 -0.4081 -0.3276  0.2956
 2901SOL     OW21175   5.089   2.986   0.373 -0.1450 -0.8176  0.1023
 2901SOL    HW121176   5.116   2.961   0.466  1.9193  0.0628 -0.2462
 2901SOL    HW221177   5.048   2.906   0.328 -0.5439 -1.4362  1.5123
 2902SOL     OW21178   3.644   6.275   0.533 -0.0154  0.1627 -0.5400
 2902SOL    HW121179   3.715   6.341   0.507  1.2576 -1.7255 -2.0668
 2902SOL    HW221180   3.686   6.201   0.585 -1.0077 -0.5373 -0.7253
 2903SOL     OW21181   4.591   7.873   7.254  0.4270  0.2467  0.1536
 2903SOL    HW121182   4.615   7.970   7.243 -0.4582  0.4808  0.2655
 2903SOL    HW221183   4.494   7.861   7.235  1.1534 -1.1331 -3.1072
 2904SOL     OW21184   1.753   2.955   8.872 -0.6249 -0.2154  0.4285
 2904SOL    HW121185   1.679   2.961   8.938 -0.9692  0.2644 -0.0027
 2904SOL    HW221186   1.829   3.012   8.901 -0.9574  0.3581  0.1754
 2905SOL     OW21187   8.683   3.652   2.891 -0.1449 -0.2650  0.0019
 2905SOL    HW121188   8.694   3.624   2.986 -0.2380  0.1788  0.1407
 2905SOL    HW221189   8.647   3.575   2.838 -0.6348 -0.3309  0.4321
 2906SOL     OW21190   3.739   5.387   2.250 -0.3005  0.2335 -0.2200
 2906SOL    HW121191   3.714   5.375   2.154  0.7155 -2.7600 -0.1647
 2906SOL    HW221192   3.676   5.336   2.309  0.6336 -0.0993  0.5138
 2907SOL     OW21193   3.104   2.264   6.528  0.3471 -0.1171 -0.1444
 2907SOL    HW121194   3.183   2.292   6.473  0.2510  1.2378  0.3835
 2907SOL    HW221195   3.023   2.260   6.471  0.6977 -1.0267 -0.5871
 2908SOL     OW21196   6.750   3.330   5.206  1.1094  0.2738 -0.1360
 2908SOL    HW121197   6.666   3.300   5.251  1.2173  1.1420  0.6541
 2908SOL    HW221198   6.827   3.274   5.238  1.1831  0.8804  0.7435
 2909SOL     OW21199   2.984   6.924   6.741  0.0918  0.0173  0.2819
 2909SOL    HW121200   2.995   6.963   6.650  0.2494  3.1547  1.6004
 2909SOL    HW221201   3.048   6.847   6.752  0.9095  0.3657 -1.8257
 2910SOL     OW21202   3.873   5.810   5.394  0.3977  0.3307  0.0551
 2910SOL    HW121203   3.903   5.830   5.300  0.4480 -0.6279 -0.1354
 2910SOL    HW221204   3.947   5.831   5.458  1.1426 -1.1085 -0.3236
 2911SOL     OW21205   0.914   1.094   7.534 -0.4685 -0.5678 -0.0303
 2911SOL    HW121206   0.927   1.187   7.499  1.0820  0.2031  2.4612
 2911SOL    HW221207   0.820   1.082   7.566 -0.5202  0.3381  0.1517
 2912SOL     OW21208   2.115   3.639   1.372  0.2007 -0.5947 -0.1492
 2912SOL    HW121209   2.190   3.703   1.392 -0.9597  0.0312  2.4374
 2912SOL    HW221210   2.035   3.690   1.340  0.0074 -0.9816 -0.2903
 2913SOL     OW21211   5.080   4.938   8.363  0.1777  0.1512  0.2669
 2913SOL    HW121212   5.109   5.010   8.426  0.0136 -1.0090  1.6867
 2913SOL    HW221213   4.986   4.954   8.334 -0.9479 -1.1075  3.0003
 2914SOL     OW21214   4.098   7.521   4.165  0.2227  0.1542 -0.5105
 2914SOL    HW121215   4.049   7.580   4.229  2.6832  1.5787  0.1689
 2914SOL    HW221216   4.045   7.510   4.082 -1.3314  1.4149  0.2914
 2915SOL     OW21217   0.615   8.094   0.295 -0.1606  0.2717 -0.4671
 2915SOL    HW121218   0.709   8.113   0.324  0.5932 -1.6309 -1.5444
 2915SOL    HW221219   0.551   8.136   0.360  1.4430 -0.5397  1.7138
 2916SOL     OW21220   4.700   5.349   4.237  0.0833  0.4373 -0.2952
 2916SOL    HW121221   4.638   5.349   4.316  0.6682  1.8304  0.1835
 2916SOL    HW221222   4.699   5.440   4.194  2.3853  0.7183  0.1992
 2917SOL     OW21223   1.986   3.486   0.738  0.0118 -0.1918  0.5415
 2917SOL    HW121224   2.042   3.568   0.723 -1.6237  0.6936 -0.9054
 2917SOL    HW221225   1.931   3.468   0.657  2.0223 -4.0965 -0.0524
 2918SOL     OW21226   1.044   5.788   8.990  0.0246  0.3826 -0.4884
 2918SOL    HW121227   1.079   5.878   8.967  2.3086 -0.9347 -2.4342
 2918SOL    HW221228   1.118   5.721   8.986 -1.4191 -1.4459  1.8572
 2919SOL     OW21229   3.353   5.625   7.535  0.7420 -0.5737 -0.1820
 2919SOL    HW121230   3.354   5.715   7.491 -0.4875 -1.0414 -1.2110
 2919SOL    HW221231   3.287   5.566   7.487  0.9290 -1.7519  1.0048
 2920SOL     OW21232   3.354   5.344   2.019 -0.1660 -0.1813 -0.3391
 2920SOL    HW121233   3.334   5.301   2.107 -0.0853 -0.6517 -0.5495
 2920SOL    HW221234   3.452   5.335   1.999 -0.1755 -0.0280 -0.4558
 2921SOL     OW21235   8.430   2.302   7.525 -0.5992 -0.0368  0.5712
 2921SOL    HW121236   8.436   2.205   7.500 -1.1549  0.0780 -0.0339
 2921SOL    HW221237   8.380   2.352   7.453  0.4421  0.8534  0.4546
 2922SOL     OW21238   8.531   1.956   6.795  0.0731 -0.2923 -0.5132
 2922SOL    HW121239   8.621   1.964   6.837  0.2857  0.5039 -1.0978
 2922SOL    HW221240   8.462   1.988   6.860  0.3916  0.8542 -0.7248
 2923SOL     OW21241   5.150   6.255   5.442 -0.3274  0.4554 -0.3058
 2923SOL    HW121242   5.161   6.278   5.538  0.7638  0.8949 -0.5320
 2923SOL    HW221243   5.061   6.286   5.410 -0.2480  1.2879  0.2767
 2924SOL     OW21244   4.252   5.248   2.391  0.0260  0.1378  0.4855
 2924SOL    HW121245   4.293   5.195   2.316 -0.4869  0.0673  0.2450
 2924SOL    HW221246   4.166   5.204   2.418 -1.1484  1.6393 -0.7027
 2925SOL     OW21247   0.002   6.069   6.586  0.7493 -0.5086  0.2200
 2925SOL    HW121248   0.075   6.134   6.563  0.2853 -0.1656 -0.2988
 2925SOL    HW221249  -0.024   6.018   6.504 -1.0196  0.8140 -0.0487
 2926SOL     OW21250   2.401   6.314   2.235  0.0738 -0.4002  0.5478
 2926SOL    HW121251   2.427   6.401   2.194 -0.8822  0.2783  1.3607
 2926SOL    HW221252   2.431   6.311   2.330 -0.2009 -0.8090  0.6247
 2927SOL     OW21253   3.909   0.805   1.284 -0.4616 -0.0767 -0.3366
 2927SOL    HW121254   3.987   0.832   1.228 -0.7682  0.5532 -0.4676
 2927SOL    HW221255   3.932   0.814   1.381 -1.7887  4.4692 -0.3103
 2928SOL     OW21256   6.405   4.167   3.450  0.0140 -0.0626 -0.4009
 2928SOL    HW121257   6.487   4.134   3.496  1.0667  2.6415 -0.1952
 2928SOL    HW221258   6.346   4.214   3.517 -1.2535 -1.1755 -0.7229
 2929SOL     OW21259   7.501   7.118   3.475 -0.1866  0.4683  0.0832
 2929SOL    HW121260   7.489   7.185   3.548  3.1824  0.0244  1.1276
 2929SOL    HW221261   7.440   7.040   3.491 -0.4970  1.0153  1.6069
 2930SOL     OW21262   2.217   4.969   5.092 -0.0671  0.0724 -0.3492
 2930SOL    HW121263   2.196   4.995   4.998  0.0699  0.5927 -0.2420
 2930SOL    HW221264   2.283   5.034   5.130 -0.8245  0.4170  0.4002
 2931SOL     OW21265   6.122   5.761   2.621  0.0996 -0.3932  0.0220
 2931SOL    HW121266   6.151   5.823   2.548  0.2124 -0.4466  0.0219
 2931SOL    HW221267   6.026   5.735   2.606 -0.0970  0.1656  0.2872
 2932SOL     OW21268   4.041   4.600   5.878 -0.0339 -0.1566 -0.3544
 2932SOL    HW121269   3.950   4.630   5.906  0.3613  1.1040 -0.3895
 2932SOL    HW221270   4.094   4.576   5.960  0.3745  1.3769 -0.1473
 2933SOL     OW21271   0.162   2.429   3.370  0.2494 -0.3591 -0.3009
 2933SOL    HW121272   0.194   2.338   3.397  0.3668 -0.7630 -1.7632
 2933SOL    HW221273   0.090   2.459   3.433 -0.9396 -2.1839 -0.7362
 2934SOL     OW21274   6.183   6.620   6.806 -0.5779 -0.3093  0.6772
 2934SOL    HW121275   6.103   6.646   6.753 -0.0363  0.3408  0.1705
 2934SOL    HW221276   6.225   6.702   6.845  0.2921 -0.5634  0.2895
 2935SOL     OW21277   6.088   5.599   3.890 -0.1196  0.0204  0.0909
 2935SOL    HW121278   6.090   5.632   3.985  0.1231 -0.4582  0.2559
 2935SOL    HW221279   5.996   5.569   3.867 -0.8279  2.7002 -0.7240
 2936SOL     OW21280   3.883   7.777   1.107  0.0384 -0.0049  0.3142
 2936SOL    HW121281   3.824   7.857   1.103  0.4032  0.2479 -0.1629
 2936SOL    HW221282   3.836   7.699   1.065  0.7607  0.6687 -1.8356
 2937SOL     OW21283   3.923   2.199   6.679  0.8188 -0.4062  0.5276
 2937SOL    HW121284   3.893   2.215   6.585  0.4166  3.0170  1.1984
 2937SOL    HW221285   3.891   2.108   6.709 -0.5746 -0.7972 -2.0225
 2938SOL     OW21286   7.892   4.618   7.602  0.0310  0.2702 -0.0225
 2938SOL    HW121287   7.860   4.702   7.645  0.2362  0.0077  0.6485
 2938SOL    HW221288   7.950   4.568   7.665  0.3108 -0.1369 -0.5957
 2939SOL     OW21289   7.908   0.581   8.400 -0.2760 -0.4024  0.4559
 2939SOL    HW121290   7.924   0.583   8.301  1.7297  0.5938  0.7819
 2939SOL    HW221291   7.949   0.498   8.439 -0.7869 -0.6326  0.5144
 2940SOL     OW21292   4.754   3.777   6.530  0.0216 -0.5769  0.4557
 2940SOL    HW121293   4.817   3.821   6.594  1.6032  0.0772 -1.5007
 2940SOL    HW221294   4.761   3.678   6.538 -0.9767 -0.5106  2.4068
 2941SOL     OW21295   4.994   6.767   0.915 -0.3516 -0.2321 -0.1873
 2941SOL    HW121296   4.974   6.696   0.982 -1.8282  0.2383 -0.1124
 2941SOL    HW221297   4.946   6.747   0.830  0.8202 -0.3678 -0.8311
 2942SOL     OW21298   5.832   4.853   7.262  0.2855  0.7246  0.5046
 2942SOL    HW121299   5.797   4.910   7.337  0.2421  0.4337  0.7057
 2942SOL    HW221300   5.755   4.815   7.211  0.3138  0.4419  0.6749
 2943SOL     OW21301   3.976   4.858   2.105  0.0419  0.8969  0.2321
 2943SOL    HW121302   4.010   4.884   2.015 -0.5114  1.8032  0.2740
 2943SOL    HW221303   3.938   4.765   2.101  2.7859 -0.2543  0.2753
 2944SOL     OW21304   1.185   0.969   3.063 -0.4891  0.8597  0.1833
 2944SOL    HW121305   1.226   0.880   3.044 -1.3218  0.7483 -1.1574
 2944SOL    HW221306   1.105   0.957   3.123 -1.7077  0.4813 -1.4855
 2945SOL     OW21307   4.976   8.479   0.367 -0.5157 -0.1574  0.5531
 2945SOL    HW121308   4.931   8.495   0.455 -0.1046 -2.6721  1.2622
 2945SOL    HW221309   5.068   8.443   0.384  0.1428  0.7943 -0.9213
 2946SOL     OW21310   3.376   5.918   1.217  0.4699  0.6082 -0.0303
 2946SOL    HW121311   3.337   5.898   1.307  1.6176  0.7139  0.4912
 2946SOL    HW221312   3.447   5.852   1.195  2.5695  2.5792  0.6261
 2947SOL     OW21313   0.259   2.957   4.349 -0.0191 -0.2978 -0.0711
 2947SOL    HW121314   0.163   2.937   4.328 -0.2046  1.3061 -0.8006
 2947SOL    HW221315   0.296   2.884   4.407 -1.5966 -1.0613  0.0045
 2948SOL     OW21316   6.490   4.056   6.015  0.2033 -0.0509  0.3334
 2948SOL    HW121317   6.533   4.044   5.926  1.3372  1.1964  0.6943
 2948SOL    HW221318   6.440   4.143   6.017 -1.2578 -0.8666  0.3601
 2949SOL     OW21319   7.008   6.921   6.806  0.0558  0.1743  0.5680
 2949SOL    HW121320   6.919   6.878   6.793  1.0064 -1.2975 -1.4566
 2949SOL    HW221321   7.002   6.990   6.878 -2.6797  0.0459  0.5189
 2950SOL     OW21322   2.749   8.248   1.959  0.1656 -0.3838 -0.1761
 2950SOL    HW121323   2.761   8.148   1.957  2.0445 -0.1645 -0.5418
 2950SOL    HW221324   2.709   8.278   1.872 -0.7978 -0.8551  0.0953
 2951SOL     OW21325   0.582   4.361   5.344  0.4930  0.1695 -0.1728
 2951SOL    HW121326   0.609   4.447   5.301  0.6710  0.5389  0.6544
 2951SOL    HW221327   0.664   4.312   5.374  0.4906 -1.1218 -2.1744
 2952SOL     OW21328   7.041   2.792   2.398  0.3515  0.5499  0.3937
 2952SOL    HW121329   7.130   2.801   2.354  1.6646  0.9452  3.0037
 2952SOL    HW221330   7.031   2.863   2.467 -1.9381  0.4020  0.2533
 2953SOL     OW21331   1.054   0.689   0.047  0.4162  0.3139 -0.2116
 2953SOL    HW121332   1.098   0.737  -0.029 -4.3506  0.4027 -3.1286
 2953SOL    HW221333   1.068   0.590   0.037 -1.5373  0.1918 -2.2693
 2954SOL     OW21334   2.093   5.076   1.795 -0.2668 -0.1018 -0.0095
 2954SOL    HW121335   2.023   5.110   1.732  1.6876  0.0840 -2.1720
 2954SOL    HW221336   2.105   5.141   1.870 -1.1329  0.7576 -0.6011
 2955SOL     OW21337   5.887   5.456   5.098 -0.2683  0.5838  0.0978
 2955SOL    HW121338   5.917   5.402   5.019 -0.1168 -0.1690  0.6642
 2955SOL    HW221339   5.930   5.546   5.096  0.6224  0.1542 -0.0609
 2956SOL     OW21340   8.030   1.283   8.883  0.2733  0.2682 -0.8858
 2956SOL    HW121341   8.073   1.366   8.849  0.0217  0.4988 -0.6450
 2956SOL    HW221342   7.933   1.300   8.901  0.2609 -0.0258 -0.6551
 2957SOL     OW21343   6.602   1.671   8.187  0.0348 -0.1495  0.0709
 2957SOL    HW121344   6.561   1.596   8.135 -1.8507  0.9757 -0.1095
 2957SOL    HW221345   6.673   1.714   8.132 -0.9356  0.0871 -1.0182
 2958SOL     OW21346   6.484   7.778   2.402  0.8090  0.2020 -0.1738
 2958SOL    HW121347   6.509   7.686   2.435 -2.1719 -0.7291 -0.2987
 2958SOL    HW221348   6.524   7.847   2.463  0.4105 -1.3055  1.8775
 2959SOL     OW21349   0.091   3.789   7.225  0.3770  0.3408  0.4695
 2959SOL    HW121350   0.186   3.785   7.256  1.1561 -0.6236 -1.9282
 2959SOL    HW221351   0.071   3.881   7.192  0.4603  0.5601  1.0284
 2960SOL     OW21352   6.882   5.701   2.938 -0.0160  0.4254  0.5731
 2960SOL    HW121353   6.951   5.768   2.964 -0.3504  0.0331  2.5379
 2960SOL    HW221354   6.811   5.696   3.008 -0.3628 -1.4610  0.1267
 2961SOL     OW21355   4.901   2.546   4.575  0.1013  0.1986 -0.4478
 2961SOL    HW121356   4.889   2.639   4.610  1.1704  0.0348  0.3868
 2961SOL    HW221357   4.923   2.484   4.651  0.6850 -0.4884 -1.1665
 2962SOL     OW21358   2.435   0.547   5.228  0.1695 -0.5379 -0.5761
 2962SOL    HW121359   2.415   0.598   5.312  1.7811  0.3644 -0.7334
 2962SOL    HW221360   2.396   0.455   5.236 -0.7134 -0.0793  0.6724
 2963SOL     OW21361   1.142   1.368   6.221  0.0223 -0.4815 -0.5652
 2963SOL    HW121362   1.197   1.284   6.219  1.7264  0.6206 -1.2085
 2963SOL    HW221363   1.130   1.397   6.316  1.3408 -0.2406 -0.4631
 2964SOL     OW21364   4.430   6.073   2.021  0.4361 -0.7330  0.0578
 2964SOL    HW121365   4.393   6.155   2.065  1.3586 -0.1272 -0.2927
 2964SOL    HW221366   4.490   6.025   2.085  1.1726 -0.2626 -0.2742
 2965SOL     OW21367   0.698   4.852   4.679  0.8440 -0.0221  0.0938
 2965SOL    HW121368   0.655   4.763   4.666 -1.3833  0.9449  0.4790
 2965SOL    HW221369   0.717   4.867   4.776 -1.3520  1.0075  0.4025
 2966SOL     OW21370   7.234   3.310   3.650  0.4138 -0.1070  0.0076
 2966SOL    HW121371   7.182   3.273   3.727  0.7889  1.8922  1.2689
 2966SOL    HW221372   7.331   3.308   3.672  0.3356  3.6237  1.1124
 2967SOL     OW21373   0.956   2.613   6.584  0.4906  0.0394 -0.8175
 2967SOL    HW121374   0.995   2.580   6.670  0.9011  0.8262 -0.7024
 2967SOL    HW221375   0.909   2.700   6.600  0.8300  0.3430 -1.4441
 2968SOL     OW21376   0.094   7.161   5.795 -0.2402  0.3928  0.0346
 2968SOL    HW121377   0.163   7.096   5.763 -0.5480  0.4877 -0.8292
 2968SOL    HW221378   0.140   7.245   5.825  0.2700 -0.7099  2.4442
 2969SOL     OW21379   6.322   1.950   0.744 -0.0683 -0.1870 -0.3056
 2969SOL    HW121380   6.300   1.852   0.743  1.3561 -0.5322  0.3670
 2969SOL    HW221381   6.248   2.001   0.701 -1.3093 -1.4613  0.2621
 2970SOL     OW21382   2.620   8.521   3.699 -0.2263  0.3947 -0.3312
 2970SOL    HW121383   2.576   8.486   3.783  0.9211 -1.6869 -0.5622
 2970SOL    HW221384   2.719   8.508   3.706 -0.1152  0.3810 -1.9446
 2971SOL     OW21385   0.557   6.010   4.656 -0.3406  0.2608 -0.0317
 2971SOL    HW121386   0.567   6.077   4.730  1.4664  0.5121 -0.4968
 2971SOL    HW221387   0.534   6.058   4.571 -0.7818  0.1118 -0.0017
 2972SOL     OW21388   1.965   1.917   4.918  0.1533 -0.3418  0.1733
 2972SOL    HW121389   2.044   1.877   4.963 -0.3236 -1.1735  0.2888
 2972SOL    HW221390   1.971   2.017   4.921  0.7054 -0.3994  1.0371
 2973SOL     OW21391   7.449   5.859   5.982 -0.1680  0.0118  0.8402
 2973SOL    HW121392   7.412   5.950   5.998 -2.0224 -0.9106  1.9381
 2973SOL    HW221393   7.414   5.824   5.895 -0.7927 -0.3236  1.2273
 2974SOL     OW21394   0.760   7.721   7.881  0.3575  0.1308 -0.1374
 2974SOL    HW121395   0.780   7.677   7.968  0.3784  1.7329  0.6850
 2974SOL    HW221396   0.845   7.736   7.831  0.6262  1.6575  0.7707
 2975SOL     OW21397   0.594   5.939   6.682 -0.1720 -0.2026 -0.3773
 2975SOL    HW121398   0.563   5.975   6.771 -1.7459  1.0230 -1.3981
 2975SOL    HW221399   0.516   5.933   6.620  0.4391 -3.6248 -0.8664
 2976SOL     OW21400   6.122   6.990   5.506 -0.3615 -0.2570  0.1713
 2976SOL    HW121401   6.028   7.014   5.482 -0.6985 -0.4597  1.2683
 2976SOL    HW221402   6.164   6.940   5.430 -0.3710  1.8458 -1.2566
 2977SOL     OW21403   1.915   5.781   3.306 -0.1907  0.1336 -0.1644
 2977SOL    HW121404   1.988   5.713   3.308 -0.3618 -0.0387  1.8740
 2977SOL    HW221405   1.934   5.850   3.236  1.0884 -0.8019 -0.7443
 2978SOL     OW21406   8.407   2.229   6.273  0.3212  0.2056  0.0168
 2978SOL    HW121407   8.418   2.311   6.328 -0.3044 -0.6076  1.3809
 2978SOL    HW221408   8.419   2.148   6.331  1.2738 -0.6709 -1.3665
 2979SOL     OW21409   1.881   1.285   6.034  0.4607  0.0822 -0.1675
 2979SOL    HW121410   1.942   1.324   6.102  0.1007  0.2672  0.0546
 2979SOL    HW221411   1.857   1.355   5.967 -0.4100  0.3287  0.3904
 2980SOL     OW21412   5.022   1.349   2.766  0.7392 -0.0376  0.4846
 2980SOL    HW121413   5.114   1.370   2.734  0.3874  1.2545  0.2771
 2980SOL    HW221414   5.017   1.254   2.795  1.9894 -0.2645 -0.0284
 2981SOL     OW21415   8.422   5.506   0.515 -0.2186  0.0996  0.4932
 2981SOL    HW121416   8.388   5.597   0.542  0.9488  0.2631  1.4686
 2981SOL    HW221417   8.388   5.438   0.580  1.0881  0.2318  1.3428
 2982SOL     OW21418   6.123   5.719   2.073 -0.1467 -0.2316 -0.1830
 2982SOL    HW121419   6.034   5.757   2.096 -0.3359 -0.9171  0.2053
 2982SOL    HW221420   6.188   5.740   2.146  0.2234  0.9887 -0.8460
 2983SOL     OW21421   1.981   5.956   2.065  0.2356  0.0837  0.0039
 2983SOL    HW121422   2.079   5.942   2.083  0.2503 -0.0893 -0.2093
 2983SOL    HW221423   1.969   6.040   2.013  0.5562 -1.4931 -2.7242
 2984SOL     OW21424   1.957   4.523   5.956 -0.6164  0.3625  0.2472
 2984SOL    HW121425   1.969   4.613   5.915  0.9325 -0.1381 -0.4208
 2984SOL    HW221426   1.998   4.521   6.047 -0.0664  0.1391 -0.0047
 2985SOL     OW21427   2.700   0.586   7.396  0.3866 -0.2621 -0.2235
 2985SOL    HW121428   2.669   0.492   7.381 -1.3609 -0.0296  1.6837
 2985SOL    HW221429   2.790   0.585   7.440  0.1994 -1.0404  0.1412
 2986SOL     OW21430   2.051   8.573   1.268 -0.2785  0.1958 -0.0121
 2986SOL    HW121431   2.026   8.507   1.338  0.9500  0.4233  0.6593
 2986SOL    HW221432   2.053   8.665   1.307  2.3536  0.0980  0.1974
 2987SOL     OW21433   4.512   8.582   7.226 -0.4439 -0.1352  0.1467
 2987SOL    HW121434   4.517   8.496   7.276 -0.2036  0.3034  0.8949
 2987SOL    HW221435   4.442   8.641   7.268  1.4688  1.2128  1.5395
 2988SOL     OW21436   3.200   3.449   8.608  0.2300 -0.1300 -0.2298
 2988SOL    HW121437   3.150   3.503   8.674  1.7398 -0.0129  0.8344
 2988SOL    HW221438   3.155   3.360   8.597 -0.4455  0.1303  0.3847
 2989SOL     OW21439   8.309   2.035   3.477 -0.1639 -0.4983  0.0103
 2989SOL    HW121440   8.367   2.114   3.498  0.9180 -1.3250  0.1775
 2989SOL    HW221441   8.238   2.027   3.546 -0.9577  0.9612 -0.6029
 2990SOL     OW21442   3.193   4.685   1.677 -0.0962 -0.3177 -0.2711
 2990SOL    HW121443   3.169   4.722   1.767 -2.9361  1.1279 -1.5614
 2990SOL    HW221444   3.208   4.759   1.613 -0.5654 -1.3323 -1.5885
 2991SOL     OW21445   5.896   5.798   1.591  0.2757 -0.3704  0.1240
 2991SOL    HW121446   5.956   5.811   1.670 -0.4037 -0.2087  0.6219
 2991SOL    HW221447   5.927   5.719   1.538  0.5700 -0.6484  0.7079
 2992SOL     OW21448   0.976   4.622   3.243 -0.3013  0.6211 -0.2587
 2992SOL    HW121449   0.977   4.554   3.169 -0.0942  1.5247 -1.0869
 2992SOL    HW221450   0.907   4.691   3.223 -1.1859  0.1357  1.0649
 2993SOL     OW21451   5.706   2.009   2.271  0.1354  0.6749 -0.1499
 2993SOL    HW121452   5.670   2.045   2.186  1.1159 -0.6225 -1.1352
 2993SOL    HW221453   5.756   2.081   2.320  0.8966  1.0144 -1.4217
 2994SOL     OW21454   1.622   5.843   4.712 -0.5118  0.1767 -0.0539
 2994SOL    HW121455   1.559   5.885   4.648  0.2651 -3.9173 -3.7680
 2994SOL    HW221456   1.711   5.890   4.707 -0.8244  0.6767 -1.0496
 2995SOL     OW21457   8.780   4.330   3.631  0.1239 -0.3984  0.1318
 2995SOL    HW121458   8.814   4.424   3.633  0.5566 -0.5680  0.8962
 2995SOL    HW221459   8.857   4.266   3.623  0.0362 -0.7924  2.0883
 2996SOL     OW21460   5.677   2.520   0.490  0.3418 -0.4612 -0.5200
 2996SOL    HW121461   5.683   2.568   0.402 -1.2737 -1.6258 -1.2865
 2996SOL    HW221462   5.757   2.461   0.501  2.7521  2.9002  0.7787
 2997SOL     OW21463   8.190   3.596   5.930  0.3023 -0.2837 -0.2748
 2997SOL    HW121464   8.118   3.609   5.998  1.6932  1.6236  0.9234
 2997SOL    HW221465   8.171   3.654   5.850  0.3311 -0.0303 -0.0994
 2998SOL     OW21466   2.769   5.521   8.047  0.0434 -0.4711 -0.2980
 2998SOL    HW121467   2.820   5.581   8.108  1.1419 -2.4964  0.8411
 2998SOL    HW221468   2.783   5.550   7.953  1.5555  0.3250  0.1439
 2999SOL     OW21469   3.060   2.225   5.574  0.5583 -0.1058 -0.5464
 2999SOL    HW121470   3.107   2.144   5.607  1.5851  0.1706 -1.3273
 2999SOL    HW221471   2.972   2.233   5.621  0.7761 -1.2479  0.0822
 3000SOL     OW21472   4.595   4.889   2.421  0.4482  0.6123  0.2372
 3000SOL    HW121473   4.550   4.950   2.356 -0.5978  1.6145  1.8970
 3000SOL    HW221474   4.534   4.812   2.442  0.0223  1.2783  1.4719
 3001SOL     OW21475   5.738   4.888   1.456  0.0198 -0.1050  0.0358
 3001SOL    HW121476   5.789   4.823   1.400  1.4436  0.0382  1.1461
 3001SOL    HW221477   5.715   4.846   1.544  0.7263  0.7918  0.6615
 3002SOL     OW21478   8.051   0.758   0.939  0.4649  0.4592  0.8188
 3002SOL    HW121479   8.114   0.820   0.987 -0.0864  1.6295  0.0614
 3002SOL    HW221480   7.959   0.796   0.943  0.2601  0.0865 -0.3409
 3003SOL     OW21481   5.496   2.851   1.684 -0.2026  0.2284  0.3503
 3003SOL    HW121482   5.573   2.866   1.622 -0.6507  0.1132 -0.2390
 3003SOL    HW221483   5.480   2.933   1.738  0.2452  0.3011  0.3750
 3004SOL     OW21484   0.964   7.878   2.573  0.0114  0.0898 -0.5976
 3004SOL    HW121485   1.019   7.830   2.641  0.2040 -0.2125 -0.9666
 3004SOL    HW221486   0.926   7.961   2.614 -0.3673 -0.4020  0.0558
 3005SOL     OW21487   3.077   3.502   0.751  0.3299  0.2332 -0.0331
 3005SOL    HW121488   3.164   3.456   0.768 -0.9028 -1.2856  2.4388
 3005SOL    HW221489   3.022   3.448   0.687 -0.7706 -1.4394  2.2229
 3006SOL     OW21490   2.411   5.941   4.154 -0.1190 -0.0351 -0.0714
 3006SOL    HW121491   2.387   6.028   4.198 -4.0583 -1.5914  1.1152
 3006SOL    HW221492   2.469   5.888   4.216 -1.7819 -0.2553  1.3401
 3007SOL     OW21493   0.799   7.270   0.981  0.1760 -0.3576  0.2111
 3007SOL    HW121494   0.820   7.282   1.078  0.0981  0.1047  0.1716
 3007SOL    HW221495   0.713   7.317   0.959  0.1126 -0.5943 -0.0473
 3008SOL     OW21496   5.660   0.835   2.755  0.9751 -0.2600 -0.3600
 3008SOL    HW121497   5.611   0.922   2.754  2.2878  0.4773 -1.3855
 3008SOL    HW221498   5.614   0.769   2.695  2.1206  0.9346 -2.5908
 3009SOL     OW21499   8.107   2.964   7.593  0.4650  0.0295  0.8516
 3009SOL    HW121500   8.058   2.991   7.676 -0.7592  0.9252 -0.1260
 3009SOL    HW221501   8.048   2.905   7.537  1.0167 -0.0129  0.3104
 3010SOL     OW21502   3.461   6.247   1.861  0.4827 -0.5675 -0.1357
 3010SOL    HW121503   3.382   6.298   1.894 -0.2681 -1.1244 -1.0575
 3010SOL    HW221504   3.489   6.181   1.930 -1.0119 -1.6547 -0.5581
 3011SOL     OW21505   1.400   5.046   7.622  0.1237  0.0059 -0.3087
 3011SOL    HW121506   1.398   5.146   7.623 -0.3526 -0.0014 -0.2663
 3011SOL    HW221507   1.320   5.012   7.571  0.9265 -0.3243 -1.3575
 3012SOL     OW21508   6.528   2.777   6.317 -0.0727  0.3539 -0.3314
 3012SOL    HW121509   6.546   2.777   6.219 -0.2317  3.3782 -0.4215
 3012SOL    HW221510   6.615   2.784   6.366  0.0793 -2.1299 -0.1901
 3013SOL     OW21511   4.047   8.377   4.803 -0.2387  0.6116 -0.8516
 3013SOL    HW121512   4.146   8.371   4.794 -0.1609  0.3810  0.0498
 3013SOL    HW221513   4.005   8.288   4.785  0.2255 -0.8712  4.4171
 3014SOL     OW21514   8.428   7.711   5.331 -0.0019  0.2897  0.1393
 3014SOL    HW121515   8.518   7.752   5.349 -0.3834  0.8108  0.8739
 3014SOL    HW221516   8.431   7.661   5.244  1.6067 -1.4801  1.1712
 3015SOL     OW21517   8.476   7.911   3.742 -0.0784 -0.5177  0.2443
 3015SOL    HW121518   8.570   7.877   3.747  0.4043  0.9182  1.3731
 3015SOL    HW221519   8.452   7.955   3.829 -1.4164  0.0912 -0.4189
 3016SOL     OW21520   2.600   7.563   6.411 -0.0582  0.8422  0.3921
 3016SOL    HW121521   2.569   7.603   6.498  1.3183  0.8654  0.8872
 3016SOL    HW221522   2.586   7.464   6.414 -1.9856  1.0750 -0.2089
 3017SOL     OW21523   7.388   7.485   6.100  0.4212  1.0716  0.2886
 3017SOL    HW121524   7.385   7.579   6.068 -0.1711  1.1891  0.6853
 3017SOL    HW221525   7.435   7.428   6.032 -2.1131  1.0423 -1.5035
 3018SOL     OW21526   3.149   2.113   6.840 -0.1913 -0.6025 -0.7731
 3018SOL    HW121527   3.180   2.156   6.755 -0.1779 -0.5543 -0.7439
 3018SOL    HW221528   3.190   2.160   6.918  0.0200 -0.8236 -0.7482
 3019SOL     OW21529   6.906   8.062   7.838  0.2174 -0.1107  0.1676
 3019SOL    HW121530   6.955   8.148   7.829  1.0884 -0.6107  0.0820
 3019SOL    HW221531   6.971   7.986   7.832 -0.5729 -0.7771  0.0244
 3020SOL     OW21532   4.003   0.986   5.907 -0.0402  0.3167  0.5237
 3020SOL    HW121533   3.953   0.994   5.820  0.3775 -0.8272  0.1674
 3020SOL    HW221534   4.097   1.017   5.894  0.0462  0.0632  0.5480
 3021SOL     OW21535   1.970   8.083   7.371  0.4011 -0.2203  0.9999
 3021SOL    HW121536   1.881   8.128   7.379  0.7363  0.3573  1.5411
 3021SOL    HW221537   1.968   8.019   7.294 -0.2342  0.3794  0.5043
 3022SOL     OW21538   6.736   1.527   2.724  0.1571 -0.7677 -0.4115
 3022SOL    HW121539   6.712   1.566   2.813  1.0403 -0.0018 -0.5066
 3022SOL    HW221540   6.685   1.442   2.710 -2.5194  0.8020 -0.5815
 3023SOL     OW21541   0.137   5.166   8.901  0.6301 -0.1829 -1.1292
 3023SOL    HW121542   0.155   5.234   8.830  0.4188  0.0660 -0.9462
 3023SOL    HW221543   0.045   5.182   8.938  1.5519  1.0101  0.6867
 3024SOL     OW21544   6.983   3.684   1.036 -0.1363  0.2468 -0.0106
 3024SOL    HW121545   6.887   3.696   1.061 -0.3313 -2.0906  0.4625
 3024SOL    HW221546   7.041   3.721   1.108 -0.6742  0.4954  0.3003
 3025SOL     OW21547   8.505   4.693   2.030  0.1532 -0.1290  0.0588
 3025SOL    HW121548   8.585   4.752   2.019 -1.3808  1.7654 -1.1134
 3025SOL    HW221549   8.499   4.663   2.125  1.5203  0.7668  0.4429
 3026SOL     OW21550   5.221   8.698   4.060 -0.5409  0.4670  0.6947
 3026SOL    HW121551   5.218   8.788   4.103  0.3468  1.4434 -1.2717
 3026SOL    HW221552   5.316   8.673   4.039 -1.0071  0.3602 -1.4057
 3027SOL     OW21553   5.931   5.048   1.137  0.0949 -0.2351  0.0459
 3027SOL    HW121554   5.841   5.009   1.118  0.5798 -1.0286 -0.6400
 3027SOL    HW221555   5.938   5.069   1.235 -0.2864 -1.5618  0.3667
 3028SOL     OW21556   3.254   6.466   6.228 -0.1706 -0.0007 -0.4456
 3028SOL    HW121557   3.268   6.562   6.253 -3.0078 -0.2384  2.3854
 3028SOL    HW221558   3.159   6.452   6.202  0.3445 -1.9601 -1.3844
 3029SOL     OW21559   6.288   1.547   1.811 -0.2954 -0.6629  0.0746
 3029SOL    HW121560   6.198   1.532   1.853  1.1225 -0.8870  3.1906
 3029SOL    HW221561   6.287   1.632   1.759 -1.7734  0.3326  1.6935
 3030SOL     OW21562   2.154   3.485   2.256  0.1686  0.0975 -0.0786
 3030SOL    HW121563   2.140   3.577   2.292  1.8563  0.6040 -0.6683
 3030SOL    HW221564   2.199   3.429   2.325  1.0183  0.3159 -0.4489
 3031SOL     OW21565   0.654   4.157   0.926  0.3276 -0.0100 -0.4001
 3031SOL    HW121566   0.648   4.252   0.895 -1.3464 -0.0975 -0.3665
 3031SOL    HW221567   0.691   4.101   0.851  0.2957  0.4864 -0.7941
 3032SOL     OW21568   1.222   8.313   1.763  0.6190  0.3911 -0.2200
 3032SOL    HW121569   1.293   8.249   1.731  1.0560  0.5008  0.5108
 3032SOL    HW221570   1.255   8.360   1.845  0.4898  1.9178 -1.0326
 3033SOL     OW21571   3.498   6.087   3.232  0.2642 -0.0894 -0.1589
 3033SOL    HW121572   3.470   6.141   3.153  2.2359  0.2260 -0.6835
 3033SOL    HW221573   3.444   6.003   3.237 -2.7475  1.8241  0.5703
 3034SOL     OW21574   6.350   0.208   8.924  0.0427  0.2416 -0.1348
 3034SOL    HW121575   6.352   0.290   8.981 -1.5309 -1.5510  2.6766
 3034SOL    HW221576   6.424   0.146   8.952 -1.4132 -1.1313  0.8292
 3035SOL     OW21577   6.626   1.694   3.070 -0.0066 -0.1633 -0.5357
 3035SOL    HW121578   6.559   1.629   3.034  0.6190 -0.8494 -0.4692
 3035SOL    HW221579   6.640   1.768   3.003  0.0221 -0.6205 -1.0362
 3036SOL     OW21580   8.760   7.505   8.653  0.0115  0.1580 -0.7803
 3036SOL    HW121581   8.736   7.601   8.640  1.5705  0.4876 -1.4157
 3036SOL    HW221582   8.858   7.493   8.636 -0.5641 -1.9275 -2.9408
 3037SOL     OW21583   1.759   0.821   7.719 -0.2983  0.1340  0.6992
 3037SOL    HW121584   1.844   0.785   7.758  0.8471  1.2365 -0.7147
 3037SOL    HW221585   1.697   0.848   7.793  0.8950  0.0453  1.7499
 3038SOL     OW21586   0.598   0.366   5.925 -0.1994 -0.0323  0.2314
 3038SOL    HW121587   0.506   0.398   5.904 -1.1634 -2.8716 -0.1671
 3038SOL    HW221588   0.608   0.357   6.024  0.0665  1.4215  0.3403
 3039SOL     OW21589   4.122   0.699   1.106  0.1145  0.1170  0.4871
 3039SOL    HW121590   4.188   0.754   1.056 -0.4198  1.5293  1.3049
 3039SOL    HW221591   4.168   0.651   1.181  0.2641  0.9384  0.9282
 3040SOL     OW21592   5.736   0.290   3.677 -0.4574 -0.0787  0.0131
 3040SOL    HW121593   5.713   0.316   3.583 -0.5813  0.2954  0.1472
 3040SOL    HW221594   5.782   0.201   3.676 -0.2204  0.0443 -0.4243
 3041SOL     OW21595   2.430   0.535   0.013  0.1649 -0.1799 -0.2836
 3041SOL    HW121596   2.528   0.533   0.034  0.5165 -0.8447 -1.8729
 3041SOL    HW221597   2.378   0.514   0.096  1.3457  0.6328  0.6785
 3042SOL     OW21598   3.943   7.857   0.282 -0.1182  0.8319 -0.5435
 3042SOL    HW121599   4.020   7.846   0.218  0.7338 -0.5789  0.6958
 3042SOL    HW221600   3.967   7.925   0.350 -0.2353  0.8904 -0.5624
 3043SOL     OW21601   3.705   6.643   6.296  0.1976  0.2286 -0.6499
 3043SOL    HW121602   3.686   6.711   6.367  1.9036  0.2839 -0.2214
 3043SOL    HW221603   3.660   6.557   6.320  0.6167  0.2993  0.4154
 3044SOL     OW21604   2.050   8.587   0.494 -0.1458 -0.0081  0.5163
 3044SOL    HW121605   1.969   8.637   0.464  1.8156  1.6058 -2.3610
 3044SOL    HW221606   2.117   8.652   0.530  1.1210 -0.9106 -0.1787
 3045SOL     OW21607   1.553   2.330   5.071 -0.1305 -0.2192 -0.1203
 3045SOL    HW121608   1.497   2.356   5.150  1.5002  0.9928  0.6914
 3045SOL    HW221609   1.649   2.330   5.098  0.3275 -1.5097 -1.6792
 3046SOL     OW21610   2.346   5.294   4.239 -0.2478  0.1564 -0.4403
 3046SOL    HW121611   2.409   5.238   4.185 -1.7049  0.3994 -2.4735
 3046SOL    HW221612   2.290   5.235   4.297 -0.3633 -0.3299 -1.0419
 3047SOL     OW21613   2.507   3.542   8.075 -0.2335 -0.0827  0.2690
 3047SOL    HW121614   2.567   3.524   8.153 -1.6188  0.2857  1.4411
 3047SOL    HW221615   2.509   3.639   8.052  1.1018 -0.3803 -0.9513
 3048SOL     OW21616   6.291   8.808   1.741 -0.1148 -0.3668  0.0291
 3048SOL    HW121617   6.273   8.711   1.730 -2.4185  0.1488 -1.0471
 3048SOL    HW221618   6.358   8.837   1.672 -0.0795 -1.0180 -0.2152
 3049SOL     OW21619   7.316   5.448   4.733 -0.0349 -0.1597 -0.4285
 3049SOL    HW121620   7.376   5.501   4.674  0.2985 -0.6601 -0.5367
 3049SOL    HW221621   7.226   5.439   4.689 -0.3878  1.1018  0.0079
 3050SOL     OW21622   4.314   1.150   6.305  0.0676 -0.6319  0.2938
 3050SOL    HW121623   4.401   1.103   6.325  0.2660  0.1261  1.2084
 3050SOL    HW221624   4.294   1.215   6.378 -0.6618  0.0686 -0.5314
 3051SOL     OW21625   3.975   6.171   6.128  0.5573 -0.1136 -0.1991
 3051SOL    HW121626   4.004   6.210   6.216 -0.2323 -0.9776  0.4600
 3051SOL    HW221627   3.978   6.242   6.058  2.4475  0.2672  0.2374
 3052SOL     OW21628   1.258   2.977   3.303  0.0333  0.1436 -0.5517
 3052SOL    HW121629   1.248   3.030   3.387  0.5112  0.7861 -0.8978
 3052SOL    HW221630   1.354   2.973   3.276  0.1550 -1.8718  0.0843
 3053SOL     OW21631   1.694   3.980   2.478 -0.2563 -0.1256 -0.0147
 3053SOL    HW121632   1.615   3.945   2.428 -0.7295  1.0079 -0.0784
 3053SOL    HW221633   1.738   3.905   2.528 -2.6379 -0.4010  1.7620
 3054SOL     OW21634   6.246   4.112   8.637 -0.1097  0.0079  0.2774
 3054SOL    HW121635   6.268   4.202   8.600  0.7010  0.4727  1.8247
 3054SOL    HW221636   6.327   4.072   8.679  0.0880 -2.4383 -2.3224
 3055SOL     OW21637   3.271   1.134   5.689  0.0714 -0.4724  0.0252
 3055SOL    HW121638   3.352   1.177   5.651  1.0825 -1.0841  1.4331
 3055SOL    HW221639   3.203   1.203   5.711 -0.1472 -0.0285 -1.9418
 3056SOL     OW21640   0.839   7.066   4.425  0.4284  0.8208  0.0317
 3056SOL    HW121641   0.813   6.973   4.447  1.5309  0.6606  0.6953
 3056SOL    HW221642   0.814   7.086   4.330  2.7564 -1.1040 -1.0432
 3057SOL     OW21643   8.436   1.829   5.486 -0.3566 -0.2291 -0.3045
 3057SOL    HW121644   8.444   1.730   5.498  0.4248  0.0252  1.4928
 3057SOL    HW221645   8.376   1.866   5.557  0.2582  0.7321 -0.2811
 3058SOL     OW21646   1.117   2.462   3.197  0.6806  0.7714 -0.6998
 3058SOL    HW121647   1.097   2.539   3.258 -1.3130 -0.2924  0.0120
 3058SOL    HW221648   1.189   2.489   3.133  1.8223  2.3842  1.1904
 3059SOL     OW21649   3.416   0.787   6.670 -0.4736  0.2373 -0.4608
 3059SOL    HW121650   3.385   0.722   6.600 -1.2305  1.2075 -1.0332
 3059SOL    HW221651   3.408   0.880   6.635  1.3158  0.6185  0.0862
 3060SOL     OW21652   1.275   4.690   2.723  0.4471 -0.0360  0.5283
 3060SOL    HW121653   1.304   4.729   2.636 -1.0606  0.4424  0.2207
 3060SOL    HW221654   1.354   4.681   2.783  1.4731 -0.1960 -0.8147
 3061SOL     OW21655   1.509   7.685   4.406 -0.3129 -0.3632  0.2316
 3061SOL    HW121656   1.489   7.751   4.333 -2.8669 -1.6150 -0.2582
 3061SOL    HW221657   1.577   7.620   4.374  0.6854  0.8004 -0.0191
 3062SOL     OW21658   4.790   7.421   6.863  0.2461  0.0137  0.1423
 3062SOL    HW121659   4.849   7.476   6.803 -0.7434  0.0521 -0.8009
 3062SOL    HW221660   4.773   7.332   6.821 -1.7754  0.6395 -0.4250
 3063SOL     OW21661   6.101   8.367   1.853 -0.0437  0.3931 -0.1430
 3063SOL    HW121662   6.090   8.339   1.949 -0.7644  1.8155  0.1980
 3063SOL    HW221663   6.050   8.304   1.794 -0.9812  0.4987  0.5451
 3064SOL     OW21664   8.822   3.860   3.755  0.3036  0.1319  0.5138
 3064SOL    HW121665   8.797   3.767   3.727 -1.0441  0.8376 -0.7023
 3064SOL    HW221666   8.822   3.866   3.855 -1.3539 -0.7179  0.5800
 3065SOL     OW21667   2.665   7.544   8.500  0.4524  0.1436 -0.2175
 3065SOL    HW121668   2.751   7.591   8.515  0.6501 -0.3904  0.3371
 3065SOL    HW221669   2.679   7.445   8.506 -0.7706  0.1232  3.0877
 3066SOL     OW21670   6.978   4.359   1.368  0.4999 -0.3507  0.2184
 3066SOL    HW121671   6.980   4.292   1.442 -0.0350  1.1230  1.5918
 3066SOL    HW221672   6.883   4.378   1.344  0.6759 -1.5691 -1.5701
 3067SOL     OW21673   2.100   4.273   1.011  0.4872  0.4758  0.0630
 3067SOL    HW121674   2.151   4.207   0.955 -1.5917  0.9688 -2.4724
 3067SOL    HW221675   2.107   4.364   0.971 -0.5911  0.9526  0.9162
 3068SOL     OW21676   6.124   0.355   1.856  0.3962  0.7836  0.1679
 3068SOL    HW121677   6.135   0.285   1.926 -1.9638 -1.4136 -1.5477
 3068SOL    HW221678   6.181   0.333   1.777 -2.6239 -1.0196 -1.6248
 3069SOL     OW21679   2.874   3.213   1.612 -0.2344  1.0197 -0.0539
 3069SOL    HW121680   2.856   3.250   1.704  0.9676  1.8752 -0.1536
 3069SOL    HW221681   2.869   3.113   1.615 -2.3473  1.1172  0.4735
 3070SOL     OW21682   4.340   7.134   7.828  0.1183  0.1152  0.4691
 3070SOL    HW121683   4.426   7.091   7.802  0.4221  1.3154 -0.5531
 3070SOL    HW221684   4.300   7.180   7.749 -0.8296  0.6452  1.2363
 3071SOL     OW21685   6.332   1.713   1.443  0.1595  0.5278  0.1142
 3071SOL    HW121686   6.265   1.679   1.377 -0.0606  0.9457  0.1210
 3071SOL    HW221687   6.416   1.738   1.396  0.2978  0.0347  0.1006
 3072SOL     OW21688   4.646   0.782   8.593 -0.5380  0.1262  0.2713
 3072SOL    HW121689   4.720   0.763   8.528  1.2865  0.4250  2.2193
 3072SOL    HW221690   4.574   0.714   8.581  0.4589 -0.7423 -1.0337
 3073SOL     OW21691   5.059   2.170   8.581  0.3681 -0.2070 -0.0902
 3073SOL    HW121692   5.129   2.191   8.513  0.3330 -2.5288 -0.8991
 3073SOL    HW221693   4.998   2.248   8.592  0.6553  0.3727 -2.3842
 3074SOL     OW21694   4.370   3.959   5.574  0.0723  0.5540 -0.3633
 3074SOL    HW121695   4.463   3.960   5.611 -0.2612 -1.6906  0.6578
 3074SOL    HW221696   4.370   3.912   5.486  0.0556  1.4292 -0.8330
 3075SOL     OW21697   2.553   0.445   0.396  0.2335  0.4841  0.6086
 3075SOL    HW121698   2.506   0.532   0.409  2.1235  1.3407  1.8481
 3075SOL    HW221699   2.563   0.398   0.483  0.0380 -0.5552  0.0848
 3076SOL     OW21700   4.536   5.555   1.040 -0.3007  0.3432 -0.1076
 3076SOL    HW121701   4.527   5.611   1.123 -1.0888 -0.7122  0.5406
 3076SOL    HW221702   4.468   5.481   1.043  0.7195 -0.6406 -0.9462
 3077SOL     OW21703   6.178   6.648   6.076 -0.0799 -0.7307  0.4948
 3077SOL    HW121704   6.140   6.596   6.000 -0.2244 -1.5465  1.1192
 3077SOL    HW221705   6.209   6.737   6.043  1.4118 -1.7283 -0.8534
 3078SOL     OW21706   2.087   8.465   0.245  0.1232 -0.0262 -0.6816
 3078SOL    HW121707   2.081   8.529   0.168  2.0715 -0.1394 -0.9432
 3078SOL    HW221708   2.106   8.515   0.329 -0.7595 -0.0297 -0.4754
 3079SOL     OW21709   3.868   2.151   8.654 -0.5922 -0.1599  1.0082
 3079SOL    HW121710   3.901   2.190   8.740 -0.7705  0.9146  0.5956
 3079SOL    HW221711   3.775   2.184   8.636  0.1920  1.2246 -0.5936
 3080SOL     OW21712   2.509   4.335   3.314  0.0918 -0.5194  0.3656
 3080SOL    HW121713   2.436   4.384   3.362 -1.0789 -1.5913 -0.3213
 3080SOL    HW221714   2.594   4.388   3.321 -0.4706  0.2024  2.1080
 3081SOL     OW21715   8.154   2.702   0.062 -0.4260 -0.6987 -1.0363
 3081SOL    HW121716   8.219   2.763   0.107 -0.6728 -1.2978  0.1494
 3081SOL    HW221717   8.201   2.621   0.028 -0.5834 -1.2269  0.0002
 3082SOL     OW21718   1.127   4.447   4.827  0.0605  0.7362 -0.1928
 3082SOL    HW121719   1.175   4.529   4.859 -1.3773  1.5625 -0.1159
 3082SOL    HW221720   1.050   4.428   4.888 -0.3348  0.0379 -0.9090
 3083SOL     OW21721   4.832   4.566   3.014 -0.2177 -0.0396  0.0593
 3083SOL    HW121722   4.826   4.466   3.013  4.0677 -0.3967 -1.2479
 3083SOL    HW221723   4.829   4.598   3.109  2.5764 -1.8147  0.8091
 3084SOL     OW21724   1.608   2.545   1.890 -0.3833  0.0071  0.5443
 3084SOL    HW121725   1.595   2.543   1.791  1.0418  0.7489  0.3234
 3084SOL    HW221726   1.549   2.615   1.931 -2.4793 -1.6989  0.4791
 3085SOL     OW21727   5.541   3.097   1.774 -0.0392 -0.2150 -0.1147
 3085SOL    HW121728   5.636   3.070   1.789  0.2714  1.3953  1.0081
 3085SOL    HW221729   5.539   3.184   1.723 -0.9413 -0.8611 -1.2150
 3086SOL     OW21730   2.796   7.283   4.821 -0.0263  0.4590 -0.5318
 3086SOL    HW121731   2.864   7.265   4.892 -0.6157  2.6849  0.6368
 3086SOL    HW221732   2.795   7.207   4.756  2.6530 -0.1952  0.1453
 3087SOL     OW21733   3.778   6.482   5.711 -0.5181  0.4899  0.0453
 3087SOL    HW121734   3.762   6.533   5.627 -2.0184 -2.1074 -1.3257
 3087SOL    HW221735   3.830   6.399   5.691  0.1578  0.4494  1.8765
 3088SOL     OW21736   7.622   5.754   5.695 -0.4993 -0.7085 -0.5169
 3088SOL    HW121737   7.682   5.784   5.621  1.2980  0.0303  1.1934
 3088SOL    HW221738   7.556   5.827   5.715  1.5359  0.7118  1.2040
 3089SOL     OW21739   4.688   3.503   6.521  0.1809  0.1414  0.0039
 3089SOL    HW121740   4.620   3.443   6.478  0.5297 -0.4574  0.2892
 3089SOL    HW221741   4.668   3.512   6.618 -1.2858  2.4174 -0.4692
 3090SOL     OW21742   4.653   8.960   0.087 -0.9198 -0.1569 -0.2486
 3090SOL    HW121743   4.599   8.954   0.004 -0.0552 -0.6445 -0.7863
 3090SOL    HW221744   4.655   8.871   0.132 -0.8046 -0.0686 -0.0765
 3091SOL     OW21745   7.713   3.689   7.158  0.2836 -0.0132  0.0463
 3091SOL    HW121746   7.681   3.617   7.220 -1.5224 -0.5103 -1.4221
 3091SOL    HW221747   7.642   3.759   7.151  1.3358  1.0797  0.1285
 3092SOL     OW21748   2.185   7.487   4.782 -0.6659  0.1330 -0.1794
 3092SOL    HW121749   2.208   7.392   4.803 -1.4387 -0.0934 -0.3388
 3092SOL    HW221750   2.213   7.545   4.858 -1.7118 -0.4389  0.6582
 3093SOL     OW21751   2.507   8.691   2.919 -0.3155 -0.4466 -0.4336
 3093SOL    HW121752   2.567   8.617   2.949 -0.1755 -0.5409 -0.9434
 3093SOL    HW221753   2.531   8.775   2.967  1.5631 -0.0034 -2.0875
 3094SOL     OW21754   2.733   3.655   0.887 -0.3078 -0.0541  0.6809
 3094SOL    HW121755   2.824   3.653   0.929 -0.5624 -0.6291  1.2146
 3094SOL    HW221756   2.708   3.563   0.857  0.1307  0.4520 -1.3223
 3095SOL     OW21757   1.573   3.525   6.402 -0.1275 -0.2201  0.0002
 3095SOL    HW121758   1.514   3.472   6.462 -0.9558 -1.4499 -1.8418
 3095SOL    HW221759   1.645   3.467   6.365  1.1066  0.8182  0.7633
 3096SOL     OW21760   4.322   2.957   2.605 -0.5687  0.3558  0.1091
 3096SOL    HW121761   4.274   2.989   2.523 -0.5100  0.4350  0.1057
 3096SOL    HW221762   4.387   3.027   2.635  0.8973 -0.5232 -0.9527
 3097SOL     OW21763   1.916   4.237   0.218 -0.3968  0.2068  0.9908
 3097SOL    HW121764   1.884   4.156   0.168 -0.1927  0.9649 -0.3923
 3097SOL    HW221765   1.843   4.305   0.221 -0.4572  0.1040  1.8614
 3098SOL     OW21766   0.703   2.768   0.104 -0.4512 -0.0924  0.2654
 3098SOL    HW121767   0.702   2.826   0.185 -0.8694 -0.6326  0.6428
 3098SOL    HW221768   0.610   2.753   0.072 -0.3160 -0.2237 -0.0751
 3099SOL     OW21769   5.061   5.389   5.114 -0.2302  0.8223 -0.0750
 3099SOL    HW121770   5.076   5.291   5.130 -1.2711  0.6520 -0.1121
 3099SOL    HW221771   5.095   5.413   5.023  1.6938  0.8827  0.6432
 3100SOL     OW21772   5.018   1.080   2.823  0.3039  0.0710 -0.1619
 3100SOL    HW121773   5.032   1.086   2.922 -0.3101 -1.0320 -0.0089
 3100SOL    HW221774   4.940   1.021   2.803 -0.2901  1.1912 -1.2633
 3101SOL     OW21775   1.239   5.392   0.949  0.5059 -0.4514  0.2709
 3101SOL    HW121776   1.274   5.485   0.952  1.8460 -0.9033 -0.9465
 3101SOL    HW221777   1.200   5.374   0.859  1.8960 -1.6339 -0.1220
 3102SOL     OW21778   4.635   7.549   8.010 -0.4857  0.5384  0.2988
 3102SOL    HW121779   4.703   7.568   8.080  1.3472 -0.4060 -1.1917
 3102SOL    HW221780   4.644   7.615   7.935 -2.5639  1.6660  0.9750
 3103SOL     OW21781   0.593   6.221   1.675 -0.2712 -0.0257  0.2426
 3103SOL    HW121782   0.609   6.247   1.579  0.7399  1.4304  0.7846
 3103SOL    HW221783   0.515   6.272   1.710  0.3263  0.6265  0.6433
 3104SOL     OW21784   2.597   7.253   5.199 -0.3067  0.0647  0.6054
 3104SOL    HW121785   2.595   7.241   5.299 -2.0169 -0.8364  0.4887
 3104SOL    HW221786   2.529   7.193   5.158  2.0230 -1.3306 -1.3191
 3105SOL     OW21787   5.057   3.506   5.768 -0.7192  0.7498  0.9032
 3105SOL    HW121788   5.081   3.600   5.743  0.4869  0.3845  0.6344
 3105SOL    HW221789   4.989   3.471   5.704 -1.8140  1.7284  1.5185
 3106SOL     OW21790   6.775   1.006   0.285  0.4269  0.4348  0.5694
 3106SOL    HW121791   6.716   1.041   0.212  0.5288  1.1285  0.8207
 3106SOL    HW221792   6.836   1.078   0.317  1.6314 -0.3607  0.1082
 3107SOL     OW21793   5.368   1.505   8.593 -0.7114  0.2088  0.0813
 3107SOL    HW121794   5.382   1.593   8.640  0.8815 -0.5435  1.0460
 3107SOL    HW221795   5.276   1.504   8.553 -0.7422  2.3400 -0.0018
 3108SOL     OW21796   8.216   5.652   6.417 -0.5344  0.1099  0.0363
 3108SOL    HW121797   8.230   5.630   6.320 -0.2828 -0.4072  0.1886
 3108SOL    HW221798   8.242   5.747   6.433 -0.3985  0.1449 -0.3724
 3109SOL     OW21799   4.638   1.370   0.715  0.1812 -0.3231  0.6724
 3109SOL    HW121800   4.554   1.375   0.769 -0.1166  0.7693  0.1206
 3109SOL    HW221801   4.619   1.397   0.621  1.2420  0.4028  0.6556
 3110SOL     OW21802   2.742   6.813   1.487  0.1322  0.7004 -0.4449
 3110SOL    HW121803   2.708   6.764   1.408  0.0852  2.0219 -1.2647
 3110SOL    HW221804   2.755   6.750   1.563 -1.3644 -0.3112 -1.0140
 3111SOL     OW21805   7.742   5.819   2.934  0.6039 -0.3131 -0.2812
 3111SOL    HW121806   7.685   5.845   3.012  2.1166  0.5448  0.5597
 3111SOL    HW221807   7.707   5.734   2.893 -0.4906 -0.4934  1.0178
 3112SOL     OW21808   2.506   4.429   5.378  0.1403 -0.4387 -0.0812
 3112SOL    HW121809   2.598   4.462   5.399  0.1515  0.3276 -1.2809
 3112SOL    HW221810   2.512   4.350   5.316 -0.0561  0.6825 -1.5411
 3113SOL     OW21811   2.006   0.092   1.328 -0.0340  0.3662 -0.5198
 3113SOL    HW121812   1.966   0.042   1.404  1.5059  0.1992  0.1960
 3113SOL    HW221813   2.103   0.071   1.320  0.5359  2.7686 -0.5586
 3114SOL     OW21814   0.773   0.494   7.761 -0.1682  0.4988  0.0190
 3114SOL    HW121815   0.755   0.587   7.729  0.3741  0.6276  0.0875
 3114SOL    HW221816   0.865   0.467   7.735 -1.0771 -0.8573 -1.9653
 3115SOL     OW21817   5.484   5.790   3.114 -0.4226 -0.2856 -0.0976
 3115SOL    HW121818   5.576   5.831   3.115 -0.5080 -0.1004  1.2994
 3115SOL    HW221819   5.452   5.778   3.208 -2.3656  0.8700 -0.5819
 3116SOL     OW21820   2.497   0.069   6.687  0.4497  0.3598 -0.1686
 3116SOL    HW121821   2.518   0.006   6.612  0.3389 -1.1125  0.9921
 3116SOL    HW221822   2.575   0.129   6.704  1.0718 -0.3740 -0.4147
 3117SOL     OW21823   3.584   0.478   6.976  0.7904  0.3877  0.3169
 3117SOL    HW121824   3.646   0.471   7.055 -1.0796  1.6565  1.9381
 3117SOL    HW221825   3.596   0.568   6.933  0.2212  0.5553  0.5111
 3118SOL     OW21826   4.790   7.358   1.128 -0.5729  0.1787  0.1693
 3118SOL    HW121827   4.875   7.411   1.134  0.4806 -1.3296 -0.9864
 3118SOL    HW221828   4.803   7.269   1.174 -1.5150 -0.0696 -0.0363
 3119SOL     OW21829   6.094   1.683   1.267  0.6808 -0.1502  0.1311
 3119SOL    HW121830   6.050   1.703   1.180 -0.0404 -1.3300  0.2187
 3119SOL    HW221831   6.094   1.584   1.283  0.8096  0.0529  1.4728
 3120SOL     OW21832   1.277   7.436   2.714 -0.2838  0.4535  0.0448
 3120SOL    HW121833   1.249   7.515   2.767 -0.3654 -0.5403  1.5210
 3120SOL    HW221834   1.344   7.383   2.766 -0.9782 -0.9840 -0.5026
 3121SOL     OW21835   6.992   7.528   6.909  0.1347 -0.2453 -0.3392
 3121SOL    HW121836   7.067   7.467   6.884 -0.4364 -0.9347 -0.3945
 3121SOL    HW221837   7.019   7.623   6.892  0.9026 -0.5050 -0.5891
 3122SOL     OW21838   0.668   2.267   3.038  0.2078  0.0800 -0.2463
 3122SOL    HW121839   0.641   2.323   3.117  0.5338 -0.6036  0.3609
 3122SOL    HW221840   0.589   2.216   3.005 -0.0821  0.8830 -0.7816
 3123SOL     OW21841   2.551   1.488   6.627  0.2818  0.1247 -0.3140
 3123SOL    HW121842   2.570   1.469   6.724  2.1747  1.0552 -0.4674
 3123SOL    HW221843   2.492   1.568   6.619  0.9778  0.6860  0.0650
 3124SOL     OW21844   6.127   2.937   3.523  0.0576  0.4724 -0.1829
 3124SOL    HW121845   6.110   2.939   3.621 -0.5016 -0.3808 -0.2580
 3124SOL    HW221846   6.069   3.004   3.478  0.0623  0.6217  0.0345
 3125SOL     OW21847   5.234   5.718   6.596  0.3488 -0.1767 -0.1719
 3125SOL    HW121848   5.232   5.817   6.612 -0.9815  0.0088 -1.4056
 3125SOL    HW221849   5.187   5.671   6.671 -0.6398  0.2725 -0.4990
 3126SOL     OW21850   0.675   4.894   7.550 -0.6460  0.9507 -0.7197
 3126SOL    HW121851   0.652   4.852   7.462 -1.3683  0.9272 -0.5196
 3126SOL    HW221852   0.605   4.960   7.575 -0.7433  0.5435  0.1126
 3127SOL     OW21853   7.408   4.460   0.528  0.4590 -0.2436  0.2148
 3127SOL    HW121854   7.440   4.489   0.618  1.2804  0.5162 -0.3074
 3127SOL    HW221855   7.482   4.471   0.461 -0.5541  0.5175 -0.8072
 3128SOL     OW21856   2.345   0.627   3.091 -0.2421 -0.2170 -0.2137
 3128SOL    HW121857   2.305   0.541   3.121  1.8709 -1.0986  0.1834
 3128SOL    HW221858   2.438   0.610   3.057  0.1699  1.8829 -0.2002
 3129SOL     OW21859   5.528   2.126   8.980  0.2294  0.4862  0.4448
 3129SOL    HW121860   5.548   2.138   8.883 -2.3896 -3.0951 -0.6337
 3129SOL    HW221861   5.433   2.150   8.998 -0.0278 -1.3061  1.5977
 3130SOL     OW21862   0.829   3.333   7.984  0.0675  0.3846  0.5188
 3130SOL    HW121863   0.769   3.391   7.929 -1.0731 -0.9717  0.2953
 3130SOL    HW221864   0.885   3.390   8.045  0.0064  1.7775 -0.7207
 3131SOL     OW21865   7.657   3.180   3.894 -0.3642  0.1220 -0.1616
 3131SOL    HW121866   7.621   3.222   3.811 -1.1861  1.7725  1.0098
 3131SOL    HW221867   7.581   3.150   3.951  0.1997 -2.7192 -0.8175
 3132SOL     OW21868   3.580   4.714   4.838 -0.3343  0.4090  0.0874
 3132SOL    HW121869   3.534   4.790   4.792  0.0147  0.2332 -0.5463
 3132SOL    HW221870   3.648   4.674   4.777 -0.3701 -0.2791  0.4956
 3133SOL     OW21871   4.131   4.227   8.334  0.3491 -0.3482 -0.8212
 3133SOL    HW121872   4.124   4.314   8.383 -4.1045 -0.5476 -0.8879
 3133SOL    HW221873   4.188   4.164   8.386  1.9375  1.8903  0.2564
 3134SOL     OW21874   5.854   7.107   5.022 -0.0148  0.3904 -0.4553
 3134SOL    HW121875   5.783   7.055   4.976 -0.3634  0.8885 -0.4786
 3134SOL    HW221876   5.896   7.050   5.094 -0.3996  0.0824 -0.4758
 3135SOL     OW21877   1.876   8.505   3.765 -0.2945  0.3144 -0.5159
 3135SOL    HW121878   1.955   8.464   3.811 -1.6859 -2.0438 -0.1366
 3135SOL    HW221879   1.880   8.485   3.667 -0.6287 -0.2113 -0.4285
 3136SOL     OW21880   7.788   6.571   1.473 -0.1937 -0.1086 -0.0075
 3136SOL    HW121881   7.843   6.651   1.451 -2.7300  1.6640 -0.0993
 3136SOL    HW221882   7.810   6.539   1.565 -1.0827  2.3419  1.0760
 3137SOL     OW21883   3.872   1.121   3.296 -0.2854 -0.3968  0.2029
 3137SOL    HW121884   3.844   1.029   3.324 -0.3320 -0.3209  0.4063
 3137SOL    HW221885   3.958   1.144   3.342 -0.6667 -0.0385  0.7407
 3138SOL     OW21886   8.224   8.535   1.526  0.0436 -0.4489 -0.1106
 3138SOL    HW121887   8.267   8.622   1.551 -0.4265 -0.1179 -0.4626
 3138SOL    HW221888   8.211   8.480   1.608 -0.7811  0.3138  0.2718
 3139SOL     OW21889   3.983   1.588   0.278  0.6040  0.6133  0.3588
 3139SOL    HW121890   3.965   1.685   0.293 -2.3277 -0.1473  2.2093
 3139SOL    HW221891   3.912   1.550   0.219  2.4299 -0.1922 -1.3973
 3140SOL     OW21892   3.938   6.674   5.849 -0.3035  0.3108  0.5683
 3140SOL    HW121893   3.875   6.711   5.917 -0.8642 -1.2313  0.8970
 3140SOL    HW221894   3.885   6.635   5.773  0.2742 -0.6984  0.6887
 3141SOL     OW21895   3.228   4.416   7.351 -0.1582  0.5639  0.0110
 3141SOL    HW121896   3.197   4.321   7.351  0.5508  0.3298 -0.7308
 3141SOL    HW221897   3.180   4.467   7.279 -0.8354  0.8684  0.6742
 3142SOL     OW21898   7.744   1.042   6.935 -0.4912  0.0118  0.4390
 3142SOL    HW121899   7.785   1.111   6.994 -1.9158  0.5595  0.8039
 3142SOL    HW221900   7.696   1.087   6.859 -0.2440 -0.6296 -0.1102
 3143SOL     OW21901   0.884   8.284   6.522  0.5357 -0.2763 -0.5962
 3143SOL    HW121902   0.910   8.381   6.528  2.6028 -0.7638 -1.0229
 3143SOL    HW221903   0.920   8.235   6.600  1.1548 -1.0404 -1.3491
 3144SOL     OW21904   2.375   8.333   5.744  0.6618  0.4089 -0.0092
 3144SOL    HW121905   2.458   8.357   5.695  2.0073 -2.4444  0.7493
 3144SOL    HW221906   2.385   8.356   5.841  0.8132 -0.4271  0.1822
 3145SOL     OW21907   1.723   5.030   7.422  0.0772 -0.4544 -0.1219
 3145SOL    HW121908   1.643   5.007   7.477  0.5145 -1.7871 -0.0251
 3145SOL    HW221909   1.726   4.971   7.341  0.6403 -0.0046 -0.4371
 3146SOL     OW21910   1.490   1.330   7.435 -0.8013  0.2080  0.0680
 3146SOL    HW121911   1.544   1.262   7.385 -2.7606 -0.5946 -1.0200
 3146SOL    HW221912   1.549   1.406   7.463  0.8109 -0.5006 -1.3283
 3147SOL     OW21913   3.963   3.394   2.849 -0.7312  0.3923 -0.1587
 3147SOL    HW121914   3.949   3.474   2.790  1.6779 -0.3100 -1.7852
 3147SOL    HW221915   4.040   3.341   2.814 -1.4599 -1.9435  1.6669
 3148SOL     OW21916   4.858   7.694   0.457 -0.5304  0.9165 -0.4725
 3148SOL    HW121917   4.806   7.615   0.425 -1.3452  1.2792 -0.0751
 3148SOL    HW221918   4.801   7.748   0.519 -0.0098  1.8613 -0.8066
 3149SOL     OW21919   6.924   6.838   4.098 -0.0704 -0.2909 -0.1394
 3149SOL    HW121920   6.907   6.917   4.158  0.2316 -0.8577  0.7123
 3149SOL    HW221921   6.841   6.815   4.049 -0.3274  0.1897  0.0650
 3150SOL     OW21922   0.374   3.219   4.384 -0.1895  0.1974  0.2581
 3150SOL    HW121923   0.327   3.286   4.326 -0.8891 -0.1948  0.3722
 3150SOL    HW221924   0.331   3.130   4.374 -0.1531  0.0735  1.2011
 3151SOL     OW21925   0.290   6.808   5.113  0.3264  0.0173  0.6394
 3151SOL    HW121926   0.320   6.899   5.084  0.9805 -0.6067 -0.7491
 3151SOL    HW221927   0.361   6.742   5.090 -0.8017 -1.0619  0.2156
 3152SOL     OW21928   4.239   2.446   5.789 -0.0819 -0.3921  0.7380
 3152SOL    HW121929   4.336   2.462   5.807  0.0049 -1.0593  0.8749
 3152SOL    HW221930   4.227   2.419   5.693 -0.1718  0.0358  0.6287
 3153SOL     OW21931   5.370   4.627   6.788 -0.4375 -0.3618  0.0898
 3153SOL    HW121932   5.355   4.628   6.689 -1.0147 -1.5003  0.1608
 3153SOL    HW221933   5.408   4.539   6.816  2.7266  1.0880  0.4733
 3154SOL     OW21934   7.194   5.539   8.144 -0.0721  0.1827 -0.2963
 3154SOL    HW121935   7.239   5.479   8.078  0.7649  0.0691  0.3773
 3154SOL    HW221936   7.117   5.490   8.186  0.2991 -0.2480 -0.1129
 3155SOL     OW21937   3.187   1.858   2.965  0.5484 -0.2057 -0.4859
 3155SOL    HW121938   3.253   1.879   3.038  0.0233 -1.2176  0.2893
 3155SOL    HW221939   3.100   1.831   3.005 -0.7661  2.2993 -1.5025
 3156SOL     OW21940   1.188   1.131   6.513 -0.0255  0.7122  0.6607
 3156SOL    HW121941   1.256   1.062   6.539 -0.9540 -0.2755  0.4956
 3156SOL    HW221942   1.154   1.111   6.422  0.6806  2.1806  0.0593
 3157SOL     OW21943   3.898   0.380   0.295 -0.4942 -0.0658  0.0567
 3157SOL    HW121944   3.860   0.301   0.247  0.3499 -0.1932 -0.4198
 3157SOL    HW221945   3.998   0.381   0.284 -0.3952  0.4909  0.9309
 3158SOL     OW21946   4.350   0.630   3.400  0.2175 -0.7904 -0.2310
 3158SOL    HW121947   4.275   0.696   3.401  2.3037  1.6501 -0.7790
 3158SOL    HW221948   4.387   0.620   3.492  0.1963 -0.8512 -0.2289
 3159SOL     OW21949   7.727   7.747   6.671  0.0936 -0.4839  0.2800
 3159SOL    HW121950   7.672   7.826   6.697 -0.7601 -1.0676  0.2864
 3159SOL    HW221951   7.792   7.726   6.744 -0.8668 -0.8438  1.0511
 3160SOL     OW21952   5.045   3.961   1.853  0.4318 -0.7596 -0.4410
 3160SOL    HW121953   5.134   3.980   1.895 -1.3954  1.6789  2.5095
 3160SOL    HW221954   4.993   3.899   1.911 -1.3052  0.9590 -0.1039
 3161SOL     OW21955   8.762   0.347   1.268  0.1792 -0.0221  0.2586
 3161SOL    HW121956   8.697   0.407   1.315 -0.3202 -0.8871  0.6731
 3161SOL    HW221957   8.772   0.262   1.319  2.6384  0.6131  0.9123
 3162SOL     OW21958   5.806   5.357   8.640 -0.1227 -0.2999  0.2185
 3162SOL    HW121959   5.817   5.450   8.604 -1.6171 -0.6814 -1.2920
 3162SOL    HW221960   5.709   5.336   8.647  0.2071 -2.2169 -0.6950
 3163SOL     OW21961   5.275   4.747   2.598 -0.5393 -0.3370  0.3501
 3163SOL    HW121962   5.333   4.705   2.527  1.5231  0.2226  1.6509
 3163SOL    HW221963   5.209   4.680   2.631 -1.0830 -0.8145 -1.5974
 3164SOL     OW21964   6.692   5.326   8.605 -0.0217 -0.4053 -0.1692
 3164SOL    HW121965   6.669   5.233   8.635 -0.7560 -0.1746 -0.0253
 3164SOL    HW221966   6.792   5.335   8.600  0.0475 -1.5623 -1.3080
 3165SOL     OW21967   5.541   5.972   0.493  0.0139  0.8155  0.2913
 3165SOL    HW121968   5.455   5.948   0.537  0.5236 -0.9184  0.3616
 3165SOL    HW221969   5.593   6.033   0.552  0.5364 -1.2069  1.9509
 3166SOL     OW21970   4.053   0.104   5.650  0.1906  0.4242  0.3071
 3166SOL    HW121971   4.077   0.008   5.634 -1.6953 -0.0915  0.4632
 3166SOL    HW221972   4.137   0.158   5.656  1.3595 -1.4490  1.7330
 3167SOL     OW21973   1.188   3.705   1.770 -0.3149 -0.4636  0.1350
 3167SOL    HW121974   1.106   3.759   1.790 -0.0656 -0.2047  0.4361
 3167SOL    HW221975   1.261   3.765   1.737 -0.0295 -0.6110  0.4985
 3168SOL     OW21976   0.068   2.832   2.340 -0.2522 -0.0260  0.3049
 3168SOL    HW121977   0.013   2.777   2.402 -0.9113 -1.1408 -1.2292
 3168SOL    HW221978   0.007   2.881   2.277  0.4073  1.0637  0.4961
 3169SOL     OW21979   5.228   5.916   5.450 -0.4456  0.0933  0.1698
 3169SOL    HW121980   5.279   5.875   5.374  2.3160  1.6700  1.1292
 3169SOL    HW221981   5.185   6.001   5.420  0.9816  0.9282  0.4383
 3170SOL     OW21982   4.303   0.869   0.994  0.0276  0.5976  0.3608
 3170SOL    HW121983   4.320   0.967   0.995  0.1446  0.5849 -0.1655
 3170SOL    HW221984   4.363   0.825   0.927  0.2921  0.1080  0.9149
 3171SOL     OW21985   4.074   2.882   0.694 -0.5938  0.2116 -0.4840
 3171SOL    HW121986   4.095   2.932   0.610 -2.5223  3.4440  0.8527
 3171SOL    HW221987   4.158   2.845   0.733  0.9145  2.3567 -1.5902
 3172SOL     OW21988   4.603   4.602   1.214 -0.0058  0.2244 -0.5085
 3172SOL    HW121989   4.644   4.620   1.303 -0.2057  0.7683 -0.5295
 3172SOL    HW221990   4.602   4.685   1.160 -0.4159  0.0261 -0.8054
 3173SOL     OW21991   0.309   1.812   6.177 -0.3083  0.4491 -0.2047
 3173SOL    HW121992   0.379   1.877   6.148  0.9158 -1.6804 -2.2953
 3173SOL    HW221993   0.238   1.806   6.107 -0.9269  0.2612  0.4299
 3174SOL     OW21994   7.043   3.774   4.611  0.2633  0.2249 -0.1427
 3174SOL    HW121995   7.142   3.773   4.626  0.3514  2.0966 -0.4926
 3174SOL    HW221996   6.995   3.773   4.699  0.6021 -0.0403  0.0375
 3175SOL     OW21997   8.419   7.619   7.535 -0.0381  0.0097 -0.8495
 3175SOL    HW121998   8.404   7.649   7.440  0.9672 -0.6380 -1.2151
 3175SOL    HW221999   8.330   7.612   7.581 -0.5820 -0.1433 -1.8875
 3176SOL     OW22000   1.849   0.366   1.274  0.1341 -0.1975  0.0801
 3176SOL    HW122001   1.796   0.297   1.324  1.7354 -0.4867  1.4499
 3176SOL    HW222002   1.936   0.325   1.246 -0.2069  0.3632 -1.8460
 3177SOL     OW22003   6.227   6.799   3.830  0.5300  0.1438 -0.6636
 3177SOL    HW122004   6.209   6.741   3.751  1.5883  0.6882 -1.3149
 3177SOL    HW222005   6.231   6.743   3.913 -2.1220 -0.2459 -0.7582
 3178SOL     OW22006   1.130   3.638   0.476  0.3749 -0.3508 -0.1046
 3178SOL    HW122007   1.143   3.545   0.508 -4.3102 -0.7438  1.0217
 3178SOL    HW222008   1.099   3.695   0.552 -1.3311  1.0100 -1.7676
 3179SOL     OW22009   0.635   2.100   3.560 -0.0119 -0.4242 -0.2461
 3179SOL    HW122010   0.715   2.153   3.533  0.8331 -1.4731  0.1699
 3179SOL    HW222011   0.559   2.122   3.499  0.7210  0.2168 -0.9488
 3180SOL     OW22012   6.624   5.117   0.088  0.0689  0.2425  0.2257
 3180SOL    HW122013   6.550   5.075   0.035  0.7014 -0.6730  0.0469
 3180SOL    HW222014   6.707   5.062   0.078  0.3554  0.3844  1.7014
 3181SOL     OW22015   5.431   0.751   0.429 -0.2773 -0.4353  0.4290
 3181SOL    HW122016   5.338   0.734   0.397 -0.3420  1.3194 -0.3261
 3181SOL    HW222017   5.492   0.768   0.351 -0.0162  1.7382  1.0639
 3182SOL     OW22018   0.628   4.391   5.789 -0.0979  0.0292  0.0693
 3182SOL    HW122019   0.719   4.356   5.808  0.1745 -0.3434 -1.9062
 3182SOL    HW222020   0.563   4.315   5.786  0.0652 -0.0487 -1.6737
 3183SOL     OW22021   8.834   4.377   6.687  0.1022  0.2232  0.2155
 3183SOL    HW122022   8.751   4.428   6.662 -0.1449 -0.6190 -0.7382
 3183SOL    HW222023   8.905   4.441   6.714 -0.0390  1.1298 -1.4591
 3184SOL     OW22024   8.328   4.109   4.689 -0.6230 -0.1198  0.6869
 3184SOL    HW122025   8.398   4.162   4.642 -1.0342 -0.2406 -0.0565
 3184SOL    HW222026   8.259   4.171   4.727 -0.6309 -0.0680  0.5877
 3185SOL     OW22027   7.513   2.618   2.624  0.4456 -0.2643 -0.6226
 3185SOL    HW122028   7.531   2.563   2.542 -1.1041  0.6922 -1.6303
 3185SOL    HW222029   7.508   2.715   2.598  2.4234  0.2986  1.0118
 3186SOL     OW22030   1.601   8.072   1.247 -0.2937 -0.4867 -0.3267
 3186SOL    HW122031   1.648   8.086   1.160 -1.3192 -1.7081 -1.0899
 3186SOL    HW222032   1.502   8.067   1.232 -0.4424 -1.3167  0.8087
 3187SOL     OW22033   5.952   7.034   1.822 -0.0961 -0.2339 -0.3597
 3187SOL    HW122034   5.988   6.947   1.787 -1.5299 -1.4389  1.0977
 3187SOL    HW222035   5.878   7.066   1.763  1.3120  0.7001 -1.6495
 3188SOL     OW22036   3.470   0.418   0.738  0.3237 -0.1824 -0.2540
 3188SOL    HW122037   3.539   0.488   0.758  0.0566 -0.0011  0.0402
 3188SOL    HW222038   3.454   0.363   0.820 -0.2185  0.0711 -0.1868
 3189SOL     OW22039   6.652   2.974   5.901  0.3187  0.1913  0.0732
 3189SOL    HW122040   6.722   2.960   5.971 -1.7119 -2.0260  1.7308
 3189SOL    HW222041   6.678   2.925   5.818  1.3843  0.5248  0.1993
 3190SOL     OW22042   4.461   2.274   0.938  0.2263  0.0546  0.2105
 3190SOL    HW122043   4.416   2.256   0.851 -0.2495  0.4008  0.3867
 3190SOL    HW222044   4.517   2.357   0.931  0.2320  0.0514  0.2178
 3191SOL     OW22045   1.183   6.026   6.594  0.2119 -0.1464  0.4086
 3191SOL    HW122046   1.095   6.072   6.581 -1.3574 -2.3081  2.7863
 3191SOL    HW222047   1.242   6.083   6.652 -0.1739  0.6547  0.0215
 3192SOL     OW22048   8.989   5.007   8.765 -0.0757 -0.3993  0.1747
 3192SOL    HW122049   8.977   4.924   8.820 -0.7623 -1.4521 -1.5127
 3192SOL    HW222050   9.056   5.067   8.809  0.7048 -2.0110  1.2324
 3193SOL     OW22051   8.435   8.336   8.025 -0.6775 -0.4677  0.4589
 3193SOL    HW122052   8.344   8.378   8.020 -1.1756 -1.7274 -1.2187
 3193SOL    HW222053   8.444   8.266   7.955  2.0066  0.4268 -0.1502
 3194SOL     OW22054   6.173   5.188   3.123  0.0256 -0.3164  0.2299
 3194SOL    HW122055   6.130   5.098   3.126  0.4537 -0.5285 -0.0156
 3194SOL    HW222056   6.103   5.259   3.136 -0.2808 -0.6890  0.6092
 3195SOL     OW22057   1.523   3.009   4.986 -0.1730  0.1317  0.2070
 3195SOL    HW122058   1.463   3.030   4.908  0.8222  2.1764 -0.0563
 3195SOL    HW222059   1.467   2.989   5.066 -1.2813  3.0422  0.2343
 3196SOL     OW22060   0.854   0.838   6.565 -0.3436  0.8917 -0.0604
 3196SOL    HW122061   0.895   0.868   6.651 -0.8183 -1.7014  1.1293
 3196SOL    HW222062   0.922   0.788   6.511 -0.9266 -0.3825  0.3513
 3197SOL     OW22063   5.007   3.983   2.918 -0.3986 -0.3132 -0.3830
 3197SOL    HW122064   4.998   3.887   2.894 -0.6133 -0.7471  1.3880
 3197SOL    HW222065   5.079   4.025   2.862  1.1366 -1.9868  0.2915
 3198SOL     OW22066   3.966   5.423   8.183 -0.2179 -0.4253  0.2353
 3198SOL    HW122067   3.968   5.326   8.162 -0.6229  0.1200 -2.6305
 3198SOL    HW222068   3.978   5.437   8.281  0.1844 -3.3220  0.6376
 3199SOL     OW22069   0.927   2.377   8.150  0.2137 -0.2781 -0.3007
 3199SOL    HW122070   0.874   2.442   8.095  0.8306 -1.2532 -2.1064
 3199SOL    HW222071   0.928   2.288   8.104  3.8377 -0.1408 -0.5699
 3200SOL     OW22072   0.278   5.367   0.113 -0.1421  0.0898  0.2076
 3200SOL    HW122073   0.239   5.286   0.156 -0.3750 -0.6899 -1.4164
 3200SOL    HW222074   0.213   5.443   0.118 -0.7362 -0.3991 -0.0186
 3201SOL     OW22075   6.445   6.409   7.302  0.0890 -0.1167 -0.0776
 3201SOL    HW122076   6.377   6.439   7.235 -0.9701  0.2310  1.1367
 3201SOL    HW222077   6.408   6.419   7.394  1.5444 -0.5620  0.5723
 3202SOL     OW22078   8.557   2.252   5.018  0.0975  0.3268 -0.5945
 3202SOL    HW122079   8.589   2.340   5.053 -0.4067 -0.4742  1.9463
 3202SOL    HW222080   8.600   2.178   5.070 -0.5952 -0.9137 -1.7626
 3203SOL     OW22081   6.619   0.022   2.161 -0.3809  0.8853  0.2260
 3203SOL    HW122082   6.668   0.069   2.087 -0.3964  0.5449  0.0012
 3203SOL    HW222083   6.638   0.069   2.248 -0.3321  1.2602  0.0142
 3204SOL     OW22084   1.064   2.126   8.330 -0.0079 -0.4108  0.2599
 3204SOL    HW122085   0.999   2.116   8.254 -0.8445  1.2806  0.7352
 3204SOL    HW222086   1.016   2.108   8.416  0.9970 -2.5698  0.4076
 3205SOL     OW22087   3.033   3.063   0.368 -0.3028  0.1571  0.6046
 3205SOL    HW122088   3.060   3.034   0.460  1.0753  2.4848  0.9806
 3205SOL    HW222089   3.089   3.141   0.340 -1.0667 -0.1829 -2.0137
 3206SOL     OW22090   6.975   8.212   5.916  0.1644  0.1273 -0.2407
 3206SOL    HW122091   6.995   8.310   5.915 -2.2185  0.6717  1.1360
 3206SOL    HW222092   7.019   8.168   5.838  2.4254  2.0373 -0.1184
 3207SOL     OW22093   3.372   2.615   1.814 -0.0471 -0.2527 -0.2082
 3207SOL    HW122094   3.347   2.683   1.745  0.1169 -0.5872 -0.5982
 3207SOL    HW222095   3.472   2.615   1.826 -0.0269 -0.5743 -0.3663
 3208SOL     OW22096   6.317   6.068   3.097 -0.2919 -0.2438  0.1148
 3208SOL    HW122097   6.416   6.073   3.113 -0.4830 -1.0005  1.6725
 3208SOL    HW222098   6.299   6.017   3.013  0.6202 -0.6435  0.1567
 3209SOL     OW22099   3.863   0.111   3.483 -0.4778  0.3698 -0.0596
 3209SOL    HW122100   3.859   0.178   3.408 -0.6160  1.8409  1.2233
 3209SOL    HW222101   3.939   0.048   3.468 -0.9713  0.1696 -1.8238
 3210SOL     OW22102   5.334   0.100   0.439 -0.2286 -0.1261  0.4491
 3210SOL    HW122103   5.302   0.132   0.528  0.1609  0.8247  0.2508
 3210SOL    HW222104   5.295   0.010   0.420 -1.0455  0.0722  1.1734
 3211SOL     OW22105   1.123   7.156   2.339 -0.4148 -0.3213  0.1940
 3211SOL    HW122106   1.081   7.094   2.406  1.5267 -2.1564 -0.2214
 3211SOL    HW222107   1.201   7.202   2.382 -1.3783  1.2772  0.2606
 3212SOL     OW22108   0.058   1.520   3.962 -0.5106 -0.2415 -0.0781
 3212SOL    HW122109   0.106   1.535   3.876  1.5450 -0.8694  0.9172
 3212SOL    HW222110   0.123   1.528   4.038 -2.4865  1.4060  1.5149
 3213SOL     OW22111   6.343   3.453   8.324  0.0829 -0.2612 -0.1633
 3213SOL    HW122112   6.434   3.495   8.330  0.0214 -0.2394  0.6318
 3213SOL    HW222113   6.298   3.485   8.240 -0.1088  1.5918  0.6082
 3214SOL     OW22114   7.265   0.318   2.093  0.2940  0.5844  0.2739
 3214SOL    HW122115   7.310   0.263   2.022 -1.1850  1.9520 -1.7576
 3214SOL    HW222116   7.189   0.266   2.132 -0.0492  0.5267 -0.4625
 3215SOL     OW22117   2.734   0.419   5.755  0.5513 -0.7622  0.4971
 3215SOL    HW122118   2.684   0.352   5.810  3.1245 -3.3069 -0.1363
 3215SOL    HW222119   2.829   0.423   5.785  0.5466  2.3748  0.2413
 3216SOL     OW22120   6.224   0.734   2.639 -0.3314 -0.6097 -0.5855
 3216SOL    HW122121   6.141   0.790   2.643  0.5072  0.6929 -1.2146
 3216SOL    HW222122   6.200   0.641   2.611 -1.7378 -0.5852  0.4936
 3217SOL     OW22123   3.381   3.749   6.575  0.0782 -0.2000  0.3045
 3217SOL    HW122124   3.294   3.700   6.587  0.3428 -0.7793 -0.1261
 3217SOL    HW222125   3.379   3.834   6.628 -1.1955  0.3593 -0.6375
 3218SOL     OW22126   8.026   2.239   1.664 -0.1729 -1.2102 -0.5992
 3218SOL    HW122127   8.087   2.238   1.584 -1.0072  0.1337 -1.2852
 3218SOL    HW222128   8.003   2.146   1.690  0.3869 -1.6721 -1.7173
 3219SOL     OW22129   1.477   3.204   5.567  0.3143 -0.1289  0.0292
 3219SOL    HW122130   1.427   3.197   5.653  0.0873 -2.0200 -0.2403
 3219SOL    HW222131   1.458   3.293   5.525 -1.4950 -0.1523  0.7506
 3220SOL     OW22132   0.958   2.732   3.958  0.1167 -0.8799  0.3826
 3220SOL    HW122133   0.994   2.739   4.051  1.0110  0.9315 -0.0728
 3220SOL    HW222134   0.861   2.706   3.961  0.0672 -0.5671  1.8316
 3221SOL     OW22135   7.505   3.329   3.111  0.0721 -0.0827 -0.0359
 3221SOL    HW122136   7.577   3.264   3.085  0.8386 -0.1296  2.0529
 3221SOL    HW222137   7.510   3.409   3.052  1.8510 -0.1096  0.0271
 3222SOL     OW22138   6.455   8.467   1.811 -0.1908 -0.5103 -0.1266
 3222SOL    HW122139   6.376   8.485   1.753 -0.5548  0.8366  0.7588
 3222SOL    HW222140   6.425   8.449   1.904  0.5428  0.1537  0.2483
 3223SOL     OW22141   2.085   6.644   2.881  0.1491 -0.4471  0.2166
 3223SOL    HW122142   1.995   6.637   2.922  0.5910 -1.1509  1.0799
 3223SOL    HW222143   2.090   6.728   2.826 -0.9137 -0.2416  0.4200
 3224SOL     OW22144   7.219   4.716   2.050  0.1223 -0.1564 -0.0545
 3224SOL    HW122145   7.161   4.652   2.102  2.2402 -0.3857  2.0995
 3224SOL    HW222146   7.189   4.809   2.068 -0.2481 -0.3192  0.1949
 3225SOL     OW22147   8.528   8.298   5.886  0.1174 -0.7010 -0.0623
 3225SOL    HW122148   8.518   8.334   5.793  0.9273 -1.0108 -0.2765
 3225SOL    HW222149   8.534   8.199   5.884 -3.0369 -0.9598  0.6142
 3226SOL     OW22150   6.150   0.094   3.703  0.4013  0.3004 -0.4457
 3226SOL    HW122151   6.227   0.158   3.701 -0.0470  0.8281 -0.7569
 3226SOL    HW222152   6.087   0.115   3.628 -0.8052  0.8076  0.7016
 3227SOL     OW22153   0.447   7.456   6.884 -1.1283  0.0200  0.2292
 3227SOL    HW122154   0.387   7.494   6.955 -0.5169 -0.8424  1.2202
 3227SOL    HW222155   0.451   7.519   6.807  0.2261  2.2538  2.0309
 3228SOL     OW22156   0.897   8.112   6.280  0.2045  0.4673 -0.6056
 3228SOL    HW122157   0.817   8.168   6.300 -0.3690 -0.6117  0.1826
 3228SOL    HW222158   0.888   8.023   6.325  0.6335 -0.6441 -2.6294
 3229SOL     OW22159   2.474   2.465   1.448 -0.2006 -0.1716  0.1858
 3229SOL    HW122160   2.400   2.424   1.500 -0.9577  0.3944 -0.4429
 3229SOL    HW222161   2.453   2.560   1.429  0.1370 -0.3390 -1.0400
 3230SOL     OW22162   4.054   1.447   8.988 -0.3299  0.0013 -0.2451
 3230SOL    HW122163   4.113   1.437   9.068  0.4643 -0.5159 -0.8967
 3230SOL    HW222164   4.010   1.360   8.967 -1.0743  0.3018  0.0325
 3231SOL     OW22165   4.976   8.639   6.808  0.0580 -0.2124  0.2864
 3231SOL    HW122166   5.013   8.662   6.898  1.4648  0.9836 -0.5569
 3231SOL    HW222167   4.996   8.544   6.786  0.0296 -0.4036  1.0938
 3232SOL     OW22168   2.580   0.562   1.655 -0.1005  0.0840  0.3318
 3232SOL    HW122169   2.679   0.576   1.658 -0.1270  0.8366 -1.4040
 3232SOL    HW222170   2.553   0.492   1.722  1.6256 -0.3021  0.6345
 3233SOL     OW22171   3.609   4.069   2.398 -0.0253  0.2528  0.6444
 3233SOL    HW122172   3.516   4.044   2.424 -0.1084  0.7129  0.7937
 3233SOL    HW222173   3.616   4.069   2.298 -0.1278  0.0083  0.6361
 3234SOL     OW22174   1.816   6.176   7.783 -0.1352 -0.3405  0.4042
 3234SOL    HW122175   1.763   6.250   7.741 -0.9719 -0.3754  1.3655
 3234SOL    HW222176   1.813   6.095   7.724  0.3282  0.2215 -0.3923
 3235SOL     OW22177   6.984   0.361   8.219 -0.4402  0.1673  0.2196
 3235SOL    HW122178   7.021   0.359   8.126  1.5547 -1.0644  1.0106
 3235SOL    HW222179   7.012   0.445   8.265 -0.3354  0.1699  0.1503
 3236SOL     OW22180   1.849   3.936   4.678  0.3399 -0.2592  0.0161
 3236SOL    HW122181   1.863   4.009   4.746 -2.1849  1.1094 -0.8761
 3236SOL    HW222182   1.810   3.856   4.723  2.7282 -0.9588  0.9256
 3237SOL     OW22183   5.255   6.750   6.036 -0.2114 -0.1538 -0.4555
 3237SOL    HW122184   5.245   6.818   5.963  0.9356 -0.0080 -0.4941
 3237SOL    HW222185   5.165   6.727   6.073 -0.5849  1.6927 -0.1599
 3238SOL     OW22186   3.346   7.429   1.010  0.3261  0.5778 -0.2629
 3238SOL    HW122187   3.248   7.411   1.013  0.2426  1.2812  2.3177
 3238SOL    HW222188   3.363   7.527   1.013  1.1115  0.4479 -0.1486
 3239SOL     OW22189   2.051   0.102   2.717 -0.7257  0.0467  0.1756
 3239SOL    HW122190   1.968   0.074   2.669 -0.0479  0.8078 -1.4585
 3239SOL    HW222191   2.130   0.087   2.659  0.1930  0.2986  1.3402
 3240SOL     OW22192   3.722   1.050   3.979  0.3691 -0.4173  0.1526
 3240SOL    HW122193   3.705   1.067   4.076 -0.2250  1.4267 -0.2553
 3240SOL    HW222194   3.650   0.991   3.942 -0.0167 -0.2069  0.5668
 3241SOL     OW22195   1.395   5.115   6.701 -0.5983  0.3278  0.2421
 3241SOL    HW122196   1.372   5.187   6.636  3.7176  2.4802  0.8953
 3241SOL    HW222197   1.426   5.034   6.651  1.4062  1.4977 -0.4775
 3242SOL     OW22198   3.050   0.295   1.134 -0.6405  0.1831  0.2015
 3242SOL    HW122199   3.010   0.221   1.079  0.4741  0.4072 -0.9305
 3242SOL    HW222200   3.019   0.286   1.229 -4.6659  1.2424 -0.8832
 3243SOL     OW22201   2.382   0.114   8.526 -0.4167 -0.5039  0.5480
 3243SOL    HW122202   2.287   0.107   8.554  0.3086 -1.9305  2.8020
 3243SOL    HW222203   2.422   0.198   8.565 -0.5237 -0.3658  0.3571
 3244SOL     OW22204   4.379   3.063   5.931  0.1001 -0.8950 -0.1781
 3244SOL    HW122205   4.431   3.108   5.858 -0.3465  0.7973  0.5182
 3244SOL    HW222206   4.284   3.051   5.902  0.5612 -2.8437 -0.9639
 3245SOL     OW22207   1.931   7.272   6.310 -0.6372  0.9128  0.5291
 3245SOL    HW122208   1.969   7.271   6.403 -0.2807  0.1933  0.3829
 3245SOL    HW222209   1.973   7.346   6.258  2.4204 -1.3245 -0.3538
 3246SOL     OW22210   7.340   8.164   1.350 -0.6281 -0.0507  0.5610
 3246SOL    HW122211   7.246   8.134   1.369 -0.3864 -0.5121  1.0425
 3246SOL    HW222212   7.341   8.219   1.267 -1.3014 -0.1856  0.4585
 3247SOL     OW22213   0.399   8.327   4.411 -1.1750 -0.2873 -0.3936
 3247SOL    HW122214   0.486   8.377   4.410 -1.0912 -0.4264 -0.0660
 3247SOL    HW222215   0.396   8.266   4.332 -1.2846  0.2470 -0.8003
 3248SOL     OW22216   4.390   8.178   2.392 -0.2637  0.0723  0.5188
 3248SOL    HW122217   4.452   8.124   2.450 -0.7877 -0.0838  0.9380
 3248SOL    HW222218   4.373   8.266   2.435  0.6077  0.5933 -0.1776
 3249SOL     OW22219   2.174   0.174   2.005 -0.3395  0.3101 -0.2271
 3249SOL    HW122220   2.075   0.190   2.002 -0.4148  0.5328  2.6347
 3249SOL    HW222221   2.192   0.087   2.051  0.8403  0.7207  0.1094
 3250SOL     OW22222   4.148   1.417   6.254  0.0199 -0.7435  0.3762
 3250SOL    HW122223   4.145   1.358   6.334 -1.6054 -0.2149  0.7227
 3250SOL    HW222224   4.163   1.361   6.172  2.6806 -1.1790  1.1171
 3251SOL     OW22225   7.015   8.935   3.112  0.4684 -0.0195 -0.2911
 3251SOL    HW122226   7.104   8.897   3.137  0.2790  0.0123  0.4613
 3251SOL    HW222227   6.943   8.871   3.137  0.3224 -0.3484 -1.5434
 3252SOL     OW22228   8.753   3.092   5.675 -0.5601  0.5827  0.5109
 3252SOL    HW122229   8.833   3.114   5.619 -1.5446 -0.8763 -1.5263
 3252SOL    HW222230   8.676   3.069   5.615 -1.6684 -0.9479  2.4768
 3253SOL     OW22231   8.533   5.478   4.836  0.0063  0.8808  0.8996
 3253SOL    HW122232   8.483   5.454   4.752  1.4741 -1.1863  0.5649
 3253SOL    HW222233   8.530   5.401   4.899  2.2907  0.9151  1.0828
 3254SOL     OW22234   1.501   2.415   3.684  0.0177  0.2005 -0.0779
 3254SOL    HW122235   1.458   2.348   3.624  0.3445 -1.2613  1.3025
 3254SOL    HW222236   1.553   2.481   3.629 -2.2384  0.7462 -1.6073
 3255SOL     OW22237   5.158   5.455   4.427  0.3326 -0.2033 -0.4265
 3255SOL    HW122238   5.173   5.514   4.506 -0.2526  0.5787 -0.8912
 3255SOL    HW222239   5.234   5.390   4.419 -0.4259 -1.4091  1.7572
 3256SOL     OW22240   8.514   3.506   6.140  0.0800  0.2177 -0.0673
 3256SOL    HW122241   8.535   3.418   6.098 -1.3887  0.2658 -0.9025
 3256SOL    HW222242   8.471   3.491   6.230 -2.6099  0.0173 -1.3430
 3257SOL     OW22243   8.014   8.959   1.513 -0.5250  0.5237  0.0974
 3257SOL    HW122244   7.915   8.969   1.501 -0.1794  3.0316 -0.8497
 3257SOL    HW222245   8.037   8.973   1.609 -1.1451 -0.7300  0.4435
 3258SOL     OW22246   0.633   8.333   0.854  0.2774  0.0877 -0.0213
 3258SOL    HW122247   0.611   8.236   0.864  2.3122 -0.4804 -0.7074
 3258SOL    HW222248   0.689   8.362   0.932 -1.2165  1.0151  0.7414
 3259SOL     OW22249   4.099   8.600   1.579  0.4878 -0.3260  0.1848
 3259SOL    HW122250   4.109   8.531   1.650  3.4516  0.8794  0.9970
 3259SOL    HW222251   4.048   8.678   1.616 -0.9352 -1.1164 -0.0717
 3260SOL     OW22252   5.184   4.264   3.136 -0.1307  0.6220 -0.0089
 3260SOL    HW122253   5.163   4.208   3.215 -1.5925  1.5099  0.2494
 3260SOL    HW222254   5.282   4.285   3.134 -0.3054  1.7721  2.3479
 3261SOL     OW22255   2.779   7.649   4.342  0.5317 -0.2707  0.1512
 3261SOL    HW122256   2.715   7.660   4.265 -0.8374 -2.1438  1.0011
 3261SOL    HW222257   2.786   7.736   4.391 -0.1333  0.3896 -0.8772
 3262SOL     OW22258   0.904   6.387   1.656  0.1316  0.2898 -0.6433
 3262SOL    HW122259   0.832   6.454   1.676  0.3990  0.4800 -0.2945
 3262SOL    HW222260   0.982   6.405   1.716  0.6424  0.3661 -1.3404
 3263SOL     OW22261   3.454   3.048   3.220  0.7182 -0.0104 -0.0044
 3263SOL    HW122262   3.431   2.951   3.228 -0.5893  0.3717  1.0866
 3263SOL    HW222263   3.376   3.103   3.249  1.5629  1.3698 -0.3056
 3264SOL     OW22264   6.764   8.366   6.261  0.2744  0.1680 -0.0341
 3264SOL    HW122265   6.724   8.403   6.346 -0.2284  0.9521 -0.6052
 3264SOL    HW222266   6.709   8.288   6.231  0.8679 -0.5608  0.7393
 3265SOL     OW22267   4.576   0.783   0.816 -0.2583 -0.2471 -0.1563
 3265SOL    HW122268   4.635   0.789   0.736  1.5048  5.1112  1.3134
 3265SOL    HW222269   4.631   0.761   0.897 -0.8730  1.0097  0.6236
 3266SOL     OW22270   6.902   5.803   7.345  0.1847 -0.5753 -0.0238
 3266SOL    HW122271   6.990   5.765   7.375 -0.8924 -1.3747  2.2734
 3266SOL    HW222272   6.876   5.878   7.406 -2.0049 -2.1460  1.0764
 3267SOL     OW22273   7.950   5.521   3.649 -0.5525 -0.1448 -0.0777
 3267SOL    HW122274   8.029   5.579   3.669  0.0430 -1.2350  0.7826
 3267SOL    HW222275   7.871   5.553   3.700 -0.0228 -0.5601  1.0035
 3268SOL     OW22276   0.761   8.627   8.361 -0.3413  0.3180  0.3702
 3268SOL    HW122277   0.789   8.538   8.397 -0.4615 -0.2055 -0.7998
 3268SOL    HW222278   0.667   8.646   8.388 -0.9648 -0.7829 -0.9544
 3269SOL     OW22279   8.086   7.091   7.005 -0.0880  0.6886 -1.0158
 3269SOL    HW122280   8.023   7.088   7.082  0.4706  1.8642 -0.4964
 3269SOL    HW222281   8.044   7.048   6.925 -0.9603  0.1430 -0.2659
 3270SOL     OW22282   8.798   5.802   3.245  0.3287  0.0818 -0.0861
 3270SOL    HW122283   8.866   5.731   3.224 -0.0558 -0.5835  0.8996
 3270SOL    HW222284   8.841   5.892   3.238  1.4116 -0.3485  0.8406
 3271SOL     OW22285   1.936   4.438   2.371 -0.1989 -0.0971  0.0388
 3271SOL    HW122286   1.871   4.365   2.397 -1.4403  1.3944  1.2414
 3271SOL    HW222287   1.932   4.452   2.272 -0.6761 -0.9996 -0.0807
 3272SOL     OW22288   6.979   6.865   3.807  0.6044 -0.8394 -0.6736
 3272SOL    HW122289   6.958   6.871   3.905 -0.1739  0.3116 -0.9119
 3272SOL    HW222290   6.894   6.857   3.755  0.9864 -0.7248 -1.3209
 3273SOL     OW22291   8.838   2.117   7.155  0.2630 -0.1251 -0.3989
 3273SOL    HW122292   8.868   2.026   7.125  0.0276 -1.4053  2.9074
 3273SOL    HW222293   8.866   2.186   7.089  4.3425 -2.1060 -0.9077
 3274SOL     OW22294   5.607   8.039   1.634  0.1997 -0.3638  0.2953
 3274SOL    HW122295   5.524   8.016   1.685  0.6289  1.3988  1.8177
 3274SOL    HW222296   5.666   7.958   1.629 -0.0041 -0.6505  2.2987
 3275SOL     OW22297   3.438   3.059   1.936  0.1986 -0.4306 -0.0639
 3275SOL    HW122298   3.352   3.030   1.894 -1.2065  1.2685  1.5598
 3275SOL    HW222299   3.430   3.054   2.035  2.0316 -0.3392  0.1063
 3276SOL     OW22300   2.617   4.530   7.502 -0.2368  0.1477 -0.2564
 3276SOL    HW122301   2.583   4.443   7.537  2.7834 -2.6681 -3.9307
 3276SOL    HW222302   2.594   4.539   7.405  2.6359  1.7045 -0.8625
 3277SOL     OW22303   1.988   2.985   6.511 -0.4496 -0.3602 -0.2881
 3277SOL    HW122304   1.930   3.051   6.557  1.7637  1.3302  0.1354
 3277SOL    HW222305   2.071   2.970   6.564  1.4047  0.3976 -2.8743
 3278SOL     OW22306   8.129   7.361   5.820 -0.2648 -0.8738 -0.0861
 3278SOL    HW122307   8.218   7.375   5.864 -0.8639  3.0172  0.0897
 3278SOL    HW222308   8.066   7.321   5.886  0.6309 -1.1889  0.5952
 3279SOL     OW22309   8.071   0.910   2.100  0.0444 -0.0344  0.0919
 3279SOL    HW122310   8.040   1.005   2.113 -0.6478 -0.4204  1.3639
 3279SOL    HW222311   8.067   0.862   2.188 -0.8694 -1.6177 -0.7970
 3280SOL     OW22312   5.551   4.175   7.527  0.1599 -0.2618 -0.7548
 3280SOL    HW122313   5.536   4.142   7.433  1.5828  0.0167 -1.0858
 3280SOL    HW222314   5.515   4.268   7.535 -1.5904 -0.9375 -0.5105
 3281SOL     OW22315   0.935   5.164   4.831  0.4533 -0.0465  0.8929
 3281SOL    HW122316   0.847   5.206   4.808  1.0212  0.1945 -0.9122
 3281SOL    HW222317   0.953   5.177   4.928 -0.7703  1.2841  0.9688
 3282SOL     OW22318   0.070   6.302   7.881  0.3773 -0.2926  0.4774
 3282SOL    HW122319  -0.010   6.279   7.936 -0.5634  1.2924 -0.1793
 3282SOL    HW222320   0.056   6.273   7.786 -0.7891  2.7397 -0.3403
 3283SOL     OW22321   8.736   3.469   4.913 -0.0769 -0.3501 -0.3972
 3283SOL    HW122322   8.671   3.394   4.912 -1.3484  0.6805  1.7028
 3283SOL    HW222323   8.827   3.435   4.938 -0.0700 -1.5582 -1.9817
 3284SOL     OW22324   0.043   3.936   3.233  0.2484 -0.3324  0.5537
 3284SOL    HW122325   0.123   3.915   3.177  0.2011 -0.9315  0.7113
 3284SOL    HW222326  -0.010   4.009   3.188  0.6396 -0.2436  0.2296
 3285SOL     OW22327   3.986   6.210   1.986  0.0927  0.0420  0.2714
 3285SOL    HW122328   3.985   6.309   1.973 -0.5470 -0.0507 -0.3952
 3285SOL    HW222329   4.001   6.165   1.898 -0.8207 -0.4841  0.3814
 3286SOL     OW22330   6.738   0.773   3.494 -0.5110  0.0522 -0.5890
 3286SOL    HW122331   6.674   0.699   3.472 -1.5383  1.4323 -2.4047
 3286SOL    HW222332   6.795   0.792   3.414  0.9913  0.0212  0.4584
 3287SOL     OW22333   5.212   5.846   1.988  0.0457 -0.7620 -0.3618
 3287SOL    HW122334   5.139   5.865   1.923  0.6905 -1.0765 -1.1913
 3287SOL    HW222335   5.283   5.791   1.943  1.1926  0.2575  0.1887
 3288SOL     OW22336   7.998   1.465   1.456  0.3824  0.6367 -0.5652
 3288SOL    HW122337   7.927   1.454   1.526  0.6783 -0.1396 -0.3871
 3288SOL    HW222338   8.033   1.559   1.459 -1.3570  1.3285 -1.3463
 3289SOL     OW22339   7.081   5.359   4.168 -0.6806  0.1338 -0.1217
 3289SOL    HW122340   7.010   5.429   4.172 -0.9151 -0.0723 -0.6443
 3289SOL    HW222341   7.055   5.282   4.226  0.5202  1.3247  2.0753
 3290SOL     OW22342   2.431   4.887   0.143  0.3859  0.2245  0.3921
 3290SOL    HW122343   2.518   4.902   0.097 -0.5448 -0.6961 -1.7545
 3290SOL    HW222344   2.444   4.892   0.242  2.8157  0.3610  0.0936
 3291SOL     OW22345   8.035   5.341   5.227  0.3577 -0.2869  0.2256
 3291SOL    HW122346   7.987   5.273   5.173  1.7097 -2.2518  1.4420
 3291SOL    HW222347   8.002   5.339   5.321  0.8273  0.3184  0.4068
 3292SOL     OW22348   1.983   1.288   2.074  0.4065  0.6356  0.1748
 3292SOL    HW122349   2.024   1.261   2.162 -0.0244  3.1928  1.1953
 3292SOL    HW222350   1.953   1.383   2.079 -1.7071  0.1265 -2.0167
 3293SOL     OW22351   7.811   7.405   8.609  0.5764  0.0261  0.0875
 3293SOL    HW122352   7.741   7.341   8.640  0.7815 -0.5217 -0.5587
 3293SOL    HW222353   7.844   7.377   8.519 -0.4554  1.9081 -0.9145
 3294SOL     OW22354   8.704   2.784   6.739  0.2819  0.2632 -0.0565
 3294SOL    HW122355   8.619   2.797   6.688 -0.3335 -1.0652  0.6145
 3294SOL    HW222356   8.771   2.739   6.680  0.3104  0.6969 -0.3660
 3295SOL     OW22357   2.773   3.227   4.453  0.6224  0.2035  0.3017
 3295SOL    HW122358   2.735   3.213   4.362 -0.0566 -1.6825  0.8355
 3295SOL    HW222359   2.844   3.297   4.450  0.4344  0.3342 -1.6204
 3296SOL     OW22360   5.495   8.415   4.973 -0.0635 -0.2421 -0.3759
 3296SOL    HW122361   5.514   8.319   4.951 -0.2820 -0.5422  0.7144
 3296SOL    HW222362   5.425   8.450   4.911 -0.9969 -1.2144  0.1026
 3297SOL     OW22363   0.650   4.506   4.874  0.0526 -0.6093 -0.2078
 3297SOL    HW122364   0.712   4.580   4.899  0.5174 -0.7226 -0.9991
 3297SOL    HW222365   0.577   4.499   4.942  0.9965 -0.5789  0.8282
 3298SOL     OW22366   3.513   1.231   5.290 -0.1768 -0.1906  0.0208
 3298SOL    HW122367   3.441   1.274   5.235  0.7058  1.6938  0.2939
 3298SOL    HW222368   3.590   1.206   5.231 -0.6899 -1.4325 -0.1381
 3299SOL     OW22369   7.759   0.591   3.007 -0.1752  0.5175  0.3793
 3299SOL    HW122370   7.701   0.655   2.957  0.6967  0.8182 -0.2608
 3299SOL    HW222371   7.787   0.632   3.094 -0.4307  0.6139  0.4142
 3300SOL     OW22372   4.894   3.806   2.013  0.3717  0.4620  0.5008
 3300SOL    HW122373   4.886   3.738   2.086 -0.2057  0.3090  0.2946
 3300SOL    HW222374   4.803   3.837   1.986  0.4853 -0.9466 -1.5557
 3301SOL     OW22375   1.710   6.795   7.743  0.5862 -0.6338  0.0172
 3301SOL    HW122376   1.696   6.776   7.646  0.1103  1.1848 -0.2860
 3301SOL    HW222377   1.782   6.864   7.753  0.8460 -1.0390  0.9704
 3302SOL     OW22378   1.425   3.603   4.031  0.3466  0.1605  0.1759
 3302SOL    HW122379   1.501   3.558   3.984  0.4116 -0.7477  1.1303
 3302SOL    HW222380   1.420   3.698   4.003 -0.2296 -0.5950 -2.4337
 3303SOL     OW22381   8.498   8.191   4.282 -0.4373 -0.1797  0.1450
 3303SOL    HW122382   8.562   8.200   4.206  0.7711  0.5879  1.2554
 3303SOL    HW222383   8.455   8.279   4.301 -0.2069 -0.2046  0.8087
 3304SOL     OW22384   2.878   1.229   3.023 -0.1731 -0.1704 -0.2694
 3304SOL    HW122385   2.913   1.146   2.980  0.5825 -0.4998  0.9756
 3304SOL    HW222386   2.937   1.306   3.002  0.9943 -0.6053  1.3144
 3305SOL     OW22387   7.618   6.592   5.250  0.0485  0.2055 -0.2148
 3305SOL    HW122388   7.616   6.641   5.337  0.0478 -0.0046 -0.0965
 3305SOL    HW222389   7.654   6.652   5.178 -0.5553  0.5942 -0.2021
 3306SOL     OW22390   2.403   4.830   3.286  0.0955  0.3711 -0.0588
 3306SOL    HW122391   2.347   4.750   3.264 -0.1744  0.0679  1.6823
 3306SOL    HW222392   2.473   4.841   3.216  0.9099 -2.1114  0.3064
 3307SOL     OW22393   5.925   4.923   0.759  0.3082 -0.2219 -0.3985
 3307SOL    HW122394   5.977   5.008   0.768 -1.0113  0.7685 -1.8588
 3307SOL    HW222395   5.830   4.939   0.787  0.2623 -1.4521  0.1612
 3308SOL     OW22396   4.626   3.587   2.765 -1.0475  0.0974  0.1081
 3308SOL    HW122397   4.628   3.491   2.740 -1.7937 -0.0648  0.6527
 3308SOL    HW222398   4.690   3.638   2.707  1.0579 -1.0880  1.3141
 3309SOL     OW22399   1.379   5.414   1.802 -0.2784 -0.2510 -0.2113
 3309SOL    HW122400   1.432   5.498   1.790 -1.1082  0.0708 -1.6934
 3309SOL    HW222401   1.438   5.335   1.784  0.0271  0.0663 -0.6106
 3310SOL     OW22402   7.162   4.820   6.268  0.1069 -0.3233  0.3636
 3310SOL    HW122403   7.167   4.772   6.181 -0.0810  0.6707 -0.2026
 3310SOL    HW222404   7.066   4.827   6.296 -0.1144  1.9538 -0.8328
 3311SOL     OW22405   8.965   7.158   0.034 -0.5394 -0.0434 -0.3465
 3311SOL    HW122406   8.950   7.124   0.127 -0.8200  1.6479  0.2551
 3311SOL    HW222407   9.057   7.133   0.004 -0.5316 -0.7997  0.2960
 3312SOL     OW22408   6.801   3.967   3.367  0.2149 -0.0664  0.0333
 3312SOL    HW122409   6.732   3.991   3.435  0.5820 -2.2503  1.2259
 3312SOL    HW222410   6.889   3.955   3.412  0.3276 -2.2034 -0.7063
 3313SOL     OW22411   6.203   6.136   2.101  0.2289 -0.1688 -0.0368
 3313SOL    HW122412   6.276   6.162   2.163  0.1292  0.2816 -0.1043
 3313SOL    HW222413   6.231   6.057   2.047  0.7973  0.2173 -0.3060
 3314SOL     OW22414   5.039   8.895   2.138  0.5977  0.1263  0.1876
 3314SOL    HW122415   5.034   8.992   2.162 -0.7567 -0.0873  0.7979
 3314SOL    HW222416   5.076   8.844   2.216  1.8409  0.2075 -0.3289
 3315SOL     OW22417   7.707   3.924   0.057 -0.0834  0.1717 -0.2637
 3315SOL    HW122418   7.797   3.966   0.053 -0.5825  1.4563  1.3758
 3315SOL    HW222419   7.715   3.830   0.092  0.4419  0.8966  1.6194
 3316SOL     OW22420   7.090   4.507   2.308  0.3074  0.8021  0.6062
 3316SOL    HW122421   7.036   4.519   2.225 -0.2261  2.7721  1.2084
 3316SOL    HW222422   7.150   4.428   2.298 -0.0930  0.7374 -1.4584
 3317SOL     OW22423   3.443   6.637   3.398  0.2192  0.5181 -0.3021
 3317SOL    HW122424   3.436   6.643   3.299  2.3804  0.9613 -0.4425
 3317SOL    HW222425   3.530   6.677   3.428  0.0455 -0.5409  1.6785
 3318SOL     OW22426   2.120   7.891   7.801 -0.0887  0.1388  0.3749
 3318SOL    HW122427   2.165   7.956   7.862  0.4415 -0.6719  0.8620
 3318SOL    HW222428   2.189   7.840   7.749 -0.4596 -0.6849  0.6779
 3319SOL     OW22429   8.799   1.737   5.152 -0.6778 -0.1506  0.5342
 3319SOL    HW122430   8.704   1.736   5.121  0.1222  1.7521 -2.2205
 3319SOL    HW222431   8.809   1.801   5.228 -1.2971  1.1385 -0.4386
 3320SOL     OW22432   6.406   4.010   2.149 -0.0733  0.3306  0.4495
 3320SOL    HW122433   6.353   3.982   2.229 -0.4163  1.4361  0.6099
 3320SOL    HW222434   6.356   4.078   2.097 -0.5779 -1.5806 -1.6425
 3321SOL     OW22435   0.770   8.363   1.335  0.0775 -0.5308  0.2067
 3321SOL    HW122436   0.706   8.399   1.402 -0.6612 -1.1058 -0.1867
 3321SOL    HW222437   0.762   8.263   1.331  0.1523 -0.5031 -0.7041
 3322SOL     OW22438   6.290   5.560   8.580  0.1878  0.1786 -0.0242
 3322SOL    HW122439   6.262   5.478   8.629 -0.1830  0.7697  0.7672
 3322SOL    HW222440   6.390   5.567   8.579  0.1886  0.3829  1.0191
 3323SOL     OW22441   5.263   1.288   5.130  0.3480 -0.3115 -0.1089
 3323SOL    HW122442   5.187   1.235   5.093 -1.0505 -0.6363  2.9965
 3323SOL    HW222443   5.229   1.376   5.163  1.1897 -0.6293  1.6906
 3324SOL     OW22444   8.632   1.434   3.432 -0.1704 -0.7194 -0.7278
 3324SOL    HW122445   8.630   1.447   3.333 -1.1398  2.4077 -0.3611
 3324SOL    HW222446   8.716   1.387   3.458  1.1548  0.4023 -2.8459
 3325SOL     OW22447   7.507   4.008   3.419  0.1379  0.1832 -0.0882
 3325SOL    HW122448   7.557   4.093   3.410  1.6834 -0.7882 -0.9125
 3325SOL    HW222449   7.520   3.971   3.511  0.3110  0.3092 -0.0624
 3326SOL     OW22450   4.311   7.889   7.481  0.2015  0.1341  0.4937
 3326SOL    HW122451   4.326   7.794   7.451 -0.1228 -0.2854  1.6472
 3326SOL    HW222452   4.294   7.946   7.401  0.4610 -0.7697 -0.2244
 3327SOL     OW22453   6.738   3.795   3.185  0.4118 -0.0701  0.7653
 3327SOL    HW122454   6.759   3.877   3.238  2.8627 -0.1707  0.0062
 3327SOL    HW222455   6.686   3.731   3.241 -0.0150  1.2712  1.9135
 3328SOL     OW22456   5.139   2.617   6.415  0.6511  0.3675 -0.1962
 3328SOL    HW122457   5.127   2.702   6.364  2.6597  0.2693 -0.8876
 3328SOL    HW222458   5.068   2.609   6.484 -0.0688  2.1858 -0.6998
 3329SOL     OW22459   4.043   0.512   0.725 -0.5377  0.3662  0.1148
 3329SOL    HW122460   3.973   0.499   0.654  0.5699 -1.3143 -0.6899
 3329SOL    HW222461   3.998   0.539   0.811 -2.0536  0.5910 -0.7275
 3330SOL     OW22462   0.361   4.922   2.708 -0.2962 -0.4393  0.0332
 3330SOL    HW122463   0.456   4.923   2.675 -0.6355 -0.3745 -0.9433
 3330SOL    HW222464   0.347   5.001   2.768  0.1026 -0.1357 -0.2709
 3331SOL     OW22465   4.229   2.912   6.431  0.5246  0.0051 -0.6040
 3331SOL    HW122466   4.246   2.829   6.377 -1.1527 -0.0055 -1.1547
 3331SOL    HW222467   4.270   2.902   6.521 -0.9975 -2.1131 -0.0918
 3332SOL     OW22468   2.210   7.601   0.449  0.2215 -0.0308  0.2299
 3332SOL    HW122469   2.297   7.622   0.404  0.1199  1.4164  0.6836
 3332SOL    HW222470   2.146   7.677   0.435 -1.9549 -2.2648 -2.4586
 3333SOL     OW22471   2.605   5.972   5.298  0.7086 -0.5227  0.1872
 3333SOL    HW122472   2.612   5.878   5.331  2.5282  0.1089  1.6786
 3333SOL    HW222473   2.595   5.972   5.199  2.7486 -2.2381 -0.0453
 3334SOL     OW22474   3.245   6.748   0.829 -0.0965  0.4433  0.3491
 3334SOL    HW122475   3.244   6.719   0.925  0.8060  1.4155  0.6596
 3334SOL    HW222476   3.318   6.701   0.781 -0.5460 -0.0398  0.1294
 3335SOL     OW22477   2.860   1.007   6.030  0.0472 -0.0620 -0.4583
 3335SOL    HW122478   2.843   1.015   6.128  1.4634  0.3820 -0.2500
 3335SOL    HW222479   2.788   0.950   5.989  1.1672 -2.8951  1.3541
 3336SOL     OW22480   7.368   5.471   0.291  0.4360  0.0966 -0.1894
 3336SOL    HW122481   7.411   5.386   0.322 -0.0775 -1.1100 -2.6437
 3336SOL    HW222482   7.272   5.454   0.272  0.1771  1.4124 -0.1061
 3337SOL     OW22483   1.624   4.215   2.547  0.2111  0.0693 -0.5389
 3337SOL    HW122484   1.652   4.142   2.484  1.8612  0.9158 -0.8159
 3337SOL    HW222485   1.664   4.198   2.637  0.2927  0.4420 -0.5043
 3338SOL     OW22486   4.368   2.823   8.849 -0.7377  0.0098 -0.4427
 3338SOL    HW122487   4.396   2.781   8.936 -1.7877  0.7146  0.2533
 3338SOL    HW222488   4.269   2.837   8.850 -0.8130 -0.3961 -1.9509
 3339SOL     OW22489   2.891   7.652   6.915 -0.4634 -0.2751  0.1898
 3339SOL    HW122490   2.809   7.694   6.876  0.6843  2.7515  0.8558
 3339SOL    HW222491   2.960   7.641   6.843 -0.4895 -0.2987  0.1684
 3340SOL     OW22492   1.023   5.360   4.369  0.2598 -0.1519 -0.4488
 3340SOL    HW122493   1.095   5.342   4.302  1.3411  1.1841  0.3305
 3340SOL    HW222494   1.049   5.438   4.426 -1.6179  0.0838  0.1241
 3341SOL     OW22495   0.753   0.415   4.355  0.1525  0.3282 -0.8368
 3341SOL    HW122496   0.834   0.412   4.413 -1.0215 -2.7566  0.7264
 3341SOL    HW222497   0.744   0.329   4.305 -1.2461  1.2869 -2.3010
 3342SOL     OW22498   7.069   3.945   3.486  0.0456  0.1399 -0.2085
 3342SOL    HW122499   7.087   3.847   3.481  0.6860  0.1613  1.2697
 3342SOL    HW222500   7.068   3.973   3.582 -0.7140  1.4768 -0.5960
 3343SOL     OW22501   2.981   1.088   7.273 -0.4313  0.1452  0.0995
 3343SOL    HW122502   2.965   1.146   7.192 -1.0975  0.1373  0.2237
 3343SOL    HW222503   3.037   1.138   7.339  0.1771  0.1294 -0.3876
 3344SOL     OW22504   5.715   5.838   0.296 -0.2240 -0.4008  0.5260
 3344SOL    HW122505   5.751   5.764   0.353 -0.2498  0.2301  1.3764
 3344SOL    HW222506   5.645   5.888   0.347 -0.3356  0.0956 -0.1075
 3345SOL     OW22507   5.135   0.599   2.361  0.5450  0.5729 -0.5377
 3345SOL    HW122508   5.235   0.592   2.359  0.4735 -0.6167 -0.3000
 3345SOL    HW222509   5.097   0.553   2.281  0.2249  1.9578 -1.2013
 3346SOL     OW22510   3.089   4.046   7.596  0.3379  0.9166 -0.2904
 3346SOL    HW122511   3.179   4.031   7.636  0.6162 -0.0245 -1.2516
 3346SOL    HW222512   3.077   3.986   7.516 -1.0567  1.1686 -0.2857
 3347SOL     OW22513   8.791   3.784   1.006  0.2696  0.2714 -0.3947
 3347SOL    HW122514   8.739   3.803   1.090  1.5207 -1.9482  0.9435
 3347SOL    HW222515   8.805   3.869   0.956 -1.5899  1.4503  1.0168
 3348SOL     OW22516   3.773   4.117   1.348  0.0467  0.0795  0.2832
 3348SOL    HW122517   3.834   4.117   1.269  0.2527  0.0423  0.4412
 3348SOL    HW222518   3.722   4.031   1.351 -1.5129  0.9336 -0.9943
 3349SOL     OW22519   2.010   2.431   8.471  0.3786  0.1543  0.0844
 3349SOL    HW122520   2.015   2.473   8.561  0.6441  1.2601 -0.4406
 3349SOL    HW222521   2.002   2.502   8.401 -0.7046 -0.7087 -0.7065
 3350SOL     OW22522   7.986   3.014   4.229 -0.4278  0.4053 -0.1737
 3350SOL    HW122523   7.962   2.932   4.281  1.4515  1.0805  1.8116
 3350SOL    HW222524   8.071   2.998   4.179 -0.0643  1.1495  0.2050
 3351SOL     OW22525   5.311   5.874   7.119  0.3276  0.1707  0.4699
 3351SOL    HW122526   5.292   5.776   7.120  0.2425  0.1725 -0.4068
 3351SOL    HW222527   5.395   5.891   7.067 -0.7074  0.7262 -1.0676
 3352SOL     OW22528   1.011   8.877   5.371  0.5430  0.4583  0.3387
 3352SOL    HW122529   1.075   8.887   5.294  0.5857  0.9311  0.4394
 3352SOL    HW222530   1.060   8.840   5.450  0.5348  0.1333  0.1970
 3353SOL     OW22531   3.443   5.287   8.858 -0.2845  0.2455 -0.1519
 3353SOL    HW122532   3.468   5.318   8.767 -1.0901 -1.1413 -0.8607
 3353SOL    HW222533   3.355   5.327   8.885 -0.3806  0.1199 -0.2757
 3354SOL     OW22534   7.822   7.677   8.619 -0.2182  0.3451 -0.1555
 3354SOL    HW122535   7.835   7.579   8.607  3.6630  0.5607  1.3848
 3354SOL    HW222536   7.826   7.699   8.717  1.2241  2.2553 -0.6138
 3355SOL     OW22537   7.423   6.680   4.910 -0.5281 -0.0862  0.1334
 3355SOL    HW122538   7.514   6.644   4.891 -0.3659 -0.0155  0.7736
 3355SOL    HW222539   7.428   6.780   4.918 -0.7439 -0.0379 -0.2869
 3356SOL     OW22540   8.050   1.320   5.392  0.0447  0.2609 -0.4024
 3356SOL    HW122541   7.966   1.303   5.445  1.4757  0.2557  1.9491
 3356SOL    HW222542   8.075   1.237   5.343  0.8065 -1.0134  2.0501
 3357SOL     OW22543   0.065   2.172   2.719 -0.0395 -0.0195  0.1996
 3357SOL    HW122544   0.102   2.088   2.758 -2.1861 -0.1899  1.9905
 3357SOL    HW222545   0.014   2.222   2.789 -0.8598  1.5617 -1.4644
 3358SOL     OW22546   1.077   6.329   5.072 -0.2844 -0.1451 -0.2773
 3358SOL    HW122547   1.004   6.296   5.133 -2.2337  4.1155 -0.1235
 3358SOL    HW222548   1.149   6.371   5.127 -0.1806  0.2386 -0.7101
 3359SOL     OW22549   6.802   6.588   8.288  0.0139  0.4810 -0.2302
 3359SOL    HW122550   6.833   6.546   8.203 -2.3344 -0.6050 -0.6010
 3359SOL    HW222551   6.864   6.564   8.362 -1.1579 -3.6728 -0.4470
 3360SOL     OW22552   7.755   4.385   1.891 -0.0993 -1.0624  0.1320
 3360SOL    HW122553   7.753   4.373   1.792  1.6133 -0.1990 -0.0341
 3360SOL    HW222554   7.762   4.296   1.935  0.8149 -1.3741 -0.6057
 3361SOL     OW22555   5.058   1.381   0.624  0.0003 -0.2067  0.3439
 3361SOL    HW122556   5.037   1.449   0.554  1.5388 -0.4405 -0.3909
 3361SOL    HW222557   5.020   1.409   0.712 -1.8295  0.1748 -0.5502
 3362SOL     OW22558   1.124   2.501   4.742  0.0926  0.5465  0.3653
 3362SOL    HW122559   1.188   2.548   4.681 -0.1976 -0.3125 -0.6192
 3362SOL    HW222560   1.174   2.437   4.801  0.4509  1.8491  1.4925
 3363SOL     OW22561   2.154   6.458   4.983 -0.1599 -0.3408  0.2351
 3363SOL    HW122562   2.248   6.490   4.993 -0.1243 -0.8242  1.6338
 3363SOL    HW222563   2.093   6.516   5.037 -0.5901 -0.3916 -0.1898
 3364SOL     OW22564   2.794   8.348   0.342  0.0947  0.0744  0.4315
 3364SOL    HW122565   2.795   8.272   0.278 -0.2161 -0.0088  0.5277
 3364SOL    HW222566   2.702   8.386   0.348  0.8656  2.4707 -2.0004
 3365SOL     OW22567   7.484   3.608   8.023  0.0925 -0.0067  0.4729
 3365SOL    HW122568   7.575   3.608   8.065  0.6710 -0.8596 -0.7558
 3365SOL    HW222569   7.452   3.703   8.016  0.3115  0.2162  2.0850
 3366SOL     OW22570   8.755   6.587   6.893 -0.1373 -0.1746 -0.1920
 3366SOL    HW122571   8.770   6.614   6.988 -0.0610  0.6117 -0.4264
 3366SOL    HW222572   8.726   6.491   6.890  0.0077 -0.2477  0.6111
 3367SOL     OW22573   3.027   6.414   1.372  0.0028  0.1561  0.1220
 3367SOL    HW122574   3.094   6.467   1.425 -1.2885  1.4386  0.4954
 3367SOL    HW222575   3.022   6.321   1.409  1.9387 -0.1207 -0.2312
 3368SOL     OW22576   8.937   5.910   2.655 -0.3038  0.5650  0.1330
 3368SOL    HW122577   8.858   5.945   2.604  0.0298 -1.0114 -1.4984
 3368SOL    HW222578   8.908   5.888   2.748 -1.8432 -0.1298 -0.4898
 3369SOL     OW22579   6.494   4.707   2.997 -0.7761 -0.0232  0.4523
 3369SOL    HW122580   6.594   4.704   2.994 -0.7010  2.7318 -1.5347
 3369SOL    HW222581   6.456   4.658   2.918 -1.0880 -2.1408  1.8563
 3370SOL     OW22582   7.328   7.789   1.110  0.1922 -0.3864 -0.0730
 3370SOL    HW122583   7.411   7.832   1.145  1.3408 -0.9908 -1.9831
 3370SOL    HW222584   7.343   7.691   1.099  0.5881  0.0187 -4.0175
 3371SOL     OW22585   5.120   8.916   3.746  0.2394 -0.3094 -0.5906
 3371SOL    HW122586   5.094   8.907   3.650  0.2956  0.8435 -0.7252
 3371SOL    HW222587   5.201   8.860   3.764  0.7703  0.1578 -1.4478
 3372SOL     OW22588   3.297   4.028   2.627 -0.1292  0.2216  0.1578
 3372SOL    HW122589   3.327   4.070   2.713 -0.1334  0.4184  0.0651
 3372SOL    HW222590   3.316   4.091   2.551 -0.0055 -0.0077  0.0004
 3373SOL     OW22591   4.647   8.443   4.406 -0.2082  0.8489 -0.0770
 3373SOL    HW122592   4.658   8.514   4.476 -1.1893  1.1138 -0.1867
 3373SOL    HW222593   4.554   8.446   4.369 -0.3987 -0.7878  0.2274
 3374SOL     OW22594   1.894   5.342   1.023  0.4469  0.4707  0.3689
 3374SOL    HW122595   1.819   5.358   1.087  0.0771  1.5237 -0.3211
 3374SOL    HW222596   1.935   5.252   1.041 -2.8016 -1.3772 -1.0176
 3375SOL     OW22597   0.771   3.773   5.263  0.2703  0.6047 -0.1865
 3375SOL    HW122598   0.864   3.798   5.238  0.5264  0.1026  0.2510
 3375SOL    HW222599   0.728   3.847   5.315  1.1323  0.0072  1.3938
 3376SOL     OW22600   1.777   4.170   4.868  0.3858  0.2764  0.4616
 3376SOL    HW122601   1.862   4.195   4.822 -1.8368  1.0292 -3.4766
 3376SOL    HW222602   1.726   4.253   4.890 -0.0183 -0.2288  1.4615
 3377SOL     OW22603   8.375   2.655   1.736  0.2804 -0.4231 -0.1484
 3377SOL    HW122604   8.378   2.558   1.764  1.0625 -0.2856  0.2934
 3377SOL    HW222605   8.418   2.665   1.646 -1.5859 -0.7643 -1.0911
 3378SOL     OW22606   8.137   1.125   5.205  0.6754 -0.2028  0.0876
 3378SOL    HW122607   8.118   1.027   5.196 -1.1394  0.1472 -0.2581
 3378SOL    HW222608   8.157   1.163   5.115  1.4484 -0.2582  0.2322
 3379SOL     OW22609   8.582   4.851   8.252  0.2439 -0.1955  1.3104
 3379SOL    HW122610   8.613   4.907   8.328 -0.7372  0.7869  1.0011
 3379SOL    HW222611   8.661   4.806   8.210  1.1544  1.5090  1.1280
 3380SOL     OW22612   4.826   6.891   5.328  0.3180  0.2460  0.4066
 3380SOL    HW122613   4.829   6.984   5.365  0.7662  0.0046  0.9902
 3380SOL    HW222614   4.788   6.829   5.397 -0.7890  0.1391 -0.2950
 3381SOL     OW22615   4.175   3.248   2.721  0.5943  0.2316 -0.0540
 3381SOL    HW122616   4.209   3.170   2.774  1.3149  0.7245  0.2205
 3381SOL    HW222617   4.161   3.221   2.626 -2.1728 -1.0801  0.6896
 3382SOL     OW22618   8.219   4.520   2.834 -0.0058  0.3824 -0.1565
 3382SOL    HW122619   8.161   4.445   2.803  0.1949 -0.3961  1.3406
 3382SOL    HW222620   8.263   4.495   2.920  0.9865  1.7528 -0.2591
 3383SOL     OW22621   2.426   1.516   7.204 -0.0250 -0.0080 -0.1520
 3383SOL    HW122622   2.402   1.570   7.285  0.6044 -0.2095  0.1706
 3383SOL    HW222623   2.387   1.559   7.123 -0.0133  0.6178  0.1687
 3384SOL     OW22624   6.719   3.716   6.435  0.2584  0.0493  0.0631
 3384SOL    HW122625   6.640   3.708   6.495  0.2952 -1.9866 -0.1063
 3384SOL    HW222626   6.700   3.782   6.362 -2.2758 -2.2619 -1.4634
 3385SOL     OW22627   5.632   6.236   6.616 -0.4529 -0.7405 -0.1812
 3385SOL    HW122628   5.719   6.281   6.633 -0.4397 -0.4643 -0.9493
 3385SOL    HW222629   5.639   6.139   6.642 -0.1349 -0.5560  0.4132
 3386SOL     OW22630   3.037   7.522   0.698 -0.4782  0.0909 -0.6618
 3386SOL    HW122631   2.957   7.574   0.729 -1.5230 -0.3090 -2.6452
 3386SOL    HW222632   3.094   7.580   0.640  0.0263 -0.0057 -0.2628
 3387SOL     OW22633   2.284   2.807   0.508 -0.4683 -0.1440  0.3394
 3387SOL    HW122634   2.333   2.732   0.552  1.4237  0.5069 -0.5779
 3387SOL    HW222635   2.295   2.799   0.409 -1.4570  0.5409  0.1751
 3388SOL     OW22636   5.056   7.274   4.975  0.4518  0.4054  0.0139
 3388SOL    HW122637   5.020   7.259   5.066 -0.6965 -0.9434 -0.6380
 3388SOL    HW222638   5.150   7.239   4.971  0.2336 -0.2496  0.4687
 3389SOL     OW22639   4.779   2.469   0.224  0.1746  0.3813  0.0947
 3389SOL    HW122640   4.872   2.487   0.256  0.8707 -2.0841 -0.4956
 3389SOL    HW222641   4.731   2.411   0.290 -0.5379  0.5874 -0.2306
 3390SOL     OW22642   4.794   7.011   8.299 -0.1682 -0.0481  0.3881
 3390SOL    HW122643   4.843   7.000   8.385 -0.2976  1.2266  0.6438
 3390SOL    HW222644   4.850   6.978   8.224 -0.5001 -2.2271  1.0576
 3391SOL     OW22645   3.456   3.966   5.305 -0.2187 -0.8273  0.7387
 3391SOL    HW122646   3.455   3.930   5.212 -1.2708 -1.1668  0.8771
 3391SOL    HW222647   3.407   4.054   5.307  0.8846 -0.2079  0.7287
 3392SOL     OW22648   2.360   8.154   6.680 -0.1288 -0.0434 -0.3709
 3392SOL    HW122649   2.413   8.237   6.663  0.4560  0.0060  1.6319
 3392SOL    HW222650   2.267   8.166   6.643 -0.1144  1.5745  0.0838
 3393SOL     OW22651   1.860   8.843   6.617 -0.0973 -0.2019 -0.1238
 3393SOL    HW122652   1.933   8.775   6.627 -0.3113 -0.2178  1.3996
 3393SOL    HW222653   1.901   8.934   6.609  0.1697 -0.4416 -1.7197
 3394SOL     OW22654   1.412   0.529   0.097 -0.7000  0.5556  0.0123
 3394SOL    HW122655   1.369   0.537   0.187 -0.6441  0.8074  0.0152
 3394SOL    HW222656   1.503   0.489   0.106 -1.0508 -0.2808 -0.0239
 3395SOL     OW22657   1.318   2.610   2.868 -0.1739  0.1369 -0.1216
 3395SOL    HW122658   1.238   2.666   2.848 -0.2969 -0.0147 -0.0563
 3395SOL    HW222659   1.322   2.532   2.805 -0.1707  0.0506 -0.0148
 3396SOL     OW22660   5.078   4.356   8.644 -0.4074 -0.2271 -0.4193
 3396SOL    HW122661   5.131   4.435   8.612 -1.3876  0.3229 -0.6977
 3396SOL    HW222662   5.126   4.271   8.620  1.3498  0.2998  1.1052
 3397SOL     OW22663   0.472   1.292   6.803  0.0171  0.4530  0.0204
 3397SOL    HW122664   0.400   1.320   6.866 -0.7546  1.1376 -1.1522
 3397SOL    HW222665   0.528   1.371   6.778 -0.3180  0.3799 -0.9675
 3398SOL     OW22666   5.170   3.339   2.834 -0.5057 -0.1659  0.0890
 3398SOL    HW122667   5.199   3.261   2.777 -1.1823  0.1671 -0.7223
 3398SOL    HW222668   5.247   3.370   2.889  1.2821  1.9190 -3.4167
 3399SOL     OW22669   6.709   2.508   2.235  0.0000 -0.1162 -0.9401
 3399SOL    HW122670   6.771   2.586   2.225 -0.2586  0.1688 -0.3354
 3399SOL    HW222671   6.642   2.527   2.307 -0.1695 -0.8307 -0.9038
 3400SOL     OW22672   4.737   0.976   6.589 -0.7128 -0.5095 -0.3588
 3400SOL    HW122673   4.793   1.048   6.630  0.0500 -1.4609  0.2884
 3400SOL    HW222674   4.690   0.926   6.662 -1.6742 -0.3197 -0.8377
 3401SOL     OW22675   8.946   4.425   7.802 -0.1240 -0.1807 -0.1628
 3401SOL    HW122676   8.860   4.375   7.804 -2.3480  3.4362  1.5286
 3401SOL    HW222677   8.971   4.452   7.895  1.1155  1.5294 -0.9478
 3402SOL     OW22678   1.284   1.660   6.052  0.6561  0.0943  0.3970
 3402SOL    HW122679   1.265   1.661   5.954  1.6342 -1.2696  0.1815
 3402SOL    HW222680   1.237   1.582   6.094  2.6770 -1.1134  0.4805
 3403SOL     OW22681   5.166   8.869   2.476 -0.4377 -0.1081  0.1201
 3403SOL    HW122682   5.192   8.797   2.413  3.3058  0.2207  1.2060
 3403SOL    HW222683   5.201   8.957   2.443 -1.8897  0.6975  0.6445
 3404SOL     OW22684   0.065   2.527   7.163 -0.1582 -0.1316  0.8873
 3404SOL    HW122685   0.130   2.566   7.097 -0.5649 -0.3287  0.3681
 3404SOL    HW222686   0.098   2.438   7.192  0.1794  0.0882  1.1872
 3405SOL     OW22687   5.959   6.877   3.916  0.4846  0.2290 -0.4918
 3405SOL    HW122688   5.913   6.959   3.881  0.3533 -0.1549 -1.2084
 3405SOL    HW222689   6.040   6.858   3.862  0.0266 -0.6305 -0.8819
 3406SOL     OW22690   8.124   1.010   2.648 -0.0754 -0.0350 -0.0964
 3406SOL    HW122691   8.046   0.950   2.668 -0.1715 -0.4900 -1.7399
 3406SOL    HW222692   8.097   1.078   2.580  0.3762  1.1475  0.8810
 3407SOL     OW22693   0.151   7.806   2.536 -0.0631  0.9935  0.2540
 3407SOL    HW122694   0.215   7.775   2.465 -1.7541  0.2707 -0.9865
 3407SOL    HW222695   0.094   7.880   2.500 -2.1381 -0.5779  0.2429
 3408SOL     OW22696   0.448   3.348   2.724  0.2432  0.8275  0.2644
 3408SOL    HW122697   0.542   3.320   2.742  0.4224  0.6710 -0.9153
 3408SOL    HW222698   0.386   3.273   2.748  0.4421  0.7892  0.6688
 3409SOL     OW22699   2.461   4.180   1.045  0.3601 -0.7358 -0.5719
 3409SOL    HW122700   2.379   4.157   0.992 -0.3702 -0.8578  0.5856
 3409SOL    HW222701   2.482   4.104   1.107  1.9978 -1.1705 -1.6389
 3410SOL     OW22702   3.749   1.075   6.763  0.3075 -0.1320  0.3336
 3410SOL    HW122703   3.838   1.105   6.796  1.1015 -0.6503 -1.2978
 3410SOL    HW222704   3.681   1.085   6.836  1.4526  1.3771  1.2116
 3411SOL     OW22705   5.486   5.637   6.638 -0.5498 -0.4082  0.0985
 3411SOL    HW122706   5.501   5.642   6.737  0.1835 -0.1196 -0.0205
 3411SOL    HW222707   5.401   5.684   6.615 -1.5109 -1.8145  0.7680
 3412SOL     OW22708   2.450   5.920   5.741  0.3875  0.0635 -0.6760
 3412SOL    HW122709   2.550   5.922   5.743  0.3637  1.0555  1.3283
 3412SOL    HW222710   2.419   5.877   5.656  2.5182 -2.0265 -0.4491
 3413SOL     OW22711   5.643   4.486   0.319  0.0551  0.3019  0.1149
 3413SOL    HW122712   5.674   4.392   0.305 -1.4023 -0.5987  2.5221
 3413SOL    HW222713   5.699   4.529   0.389 -0.6027  0.5067  0.5222
 3414SOL     OW22714   3.123   7.509   7.503 -0.1058 -0.2497 -0.3986
 3414SOL    HW122715   3.032   7.521   7.543 -1.7336 -2.7340 -3.0732
 3414SOL    HW222716   3.127   7.554   7.414  1.7894  0.9884  0.2680
 3415SOL     OW22717   3.488   4.363   7.187  0.1230 -0.0698 -0.1838
 3415SOL    HW122718   3.434   4.437   7.229  0.7711 -0.0085  0.5394
 3415SOL    HW222719   3.534   4.399   7.106  2.2206  0.9410  1.4040
 3416SOL     OW22720   1.511   0.038   7.080  0.1642 -0.0925  0.1747
 3416SOL    HW122721   1.472   0.111   7.023  0.8507 -0.8285 -1.2450
 3416SOL    HW222722   1.437  -0.019   7.117 -0.2331 -0.0490 -0.5572
 3417SOL     OW22723   7.304   0.335   6.524 -0.4325  0.7123  0.0380
 3417SOL    HW122724   7.402   0.320   6.534 -0.4404  1.0451  0.6026
 3417SOL    HW222725   7.286   0.432   6.510 -0.7154  0.6978  0.3008
 3418SOL     OW22726   0.164   1.946   6.360 -0.1365 -0.1242  0.4571
 3418SOL    HW122727   0.198   1.882   6.290 -0.0384 -0.8246  1.1352
 3418SOL    HW222728   0.225   1.944   6.439  0.0002  1.0009  0.3820
 3419SOL     OW22729   0.762   3.630   3.784  0.0991  0.8762  0.3012
 3419SOL    HW122730   0.815   3.715   3.787  0.3456  0.7831 -1.4200
 3419SOL    HW222731   0.726   3.616   3.692  0.9101 -1.4261  0.3241
 3420SOL     OW22732   3.134   5.240   7.307 -0.1439 -0.2720  0.7369
 3420SOL    HW122733   3.099   5.180   7.379 -0.4167 -1.2184 -0.1667
 3420SOL    HW222734   3.173   5.184   7.234 -1.1851  0.6185 -0.5200
 3421SOL     OW22735   8.074   7.839   6.788 -0.1577 -0.2900  0.1688
 3421SOL    HW122736   8.134   7.904   6.836  0.8988 -1.1907  0.0685
 3421SOL    HW222737   7.996   7.818   6.847 -0.8614  1.5679 -0.0526
 3422SOL     OW22738   7.178   4.204   4.148  0.0580  0.1338 -0.0639
 3422SOL    HW122739   7.090   4.172   4.114 -1.1215  1.5020  1.6186
 3422SOL    HW222740   7.222   4.132   4.202  0.2253 -0.7337 -1.3496
 3423SOL     OW22741   8.363   6.542   4.478  0.1067  0.0408 -0.2394
 3423SOL    HW122742   8.340   6.635   4.506 -0.2557 -0.3018  0.6377
 3423SOL    HW222743   8.332   6.477   4.549  2.2339 -0.5656  0.1831
 3424SOL     OW22744   5.095   1.718   2.913  0.5332 -0.2983 -0.2088
 3424SOL    HW122745   5.013   1.669   2.882 -1.6539  3.4451 -0.7091
 3424SOL    HW222746   5.173   1.691   2.857 -0.5025 -3.4122 -0.2197
 3425SOL     OW22747   3.935   8.639   4.791 -0.1046 -0.0721 -0.1211
 3425SOL    HW122748   4.017   8.696   4.779 -1.3501  1.2208 -2.7903
 3425SOL    HW222749   3.963   8.543   4.796  1.7425  0.4863  1.2200
 3426SOL     OW22750   5.756   5.996   1.410  0.4690  0.3857  0.1976
 3426SOL    HW122751   5.794   6.088   1.416  0.3466  0.2946  2.7609
 3426SOL    HW222752   5.813   5.932   1.461  0.2158 -0.8583 -1.0438
 3427SOL     OW22753   1.713   3.341   8.456 -0.3123  0.2975  0.3352
 3427SOL    HW122754   1.713   3.241   8.460  0.4258  0.2654 -0.4098
 3427SOL    HW222755   1.644   3.376   8.520 -1.4825 -0.7303 -0.3259
 3428SOL     OW22756   2.919   7.232   3.590  0.7369  0.1764 -0.0653
 3428SOL    HW122757   2.989   7.281   3.539  0.2894  0.5568 -0.3199
 3428SOL    HW222758   2.962   7.171   3.656  1.3060  0.3787 -0.2498
 3429SOL     OW22759   4.758   0.092   2.152 -0.2534 -0.1329  0.2497
 3429SOL    HW122760   4.852   0.117   2.132 -0.0004 -0.3522  1.1020
 3429SOL    HW222761   4.697   0.126   2.080  0.5963 -0.8731 -0.8325
 3430SOL     OW22762   7.050   8.187   8.513  0.8353  0.0394  0.4731
 3430SOL    HW122763   7.009   8.193   8.422 -1.4520  0.1903  1.4783
 3430SOL    HW222764   6.982   8.212   8.582  2.0149 -1.7464  2.3535
 3431SOL     OW22765   0.337   0.871   6.423  0.3453 -0.0368 -0.1159
 3431SOL    HW122766   0.337   0.913   6.332  0.1793 -0.7335 -0.4440
 3431SOL    HW222767   0.429   0.874   6.461  0.4087  0.2914 -0.2944
 3432SOL     OW22768   3.973   6.671   7.080  0.4090  0.1027 -0.0788
 3432SOL    HW122769   3.896   6.715   7.033  0.1525 -1.4875 -1.2082
 3432SOL    HW222770   3.959   6.675   7.179  0.7472  3.1488 -0.1106
 3433SOL     OW22771   3.599   6.948   2.246 -0.6334  0.2682  0.5560
 3433SOL    HW122772   3.576   6.916   2.339 -1.1925  0.1716  0.3904
 3433SOL    HW222773   3.661   6.883   2.203 -0.4959  0.2309  0.8091
 3434SOL     OW22774   3.460   0.367   2.102 -0.0571  0.5972  0.0928
 3434SOL    HW122775   3.460   0.339   2.006  0.0180  0.6754  0.0701
 3434SOL    HW222776   3.551   0.355   2.141  0.4423  2.5299 -0.4204
 3435SOL     OW22777   2.737   5.310   3.046  0.5696  0.6592 -0.3276
 3435SOL    HW122778   2.704   5.342   3.135  1.6049 -0.8390  0.6128
 3435SOL    HW222779   2.667   5.329   2.976 -1.2515 -0.2447  1.2020
 3436SOL     OW22780   5.487   2.502   1.337  0.0093 -0.0945 -0.4015
 3436SOL    HW122781   5.400   2.490   1.288 -0.6778 -0.4498  0.8705
 3436SOL    HW222782   5.469   2.544   1.427  1.1657 -0.0993 -0.1603
 3437SOL     OW22783   8.285   8.773   1.608  0.6192  0.0708 -0.1125
 3437SOL    HW122784   8.248   8.862   1.582 -0.4753 -0.1951  0.5077
 3437SOL    HW222785   8.318   8.777   1.702 -0.7711 -0.5727  0.4123
 3438SOL     OW22786   4.466   0.332   5.778 -0.6905 -0.0774  0.3119
 3438SOL    HW122787   4.431   0.425   5.789  0.5961  0.2858  1.4594
 3438SOL    HW222788   4.563   0.337   5.752 -1.2311 -1.0631 -1.9934
 3439SOL     OW22789   2.774   3.992   0.023  0.0109  0.1712  0.0953
 3439SOL    HW122790   2.856   3.953  -0.018  1.9593  1.9367  2.1934
 3439SOL    HW222791   2.753   4.080  -0.021  1.1498  1.2704  1.6919
 3440SOL     OW22792   4.346   4.863   5.886  0.9639  0.2451  0.7516
 3440SOL    HW122793   4.327   4.778   5.837  0.4195  0.7446  0.0848
 3440SOL    HW222794   4.431   4.854   5.937  1.1523 -0.5415  0.2975
 3441SOL     OW22795   0.524   4.010   6.335 -0.5828  0.6291  0.8475
 3441SOL    HW122796   0.588   4.035   6.408  1.1830  0.3622 -0.5934
 3441SOL    HW222797   0.555   3.927   6.290 -2.3718  0.0551  0.6315
 3442SOL     OW22798   6.243   3.945   2.390 -0.7306  0.0395  0.5722
 3442SOL    HW122799   6.169   4.011   2.395 -0.1398  0.6577  1.1666
 3442SOL    HW222800   6.324   3.981   2.435 -0.2669 -0.9073  0.5211
 3443SOL     OW22801   8.095   8.396   6.637  0.0370 -0.4104  0.1532
 3443SOL    HW122802   8.127   8.310   6.597  3.3252  0.1560  1.4221
 3443SOL    HW222803   8.080   8.384   6.735 -0.9303  0.1064  0.0791
 3444SOL     OW22804   4.668   8.349   6.573  0.0788  0.2007 -0.5777
 3444SOL    HW122805   4.619   8.432   6.597 -1.3967 -0.9139  0.3735
 3444SOL    HW222806   4.636   8.274   6.631  3.7059 -0.3472  0.8106
 3445SOL     OW22807   4.808   8.969   6.761 -0.4400  0.2126  0.2123
 3445SOL    HW122808   4.780   8.962   6.665  0.7494  1.3752 -0.2247
 3445SOL    HW222809   4.815   8.877   6.800 -1.0933 -0.2590 -0.7680
 3446SOL     OW22810   7.456   4.931   0.624 -0.1784  0.0599 -0.5083
 3446SOL    HW122811   7.437   5.020   0.584  0.4353  1.6052  2.5035
 3446SOL    HW222812   7.402   4.861   0.577 -2.7528  2.3990 -1.1541
 3447SOL     OW22813   3.039   6.869   4.752 -0.2305  0.1989  0.0338
 3447SOL    HW122814   3.038   6.770   4.737  0.3198 -0.0435  1.4625
 3447SOL    HW222815   3.117   6.892   4.810 -0.8951  1.3614  0.4755
 3448SOL     OW22816   3.964   0.731   1.548  0.3047 -0.4442 -0.4300
 3448SOL    HW122817   4.063   0.733   1.535  0.2760 -2.4122 -1.0769
 3448SOL    HW222818   3.929   0.640   1.527 -1.6105  0.1383  0.1066
 3449SOL     OW22819   3.303   6.224   3.561  0.5518 -0.3079 -0.2242
 3449SOL    HW122820   3.221   6.196   3.513 -0.6082  0.5673  1.2026
 3449SOL    HW222821   3.308   6.178   3.650  0.2114  1.6103  0.8238
 3450SOL     OW22822   2.902   4.404   5.054  0.5613  0.8389 -0.1247
 3450SOL    HW122823   2.977   4.451   5.100  0.2422  1.1230  0.1124
 3450SOL    HW222824   2.821   4.463   5.053  0.5786  0.8598 -1.1078
 3451SOL     OW22825   2.115   5.789   2.397  0.5078  0.1688 -0.5499
 3451SOL    HW122826   2.100   5.754   2.304 -1.7720  1.0494 -0.5466
 3451SOL    HW222827   2.075   5.725   2.463  1.2515  0.0352 -0.2301
 3452SOL     OW22828   8.569   2.559   7.466 -0.2472  0.1235  0.3646
 3452SOL    HW122829   8.614   2.480   7.426 -0.4506  0.2183 -0.0580
 3452SOL    HW222830   8.517   2.531   7.547 -2.8835 -0.7629 -1.5585
 3453SOL     OW22831   0.444   7.456   4.879  0.0172 -0.5162 -0.9993
 3453SOL    HW122832   0.405   7.368   4.907 -0.3658  0.0801  0.3957
 3453SOL    HW222833   0.516   7.440   4.812  1.3806 -2.0768  0.7550
 3454SOL     OW22834   3.119   0.744   8.525 -0.4366 -0.1045  0.0072
 3454SOL    HW122835   3.060   0.670   8.557  2.1420 -1.3301  2.1357
 3454SOL    HW222836   3.181   0.709   8.455 -0.6550  0.6064 -0.5489
 3455SOL     OW22837   1.980   4.246   4.697 -0.8949  0.0876 -0.3843
 3455SOL    HW122838   1.940   4.229   4.607 -2.0058  0.7575 -0.0281
 3455SOL    HW222839   2.078   4.263   4.688 -1.2630  1.6584 -1.6342
 3456SOL     OW22840   7.632   2.469   2.839  0.1511 -0.8370 -0.0065
 3456SOL    HW122841   7.566   2.537   2.807  0.7037 -0.5624 -0.5953
 3456SOL    HW222842   7.645   2.478   2.938 -0.0063 -0.2802 -0.0352
 3457SOL     OW22843   2.895   3.569   4.929  0.2456  0.1393  0.1521
 3457SOL    HW122844   2.806   3.551   4.969  1.0756 -0.6983  1.6419
 3457SOL    HW222845   2.883   3.593   4.832 -1.6586  1.0267  0.5709
 3458SOL     OW22846   7.819   5.943   5.804  0.0715  0.3582  0.4794
 3458SOL    HW122847   7.833   5.977   5.897 -0.9367  0.6269  0.5380
 3458SOL    HW222848   7.723   5.921   5.791  0.2467  0.1209 -0.4371
 3459SOL     OW22849   8.596   8.339   1.389  0.5895 -0.1236 -0.3384
 3459SOL    HW122850   8.579   8.401   1.465  3.4452 -0.0772  0.3090
 3459SOL    HW222851   8.518   8.340   1.327  0.0497  3.1491  0.3175
 3460SOL     OW22852   7.018   8.496   5.973 -0.1713 -0.1034  0.3216
 3460SOL    HW122853   6.976   8.575   6.017 -0.1011 -0.5479  1.2060
 3460SOL    HW222854   7.111   8.484   6.009  1.0191  1.3103 -2.1288
 3461SOL     OW22855   3.705   0.278   6.018 -0.3198  0.4827 -0.2699
 3461SOL    HW122856   3.617   0.284   6.065  1.0547 -1.5988  2.6896
 3461SOL    HW222857   3.741   0.185   6.026  1.5506  0.9593 -2.5860
 3462SOL     OW22858   5.653   5.915   0.929 -0.1677 -0.4096  0.1871
 3462SOL    HW122859   5.624   5.922   1.024  1.0219  2.4547  0.3969
 3462SOL    HW222860   5.735   5.857   0.923 -1.5818 -2.4861  0.5638
 3463SOL     OW22861   7.977   4.608   5.718 -0.2170 -0.3749 -0.1858
 3463SOL    HW122862   7.912   4.665   5.670  1.2024  2.3970  1.0857
 3463SOL    HW222863   7.974   4.628   5.816  1.2116 -1.5718  0.1295
 3464SOL     OW22864   7.285   0.346   1.103 -0.7913  0.6500  0.1212
 3464SOL    HW122865   7.355   0.407   1.141 -0.0789  1.4005 -2.3498
 3464SOL    HW222866   7.202   0.398   1.085 -0.1864  0.9396 -1.9807
 3465SOL     OW22867   3.396   6.289   0.444 -0.5313 -0.0652  0.1406
 3465SOL    HW122868   3.489   6.305   0.477 -0.0876 -0.5013 -0.8750
 3465SOL    HW222869   3.348   6.227   0.507 -0.7063  1.4874  1.5642
 3466SOL     OW22870   3.913   2.137   0.694  0.2361 -0.2016 -0.5267
 3466SOL    HW122871   3.835   2.197   0.677  0.7361  0.2652 -1.1752
 3466SOL    HW222872   3.951   2.156   0.784  0.3145  0.3614 -0.6797
 3467SOL     OW22873   6.657   6.580   2.137  0.1697  0.3433  0.0757
 3467SOL    HW122874   6.608   6.510   2.085 -0.8210  1.0024  0.1075
 3467SOL    HW222875   6.730   6.537   2.190 -0.2791 -0.6323 -0.0931
 3468SOL     OW22876   1.036   7.961   7.273 -0.1738 -0.3818 -1.1841
 3468SOL    HW122877   1.079   8.048   7.249 -1.3105  0.7144  0.6334
 3468SOL    HW222878   1.034   7.901   7.193  1.6362  0.8265 -2.1594
 3469SOL     OW22879   3.965   5.378   6.723 -0.4049  0.5273 -0.1524
 3469SOL    HW122880   4.001   5.471   6.711 -0.2731  0.4984  0.0227
 3469SOL    HW222881   4.030   5.324   6.776 -0.0824  0.0898 -0.9882
 3470SOL     OW22882   8.266   3.328   8.798 -0.1266  0.4321 -0.7739
 3470SOL    HW122883   8.304   3.314   8.889 -0.5373 -0.0781 -0.6808
 3470SOL    HW222884   8.329   3.291   8.730  0.1550  0.7660 -0.6947
 3471SOL     OW22885   4.092   6.402   1.297 -0.0530  0.3974 -0.6313
 3471SOL    HW122886   4.007   6.354   1.316  0.9420  0.0424  3.4715
 3471SOL    HW222887   4.074   6.483   1.241 -3.2604  0.9995  1.1793
 3472SOL     OW22888   3.575   0.960   3.143  0.2165 -0.3717  0.9879
 3472SOL    HW122889   3.484   0.923   3.119  0.3679 -0.6381  0.8146
 3472SOL    HW222890   3.583   0.966   3.243  1.0615 -3.0789  1.1209
 3473SOL     OW22891   3.859   2.952   8.755  0.3679  0.3595 -0.1320
 3473SOL    HW122892   3.918   3.030   8.734  0.1654  0.9749  1.5480
 3473SOL    HW222893   3.770   2.984   8.785 -0.0686 -0.5439 -0.4319
 3474SOL     OW22894   8.193   5.609   6.150  0.0576  0.0629  0.1068
 3474SOL    HW122895   8.259   5.561   6.092  1.0438  1.6968 -0.1464
 3474SOL    HW222896   8.135   5.668   6.093  0.2064  0.7261  0.6316
 3475SOL     OW22897   7.086   2.411   7.649 -0.1719 -0.5827 -1.1550
 3475SOL    HW122898   7.081   2.312   7.659  1.2689 -0.6215 -0.7139
 3475SOL    HW222899   7.145   2.449   7.720  0.9022  0.3779 -2.5341
 3476SOL     OW22900   1.220   8.653   4.452  0.1763  0.0336 -0.2246
 3476SOL    HW122901   1.317   8.655   4.426 -0.4400  1.5447 -2.6252
 3476SOL    HW222902   1.171   8.594   4.388 -1.3723  3.7622 -2.6758
 3477SOL     OW22903   6.679   3.197   3.227 -0.6373 -0.7754  0.5076
 3477SOL    HW122904   6.653   3.145   3.308 -0.0468 -2.2412 -0.2093
 3477SOL    HW222905   6.732   3.277   3.254 -0.0592 -1.4989  1.5474
 3478SOL     OW22906   1.880   1.385   5.331 -0.2412  0.3720 -0.0230
 3478SOL    HW122907   1.872   1.377   5.232  1.3766  1.0272 -0.2133
 3478SOL    HW222908   1.914   1.475   5.355  1.9232 -0.6758  0.9811
 3479SOL     OW22909   0.627   4.469   3.964  0.0138  0.1581  0.3859
 3479SOL    HW122910   0.642   4.413   4.045 -0.1496 -1.8004 -0.8924
 3479SOL    HW222911   0.675   4.556   3.973  0.9522 -0.5268  2.0710
 3480SOL     OW22912   4.745   7.813   8.448 -0.3273  0.1350  0.0319
 3480SOL    HW122913   4.834   7.787   8.411  0.2625 -0.2901  1.7276
 3480SOL    HW222914   4.756   7.889   8.511 -1.1675  0.0589  0.2785
 3481SOL     OW22915   4.865   8.388   1.343  0.4299  0.4392  0.4104
 3481SOL    HW122916   4.920   8.471   1.346  2.2858 -0.7725  0.7111
 3481SOL    HW222917   4.768   8.412   1.349  0.9238  2.5818  0.2234
 3482SOL     OW22918   4.234   7.055   5.419 -0.4575  0.4767  0.6528
 3482SOL    HW122919   4.206   7.051   5.323 -1.1792  1.3879  0.8126
 3482SOL    HW222920   4.192   7.135   5.462 -0.3495 -0.0831  1.8008
 3483SOL     OW22921   8.702   3.119   5.266 -0.2227  0.4785 -0.2526
 3483SOL    HW122922   8.722   3.032   5.222  0.1768  0.6499 -0.4158
 3483SOL    HW222923   8.653   3.103   5.352  0.2350  0.0667 -0.0669
 3484SOL     OW22924   6.803   4.390   2.254 -0.3673  0.1251 -0.1084
 3484SOL    HW122925   6.827   4.419   2.346 -0.8391  2.7265 -0.7722
 3484SOL    HW222926   6.747   4.307   2.259  1.3019 -0.9201  1.8223
 3485SOL     OW22927   3.557   4.626   4.413 -0.3423  0.3900  0.2051
 3485SOL    HW122928   3.625   4.641   4.485  0.0620  0.6525 -0.2291
 3485SOL    HW222929   3.601   4.585   4.334 -0.8961 -0.4114  0.3042
 3486SOL     OW22930   1.157   2.075   4.720 -0.1082  0.7686 -0.2969
 3486SOL    HW122931   1.077   2.025   4.751 -0.9552  1.7580 -0.8553
 3486SOL    HW222932   1.181   2.146   4.786  0.5125  0.2728  0.0241
 3487SOL     OW22933   5.577   5.049   4.153  0.1159  0.2811  0.0722
 3487SOL    HW122934   5.672   5.034   4.123 -0.5171 -0.4587 -1.6075
 3487SOL    HW222935   5.570   5.137   4.199  1.3893  0.8371 -0.7759
 3488SOL     OW22936   1.605   2.816   4.653  0.1067  0.2413  0.6949
 3488SOL    HW122937   1.607   2.911   4.623 -0.9708  0.0151 -0.1259
 3488SOL    HW222938   1.648   2.758   4.583  0.0766  0.0346  0.8493
 3489SOL     OW22939   3.248   8.495   4.348  0.1926 -0.3290 -0.0565
 3489SOL    HW122940   3.272   8.589   4.324 -1.8388  0.1689 -0.1899
 3489SOL    HW222941   3.326   8.435   4.329  1.1709  1.1728 -0.8759
 3490SOL     OW22942   8.012   5.791   6.724  0.7132 -0.4853 -0.2095
 3490SOL    HW122943   8.001   5.737   6.807  0.1865  0.1666  0.1561
 3490SOL    HW222944   7.974   5.741   6.646 -2.8631  0.7159  0.6501
 3491SOL     OW22945   3.304   2.157   3.770  0.3400 -0.1094  0.1361
 3491SOL    HW122946   3.221   2.102   3.759  0.3053 -0.1137  0.4151
 3491SOL    HW222947   3.380   2.110   3.725  0.7327 -1.3660  2.0367
 3492SOL     OW22948   1.416   4.111   0.136 -0.5056 -0.0995  0.3743
 3492SOL    HW122949   1.373   4.143   0.051 -0.3671  2.0218  1.1000
 3492SOL    HW222950   1.394   4.173   0.210  0.6403 -1.1321  1.5967
 3493SOL     OW22951   2.143   5.300   4.012 -0.2984  0.2306 -0.2984
 3493SOL    HW122952   2.224   5.346   4.047 -0.2247  0.2943 -0.5503
 3493SOL    HW222953   2.171   5.227   3.949 -0.4075 -0.2122  0.1558
 3494SOL     OW22954   7.647   6.407   6.334  0.1546 -0.5411 -0.0533
 3494SOL    HW122955   7.672   6.390   6.429  3.3892 -1.7142 -1.0502
 3494SOL    HW222956   7.714   6.470   6.293 -1.9247  0.9545 -1.2388
 3495SOL     OW22957   4.977   1.122   7.369  0.1145 -0.0862  0.0215
 3495SOL    HW122958   4.933   1.178   7.439  0.4540  0.1010  0.0894
 3495SOL    HW222959   5.062   1.084   7.406  1.1343  1.3366 -0.7917
 3496SOL     OW22960   7.946   6.721   6.057 -0.4482 -0.3594  0.6588
 3496SOL    HW122961   7.967   6.683   5.967 -3.7424  0.0255 -0.3304
 3496SOL    HW222962   7.992   6.810   6.067  0.8597 -0.9300 -0.1679
 3497SOL     OW22963   4.246   5.892   2.001  0.1502  0.1577 -0.1987
 3497SOL    HW122964   4.322   5.956   1.995 -0.6880  1.2032  0.0849
 3497SOL    HW222965   4.192   5.896   1.917 -0.6301  0.7679  0.3243
 3498SOL     OW22966   2.254   1.427   4.726  0.3249 -0.2195 -0.3055
 3498SOL    HW122967   2.194   1.358   4.767 -1.2442  2.1406  1.4371
 3498SOL    HW222968   2.349   1.406   4.749 -0.0192 -2.3980 -0.7145
 3499SOL     OW22969   0.446   8.045   1.749  0.1359  0.0457 -0.3200
 3499SOL    HW122970   0.534   8.035   1.795  0.1034 -1.1330 -0.5079
 3499SOL    HW222971   0.460   8.079   1.656  0.2797  1.3246  0.1618
 3500SOL     OW22972   5.940   8.290   7.185 -0.0501  0.2897  0.3861
 3500SOL    HW122973   5.959   8.384   7.216  0.1451 -0.6061  3.1295
 3500SOL    HW222974   5.842   8.281   7.166 -0.4383  0.4993  2.1735
 3501SOL     OW22975   8.906   3.695   2.182  0.1503  0.1204  0.3849
 3501SOL    HW122976   8.955   3.620   2.137 -1.2482 -0.7158  0.2342
 3501SOL    HW222977   8.943   3.708   2.274  2.3571  1.1869 -0.6038
 3502SOL     OW22978   3.571   2.172   4.958  0.3359 -0.0390 -0.3823
 3502SOL    HW122979   3.525   2.190   5.045  1.0714  0.5233 -0.1095
 3502SOL    HW222980   3.535   2.233   4.888 -0.7582 -0.9725 -0.6433
 3503SOL     OW22981   8.624   5.169   1.316 -0.2921 -0.2946 -0.4305
 3503SOL    HW122982   8.676   5.096   1.271 -1.9853 -0.5506 -2.0290
 3503SOL    HW222983   8.554   5.128   1.375  1.1885  0.0506  1.6178
 3504SOL     OW22984   0.963   6.106   1.541  0.4504  0.2409 -0.3678
 3504SOL    HW122985   0.963   6.188   1.597  0.0637 -0.6950  1.0207
 3504SOL    HW222986   1.012   6.033   1.588 -0.0190 -0.6012 -1.1691
 3505SOL     OW22987   0.771   8.870   7.882  0.0080  0.0736  0.5679
 3505SOL    HW122988   0.694   8.856   7.820  0.3041 -1.6863  0.5821
 3505SOL    HW222989   0.759   8.814   7.964  1.2460 -0.1202  0.6211
 3506SOL     OW22990   4.752   2.244   0.031 -0.2233 -0.6349  0.1086
 3506SOL    HW122991   4.789   2.311   0.095  1.0161 -0.5699 -0.6612
 3506SOL    HW222992   4.771   2.273  -0.063 -0.4199 -1.6407 -0.2466
 3507SOL     OW22993   6.742   3.808   1.095  0.0500 -0.1164 -0.2255
 3507SOL    HW122994   6.723   3.871   1.020 -0.0568  0.8759  0.6305
 3507SOL    HW222995   6.678   3.730   1.090  0.5283 -0.4327 -1.5848
 3508SOL     OW22996   0.034   6.439   1.698 -0.0905 -0.8041  0.0276
 3508SOL    HW122997   0.076   6.352   1.671  0.6309 -0.6576  0.6432
 3508SOL    HW222998   0.105   6.499   1.736 -0.7643 -0.3204  0.5237
 3509SOL     OW22999   1.628   4.082   3.563 -0.0290 -0.3760 -0.3262
 3509SOL    HW123000   1.698   4.139   3.605 -1.0845 -0.1878  1.2038
 3509SOL    HW223001   1.621   4.104   3.466  1.5754  0.0589 -0.3545
 3510SOL     OW23002   1.126   2.395   7.232  0.3024  0.5483  0.6333
 3510SOL    HW123003   1.115   2.398   7.332 -0.2307  0.1118  0.5932
 3510SOL    HW223004   1.042   2.428   7.189 -0.0458 -0.7121  0.3225
 3511SOL     OW23005   7.169   5.274   7.688  0.2285 -0.2176  0.1836
 3511SOL    HW123006   7.205   5.181   7.690 -0.0475 -0.3092  1.2441
 3511SOL    HW223007   7.082   5.277   7.738  1.0662  0.9402  1.6246
 3512SOL     OW23008   2.503   7.718   8.349  0.8777  0.2797  0.1283
 3512SOL    HW123009   2.521   7.633   8.399  1.4669  0.4308  0.1752
 3512SOL    HW223010   2.581   7.740   8.291  0.6795  0.7292  0.0278
 3513SOL     OW23011   6.954   6.752   8.915 -0.1558  0.6295  0.2760
 3513SOL    HW123012   6.894   6.800   8.979 -0.0746  0.1825  0.6867
 3513SOL    HW223013   6.956   6.655   8.938  0.5198  0.6019  0.0991
 3514SOL     OW23014   4.270   2.013   8.397  0.1041  0.2279 -0.4268
 3514SOL    HW123015   4.361   2.025   8.436  0.0899 -0.6032 -0.1265
 3514SOL    HW223016   4.277   1.959   8.313 -0.1883 -0.4281 -0.0318
 3515SOL     OW23017   3.319   7.392   2.731  0.2165  0.5728 -0.3491
 3515SOL    HW123018   3.300   7.360   2.824  0.6740 -2.1370 -1.1411
 3515SOL    HW223019   3.241   7.370   2.672  1.4738 -1.2405 -1.3958
 3516SOL     OW23020   6.835   5.306   8.154  0.2507 -0.2176 -0.2937
 3516SOL    HW123021   6.861   5.364   8.076  0.8368  0.5257  0.4439
 3516SOL    HW223022   6.871   5.346   8.238 -2.4292  0.2901  0.6545
 3517SOL     OW23023   5.404   6.120   6.140  0.0718  0.0320 -0.2704
 3517SOL    HW123024   5.483   6.149   6.194  0.6452 -1.6564 -0.1648
 3517SOL    HW223025   5.433   6.101   6.046  0.0908 -1.8581  0.0883
 3518SOL     OW23026   2.600   3.753   5.237  0.4090 -0.5948  0.2873
 3518SOL    HW123027   2.632   3.662   5.264  0.3148 -1.0313 -1.0714
 3518SOL    HW223028   2.677   3.806   5.202  0.5768  0.0597  1.6039
 3519SOL     OW23029   5.924   2.672   1.815  0.3694  0.5498 -0.4883
 3519SOL    HW123030   5.891   2.745   1.875  1.3273  0.5651  0.0271
 3519SOL    HW223031   5.846   2.624   1.775 -0.2723  0.9247  0.3006
 3520SOL     OW23032   8.001   1.079   4.843 -0.5365 -0.2988  0.1788
 3520SOL    HW123033   7.941   1.158   4.836 -1.0367 -0.6694  0.3144
 3520SOL    HW223034   8.056   1.085   4.926 -0.3976  0.0282  0.0632
 3521SOL     OW23035   2.849   1.352   0.477  0.0361 -0.6280  0.2645
 3521SOL    HW123036   2.864   1.331   0.573 -1.1594 -0.8293  0.4105
 3521SOL    HW223037   2.757   1.389   0.464  0.6226  0.5714 -0.6183
 3522SOL     OW23038   5.721   0.503   4.716 -0.3355  0.1026  0.1036
 3522SOL    HW123039   5.719   0.587   4.662 -0.9253 -0.6693 -1.0907
 3522SOL    HW223040   5.814   0.488   4.752  0.0232  0.6963 -0.5807
 3523SOL     OW23041   0.250   6.704   5.362  0.4181  1.1272  0.2485
 3523SOL    HW123042   0.251   6.748   5.273  1.3330 -3.0381 -1.9224
 3523SOL    HW223043   0.183   6.629   5.362  2.6311 -0.9502  1.9623
 3524SOL     OW23044   7.231   0.043   1.033  0.1002 -0.2835  0.0560
 3524SOL    HW123045   7.206  -0.030   1.096 -0.8435  0.7580  0.9145
 3524SOL    HW223046   7.273   0.118   1.085  2.2251 -0.7305 -0.9671
 3525SOL     OW23047   4.599   5.261   8.936  0.1917 -0.3418  0.1091
 3525SOL    HW123048   4.629   5.355   8.954 -0.1702 -0.3995  1.0376
 3525SOL    HW223049   4.598   5.245   8.838  0.2913  0.6146 -0.0548
 3526SOL     OW23050   8.365   0.674   4.976  0.0786 -0.3609 -0.5003
 3526SOL    HW123051   8.300   0.748   4.994  0.6772 -0.2513  1.3647
 3526SOL    HW223052   8.320   0.602   4.924 -1.9540 -0.8713  1.8477
 3527SOL     OW23053   2.741   6.536   0.815 -0.3702 -0.4834  0.4053
 3527SOL    HW123054   2.725   6.493   0.726  1.1219 -1.0463  0.4022
 3527SOL    HW223055   2.820   6.494   0.859 -1.6284 -0.8540  2.4174
 3528SOL     OW23056   7.428   8.843   6.097 -0.5549 -0.0836  0.4277
 3528SOL    HW123057   7.345   8.819   6.047 -1.2282  0.3674  1.3282
 3528SOL    HW223058   7.415   8.823   6.195  1.3459 -2.6044  0.2343
 3529SOL     OW23059   6.369   7.500   1.352  0.1501  0.2298  0.8539
 3529SOL    HW123060   6.446   7.555   1.321  1.3808 -0.4117  2.7131
 3529SOL    HW223061   6.301   7.494   1.279  1.9988  0.5469 -0.9399
 3530SOL     OW23062   8.087   0.105   0.913  0.4479 -0.3504  0.3010
 3530SOL    HW123063   8.145   0.149   0.982  0.5972 -1.3383  0.8234
 3530SOL    HW223064   8.080   0.164   0.833  0.0303  0.9625  1.2728
 3531SOL     OW23065   7.152   5.898   6.543  0.6891 -0.2959  0.8776
 3531SOL    HW123066   7.077   5.962   6.558  0.2690 -1.2127  2.7226
 3531SOL    HW223067   7.233   5.948   6.513 -0.8454  0.6245 -1.8956
 3532SOL     OW23068   0.637   2.845   1.015  0.1138  0.4150 -0.8712
 3532SOL    HW123069   0.615   2.759   0.969  0.6323 -0.4630  0.4877
 3532SOL    HW223070   0.588   2.920   0.972  0.8514 -0.3382 -3.0515
 3533SOL     OW23071   2.853   6.062   5.053  0.2790 -0.1622 -0.2592
 3533SOL    HW123072   2.826   6.151   5.088  0.2116 -1.1828  2.4075
 3533SOL    HW223073   2.940   6.070   5.004 -0.3057  1.5387 -1.0480
 3534SOL     OW23074   3.841   6.485   5.454 -0.2744  0.2268  0.1850
 3534SOL    HW123075   3.910   6.443   5.395  0.1673 -0.1863  0.9985
 3534SOL    HW223076   3.751   6.451   5.428 -0.1031  0.1947 -0.3805
 3535SOL     OW23077   8.012   2.663   8.052 -0.2752  0.3276  0.0001
 3535SOL    HW123078   8.034   2.654   7.954 -0.1227  1.6652 -0.0898
 3535SOL    HW223079   7.913   2.670   8.062 -0.3664 -0.9315  0.0341
 3536SOL     OW23080   1.765   5.788   2.082  0.5086  0.0634  0.1791
 3536SOL    HW123081   1.862   5.811   2.076  0.2498  1.2086  0.3184
 3536SOL    HW223082   1.710   5.871   2.074 -0.4901 -0.6468 -0.5066
 3537SOL     OW23083   0.486   5.870   5.986 -0.7651 -0.6369 -0.6066
 3537SOL    HW123084   0.476   5.843   6.082  0.1451  0.6384 -0.1418
 3537SOL    HW223085   0.414   5.826   5.932 -1.2744 -1.3898  0.6513
 3538SOL     OW23086   7.071   0.817   8.145  1.1001 -0.1479  0.1154
 3538SOL    HW123087   7.107   0.894   8.196  0.5803  0.2886 -0.1752
 3538SOL    HW223088   7.022   0.850   8.064  0.0168 -0.7368  0.5284
 3539SOL     OW23089   8.708   4.152   6.605 -0.6349  0.4677 -0.4733
 3539SOL    HW123090   8.624   4.145   6.659 -1.2148 -0.4912 -1.4590
 3539SOL    HW223091   8.769   4.221   6.645 -1.3768  0.3173  0.9410
 3540SOL     OW23092   5.291   4.939   4.715  0.3757  0.1015  0.5300
 3540SOL    HW123093   5.275   4.866   4.782 -0.7487  0.3251  0.5062
 3540SOL    HW223094   5.221   4.934   4.644  0.4067  1.0950  0.4307
 3541SOL     OW23095   2.843   0.263   7.103  0.1038 -0.0650  0.7376
 3541SOL    HW123096   2.886   0.174   7.094  1.8492  1.0030 -2.1573
 3541SOL    HW223097   2.913   0.334   7.111 -1.2316  1.1459  2.2739
 3542SOL     OW23098   0.084   3.386   3.503 -0.2241 -0.4635  0.1021
 3542SOL    HW123099   0.069   3.306   3.561 -0.7012 -0.9694 -0.7020
 3542SOL    HW223100   0.157   3.443   3.542  0.4469 -1.5382  0.4280
 3543SOL     OW23101   7.799   7.998   6.524 -0.2719 -0.4554 -0.2393
 3543SOL    HW123102   7.766   7.998   6.430 -1.7572  0.7926  0.2578
 3543SOL    HW223103   7.792   7.906   6.562  0.3346 -0.9617 -1.3460
 3544SOL     OW23104   6.596   2.223   7.646 -0.7030 -0.6529  0.0288
 3544SOL    HW123105   6.563   2.132   7.673 -0.0409 -1.3457 -1.3840
 3544SOL    HW223106   6.570   2.290   7.714 -1.1436 -1.9291  1.1415
 3545SOL     OW23107   6.395   2.209   2.324  0.0458 -0.1732  0.3943
 3545SOL    HW123108   6.425   2.170   2.237 -0.5496  0.5475 -0.1415
 3545SOL    HW223109   6.372   2.135   2.387  0.7635 -0.7008  0.0372
 3546SOL     OW23110   8.744   7.828   3.746  0.4714  0.0960  0.2247
 3546SOL    HW123111   8.761   7.778   3.662 -1.8014  1.1744 -0.9430
 3546SOL    HW223112   8.757   7.767   3.825  1.3829 -1.2733 -0.9665
 3547SOL     OW23113   0.557   0.561   6.557 -0.4017  0.3305 -0.2031
 3547SOL    HW123114   0.546   0.660   6.566  1.6731  0.6800 -1.0945
 3547SOL    HW223115   0.624   0.529   6.624  0.1637 -0.1943 -1.0030
 3548SOL     OW23116   1.372   3.048   0.997  0.6667 -0.6314 -0.1291
 3548SOL    HW123117   1.359   2.998   1.083 -3.4000 -1.3336 -1.0678
 3548SOL    HW223118   1.373   3.146   1.015  2.1456 -0.8120  0.9314
 3549SOL     OW23119   3.763   7.467   5.316 -0.1558  0.1924 -0.0565
 3549SOL    HW123120   3.684   7.406   5.325  0.3678 -0.4996 -0.1053
 3549SOL    HW223121   3.757   7.516   5.229 -0.4829  0.0666 -0.1057
 3550SOL     OW23122   6.139   7.611   6.960  0.0974  0.4393  0.6083
 3550SOL    HW123123   6.222   7.573   7.001  0.1618  1.3208  1.3234
 3550SOL    HW223124   6.060   7.587   7.017  0.0319  0.6693  0.6145
 3551SOL     OW23125   7.232   2.196   2.607  0.6649 -0.1414 -0.2585
 3551SOL    HW123126   7.226   2.103   2.644  0.3634 -0.3869 -0.9160
 3551SOL    HW223127   7.140   2.227   2.580  0.4971  0.9895  1.4941
 3552SOL     OW23128   7.591   5.816   7.757  0.0007  0.0837 -0.0503
 3552SOL    HW123129   7.589   5.772   7.847  2.2231  0.3741  0.1655
 3552SOL    HW223130   7.518   5.884   7.752 -0.4505 -0.2742  1.3468
 3553SOL     OW23131   2.114   0.845   1.860  0.0093  0.4988 -1.1373
 3553SOL    HW123132   2.155   0.831   1.950 -1.7017  0.8353 -0.2827
 3553SOL    HW223133   2.124   0.762   1.805 -1.3839 -0.6788  0.3644
 3554SOL     OW23134   3.593   3.519   4.124 -0.0298  0.2309 -0.3314
 3554SOL    HW123135   3.653   3.580   4.176 -1.8543  1.9914 -0.2514
 3554SOL    HW223136   3.600   3.426   4.162  2.0304  0.5596  0.1734
 3555SOL     OW23137   0.645   6.724   7.036 -0.0484 -0.3565  0.3935
 3555SOL    HW123138   0.608   6.801   6.984  0.3410  0.8563  1.9072
 3555SOL    HW223139   0.599   6.640   7.008 -1.6277  0.6588 -0.0847
 3556SOL     OW23140   5.842   5.570   2.273 -0.2532  0.1785  0.4029
 3556SOL    HW123141   5.745   5.570   2.247  0.0334 -0.3790 -0.7096
 3556SOL    HW223142   5.888   5.649   2.233 -0.4203  0.8909  1.6117
 3557SOL     OW23143   8.901   4.107   6.912  0.2886  0.4075  0.5716
 3557SOL    HW123144   8.826   4.067   6.859  0.1764  0.8967  0.3508
 3557SOL    HW223145   8.956   4.165   6.852  0.7769  0.1403  0.7627
 3558SOL     OW23146   7.123   6.813   5.081 -0.3284  0.1452 -0.8682
 3558SOL    HW123147   7.026   6.792   5.085 -0.2737 -0.1270 -0.9540
 3558SOL    HW223148   7.169   6.775   5.162 -0.4441  1.0813 -0.3500
 3559SOL     OW23149   6.225   8.335   1.495  0.0221 -0.1834 -1.0393
 3559SOL    HW123150   6.146   8.275   1.513 -0.3443  0.6267  0.1063
 3559SOL    HW223151   6.238   8.396   1.572  1.2871  0.2493 -1.5894
 3560SOL     OW23152   4.333   0.274   5.334  0.1479  0.4937  0.3026
 3560SOL    HW123153   4.364   0.362   5.368 -0.0436  0.6855 -0.0164
 3560SOL    HW223154   4.389   0.201   5.373  0.2118  0.7448  0.6796
 3561SOL     OW23155   0.868   6.290   5.923 -0.0771  0.2215 -0.2641
 3561SOL    HW123156   0.874   6.221   5.995  1.6058  0.7603  0.1468
 3561SOL    HW223157   0.955   6.294   5.873  0.2324  2.7225  0.3695
 3562SOL     OW23158   5.950   3.474   6.813  0.3080  0.0940 -0.6293
 3562SOL    HW123159   5.873   3.445   6.869  0.5076  1.2707  0.2677
 3562SOL    HW223160   6.036   3.453   6.861  0.4919  0.7618 -0.6710
 3563SOL     OW23161   1.500   1.552   8.045  0.1811  0.3102 -0.0539
 3563SOL    HW123162   1.471   1.537   7.950 -0.5374  1.0468  0.0421
 3563SOL    HW223163   1.511   1.650   8.061  1.5907  0.1163  0.2565
 3564SOL     OW23164   7.564   3.138   8.789 -0.1374 -0.6134  0.0814
 3564SOL    HW123165   7.641   3.128   8.851  0.8512  2.5021 -0.5602
 3564SOL    HW223166   7.530   3.048   8.762  0.4279 -2.0083  3.8252
 3565SOL     OW23167   5.544   5.045   6.504  0.2807 -0.5207  0.3229
 3565SOL    HW123168   5.622   5.009   6.453 -1.1524 -1.9488 -0.9151
 3565SOL    HW223169   5.511   4.975   6.568 -1.3825 -0.7722 -0.7836
 3566SOL     OW23170   6.025   1.687   8.149 -0.0519  0.1795  0.2270
 3566SOL    HW123171   5.995   1.710   8.056  2.5239  1.2341 -0.3945
 3566SOL    HW223172   5.979   1.745   8.215 -0.3494  0.8812 -0.5856
 3567SOL     OW23173   4.385   8.454   4.348  0.5381 -0.6355 -0.5448
 3567SOL    HW123174   4.362   8.518   4.421  0.8404 -1.9838  0.7631
 3567SOL    HW223175   4.322   8.466   4.272  0.6091  1.2281 -0.3290
 3568SOL     OW23176   4.624   4.924   7.430  0.1967  0.2793  0.1891
 3568SOL    HW123177   4.681   4.853   7.389 -0.2767  0.2369 -0.3839
 3568SOL    HW223178   4.572   4.884   7.506 -2.2892 -0.6891 -1.9811
 3569SOL     OW23179   5.156   8.981   0.767 -0.2271 -0.5401 -0.0297
 3569SOL    HW123180   5.193   8.889   0.753  1.5254  0.0803  0.3098
 3569SOL    HW223181   5.058   8.981   0.748 -0.0853 -2.2771 -0.9144
 3570SOL     OW23182   5.031   1.739   1.414  0.1549  0.2560 -0.0436
 3570SOL    HW123183   5.080   1.659   1.446  0.2021  1.2724  2.5408
 3570SOL    HW223184   5.096   1.804   1.374  0.3810 -0.1184 -0.2851
 3571SOL     OW23185   3.110   1.897   5.944 -0.0930 -0.0602  0.2509
 3571SOL    HW123186   3.190   1.925   5.996  0.0825 -0.8903  0.4383
 3571SOL    HW223187   3.041   1.860   6.006 -0.0181 -0.7426 -0.0619
 3572SOL     OW23188   5.084   3.432   8.527 -0.4615 -0.3638  0.5775
 3572SOL    HW123189   5.093   3.375   8.445 -0.7537  0.2267  0.1262
 3572SOL    HW223190   5.136   3.516   8.515 -3.1680  1.2559 -0.3969
 3573SOL     OW23191   0.189   4.813   0.188  0.0853 -0.1667  0.0723
 3573SOL    HW123192   0.234   4.725   0.176  1.1280  0.4152 -0.3527
 3573SOL    HW223193   0.227   4.879   0.124  0.7687  1.1289  1.7874
 3574SOL     OW23194   7.581   1.563   0.453  0.0215 -0.2545 -0.0932
 3574SOL    HW123195   7.544   1.537   0.542  2.7151 -0.0851  1.1343
 3574SOL    HW223196   7.677   1.536   0.448  0.1727  0.6471 -2.5785
 3575SOL     OW23197   1.765   2.432   2.896 -0.4722 -0.7916  0.5940
 3575SOL    HW123198   1.862   2.435   2.873 -0.9964  2.3811 -1.7326
 3575SOL    HW223199   1.753   2.455   2.992  1.0401  0.1064  0.5972
 3576SOL     OW23200   3.654   1.415   3.101  0.1735  0.5318 -0.4004
 3576SOL    HW123201   3.607   1.376   3.180 -0.3692 -0.7204 -1.3134
 3576SOL    HW223202   3.621   1.508   3.085  0.2665  0.7731  0.8238
 3577SOL     OW23203   3.004   5.183   3.292  0.2442 -0.0519 -0.2669
 3577SOL    HW123204   3.016   5.174   3.193 -1.2859 -1.6585 -0.3230
 3577SOL    HW223205   2.911   5.156   3.317 -0.2568  2.8739  1.2941
 3578SOL     OW23206   6.348   2.861   2.720  0.1590  0.1212  0.0955
 3578SOL    HW123207   6.300   2.933   2.671  0.8346  0.6260  0.1803
 3578SOL    HW223208   6.422   2.900   2.775 -0.9833 -0.3468  2.0342
 3579SOL     OW23209   8.989   2.737   2.611 -0.7706  0.0381  0.0284
 3579SOL    HW123210   8.907   2.682   2.631 -0.1271 -1.6489 -1.7794
 3579SOL    HW223211   9.045   2.743   2.694 -1.1505 -1.5612  0.4314
 3580SOL     OW23212   5.278   4.201   1.814  0.1635  0.0607 -0.2332
 3580SOL    HW123213   5.233   4.165   1.896 -0.0724 -2.4797 -1.4204
 3580SOL    HW223214   5.286   4.128   1.746  1.5889  1.7740 -1.9600
 3581SOL     OW23215   0.096   2.193   5.544  0.0663 -0.0018  0.1688
 3581SOL    HW123216   0.090   2.286   5.581 -0.4671 -1.0639  2.8124
 3581SOL    HW223217   0.065   2.193   5.449 -2.0447  2.1195  0.8179
 3582SOL     OW23218   4.779   3.078   2.300  0.2704 -0.1521  0.0879
 3582SOL    HW123219   4.782   2.979   2.317  0.5582  0.1794  2.0937
 3582SOL    HW223220   4.693   3.102   2.255 -0.4150 -1.1281  0.8632
 3583SOL     OW23221   5.288   4.846   3.871  0.3795  0.1155  0.0064
 3583SOL    HW123222   5.286   4.897   3.785 -1.0154  0.1884  0.0633
 3583SOL    HW223223   5.196   4.846   3.912  0.7467 -0.9680  0.8667
 3584SOL     OW23224   8.793   1.960   5.898 -0.3677 -0.1600 -0.5503
 3584SOL    HW123225   8.882   2.004   5.884 -0.2084 -0.5486 -0.7732
 3584SOL    HW223226   8.767   1.966   5.994 -0.1898  0.1252 -0.5208
 3585SOL     OW23227   0.085   8.938   2.704  0.3556  0.0612  0.4883
 3585SOL    HW123228   0.119   8.883   2.628 -1.1318 -0.6328  0.3051
 3585SOL    HW223229   0.064   8.878   2.781  1.6496  0.7345  1.3865
 3586SOL     OW23230   5.036   3.416   6.016 -0.3375  0.4113 -0.3806
 3586SOL    HW123231   5.114   3.353   6.016 -1.2481 -0.7135 -0.7764
 3586SOL    HW223232   5.042   3.476   5.936 -0.4747 -0.4181 -1.0190
 3587SOL     OW23233   1.923   1.096   6.754 -0.1316  0.2255 -0.0574
 3587SOL    HW123234   1.956   1.009   6.792  0.8237 -0.4147 -2.2767
 3587SOL    HW223235   2.002   1.156   6.735 -0.6609  0.9032 -0.1416
 3588SOL     OW23236   7.806   2.307   3.270  0.2410  0.2433  0.2743
 3588SOL    HW123237   7.739   2.319   3.343 -0.5666  2.4056 -0.7736
 3588SOL    HW223238   7.766   2.253   3.196  1.0561 -1.9383  1.3904
 3589SOL     OW23239   4.836   4.847   4.395  0.0066  0.4259 -0.6709
 3589SOL    HW123240   4.823   4.749   4.380  0.7196 -0.0894  1.8640
 3589SOL    HW223241   4.759   4.897   4.355 -0.7566 -1.2212 -1.3070
 3590SOL     OW23242   5.497   0.203   0.237 -0.2688 -0.2232 -0.6570
 3590SOL    HW123243   5.596   0.192   0.229 -0.0793  0.3758  0.7495
 3590SOL    HW223244   5.458   0.123   0.283  0.0552  1.1932  2.1502
 3591SOL     OW23245   3.443   5.042   1.133 -0.2992  0.7302  0.1413
 3591SOL    HW123246   3.407   5.069   1.222 -0.1773  0.8177  0.1654
 3591SOL    HW223247   3.443   4.943   1.125  2.2187  0.5810  1.3152
 3592SOL     OW23248   5.919   0.385   2.283 -0.2948 -0.7980  0.5196
 3592SOL    HW123249   5.973   0.452   2.232 -2.2181  0.0640 -0.4408
 3592SOL    HW223250   5.932   0.400   2.382 -0.6328  0.9489  0.3224
 3593SOL     OW23251   0.069   3.807   4.158  0.4328  0.2314 -0.6455
 3593SOL    HW123252   0.053   3.784   4.254  0.7910  0.8186 -0.4477
 3593SOL    HW223253   0.105   3.726   4.111  0.6071  0.0502 -0.2052
 3594SOL     OW23254   1.076   8.522   8.060  0.2692  0.0560 -0.1517
 3594SOL    HW123255   1.101   8.489   8.151  0.8780 -0.4411 -0.4968
 3594SOL    HW223256   1.132   8.477   7.991 -0.9393 -0.3843 -0.8689
 3595SOL     OW23257   8.597   7.392   0.900 -0.2742 -0.6414  0.0864
 3595SOL    HW123258   8.637   7.466   0.953  1.4286 -1.8881  0.5984
 3595SOL    HW223259   8.498   7.402   0.897 -0.0625  1.6204  0.1570
 3596SOL     OW23260   1.816   4.514   0.940 -0.2878  0.3359  0.1024
 3596SOL    HW123261   1.906   4.481   0.970 -1.2530 -0.6162  2.1068
 3596SOL    HW223262   1.821   4.545   0.845  2.0821  0.0376  0.1021
 3597SOL     OW23263   7.126   5.404   7.451 -0.1394  0.0216 -0.1527
 3597SOL    HW123264   7.118   5.503   7.464 -5.6659 -0.1504 -0.8138
 3597SOL    HW223265   7.144   5.360   7.539 -1.7713  1.3642  0.8806
 3598SOL     OW23266   0.703   1.513   3.009 -0.1178 -0.2793  0.0780
 3598SOL    HW123267   0.740   1.439   2.952 -0.2228  0.5463 -1.0801
 3598SOL    HW223268   0.721   1.493   3.105  1.3594 -0.9932 -0.3321
 3599SOL     OW23269   6.168   5.895   2.400  0.2543 -0.1648 -0.2541
 3599SOL    HW123270   6.085   5.945   2.377  1.8794  2.3735 -0.7381
 3599SOL    HW223271   6.220   5.878   2.317  0.5705 -1.1360  0.1394
 3600SOL     OW23272   0.268   6.859   7.108 -0.0918  0.2958  0.1333
 3600SOL    HW123273   0.260   6.958   7.108 -2.5982  0.1503  1.6947
 3600SOL    HW223274   0.341   6.832   7.171  2.9894  1.2035 -2.8942
 3601SOL     OW23275   2.581   3.937   8.142  0.3883 -0.0165 -0.3336
 3601SOL    HW123276   2.656   3.988   8.100  0.0115  1.8877  1.2451
 3601SOL    HW223277   2.575   3.960   8.239 -1.7502 -0.7222 -0.2694
 3602SOL     OW23278   5.133   0.643   6.964  0.2108  0.0911 -1.2031
 3602SOL    HW123279   5.218   0.676   6.922 -0.1933 -0.1769 -2.2449
 3602SOL    HW223280   5.055   0.673   6.909 -0.2296 -1.6292 -1.5334
 3603SOL     OW23281   6.321   2.891   2.105  0.5176  0.2467  0.6348
 3603SOL    HW123282   6.326   2.792   2.119  0.0817  0.2633  0.9222
 3603SOL    HW223283   6.389   2.919   2.037  0.7412 -0.2294  0.6618
 3604SOL     OW23284   1.918   8.648   8.808 -0.0366 -0.3591  0.3130
 3604SOL    HW123285   1.871   8.592   8.876  0.2078  0.6537  1.3287
 3604SOL    HW223286   1.872   8.736   8.799 -0.3771 -0.6734 -1.2246
 3605SOL     OW23287   4.506   7.156   3.139  0.4178  0.0184  0.4275
 3605SOL    HW123288   4.571   7.143   3.064 -1.5799  1.0746 -1.5363
 3605SOL    HW223289   4.443   7.079   3.142 -0.6589  0.8651 -0.1801
 3606SOL     OW23290   5.506   7.402   8.908 -0.0852 -0.4712 -0.1124
 3606SOL    HW123291   5.595   7.415   8.864 -1.2426 -0.2561 -2.5100
 3606SOL    HW223292   5.508   7.441   9.000  1.9072  0.6828 -0.6097
 3607SOL     OW23293   0.587   8.853   0.302 -0.0700  0.2061 -0.5471
 3607SOL    HW123294   0.498   8.833   0.343 -0.0069 -1.8197 -1.3506
 3607SOL    HW223295   0.646   8.895   0.370 -0.9834 -0.2784  0.5658
 3608SOL     OW23296   0.819   6.807   0.270  0.4109  0.0217  0.2682
 3608SOL    HW123297   0.880   6.813   0.191  0.6743  0.9955  0.5428
 3608SOL    HW223298   0.873   6.786   0.352  0.1247 -1.1149  0.1845
 3609SOL     OW23299   5.631   3.469   4.390  0.2056 -0.0725 -0.4944
 3609SOL    HW123300   5.578   3.404   4.336 -0.3504  2.1650 -2.7355
 3609SOL    HW223301   5.573   3.511   4.459 -0.6511  1.4228 -2.0979
 3610SOL     OW23302   4.728   7.719   3.249  0.1430  0.5917  0.3063
 3610SOL    HW123303   4.651   7.676   3.297 -0.1529 -0.3094 -0.9511
 3610SOL    HW223304   4.702   7.741   3.155  1.6925 -0.6113 -0.4476
 3611SOL     OW23305   7.790   3.695   2.616 -0.3526 -0.3816  0.6887
 3611SOL    HW123306   7.718   3.763   2.633  0.8539  0.9330  0.6283
 3611SOL    HW223307   7.842   3.680   2.700  1.1622  0.8841  0.0068
 3612SOL     OW23308   1.816   8.340   4.649  0.4876 -0.7379  0.4072
 3612SOL    HW123309   1.868   8.420   4.679  0.9710  0.1523 -2.6041
 3612SOL    HW223310   1.880   8.268   4.621  0.0739 -0.8972 -0.1316
 3613SOL     OW23311   1.845   5.238   3.688 -0.2288 -0.0355  0.0203
 3613SOL    HW123312   1.918   5.222   3.622  0.0757  0.9927  0.1136
 3613SOL    HW223313   1.801   5.325   3.670 -1.7665 -0.8613 -0.3346
 3614SOL     OW23314   0.210   5.429   6.557 -0.1174  0.3661 -0.3900
 3614SOL    HW123315   0.120   5.472   6.555 -1.6015 -2.5575  0.3638
 3614SOL    HW223316   0.241   5.413   6.464 -1.9567 -1.6896 -0.6834
 3615SOL     OW23317   0.605   5.854   0.070  0.4934  0.8927 -0.2903
 3615SOL    HW123318   0.657   5.806  -0.002  0.9218  0.9538 -0.0256
 3615SOL    HW223319   0.612   5.802   0.155 -0.9296  0.2404 -0.5545
 3616SOL     OW23320   6.245   7.290   6.216 -0.7960 -0.5131  0.4069
 3616SOL    HW123321   6.312   7.343   6.164 -1.1617 -0.4353  0.0112
 3616SOL    HW223322   6.153   7.309   6.182 -1.0385 -0.4801  1.0704
 3617SOL     OW23323   7.735   3.121   1.703  0.2337  0.1062 -0.0797
 3617SOL    HW123324   7.822   3.129   1.753  0.5532 -2.2581 -0.1841
 3617SOL    HW223325   7.684   3.043   1.739 -0.9936  0.3496 -1.2937
 3618SOL     OW23326   5.343   1.955   2.757  0.0547  0.3015  0.0036
 3618SOL    HW123327   5.277   2.023   2.789 -0.5208 -0.3105  0.1365
 3618SOL    HW223328   5.399   1.995   2.684 -0.1860  0.9598  0.1718
 3619SOL     OW23329   4.447   0.543   8.287 -0.1965 -0.0798 -0.1222
 3619SOL    HW123330   4.427   0.451   8.255  0.8777 -0.7018  0.9656
 3619SOL    HW223331   4.412   0.609   8.221 -0.0690 -1.2838 -1.4150
 3620SOL     OW23332   4.057   8.436   8.944 -0.0617  0.0652 -0.1251
 3620SOL    HW123333   4.117   8.413   9.020 -1.1883 -2.8175 -0.0613
 3620SOL    HW223334   4.082   8.381   8.864 -1.4307  0.1674 -0.6340
 3621SOL     OW23335   3.548   6.830   7.462 -0.5452  0.3719 -0.1721
 3621SOL    HW123336   3.543   6.763   7.536  4.4833  0.9455  0.9128
 3621SOL    HW223337   3.515   6.918   7.495  1.5673  0.5954  1.4291
 3622SOL     OW23338   8.763   2.571   6.148 -0.1362 -0.4840 -0.1554
 3622SOL    HW123339   8.838   2.634   6.128 -0.6618 -0.0205 -0.6727
 3622SOL    HW223340   8.761   2.498   6.079  1.3731 -1.8977  1.2606
 3623SOL     OW23341   2.110   8.577   3.340  0.4045  0.4199 -0.2555
 3623SOL    HW123342   2.122   8.503   3.274 -1.3751  0.5237 -0.7020
 3623SOL    HW223343   2.047   8.645   3.303  0.8694  1.4225  0.7717
 3624SOL     OW23344   5.681   4.691   8.948 -0.3695  0.0962  0.2843
 3624SOL    HW123345   5.672   4.661   8.853 -0.5465  0.8252  0.0648
 3624SOL    HW223346   5.739   4.773   8.952 -0.1064 -0.1189  0.8389
 3625SOL     OW23347   6.311   4.269   6.029 -0.0927  0.1129  0.3486
 3625SOL    HW123348   6.317   4.368   6.043 -1.5932  0.4770 -1.3616
 3625SOL    HW223349   6.228   4.234   6.073  0.9257 -0.5689  1.7734
 3626SOL     OW23350   5.693   5.792   5.367  0.2334 -0.2625 -0.1642
 3626SOL    HW123351   5.752   5.842   5.304  1.4335 -0.1034  1.0557
 3626SOL    HW223352   5.714   5.694   5.362  0.2068 -0.2686 -0.1592
 3627SOL     OW23353   3.920   6.891   3.769  0.0812 -0.6556  0.1511
 3627SOL    HW123354   3.876   6.804   3.793 -1.2740  0.6824  2.7394
 3627SOL    HW223355   3.873   6.932   3.692 -1.4767 -0.5678  1.1361
 3628SOL     OW23356   5.016   0.116   1.670  0.0833  0.1572 -0.3293
 3628SOL    HW123357   5.103   0.105   1.716  0.5253 -0.0878 -1.2048
 3628SOL    HW223358   4.954   0.042   1.697  0.6479 -0.5019 -0.8134
 3629SOL     OW23359   7.200   3.702   3.408  0.2663 -0.5358 -0.0138
 3629SOL    HW123360   7.281   3.744   3.369  0.5750  0.1164  1.2958
 3629SOL    HW223361   7.129   3.695   3.338  1.1116 -0.2277 -0.9127
 3630SOL     OW23362   0.679   6.210   4.843 -0.1956  0.1174  0.1888
 3630SOL    HW123363   0.648   6.262   4.922  0.8970  0.3773  0.4475
 3630SOL    HW223364   0.779   6.210   4.840 -0.1955 -1.6445 -0.0241
 3631SOL     OW23365   0.658   8.453   4.357  0.2213  0.0927 -0.0086
 3631SOL    HW123366   0.627   8.541   4.322 -0.7048  0.1664  0.9884
 3631SOL    HW223367   0.690   8.464   4.451 -0.2715 -0.7201  0.2562
 3632SOL     OW23368   7.396   8.851   6.912  0.4865  0.1657 -0.1132
 3632SOL    HW123369   7.493   8.857   6.891  1.3118  0.7703  3.5483
 3632SOL    HW223370   7.366   8.936   6.956 -0.7074 -1.5198  2.4722
 3633SOL     OW23371   5.239   7.154   7.309 -0.2875  0.2332 -0.3486
 3633SOL    HW123372   5.300   7.228   7.338  0.4144 -0.5333  0.1743
 3633SOL    HW223373   5.171   7.138   7.381  0.7370 -0.8905  0.3928
 3634SOL     OW23374   3.659   3.866   1.728  0.3847  0.1265 -0.5917
 3634SOL    HW123375   3.648   3.948   1.672 -1.5823 -0.2211 -0.7736
 3634SOL    HW223376   3.608   3.791   1.687 -0.6306 -0.2875  1.3512
 3635SOL     OW23377   2.273   2.048   7.192 -0.0936 -0.1145 -0.0988
 3635SOL    HW123378   2.277   2.100   7.107 -2.9197  3.1885  1.6678
 3635SOL    HW223379   2.356   2.064   7.245  0.2053  0.5233 -0.7492
 3636SOL     OW23380   0.657   5.425   6.319 -0.1027  0.2046 -0.5591
 3636SOL    HW123381   0.657   5.503   6.256  0.2582  1.2166  0.6814
 3636SOL    HW223382   0.610   5.450   6.403  1.8651 -0.2057  0.6977
 3637SOL     OW23383   1.575   2.832   1.498  0.4529 -0.0690  0.2875
 3637SOL    HW123384   1.537   2.739   1.496 -0.1014  0.1680 -1.8102
 3637SOL    HW223385   1.671   2.828   1.525  0.1035 -1.1185  1.4428
 3638SOL     OW23386   7.865   2.098   8.767  0.1294 -0.4731  0.2750
 3638SOL    HW123387   7.907   2.106   8.676  2.1271 -0.6231  1.1462
 3638SOL    HW223388   7.844   2.189   8.802  0.2263 -0.3594  0.0401
 3639SOL     OW23389   7.195   4.733   5.802  0.5564  0.0971 -0.1286
 3639SOL    HW123390   7.112   4.756   5.750  0.7493  1.6190  0.2172
 3639SOL    HW223391   7.170   4.675   5.879 -0.0662 -0.2438 -0.5803
 3640SOL     OW23392   3.957   0.542   2.304 -0.4178 -0.0004 -0.1046
 3640SOL    HW123393   3.954   0.470   2.374 -0.2519 -0.3406 -0.4472
 3640SOL    HW223394   3.950   0.631   2.349 -0.6826 -0.2276  0.3200
 3641SOL     OW23395   8.713   3.561   1.682  0.4103  0.1404  0.4240
 3641SOL    HW123396   8.614   3.568   1.679  0.3373 -0.0394  2.0036
 3641SOL    HW223397   8.743   3.490   1.618 -0.3303  1.3386 -1.2861
 3642SOL     OW23398   1.856   4.918   3.567 -0.0661  0.1600 -0.5000
 3642SOL    HW123399   1.824   4.947   3.657 -0.4170 -1.5906 -0.0419
 3642SOL    HW223400   1.781   4.875   3.517  0.6867 -0.8633 -0.7627
 3643SOL     OW23401   7.052   4.895   3.247  0.2761 -0.2977 -0.5995
 3643SOL    HW123402   7.093   4.885   3.157 -0.3732  1.6462 -1.1275
 3643SOL    HW223403   7.122   4.925   3.312  0.5172 -0.6834 -0.6812
 3644SOL     OW23404   0.582   3.423   2.229 -0.4026  0.0491 -0.2976
 3644SOL    HW123405   0.651   3.359   2.263 -0.8998 -0.3974 -0.1167
 3644SOL    HW223406   0.511   3.435   2.299 -1.1783 -0.4942 -0.9861
 3645SOL     OW23407   5.740   6.756   5.591  0.0774  0.3840 -0.1215
 3645SOL    HW123408   5.777   6.802   5.671 -1.5966  0.4726  0.6200
 3645SOL    HW223409   5.721   6.823   5.519 -4.0900  1.2076  1.6183
 3646SOL     OW23410   8.604   8.742   0.743  0.4514 -0.1687 -0.2591
 3646SOL    HW123411   8.672   8.671   0.723  3.0374  0.8697  4.2424
 3646SOL    HW223412   8.639   8.831   0.713  0.2826  0.1294  0.4224
 3647SOL     OW23413   6.029   0.864   8.146 -0.1644 -0.1959 -0.0579
 3647SOL    HW123414   5.978   0.825   8.070 -0.7037 -0.2507  0.3291
 3647SOL    HW223415   5.993   0.955   8.168 -0.4164 -0.4307  0.5251
 3648SOL     OW23416   3.307   3.310   2.930 -0.4262  0.3701  0.7510
 3648SOL    HW123417   3.208   3.300   2.938 -0.4603 -0.0850 -0.1427
 3648SOL    HW223418   3.337   3.270   2.843  0.3338  1.9241  0.2870
 3649SOL     OW23419   0.498   2.680   4.108 -0.3139  0.4128  0.5766
 3649SOL    HW123420   0.437   2.603   4.127  0.0380 -0.0164  0.0180
 3649SOL    HW223421   0.523   2.725   4.193  2.2591 -2.2507  1.2976
 3650SOL     OW23422   2.109   2.324   4.361 -0.1834 -0.0319  0.2968
 3650SOL    HW123423   2.126   2.226   4.350 -0.2431  0.2112 -2.3223
 3650SOL    HW223424   2.021   2.347   4.319 -0.8774  0.9101  2.2227
 3651SOL     OW23425   8.591   8.935   2.349 -0.1770  0.3001 -0.2679
 3651SOL    HW123426   8.567   8.845   2.386  2.7787 -1.4344 -2.3441
 3651SOL    HW223427   8.646   8.985   2.415 -1.0344  0.2196  0.5173
 3652SOL     OW23428   8.880   3.941   0.100 -0.2435 -0.3967 -0.2299
 3652SOL    HW123429   8.798   3.891   0.127 -0.6998  0.3129 -0.3235
 3652SOL    HW223430   8.951   3.875   0.075 -1.2544 -0.9931 -1.5708
 3653SOL     OW23431   4.389   2.714   4.421 -0.1491 -0.0610  0.0642
 3653SOL    HW123432   4.461   2.747   4.483 -0.6474  0.4120  0.3936
 3653SOL    HW223433   4.427   2.703   4.329  0.6347 -0.9044  0.4772
 3654SOL     OW23434   4.336   5.344   1.078  0.2593 -0.5550 -0.4035
 3654SOL    HW123435   4.322   5.310   0.985 -0.0026  0.3129 -0.6848
 3654SOL    HW223436   4.342   5.266   1.141 -0.4552 -1.1149 -1.0135
 3655SOL     OW23437   8.163   8.755   1.198  0.3350 -0.3428  0.1022
 3655SOL    HW123438   8.106   8.679   1.230 -0.2487 -0.9979 -2.3458
 3655SOL    HW223439   8.246   8.718   1.157 -0.3240  0.2601 -1.8324
 3656SOL     OW23440   8.952   4.914   1.472 -0.4781 -0.0424  0.3869
 3656SOL    HW123441   9.012   4.994   1.470  1.1483 -1.2212  0.8834
 3656SOL    HW223442   8.980   4.854   1.547 -3.0793 -0.0242  1.4109
 3657SOL     OW23443   0.272   5.119   3.249  0.3529 -0.4174 -0.0842
 3657SOL    HW123444   0.343   5.185   3.272 -0.4249 -0.9327  4.2967
 3657SOL    HW223445   0.182   5.157   3.270 -0.5087 -0.9283 -2.6145
 3658SOL     OW23446   5.769   1.931   4.112  0.7621  0.5281  0.1333
 3658SOL    HW123447   5.859   1.922   4.070  1.3418 -1.3615  1.6762
 3658SOL    HW223448   5.761   2.020   4.157  2.1519  0.4072  0.6327
 3659SOL     OW23449   8.122   4.061   0.968  0.3369  0.1268  0.0652
 3659SOL    HW123450   8.040   4.026   1.012  0.8397 -0.3144  0.6592
 3659SOL    HW223451   8.117   4.045   0.869 -0.4956  0.5304  0.0383
 3660SOL     OW23452   0.583   6.320   5.079 -0.1582  0.1505  0.0563
 3660SOL    HW123453   0.603   6.229   5.118  0.1295 -1.5717 -3.9210
 3660SOL    HW223454   0.494   6.351   5.113 -1.4015 -2.7251 -0.3727
 3661SOL     OW23455   5.204   1.518   1.412  0.1623 -0.3200  0.2127
 3661SOL    HW123456   5.172   1.425   1.426 -0.2292  0.0675  2.0088
 3661SOL    HW223457   5.221   1.533   1.314  0.0093 -2.1812 -0.1164
 3662SOL     OW23458   2.672   5.501   1.630 -0.0488  0.5321 -0.3948
 3662SOL    HW123459   2.678   5.401   1.624  1.0905  0.6436 -1.2495
 3662SOL    HW223460   2.591   5.526   1.683  1.1650 -0.9047  2.2305
 3663SOL     OW23461   4.827   7.723   1.777  0.0441  0.1007 -1.0575
 3663SOL    HW123462   4.737   7.682   1.784 -0.3079  0.8610 -1.0644
 3663SOL    HW223463   4.832   7.803   1.837  1.5807 -1.4879  0.9768
 3664SOL     OW23464   0.488   8.513   6.426 -0.0207 -0.3575 -0.2761
 3664SOL    HW123465   0.431   8.543   6.350  0.5582 -0.5299 -0.7812
 3664SOL    HW223466   0.436   8.517   6.511 -1.0986 -1.5191 -0.8781
 3665SOL     OW23467   6.262   0.836   2.406  0.3255  0.5663 -0.3731
 3665SOL    HW123468   6.323   0.916   2.410  2.4267 -0.9564 -0.9103
 3665SOL    HW223469   6.266   0.786   2.492 -0.0108  0.3471 -0.4829
 3666SOL     OW23470   6.007   4.006   0.014  0.0947  0.0965  0.3780
 3666SOL    HW123471   6.082   4.067   0.038 -0.3808 -0.4921  3.5644
 3666SOL    HW223472   6.018   3.919   0.060 -0.5921 -1.3699 -2.1130
 3667SOL     OW23473   3.562   4.352   1.559 -0.0938 -0.3077 -0.1566
 3667SOL    HW123474   3.468   4.356   1.593  0.7636  2.5349  2.0535
 3667SOL    HW223475   3.563   4.371   1.461 -1.9221 -1.7181 -0.4816
 3668SOL     OW23476   4.379   6.951   5.608  0.6401  0.1297  1.0158
 3668SOL    HW123477   4.328   6.996   5.535 -0.3592 -0.5285  1.2902
 3668SOL    HW223478   4.319   6.885   5.655  1.6043 -0.3027  1.6641
 3669SOL     OW23479   8.836   4.731   4.282  0.2848  0.2681 -0.2110
 3669SOL    HW123480   8.893   4.658   4.246 -0.2420 -0.3127  0.1312
 3669SOL    HW223481   8.858   4.746   4.379 -2.6942 -2.4746  0.9569
 3670SOL     OW23482   5.847   4.214   6.778  0.2157 -0.3023 -0.2995
 3670SOL    HW123483   5.871   4.268   6.859  0.1919 -1.0457  0.2051
 3670SOL    HW223484   5.903   4.132   6.775  0.3135 -0.2043 -1.1207
 3671SOL     OW23485   6.886   4.220   3.601 -0.1418 -0.1499  0.1135
 3671SOL    HW123486   6.923   4.312   3.591  1.0132 -0.7052 -0.8935
 3671SOL    HW223487   6.955   4.161   3.643 -0.8859 -0.5416  0.7841
 3672SOL     OW23488   0.318   3.571   3.076 -0.0422 -0.4207 -0.2742
 3672SOL    HW123489   0.328   3.547   3.173  0.6875 -0.8459 -0.4559
 3672SOL    HW223490   0.238   3.525   3.039  0.8697 -1.9312 -0.4082
 3673SOL     OW23491   7.486   5.459   2.037  0.2693  0.2504  0.1245
 3673SOL    HW123492   7.397   5.419   2.060 -0.0935  0.1786 -1.3265
 3673SOL    HW223493   7.538   5.393   1.983  1.6832 -0.1539  1.9314
 3674SOL     OW23494   3.275   5.410   6.530  0.1126 -0.2241 -0.1752
 3674SOL    HW123495   3.308   5.442   6.441  1.6476 -0.2069  0.3909
 3674SOL    HW223496   3.261   5.489   6.590  0.1305 -0.3154 -0.0489
 3675SOL     OW23497   3.781   5.193   8.395 -0.1594  1.2334  0.0772
 3675SOL    HW123498   3.856   5.127   8.392 -1.0698  0.2459 -2.9771
 3675SOL    HW223499   3.708   5.158   8.453 -0.1320  0.0762 -0.5601
 3676SOL     OW23500   2.534   1.799   8.182  0.7760  0.1689 -0.4820
 3676SOL    HW123501   2.497   1.787   8.090  0.8790  0.9053 -0.6228
 3676SOL    HW223502   2.615   1.742   8.193  0.5765 -0.1673 -0.7340
 3677SOL     OW23503   6.830   5.333   5.177  0.2674 -0.0988  0.3316
 3677SOL    HW123504   6.777   5.289   5.249 -2.3490  0.7035 -1.0345
 3677SOL    HW223505   6.883   5.265   5.126 -1.0085 -1.1947  0.4703
 3678SOL     OW23506   6.639   1.646   7.236 -0.1480  0.5141  0.1963
 3678SOL    HW123507   6.593   1.598   7.311 -0.3660  0.8765  0.2958
 3678SOL    HW223508   6.706   1.585   7.194 -1.3004 -0.3000 -0.4915
 3679SOL     OW23509   3.789   0.147   0.165  0.5145 -0.4147  0.2099
 3679SOL    HW123510   3.846   0.129   0.085  1.0174  2.5678 -0.1577
 3679SOL    HW223511   3.693   0.134   0.140  0.6655  0.4468 -0.8979
 3680SOL     OW23512   3.979   4.402   2.576 -0.3919 -0.2227 -0.8001
 3680SOL    HW123513   4.032   4.318   2.590  0.8438  0.0911 -3.3117
 3680SOL    HW223514   3.904   4.383   2.513 -0.2814  0.4822 -1.1461
 3681SOL     OW23515   8.672   6.717   1.373  0.0855 -0.0950 -0.6304
 3681SOL    HW123516   8.683   6.627   1.417  0.4197 -0.3846 -1.3081
 3681SOL    HW223517   8.590   6.761   1.409 -0.8275 -1.2408 -1.2673
 3682SOL     OW23518   2.412   4.224   7.388 -0.3446 -0.2239  0.2912
 3682SOL    HW123519   2.374   4.302   7.438 -0.3571  0.2300 -0.4215
 3682SOL    HW223520   2.338   4.164   7.358 -0.3681 -0.2548  0.4084
 3683SOL     OW23521   5.645   5.304   6.099  0.5181  0.5165 -0.0914
 3683SOL    HW123522   5.617   5.352   6.182  0.2617 -0.6285  0.4976
 3683SOL    HW223523   5.721   5.353   6.056  1.4595  0.4583  1.4799
 3684SOL     OW23524   3.426   5.098   5.471  0.1954 -0.4863  0.4554
 3684SOL    HW123525   3.423   5.001   5.451 -1.4789 -0.3007 -0.3075
 3684SOL    HW223526   3.333   5.135   5.470  0.6343  0.7636  2.5215
 3685SOL     OW23527   6.423   6.177   2.269  0.2266 -0.5363  0.2245
 3685SOL    HW123528   6.434   6.184   2.368 -0.5234 -1.1376  0.3601
 3685SOL    HW223529   6.486   6.239   2.223 -0.6723  1.0853  1.1420
 3686SOL     OW23530   8.836   2.369   7.697  0.2654  0.2493 -0.6550
 3686SOL    HW123531   8.899   2.412   7.632  1.5538  1.1120  1.1105
 3686SOL    HW223532   8.885   2.349   7.782 -1.5269 -0.3326  0.2576
 3687SOL     OW23533   3.467   8.594   2.947  0.3949 -0.4685  0.0485
 3687SOL    HW123534   3.408   8.549   3.015  1.8351 -0.0455  1.6244
 3687SOL    HW223535   3.562   8.587   2.977  0.7051  3.1747  0.0949
 3688SOL     OW23536   4.472   6.176   7.770  0.0155  0.2339 -0.0893
 3688SOL    HW123537   4.486   6.079   7.748  1.1500  0.1332  0.9458
 3688SOL    HW223538   4.394   6.211   7.720 -1.0150 -1.4861  0.2592
 3689SOL     OW23539   4.924   8.460   6.017 -0.3131  0.7761 -0.1187
 3689SOL    HW123540   4.977   8.492   5.938  0.3590 -1.0355 -0.4306
 3689SOL    HW223541   4.966   8.495   6.101  1.7750 -1.0841 -0.3275
 3690SOL     OW23542   4.937   7.702   1.509 -0.4736 -0.2430 -0.1231
 3690SOL    HW123543   4.948   7.801   1.513  2.7541 -0.5978  1.3735
 3690SOL    HW223544   4.902   7.669   1.597 -0.0280 -0.5899 -0.0747
 3691SOL     OW23545   0.510   7.002   4.598 -0.5713  0.7358  0.2200
 3691SOL    HW123546   0.541   6.914   4.563 -1.2329  0.8348 -0.6299
 3691SOL    HW223547   0.410   7.009   4.588 -0.3385  2.2716 -1.3404
 3692SOL     OW23548   5.167   2.201   3.161 -0.7024 -0.2898 -0.0455
 3692SOL    HW123549   5.266   2.190   3.171 -0.7171 -0.3758  0.0125
 3692SOL    HW223550   5.138   2.160   3.074 -0.4208  1.4263 -0.9742
 3693SOL     OW23551   0.528   1.700   3.778  0.2058  0.3995  0.6086
 3693SOL    HW123552   0.489   1.681   3.688 -0.4741  0.8838  0.7900
 3693SOL    HW223553   0.604   1.765   3.769 -0.3343  1.0214  0.4496
 3694SOL     OW23554   4.862   1.162   0.484  0.7684  0.3161  0.1966
 3694SOL    HW123555   4.819   1.253   0.484 -0.2893 -0.1776 -0.5340
 3694SOL    HW223556   4.806   1.098   0.431  0.6087 -1.1992  2.1513
 3695SOL     OW23557   3.917   8.151   4.756  0.0519 -0.1283 -0.1164
 3695SOL    HW123558   3.821   8.158   4.729  0.3170  0.9612 -0.8199
 3695SOL    HW223559   3.925   8.089   4.834 -1.3658  0.5834  0.6338
 3696SOL     OW23560   3.889   4.330   4.169  0.0079  0.4335 -0.0434
 3696SOL    HW123561   3.832   4.289   4.098 -0.2974  2.6407 -1.1343
 3696SOL    HW223562   3.982   4.341   4.135 -0.1270  1.4568 -0.1100
 3697SOL     OW23563   1.298   7.338   2.445 -0.1662 -0.0231  0.1348
 3697SOL    HW123564   1.393   7.353   2.421  0.3007 -1.3013  1.1175
 3697SOL    HW223565   1.284   7.359   2.542 -0.2235 -2.5988  0.7159
 3698SOL     OW23566   4.180   7.514   0.373 -0.0162  0.3408  0.2463
 3698SOL    HW123567   4.113   7.473   0.311  0.7204 -1.7280  0.7864
 3698SOL    HW223568   4.267   7.526   0.325 -0.4695  2.1277 -0.1669
 3699SOL     OW23569   3.712   3.950   6.296 -0.4270 -0.1099  0.5090
 3699SOL    HW123570   3.677   3.878   6.356 -1.3980  0.1914  0.3013
 3699SOL    HW223571   3.789   3.995   6.341 -0.0588 -1.0167  0.8050
 3700SOL     OW23572   7.908   3.038   8.072 -0.3742 -0.3738 -0.6604
 3700SOL    HW123573   7.830   3.097   8.088  0.4706  0.2749  1.1953
 3700SOL    HW223574   7.929   2.986   8.156  0.2576 -1.6581 -1.5843
 3701SOL     OW23575   2.936   7.132   1.153 -0.7155  0.4740  0.8744
 3701SOL    HW123576   3.015   7.128   1.091 -0.1638  1.8320  1.4809
 3701SOL    HW223577   2.857   7.090   1.108  0.2984 -0.7339  0.1904
 3702SOL     OW23578   3.383   1.035   1.535  0.4302 -0.0746  0.1232
 3702SOL    HW123579   3.355   1.096   1.609 -0.1269 -0.8758  0.5822
 3702SOL    HW223580   3.436   0.959   1.573 -0.8152 -1.0967 -0.1410
 3703SOL     OW23581   2.653   0.782   7.643 -0.4835  0.3275  0.1154
 3703SOL    HW123582   2.672   0.690   7.609  1.8838  1.2577 -1.2150
 3703SOL    HW223583   2.663   0.783   7.743 -3.3637 -1.4709  0.4740
 3704SOL     OW23584   6.494   4.100   1.861  0.5285  0.6598 -0.0796
 3704SOL    HW123585   6.476   4.012   1.817 -2.5194  0.3662  1.5948
 3704SOL    HW223586   6.579   4.093   1.913  0.3694 -1.3020 -0.0247
 3705SOL     OW23587   7.924   5.916   4.150  0.0075  0.7937 -0.3206
 3705SOL    HW123588   8.017   5.886   4.131 -0.3105 -1.8457  2.0252
 3705SOL    HW223589   7.866   5.899   4.069  0.6439 -1.6412 -0.3073
 3706SOL     OW23590   3.734   3.320   3.035  0.9857 -0.2813 -0.2380
 3706SOL    HW123591   3.799   3.353   2.966  1.7581  1.8925  1.4522
 3706SOL    HW223592   3.783   3.295   3.118 -0.1340 -0.7618  0.2907
 3707SOL     OW23593   4.787   5.700   5.339  0.3387  0.7047 -0.1543
 3707SOL    HW123594   4.801   5.728   5.434  1.1015  1.1661 -0.4044
 3707SOL    HW223595   4.839   5.616   5.321  0.6871  0.9628 -0.3422
 3708SOL     OW23596   0.324   6.767   6.697 -0.3724 -0.0042  0.8063
 3708SOL    HW123597   0.290   6.856   6.668  0.1519  0.8114  2.5753
 3708SOL    HW223598   0.399   6.779   6.762 -0.2267 -1.7379  1.0077
 3709SOL     OW23599   8.255   8.009   3.608  0.6994  0.0445 -0.2369
 3709SOL    HW123600   8.185   7.937   3.614  0.2412  0.3835 -1.4400
 3709SOL    HW223601   8.332   7.985   3.667 -0.5310 -0.2171  1.3074
 3710SOL     OW23602   1.626   1.866   8.181 -0.5940 -0.0670  0.3469
 3710SOL    HW123603   1.627   1.941   8.247 -0.9792  0.4739 -0.2531
 3710SOL    HW223604   1.586   1.898   8.095 -0.7050 -0.9430  0.0660
 3711SOL     OW23605   1.340   6.463   5.902 -0.1633 -0.0176  0.2274
 3711SOL    HW123606   1.279   6.395   5.862 -1.2941  0.1734  1.6110
 3711SOL    HW223607   1.422   6.417   5.937 -1.3698 -0.8268  2.0533
 3712SOL     OW23608   6.513   0.832   8.449  0.1868 -0.4628 -0.3263
 3712SOL    HW123609   6.603   0.789   8.453  0.8645  0.9206 -0.3925
 3712SOL    HW223610   6.474   0.819   8.358  0.9718  0.2109 -0.7654
 3713SOL     OW23611   7.995   5.037   8.465 -0.0469  0.4894  0.0881
 3713SOL    HW123612   7.945   5.083   8.537 -0.2148  1.5496 -0.6917
 3713SOL    HW223613   7.935   5.022   8.386  0.1679 -0.5307  0.1105
 3714SOL     OW23614   1.314   0.049   6.874  0.0309 -0.1945 -0.3812
 3714SOL    HW123615   1.359   0.039   6.785  1.5204 -2.1334  0.5718
 3714SOL    HW223616   1.252  -0.028   6.889  0.4180 -0.3231  0.6093
 3715SOL     OW23617   1.683   5.533   2.040  0.1014 -0.3309  0.2392
 3715SOL    HW123618   1.690   5.496   2.132 -0.3372  0.0409  0.4269
 3715SOL    HW223619   1.727   5.623   2.036  0.1081 -0.3395  0.0933
 3716SOL     OW23620   3.958   1.973   8.072  0.0671  0.2576  0.3197
 3716SOL    HW123621   3.985   1.912   7.997  2.2984  1.0685  0.4208
 3716SOL    HW223622   3.979   1.930   8.160  1.1659  0.9126  0.3978
 3717SOL     OW23623   7.249   5.291   6.311 -0.2032  0.5336  0.1235
 3717SOL    HW123624   7.168   5.245   6.345 -0.8005  1.6470  0.2424
 3717SOL    HW223625   7.229   5.388   6.296  1.2560  0.9473  0.6998
 3718SOL     OW23626   7.396   3.053   8.115  0.6053 -0.1200 -0.2657
 3718SOL    HW123627   7.353   3.041   8.204  2.1470  1.0397  0.6722
 3718SOL    HW223628   7.395   3.150   8.090  0.2777 -0.4197 -1.4691
 3719SOL     OW23629   3.871   5.393   3.983  0.3099 -0.6758  0.1897
 3719SOL    HW123630   3.807   5.324   3.947  0.8563 -1.4688  0.7396
 3719SOL    HW223631   3.845   5.483   3.947  0.3028 -1.3273 -1.4844
 3720SOL     OW23632   4.279   1.787   1.386 -0.7464 -0.3295 -0.3196
 3720SOL    HW123633   4.231   1.875   1.389 -1.0260 -0.5337  1.4494
 3720SOL    HW223634   4.231   1.726   1.324 -0.2984  0.8926 -1.9223
 3721SOL     OW23635   0.224   8.821   7.366  0.3205 -0.4149 -0.3814
 3721SOL    HW123636   0.314   8.800   7.328 -0.1938  0.7148 -2.2976
 3721SOL    HW223637   0.154   8.765   7.321 -0.1775  0.1929 -0.3752
 3722SOL     OW23638   7.653   4.213   7.776 -0.2024 -0.2688 -0.2165
 3722SOL    HW123639   7.710   4.142   7.818  0.7289  1.2194  1.0865
 3722SOL    HW223640   7.557   4.188   7.784  0.1229 -1.4644  0.0703
 3723SOL     OW23641   6.264   5.670   6.336  0.5370 -0.2133  0.4739
 3723SOL    HW123642   6.179   5.693   6.384  1.3750  1.9639  0.9785
 3723SOL    HW223643   6.243   5.611   6.258 -1.3625 -0.2295  0.9677
 3724SOL     OW23644   2.327   4.681   5.395 -0.3127  0.3771 -0.0511
 3724SOL    HW123645   2.271   4.683   5.478  2.4716  1.6637  1.8464
 3724SOL    HW223646   2.397   4.611   5.404 -0.6422 -0.2158 -1.8134
 3725SOL     OW23647   4.314   2.373   7.193 -1.0036  0.1149  0.6500
 3725SOL    HW123648   4.284   2.320   7.114  0.3818 -0.5057  0.5268
 3725SOL    HW223649   4.303   2.318   7.276 -1.7188  0.4745  0.7897
 3726SOL     OW23650   7.528   7.335   6.917  0.2474 -0.3349  0.4073
 3726SOL    HW123651   7.624   7.307   6.911  0.7364  1.5652 -1.0015
 3726SOL    HW223652   7.514   7.417   6.862 -2.1069 -0.3522  0.9493
 3727SOL     OW23653   1.519   1.094   4.630  0.1530  0.7690  0.3668
 3727SOL    HW123654   1.428   1.065   4.660  0.7307 -2.7563 -1.0398
 3727SOL    HW223655   1.518   1.108   4.531  1.1064  0.8760  0.3677
 3728SOL     OW23656   3.652   8.590   0.763 -0.7642  0.7163 -0.4920
 3728SOL    HW123657   3.709   8.511   0.737 -2.1716  0.3921 -2.7617
 3728SOL    HW223658   3.679   8.669   0.708 -1.7156  0.8566 -0.7696
 3729SOL     OW23659   1.555   6.558   2.041 -0.0663  0.6151 -0.3271
 3729SOL    HW123660   1.643   6.572   2.086 -0.0096  2.7804 -1.0799
 3729SOL    HW223661   1.484   6.608   2.091 -0.8644 -0.9853  0.1782
 3730SOL     OW23662   3.347   8.023   3.495  0.3561 -0.5997  0.0909
 3730SOL    HW123663   3.345   7.999   3.592 -1.6684 -0.7587  0.0164
 3730SOL    HW223664   3.436   8.063   3.473 -0.3784  2.7104  2.7866
 3731SOL     OW23665   6.975   7.213   2.573 -0.7221  0.2185  0.1031
 3731SOL    HW123666   6.919   7.235   2.493 -0.2935  2.9568  0.4832
 3731SOL    HW223667   7.024   7.296   2.602  0.0159 -1.0274  2.4995
 3732SOL     OW23668   8.121   0.533   8.634  0.0749  0.4174 -0.8629
 3732SOL    HW123669   8.216   0.559   8.615  0.0585  1.1252 -0.0264
 3732SOL    HW223670   8.079   0.602   8.694 -1.2280  0.5570 -1.9123
 3733SOL     OW23671   1.495   5.559   5.504 -0.0151  0.2712 -0.0120
 3733SOL    HW123672   1.460   5.641   5.460  0.8930  1.6050  1.7014
 3733SOL    HW223673   1.574   5.524   5.453 -0.4277  0.4287 -0.7613
 3734SOL     OW23674   0.772   1.215   0.851 -0.0292 -0.0087 -0.0210
 3734SOL    HW123675   0.804   1.195   0.944  0.2390  2.1770  0.3636
 3734SOL    HW223676   0.847   1.202   0.786  0.4591  0.8879  0.3628
 3735SOL     OW23677   3.889   6.230   5.643 -0.5126 -0.4229 -0.3389
 3735SOL    HW123678   3.800   6.185   5.655 -0.0380 -1.6795 -1.3737
 3735SOL    HW223679   3.927   6.203   5.554  0.6183  0.6025 -0.1664
 3736SOL     OW23680   4.784   6.505   6.616 -0.1125  0.2671  0.2800
 3736SOL    HW123681   4.697   6.467   6.584  0.7828  0.1623 -2.0794
 3736SOL    HW223682   4.778   6.604   6.620 -0.8657  0.1820  1.7592
 3737SOL     OW23683   6.109   4.611   0.506 -0.1559  0.1852 -0.3876
 3737SOL    HW123684   6.026   4.666   0.500  0.4706  1.2054  0.1064
 3737SOL    HW223685   6.153   4.608   0.416 -0.9227 -0.6598 -0.7289
 3738SOL     OW23686   3.946   5.124   4.902  0.0157 -0.2725  0.4378
 3738SOL    HW123687   3.890   5.041   4.905  1.1723 -1.0766 -0.1137
 3738SOL    HW223688   4.005   5.128   4.983  1.3373 -0.9760 -0.4685
 3739SOL     OW23689   3.797   0.852   1.767 -0.0309 -0.0033 -0.1929
 3739SOL    HW123690   3.772   0.934   1.715  0.0787 -0.0925 -0.3854
 3739SOL    HW223691   3.850   0.791   1.710  0.0430 -0.1282  0.0078
 3740SOL     OW23692   6.389   3.526   0.129  0.0180  0.5165 -0.0545
 3740SOL    HW123693   6.431   3.498   0.043  2.1740  1.1233  0.7512
 3740SOL    HW223694   6.302   3.479   0.142  0.8518 -1.4260 -1.3918
 3741SOL     OW23695   8.117   4.316   8.061  0.1909 -0.1536  0.6031
 3741SOL    HW123696   8.185   4.289   7.993 -0.0553  1.1494 -0.1817
 3741SOL    HW223697   8.124   4.414   8.079  0.5821 -0.5767  2.8576
 3742SOL     OW23698   2.984   6.035   4.655 -0.2708 -0.5236  0.3196
 3742SOL    HW123699   2.997   6.108   4.588 -1.6597 -0.4933  0.0818
 3742SOL    HW223700   2.998   6.072   4.747 -1.6761  0.2220  0.2440
 3743SOL     OW23701   5.843   3.099   5.460 -0.0555 -0.4895 -0.6083
 3743SOL    HW123702   5.760   3.154   5.448 -0.4590 -1.1533 -0.8839
 3743SOL    HW223703   5.871   3.102   5.556 -1.3020 -1.5448 -0.1999
 3744SOL     OW23704   0.441   4.002   3.134  0.1844  0.1576 -0.1914
 3744SOL    HW123705   0.363   3.953   3.097 -0.3459 -0.6661  1.9503
 3744SOL    HW223706   0.412   4.059   3.211  1.6972 -0.3397  0.7833
 3745SOL     OW23707   0.892   5.734   6.430  0.4522 -0.1763 -0.0454
 3745SOL    HW123708   0.992   5.745   6.437  0.4273  0.2855 -0.3828
 3745SOL    HW223709   0.869   5.637   6.441  0.8208 -0.1251  1.3689
 3746SOL     OW23710   5.473   4.209   6.092  0.2216  0.4296  0.3755
 3746SOL    HW123711   5.488   4.203   5.993 -0.8929  2.2983  0.0697
 3746SOL    HW223712   5.527   4.139   6.138 -2.2575 -3.0721 -1.8217
 3747SOL     OW23713   5.215   2.009   8.777 -0.3253 -0.2259  0.4495
 3747SOL    HW123714   5.159   2.062   8.712  1.0396 -0.0582 -0.6106
 3747SOL    HW223715   5.210   2.051   8.867 -1.8088 -0.1384  0.3352
 3748SOL     OW23716   4.079   3.846   6.061  0.0306  0.5399  0.2882
 3748SOL    HW123717   4.158   3.891   6.101  0.4494 -1.2441  1.5345
 3748SOL    HW223718   4.013   3.825   6.133  0.1489 -1.4229 -0.1361
 3749SOL     OW23719   7.754   1.797   0.942 -0.1442 -0.1459  0.4460
 3749SOL    HW123720   7.674   1.856   0.931  0.4536  0.1232 -3.2624
 3749SOL    HW223721   7.731   1.705   0.911  0.3108 -0.6558  1.6227
 3750SOL     OW23722   1.691   8.205   2.768 -0.1873 -0.4499 -0.1357
 3750SOL    HW123723   1.633   8.285   2.781 -0.9932 -0.6411 -2.2328
 3750SOL    HW223724   1.774   8.232   2.718 -0.2897 -0.8371 -0.5204
 3751SOL     OW23725   5.482   6.800   1.937  0.0279 -0.0807  0.3463
 3751SOL    HW123726   5.488   6.700   1.938 -0.1288 -0.0962  2.5831
 3751SOL    HW223727   5.515   6.837   2.024  1.9000  1.9535 -1.1718
 3752SOL     OW23728   1.814   0.120   0.914  0.1523 -0.4589  0.3823
 3752SOL    HW123729   1.804   0.130   0.815 -1.4627 -0.9066  0.4883
 3752SOL    HW223730   1.877   0.189   0.948 -0.8369  1.0138 -0.6911
 3753SOL     OW23731   4.577   7.201   7.634 -0.1748  0.3424 -0.2667
 3753SOL    HW123732   4.625   7.285   7.658 -1.0488  0.7008  0.2273
 3753SOL    HW223733   4.487   7.223   7.596 -0.1534 -0.3454 -0.7351
 3754SOL     OW23734   6.055   7.448   0.883 -0.0527  0.5305  0.3992
 3754SOL    HW123735   5.982   7.469   0.818 -0.0774  2.6450  1.0534
 3754SOL    HW223736   6.139   7.428   0.832 -0.8654 -1.0349 -0.3359
 3755SOL     OW23737   8.239   8.086   2.272  0.6144 -0.0657 -0.0765
 3755SOL    HW123738   8.195   8.013   2.324 -3.1614  1.1641 -1.3637
 3755SOL    HW223739   8.234   8.065   2.174 -0.7222  1.9987 -0.4725
 3756SOL     OW23740   6.289   5.221   3.414  0.2113 -1.0619 -0.2132
 3756SOL    HW123741   6.324   5.205   3.322  1.0587  0.0565 -0.0923
 3756SOL    HW223742   6.236   5.306   3.416  1.6406 -0.1829  0.7133
 3757SOL     OW23743   8.377   6.247   4.816 -0.2728  0.2490  0.4338
 3757SOL    HW123744   8.305   6.187   4.851 -1.3254  1.8461  1.0361
 3757SOL    HW223745   8.363   6.340   4.850  1.0236  0.9621 -0.9181
 3758SOL     OW23746   5.451   6.298   4.647 -0.6851  0.1870 -0.1521
 3758SOL    HW123747   5.469   6.396   4.635  3.7642 -0.2842  1.7481
 3758SOL    HW223748   5.429   6.281   4.743  0.6421 -0.9254 -0.0337
 3759SOL     OW23749   2.984   3.957   5.711  0.8031  0.5325  0.3670
 3759SOL    HW123750   2.940   3.910   5.635  1.2933  1.8712 -0.7704
 3759SOL    HW223751   3.084   3.949   5.702  0.8526  0.1302  1.2330
 3760SOL     OW23752   0.300   1.760   2.926 -0.1438  0.0822 -0.1562
 3760SOL    HW123753   0.309   1.707   3.010  1.9399 -0.1298 -0.4884
 3760SOL    HW223754   0.384   1.753   2.872 -1.6047 -0.1607 -2.4911
 3761SOL     OW23755   0.770   8.789   7.457 -0.0962 -0.0956 -0.6040
 3761SOL    HW123756   0.786   8.835   7.370 -2.1242  0.0017 -0.9441
 3761SOL    HW223757   0.752   8.692   7.441 -0.5695 -0.0589 -0.3028
 3762SOL     OW23758   0.645   4.869   2.070 -0.4018 -0.4858 -0.2527
 3762SOL    HW123759   0.558   4.844   2.028  0.9148 -0.4144 -3.1197
 3762SOL    HW223760   0.711   4.796   2.057  0.3245 -0.0470  0.8753
 3763SOL     OW23761   4.451   1.025   0.727 -0.4846  0.0772 -0.2787
 3763SOL    HW123762   4.463   1.050   0.631 -0.1706  0.5841 -0.1092
 3763SOL    HW223763   4.495   0.937   0.744 -0.6392 -0.0659 -0.6251
 3764SOL     OW23764   6.847   8.269   4.859 -0.1820  0.5952 -0.0814
 3764SOL    HW123765   6.884   8.221   4.780  0.7920  2.1420 -0.5821
 3764SOL    HW223766   6.917   8.276   4.930 -0.8769 -0.2902  0.7041
 3765SOL     OW23767   8.898   3.124   0.468 -0.4299 -0.3996  0.1592
 3765SOL    HW123768   8.959   3.185   0.517  0.1279 -0.9911  0.2038
 3765SOL    HW223769   8.926   3.029   0.483  0.4426 -0.5418 -2.2202
 3766SOL     OW23770   0.418   4.054   1.384 -0.3071  0.2835  0.9910
 3766SOL    HW123771   0.462   4.123   1.327 -2.2821 -0.0412 -1.0261
 3766SOL    HW223772   0.327   4.033   1.347 -0.6281 -1.8025  2.8136
 3767SOL     OW23773   8.400   1.036   7.300  0.0044  0.3974  0.2281
 3767SOL    HW123774   8.409   1.062   7.396  0.9245 -0.6298  0.4131
 3767SOL    HW223775   8.489   1.013   7.262 -0.7120 -1.9640 -0.0939
 3768SOL     OW23776   7.202   2.205   0.788  0.3284  0.0893  0.0002
 3768SOL    HW123777   7.127   2.144   0.760 -0.2814  0.3895  0.9736
 3768SOL    HW223778   7.173   2.260   0.866  1.6505  0.0510  0.5299
 3769SOL     OW23779   6.038   5.815   1.834  0.1114 -0.3411 -0.2788
 3769SOL    HW123780   6.076   5.761   1.909  0.1508 -2.6158 -1.8792
 3769SOL    HW223781   6.109   5.874   1.796  0.5957 -0.5911  0.2284
 3770SOL     OW23782   8.949   8.706   8.223  0.2099 -0.1914  0.0235
 3770SOL    HW123783   8.875   8.660   8.271  0.6948  0.5599  1.5392
 3770SOL    HW223784   8.952   8.802   8.252  1.2338 -0.0172 -0.6483
 3771SOL     OW23785   7.368   5.822   4.158  0.1757  0.6877 -0.0109
 3771SOL    HW123786   7.363   5.766   4.240  2.9486  0.4982  0.0763
 3771SOL    HW223787   7.345   5.917   4.181  1.7523  0.8058  1.1935
 3772SOL     OW23788   8.590   1.228   5.941  0.4694 -0.1624  0.0189
 3772SOL    HW123789   8.558   1.171   5.865  0.6973 -2.3300  1.5137
 3772SOL    HW223790   8.511   1.261   5.993  0.4341 -1.7567  1.0144
 3773SOL     OW23791   7.443   5.260   7.024 -0.5482  0.0343 -0.2165
 3773SOL    HW123792   7.502   5.202   7.080  1.7185  1.3639 -1.1489
 3773SOL    HW223793   7.387   5.318   7.084 -0.0250 -0.3932  0.6983
 3774SOL     OW23794   6.999   8.871   6.714 -0.1622 -0.0322  0.3864
 3774SOL    HW123795   6.945   8.937   6.663 -2.6122 -1.2171  1.3323
 3774SOL    HW223796   6.940   8.795   6.743  1.6864 -0.6248  2.7901
 3775SOL     OW23797   6.610   6.807   4.008  0.5641 -0.9255 -0.1477
 3775SOL    HW123798   6.548   6.858   3.949  1.5877 -0.3144 -0.7179
 3775SOL    HW223799   6.611   6.711   3.980 -0.8264 -1.1254  0.4696
 3776SOL     OW23800   7.428   0.457   8.309  0.2147 -0.3490  0.4998
 3776SOL    HW123801   7.451   0.370   8.354  1.3668 -0.3083  0.0107
 3776SOL    HW223802   7.472   0.460   8.219  1.4471  1.3806  1.1329
 3777SOL     OW23803   7.376   0.738   0.684 -0.0174 -0.8531 -0.2539
 3777SOL    HW123804   7.388   0.753   0.586  1.9633 -1.4089 -0.1151
 3777SOL    HW223805   7.441   0.668   0.715  2.2188  2.1804  2.2005
 3778SOL     OW23806   5.079   2.331   8.094  0.4121  0.0054 -0.2512
 3778SOL    HW123807   5.112   2.407   8.039  0.2229  0.2534 -0.0239
 3778SOL    HW223808   5.072   2.359   8.190 -0.0626 -0.1675 -0.2301
 3779SOL     OW23809   1.052   8.744   3.138  0.2315 -0.1549 -0.2618
 3779SOL    HW123810   0.976   8.736   3.074 -0.8559 -0.7614  1.0544
 3779SOL    HW223811   1.093   8.654   3.153  0.2329 -0.0833  0.1824
 3780SOL     OW23812   5.761   3.452   0.889 -0.2331 -0.5533 -0.6966
 3780SOL    HW123813   5.741   3.455   0.987  0.5324  0.5177 -0.5739
 3780SOL    HW223814   5.760   3.545   0.852  0.8133 -0.8356 -1.4377
 3781SOL     OW23815   0.930   8.836   8.310  0.1973  0.3764  0.1705
 3781SOL    HW123816   0.895   8.920   8.350  0.6240 -0.1389  1.6663
 3781SOL    HW223817   0.865   8.762   8.325 -0.4249  0.5469 -1.6209
 3782SOL     OW23818   0.232   2.471   2.219 -0.2841  0.5673 -0.4576
 3782SOL    HW123819   0.137   2.481   2.190 -0.0003  2.2857 -0.8459
 3782SOL    HW223820   0.234   2.452   2.317 -1.0347  0.2612 -0.4936
 3783SOL     OW23821   3.649   2.884   1.899  0.0664  0.0584  0.5538
 3783SOL    HW123822   3.645   2.804   1.838 -0.2464 -0.1411  0.8301
 3783SOL    HW223823   3.565   2.937   1.889  0.0357  0.0515  0.7733
 3784SOL     OW23824   5.249   3.532   0.474 -0.4124  0.8958 -0.5156
 3784SOL    HW123825   5.316   3.470   0.433 -0.0735  0.4080  0.7759
 3784SOL    HW223826   5.244   3.615   0.418  1.8135  1.2579 -0.2425
 3785SOL     OW23827   1.339   4.748   2.200 -0.2160  0.2227  0.0419
 3785SOL    HW123828   1.350   4.769   2.103  0.3684 -1.3791 -0.2680
 3785SOL    HW223829   1.414   4.687   2.229  0.4901  1.9235  1.8849
 3786SOL     OW23830   4.641   7.986   8.780  0.1650  0.3090  0.7955
 3786SOL    HW123831   4.545   7.958   8.788  0.2295 -0.0940  0.1963
 3786SOL    HW223832   4.700   7.913   8.815  0.3507 -0.4820 -1.1220
 3787SOL     OW23833   3.148   0.831   5.320  0.1481  0.3931  0.2940
 3787SOL    HW123834   3.216   0.898   5.350  0.1037  1.4372 -1.8130
 3787SOL    HW223835   3.059   0.853   5.359  0.5338  0.3949  1.1849
 3788SOL     OW23836   4.150   7.983   5.287  0.0543  0.1291  0.0218
 3788SOL    HW123837   4.210   7.938   5.221 -0.8246 -0.9397 -0.0633
 3788SOL    HW223838   4.147   8.081   5.269  1.2485  0.0875 -0.3853
 3789SOL     OW23839   5.658   1.010   0.182  0.3118  0.2955  0.6346
 3789SOL    HW123840   5.595   0.992   0.257  0.2506  0.0957  0.5342
 3789SOL    HW223841   5.747   1.036   0.219  0.0405  1.0546  0.7807
 3790SOL     OW23842   2.029   2.490   2.718  0.1602  0.2590 -0.9328
 3790SOL    HW123843   2.127   2.486   2.700  0.3238  1.1470 -0.2464
 3790SOL    HW223844   1.981   2.433   2.651  1.1961 -0.7877 -0.7919
 3791SOL     OW23845   0.771   0.950   0.622  0.0495  0.5859 -0.4935
 3791SOL    HW123846   0.731   0.980   0.709 -0.2104 -0.8318 -0.1160
 3791SOL    HW223847   0.726   0.997   0.546 -1.5929 -0.1780 -0.0108
 3792SOL     OW23848   6.130   4.486   7.050 -0.5617  1.2409 -0.5119
 3792SOL    HW123849   6.051   4.430   7.024 -0.5326  0.8983  0.1380
 3792SOL    HW223850   6.181   4.440   7.122 -1.2047  2.6416  0.8588
 3793SOL     OW23851   4.484   1.677   3.141 -0.3159  0.1016 -0.0997
 3793SOL    HW123852   4.494   1.661   3.239 -0.5564  1.1163  0.1014
 3793SOL    HW223853   4.484   1.590   3.092 -0.1983 -0.4076  0.8026
 3794SOL     OW23854   7.210   8.405   6.525 -0.7094 -0.4128 -0.2925
 3794SOL    HW123855   7.153   8.406   6.443  0.1089 -1.1665 -0.8793
 3794SOL    HW223856   7.175   8.471   6.591 -0.9877  0.6843 -1.5170
 3795SOL     OW23857   7.979   4.043   4.251 -0.3073  0.3702 -0.0017
 3795SOL    HW123858   7.986   4.026   4.153 -0.2026  0.8722 -0.0854
 3795SOL    HW223859   8.066   4.018   4.295 -0.5221 -0.3113  0.0361
 3796SOL     OW23860   2.879   0.120   1.860  0.2061 -0.2082 -0.3347
 3796SOL    HW123861   2.972   0.143   1.887  0.7730 -2.5733 -0.2369
 3796SOL    HW223862   2.819   0.199   1.877  2.0281  1.0582  0.3027
 3797SOL     OW23863   5.594   3.484   8.841  0.5941  0.1365  0.4742
 3797SOL    HW123864   5.687   3.447   8.838  0.5460  0.0256  0.3566
 3797SOL    HW223865   5.541   3.448   8.764  0.2903 -0.2510  0.8650
 3798SOL     OW23866   7.471   2.782   7.983 -0.2168  0.0031  0.3034
 3798SOL    HW123867   7.403   2.794   7.910 -0.0187 -3.1923 -0.4941
 3798SOL    HW223868   7.423   2.770   8.070 -0.6546 -0.5767 -0.0044
 3799SOL     OW23869   7.865   3.605   2.883 -0.1737 -0.4592 -0.0562
 3799SOL    HW123870   7.913   3.523   2.914  0.2250 -0.5144 -0.8308
 3799SOL    HW223871   7.875   3.677   2.952 -0.3933 -0.9978  0.5531
 3800SOL     OW23872   1.410   7.838   7.329  0.2026  0.5602  0.1176
 3800SOL    HW123873   1.338   7.794   7.383  0.7381 -0.2837  0.1376
 3800SOL    HW223874   1.486   7.863   7.389 -0.7145  2.9001  0.3903
 3801SOL     OW23875   8.489   8.033   5.888  0.2856 -0.3802  0.7223
 3801SOL    HW123876   8.426   7.990   5.823  1.0151  0.1707 -0.3744
 3801SOL    HW223877   8.557   7.966   5.918  1.2711 -0.1184 -0.7970
 3802SOL     OW23878   3.714   8.851   1.275  0.3648 -0.6883 -0.0528
 3802SOL    HW123879   3.721   8.918   1.349  0.1817 -1.1779  0.4050
 3802SOL    HW223880   3.618   8.838   1.250  0.5031  0.3582 -1.1863
 3803SOL     OW23881   4.988   3.748   5.256 -0.0276 -0.1029  0.2138
 3803SOL    HW123882   4.898   3.776   5.222 -0.3216  0.8138  1.7057
 3803SOL    HW223883   5.058   3.775   5.190 -0.7989 -0.4337 -0.7559
 3804SOL     OW23884   8.814   8.256   6.701 -0.8596 -0.4940  0.0655
 3804SOL    HW123885   8.826   8.254   6.602 -2.4227 -0.4496 -0.1378
 3804SOL    HW223886   8.741   8.193   6.727  1.0451 -2.2331  1.4335
 3805SOL     OW23887   6.218   6.512   4.408 -0.2297 -0.2318  0.2614
 3805SOL    HW123888   6.261   6.553   4.489 -3.0687 -0.7456  2.1095
 3805SOL    HW223889   6.262   6.426   4.386  1.8167  0.8466  0.0736
 3806SOL     OW23890   0.729   3.494   0.607 -0.0115 -0.4482 -0.4767
 3806SOL    HW123891   0.757   3.568   0.546 -0.5668  0.4555  0.3431
 3806SOL    HW223892   0.757   3.516   0.701  0.1941 -1.4732 -0.2954
 3807SOL     OW23893   5.608   1.144   7.648  0.1740 -0.0154 -0.2369
 3807SOL    HW123894   5.644   1.205   7.718 -0.0848  0.6214 -0.6554
 3807SOL    HW223895   5.518   1.176   7.619  0.1408 -0.4603 -0.6272
 3808SOL     OW23896   2.140   8.843   4.777  0.2770 -0.0971  0.3930
 3808SOL    HW123897   2.070   8.776   4.752 -0.5985  1.3102 -0.9673
 3808SOL    HW223898   2.229   8.812   4.742 -0.2481 -0.2080 -0.8656
 3809SOL     OW23899   5.260   4.263   1.567 -0.3269  0.7591  0.1611
 3809SOL    HW123900   5.240   4.361   1.559 -1.8291  0.6077  1.7631
 3809SOL    HW223901   5.289   4.242   1.661 -1.6476 -0.6051  0.2831
 3810SOL     OW23902   1.477   8.198   0.316 -0.2445 -0.4782 -0.3052
 3810SOL    HW123903   1.519   8.162   0.232 -0.0711 -0.6328 -0.1554
 3810SOL    HW223904   1.404   8.262   0.293 -1.1359 -1.5843 -0.5897
 3811SOL     OW23905   7.768   0.206   5.859 -0.1331  0.0473  0.4109
 3811SOL    HW123906   7.698   0.144   5.894  0.2434  0.1271  1.3362
 3811SOL    HW223907   7.858   0.161   5.864  0.0577  0.4353  0.5092
 3812SOL     OW23908   3.586   1.601   3.523 -0.4668 -0.2389  0.3649
 3812SOL    HW123909   3.619   1.695   3.538  0.8712 -0.4021 -1.3207
 3812SOL    HW223910   3.663   1.538   3.529 -1.1399 -1.0847  0.1913
 3813SOL     OW23911   2.338   2.197   7.579  0.0608  0.0280  0.0247
 3813SOL    HW123912   2.343   2.284   7.530  1.2958  0.9800  1.7766
 3813SOL    HW223913   2.373   2.209   7.672  0.6152 -2.4445  0.1803
 3814SOL     OW23914   3.565   0.981   3.414 -0.1623  0.3306  0.3642
 3814SOL    HW123915   3.533   0.989   3.508 -1.0061  1.0088  0.0323
 3814SOL    HW223916   3.539   1.063   3.363 -1.1007 -0.7164 -0.8688
 3815SOL     OW23917   8.301   1.618   5.641 -0.8367 -0.0780 -0.5829
 3815SOL    HW123918   8.284   1.708   5.681 -0.0431  0.9361 -2.4585
 3815SOL    HW223919   8.332   1.555   5.713 -0.2246  1.4695  0.5353
 3816SOL     OW23920   7.833   5.928   6.145  0.2396  0.1254  0.3316
 3816SOL    HW123921   7.759   5.871   6.109  0.9854 -0.5307 -0.1481
 3816SOL    HW223922   7.797   6.020   6.165 -1.0927 -0.6612  1.6727
 3817SOL     OW23923   3.495   1.308   2.730 -0.4286 -0.0662  0.1831
 3817SOL    HW123924   3.573   1.313   2.668 -0.4221  1.0480  0.2782
 3817SOL    HW223925   3.525   1.270   2.818 -0.0114  0.3102  0.2024
 3818SOL     OW23926   5.787   3.189   8.753  0.0073  0.5649 -0.6765
 3818SOL    HW123927   5.858   3.154   8.692 -0.5110 -2.7315  0.5155
 3818SOL    HW223928   5.704   3.206   8.701 -0.3562 -2.0067 -1.0099
 3819SOL     OW23929   1.551   3.447   5.444  0.6683  0.2637  0.7014
 3819SOL    HW123930   1.605   3.530   5.457  0.1904  0.4516  1.5301
 3819SOL    HW223931   1.473   3.467   5.385 -1.0004  1.1106  3.0977
 3820SOL     OW23932   8.358   3.372   7.535 -0.3236  0.2252 -0.5779
 3820SOL    HW123933   8.335   3.407   7.444 -0.0956  0.9534 -0.3598
 3820SOL    HW223934   8.435   3.423   7.572  1.3230 -1.8293 -1.0723
 3821SOL     OW23935   2.406   5.676   6.169 -0.0979 -0.0021  0.0682
 3821SOL    HW123936   2.429   5.700   6.074  0.0410  0.6512  0.2644
 3821SOL    HW223937   2.309   5.654   6.175 -0.1468  0.1362 -0.1887
 3822SOL     OW23938   1.849   5.028   4.739  0.0984  0.0792  0.0808
 3822SOL    HW123939   1.881   5.114   4.701  1.1872  0.4118  1.7270
 3822SOL    HW223940   1.927   4.972   4.766 -0.6395 -0.0446  2.0343
 3823SOL     OW23941   5.633   7.840   6.102  0.3734 -0.0294 -0.3384
 3823SOL    HW123942   5.570   7.882   6.168 -0.1884 -0.7729 -0.3894
 3823SOL    HW223943   5.638   7.896   6.020 -1.5575 -0.8335 -1.0263
 3824SOL     OW23944   6.971   7.956   7.310  0.3029  0.3781  0.0010
 3824SOL    HW123945   6.948   8.041   7.357  1.4761  1.8672 -2.0006
 3824SOL    HW223946   7.050   7.914   7.354 -0.0715  0.4940  0.7956
 3825SOL     OW23947   3.308   7.023   1.160 -0.0494  0.3243  0.4302
 3825SOL    HW123948   3.400   6.985   1.145  0.7291  2.3960 -0.1556
 3825SOL    HW223949   3.283   7.081   1.082 -1.5564  0.3661  0.9407
 3826SOL     OW23950   0.749   0.124   7.930 -0.6943  0.1610  0.3795
 3826SOL    HW123951   0.760   0.026   7.914 -1.5625 -0.1050  1.3142
 3826SOL    HW223952   0.821   0.174   7.882 -1.3869 -0.7785 -1.7017
 3827SOL     OW23953   3.190   2.063   4.328 -0.5123  0.1836  0.3996
 3827SOL    HW123954   3.255   2.001   4.285  1.5216  0.7689  2.5350
 3827SOL    HW223955   3.200   2.154   4.289 -1.5462 -0.1779 -0.7484
 3828SOL     OW23956   6.590   0.136   1.703 -0.2139 -0.4488 -0.1524
 3828SOL    HW123957   6.527   0.205   1.740  0.8956  0.5224 -0.0620
 3828SOL    HW223958   6.559   0.108   1.612  1.1808  2.6782 -1.6699
 3829SOL     OW23959   6.116   5.780   5.583  0.2034  0.2169  0.3274
 3829SOL    HW123960   6.132   5.875   5.611  1.2435 -0.1190  0.8680
 3829SOL    HW223961   6.116   5.721   5.663  3.5904 -0.8041 -0.3796
 3830SOL     OW23962   6.104   3.869   7.207 -0.1617  0.2093  0.4138
 3830SOL    HW123963   6.199   3.837   7.206 -0.3025 -0.1764 -0.8736
 3830SOL    HW223964   6.084   3.909   7.297  1.7593  1.9401  0.1093
 3831SOL     OW23965   5.690   8.851   6.900 -0.1008 -0.8090  0.4849
 3831SOL    HW123966   5.639   8.773   6.936 -0.6559 -1.0647 -0.8118
 3831SOL    HW223967   5.742   8.822   6.820 -1.1619  0.3765 -0.6657
 3832SOL     OW23968   6.373   0.784   1.749 -0.0203 -0.3465 -0.1180
 3832SOL    HW123969   6.432   0.832   1.685 -0.2591 -0.7824 -0.6607
 3832SOL    HW223970   6.303   0.733   1.699 -0.1848 -0.7146  0.4814
 3833SOL     OW23971   0.736   8.539   4.633 -0.1210 -0.0463  0.0088
 3833SOL    HW123972   0.834   8.526   4.641 -0.3408 -1.2189  0.9996
 3833SOL    HW223973   0.690   8.503   4.714 -1.3652  0.5807 -0.3885
 3834SOL     OW23974   4.895   2.811   4.680  0.5810 -0.2773  0.0893
 3834SOL    HW123975   4.902   2.888   4.617 -1.0314 -0.2647 -0.0900
 3834SOL    HW223976   4.972   2.813   4.744 -0.2082  2.3275  1.0395
 3835SOL     OW23977   1.406   2.593   7.734  0.2999 -0.5068 -0.2007
 3835SOL    HW123978   1.472   2.569   7.662  0.8097  0.0833  0.0566
 3835SOL    HW223979   1.422   2.688   7.762 -1.1962 -0.1000 -0.7036
 3836SOL     OW23980   3.881   0.139   2.662  0.6802 -0.5193  0.5641
 3836SOL    HW123981   3.899   0.213   2.598  1.2212 -0.7055  0.4902
 3836SOL    HW223982   3.825   0.172   2.737 -0.7821 -0.5429 -0.5045
 3837SOL     OW23983   7.760   2.775   0.942 -0.3709  0.4426  0.8287
 3837SOL    HW123984   7.786   2.853   0.998 -1.2097  0.7288  0.8326
 3837SOL    HW223985   7.752   2.693   0.999  0.7817  0.2950  0.7769
 3838SOL     OW23986   7.290   3.233   8.730  0.3684  0.2101 -0.3688
 3838SOL    HW123987   7.388   3.211   8.738  0.6994  2.5809  3.6025
 3838SOL    HW223988   7.279   3.318   8.679  0.2461 -0.6173 -1.7588
 3839SOL     OW23989   5.735   6.524   8.914 -0.4385  0.1096 -0.0294
 3839SOL    HW123990   5.725   6.581   8.833 -1.4215  0.1075  0.0793
 3839SOL    HW223991   5.708   6.577   8.995  1.4955  0.4430  0.4327
 3840SOL     OW23992   1.063   8.198   2.391 -0.1532 -1.1515 -0.0074
 3840SOL    HW123993   1.075   8.281   2.445  2.0573 -0.8752 -0.8918
 3840SOL    HW223994   1.123   8.126   2.425  1.6874 -0.8073 -2.3879
 3841SOL     OW23995   1.194   6.329   6.242  0.2485  0.3052  0.2321
 3841SOL    HW123996   1.181   6.420   6.202  1.3662 -0.5870 -2.2741
 3841SOL    HW223997   1.107   6.279   6.242  0.5715 -0.3250 -2.8233
 3842SOL     OW23998   4.907   0.430   8.525  0.8568  0.2280 -0.0268
 3842SOL    HW123999   4.892   0.334   8.505 -2.0340  0.8279 -0.9846
 3842SOL    HW224000   4.831   0.466   8.579  1.6583  2.0964 -0.0735
 3843SOL     OW24001   2.230   4.642   3.185 -1.0571  0.5003  0.4845
 3843SOL    HW124002   2.198   4.597   3.102 -0.2615  0.5442  0.1539
 3843SOL    HW224003   2.152   4.662   3.244 -1.6565  0.7168 -0.3721
 3844SOL     OW24004   5.567   1.990   3.912 -0.2381  0.0162  0.5727
 3844SOL    HW124005   5.633   1.981   3.986  0.2138  1.3019  0.3375
 3844SOL    HW224006   5.616   1.987   3.824 -0.4883  1.0862  0.4011
 3845SOL     OW24007   6.476   4.372   1.827 -0.2397 -0.5454 -0.3510
 3845SOL    HW124008   6.453   4.414   1.915 -0.5216 -0.7204 -0.3404
 3845SOL    HW224009   6.491   4.274   1.839 -0.4050 -0.5932 -0.5164
 3846SOL     OW24010   7.306   8.071   5.993 -0.5724  0.7201  0.3650
 3846SOL    HW124011   7.319   8.162   5.955 -1.4381  1.1818  1.1663
 3846SOL    HW224012   7.219   8.066   6.041  0.0717 -0.1319  1.4902
 3847SOL     OW24013   8.241   5.170   2.049  0.0041 -0.2500  0.0912
 3847SOL    HW124014   8.211   5.198   1.958  0.0210  0.2330  0.2307
 3847SOL    HW224015   8.235   5.071   2.057 -1.4143 -0.1725  0.0720
 3848SOL     OW24016   8.232   5.681   0.607  0.3808  0.2293  0.3308
 3848SOL    HW124017   8.158   5.747   0.597  0.3772 -0.1866 -3.1081
 3848SOL    HW224018   8.194   5.589   0.614  0.4763  0.3346  2.5983
 3849SOL     OW24019   2.264   4.155   0.824  0.6840 -0.4712  0.7220
 3849SOL    HW124020   2.319   4.235   0.798 -0.2174  0.0483  0.4012
 3849SOL    HW224021   2.223   4.115   0.742 -0.9705  0.2857  1.1635
 3850SOL     OW24022   5.192   8.901   5.013  0.2333 -0.6440  0.3950
 3850SOL    HW124023   5.250   8.844   4.954 -1.3661 -0.6247 -1.2376
 3850SOL    HW224024   5.113   8.932   4.961  0.7681  2.6191  1.4319
 3851SOL     OW24025   4.195   1.116   3.807  0.6463  0.5153  0.5203
 3851SOL    HW124026   4.182   1.214   3.794  0.5598  0.8034  2.6207
 3851SOL    HW224027   4.271   1.101   3.870 -1.8618 -0.6223  3.3748
 3852SOL     OW24028   2.392   3.934   7.741  0.1914 -0.2290  0.2090
 3852SOL    HW124029   2.349   3.959   7.828 -0.7432  0.7011 -0.5012
 3852SOL    HW224030   2.325   3.944   7.667  0.5188 -2.4518 -0.4457
 3853SOL     OW24031   4.973   6.210   6.976 -0.0283  0.1025  0.2751
 3853SOL    HW124032   4.892   6.256   7.014 -0.4720  0.2521 -0.8363
 3853SOL    HW224033   4.959   6.192   6.879  1.9197  1.6149 -0.3276
 3854SOL     OW24034   1.403   4.827   4.883 -0.1580 -0.4884  0.9280
 3854SOL    HW124035   1.334   4.893   4.914  0.5082  0.6694 -0.0232
 3854SOL    HW224036   1.408   4.828   4.784  0.9536 -0.8669  0.9776
 3855SOL     OW24037   1.454   8.556   7.803 -0.1075  0.0583  0.1523
 3855SOL    HW124038   1.395   8.629   7.837  1.2921  1.3243 -0.0768
 3855SOL    HW224039   1.539   8.596   7.768  0.4612 -1.6420 -0.4478
 3856SOL     OW24040   8.155   4.300   5.991 -0.0068  0.3738 -0.4952
 3856SOL    HW124041   8.162   4.201   5.985  0.0465  0.3409  0.1196
 3856SOL    HW224042   8.089   4.325   6.062  1.3181  0.7929  0.6047
 3857SOL     OW24043   2.823   8.954   1.650  0.4910  0.1443  0.1085
 3857SOL    HW124044   2.912   8.915   1.630 -0.6060 -1.5065 -1.6755
 3857SOL    HW224045   2.831   9.018   1.727  3.5112  1.4266 -1.1989
 3858SOL     OW24046   7.330   4.302   3.727 -0.2665  0.2652  0.6124
 3858SOL    HW124047   7.413   4.317   3.781  0.7174 -1.3803 -0.4124
 3858SOL    HW224048   7.277   4.387   3.725  1.0015  1.1276  1.9130
 3859SOL     OW24049   5.404   2.579   1.623  0.2609 -0.4089 -0.6163
 3859SOL    HW124050   5.401   2.679   1.631 -0.5316 -0.4961  0.2222
 3859SOL    HW224051   5.418   2.539   1.713 -1.3769 -1.1331 -0.6850
 3860SOL     OW24052   3.172   5.620   1.393  0.3107 -0.1697  0.1197
 3860SOL    HW124053   3.219   5.639   1.479  2.2894  0.7053 -1.1156
 3860SOL    HW224054   3.140   5.525   1.392  1.7990 -0.6863  1.1194
 3861SOL     OW24055   2.658   4.068   3.351 -0.4496 -0.1716  0.2829
 3861SOL    HW124056   2.566   4.081   3.315 -0.4754  0.1300  0.4555
 3861SOL    HW224057   2.664   4.109   3.442 -0.6957 -1.8586  1.0789
 3862SOL     OW24058   3.651   0.453   8.820  0.1359  0.7743  0.3355
 3862SOL    HW124059   3.730   0.457   8.881 -0.1541 -0.1872  0.7975
 3862SOL    HW224060   3.567   0.458   8.875 -0.1249  0.8598 -0.0682
 3863SOL     OW24061   2.145   2.819   8.139  0.0152  0.1249 -0.2374
 3863SOL    HW124062   2.171   2.912   8.165 -3.4745  0.8313  0.9817
 3863SOL    HW224063   2.111   2.818   8.045  0.2397  0.0451 -0.3175
 3864SOL     OW24064   8.554   5.777   2.665 -0.0330 -0.3338  0.2698
 3864SOL    HW124065   8.580   5.735   2.578  0.5948  1.4317 -0.4286
 3864SOL    HW224066   8.592   5.724   2.741 -0.1096 -1.5670 -0.5434
 3865SOL     OW24067   0.143   7.558   4.313 -0.1816  0.1363  0.6678
 3865SOL    HW124068   0.100   7.644   4.285  1.3489  0.0734 -2.0620
 3865SOL    HW224069   0.242   7.567   4.307 -0.0169 -2.9743 -3.5800
 3866SOL     OW24070   6.973   1.180   0.362 -0.6248  0.3202  0.2432
 3866SOL    HW124071   6.914   1.229   0.427 -1.4476 -1.7328  1.0861
 3866SOL    HW224072   7.045   1.132   0.412 -0.6162 -0.4111 -0.4658
 3867SOL     OW24073   0.304   3.060   1.758  0.3091 -0.2157 -0.7938
 3867SOL    HW124074   0.338   2.979   1.807 -0.1907  0.1650  0.2017
 3867SOL    HW224075   0.343   3.142   1.800 -0.6104  0.1480 -0.6388
 3868SOL     OW24076   2.708   0.633   5.590  0.2414 -0.1965 -0.1445
 3868SOL    HW124077   2.667   0.588   5.511  2.0229  0.2873 -1.3792
 3868SOL    HW224078   2.726   0.566   5.661  2.0672 -1.3297 -1.6281
 3869SOL     OW24079   4.564   7.605   7.713 -0.1186 -0.1267  0.0899
 3869SOL    HW124080   4.560   7.664   7.633 -0.1284  1.5046  1.2760
 3869SOL    HW224081   4.479   7.614   7.766  1.0276  0.9618  1.7810
 3870SOL     OW24082   7.154   4.116   0.178  0.2554 -0.5767  0.0918
 3870SOL    HW124083   7.207   4.176   0.238  0.3938  0.1595 -0.7550
 3870SOL    HW224084   7.148   4.025   0.219 -0.3291  0.1288  1.5951
 3871SOL     OW24085   6.600   0.499   3.043  0.0392  0.4144  0.3148
 3871SOL    HW124086   6.584   0.431   2.972 -1.6606  2.2781 -1.1576
 3871SOL    HW224087   6.682   0.475   3.094  0.3042 -1.9204 -1.1207
 3872SOL     OW24088   2.153   4.490   2.983  0.0829 -0.2818  0.3456
 3872SOL    HW124089   2.117   4.512   2.893  0.7996  0.7230  0.3046
 3872SOL    HW224090   2.116   4.402   3.013 -0.0906 -0.6593 -0.9628
 3873SOL     OW24091   4.215   3.692   4.175 -0.2448  0.2597  0.1207
 3873SOL    HW124092   4.184   3.644   4.093  3.8879 -2.3453 -0.1078
 3873SOL    HW224093   4.277   3.766   4.149  0.1086  0.2107  0.8020
 3874SOL     OW24094   0.155   4.445   3.049  0.2252  0.2484  0.5187
 3874SOL    HW124095   0.096   4.520   3.019 -0.8688 -0.0322  1.8707
 3874SOL    HW224096   0.213   4.476   3.124  0.3683 -0.0264  0.5242
 3875SOL     OW24097   0.267   6.619   7.565  0.2735 -0.0756  0.5839
 3875SOL    HW124098   0.275   6.567   7.651  0.8579  1.2877  1.3740
 3875SOL    HW224099   0.358   6.652   7.539  0.1680 -0.9000 -0.8275
 3876SOL     OW24100   3.711   4.257   5.513  0.1044  0.1144  0.5333
 3876SOL    HW124101   3.662   4.186   5.564 -0.8907  1.5296  1.5962
 3876SOL    HW224102   3.650   4.336   5.500  0.7155  0.2211 -1.8785
 3877SOL     OW24103   0.173   3.263   6.233  0.2736 -0.3427  0.2047
 3877SOL    HW124104   0.134   3.320   6.306 -0.0206 -0.5526  0.2111
 3877SOL    HW224105   0.228   3.190   6.274  2.2778  1.0993  0.1554
 3878SOL     OW24106   6.619   5.538   2.325  0.0173  0.2560  0.4055
 3878SOL    HW124107   6.604   5.489   2.239 -1.2106 -0.5781  1.0813
 3878SOL    HW224108   6.716   5.563   2.333  0.3989 -0.8623 -0.5867
 3879SOL     OW24109   6.066   3.761   0.165 -0.0074  0.0462 -0.0299
 3879SOL    HW124110   6.033   3.694   0.232  0.1154  0.2005  0.1884
 3879SOL    HW224111   6.107   3.714   0.087 -2.1962 -0.1845 -1.0819
 3880SOL     OW24112   1.972   4.472   6.222 -0.2296 -0.7104  0.2329
 3880SOL    HW124113   1.970   4.380   6.182 -0.9131 -0.6237  0.0669
 3880SOL    HW224114   1.884   4.492   6.264 -0.2832  0.1093 -0.2690
 3881SOL     OW24115   8.582   4.305   0.906  0.0792 -0.2913  0.3751
 3881SOL    HW124116   8.581   4.323   0.808 -0.4271  0.0821  0.4458
 3881SOL    HW224117   8.649   4.365   0.950  1.5323 -1.6530  0.0391
 3882SOL     OW24118   7.633   5.025   5.816  0.0118  0.0274  0.0497
 3882SOL    HW124119   7.724   4.988   5.836 -0.0085  1.0199  2.0863
 3882SOL    HW224120   7.564   4.973   5.867 -0.6638 -1.1146 -1.9504
 3883SOL     OW24121   4.442   8.071   4.683 -0.0253  0.4437 -0.0318
 3883SOL    HW124122   4.513   8.109   4.624 -0.8712 -0.2106 -1.4942
 3883SOL    HW224123   4.484   8.013   4.752  0.7826 -1.0223 -1.7094
 3884SOL     OW24124   3.904   4.240   0.104 -0.5648 -0.0399 -0.6105
 3884SOL    HW124125   3.832   4.303   0.075  1.2006  2.2462 -0.1142
 3884SOL    HW224126   3.956   4.209   0.024 -0.0053  0.9149 -0.6181
 3885SOL     OW24127   8.839   8.388   3.999 -0.3383 -0.3122 -0.0114
 3885SOL    HW124128   8.774   8.429   3.935 -0.4038  0.3649  0.4779
 3885SOL    HW224129   8.932   8.396   3.961 -0.5553 -1.4265 -0.7828
 3886SOL     OW24130   4.880   1.828   0.798  0.4265 -0.2982 -0.5522
 3886SOL    HW124131   4.915   1.896   0.862  0.4783 -0.4761 -0.3895
 3886SOL    HW224132   4.859   1.744   0.848 -1.5373  0.2521 -0.4016
 3887SOL     OW24133   3.186   0.993   8.438  0.0239 -0.1600  0.1740
 3887SOL    HW124134   3.136   1.070   8.478  0.8658 -0.0239  0.9745
 3887SOL    HW224135   3.136   0.908   8.454 -1.0370  0.2442 -0.9379
 3888SOL     OW24136   3.627   6.765   8.061 -0.0018  0.0983  0.0928
 3888SOL    HW124137   3.682   6.779   8.143  2.3260 -1.0168 -1.2156
 3888SOL    HW224138   3.591   6.853   8.029  2.4257  1.1032  0.0636
 3889SOL     OW24139   7.626   4.766   8.247  0.2943 -0.0388 -0.0858
 3889SOL    HW124140   7.670   4.683   8.282 -0.1033 -0.1656  0.1239
 3889SOL    HW224141   7.535   4.743   8.212 -0.8391  0.6962  2.2431
 3890SOL     OW24142   2.816   5.999   0.400  0.2144  0.2580  0.0318
 3890SOL    HW124143   2.787   6.017   0.494 -1.0962  0.7086 -0.4555
 3890SOL    HW224144   2.744   6.028   0.337  0.8250 -0.6459 -1.0803
 3891SOL     OW24145   1.816   5.739   0.038 -0.4005  0.0243 -0.1835
 3891SOL    HW124146   1.726   5.712   0.074 -0.5637 -1.5270 -1.6569
 3891SOL    HW224147   1.816   5.727  -0.061  1.2002  0.7839 -0.2844
 3892SOL     OW24148   5.327   5.260   4.325  0.4093 -0.0359  0.0598
 3892SOL    HW124149   5.287   5.234   4.238 -0.7213  0.3618  0.4537
 3892SOL    HW224150   5.425   5.274   4.314  0.8894 -3.3991 -0.3942
 3893SOL     OW24151   4.732   7.936   8.153 -0.5089 -0.1537  0.0947
 3893SOL    HW124152   4.731   7.879   8.070  1.0630 -2.6887  1.7596
 3893SOL    HW224153   4.731   7.877   8.234 -0.8787  2.2657  1.8928
 3894SOL     OW24154   2.930   4.661   5.537 -0.5826  0.5251 -0.0037
 3894SOL    HW124155   2.957   4.608   5.618  0.4421 -0.6495 -1.0911
 3894SOL    HW224156   2.957   4.757   5.550  1.7386 -0.1037  0.0856
 3895SOL     OW24157   6.905   6.585   6.476 -0.1406  0.2913  0.1542
 3895SOL    HW124158   6.999   6.602   6.505 -0.0542  1.9686 -1.0616
 3895SOL    HW224159   6.903   6.514   6.406  0.0901 -0.5872  1.0298
 3896SOL     OW24160   5.893   6.783   6.866 -0.4828 -0.2130 -0.0441
 3896SOL    HW124161   5.954   6.858   6.839  2.1385 -2.4374 -0.5368
 3896SOL    HW224162   5.863   6.734   6.784 -2.7772  0.7152  0.2182
 3897SOL     OW24163   3.916   0.044   6.615 -0.4051 -0.1278 -0.6823
 3897SOL    HW124164   3.896   0.140   6.594  1.2426  0.3460 -0.1784
 3897SOL    HW224165   3.917  -0.009   6.531  1.0349  0.7710 -1.2497
 3898SOL     OW24166   2.639   6.617   0.092  0.1644 -0.4456  0.0041
 3898SOL    HW124167   2.685   6.695   0.049  0.3938 -1.1823 -1.1325
 3898SOL    HW224168   2.544   6.640   0.109 -0.0216 -0.2226 -1.2316
 3899SOL     OW24169   2.698   6.453   7.248 -0.1673 -0.7592 -0.2988
 3899SOL    HW124170   2.670   6.434   7.154  0.0372  0.6529 -0.6487
 3899SOL    HW224171   2.619   6.448   7.309 -0.2620 -1.8935 -0.4939
 3900SOL     OW24172   5.139   4.316   1.102 -0.0765  0.3328  0.1479
 3900SOL    HW124173   5.078   4.253   1.053  0.9927  0.9011 -1.9741
 3900SOL    HW224174   5.088   4.398   1.128 -0.8717 -0.3499  0.7714
 3901SOL     OW24175   4.042   7.119   5.040 -0.3788  0.0096 -0.2188
 3901SOL    HW124176   4.094   7.182   4.982 -0.1408  1.0544  1.1103
 3901SOL    HW224177   4.069   7.025   5.018  0.1231  0.4092 -1.3999
 3902SOL     OW24178   1.856   1.222   1.139  0.1513  0.1117 -0.0894
 3902SOL    HW124179   1.767   1.214   1.184 -0.1001  0.5396 -0.5023
 3902SOL    HW224180   1.907   1.298   1.180 -0.3968  1.0072 -1.0509
 3903SOL     OW24181   2.668   3.335   0.121 -0.0210  0.1202  0.2295
 3903SOL    HW124182   2.700   3.381   0.204  0.1431 -0.6887  0.6117
 3903SOL    HW224183   2.571   3.355   0.108  0.8009  3.3789 -1.4560
 3904SOL     OW24184   8.791   6.444   6.578 -0.6143 -0.9188  0.4406
 3904SOL    HW124185   8.769   6.406   6.668 -1.6175 -1.5722 -0.0620
 3904SOL    HW224186   8.859   6.516   6.587 -0.1919 -1.4652  1.6457
 3905SOL     OW24187   4.889   7.138   6.787  0.1643  0.3614 -0.4092
 3905SOL    HW124188   4.980   7.177   6.772  0.0252  0.9587  0.3205
 3905SOL    HW224189   4.849   7.113   6.698  0.1713  2.0427 -0.9079
 3906SOL     OW24190   0.827   1.181   8.575  0.7477  0.4357  0.4389
 3906SOL    HW124191   0.814   1.280   8.575  0.2573  0.3846  2.4530
 3906SOL    HW224192   0.757   1.138   8.631  0.1421 -1.1949 -1.4927
 3907SOL     OW24193   2.537   4.459   8.728 -0.2517  0.5210 -0.3093
 3907SOL    HW124194   2.579   4.538   8.685 -0.2212  0.8208  0.2700
 3907SOL    HW224195   2.440   4.476   8.743 -0.2663  0.4109 -0.2740
 3908SOL     OW24196   5.457   6.475   4.007 -0.5231 -0.2116  0.5666
 3908SOL    HW124197   5.459   6.477   4.107  0.3640 -0.0520  0.5476
 3908SOL    HW224198   5.402   6.397   3.976 -2.6360  1.0186  1.1743
 3909SOL     OW24199   0.656   6.634   5.324  0.3596 -0.4057 -0.2952
 3909SOL    HW124200   0.606   6.702   5.378  2.2567 -1.2818  2.6620
 3909SOL    HW224201   0.745   6.672   5.297 -0.2829 -0.2380 -2.2355
 3910SOL     OW24202   0.993   4.713   7.573 -0.1512  0.1595  0.2318
 3910SOL    HW124203   0.906   4.680   7.609  1.1185 -1.3324  2.0863
 3910SOL    HW224204   1.011   4.669   7.485 -0.1081 -1.5432  1.0561
 3911SOL     OW24205   0.745   8.127   3.071  0.0409  0.5253  0.3816
 3911SOL    HW124206   0.679   8.202   3.061  0.1317  0.3778 -1.5402
 3911SOL    HW224207   0.834   8.164   3.096 -0.0221  1.0187 -0.1248
 3912SOL     OW24208   8.459   1.554   4.136  0.1288  0.1808 -0.1464
 3912SOL    HW124209   8.367   1.577   4.169 -0.0629  1.2444 -1.3808
 3912SOL    HW224210   8.453   1.515   4.045  0.9316  0.6138 -0.3884
 3913SOL     OW24211   0.696   0.970   0.335 -0.1760 -0.6516 -0.1812
 3913SOL    HW124212   0.753   1.010   0.263 -0.1787 -1.4359 -0.6346
 3913SOL    HW224213   0.599   0.981   0.311 -0.1799 -0.7359 -0.2072
 3914SOL     OW24214   5.217   1.406   7.888 -0.0475  0.2642 -0.6293
 3914SOL    HW124215   5.304   1.432   7.846 -0.5348 -1.1895 -2.6368
 3914SOL    HW224216   5.167   1.346   7.826 -2.2283  0.5893  0.7649
 3915SOL     OW24217   6.430   1.248   7.059  0.4079 -0.6803  0.0055
 3915SOL    HW124218   6.383   1.207   7.137 -0.2500  1.3902  0.7161
 3915SOL    HW224219   6.528   1.251   7.078  0.2336 -0.0385  0.8292
 3916SOL     OW24220   0.093   4.679   5.214 -0.1819 -0.0686 -0.0981
 3916SOL    HW124221   0.085   4.677   5.314 -1.6112  2.3165 -0.1270
 3916SOL    HW224222   0.005   4.654   5.173 -1.1624  3.9161 -0.6591
 3917SOL     OW24223   6.003   8.059   8.527 -0.0360 -0.7431  0.6232
 3917SOL    HW124224   5.977   8.156   8.531 -1.2101 -0.7161 -4.0450
 3917SOL    HW224225   5.920   8.003   8.522  0.6695 -1.6973 -0.4541
 3918SOL     OW24226   2.919   6.484   6.496  0.2197  0.2605 -0.3282
 3918SOL    HW124227   2.820   6.469   6.486 -0.2616  0.9723  3.0048
 3918SOL    HW224228   2.957   6.510   6.407 -2.5005 -0.3740 -1.7466
 3919SOL     OW24229   8.469   4.797   7.492  0.2908  0.1472 -0.2562
 3919SOL    HW124230   8.477   4.875   7.430 -1.0149  1.0892  0.7406
 3919SOL    HW224231   8.498   4.713   7.444  1.0974  1.1326 -1.5264
 3920SOL     OW24232   4.592   6.196   8.034 -0.1909  0.3798  0.1187
 3920SOL    HW124233   4.557   6.170   7.944  0.3052 -0.6336  0.2139
 3920SOL    HW224234   4.578   6.121   8.098 -0.8313  1.2157  0.9781
 3921SOL     OW24235   4.692   3.997   3.866  0.0000 -0.3397  0.2885
 3921SOL    HW124236   4.682   3.905   3.904 -0.2683  0.0283  1.1258
 3921SOL    HW224237   4.611   4.051   3.889 -0.4367 -0.2738 -1.3165
 3922SOL     OW24238   1.502   4.473   2.615  0.1336  1.0344  0.9008
 3922SOL    HW124239   1.436   4.421   2.670  1.1185 -0.8039  0.4005
 3922SOL    HW224240   1.551   4.410   2.555  1.3244  2.5865  0.2270
 3923SOL     OW24241   3.692   5.643   3.843 -0.4997 -0.5663 -0.2135
 3923SOL    HW124242   3.767   5.634   3.777 -0.7448 -1.7245 -0.3537
 3923SOL    HW224243   3.667   5.739   3.852  0.1108 -0.3081 -1.1673
 3924SOL     OW24244   8.001   6.696   6.798 -0.0845 -0.3328 -0.0682
 3924SOL    HW124245   8.057   6.716   6.878  0.6979  0.5909 -0.8335
 3924SOL    HW224246   8.055   6.643   6.733 -0.4424 -0.3552 -0.3479
 3925SOL     OW24247   3.066   6.086   2.232  0.6057  0.3388 -0.5274
 3925SOL    HW124248   2.987   6.060   2.176 -1.5004  1.3817  1.8266
 3925SOL    HW224249   3.035   6.144   2.308  3.7665  1.3697  0.0481
 3926SOL     OW24250   5.551   7.651   2.516  0.1836  0.4614 -0.2766
 3926SOL    HW124251   5.620   7.712   2.555 -0.8452  1.9820 -0.7969
 3926SOL    HW224252   5.587   7.607   2.434  0.9624  0.2976  0.1518
 3927SOL     OW24253   1.441   8.094   0.899  0.2957 -0.2322  0.0687
 3927SOL    HW124254   1.381   8.043   0.961  0.4208  0.3079  0.6379
 3927SOL    HW224255   1.535   8.064   0.911  0.3379 -0.0376  0.2429
 3928SOL     OW24256   5.144   4.233   3.944 -0.8230 -0.2276 -0.0955
 3928SOL    HW124257   5.098   4.318   3.970 -1.5205 -0.3389 -0.9403
 3928SOL    HW224258   5.241   4.251   3.927 -1.4551  0.9423 -2.7847
 3929SOL     OW24259   3.362   6.232   0.177 -0.7217 -0.0792  0.3745
 3929SOL    HW124260   3.458   6.257   0.160 -1.2294  2.8203  1.4184
 3929SOL    HW224261   3.339   6.253   0.272 -2.6003 -0.0271 -0.0760
 3930SOL     OW24262   7.210   4.349   1.197  0.2406  0.0072  0.0436
 3930SOL    HW124263   7.133   4.372   1.258  1.1198 -0.9513  1.5402
 3930SOL    HW224264   7.294   4.346   1.250  1.3705  1.2579 -1.6261
 3931SOL     OW24265   4.124   8.846   5.551  0.3447 -0.1762 -0.3715
 3931SOL    HW124266   4.097   8.751   5.562 -0.6861  0.2732  1.1573
 3931SOL    HW224267   4.089   8.881   5.464  0.5675 -1.1373 -0.8446
 3932SOL     OW24268   7.244   8.299   0.817 -0.0433  0.3703  0.0032
 3932SOL    HW124269   7.334   8.268   0.847 -0.0002 -0.5677 -1.0260
 3932SOL    HW224270   7.188   8.323   0.896  0.8345  0.1735  0.6864
 3933SOL     OW24271   8.816   1.514   8.067  0.2514  0.6584  0.4847
 3933SOL    HW124272   8.779   1.483   7.979 -0.7222 -0.7172  1.3440
 3933SOL    HW224273   8.740   1.543   8.126  0.4794 -2.1113  2.2454
 3934SOL     OW24274   2.870   3.465   4.094 -0.0854 -0.1593  0.3406
 3934SOL    HW124275   2.869   3.476   3.994 -0.3169  0.3296  0.3961
 3934SOL    HW224276   2.965   3.461   4.125 -0.0119 -0.8001  0.0511
 3935SOL     OW24277   2.114   5.199   4.572  0.4451 -0.0912 -0.0760
 3935SOL    HW124278   2.102   5.184   4.670  0.5856  1.5047  0.2034
 3935SOL    HW224279   2.081   5.291   4.548  2.0531  0.2094 -1.2036
 3936SOL     OW24280   6.979   6.808   5.980 -0.0734  0.1838 -0.0565
 3936SOL    HW124281   6.961   6.821   6.077 -0.0460  0.9335 -0.1516
 3936SOL    HW224282   7.027   6.888   5.944  1.2136 -0.6990 -0.3620
 3937SOL     OW24283   4.842   4.572   4.419  0.6063 -0.4159  0.3296
 3937SOL    HW124284   4.790   4.487   4.416 -1.9924  1.1460 -0.1249
 3937SOL    HW224285   4.901   4.572   4.500 -0.2248 -2.1421  0.9652
 3938SOL     OW24286   2.489   2.024   2.157 -0.1583  0.1430 -0.3224
 3938SOL    HW124287   2.449   1.980   2.077  0.2380  0.3180 -0.6197
 3938SOL    HW224288   2.554   2.094   2.128 -0.4200  0.5895  0.1503
 3939SOL     OW24289   4.408   3.649   4.422 -0.2670  0.6077 -0.0109
 3939SOL    HW124290   4.465   3.619   4.346 -1.8763 -0.6971 -0.7265
 3939SOL    HW224291   4.324   3.689   4.388 -0.7013  0.6376  1.0649
 3940SOL     OW24292   7.980   3.445   1.433  0.3086 -0.6562 -0.2511
 3940SOL    HW124293   8.025   3.533   1.415  2.3250 -1.5001  0.5460
 3940SOL    HW224294   7.915   3.425   1.359 -0.4735  1.6801 -0.2413
 3941SOL     OW24295   5.268   3.530   2.498  0.5607  0.3269 -0.2565
 3941SOL    HW124296   5.230   3.551   2.588  0.6802  1.6136 -0.5012
 3941SOL    HW224297   5.358   3.572   2.490  1.2362 -1.1278 -0.3879
 3942SOL     OW24298   8.237   5.396   5.071 -0.5335  0.0364 -0.2260
 3942SOL    HW124299   8.165   5.370   5.135 -0.1181  0.3138  0.3585
 3942SOL    HW224300   8.300   5.320   5.059 -1.0164 -0.2705 -0.8801
 3943SOL     OW24301   3.673   3.371   5.109  0.1441 -0.0439 -0.5128
 3943SOL    HW124302   3.730   3.334   5.035  1.9543 -0.3887  1.0018
 3943SOL    HW224303   3.731   3.391   5.188 -2.1286 -2.0827  1.7312
 3944SOL     OW24304   5.789   8.837   7.252 -0.3109 -0.0287  0.0683
 3944SOL    HW124305   5.787   8.925   7.205  0.6171 -0.2510 -0.3761
 3944SOL    HW224306   5.697   8.795   7.248 -0.4205  0.2889 -0.8982
 3945SOL     OW24307   0.429   7.647   7.714 -0.7496 -0.2930  0.4989
 3945SOL    HW124308   0.460   7.644   7.809  0.5918 -0.5201  0.0724
 3945SOL    HW224309   0.389   7.736   7.694  0.1256  0.2057  0.9425
 3946SOL     OW24310   1.762   2.945   2.141  0.4718  0.1511 -0.3736
 3946SOL    HW124311   1.808   2.988   2.219  0.9393 -1.3206  0.1759
 3946SOL    HW224312   1.830   2.906   2.079  0.1046  1.3450 -1.5553
 3947SOL     OW24313   3.567   2.634   6.536 -0.1086 -0.8083  0.4139
 3947SOL    HW124314   3.468   2.625   6.547 -0.5154  1.5654 -0.9719
 3947SOL    HW224315   3.609   2.655   6.624 -1.1730  0.7257  0.5764
 3948SOL     OW24316   4.524   0.580   1.981  0.3316  0.1646 -0.7723
 3948SOL    HW124317   4.617   0.578   1.946  0.5986  1.4248 -0.1726
 3948SOL    HW224318   4.514   0.513   2.054  0.7858  0.0607 -0.8070
 3949SOL     OW24319   3.339   1.003   0.563 -0.4887 -0.3155 -0.6492
 3949SOL    HW124320   3.254   1.022   0.513  0.2870  1.4591 -1.3055
 3949SOL    HW224321   3.332   1.041   0.655 -0.5547 -0.5302 -0.5643
 3950SOL     OW24322   3.317   6.227   5.749 -0.1732 -0.4386 -0.2853
 3950SOL    HW124323   3.379   6.165   5.701  0.9054  1.3263 -1.2482
 3950SOL    HW224324   3.371   6.296   5.799 -1.3354 -0.3139  0.8389
 3951SOL     OW24325   3.693   7.437   4.663  0.4910  0.2973  0.4233
 3951SOL    HW124326   3.657   7.418   4.571  1.1436  2.1551 -0.2261
 3951SOL    HW224327   3.775   7.381   4.678 -0.0964 -0.6358  0.1964
 3952SOL     OW24328   0.299   4.564   0.439 -0.0669 -0.5162 -0.2602
 3952SOL    HW124329   0.391   4.530   0.418  0.5529  0.4578  0.7624
 3952SOL    HW224330   0.241   4.554   0.359  1.2468 -0.1289 -1.2935
 3953SOL     OW24331   7.396   5.955   8.027  0.2230 -0.0887  0.9664
 3953SOL    HW124332   7.324   6.018   8.055 -0.1694 -0.0201 -0.1854
 3953SOL    HW224333   7.483   6.004   8.023 -0.4140  0.9081 -1.8656
 3954SOL     OW24334   2.260   3.985   4.718  0.6330 -0.0992  0.3003
 3954SOL    HW124335   2.214   3.926   4.651 -0.9883  0.7207  0.6799
 3954SOL    HW224336   2.335   4.033   4.673  0.9021 -1.1671 -0.4142
 3955SOL     OW24337   2.388   3.792   4.909  0.0381 -0.4223  0.1271
 3955SOL    HW124338   2.363   3.784   4.813  0.4379 -2.0400  0.1457
 3955SOL    HW224339   2.338   3.868   4.951 -0.5884 -0.0961 -1.2030
 3956SOL     OW24340   7.471   6.149   3.948 -0.6763 -0.5277  0.3042
 3956SOL    HW124341   7.524   6.069   3.976 -1.0379 -1.6157 -2.0364
 3956SOL    HW224342   7.533   6.226   3.934  0.0233 -1.1600 -0.1459
 3957SOL     OW24343   4.223   1.345   8.093 -0.3238  0.0985 -0.7085
 3957SOL    HW124344   4.276   1.282   8.149  0.1908  0.8332 -0.3621
 3957SOL    HW224345   4.125   1.325   8.103 -0.3135  0.9591  1.3689
 3958SOL     OW24346   6.987   3.236   0.426  0.4550 -0.4483 -0.0729
 3958SOL    HW124347   6.914   3.299   0.453  1.5540  1.6920 -1.9192
 3958SOL    HW224348   6.947   3.147   0.403 -1.0254 -0.8105  3.5297
 3959SOL     OW24349   1.447   5.298   7.540 -0.3142 -0.1400  0.1174
 3959SOL    HW124350   1.423   5.395   7.527 -0.6279 -0.1982  0.2707
 3959SOL    HW224351   1.536   5.280   7.496 -0.0793  0.3039  0.4067
 3960SOL     OW24352   8.875   0.642   5.466 -0.1112 -0.0861 -0.2188
 3960SOL    HW124353   8.966   0.605   5.447 -0.7896 -1.5734 -0.6637
 3960SOL    HW224354   8.810   0.608   5.397 -0.9461  1.2250 -0.1057
 3961SOL     OW24355   5.418   7.636   7.475  0.1081  0.0233 -0.0196
 3961SOL    HW124356   5.417   7.734   7.494 -1.2341 -0.1127  0.7042
 3961SOL    HW224357   5.374   7.587   7.551  0.8844 -1.1512 -0.3090
 3962SOL     OW24358   3.961   1.492   0.945  0.5343  0.1041 -0.2000
 3962SOL    HW124359   3.919   1.536   0.866  1.9822  0.1687 -0.9542
 3962SOL    HW224360   4.001   1.562   1.005 -0.3599  0.0417  0.4780
 3963SOL     OW24361   5.390   1.902   0.061 -0.0582  0.2915  1.3616
 3963SOL    HW124362   5.456   1.974   0.081  0.1104  0.1328  1.3663
 3963SOL    HW224363   5.434   1.829   0.009 -0.3315  0.3901  0.9840
 3964SOL     OW24364   6.612   4.394   2.864 -0.0928  0.0072  0.0604
 3964SOL    HW124365   6.522   4.437   2.865  0.6360  1.5967 -0.5757
 3964SOL    HW224366   6.670   4.439   2.795  0.6086 -2.1962 -0.8429
 3965SOL     OW24367   8.937   2.496   7.423 -0.7564  0.3242 -0.8621
 3965SOL    HW124368   8.954   2.397   7.418 -1.0025  0.2538 -0.3068
 3965SOL    HW224369   9.006   2.544   7.369  0.3900 -0.0469  0.2501
 3966SOL     OW24370   6.011   6.204   3.999 -0.2028 -0.6962 -0.0689
 3966SOL    HW124371   5.922   6.241   4.028 -0.8676 -2.3765  0.0895
 3966SOL    HW224372   6.059   6.167   4.078  0.1262 -0.8665 -0.3490
 3967SOL     OW24373   4.891   2.547   6.580  0.0152  0.0783 -0.2525
 3967SOL    HW124374   4.817   2.492   6.617 -1.5042  0.9624 -1.9059
 3967SOL    HW224375   4.856   2.605   6.506  1.8239  2.3074  0.5829
 3968SOL     OW24376   3.565   2.782   0.039  0.0364  0.7596  0.1228
 3968SOL    HW124377   3.548   2.873   0.077  0.2240  1.5602 -1.7104
 3968SOL    HW224378   3.479   2.730   0.039 -0.0825  0.9416  1.1154
 3969SOL     OW24379   8.478   5.091   8.144 -0.4484 -0.2682  0.5367
 3969SOL    HW124380   8.487   5.009   8.199  0.3015  0.4210  1.4484
 3969SOL    HW224381   8.419   5.157   8.191  1.0043  0.7224  1.0073
 3970SOL     OW24382   2.229   2.804   5.582  0.1830 -0.4751  0.2447
 3970SOL    HW124383   2.288   2.878   5.615  0.4638 -0.4312 -0.3510
 3970SOL    HW224384   2.232   2.801   5.482 -2.9419  1.3042  0.0350
 3971SOL     OW24385   1.206   4.177   3.765 -0.2662  0.0702  0.9201
 3971SOL    HW124386   1.133   4.217   3.709  0.9513 -1.8628 -2.1649
 3971SOL    HW224387   1.259   4.112   3.710  2.9359  0.3751  3.4658
 3972SOL     OW24388   3.739   4.180   8.079  0.3962  0.5947  0.7055
 3972SOL    HW124389   3.721   4.143   8.171  0.6333  0.0334  0.5319
 3972SOL    HW224390   3.801   4.258   8.086  1.9474 -0.6270  0.8720
 3973SOL     OW24391   8.743   1.162   6.562 -0.5630  0.1312 -0.7373
 3973SOL    HW124392   8.696   1.198   6.643 -1.5790  0.9889 -1.6890
 3973SOL    HW224393   8.815   1.099   6.590 -0.3253  1.1038  0.8648
 3974SOL     OW24394   0.498   5.946   1.170  0.1433  0.2499  0.7039
 3974SOL    HW124395   0.435   5.938   1.093  0.3734 -0.9993  0.6366
 3974SOL    HW224396   0.561   5.869   1.170  0.4610  0.4947  1.8617
 3975SOL     OW24397   5.991   3.037   7.611 -0.1834 -0.6093 -0.5708
 3975SOL    HW124398   5.930   2.977   7.662  0.3812  1.6412  2.9852
 3975SOL    HW224399   5.940   3.117   7.578  0.1932 -0.2533 -0.3045
 3976SOL     OW24400   2.433   5.198   3.106 -0.5284  0.4908 -0.2861
 3976SOL    HW124401   2.342   5.199   3.146 -0.3117  1.2866  0.1887
 3976SOL    HW224402   2.499   5.238   3.170  0.4004 -1.3497 -0.0593
 3977SOL     OW24403   7.227   1.924   2.682  0.8355 -0.4739 -0.1831
 3977SOL    HW124404   7.297   1.869   2.637  1.9551  0.4290  0.4195
 3977SOL    HW224405   7.146   1.868   2.700  0.3591 -0.8642 -3.2553
 3978SOL     OW24406   2.861   7.638   2.336  0.4346 -0.4974 -0.1521
 3978SOL    HW124407   2.825   7.650   2.429  0.4903  0.0400 -0.2022
 3978SOL    HW224408   2.927   7.563   2.336 -0.2988 -1.1540  0.0475
 3979SOL     OW24409   7.549   1.388   0.219  0.6137 -0.8437 -0.2102
 3979SOL    HW124410   7.544   1.427   0.311 -1.0427 -3.7264  0.9938
 3979SOL    HW224411   7.526   1.458   0.152 -0.2380  0.7630  1.6967
 3980SOL     OW24412   8.763   2.155   5.387  0.0982  0.1227 -1.0882
 3980SOL    HW124413   8.732   2.217   5.459  1.4917 -1.0414  0.5573
 3980SOL    HW224414   8.852   2.186   5.353  0.8094 -0.9175 -0.2496
 3981SOL     OW24415   8.388   3.158   8.620 -0.4158 -0.7882  0.4816
 3981SOL    HW124416   8.331   3.077   8.610 -0.7189 -0.4426 -0.7082
 3981SOL    HW224417   8.451   3.164   8.542 -0.0129 -0.1896  0.8528
 3982SOL     OW24418   4.641   8.994   7.104 -0.6281  0.2795 -0.5939
 3982SOL    HW124419   4.627   9.055   7.182 -1.4900  0.0348 -0.5539
 3982SOL    HW224420   4.589   9.028   7.026 -0.1514  0.2566 -0.9237
 3983SOL     OW24421   0.999   0.366   3.229 -0.0264 -0.0007 -0.2867
 3983SOL    HW124422   0.926   0.312   3.270  0.3150 -0.8237 -0.7452
 3983SOL    HW224423   0.959   0.431   3.163 -0.2732 -1.1977 -1.3488
 3984SOL     OW24424   8.817   3.491   1.087  0.9471  0.3869  0.2095
 3984SOL    HW124425   8.824   3.590   1.074  0.8443  0.3882  0.1622
 3984SOL    HW224426   8.788   3.448   1.001  0.3076  0.3914  0.4226
 3985SOL     OW24427   6.736   4.756   5.070  0.1748 -0.0623 -0.2767
 3985SOL    HW124428   6.683   4.752   4.985 -1.7017  0.6631  0.8221
 3985SOL    HW224429   6.818   4.700   5.061 -0.7456 -1.1602 -2.0476
 3986SOL     OW24430   0.251   7.563   5.616 -0.2589  0.2828 -0.3814
 3986SOL    HW124431   0.202   7.478   5.595  0.4574 -0.2209 -0.0152
 3986SOL    HW224432   0.343   7.559   5.577  0.4004  0.1350  1.1675
 3987SOL     OW24433   2.334   7.166   5.101 -0.3636  0.5200 -0.1006
 3987SOL    HW124434   2.257   7.192   5.160 -2.3832 -0.2084 -2.3341
 3987SOL    HW224435   2.315   7.196   5.008  2.4592  1.0105 -0.5425
 3988SOL     OW24436   7.191   2.256   3.339 -0.1099  0.2757  0.5046
 3988SOL    HW124437   7.180   2.296   3.430 -2.6907  1.3537 -0.2485
 3988SOL    HW224438   7.150   2.316   3.271 -1.2349 -2.1464 -1.0077
 3989SOL     OW24439   4.811   3.692   2.250 -0.3760  0.8197  0.2397
 3989SOL    HW124440   4.860   3.645   2.324 -1.3838  1.7791  1.5418
 3989SOL    HW224441   4.771   3.776   2.285  0.3495  2.0300 -1.7735
 3990SOL     OW24442   2.702   7.233   0.703  0.0683  0.3680 -0.4587
 3990SOL    HW124443   2.654   7.214   0.617  0.8350  1.3018 -1.0995
 3990SOL    HW224444   2.800   7.240   0.686  0.2366  0.4267  0.5160
 3991SOL     OW24445   4.736   6.178   8.520  0.1246  0.4386 -0.0127
 3991SOL    HW124446   4.775   6.230   8.443  0.8659  0.5390  0.4294
 3991SOL    HW224447   4.646   6.144   8.494  0.4006  0.4076 -0.9650
 3992SOL     OW24448   4.453   6.690   0.188  0.1269 -0.3673 -0.1503
 3992SOL    HW124449   4.407   6.602   0.188 -0.3440 -0.1601  2.3947
 3992SOL    HW224450   4.552   6.676   0.194  0.0154 -0.7346  0.9840
 3993SOL     OW24451   3.628   6.978   8.637 -0.1869 -0.3415 -0.2050
 3993SOL    HW124452   3.532   6.995   8.662 -0.0832 -1.2414  0.8180
 3993SOL    HW224453   3.658   6.891   8.675  1.0918  0.0071 -0.3801
 3994SOL     OW24454   5.822   2.370   0.946  0.2582 -0.1180 -0.2805
 3994SOL    HW124455   5.748   2.371   0.879 -0.1184  3.5785  0.0821
 3994SOL    HW224456   5.784   2.358   1.037  0.1444  1.1103 -0.1587
 3995SOL     OW24457   7.903   7.717   0.377 -0.5629  0.2348  0.0128
 3995SOL    HW124458   7.815   7.711   0.424 -0.7376  0.9175 -0.2220
 3995SOL    HW224459   7.968   7.655   0.420 -0.8046  0.6350  0.9697
 3996SOL     OW24460   3.735   7.863   5.590 -0.1176 -0.3878  0.2051
 3996SOL    HW124461   3.721   7.817   5.677 -0.8089  0.0121  0.3133
 3996SOL    HW224462   3.810   7.929   5.598 -0.2285 -0.3003  0.5158
 3997SOL     OW24463   6.345   2.560   1.781 -0.1758  0.1857 -0.6084
 3997SOL    HW124464   6.395   2.501   1.718 -0.4997 -2.4314  1.4976
 3997SOL    HW224465   6.408   2.593   1.852 -0.1459  1.8763 -1.3883
 3998SOL     OW24466   1.967   1.188   7.857  0.7169  0.1335  0.3181
 3998SOL    HW124467   2.045   1.250   7.862 -0.3732  1.4981  0.7691
 3998SOL    HW224468   1.900   1.223   7.792  0.1643 -0.6657  0.4427
 3999SOL     OW24469   1.356   2.776   4.353  0.1880  0.3737  0.0726
 3999SOL    HW124470   1.438   2.723   4.329  0.3777  0.5838  0.2528
 3999SOL    HW224471   1.312   2.810   4.270  0.8668  1.1418  0.0163
 4000SOL     OW24472   4.287   2.313   3.609  0.6745 -0.5645  0.0992
 4000SOL    HW124473   4.225   2.235   3.619  1.5766 -1.2200  0.6683
 4000SOL    HW224474   4.371   2.296   3.661 -0.0696  1.8024  2.2361
 4001SOL     OW24475   4.779   1.624   8.643  0.1485  0.3869  0.5595
 4001SOL    HW124476   4.753   1.585   8.555 -0.8019  3.0085 -0.3819
 4001SOL    HW224477   4.725   1.706   8.661  0.6417  0.1586  3.3987
 4002SOL     OW24478   6.719   2.899   2.676  0.2558 -0.1886 -0.9148
 4002SOL    HW124479   6.724   2.845   2.760 -1.3935  0.7712 -0.1785
 4002SOL    HW224480   6.811   2.923   2.646  0.8178  0.9080  1.5842
 4003SOL     OW24481   4.208   8.908   1.172 -0.0261 -0.3892 -0.0253
 4003SOL    HW124482   4.140   8.892   1.244 -0.2258  2.6943  0.5541
 4003SOL    HW224483   4.168   8.885   1.083 -1.2030 -0.3559  0.4885
 4004SOL     OW24484   6.402   3.591   2.460 -0.0320 -0.4226  0.0262
 4004SOL    HW124485   6.350   3.634   2.387  3.1178  1.7013 -1.0951
 4004SOL    HW224486   6.369   3.623   2.549 -0.4682  1.0673 -0.6613
 4005SOL     OW24487   6.279   3.154   2.539  0.0213 -0.2692  1.2698
 4005SOL    HW124488   6.299   3.085   2.469 -1.3066  0.6423 -0.0362
 4005SOL    HW224489   6.354   3.221   2.543 -0.2912  0.1555  0.1099
 4006SOL     OW24490   2.862   4.952   4.931  0.0671 -0.6042 -0.4915
 4006SOL    HW124491   2.815   4.940   4.844 -0.3594  0.2056 -0.3821
 4006SOL    HW224492   2.960   4.958   4.916 -0.0679  0.3486 -1.0091
 4007SOL     OW24493   7.512   7.763   7.522 -0.1081 -0.7813 -0.3123
 4007SOL    HW124494   7.515   7.694   7.594  0.2299 -0.3126  0.1253
 4007SOL    HW224495   7.604   7.776   7.484 -0.1414 -0.4564 -0.2853
 4008SOL     OW24496   1.111   5.219   5.837  0.6490  0.2031 -0.1398
 4008SOL    HW124497   1.122   5.302   5.892 -0.5565 -0.7479  1.5626
 4008SOL    HW224498   1.197   5.200   5.790  1.7342  0.9889  1.4732
 4009SOL     OW24499   7.266   7.479   7.143  0.3931  0.4826  0.2259
 4009SOL    HW124500   7.199   7.453   7.073 -1.0001  0.1835  1.6508
 4009SOL    HW224501   7.283   7.401   7.203  0.5270  1.1636  1.0706
 4010SOL     OW24502   7.869   0.630   0.745  0.4359  0.2230  0.2575
 4010SOL    HW124503   7.834   0.549   0.792  1.8410 -0.2629  0.4930
 4010SOL    HW224504   7.944   0.670   0.799  0.4831  1.0385 -0.3995
 4011SOL     OW24505   7.973   0.889   7.768 -0.2322 -0.0756  0.3060
 4011SOL    HW124506   7.920   0.965   7.730  1.6224  0.8847 -0.4051
 4011SOL    HW224507   8.000   0.910   7.862 -0.2456 -0.1280  0.3223
 4012SOL     OW24508   4.168   2.317   3.172  0.4627 -0.2581  0.2854
 4012SOL    HW124509   4.145   2.222   3.154  2.8404 -0.7940 -0.0921
 4012SOL    HW224510   4.133   2.343   3.262  1.4735 -2.0844  1.2368
 4013SOL     OW24511   0.128   6.576   0.691 -0.0539 -0.0208 -1.0036
 4013SOL    HW124512   0.170   6.616   0.772  0.7055  0.1055 -1.4609
 4013SOL    HW224513   0.030   6.597   0.692 -0.1516 -0.4677  0.1468
 4014SOL     OW24514   0.470   2.945   6.831 -0.3026 -0.1471  0.0040
 4014SOL    HW124515   0.554   2.960   6.779  0.5825 -2.6125  0.6576
 4014SOL    HW224516   0.391   2.975   6.777  0.7070 -1.2213 -2.1339
 4015SOL     OW24517   8.587   6.616   6.502  0.5838  0.0149  0.3141
 4015SOL    HW124518   8.636   6.534   6.530  0.3523 -0.4250 -0.5352
 4015SOL    HW224519   8.612   6.693   6.562  1.3448 -0.4986  0.6614
 4016SOL     OW24520   6.006   6.828   3.224 -0.5624 -0.2325  0.6661
 4016SOL    HW124521   6.016   6.927   3.212 -1.2665 -0.1209  1.0310
 4016SOL    HW224522   6.059   6.781   3.153 -1.1405  0.4115 -0.1950
 4017SOL     OW24523   1.266   3.071   5.390 -0.6374 -0.3367 -0.2323
 4017SOL    HW124524   1.320   3.129   5.451 -0.4772 -1.2723  0.5283
 4017SOL    HW224525   1.321   2.994   5.360 -1.6859 -1.5406  0.9032
 4018SOL     OW24526   1.682   4.045   7.049 -0.2640 -0.0205 -0.3370
 4018SOL    HW124527   1.702   3.973   6.982 -3.7761 -1.3917  0.0173
 4018SOL    HW224528   1.701   4.010   7.141 -1.4729 -0.3284 -0.2005
 4019SOL     OW24529   8.389   5.010   6.701 -0.9049 -0.4340  0.2312
 4019SOL    HW124530   8.338   5.092   6.724 -1.5781 -0.4367 -1.1543
 4019SOL    HW224531   8.401   4.954   6.782 -3.0209 -0.3741  0.6244
 4020SOL     OW24532   1.134   8.136   8.797  0.0538  1.0384 -0.5765
 4020SOL    HW124533   1.066   8.145   8.870  2.4072  0.5874  1.7620
 4020SOL    HW224534   1.102   8.069   8.730 -0.8785 -0.7953  1.6305
 4021SOL     OW24535   1.717   6.287   6.937  0.2873  0.3476  0.4907
 4021SOL    HW124536   1.658   6.362   6.907 -0.0477 -1.2567 -3.0034
 4021SOL    HW224537   1.662   6.217   6.982 -0.6749 -1.3189 -3.0851
 4022SOL     OW24538   6.751   4.096   1.950  0.1420  0.2652  0.2990
 4022SOL    HW124539   6.790   4.110   1.859  0.8496 -0.2446  0.5179
 4022SOL    HW224540   6.821   4.114   2.020 -0.0039 -0.6841  0.6963
 4023SOL     OW24541   5.190   6.283   5.711  0.5824 -0.2613  0.2646
 4023SOL    HW124542   5.181   6.199   5.765  1.5906  0.3511  1.4182
 4023SOL    HW224543   5.115   6.345   5.735  1.0468  0.0239  1.0166
 4024SOL     OW24544   0.146   2.986   3.356 -0.4275  0.3129  0.6032
 4024SOL    HW124545   0.135   3.034   3.269 -0.9450 -0.5534  0.1940
 4024SOL    HW224546   0.217   2.916   3.347 -0.6800  0.0331  0.8068
 4025SOL     OW24547   1.015   2.036   0.592  0.3627  0.3503  0.1733
 4025SOL    HW124548   1.002   2.069   0.686 -1.2911  4.2048 -1.2919
 4025SOL    HW224549   1.017   1.936   0.592 -0.2265  0.2441  4.2195
 4026SOL     OW24550   3.616   8.814   2.749 -0.0184  0.2789  0.2251
 4026SOL    HW124551   3.547   8.741   2.744  0.0133  0.1568  1.4324
 4026SOL    HW224552   3.678   8.796   2.825  0.2870  1.3132  0.2272
 4027SOL     OW24553   6.848   3.133   1.715  0.2414 -0.1244 -0.0578
 4027SOL    HW124554   6.789   3.143   1.795 -1.1077 -1.7897 -0.8205
 4027SOL    HW224555   6.929   3.081   1.739  0.3886  0.3492  0.4832
 4028SOL     OW24556   4.717   7.787   2.083  0.1094  0.3520  0.0454
 4028SOL    HW124557   4.629   7.760   2.044  1.1001 -1.9259 -0.7318
 4028SOL    HW224558   4.722   7.758   2.179  1.1733 -2.4553 -0.7880
 4029SOL     OW24559   1.262   3.146   0.102  0.0128 -0.3828  0.0168
 4029SOL    HW124560   1.304   3.181   0.019 -1.3579  1.9825  0.2847
 4029SOL    HW224561   1.317   3.171   0.181 -0.9852  1.2736  0.2115
 4030SOL     OW24562   5.521   6.568   4.622 -0.4292  0.4457  0.0352
 4030SOL    HW124563   5.445   6.597   4.681  0.5537  0.6162  1.2439
 4030SOL    HW224564   5.564   6.648   4.580 -0.3068  0.4281  0.1249
 4031SOL     OW24565   6.355   2.399   7.600  0.4187  0.7492 -0.3683
 4031SOL    HW124566   6.394   2.310   7.624 -0.5099  0.2259 -0.7824
 4031SOL    HW224567   6.348   2.456   7.682 -2.0895 -0.7732  0.5133
 4032SOL     OW24568   7.193   5.703   5.765 -0.5352 -0.1678 -0.7238
 4032SOL    HW124569   7.214   5.783   5.708 -0.1266 -0.1165 -0.5021
 4032SOL    HW224570   7.246   5.624   5.732  0.3705  0.0775  0.1309
 4033SOL     OW24571   1.549   8.905   5.940  0.4101  0.2365  0.2279
 4033SOL    HW124572   1.540   8.809   5.967  1.2621  0.3323  0.8674
 4033SOL    HW224573   1.462   8.937   5.902 -0.3596 -0.3219  1.5103
 4034SOL     OW24574   6.889   1.882   1.437  0.1572 -0.1265 -0.4014
 4034SOL    HW124575   6.964   1.819   1.459  0.6578  0.4482 -0.4542
 4034SOL    HW224576   6.926   1.964   1.393 -0.2245  1.3455  1.9904
 4035SOL     OW24577   3.988   7.962   7.924 -0.0309 -0.3761  0.0469
 4035SOL    HW124578   4.010   7.866   7.947  1.4797  0.8223  4.1163
 4035SOL    HW224579   3.989   7.973   7.825  0.7003 -4.3675 -0.5018
 4036SOL     OW24580   5.050   5.109   7.833 -0.1699  0.2199  0.2277
 4036SOL    HW124581   5.124   5.103   7.767 -0.6576  0.2657 -0.3230
 4036SOL    HW224582   4.963   5.119   7.785 -0.5878 -0.3485  0.8503
 4037SOL     OW24583   4.681   3.477   6.809  0.1263  0.5424 -0.2731
 4037SOL    HW124584   4.642   3.474   6.902  0.3471  0.3612 -0.1860
 4037SOL    HW224585   4.751   3.406   6.800  1.8033  2.0882  0.1785
 4038SOL     OW24586   7.486   6.154   8.771 -1.0232 -0.2670 -0.1063
 4038SOL    HW124587   7.551   6.112   8.708 -0.2827  1.8045 -0.7899
 4038SOL    HW224588   7.519   6.143   8.865 -0.8083 -1.1404 -0.2812
 4039SOL     OW24589   1.793   1.113   8.967 -0.2044  0.2652  0.0553
 4039SOL    HW124590   1.819   1.043   9.032 -0.4540  1.0638  1.0321
 4039SOL    HW224591   1.725   1.076   8.903 -0.7482 -0.2155  0.9050
 4040SOL     OW24592   4.294   6.095   1.614 -0.5519  0.4082  0.1501
 4040SOL    HW124593   4.306   6.055   1.523 -0.7587  0.0141  0.2965
 4040SOL    HW224594   4.371   6.070   1.672 -1.0026 -0.3185  0.4366
 4041SOL     OW24595   6.209   4.725   3.024  0.0599  0.2952  0.2972
 4041SOL    HW124596   6.306   4.745   3.008  0.6188 -0.4727  2.4814
 4041SOL    HW224597   6.200   4.630   3.052 -1.2869  0.4935  0.5328
 4042SOL     OW24598   8.370   4.873   6.473 -0.1795  0.1980 -0.6210
 4042SOL    HW124599   8.376   4.929   6.556 -1.0521  0.0123 -0.4268
 4042SOL    HW224600   8.340   4.930   6.397 -0.7714  0.0680 -0.4901
 4043SOL     OW24601   7.604   5.133   7.224  0.5206 -0.6422  0.0376
 4043SOL    HW124602   7.628   5.184   7.307 -2.7054 -1.9681  1.8960
 4043SOL    HW224603   7.608   5.035   7.243 -0.0354 -0.9572 -1.4428
 4044SOL     OW24604   2.369   6.962   6.951 -0.2618 -0.7497 -0.2038
 4044SOL    HW124605   2.423   6.879   6.960  0.0263 -0.4006  1.3793
 4044SOL    HW224606   2.413   7.037   7.001 -0.8706  0.1933 -1.0458
 4045SOL     OW24607   1.743   8.738   7.298  0.1459  0.2481 -0.0838
 4045SOL    HW124608   1.813   8.758   7.366 -0.4496 -1.1986  0.9624
 4045SOL    HW224609   1.783   8.744   7.206  2.2833 -2.9910  0.5775
 4046SOL     OW24610   8.263   2.908   8.555  0.2311 -0.6665  0.2954
 4046SOL    HW124611   8.260   2.838   8.484 -0.8506 -0.2723 -0.0603
 4046SOL    HW224612   8.170   2.929   8.586  0.6392 -0.3536  1.3593
 4047SOL     OW24613   8.136   7.778   0.657 -0.0251  0.1236 -0.0384
 4047SOL    HW124614   8.120   7.709   0.587 -0.6632  0.2703 -0.0353
 4047SOL    HW224615   8.235   7.794   0.666  0.0914 -0.3763 -0.4316
 4048SOL     OW24616   7.380   6.465   5.258  0.0964  0.1992  0.2806
 4048SOL    HW124617   7.372   6.422   5.347  2.0299 -1.4348 -0.2881
 4048SOL    HW224618   7.465   6.519   5.254  0.0228  0.2705 -0.5564
 4049SOL     OW24619   6.886   6.803   5.637 -0.0680  0.1442  0.1137
 4049SOL    HW124620   6.835   6.854   5.567 -2.2302 -1.3711  0.5045
 4049SOL    HW224621   6.942   6.866   5.690 -0.7807  1.7617 -0.9982
 4050SOL     OW24622   1.052   2.405   0.720 -0.0181  0.3243  0.2382
 4050SOL    HW124623   1.146   2.437   0.719  0.0484  0.1443  0.8697
 4050SOL    HW224624   1.030   2.364   0.631  0.6962 -0.2313  0.3160
 4051SOL     OW24625   3.980   7.364   1.170 -0.1261  0.2690  0.5233
 4051SOL    HW124626   4.013   7.282   1.122  1.2244  0.6539  0.7851
 4051SOL    HW224627   3.892   7.343   1.213 -0.2343 -0.7750 -0.1686
 4052SOL     OW24628   0.976   5.010   3.605  0.4656 -0.7606 -0.4169
 4052SOL    HW124629   0.959   5.006   3.703  0.4580 -1.7181 -0.4525
 4052SOL    HW224630   0.926   5.087   3.566 -0.7924 -1.3056  0.0879
 4053SOL     OW24631   7.316   3.918   4.998  0.1257 -0.1197  0.2957
 4053SOL    HW124632   7.345   3.999   5.048  1.4688 -0.4812  0.1316
 4053SOL    HW224633   7.258   3.946   4.921  0.3456  0.6621  0.4050
 4054SOL     OW24634   4.742   6.713   3.718 -0.7461 -0.2679  0.0350
 4054SOL    HW124635   4.643   6.723   3.719 -0.7909 -0.1995 -2.5957
 4054SOL    HW224636   4.783   6.788   3.666  0.8091  0.4255  2.1781
 4055SOL     OW24637   7.757   8.331   1.996  0.1425 -0.0174 -0.1265
 4055SOL    HW124638   7.753   8.292   1.904 -3.4844  0.0647 -0.0935
 4055SOL    HW224639   7.852   8.342   2.024  1.2785 -2.5369 -2.7882
 4056SOL     OW24640   1.996   5.233   2.291  0.5995  0.4588 -0.0591
 4056SOL    HW124641   2.080   5.244   2.344  0.9665  0.0833 -0.5553
 4056SOL    HW224642   1.945   5.319   2.292  1.1689  0.8026 -0.0630
 4057SOL     OW24643   2.942   0.925   8.661  0.2349 -0.5476 -0.6236
 4057SOL    HW124644   2.917   0.977   8.578  1.6925  0.7526 -0.2771
 4057SOL    HW224645   3.019   0.865   8.640 -0.7237 -1.7469 -0.7281
 4058SOL     OW24646   3.500   1.910   3.932 -0.5994  0.6365 -0.9224
 4058SOL    HW124647   3.479   1.907   3.835 -0.9069  0.3981 -0.8505
 4058SOL    HW224648   3.594   1.938   3.945 -0.5529  0.6514 -1.2910
 4059SOL     OW24649   2.965   5.455   5.552 -0.3421  0.6282  0.0657
 4059SOL    HW124650   3.012   5.378   5.596 -1.4868  1.1908  2.3471
 4059SOL    HW224651   3.033   5.520   5.518  0.5956  0.2368  1.1474
 4060SOL     OW24652   5.087   6.220   1.177  0.7456 -0.3057  0.2388
 4060SOL    HW124653   5.157   6.273   1.226  0.3086  2.4618 -1.9699
 4060SOL    HW224654   5.132   6.157   1.114  1.2540 -1.7772  2.0132
 4061SOL     OW24655   7.238   5.803   3.445 -0.1607  0.1698  0.0692
 4061SOL    HW124656   7.326   5.846   3.427 -0.3489 -0.1525 -1.7482
 4061SOL    HW224657   7.247   5.738   3.521  0.5945  1.8720  1.4672
 4062SOL     OW24658   5.223   5.272   7.452  0.3739 -0.1996  0.0838
 4062SOL    HW124659   5.203   5.370   7.444 -0.3716 -0.3804 -0.3138
 4062SOL    HW224660   5.306   5.251   7.401  1.4958  0.5249  1.5713
 4063SOL     OW24661   0.866   5.535   3.814 -0.5111 -0.2623 -0.8611
 4063SOL    HW124662   0.789   5.528   3.878 -0.8340  0.4465 -1.1690
 4063SOL    HW224663   0.865   5.456   3.753  0.7019 -1.7564  0.9811
 4064SOL     OW24664   0.629   8.428   7.120 -0.2070  0.2033 -0.1410
 4064SOL    HW124665   0.625   8.455   7.024 -2.1006  1.0438  0.1669
 4064SOL    HW224666   0.565   8.353   7.137 -0.2956  0.4345  0.5810
 4065SOL     OW24667   1.901   6.181   2.930  0.9421  0.2298  0.4516
 4065SOL    HW124668   1.904   6.136   2.841  1.8725 -1.8042  1.4739
 4065SOL    HW224669   1.982   6.239   2.940  2.3907 -1.8364  1.1004
 4066SOL     OW24670   2.527   3.065   3.288 -0.2974 -0.5328  0.1259
 4066SOL    HW124671   2.603   3.051   3.224  0.4919 -1.2172  1.2048
 4066SOL    HW224672   2.449   3.102   3.238  0.5748 -0.2927 -1.0919
 4067SOL     OW24673   5.607   7.405   5.548  0.2139  0.3669 -0.0564
 4067SOL    HW124674   5.559   7.491   5.539 -2.5152 -1.0253  0.7408
 4067SOL    HW224675   5.603   7.355   5.461  1.4481  0.8526 -0.4017
 4068SOL     OW24676   0.429   8.223   6.702 -0.0673  0.5303 -0.6685
 4068SOL    HW124677   0.508   8.240   6.644 -0.2011  3.6157 -0.0467
 4068SOL    HW224678   0.345   8.224   6.647  0.2181 -1.6057 -1.1570
 4069SOL     OW24679   4.350   6.209   0.490 -0.1232 -0.0066  0.8252
 4069SOL    HW124680   4.331   6.129   0.434 -0.5655 -0.6161  1.8281
 4069SOL    HW224681   4.283   6.215   0.564 -1.1286  2.2479 -0.2305
 4070SOL     OW24682   1.438   7.704   2.787 -0.0666  0.1397 -0.3231
 4070SOL    HW124683   1.454   7.715   2.689 -0.1973  0.9271 -0.2600
 4070SOL    HW224684   1.347   7.740   2.810 -0.2374 -0.4918  0.0092
 4071SOL     OW24685   2.132   3.086   4.559 -0.1032  0.1904 -0.1600
 4071SOL    HW124686   2.103   3.020   4.629  0.5039 -0.7291 -0.7583
 4071SOL    HW224687   2.211   3.050   4.510  0.3188  1.4369 -0.4152
 4072SOL     OW24688   7.649   0.031   0.825 -0.1542 -0.1944  1.1421
 4072SOL    HW124689   7.714   0.017   0.899 -0.4542  0.4228  1.5291
 4072SOL    HW224690   7.579  -0.040   0.828  0.2774 -0.6286  0.9646
 4073SOL     OW24691   8.164   8.492   1.960 -0.2543  0.0478  0.0397
 4073SOL    HW124692   8.214   8.409   1.984 -1.3781 -0.5388  0.4300
 4073SOL    HW224693   8.143   8.491   1.862 -1.2657 -0.7005  0.2553
 4074SOL     OW24694   2.305   1.424   0.576  0.1439 -0.6897  0.0722
 4074SOL    HW124695   2.301   1.346   0.639  0.6180  0.8873  2.0745
 4074SOL    HW224696   2.279   1.507   0.623 -0.6838  0.3549 -2.1508
 4075SOL     OW24697   6.970   6.303   2.418  0.2136  0.1312  0.0399
 4075SOL    HW124698   7.041   6.315   2.487 -0.2251 -0.6700  0.6388
 4075SOL    HW224699   6.893   6.253   2.457 -1.4584  2.5072 -0.0695
 4076SOL     OW24700   0.324   3.744   6.439  0.2012  0.6267  0.5859
 4076SOL    HW124701   0.395   3.777   6.500 -0.4055  1.8066  0.6776
 4076SOL    HW224702   0.307   3.812   6.367  0.4261 -0.4365 -0.4975
 4077SOL     OW24703   4.079   6.969   4.051 -0.5322 -0.2767 -0.3369
 4077SOL    HW124704   4.113   6.920   3.971 -1.0036 -2.0440  0.5089
 4077SOL    HW224705   4.040   7.057   4.023 -0.2247 -0.6480 -1.9734
 4078SOL     OW24706   2.843   2.587   1.130 -0.1184  0.2898 -0.5076
 4078SOL    HW124707   2.877   2.556   1.042 -2.3050  1.6745 -1.8846
 4078SOL    HW224708   2.787   2.515   1.172  1.9094 -0.8354  0.3767
 4079SOL     OW24709   3.283   0.551   2.211  0.1452 -0.4629  0.6293
 4079SOL    HW124710   3.345   0.488   2.164 -0.3162 -0.0762 -0.5266
 4079SOL    HW224711   3.210   0.498   2.256 -0.6417 -0.7440 -0.9293
 4080SOL     OW24712   4.141   3.846   7.749 -0.4237 -0.1038  0.2064
 4080SOL    HW124713   4.121   3.802   7.661  0.0619 -0.6380  0.3603
 4080SOL    HW224714   4.170   3.777   7.815  2.2060  0.6848 -0.1015
 4081SOL     OW24715   6.263   0.473   2.487 -0.4501 -0.3024  0.0156
 4081SOL    HW124716   6.168   0.462   2.516 -0.6847  2.6525  0.5959
 4081SOL    HW224717   6.272   0.448   2.391 -2.0625  0.3271 -0.3264
 4082SOL     OW24718   3.726   3.231   7.113  0.2515 -1.0108 -0.4792
 4082SOL    HW124719   3.776   3.207   7.195 -0.3901 -3.0990 -0.6587
 4082SOL    HW224720   3.630   3.202   7.122  0.4127 -2.2970 -2.3470
 4083SOL     OW24721   2.257   8.054   8.944  0.2733  0.2468 -0.4273
 4083SOL    HW124722   2.306   7.989   8.885 -3.0599 -0.9520 -2.0392
 4083SOL    HW224723   2.258   8.144   8.902  0.9766  0.1982 -0.5188
 4084SOL     OW24724   8.552   3.021   5.517 -0.0898 -0.4546  0.7189
 4084SOL    HW124725   8.578   2.924   5.526  0.9615 -0.6470 -3.2053
 4084SOL    HW224726   8.453   3.029   5.511 -0.1837 -1.2847  1.0969
 4085SOL     OW24727   6.741   6.549   7.009 -0.1162 -0.6752  0.5386
 4085SOL    HW124728   6.805   6.548   7.086 -0.9279 -0.6046  1.2311
 4085SOL    HW224729   6.781   6.503   6.931  1.2425  0.3771  0.5891
 4086SOL     OW24730   1.770   5.510   5.432 -0.3413 -0.1824 -0.5187
 4086SOL    HW124731   1.857   5.463   5.419 -1.7729 -2.5796 -1.8170
 4086SOL    HW224732   1.787   5.609   5.441  2.4468 -0.5468 -1.1568
 4087SOL     OW24733   6.616   4.750   0.694  0.2373 -0.1319  0.1170
 4087SOL    HW124734   6.644   4.657   0.672  0.9922  0.2544 -0.5908
 4087SOL    HW224735   6.539   4.748   0.758 -1.0512 -1.2573 -1.4644
 4088SOL     OW24736   0.432   3.991   5.040  0.3264  0.1245  0.1134
 4088SOL    HW124737   0.449   4.026   4.948 -1.0487  0.6288  0.0351
 4088SOL    HW224738   0.463   3.896   5.046  1.7408  0.5401 -0.4349
 4089SOL     OW24739   2.113   4.617   7.520 -0.1788 -0.0114  0.3416
 4089SOL    HW124740   2.189   4.670   7.558 -1.1339  0.7998  1.1815
 4089SOL    HW224741   2.028   4.642   7.568 -0.7904 -1.6989  0.1667
 4090SOL     OW24742   4.309   5.124   5.258 -0.6398  1.0491  0.4452
 4090SOL    HW124743   4.283   5.157   5.168 -2.6608 -0.7595  0.3047
 4090SOL    HW224744   4.260   5.039   5.277  2.1025 -0.2537  1.9814
 4091SOL     OW24745   7.122   4.855   7.345 -0.4606  0.5666 -0.3077
 4091SOL    HW124746   7.214   4.891   7.330  0.6065 -2.2636 -0.7413
 4091SOL    HW224747   7.087   4.815   7.261 -1.9097  1.1646 -0.0102
 4092SOL     OW24748   1.079   6.570   0.202  0.2172 -0.1939 -0.0904
 4092SOL    HW124749   1.085   6.510   0.122 -1.6150  0.3262 -0.6317
 4092SOL    HW224750   1.039   6.521   0.279  0.1943 -0.1339 -0.0632
 4093SOL     OW24751   0.601   5.283   4.116 -0.0584  0.0514  0.1895
 4093SOL    HW124752   0.683   5.241   4.156 -0.5047  0.3946  1.4568
 4093SOL    HW224753   0.581   5.237   4.029  0.4273 -1.2515  0.7426
 4094SOL     OW24754   3.556   5.516   5.320 -0.0408  0.1864 -0.6329
 4094SOL    HW124755   3.466   5.484   5.291  0.3071 -1.1909 -0.2297
 4094SOL    HW224756   3.607   5.441   5.362  0.5801  1.4018  0.8764
 4095SOL     OW24757   3.121   8.400   5.770 -0.3547 -0.0459 -0.0564
 4095SOL    HW124758   3.213   8.437   5.755  0.2322 -1.2021  0.6538
 4095SOL    HW224759   3.057   8.475   5.782  0.7091  0.7628  0.6916
 4096SOL     OW24760   1.849   5.976   0.384 -0.1051 -0.1590 -0.2390
 4096SOL    HW124761   1.902   5.913   0.326 -0.8971 -0.5208 -0.5779
 4096SOL    HW224762   1.800   6.041   0.326  0.7091  0.7787  0.1108
 4097SOL     OW24763   7.587   1.881   7.563 -0.4240 -0.4866 -0.2737
 4097SOL    HW124764   7.635   1.907   7.480 -0.4587 -1.3545 -0.5759
 4097SOL    HW224765   7.530   1.957   7.595 -2.6143 -1.0711 -2.6357
 4098SOL     OW24766   1.369   1.987   4.565 -0.0086  0.2834  0.4454
 4098SOL    HW124767   1.319   2.043   4.631 -0.9906 -0.7112  0.5570
 4098SOL    HW224768   1.331   1.895   4.563  1.7849 -0.4941  0.4971
 4099SOL     OW24769   7.247   2.818   7.270  0.3036 -0.4581  0.2893
 4099SOL    HW124770   7.321   2.753   7.250 -0.3742 -1.0547 -0.3158
 4099SOL    HW224771   7.249   2.891   7.202  0.0555 -0.7167  0.0038
 4100SOL     OW24772   3.952   7.818   5.194  0.0515  0.5838 -0.4885
 4100SOL    HW124773   4.041   7.860   5.209  0.7042 -1.0771  0.4039
 4100SOL    HW224774   3.919   7.779   5.280 -1.5390  1.1526 -0.8101
 4101SOL     OW24775   7.001   5.163   5.042 -0.4483 -0.4368  0.4556
 4101SOL    HW124776   7.089   5.144   5.000  0.3131  3.0991  0.2343
 4101SOL    HW224777   6.928   5.139   4.978  0.5947  1.7135 -1.6227
 4102SOL     OW24778   2.490   5.947   2.218 -0.1670  0.0509 -0.4210
 4102SOL    HW124779   2.430   5.967   2.140  1.0896  1.9541 -0.9222
 4102SOL    HW224780   2.564   5.886   2.188 -0.4723 -0.3391 -0.3826
 4103SOL     OW24781   2.808   4.713   2.255 -0.0639 -0.2891  0.2015
 4103SOL    HW124782   2.761   4.740   2.339  0.2311  0.7879  0.0310
 4103SOL    HW224783   2.821   4.614   2.254  1.4046 -0.1518  2.2094
 4104SOL     OW24784   5.911   6.410   8.162 -0.0478 -0.2372  0.1680
 4104SOL    HW124785   5.905   6.505   8.131  0.5527 -0.1738  0.2456
 4104SOL    HW224786   5.969   6.405   8.244  0.4429 -0.7583 -0.2090
 4105SOL     OW24787   5.965   4.995   8.196 -0.0027 -0.6881  0.3973
 4105SOL    HW124788   5.916   5.013   8.281 -0.2746  1.1020 -0.1025
 4105SOL    HW224789   5.925   4.916   8.150 -0.8820 -0.6936  1.1577
 4106SOL     OW24790   1.648   0.072   3.731 -0.1229  0.5971 -0.2233
 4106SOL    HW124791   1.653   0.019   3.815  1.3842 -0.3883 -0.9055
 4106SOL    HW224792   1.605   0.017   3.659 -0.3978  1.0339 -0.3971
 4107SOL     OW24793   6.513   0.158   8.570 -0.5991 -0.2476  0.4455
 4107SOL    HW124794   6.563   0.111   8.498  0.7688  0.7078  0.7369
 4107SOL    HW224795   6.459   0.232   8.531  0.1082  0.2420  0.3819
 4108SOL     OW24796   6.734   3.660   8.795 -0.1797 -0.1235 -0.1092
 4108SOL    HW124797   6.767   3.566   8.792 -0.9103 -0.3639 -0.8912
 4108SOL    HW224798   6.810   3.722   8.780  0.8386 -0.4491  3.2441
 4109SOL     OW24799   5.093   3.012   8.259  0.0034 -0.1690  0.1334
 4109SOL    HW124800   5.026   2.956   8.211 -0.5145 -0.1336  0.8038
 4109SOL    HW224801   5.114   2.971   8.348 -0.0753  0.4852  0.4578
 4110SOL     OW24802   7.463   4.670   2.163 -0.8798  0.5025 -0.0266
 4110SOL    HW124803   7.511   4.750   2.126 -1.1462  0.9965  0.6901
 4110SOL    HW224804   7.367   4.674   2.136 -0.5428 -0.4955 -1.4749
 4111SOL     OW24805   6.978   4.547   6.250 -0.3981  0.1802 -0.7651
 4111SOL    HW124806   6.888   4.575   6.282 -1.0157 -0.2933 -2.0690
 4111SOL    HW224807   7.010   4.469   6.304  0.7094  2.4100  1.9289
 4112SOL     OW24808   2.676   1.422   5.110 -0.0096  0.0084 -0.4917
 4112SOL    HW124809   2.692   1.420   5.011 -0.7058 -0.5119 -0.5956
 4112SOL    HW224810   2.720   1.503   5.149 -0.6219  0.7810 -1.3886
 4113SOL     OW24811   3.767   4.814   7.488 -0.3017 -0.0205  0.4401
 4113SOL    HW124812   3.814   4.873   7.422 -1.9499  1.9136  0.9589
 4113SOL    HW224813   3.706   4.752   7.440 -0.2577  0.2399  0.0430
 4114SOL     OW24814   0.227   0.739   5.962 -0.3267 -0.4536 -0.5975
 4114SOL    HW124815   0.223   0.827   5.915 -0.1715 -0.4465 -0.5982
 4114SOL    HW224816   0.135   0.711   5.988 -0.1035  1.2093  2.1833
 4115SOL     OW24817   4.147   2.427   7.696 -0.4010 -0.4083 -0.4123
 4115SOL    HW124818   4.204   2.435   7.778  0.2733  1.2663 -1.0326
 4115SOL    HW224819   4.112   2.517   7.670  1.3325 -0.5131 -3.3323
 4116SOL     OW24820   4.554   0.820   2.372  0.6397 -0.3248 -0.0921
 4116SOL    HW124821   4.538   0.782   2.281  2.0437 -1.3067  0.0576
 4116SOL    HW224822   4.508   0.909   2.379 -2.3522 -1.7611 -0.5915
 4117SOL     OW24823   8.301   7.204   0.101 -0.0645 -0.0057 -0.2823
 4117SOL    HW124824   8.389   7.225   0.060 -0.0855  0.3605 -0.1432
 4117SOL    HW224825   8.264   7.286   0.145  0.6573 -0.7282  1.7636
 4118SOL     OW24826   5.190   1.538   1.989 -0.4515  0.3376  0.2299
 4118SOL    HW124827   5.208   1.442   2.008 -1.3676  0.2337  0.5925
 4118SOL    HW224828   5.151   1.547   1.897 -1.6412  0.2201  0.7206
 4119SOL     OW24829   8.615   7.104   1.696  0.2513  0.0255 -0.0928
 4119SOL    HW124830   8.588   7.199   1.708 -0.9971 -0.1024 -1.7693
 4119SOL    HW224831   8.715   7.098   1.691  0.3083  1.3359 -0.7676
 4120SOL     OW24832   8.842   4.724   8.134  0.5844  0.1797  0.6123
 4120SOL    HW124833   8.838   4.816   8.094  2.1683  1.0188  2.3024
 4120SOL    HW224834   8.938   4.694   8.137 -0.0253 -2.0541 -1.0167
 4121SOL     OW24835   5.007   7.341   5.632 -0.6062 -0.2761  0.4099
 4121SOL    HW124836   5.102   7.373   5.636 -1.2738  1.7399  0.4961
 4121SOL    HW224837   4.969   7.337   5.725 -0.7959 -0.4801  0.3237
 4122SOL     OW24838   6.656   7.482   3.656  0.1475 -0.5019  0.1884
 4122SOL    HW124839   6.563   7.490   3.693  0.5921  0.1404  1.2060
 4122SOL    HW224840   6.681   7.385   3.649 -0.8740 -0.7000 -0.8142
 4123SOL     OW24841   6.813   6.056   0.349 -0.0025 -0.0190 -0.6457
 4123SOL    HW124842   6.811   6.138   0.406 -1.0824  0.3747 -1.2284
 4123SOL    HW224843   6.902   6.012   0.357  0.3030  0.7457  0.3242
 4124SOL     OW24844   8.805   1.749   4.761  0.7834 -0.1465 -0.3247
 4124SOL    HW124845   8.887   1.754   4.705  0.8504  1.6185 -0.0775
 4124SOL    HW224846   8.725   1.774   4.706  0.6807  0.2679  0.0124
 4125SOL     OW24847   2.476   0.583   8.190 -0.3957  0.4030 -0.1610
 4125SOL    HW124848   2.409   0.644   8.232 -0.7081 -0.6682  0.9330
 4125SOL    HW224849   2.436   0.539   8.110 -0.8488  0.1184  0.2192
 4126SOL     OW24850   7.070   8.804   7.192  0.2480 -0.1564  0.1517
 4126SOL    HW124851   7.032   8.893   7.216  0.7133  0.4549 -1.3132
 4126SOL    HW224852   7.135   8.775   7.262 -1.0412 -0.0715  1.4121
 4127SOL     OW24853   8.665   6.987   7.703 -0.2062 -0.0230 -0.0550
 4127SOL    HW124854   8.720   7.071   7.710  0.7403 -0.5823 -0.6833
 4127SOL    HW224855   8.713   6.912   7.749 -0.8096 -0.3394  0.0569
 4128SOL     OW24856   5.988   6.202   1.425  1.1629 -0.1396  0.2425
 4128SOL    HW124857   6.041   6.157   1.353  1.3758 -1.5996  1.2946
 4128SOL    HW224858   5.941   6.282   1.387  1.5920 -0.6605 -1.4146
 4129SOL     OW24859   2.122   4.703   7.810 -0.2413  0.1325  0.6562
 4129SOL    HW124860   2.176   4.622   7.833 -0.2303  0.3098  1.2850
 4129SOL    HW224861   2.140   4.775   7.877 -0.1419  0.7042  0.0147
 4130SOL     OW24862   8.917   7.378   4.231 -0.6977 -0.0627  0.2898
 4130SOL    HW124863   8.951   7.286   4.249  1.2674  0.3054 -1.3058
 4130SOL    HW224864   8.981   7.445   4.269 -1.1967  0.6344 -0.0932
 4131SOL     OW24865   5.352   6.989   8.191 -0.0190  0.0633 -0.3645
 4131SOL    HW124866   5.290   7.066   8.178  0.0470  0.4696  1.5026
 4131SOL    HW224867   5.310   6.906   8.155  0.7507  1.2572 -4.2166
 4132SOL     OW24868   6.192   5.873   6.045 -0.1172  0.4035  0.9397
 4132SOL    HW124869   6.272   5.852   6.103  0.5603  1.2906  0.3323
 4132SOL    HW224870   6.220   5.933   5.971 -0.8574 -1.2238 -0.6800
 4133SOL     OW24871   8.932   5.057   4.578  0.3134 -0.6170  0.3528
 4133SOL    HW124872   8.926   4.969   4.531  0.2379 -0.6468  0.4186
 4133SOL    HW224873   9.021   5.098   4.561  0.0824 -0.3649 -0.2927
 4134SOL     OW24874   1.520   6.170   7.083 -0.0531  0.6822  0.3419
 4134SOL    HW124875   1.476   6.102   7.025 -0.5913  0.6046  0.8347
 4134SOL    HW224876   1.537   6.130   7.173  1.1460  0.6694  0.1228
 4135SOL     OW24877   2.369   1.279   7.332 -0.0730  0.4186  0.0442
 4135SOL    HW124878   2.272   1.258   7.319  0.0931 -1.3005  1.4432
 4135SOL    HW224879   2.399   1.342   7.260 -1.5574 -1.0907 -1.9566
 4136SOL     OW24880   1.612   1.696   4.901 -0.8148  0.6262  0.0501
 4136SOL    HW124881   1.540   1.763   4.883  1.0315  3.5085  2.8279
 4136SOL    HW224882   1.694   1.721   4.849 -0.0996  0.6456  1.1546
 4137SOL     OW24883   6.009   2.390   6.740 -0.4128 -0.0729  0.1681
 4137SOL    HW124884   6.105   2.415   6.726  0.2038 -1.3025  1.9270
 4137SOL    HW224885   5.963   2.386   6.652  0.9613  1.2649 -0.6423
 4138SOL     OW24886   5.172   7.454   8.428  0.2173 -0.1188  0.3847
 4138SOL    HW124887   5.245   7.399   8.469  0.1756 -1.0009 -0.7071
 4138SOL    HW224888   5.210   7.543   8.401  0.5589 -0.0462  1.0920
 4139SOL     OW24889   2.306   3.336   8.272  0.1901 -0.5878  0.9393
 4139SOL    HW124890   2.276   3.273   8.200 -1.9764  1.6302 -0.1731
 4139SOL    HW224891   2.391   3.381   8.244 -0.5201  0.0900 -0.1617
 4140SOL     OW24892   6.944   8.899   2.021  0.2146  0.7025 -0.0494
 4140SOL    HW124893   6.984   8.813   1.990 -1.4638  0.4377 -1.5539
 4140SOL    HW224894   6.869   8.925   1.960 -1.1228  1.7910  2.0004
 4141SOL     OW24895   7.728   2.524   8.864 -0.0360  0.9193  0.5759
 4141SOL    HW124896   7.734   2.510   8.765  0.5274  0.9356  0.6048
 4141SOL    HW224897   7.808   2.575   8.895  0.9842 -1.1400  1.3986
 4142SOL     OW24898   1.945   4.692   1.824  0.0723 -0.3895  0.3937
 4142SOL    HW124899   2.041   4.675   1.801 -0.3460  2.1129 -3.6548
 4142SOL    HW224900   1.936   4.782   1.865 -0.7767  0.2181 -1.1055
 4143SOL     OW24901   5.432   5.755   8.355 -0.0357  0.1492 -0.4035
 4143SOL    HW124902   5.469   5.845   8.333  0.3641  0.1913  0.4114
 4143SOL    HW224903   5.352   5.737   8.297 -1.3500  1.8771  0.8122
 4144SOL     OW24904   5.583   1.057   3.625  0.2258  0.1611  0.2848
 4144SOL    HW124905   5.490   1.062   3.661  0.4326  2.0272  0.6097
 4144SOL    HW224906   5.631   0.979   3.665 -0.7677  0.0005  1.1621
 4145SOL     OW24907   7.553   5.061   2.949  0.2839 -0.2000  0.1211
 4145SOL    HW124908   7.480   5.056   2.881 -0.0011 -2.6526  0.5415
 4145SOL    HW224909   7.642   5.052   2.904  0.3071  1.8106 -0.2842
 4146SOL     OW24910   0.480   5.596   3.255  0.1918  0.7266 -0.3140
 4146SOL    HW124911   0.534   5.562   3.178 -1.0532 -0.6868 -0.5757
 4146SOL    HW224912   0.419   5.669   3.224  0.8669  1.3054 -0.3103
 4147SOL     OW24913   8.743   4.822   3.480  0.3894 -0.1426  0.1886
 4147SOL    HW124914   8.659   4.851   3.525  0.8367  0.1744  0.8258
 4147SOL    HW224915   8.728   4.815   3.382 -0.5117 -0.5406  0.3461
 4148SOL     OW24916   4.545   6.365   7.432  0.6083 -0.3045  0.1022
 4148SOL    HW124917   4.483   6.436   7.465  1.3622 -0.1310  1.1852
 4148SOL    HW224918   4.494   6.281   7.413 -0.0816  0.1026  0.1622
 4149SOL     OW24919   2.857   7.149   7.436  0.2979 -0.2629 -0.2966
 4149SOL    HW124920   2.940   7.203   7.445  0.3455 -0.3765 -0.0589
 4149SOL    HW224921   2.830   7.146   7.340  1.6508 -1.8299 -0.6570
 4150SOL     OW24922   8.028   4.232   8.438 -0.4575  0.2247  0.1294
 4150SOL    HW124923   8.089   4.244   8.359 -1.9884 -0.7300 -1.2330
 4150SOL    HW224924   7.987   4.320   8.462 -1.3752  0.2157 -1.3139
 4151SOL     OW24925   0.332   4.732   6.608 -0.0879 -0.1464  0.0938
 4151SOL    HW124926   0.428   4.758   6.600  0.0731 -0.7888 -0.0790
 4151SOL    HW224927   0.300   4.696   6.520 -1.1036  2.0859 -0.5072
 4152SOL     OW24928   7.061   8.519   1.330  0.0963  0.8847 -0.1932
 4152SOL    HW124929   7.159   8.525   1.311 -0.4690  2.1421 -3.0463
 4152SOL    HW224930   7.027   8.609   1.359 -0.3081  0.5525  0.3727
 4153SOL     OW24931   1.963   5.760   7.691  0.5495 -0.1429  0.0622
 4153SOL    HW124932   2.062   5.767   7.679  0.6029 -0.1579  0.4790
 4153SOL    HW224933   1.943   5.703   7.770  0.1907 -0.7597 -0.4689
 4154SOL     OW24934   1.500   3.721   0.738  0.2609 -0.2622 -0.0836
 4154SOL    HW124935   1.487   3.798   0.675 -0.2701  0.6799  1.1708
 4154SOL    HW224936   1.520   3.638   0.685  0.9361  0.7471 -1.4403
 4155SOL     OW24937   5.728   3.972   4.048  0.2625  0.1499  0.2567
 4155SOL    HW124938   5.802   3.977   3.982  0.2673 -0.0363  0.2451
 4155SOL    HW224939   5.701   3.876   4.060 -2.2402  0.4727 -2.2551
 4156SOL     OW24940   6.440   6.151   2.562 -0.3745 -0.1069 -0.7500
 4156SOL    HW124941   6.340   6.147   2.569 -0.2927 -1.1958 -0.2260
 4156SOL    HW224942   6.477   6.059   2.557  0.7303  0.2427  0.8045
 4157SOL     OW24943   2.247   2.483   8.044 -0.6943  0.1581 -0.2002
 4157SOL    HW124944   2.219   2.524   8.131 -0.3246 -1.1442  0.5567
 4157SOL    HW224945   2.231   2.384   8.047  1.1420 -0.1908 -0.8729
 4158SOL     OW24946   6.842   3.500   6.537  0.6256 -0.5670  0.6050
 4158SOL    HW124947   6.905   3.507   6.614  0.0176  0.1208  1.0507
 4158SOL    HW224948   6.813   3.592   6.509 -0.1548 -0.8691  0.3985
 4159SOL     OW24949   0.400   5.561   0.931  0.2789 -0.3177 -0.4063
 4159SOL    HW124950   0.311   5.515   0.926  1.0425 -1.8536 -0.0497
 4159SOL    HW224951   0.415   5.613   0.847 -0.1183 -1.6151 -1.2947
 4160SOL     OW24952   2.193   4.033   4.969  0.3065 -0.1893 -0.2538
 4160SOL    HW124953   2.226   4.034   4.874  0.6419 -0.2562 -0.1414
 4160SOL    HW224954   2.186   4.127   5.003  2.7164 -0.2399  0.5039
 4161SOL     OW24955   1.884   6.415   0.729  0.2803  0.2490 -0.0812
 4161SOL    HW124956   1.807   6.433   0.791 -0.1721 -0.2565 -0.4858
 4161SOL    HW224957   1.935   6.336   0.764 -1.0650 -1.2117 -1.3215
 4162SOL     OW24958   4.828   4.771   6.957 -0.2001  0.2054  0.5735
 4162SOL    HW124959   4.780   4.685   6.941 -0.0424 -0.0635  1.4953
 4162SOL    HW224960   4.885   4.793   6.878  0.3940 -0.9632  0.6620
 4163SOL     OW24961   4.945   0.529   5.339  0.1907 -0.4486 -0.0071
 4163SOL    HW124962   4.899   0.451   5.381  1.0678 -0.1849  1.4876
 4163SOL    HW224963   5.043   0.510   5.331 -0.0210 -0.6429 -2.3257
 4164SOL     OW24964   7.822   1.969   3.415 -0.2106  0.2079 -0.1889
 4164SOL    HW124965   7.770   1.892   3.378  0.0998 -1.4764  2.7375
 4164SOL    HW224966   7.760   2.036   3.455 -0.5215  1.8418 -3.2373
 4165SOL     OW24967   4.863   0.137   0.027 -0.7141 -0.1545  0.1645
 4165SOL    HW124968   4.875   0.120  -0.071  0.4238  0.1487  0.2540
 4165SOL    HW224969   4.790   0.078   0.062  0.2445 -1.7311 -0.4566
 4166SOL     OW24970   6.813   6.632   5.841  0.1249  0.3724  0.0505
 4166SOL    HW124971   6.816   6.681   5.928 -0.2880  0.1096  0.2162
 4166SOL    HW224972   6.821   6.697   5.766  0.6664  0.5804  0.2923
 4167SOL     OW24973   8.304   0.797   5.340 -0.3671 -0.2325 -0.3624
 4167SOL    HW124974   8.363   0.717   5.354  0.5821  0.0689 -2.4663
 4167SOL    HW224975   8.226   0.771   5.283 -0.6800  0.0875 -0.0817
 4168SOL     OW24976   0.657   3.550   3.072 -0.8261 -0.2158 -0.5054
 4168SOL    HW124977   0.749   3.577   3.041  0.5188 -2.2854  1.4900
 4168SOL    HW224978   0.628   3.468   3.023 -1.1493 -0.1788 -0.3781
 4169SOL     OW24979   4.883   3.466   2.970  0.0616  0.0024  0.7501
 4169SOL    HW124980   4.787   3.454   2.997  0.3958  2.3086  3.1959
 4169SOL    HW224981   4.912   3.388   2.916 -3.7181  0.0825 -1.6231
 4170SOL     OW24982   3.855   3.176   6.886  0.0561  0.1089 -0.2071
 4170SOL    HW124983   3.783   3.178   6.955  0.4468 -0.3645  0.2247
 4170SOL    HW224984   3.938   3.135   6.926  0.7825  1.2876 -0.4802
 4171SOL     OW24985   1.655   8.223   4.198  0.7078 -0.0701 -0.1603
 4171SOL    HW124986   1.683   8.135   4.237 -0.2728 -0.5555 -0.5202
 4171SOL    HW224987   1.734   8.269   4.159  1.6035  0.1599  1.8895
 4172SOL     OW24988   6.599   8.618   6.879  0.3636 -0.2861  0.0841
 4172SOL    HW124989   6.580   8.713   6.904  1.2705 -0.1132  0.1382
 4172SOL    HW224990   6.604   8.562   6.962  1.8679  0.0077  0.2012
 4173SOL     OW24991   0.654   5.067   3.341 -0.0394  1.1113 -0.3652
 4173SOL    HW124992   0.680   5.021   3.256  0.7123  2.7623 -1.0540
 4173SOL    HW224993   0.657   5.002   3.417 -0.1056 -0.2256 -1.4961
 4174SOL     OW24994   7.361   7.043   0.984  0.3039 -0.2404  0.3695
 4174SOL    HW124995   7.450   7.001   0.965 -0.4142 -0.2629 -3.3764
 4174SOL    HW224996   7.358   7.134   0.942 -1.4834 -0.3051  0.3291
 4175SOL     OW24997   6.129   1.220   1.569  0.2813 -0.2619  0.5631
 4175SOL    HW124998   6.049   1.171   1.533 -0.0567 -0.1973  1.2204
 4175SOL    HW224999   6.099   1.287   1.637  0.6000  1.7751 -1.2491
 4176SOL     OW25000   5.022   3.860   7.145 -0.1312  0.6919 -0.0373
 4176SOL    HW125001   5.049   3.843   7.051  0.5774  2.5989 -0.1897
 4176SOL    HW225002   5.045   3.780   7.202 -0.7810 -0.5565 -1.4956
 4177SOL     OW25003   8.953   0.243   8.719  0.2800  0.0461  0.1865
 4177SOL    HW125004   8.941   0.144   8.729  0.4122 -0.1365 -1.3858
 4177SOL    HW225005   8.887   0.291   8.777 -0.1477 -0.9616  0.5405
 4178SOL     OW25006   3.902   4.469   8.051  0.0225  0.6465 -0.1809
 4178SOL    HW125007   3.859   4.509   8.132 -0.6722  0.2264 -0.3308
 4178SOL    HW225008   3.992   4.510   8.037 -0.1071  1.1627  0.4483
 4179SOL     OW25009   4.412   8.480   2.434 -0.2485 -0.0114  0.0785
 4179SOL    HW125010   4.412   8.453   2.338  1.3020  0.7512 -0.1466
 4179SOL    HW225011   4.486   8.545   2.451 -1.3450  0.9085  1.5062
 4180SOL     OW25012   7.078   6.616   0.897 -0.8254  0.1392  0.3185
 4180SOL    HW125013   7.140   6.565   0.837 -3.4220 -0.8778 -1.6481
 4180SOL    HW225014   7.110   6.711   0.905  1.0411 -0.3908 -0.5079
 4181SOL     OW25015   3.779   6.513   2.129  0.0174 -0.0971  0.4267
 4181SOL    HW125016   3.738   6.576   2.064  1.4171 -0.9259 -1.3114
 4181SOL    HW225017   3.867   6.481   2.094 -0.4814 -2.7270  1.4065
 4182SOL     OW25018   0.306   2.740   5.060 -0.9355 -0.4159  0.3387
 4182SOL    HW125019   0.398   2.770   5.086 -0.2696 -2.0372 -0.1340
 4182SOL    HW225020   0.293   2.645   5.087 -2.1042 -0.5229 -0.5756
 4183SOL     OW25021   3.726   4.245   5.230  0.6237 -0.5207  0.3242
 4183SOL    HW125022   3.714   4.235   5.328 -0.6692  1.6856  0.4241
 4183SOL    HW225023   3.646   4.210   5.182  0.2552  0.4952  0.1868
 4184SOL     OW25024   2.080   8.781   2.095  0.2659 -0.0815 -0.3896
 4184SOL    HW125025   1.990   8.740   2.079  0.9417 -2.2617  1.1779
 4184SOL    HW225026   2.132   8.782   2.010  0.1178 -2.2640 -0.5307
 4185SOL     OW25027   1.491   1.715   8.737  0.2813  0.1771  0.4227
 4185SOL    HW125028   1.447   1.648   8.677  0.6785 -0.2478  0.6010
 4185SOL    HW225029   1.573   1.750   8.693  0.5657 -0.1253  0.7103
 4186SOL     OW25030   8.884   3.515   0.611  0.0286  0.1516  0.0421
 4186SOL    HW125031   8.834   3.585   0.662  0.9149  1.9469 -1.4936
 4186SOL    HW225032   8.951   3.559   0.551 -1.1080 -1.8610 -2.8066
 4187SOL     OW25033   7.147   2.197   2.248  0.3246  0.2190  0.0963
 4187SOL    HW125034   7.064   2.252   2.247  1.0625  1.3271 -2.0471
 4187SOL    HW225035   7.124   2.104   2.277 -1.9260  0.1247 -1.8241
 4188SOL     OW25036   5.663   5.928   5.814  0.6620 -0.2031 -0.1375
 4188SOL    HW125037   5.664   5.930   5.714  2.9511 -2.0880 -0.1874
 4188SOL    HW225038   5.756   5.928   5.849 -0.0901 -0.7730  1.9729
 4189SOL     OW25039   1.773   8.396   4.021 -0.4241  0.5453 -0.0179
 4189SOL    HW125040   1.793   8.431   3.930  0.2039 -2.6416 -1.1838
 4189SOL    HW225041   1.674   8.399   4.037 -0.6413  0.1547 -1.2481
 4190SOL     OW25042   4.518   0.497   1.101  0.0696  0.2053  0.4200
 4190SOL    HW125043   4.467   0.482   1.016  1.2732 -0.7378 -0.1628
 4190SOL    HW225044   4.615   0.509   1.079  0.3519  0.2179  1.6531
 4191SOL     OW25045   5.100   1.642   8.653 -0.2300 -0.2952 -0.1587
 4191SOL    HW125046   5.045   1.559   8.661 -1.6819  0.7617  1.0830
 4191SOL    HW225047   5.135   1.650   8.560  0.4990 -2.6488 -0.1176
 4192SOL     OW25048   7.885   6.903   0.474 -1.2304  1.0283 -0.5893
 4192SOL    HW125049   7.967   6.882   0.422 -1.3604  0.6084 -0.6275
 4192SOL    HW225050   7.903   6.981   0.535  0.2311 -1.0898  1.8140
 4193SOL     OW25051   4.345   8.859   5.721  0.2971 -0.2745 -0.5471
 4193SOL    HW125052   4.386   8.919   5.653 -1.2002  0.5307 -0.7685
 4193SOL    HW225053   4.257   8.826   5.688  1.4240 -3.1987 -0.7238
 4194SOL     OW25054   1.297   3.013   1.685  0.1859  0.0987  0.3253
 4194SOL    HW125055   1.318   3.085   1.752  1.1012 -0.7948  1.0220
 4194SOL    HW225056   1.301   2.924   1.730 -0.6222 -0.4214 -0.6070
 4195SOL     OW25057   1.769   2.534   4.685  0.0287 -0.0050  0.0593
 4195SOL    HW125058   1.748   2.585   4.601  0.5599 -1.0721 -0.7367
 4195SOL    HW225059   1.841   2.468   4.666 -0.2524 -0.6539  1.2305
 4196SOL     OW25060   3.242   8.759   0.712 -0.2074 -0.3001 -0.3753
 4196SOL    HW125061   3.203   8.729   0.626 -0.4334 -0.6881 -0.1377
 4196SOL    HW225062   3.257   8.680   0.772  0.6503 -0.1239 -0.3497
 4197SOL     OW25063   4.944   4.437   8.871  0.7051 -0.4761 -0.8820
 4197SOL    HW125064   4.951   4.536   8.857  0.2896 -0.7501 -3.2603
 4197SOL    HW225065   4.988   4.390   8.794 -1.7763 -2.1567 -1.3010
 4198SOL     OW25066   5.363   8.768   3.685  0.4609 -0.3332 -0.4414
 4198SOL    HW125067   5.453   8.801   3.712  0.0861 -0.0211  0.4069
 4198SOL    HW225068   5.361   8.668   3.690  0.1158 -0.2324  1.5345
 4199SOL     OW25069   5.292   5.048   3.142  0.3828 -0.1908 -0.4733
 4199SOL    HW125070   5.306   5.097   3.228 -1.3720 -1.8800  0.8010
 4199SOL    HW225071   5.310   5.110   3.065  0.3184  1.8163  1.0958
 4200SOL     OW25072   5.059   1.730   2.537  0.1364 -0.4517 -0.2199
 4200SOL    HW125073   5.128   1.737   2.610 -0.1249 -1.7335  0.1648
 4200SOL    HW225074   4.975   1.776   2.566  0.7160  0.8421 -0.5628
 4201SOL     OW25075   4.162   7.575   5.452 -0.0374 -0.0554 -0.3925
 4201SOL    HW125076   4.066   7.605   5.450 -0.7961 -2.3704 -0.8612
 4201SOL    HW225077   4.169   7.491   5.505  2.0228  0.9464  0.9701
 4202SOL     OW25078   8.012   0.308   6.692 -0.2094  0.0367  0.2638
 4202SOL    HW125079   8.087   0.248   6.720 -0.5875  0.0391  1.3144
 4202SOL    HW225080   8.031   0.402   6.723 -0.6338  0.0397  0.5207
 4203SOL     OW25081   7.921   5.237   2.286  0.1950 -0.2401  0.1270
 4203SOL    HW125082   7.892   5.332   2.300  0.7462 -0.0902  0.2482
 4203SOL    HW225083   8.019   5.229   2.303  0.0470 -0.9509  0.6641
 4204SOL     OW25084   1.938   2.371   3.852  0.0224 -0.7265  0.5393
 4204SOL    HW125085   1.999   2.374   3.772 -0.9383 -1.8130 -0.2547
 4204SOL    HW225086   1.963   2.293   3.909 -0.0609 -0.6573  0.6679
 4205SOL     OW25087   3.738   2.453   5.611  0.0680 -0.7416 -0.2014
 4205SOL    HW125088   3.645   2.489   5.617 -0.4042 -1.8902 -0.5298
 4205SOL    HW225089   3.745   2.390   5.533  0.5127 -2.3626  1.1107
 4206SOL     OW25090   4.853   3.789   5.760 -0.1798  0.3628  0.0974
 4206SOL    HW125091   4.845   3.730   5.840 -0.0817  0.3898  0.1261
 4206SOL    HW225092   4.945   3.828   5.755 -1.1934  3.1438  1.9131
 4207SOL     OW25093   8.452   0.363   3.276 -0.2084  0.6256  0.0220
 4207SOL    HW125094   8.524   0.299   3.303 -1.1951 -0.7304 -0.4962
 4207SOL    HW225095   8.471   0.453   3.314  1.1147 -0.0231  0.9185
 4208SOL     OW25096   4.075   0.954   7.003  0.5967 -0.2490  0.1917
 4208SOL    HW125097   4.072   0.968   7.102 -1.6204 -0.2535  0.1373
 4208SOL    HW225098   4.022   0.873   6.979  0.7967 -0.0244 -1.0442
 4209SOL     OW25099   3.648   0.309   1.019 -0.2204 -0.0920 -0.2997
 4209SOL    HW125100   3.654   0.398   0.975 -0.9893 -0.6472 -1.5668
 4209SOL    HW225101   3.573   0.310   1.086 -1.5608 -0.3857 -1.7749
 4210SOL     OW25102   7.081   6.048   2.318  0.5379  0.6376 -0.1049
 4210SOL    HW125103   6.982   6.049   2.333  0.5808 -0.1966  0.2447
 4210SOL    HW225104   7.128   6.080   2.400  0.7267 -2.9227  1.2265
 4211SOL     OW25105   7.157   5.100   5.504 -0.1690  0.6802 -0.0971
 4211SOL    HW125106   7.211   5.136   5.428 -0.2045 -1.8302 -1.3739
 4211SOL    HW225107   7.219   5.072   5.578  0.2219 -0.7983 -0.9536
 4212SOL     OW25108   8.116   7.571   1.395  0.0738  0.3594 -0.3420
 4212SOL    HW125109   8.072   7.574   1.484 -0.0563 -2.8893 -0.2421
 4212SOL    HW225110   8.082   7.492   1.343  1.7454  0.9359 -2.3966
 4213SOL     OW25111   0.556   7.751   7.199  0.0393  0.4216 -0.1105
 4213SOL    HW125112   0.624   7.691   7.155 -0.2565 -0.1709  0.2310
 4213SOL    HW225113   0.546   7.724   7.295 -2.0837 -0.7473 -0.6438
 4214SOL     OW25114   7.682   5.246   5.960  0.7208  0.1704 -0.1275
 4214SOL    HW125115   7.670   5.168   5.899  1.6339 -0.6131  0.6658
 4214SOL    HW225116   7.595   5.267   6.004  0.8117 -1.4730  0.8985
 4215SOL     OW25117   3.929   1.054   6.554  0.1137  0.1623  0.3769
 4215SOL    HW125118   3.921   0.966   6.506  0.5003  0.3165  0.0285
 4215SOL    HW225119   3.848   1.068   6.611 -0.6262  0.2529 -0.6896
 4216SOL     OW25120   5.422   2.448   5.946 -0.1799 -0.0560 -0.2516
 4216SOL    HW125121   5.507   2.494   5.920  0.2822  1.0580  2.9963
 4216SOL    HW225122   5.348   2.514   5.949 -0.2584 -0.1792  0.9661
 4217SOL     OW25123   5.011   3.847   6.156  0.5492 -0.5911 -0.1889
 4217SOL    HW125124   4.929   3.878   6.206  1.0016 -1.1155  0.8796
 4217SOL    HW225125   5.076   3.923   6.150 -0.0828 -0.0979 -1.2438
 4218SOL     OW25126   4.077   8.107   2.385 -0.4648 -0.3025 -0.0001
 4218SOL    HW125127   4.165   8.124   2.428 -0.9926 -0.5459  1.2036
 4218SOL    HW225128   4.056   8.009   2.390 -1.7081  0.0192  1.5458
 4219SOL     OW25129   0.041   3.271   0.640 -0.1421  0.5609 -0.3012
 4219SOL    HW125130   0.019   3.219   0.722 -0.4447  0.2908 -0.5516
 4219SOL    HW225131  -0.017   3.352   0.635  0.3876  0.9637  0.1322
 4220SOL     OW25132   6.274   3.893   0.330 -0.2368 -0.1872 -0.7189
 4220SOL    HW125133   6.198   3.851   0.279 -1.3935 -2.4389  2.6664
 4220SOL    HW225134   6.353   3.831   0.327  1.2238  1.6855 -3.3567
 4221SOL     OW25135   2.017   6.183   0.795 -0.7967  0.0762  0.1926
 4221SOL    HW125136   2.018   6.090   0.759 -2.5446  0.3413 -0.6081
 4221SOL    HW225137   2.081   6.190   0.871 -0.3079 -1.6589 -0.0377
 4222SOL     OW25138   2.370   2.564   0.020 -0.0590  0.0373 -0.5633
 4222SOL    HW125139   2.398   2.645  -0.033  2.1971  0.1200  0.7166
 4222SOL    HW225140   2.448   2.503   0.032 -0.5748 -0.0851  2.5038
 4223SOL     OW25141   5.857   7.432   6.646 -0.6545 -0.1579 -0.0467
 4223SOL    HW125142   5.926   7.504   6.659 -0.5946 -0.4709  1.4798
 4223SOL    HW225143   5.767   7.469   6.668 -0.6747 -0.4089  0.3066
 4224SOL     OW25144   2.185   6.670   8.019  0.8183  0.9269  0.2992
 4224SOL    HW125145   2.141   6.661   7.930  1.6247  2.3650 -0.2618
 4224SOL    HW225146   2.197   6.580   8.060 -1.1835  0.3827 -0.2456
 4225SOL     OW25147   6.994   6.064   5.644  0.2770 -0.4916  0.7221
 4225SOL    HW125148   6.962   5.986   5.588  1.7000 -0.9235  0.4924
 4225SOL    HW225149   7.079   6.099   5.605  0.7872 -0.2013  2.1058
 4226SOL     OW25150   0.418   6.465   6.950  0.0174  0.5456  0.2389
 4226SOL    HW125151   0.355   6.409   7.004  0.2588  0.4200  0.3912
 4226SOL    HW225152   0.397   6.454   6.852  1.6377 -1.7598  0.1008
 4227SOL     OW25153   7.519   6.723   5.715 -0.3210  0.3378  0.6535
 4227SOL    HW125154   7.427   6.738   5.677 -0.4537  2.8097  1.8395
 4227SOL    HW225155   7.560   6.812   5.738  2.6390 -0.6992 -0.4656
 4228SOL     OW25156   7.088   6.779   8.105 -0.0805 -0.2879 -0.2704
 4228SOL    HW125157   6.998   6.821   8.105  0.3403  0.6207 -0.6564
 4228SOL    HW225158   7.141   6.810   8.026  0.5119 -0.9500 -0.1500
 4229SOL     OW25159   0.484   6.569   1.870 -0.0988 -0.4098 -0.0160
 4229SOL    HW125160   0.513   6.507   1.942 -0.9102 -1.5406 -0.6428
 4229SOL    HW225161   0.564   6.602   1.820  0.4199 -0.0304  1.0691
 4230SOL     OW25162   4.622   7.511   0.116 -0.0951  0.0445 -0.1277
 4230SOL    HW125163   4.600   7.558   0.031  0.3846 -0.9553 -0.8116
 4230SOL    HW225164   4.717   7.528   0.141 -0.0529 -0.1904 -0.1281
 4231SOL     OW25165   7.123   6.608   5.767  0.0871 -0.3544 -0.1251
 4231SOL    HW125166   7.123   6.624   5.866  0.8857  0.2842 -0.2233
 4231SOL    HW225167   7.040   6.558   5.742 -1.5516  2.0248  0.4487
 4232SOL     OW25168   7.641   2.836   1.362  0.2376  0.0860 -0.2711
 4232SOL    HW125169   7.598   2.801   1.446  2.3362 -1.1948  0.3174
 4232SOL    HW225170   7.571   2.853   1.293 -1.5790  1.4970  1.8510
 4233SOL     OW25171   5.394   0.429   8.489  0.6628 -0.2018 -0.3330
 4233SOL    HW125172   5.299   0.419   8.459  0.4795  2.9760 -0.9991
 4233SOL    HW225173   5.396   0.453   8.586  0.8591 -1.6175  0.0185
 4234SOL     OW25174   3.045   1.423   7.335 -0.1700 -0.2629  0.3174
 4234SOL    HW125175   2.945   1.424   7.327 -0.2163  0.8119  0.8818
 4234SOL    HW225176   3.075   1.334   7.368 -0.7721 -1.2881 -1.8317
 4235SOL     OW25177   0.610   5.333   7.475 -0.3824 -0.0487  0.2472
 4235SOL    HW125178   0.608   5.406   7.407 -0.8419  1.5876  1.9588
 4235SOL    HW225179   0.687   5.273   7.457 -0.0826  0.7816 -1.2983
 4236SOL     OW25180   8.585   3.977   3.261  0.3788  0.1229 -0.8168
 4236SOL    HW125181   8.541   4.057   3.220  1.3948  0.9641 -0.2912
 4236SOL    HW225182   8.674   3.962   3.218  0.2809 -0.6167 -0.7764
 4237SOL     OW25183   7.274   5.973   2.824  0.3862  0.6483 -0.2558
 4237SOL    HW125184   7.316   6.011   2.906 -0.7321 -1.2752  1.2413
 4237SOL    HW225185   7.297   5.876   2.816  0.5872  0.8519 -2.2843
 4238SOL     OW25186   7.098   0.917   1.838 -0.1005  0.3326  0.1495
 4238SOL    HW125187   7.035   0.957   1.904 -1.4191 -0.1504 -0.7890
 4238SOL    HW225188   7.121   0.824   1.866 -0.9003  0.0170 -0.2083
 4239SOL     OW25189   1.503   0.830   2.396  0.2283 -0.5615  0.0245
 4239SOL    HW125190   1.436   0.756   2.398  0.2793 -0.6396 -0.8415
 4239SOL    HW225191   1.545   0.840   2.486 -0.8188 -0.6283  0.5311
 4240SOL     OW25192   2.739   1.199   7.482  0.1910  0.3630 -0.4315
 4240SOL    HW125193   2.749   1.221   7.385 -0.2625 -0.5145 -0.6827
 4240SOL    HW225194   2.679   1.120   7.492  2.5165 -1.3443  0.3882
 4241SOL     OW25195   4.310   4.036   5.859  0.0259 -0.1669 -0.2459
 4241SOL    HW125196   4.302   3.987   5.946  0.7620 -0.0856 -0.1301
 4241SOL    HW225197   4.314   3.970   5.784 -0.6722 -0.2355 -0.2275
 4242SOL     OW25198   3.735   8.165   0.203  0.1416  0.7682 -0.1689
 4242SOL    HW125199   3.738   8.145   0.301 -0.8003  0.1042 -0.2692
 4242SOL    HW225200   3.647   8.206   0.180  0.9783  2.4595 -0.4666
 4243SOL     OW25201   6.397   5.869   6.254 -0.1152  0.6485  0.2833
 4243SOL    HW125202   6.486   5.845   6.216  0.5629  0.2667  2.0779
 4243SOL    HW225203   6.352   5.788   6.291  0.3543  1.3900  2.5682
 4244SOL     OW25204   3.575   8.566   0.209  0.4209 -0.0233  0.4022
 4244SOL    HW125205   3.657   8.538   0.259  0.5639 -0.0368  0.1635
 4244SOL    HW225206   3.592   8.655   0.166  1.2008 -1.1688 -1.7219
 4245SOL     OW25207   1.029   8.359   4.402  0.8450 -0.3503 -0.6638
 4245SOL    HW125208   1.117   8.312   4.394  1.1423  0.3302 -1.5561
 4245SOL    HW225209   1.030   8.416   4.484  2.2087  1.5896 -1.9780
 4246SOL     OW25210   5.499   5.800   2.245  0.6512  0.8004 -0.1131
 4246SOL    HW125211   5.463   5.711   2.218  0.0945  1.4156 -1.4507
 4246SOL    HW225212   5.512   5.857   2.164  0.5694  2.0976  0.7663
 4247SOL     OW25213   4.303   3.592   8.495  0.3623  0.6487  0.1233
 4247SOL    HW125214   4.335   3.497   8.498 -1.3161  0.0133 -1.3243
 4247SOL    HW225215   4.344   3.644   8.570  2.4331 -0.8577  0.0743
 4248SOL     OW25216   0.627   0.437   5.122 -0.0736  0.0143  0.2706
 4248SOL    HW125217   0.612   0.521   5.175 -0.6359 -1.3009  2.2346
 4248SOL    HW225218   0.539   0.402   5.089  0.0988 -0.1640 -0.0077
 4249SOL     OW25219   6.210   2.065   1.882 -1.1573  0.2392 -0.0907
 4249SOL    HW125220   6.221   1.975   1.840 -2.6182 -0.3228  0.6920
 4249SOL    HW225221   6.283   2.125   1.851  0.5943 -1.5943  0.3433
 4250SOL     OW25222   3.225   4.862   7.961 -0.1499 -0.4767 -0.3031
 4250SOL    HW125223   3.174   4.779   7.937 -0.3593 -0.4946  0.1952
 4250SOL    HW225224   3.308   4.867   7.906  0.1206 -1.2818  0.0164
 4251SOL     OW25225   8.414   0.983   5.023 -0.2953 -0.2000  0.6288
 4251SOL    HW125226   8.334   0.926   5.041  0.1760 -1.2560 -0.5083
 4251SOL    HW225227   8.389   1.080   5.028 -1.7772 -0.5318 -0.3112
 4252SOL     OW25228   6.608   8.468   7.425  0.7839  0.3000  0.1917
 4252SOL    HW125229   6.648   8.536   7.487 -0.7934  2.6829 -1.3325
 4252SOL    HW225230   6.526   8.429   7.467  0.5232  0.8790  0.2372
 4253SOL     OW25231   6.422   1.051   2.447 -0.2130 -0.2944  0.2370
 4253SOL    HW125232   6.493   1.069   2.379  0.1086 -2.2831  0.0291
 4253SOL    HW225233   6.374   1.136   2.468  0.9947  0.7112 -1.0039
 4254SOL     OW25234   4.536   6.539   6.453  0.2833  0.2088 -0.8120
 4254SOL    HW125235   4.450   6.583   6.425 -0.1434 -1.5844 -2.3754
 4254SOL    HW225236   4.546   6.452   6.406  0.7748 -1.7654  2.7145
 4255SOL     OW25237   6.237   4.643   5.836 -0.4564 -0.5199  0.3295
 4255SOL    HW125238   6.277   4.583   5.768  1.4749  1.1130 -0.0039
 4255SOL    HW225239   6.267   4.614   5.928 -0.0621 -0.4627  0.2190
 4256SOL     OW25240   1.123   3.783   0.216 -0.3903 -0.1869  0.4945
 4256SOL    HW125241   1.052   3.744   0.157 -0.6501 -0.1526  0.7838
 4256SOL    HW225242   1.123   3.734   0.304 -2.2752  1.9472  1.7459
 4257SOL     OW25243   0.679   3.707   4.929 -0.1999  0.2954  0.2726
 4257SOL    HW125244   0.699   3.669   4.839 -0.5262 -0.1453  0.3863
 4257SOL    HW225245   0.721   3.797   4.937 -0.1529  0.3253 -0.3105
 4258SOL     OW25246   8.322   7.557   2.037 -0.8694  0.5415 -0.2810
 4258SOL    HW125247   8.230   7.554   1.997 -0.8565  0.2548 -0.2949
 4258SOL    HW225248   8.328   7.492   2.113 -0.8056  0.8693 -0.0021
 4259SOL     OW25249   2.849   4.705   8.215  0.4032 -0.1259  0.1432
 4259SOL    HW125250   2.755   4.723   8.245  0.3419 -0.2290  0.0104
 4259SOL    HW225251   2.855   4.614   8.176  0.2414  0.4136 -1.1630
 4260SOL     OW25252   4.007   3.463   3.136 -0.5301  0.3750 -0.4621
 4260SOL    HW125253   3.958   3.406   3.202 -0.7139 -0.0876 -0.9959
 4260SOL    HW225254   3.995   3.425   3.044  1.1174  0.0450 -0.5598
 4261SOL     OW25255   2.613   1.286   5.374 -0.3303  0.1725 -0.1302
 4261SOL    HW125256   2.619   1.337   5.288  1.9566  2.1795  1.1462
 4261SOL    HW225257   2.548   1.331   5.435 -0.0104  0.2459  0.1559
 4262SOL     OW25258   4.046   1.904   1.240  0.1387  0.2725  0.2918
 4262SOL    HW125259   3.957   1.921   1.197  0.5563 -0.4583 -0.9105
 4262SOL    HW225260   4.058   1.964   1.319 -1.3032  0.5689  0.2939
 4263SOL     OW25261   3.449   7.347   3.539 -0.4976 -0.5406  0.2431
 4263SOL    HW125262   3.527   7.340   3.476  0.4259  1.1801  1.1507
 4263SOL    HW225263   3.448   7.267   3.599  0.2764 -0.8309 -0.1162
 4264SOL     OW25264   0.599   7.165   0.534  0.0640 -0.4635 -0.5211
 4264SOL    HW125265   0.506   7.203   0.540  0.7906  1.1890  0.6160
 4264SOL    HW225266   0.624   7.154   0.438 -1.4433 -1.2866 -0.8450
 4265SOL     OW25267   6.032   4.139   7.153  0.0446  0.1234  0.3007
 4265SOL    HW125268   6.046   4.040   7.154  0.2928  0.1557  0.1135
 4265SOL    HW225269   6.006   4.171   7.244 -0.5083 -0.1821  0.2464
 4266SOL     OW25270   2.634   3.929   4.067  0.6696 -0.2385 -0.3294
 4266SOL    HW125271   2.724   3.928   4.024  1.0741  0.5356  0.4895
 4266SOL    HW225272   2.614   3.839   4.106  1.2100 -0.3273 -0.2635
 4267SOL     OW25273   5.334   6.269   4.894 -0.2756  0.3316  0.1716
 4267SOL    HW125274   5.313   6.297   4.988 -0.1935 -0.0648  0.3111
 4267SOL    HW225275   5.251   6.275   4.838  0.0109  2.0297 -0.1067
 4268SOL     OW25276   5.215   5.288   6.048 -0.0978  0.3775 -0.3675
 4268SOL    HW125277   5.235   5.212   6.110 -1.0255  1.5769  1.4454
 4268SOL    HW225278   5.294   5.348   6.041  0.0494  0.1729 -0.4483
 4269SOL     OW25279   7.461   3.579   8.446  0.1689  0.4328  0.2653
 4269SOL    HW125280   7.392   3.532   8.502  0.6191  1.7756  1.9991
 4269SOL    HW225281   7.546   3.527   8.447 -0.5637 -0.8509 -1.2779
 4270SOL     OW25282   6.392   7.672   1.614 -0.0137  0.0633 -0.0988
 4270SOL    HW125283   6.367   7.614   1.537 -0.4760  0.6886 -0.4243
 4270SOL    HW225284   6.355   7.764   1.600  1.6328  0.7535 -0.1415
 4271SOL     OW25285   3.251   4.610   0.916 -0.3585  0.1353  0.2824
 4271SOL    HW125286   3.154   4.631   0.916 -0.2114  0.8092  0.5726
 4271SOL    HW225287   3.284   4.603   0.822 -0.4936  0.7791  0.1888
 4272SOL     OW25288   5.550   7.382   8.368  0.1853  0.1744  0.0314
 4272SOL    HW125289   5.514   7.321   8.439  0.0775  0.6700  0.4015
 4272SOL    HW225290   5.606   7.453   8.410 -1.2453  1.4735 -0.2032
 4273SOL     OW25291   5.651   2.208   2.949 -0.6137 -0.0392  0.2740
 4273SOL    HW125292   5.604   2.156   3.021 -1.0860 -1.4964 -1.0705
 4273SOL    HW225293   5.586   2.227   2.875 -0.3872  2.2903  0.6495
 4274SOL     OW25294   8.740   3.308   3.935 -0.0182  0.0107  0.0971
 4274SOL    HW125295   8.735   3.373   4.011  0.8333  0.5294 -0.2893
 4274SOL    HW225296   8.661   3.321   3.874 -1.9081 -1.8536  2.0189
 4275SOL     OW25297   6.472   1.196   7.790  0.5242  0.1874  0.1716
 4275SOL    HW125298   6.379   1.218   7.818 -0.2620  0.6088 -2.5693
 4275SOL    HW225299   6.529   1.278   7.794  0.8391 -0.1138  2.0327
 4276SOL     OW25300   3.958   7.603   1.916  0.1699  0.2430  0.2185
 4276SOL    HW125301   4.005   7.520   1.885 -1.9413 -0.8439 -0.1043
 4276SOL    HW225302   4.007   7.641   1.995  1.9866 -0.4579 -0.5459
 4277SOL     OW25303   4.963   4.023   3.961 -0.3730 -0.3878  0.4939
 4277SOL    HW125304   4.997   4.116   3.973  0.4590 -0.7006  0.5532
 4277SOL    HW225305   4.872   4.026   3.920 -0.6496  0.4776  1.1629
 4278SOL     OW25306   8.693   4.717   0.001 -0.1752 -0.2496 -0.3410
 4278SOL    HW125307   8.659   4.673   0.084  0.5069  0.7569  0.4856
 4278SOL    HW225308   8.628   4.701  -0.073 -0.9193 -0.9542  0.4359
 4279SOL     OW25309   3.193   0.374   1.515 -0.6188  0.2420  0.4807
 4279SOL    HW125310   3.153   0.357   1.605 -1.6091  1.5618  0.3084
 4279SOL    HW225311   3.292   0.381   1.524 -0.9090  3.5823  2.0590
 4280SOL     OW25312   3.162   6.764   7.228  0.5509 -0.1117 -0.0309
 4280SOL    HW125313   3.176   6.669   7.257 -0.2277 -0.3419 -0.4015
 4280SOL    HW225314   3.112   6.814   7.298  0.7468 -0.0422  0.0583
 4281SOL     OW25315   8.481   6.226   8.434 -0.1114 -0.3002 -0.1521
 4281SOL    HW125316   8.397   6.251   8.482  0.8022  0.5656  1.0444
 4281SOL    HW225317   8.476   6.131   8.405 -0.9512 -0.6557  1.1163
 4282SOL     OW25318   2.635   6.500   1.425 -0.0316  0.0381  0.3544
 4282SOL    HW125319   2.674   6.446   1.500  0.5651  1.6352  1.2136
 4282SOL    HW225320   2.567   6.445   1.377  2.1552 -2.2957 -0.2150
 4283SOL     OW25321   7.838   8.810   6.960  0.1617 -1.0607  0.2056
 4283SOL    HW125322   7.881   8.900   6.952 -1.7532 -0.0048  1.5876
 4283SOL    HW225323   7.793   8.788   6.873  0.5016 -0.6155 -0.0901
 4284SOL     OW25324   5.982   2.299   2.073 -0.0560 -0.5399 -0.8257
 4284SOL    HW125325   6.038   2.337   2.147 -0.2474 -0.9610 -0.4663
 4284SOL    HW225326   6.020   2.327   1.985  0.9340 -1.1180 -0.5859
 4285SOL     OW25327   8.075   4.756   1.383  0.1694 -0.0209  0.5221
 4285SOL    HW125328   7.978   4.754   1.406 -0.3359  0.2996 -1.5185
 4285SOL    HW225329   8.126   4.800   1.457 -1.2344 -0.1662  1.5948
 4286SOL     OW25330   1.706   5.415   5.939 -0.1015  0.1583 -0.4328
 4286SOL    HW125331   1.747   5.396   6.028 -0.6327  0.8018 -0.0451
 4286SOL    HW225332   1.729   5.509   5.912 -1.8488  0.7677  0.0968
 4287SOL     OW25333   7.730   6.557   8.269  0.0009  0.0147  0.3356
 4287SOL    HW125334   7.717   6.478   8.209 -0.4571  0.4809 -0.1868
 4287SOL    HW225335   7.673   6.546   8.351 -0.9466  0.3246 -0.2617
 4288SOL     OW25336   1.957   2.272   2.311 -0.6836  0.0996  0.6069
 4288SOL    HW125337   1.918   2.194   2.263 -1.8965  1.2929 -0.3957
 4288SOL    HW225338   1.912   2.282   2.400 -0.5127 -0.3575  0.7432
 4289SOL     OW25339   8.879   0.916   5.920  0.8881 -0.5389  0.5144
 4289SOL    HW125340   8.941   0.935   5.843  1.5630 -0.0303  1.1808
 4289SOL    HW225341   8.792   0.880   5.884  0.8391  0.6004 -0.5508
 4290SOL     OW25342   1.619   3.933   4.532 -0.0070  0.2989 -0.0814
 4290SOL    HW125343   1.586   3.843   4.558 -0.8387  1.0399  1.4992
 4290SOL    HW225344   1.709   3.949   4.573  0.0409  0.2686 -0.1757
 4291SOL     OW25345   4.063   1.437   2.730  0.3184 -0.0595  0.6251
 4291SOL    HW125346   3.985   1.424   2.669 -1.1207  0.2248  2.3691
 4291SOL    HW225347   4.032   1.473   2.818  2.9030  4.2674 -0.0825
 4292SOL     OW25348   4.148   5.224   3.917  0.4522  0.3405 -0.6081
 4292SOL    HW125349   4.068   5.235   3.977  0.8050 -0.7132  0.0902
 4292SOL    HW225350   4.191   5.312   3.901  0.9027  0.5262  1.4918
 4293SOL     OW25351   6.865   5.846   2.243  0.0976  0.3359  0.0510
 4293SOL    HW125352   6.944   5.788   2.223 -0.9594 -1.1682  0.1729
 4293SOL    HW225353   6.846   5.844   2.341 -0.4383  0.2492 -0.0535
 4294SOL     OW25354   6.599   2.692   0.313 -0.2956  0.0057  0.4062
 4294SOL    HW125355   6.586   2.668   0.217 -1.6749  1.0638  0.3070
 4294SOL    HW225356   6.687   2.657   0.345  0.1156 -0.4630 -1.1994
 4295SOL     OW25357   5.891   8.437   0.614  0.0503 -0.3468 -0.0063
 4295SOL    HW125358   5.931   8.430   0.523  0.4329 -0.1871  0.1453
 4295SOL    HW225359   5.957   8.403   0.682 -0.1480 -0.2592  0.2315
 4296SOL     OW25360   7.003   3.785   3.235  0.3904  0.4146 -0.0579
 4296SOL    HW125361   6.904   3.794   3.229  0.4368  0.1722 -1.3677
 4296SOL    HW225362   7.046   3.845   3.168  1.0001 -1.9650 -1.8622
 4297SOL     OW25363   0.853   5.916   8.738 -0.3055 -0.4016  0.7969
 4297SOL    HW125364   0.778   5.866   8.781 -0.4350 -0.9754 -0.0812
 4297SOL    HW225365   0.908   5.852   8.683  0.6209  0.0777  1.1580
 4298SOL     OW25366   1.170   6.652   7.951 -0.4283  0.2815 -0.4842
 4298SOL    HW125367   1.101   6.581   7.937 -0.0386 -0.0013 -0.9719
 4298SOL    HW225368   1.230   6.657   7.872 -1.1305  1.9268 -0.9276
 4299SOL     OW25369   5.728   1.546   8.478  0.0411 -0.3352 -0.0769
 4299SOL    HW125370   5.691   1.467   8.527  1.7843 -1.1338  0.0042
 4299SOL    HW225371   5.806   1.583   8.529 -0.3421  1.0086 -0.4645
 4300SOL     OW25372   2.261   3.353   2.473  0.5675 -0.5692 -0.1310
 4300SOL    HW125373   2.196   3.359   2.549  2.1372 -0.6395  1.2537
 4300SOL    HW225374   2.290   3.258   2.462 -0.0321 -0.6405 -1.1656
 4301SOL     OW25375   1.764   1.498   0.261  0.5688 -0.0507 -0.1178
 4301SOL    HW125376   1.823   1.540   0.330  0.5844 -3.3201  1.9178
 4301SOL    HW225377   1.669   1.502   0.291  0.3795 -0.0470 -0.7009
 4302SOL     OW25378   7.865   1.635   1.894 -0.6338  0.3706  0.6590
 4302SOL    HW125379   7.815   1.721   1.898  0.5450  1.0540  0.8369
 4302SOL    HW225380   7.953   1.644   1.941 -1.0218 -1.2863  1.7430
 4303SOL     OW25381   1.291   3.748   2.485  0.6709  0.4374  0.7799
 4303SOL    HW125382   1.251   3.664   2.448  0.0569  0.5540  1.1541
 4303SOL    HW225383   1.221   3.819   2.486  1.0256  0.7810  1.0140
 4304SOL     OW25384   0.643   8.730   3.743 -0.8653  0.4689  0.3809
 4304SOL    HW125385   0.738   8.760   3.751 -0.5670 -0.1516 -0.6782
 4304SOL    HW225386   0.601   8.775   3.664 -0.3386 -1.9931 -1.3892
 4305SOL     OW25387   8.269   5.813   6.768  0.2291 -0.0498  0.8095
 4305SOL    HW125388   8.294   5.910   6.771  1.2590 -0.3366  1.7531
 4305SOL    HW225389   8.177   5.804   6.731  0.2023  1.2751  0.5107
 4306SOL     OW25390   6.237   2.737   0.899  0.4385 -0.7144  0.0760
 4306SOL    HW125391   6.222   2.691   0.811  0.6927 -1.8160  0.5957
 4306SOL    HW225392   6.180   2.694   0.969 -0.2805  0.6036  0.3209
 4307SOL     OW25393   3.680   1.747   1.468 -0.3023  0.2680 -0.4017
 4307SOL    HW125394   3.646   1.681   1.534 -0.1386  0.7981  0.2183
 4307SOL    HW225395   3.604   1.785   1.416 -0.6079  1.0837  0.6353
 4308SOL     OW25396   5.263   1.072   8.043  0.4256  0.0017  0.2802
 4308SOL    HW125397   5.204   0.995   8.066 -1.3532  1.3627  0.4274
 4308SOL    HW225398   5.325   1.090   8.119  0.2811 -0.7564  0.5809
 4309SOL     OW25399   6.246   2.980   6.782  0.5737 -0.1055 -0.4210
 4309SOL    HW125400   6.164   2.937   6.819 -1.7432  2.3116 -2.5882
 4309SOL    HW225401   6.279   2.927   6.704  0.7165 -0.7277  0.0585
 4310SOL     OW25402   5.458   4.108   4.079  0.0845  0.5508  0.3860
 4310SOL    HW125403   5.396   4.038   4.113 -0.0101  0.0901 -0.6922
 4310SOL    HW225404   5.552   4.079   4.093  0.0560 -0.5002 -1.4004
 4311SOL     OW25405   4.068   5.054   3.699  0.1155  0.6396  0.4294
 4311SOL    HW125406   4.103   5.108   3.776 -0.5770  0.7632  0.6601
 4311SOL    HW225407   4.015   5.112   3.638  3.5587  1.3160 -2.0414
 4312SOL     OW25408   1.706   3.507   1.831 -0.2738  0.5017  0.2117
 4312SOL    HW125409   1.783   3.555   1.873 -0.0187  1.9621 -1.8702
 4312SOL    HW225410   1.623   3.561   1.841 -0.3260  0.5844 -0.6399
 4313SOL     OW25411   2.229   4.051   7.297  0.1365  0.2726 -0.1226
 4313SOL    HW125412   2.156   4.119   7.293  0.2057  0.2824 -1.2293
 4313SOL    HW225413   2.195   3.963   7.263  0.1308 -0.1845  1.0359
 4314SOL     OW25414   0.846   4.514   6.808 -0.5405 -0.4871 -0.2993
 4314SOL    HW125415   0.852   4.592   6.745 -0.3021  0.2801  0.6696
 4314SOL    HW225416   0.811   4.434   6.758  0.7580 -0.2194 -1.7215
 4315SOL     OW25417   2.446   3.821   6.190 -0.1581 -0.0842  0.4474
 4315SOL    HW125418   2.416   3.871   6.108 -1.6350 -0.3644  0.8119
 4315SOL    HW225419   2.486   3.885   6.255 -0.5359  0.3779  0.2272
 4316SOL     OW25420   2.921   4.452   1.210 -0.3416  0.7306 -0.2579
 4316SOL    HW125421   2.939   4.543   1.173 -0.1940  1.1919  0.9431
 4316SOL    HW225422   2.949   4.449   1.306 -1.7347 -0.1424  0.1277
 4317SOL     OW25423   4.416   7.529   3.018  0.4627  1.0336  0.7117
 4317SOL    HW125424   4.406   7.510   3.116  1.1578 -0.5101  0.4925
 4317SOL    HW225425   4.498   7.585   3.004  1.8989 -1.0131  0.7641
 4318SOL     OW25426   0.955   6.693   2.444 -0.0799 -0.0003 -0.2318
 4318SOL    HW125427   0.944   6.593   2.436  0.8892 -0.1830  0.5552
 4318SOL    HW225428   0.909   6.725   2.527  2.7334 -0.3581  1.5346
 4319SOL     OW25429   2.269   5.703   4.135 -0.2700  0.0984 -0.4046
 4319SOL    HW125430   2.332   5.778   4.157 -1.3674  0.7725  0.4825
 4319SOL    HW225431   2.268   5.637   4.210 -0.9614  0.3216 -0.2173
 4320SOL     OW25432   3.113   2.015   3.199 -0.2383 -0.5949  0.5600
 4320SOL    HW125433   3.042   2.000   3.131 -0.0247 -0.5074  0.3168
 4320SOL    HW225434   3.084   2.087   3.262 -0.5154 -0.8054  0.6735
 4321SOL     OW25435   4.751   0.259   3.674  0.3005 -0.3190 -0.3952
 4321SOL    HW125436   4.723   0.267   3.578 -0.6773 -0.8711 -0.1718
 4321SOL    HW225437   4.679   0.296   3.732  1.5148  1.3067  0.0748
 4322SOL     OW25438   4.192   6.954   0.139  0.0574 -0.2685  0.1585
 4322SOL    HW125439   4.251   6.997   0.071  0.0570 -0.9310 -0.2595
 4322SOL    HW225440   4.154   6.869   0.102 -2.4017  0.9266 -0.1487
 4323SOL     OW25441   0.830   7.446   1.219  0.3440 -0.0703 -0.4258
 4323SOL    HW125442   0.879   7.531   1.241  0.6754 -0.1961 -0.6714
 4323SOL    HW225443   0.877   7.369   1.262  0.4500 -0.2089 -0.7909
 4324SOL     OW25444   3.800   0.572   6.019 -0.2987  0.3438 -0.1354
 4324SOL    HW125445   3.718   0.629   6.025 -0.8693 -0.6098  1.3740
 4324SOL    HW225446   3.774   0.476   6.014  0.7302 -0.0025  0.8938
 4325SOL     OW25447   0.094   6.467   5.796  0.3624  0.4727  0.1537
 4325SOL    HW125448   0.022   6.511   5.742  1.2922  1.0581 -0.6193
 4325SOL    HW225449   0.119   6.526   5.872 -1.0504 -0.4160  1.3385
 4326SOL     OW25450   3.522   1.522   8.366 -0.6506  0.3006 -0.8180
 4326SOL    HW125451   3.531   1.542   8.268  0.5976  0.1481 -0.7437
 4326SOL    HW225452   3.589   1.576   8.417 -0.7949 -0.1763 -0.1224
 4327SOL     OW25453   4.983   7.215   5.945 -0.1947 -0.2949 -0.4753
 4327SOL    HW125454   4.960   7.313   5.950 -0.6490 -0.3990 -0.5298
 4327SOL    HW225455   5.081   7.205   5.924  0.1174  0.1460  0.7199
 4328SOL     OW25456   5.624   6.282   4.924  0.1438  0.2169  0.0707
 4328SOL    HW125457   5.530   6.259   4.898  0.0177  1.1607 -0.3112
 4328SOL    HW225458   5.632   6.281   5.024 -0.2770  0.1757  0.1051
 4329SOL     OW25459   3.998   6.988   8.902 -0.3775 -0.0441 -0.1070
 4329SOL    HW125460   4.036   6.913   8.955  0.9720  0.5141 -0.2693
 4329SOL    HW225461   4.071   7.052   8.877 -1.2767  0.5755 -1.1863
 4330SOL     OW25462   8.752   5.448   1.569  0.7488 -0.5766  0.2936
 4330SOL    HW125463   8.716   5.469   1.478  0.6287 -0.8428  0.2815
 4330SOL    HW225464   8.758   5.533   1.622 -1.5022 -0.7753  0.8857
 4331SOL     OW25465   8.484   7.034   7.918 -0.1311  0.3367  0.0316
 4331SOL    HW125466   8.513   6.947   7.878 -2.6982 -1.0446  1.0200
 4331SOL    HW225467   8.522   7.110   7.865  2.4497 -1.3704 -0.6285
 4332SOL     OW25468   2.221   2.161   1.859  0.2642  0.3781  0.2686
 4332SOL    HW125469   2.211   2.113   1.772  1.6957  1.3940 -0.4641
 4332SOL    HW225470   2.138   2.215   1.876  0.5952  1.3948 -1.2212
 4333SOL     OW25471   7.144   8.481   2.479  0.1523 -0.4303 -0.2584
 4333SOL    HW125472   7.096   8.433   2.405 -1.1134 -0.4079  0.5392
 4333SOL    HW225473   7.100   8.570   2.495  1.2256  0.1309 -0.3498
 4334SOL     OW25474   2.871   6.313   2.961  0.7141  0.6100  0.2871
 4334SOL    HW125475   2.916   6.305   3.050 -0.1679  1.6303  0.8360
 4334SOL    HW225476   2.915   6.251   2.896  2.4743  1.1042  0.9810
 4335SOL     OW25477   6.128   3.693   3.004  0.2088 -0.0140  0.0287
 4335SOL    HW125478   6.097   3.649   2.920  0.2134  2.6170 -1.4126
 4335SOL    HW225479   6.059   3.679   3.076 -0.9013 -0.3359 -1.0722
 4336SOL     OW25480   5.590   8.629   7.052 -0.2992  0.2807  0.0293
 4336SOL    HW125481   5.599   8.635   7.152 -0.2246 -0.3189  0.0609
 4336SOL    HW225482   5.501   8.590   7.029 -0.0322 -0.2506 -0.1162
 4337SOL     OW25483   3.861   8.823   0.183 -0.4345  0.1669  0.1436
 4337SOL    HW125484   3.817   8.843   0.271 -1.1801 -2.9285  0.5340
 4337SOL    HW225485   3.793   8.829   0.110 -0.6991 -0.9473  0.2823
 4338SOL     OW25486   6.279   3.756   5.593 -0.0496 -0.1367  0.0084
 4338SOL    HW125487   6.321   3.731   5.506 -1.7324 -2.1552 -0.2784
 4338SOL    HW225488   6.183   3.780   5.578  0.3097  1.9970  0.9798
 4339SOL     OW25489   2.719   6.200   3.308 -0.5746 -0.2097  0.3431
 4339SOL    HW125490   2.699   6.221   3.404 -1.3008 -0.9955  0.3695
 4339SOL    HW225491   2.673   6.115   3.282 -0.1888 -0.1260 -0.6390
 4340SOL     OW25492   2.744   7.598   2.102  0.4619 -0.5689 -0.6313
 4340SOL    HW125493   2.785   7.630   2.188  1.6493 -1.0103 -1.0197
 4340SOL    HW225494   2.725   7.500   2.110 -2.6212  0.0373  0.3457
 4341SOL     OW25495   5.337   0.480   4.661 -0.0017 -0.1710  0.4875
 4341SOL    HW125496   5.406   0.424   4.707  1.4194  1.3466  0.2534
 4341SOL    HW225497   5.375   0.518   4.577 -1.3575  0.1407 -0.0085
 4342SOL     OW25498   5.402   6.065   3.627  0.7390  0.0297 -0.1596
 4342SOL    HW125499   5.367   6.120   3.702 -0.7447 -0.1956 -0.6799
 4342SOL    HW225500   5.398   5.968   3.651  0.5284 -0.0259 -0.4106
 4343SOL     OW25501   3.202   5.917   6.896  0.0777 -0.1445 -0.1609
 4343SOL    HW125502   3.146   5.968   6.832 -0.3642  1.0343  1.1382
 4343SOL    HW225503   3.235   5.978   6.968  2.7601 -0.8745 -0.7113
 4344SOL     OW25504   3.923   2.302   6.925 -0.3148  0.2182 -0.0097
 4344SOL    HW125505   3.996   2.355   6.969 -0.2750 -0.0657  0.2669
 4344SOL    HW225506   3.957   2.262   6.840  0.5277 -1.7330  1.1988
 4345SOL     OW25507   5.578   2.457   6.866  0.1919 -0.1565 -0.5610
 4345SOL    HW125508   5.659   2.404   6.891  1.2325  1.3533 -0.6231
 4345SOL    HW225509   5.577   2.542   6.918 -2.3314 -0.9440  0.7471
 4346SOL     OW25510   8.541   5.538   3.088  0.5109 -0.4313  0.0857
 4346SOL    HW125511   8.468   5.603   3.107 -0.1559 -1.4722  1.1011
 4346SOL    HW225512   8.532   5.458   3.147  1.8359 -1.0629 -0.5330
 4347SOL     OW25513   1.659   7.159   1.514 -0.2664 -0.5946  0.3498
 4347SOL    HW125514   1.716   7.077   1.523  0.5469  0.0504  1.0917
 4347SOL    HW225515   1.598   7.166   1.593  0.9388  0.4850  1.2027
 4348SOL     OW25516   0.887   2.603   0.800  0.5481  0.5704  0.1472
 4348SOL    HW125517   0.924   2.524   0.752 -1.1273  0.0879 -0.3926
 4348SOL    HW225518   0.851   2.669   0.734 -0.5911  0.5010  0.6833
 4349SOL     OW25519   5.237   5.846   1.698 -0.2918  0.1667  0.6962
 4349SOL    HW125520   5.225   5.790   1.616 -0.7784  1.1059  0.1255
 4349SOL    HW225521   5.310   5.912   1.684 -0.6758  0.6274  0.8544
 4350SOL     OW25522   3.007   2.419   6.714 -0.0373  0.0751 -0.1560
 4350SOL    HW125523   2.962   2.356   6.778  0.2136 -0.2154 -0.2638
 4350SOL    HW225524   3.052   2.366   6.642  0.5927  0.3637  0.0262
 4351SOL     OW25525   5.659   6.828   8.592  0.7870 -0.1329 -0.3573
 4351SOL    HW125526   5.579   6.876   8.557 -0.4769 -0.9459  1.3426
 4351SOL    HW225527   5.680   6.750   8.534 -1.0463 -1.2440  0.4259
 4352SOL     OW25528   5.274   1.704   2.700 -0.0388 -0.3758 -0.1691
 4352SOL    HW125529   5.344   1.643   2.738  1.5187  0.8371 -1.0620
 4352SOL    HW225530   5.306   1.798   2.704  0.0648 -0.1661 -4.1769
 4353SOL     OW25531   1.859   5.904   4.497  0.5601 -0.0078 -0.1239
 4353SOL    HW125532   1.940   5.915   4.439 -0.2149  1.5663 -0.9362
 4353SOL    HW225533   1.785   5.863   4.444  0.7396 -1.2603  0.5649
 4354SOL     OW25534   7.543   3.907   0.715  0.3986  0.0991  0.0798
 4354SOL    HW125535   7.592   3.919   0.628  1.0531 -0.3724  0.3736
 4354SOL    HW225536   7.496   3.991   0.739  2.0998  0.9603  0.4140
 4355SOL     OW25537   7.966   3.184   0.421  0.3545  0.3376  0.6513
 4355SOL    HW125538   7.872   3.161   0.443  0.1208  0.4276 -0.2321
 4355SOL    HW225539   7.989   3.148   0.330  1.4891 -0.5799  1.2952
 4356SOL     OW25540   8.265   3.135   4.166  0.1274 -0.1120 -0.7294
 4356SOL    HW125541   8.251   3.171   4.074 -1.5835 -0.4802 -0.6362
 4356SOL    HW225542   8.271   3.035   4.162  0.1474 -0.1238 -0.4506
 4357SOL     OW25543   1.872   8.734   3.253  0.1680  0.3028  0.0521
 4357SOL    HW125544   1.867   8.834   3.257 -1.2443  0.1928  1.3677
 4357SOL    HW225545   1.879   8.705   3.158 -0.3720  1.6088 -0.3990
 4358SOL     OW25546   7.596   5.715   3.196 -0.2749  0.1832  0.0172
 4358SOL    HW125547   7.598   5.791   3.261  0.6388 -0.0515  0.2799
 4358SOL    HW225548   7.501   5.693   3.173 -0.6307  0.1121  1.4725
 4359SOL     OW25549   6.709   0.017   7.385  0.6732 -0.0071  0.6840
 4359SOL    HW125550   6.682   0.110   7.410  2.2606  0.0803  2.1860
 4359SOL    HW225551   6.807   0.007   7.399  0.4387 -2.0408  0.9094
 4360SOL     OW25552   8.936   2.929   4.919  0.0761 -0.0871 -0.3180
 4360SOL    HW125553   8.870   2.996   4.887 -0.0014  0.9333  1.8681
 4360SOL    HW225554   9.029   2.965   4.906  0.0013  1.0257  1.9962
 4361SOL     OW25555   8.675   5.868   2.238  0.6263  0.1347  0.2359
 4361SOL    HW125556   8.741   5.918   2.180  0.2229 -2.1166 -2.2853
 4361SOL    HW225557   8.582   5.891   2.210  0.4309 -1.1663 -0.2345
 4362SOL     OW25558   8.347   1.571   3.651  0.3231 -0.3551 -0.1051
 4362SOL    HW125559   8.348   1.645   3.584  1.3955 -0.5425 -0.3049
 4362SOL    HW225560   8.439   1.555   3.684 -0.2723  0.0775  1.8123
 4363SOL     OW25561   8.457   4.442   2.502  0.4319  0.2861  0.2119
 4363SOL    HW125562   8.373   4.457   2.450  0.4163 -0.9012 -0.1399
 4363SOL    HW225563   8.481   4.524   2.553 -1.3073  0.4086  0.8562
 4364SOL     OW25564   6.082   4.632   8.127  0.1344  0.5040  0.4292
 4364SOL    HW125565   6.045   4.603   8.039 -1.6033  0.9289  0.9832
 4364SOL    HW225566   6.034   4.715   8.157 -1.8639 -1.5838  3.4261
 4365SOL     OW25567   8.008   4.090   3.567  0.2752  0.1243 -0.3848
 4365SOL    HW125568   8.076   4.021   3.541 -0.4561 -0.4104 -0.9039
 4365SOL    HW225569   7.938   4.048   3.624  1.8254  1.2767  2.4668
 4366SOL     OW25570   2.837   2.220   5.718 -0.1701 -0.1333 -0.3756
 4366SOL    HW125571   2.810   2.287   5.787 -2.6175 -0.3961 -1.0434
 4366SOL    HW225572   2.756   2.172   5.684  1.1424 -0.8882 -2.5374
 4367SOL     OW25573   7.212   4.137   8.913 -0.3527  0.0453  0.2657
 4367SOL    HW125574   7.194   4.120   9.010  0.3530 -0.7163  0.2757
 4367SOL    HW225575   7.303   4.102   8.890 -0.4288  0.4224 -0.6197
 4368SOL     OW25576   4.849   3.658   0.407  0.1623 -0.3445  0.0622
 4368SOL    HW125577   4.795   3.601   0.345 -3.2080  0.8334  1.7687
 4368SOL    HW225578   4.875   3.742   0.359 -0.4179 -0.4746 -0.4916
 4369SOL     OW25579   6.895   4.866   2.844 -0.0273 -0.1677  0.2616
 4369SOL    HW125580   6.871   4.840   2.938 -1.3800  0.2209  0.0323
 4369SOL    HW225581   6.823   4.923   2.806 -0.1307 -1.4191 -1.4762
 4370SOL     OW25582   1.367   5.543   7.464  0.0265  0.2868  0.0524
 4370SOL    HW125583   1.433   5.547   7.390  0.2759  0.1997  0.2709
 4370SOL    HW225584   1.281   5.584   7.434  0.1432  0.2989 -0.2665
 4371SOL     OW25585   8.988   2.570   2.131 -0.3023  0.1485 -0.0294
 4371SOL    HW125586   8.899   2.613   2.145 -0.5641 -0.4043  0.0480
 4371SOL    HW225587   9.053   2.637   2.095 -0.5271  0.7475  0.6909
 4372SOL     OW25588   4.564   3.130   7.972 -0.0373  0.4178  0.1318
 4372SOL    HW125589   4.566   3.056   8.039  0.0672  1.3730  1.2111
 4372SOL    HW225590   4.480   3.183   7.983 -0.2665  0.2698 -0.8520
 4373SOL     OW25591   0.577   3.721   3.300  0.0233 -0.0597  0.8720
 4373SOL    HW125592   0.594   3.665   3.219  1.8369  1.0365  0.4718
 4373SOL    HW225593   0.582   3.818   3.275  0.5723  0.2863  2.2851
 4374SOL     OW25594   7.220   6.725   8.579 -0.2596 -0.5099  0.1140
 4374SOL    HW125595   7.206   6.734   8.677  2.3177 -1.1690  0.5802
 4374SOL    HW225596   7.145   6.673   8.538 -1.5619  0.1442  1.6438
 4375SOL     OW25597   5.624   1.042   3.317 -0.2452  0.2445  0.4470
 4375SOL    HW125598   5.602   1.040   3.414  0.6396  0.8923  0.6670
 4375SOL    HW225599   5.662   0.953   3.290 -0.8240 -0.0533  0.6124
 4376SOL     OW25600   1.026   2.645   5.215 -0.1024 -0.2822 -0.7743
 4376SOL    HW125601   0.996   2.679   5.126 -0.0177  0.4408 -0.5263
 4376SOL    HW225602   1.058   2.721   5.271  1.4947 -0.9507 -0.7623
 4377SOL     OW25603   2.065   6.257   7.875 -0.0096 -0.0187 -0.1511
 4377SOL    HW125604   1.973   6.251   7.838  0.4764 -1.4838 -1.1749
 4377SOL    HW225605   2.127   6.203   7.818  1.7220  1.9979 -0.2468
 4378SOL     OW25606   2.473   6.011   8.689  0.3438  0.6223 -0.0111
 4378SOL    HW125607   2.393   6.070   8.700 -1.0631 -1.1384 -0.5927
 4378SOL    HW225608   2.494   6.002   8.592 -1.0049 -1.8021 -0.1278
 4379SOL     OW25609   2.656   8.811   8.184  0.5172 -0.4064  0.4998
 4379SOL    HW125610   2.676   8.901   8.148 -0.3587 -0.0391  0.9230
 4379SOL    HW225611   2.692   8.741   8.122  0.9482  0.2254  0.0358
 4380SOL     OW25612   8.972   7.939   5.841 -0.1741 -0.4521  0.3935
 4380SOL    HW125613   9.007   7.987   5.921  0.2751 -0.6503  0.3191
 4380SOL    HW225614   9.022   7.854   5.829 -2.4249 -2.0459  1.8261
 4381SOL     OW25615   7.966   1.139   0.508  0.1834 -0.1648  0.5490
 4381SOL    HW125616   7.995   1.147   0.603  1.2403 -1.8190  0.3932
 4381SOL    HW225617   7.988   1.048   0.474 -0.8543  0.1577 -1.0678
 4382SOL     OW25618   0.679   1.453   2.595  0.0054 -0.1661  0.0928
 4382SOL    HW125619   0.725   1.487   2.677 -1.2480  2.4100 -0.2149
 4382SOL    HW225620   0.593   1.409   2.620  0.0617 -0.1973  0.2305
 4383SOL     OW25621   2.088   3.895   2.867  0.4871  0.1165  0.7743
 4383SOL    HW125622   2.176   3.943   2.868 -0.2852  1.6207 -0.7189
 4383SOL    HW225623   2.074   3.854   2.777  0.6570 -2.0589  1.7115
 4384SOL     OW25624   5.168   4.650   8.009  0.1323  0.4067  0.0231
 4384SOL    HW125625   5.197   4.740   8.042 -1.7089  0.3057  2.1214
 4384SOL    HW225626   5.196   4.580   8.075  0.6906 -0.4340 -1.1026
 4385SOL     OW25627   8.970   7.615   0.673 -0.4667  0.2827  0.3031
 4385SOL    HW125628   8.968   7.709   0.706  0.8391  1.0550 -1.6675
 4385SOL    HW225629   9.042   7.564   0.720  0.4625  0.9788 -0.3433
 4386SOL     OW25630   3.470   6.150   0.931 -0.1535  0.2474 -0.6992
 4386SOL    HW125631   3.474   6.169   1.029 -0.9369 -0.8023 -0.4504
 4386SOL    HW225632   3.430   6.228   0.883 -1.8068 -0.0851  0.1058
 4387SOL     OW25633   1.444   5.890   1.834 -0.1651 -0.0203 -0.0371
 4387SOL    HW125634   1.481   5.797   1.834 -1.1805 -0.4287  0.6660
 4387SOL    HW225635   1.480   5.940   1.755  0.3938 -1.0046 -0.4119
 4388SOL     OW25636   8.793   4.947   1.057  0.0026 -0.5745  0.4125
 4388SOL    HW125637   8.720   4.916   0.997 -1.5047  2.4933  0.5613
 4388SOL    HW225638   8.776   4.914   1.150 -0.4238 -1.0366  0.1712
 4389SOL     OW25639   1.856   5.613   7.308  0.6406  0.0616  0.1324
 4389SOL    HW125640   1.844   5.579   7.402  3.2505  2.0602  1.2529
 4389SOL    HW225641   1.909   5.547   7.255 -1.4788 -1.4187 -0.1859
 4390SOL     OW25642   2.996   8.089   7.345 -0.1712 -0.3850  0.7556
 4390SOL    HW125643   3.094   8.110   7.341 -0.1530 -0.5240  0.4514
 4390SOL    HW225644   2.963   8.101   7.439 -0.1703  1.0341  0.5833
 4391SOL     OW25645   5.581   1.653   8.260 -0.1762 -0.1642  0.4466
 4391SOL    HW125646   5.626   1.634   8.348 -2.1328 -1.2740  1.2635
 4391SOL    HW225647   5.544   1.568   8.223  0.6838  0.2988 -1.4975
 4392SOL     OW25648   2.339   4.604   0.696 -0.4917 -0.3749  0.4283
 4392SOL    HW125649   2.415   4.628   0.635 -1.2174  1.1281  0.0743
 4392SOL    HW225650   2.259   4.580   0.642 -0.7913 -0.1850  0.7825
 4393SOL     OW25651   7.290   8.284   1.103 -0.6401  0.1117  0.2329
 4393SOL    HW125652   7.198   8.322   1.102 -0.7826 -0.2006 -2.1372
 4393SOL    HW225653   7.289   8.193   1.061  0.4847 -0.5346  1.5823
 4394SOL     OW25654   0.811   2.297   7.296  0.0184 -0.1507  0.4559
 4394SOL    HW125655   0.824   2.361   7.221 -2.4535 -0.5014 -0.3167
 4394SOL    HW225656   0.839   2.205   7.267 -1.2915 -0.3593 -0.2147
 4395SOL     OW25657   6.023   8.837   7.797 -0.0486  0.0519  0.2080
 4395SOL    HW125658   6.019   8.877   7.889  1.7416  0.3713  0.1714
 4395SOL    HW225659   5.999   8.740   7.801  2.5248 -0.5718  1.4474
 4396SOL     OW25660   0.121   4.395   1.812  0.2093  0.2018  0.4699
 4396SOL    HW125661   0.109   4.488   1.848 -1.3512 -0.1459  0.8811
 4396SOL    HW225662   0.145   4.400   1.715  2.3228  1.0875  1.0021
 4397SOL     OW25663   2.450   3.532   4.957  0.5119  0.4912  0.2994
 4397SOL    HW125664   2.383   3.492   4.894 -0.8584 -1.2622  2.8158
 4397SOL    HW225665   2.434   3.631   4.963  0.4565  0.6418 -1.8233
 4398SOL     OW25666   3.016   6.902   0.826  0.0993  0.2083  0.7131
 4398SOL    HW125667   3.032   6.950   0.912  1.4687  0.0635  0.5366
 4398SOL    HW225668   3.090   6.837   0.809  0.2547  0.7939 -0.9628
 4399SOL     OW25669   0.308   0.959   6.149 -0.4784 -0.5804 -0.3633
 4399SOL    HW125670   0.211   0.977   6.167 -0.9383 -0.4474 -2.8426
 4399SOL    HW225671   0.316   0.884   6.084  1.1400 -1.4796  0.8469
 4400SOL     OW25672   0.445   5.973   3.956  0.3048  0.2623  0.1645
 4400SOL    HW125673   0.481   5.913   3.884 -0.6518  0.9907 -0.9404
 4400SOL    HW225674   0.354   5.940   3.984 -1.4250  2.7094 -2.3664
 4401SOL     OW25675   2.415   8.319   7.288  0.4818  0.3091 -0.5213
 4401SOL    HW125676   2.491   8.256   7.274 -0.0030 -0.3325 -0.3015
 4401SOL    HW225677   2.374   8.303   7.378  1.8084  2.5168  0.5186
 4402SOL     OW25678   8.136   7.187   2.133 -0.3341 -0.0725  0.3237
 4402SOL    HW125679   8.195   7.233   2.199  3.7442 -1.1881 -2.3416
 4402SOL    HW225680   8.142   7.088   2.146 -2.1200 -0.1974  0.3503
 4403SOL     OW25681   1.112   4.744   7.881 -0.1551 -0.2287 -0.1436
 4403SOL    HW125682   1.064   4.686   7.947 -1.5258  0.4569 -0.5074
 4403SOL    HW225683   1.086   4.718   7.788 -1.1127  1.2158 -0.2981
 4404SOL     OW25684   1.300   5.183   5.415 -0.0144 -0.5198 -0.9773
 4404SOL    HW125685   1.292   5.105   5.477  0.7060  0.4216  0.3203
 4404SOL    HW225686   1.396   5.209   5.407 -0.4178  1.2503 -0.1309
 4405SOL     OW25687   7.285   2.600   0.509  0.0753 -0.3357 -0.1551
 4405SOL    HW125688   7.272   2.504   0.533  1.3329 -0.5458 -0.2696
 4405SOL    HW225689   7.239   2.658   0.577 -1.2316 -1.0303 -0.4590
 4406SOL     OW25690   0.774   6.489   8.637 -0.2578 -0.3799 -0.0895
 4406SOL    HW125691   0.870   6.513   8.620 -0.5490  0.9585  0.1092
 4406SOL    HW225692   0.769   6.412   8.700  0.6838 -0.4485 -0.0939
 4407SOL     OW25693   1.362   4.954   4.151  0.2702 -0.1877  0.1701
 4407SOL    HW125694   1.329   4.956   4.056  0.5861  2.1942  0.1047
 4407SOL    HW225695   1.295   4.904   4.207 -0.9674  0.2235 -0.9035
 4408SOL     OW25696   2.722   7.933   5.745  0.4984 -0.0347  0.0815
 4408SOL    HW125697   2.701   8.000   5.816  1.3239  1.3771 -0.9828
 4408SOL    HW225698   2.820   7.914   5.744  0.1869 -1.8197  0.8432
 4409SOL     OW25699   6.228   1.682   0.789  0.1249 -0.4719  0.0575
 4409SOL    HW125700   6.299   1.661   0.856 -0.8209  0.2653  1.3198
 4409SOL    HW225701   6.176   1.600   0.766 -1.9011 -0.0847  3.0131
 4410SOL     OW25702   2.528   3.783   5.614 -0.0123  0.1182  0.0646
 4410SOL    HW125703   2.587   3.724   5.559 -3.1739 -1.4011 -1.8048
 4410SOL    HW225704   2.554   3.879   5.600  2.4463 -0.5548 -0.1520
 4411SOL     OW25705   0.317   8.200   6.190  0.5406 -0.2084 -0.0404
 4411SOL    HW125706   0.252   8.264   6.150  0.3390 -0.0281  0.5645
 4411SOL    HW225707   0.410   8.233   6.175  0.4122  0.6136  0.9101
 4412SOL     OW25708   5.159   7.021   2.143 -0.1241 -0.3627  0.3292
 4412SOL    HW125709   5.062   7.010   2.125  0.1243 -1.0144 -0.6160
 4412SOL    HW225710   5.183   7.118   2.139 -0.6658 -0.2342  0.2144
 4413SOL     OW25711   1.736   0.274   3.294 -0.3479 -0.0194  0.0974
 4413SOL    HW125712   1.818   0.293   3.239 -0.0331 -1.0699  0.1897
 4413SOL    HW225713   1.759   0.283   3.391 -0.1995 -0.8694  0.1397
 4414SOL     OW25714   4.247   6.790   3.404 -0.1581  0.2546 -0.6197
 4414SOL    HW125715   4.320   6.725   3.426  1.3467  1.5897 -1.5466
 4414SOL    HW225716   4.165   6.740   3.378 -0.2328 -1.3111  2.3637
 4415SOL     OW25717   4.774   4.163   8.046  0.1903 -0.9351  0.3521
 4415SOL    HW125718   4.730   4.150   7.957  0.9669  0.0722 -0.1862
 4415SOL    HW225719   4.708   4.141   8.118  0.3050 -4.1667 -0.4501
 4416SOL     OW25720   8.901   8.014   3.357 -0.5072 -0.0941 -0.5310
 4416SOL    HW125721   8.855   8.097   3.326  3.5880  1.7530 -1.9180
 4416SOL    HW225722   8.923   8.023   3.454  0.2704  0.5889 -0.7724
 4417SOL     OW25723   0.301   7.866   1.343 -0.0023 -0.1020  0.0936
 4417SOL    HW125724   0.366   7.790   1.338  2.8000  1.8494  3.7811
 4417SOL    HW225725   0.226   7.842   1.403 -0.4736 -0.8269 -0.7700
 4418SOL     OW25726   8.621   6.157   4.077 -0.0159  0.1635  0.5647
 4418SOL    HW125727   8.628   6.166   3.977  0.7098  1.1770  0.7048
 4418SOL    HW225728   8.674   6.229   4.121 -1.3096  0.4463  1.6943
 4419SOL     OW25729   8.847   6.652   0.720 -0.4832 -0.0132 -0.6541
 4419SOL    HW125730   8.852   6.725   0.652 -0.4887  0.9057  0.3243
 4419SOL    HW225731   8.810   6.688   0.805 -2.2252 -1.5854 -0.7310
 4420SOL     OW25732   8.992   8.381   4.264 -0.3593 -0.2734  0.3135
 4420SOL    HW125733   9.008   8.480   4.256 -0.6589 -0.1512  1.2142
 4420SOL    HW225734   8.924   8.353   4.196  0.5480 -0.0560 -0.6848
 4421SOL     OW25735   6.510   2.115   3.267 -0.4223  0.7860 -0.2122
 4421SOL    HW125736   6.610   2.107   3.261 -0.1149  1.4078  2.9748
 4421SOL    HW225737   6.471   2.024   3.281 -0.2049  0.6596 -0.4112
 4422SOL     OW25738   4.244   1.170   1.270  0.4067 -0.2604  0.1933
 4422SOL    HW125739   4.168   1.204   1.215 -0.0172 -0.2390  0.7934
 4422SOL    HW225740   4.220   1.081   1.309  1.2093 -0.8958 -0.7183
 4423SOL     OW25741   1.268   3.967   4.777 -0.6490 -0.3662  0.2405
 4423SOL    HW125742   1.350   4.013   4.813  0.7482 -1.9647 -0.8122
 4423SOL    HW225743   1.202   4.035   4.747  0.9466  0.9599 -0.3437
 4424SOL     OW25744   7.695   3.817   1.185 -0.3297  0.0393  0.3127
 4424SOL    HW125745   7.691   3.854   1.278 -1.5673 -1.3702  0.8394
 4424SOL    HW225746   7.628   3.744   1.175  0.5258 -0.5521 -1.3855
 4425SOL     OW25747   3.742   5.606   5.103 -0.6288 -0.4442 -0.7079
 4425SOL    HW125748   3.680   5.574   5.174 -1.5044 -1.8140 -2.0510
 4425SOL    HW225749   3.834   5.618   5.142 -1.5513  0.8370  1.1032
 4426SOL     OW25750   2.049   1.703   2.839 -0.4301 -1.0991 -0.3929
 4426SOL    HW125751   2.109   1.677   2.763 -1.9086 -1.7684 -1.3616
 4426SOL    HW225752   2.028   1.800   2.832  0.9213 -0.7497  0.2344
 4427SOL     OW25753   5.174   8.683   1.811 -0.0006  0.6035  0.7288
 4427SOL    HW125754   5.091   8.687   1.866  0.1433 -0.6615  1.0635
 4427SOL    HW225755   5.229   8.604   1.839  0.4076  0.3349 -0.7516
 4428SOL     OW25756   1.111   2.302   0.229  0.0711  0.3449 -0.5388
 4428SOL    HW125757   1.145   2.290   0.322  0.7164  2.2184 -0.5125
 4428SOL    HW225758   1.166   2.371   0.182  0.8199 -1.7672 -2.8645
 4429SOL     OW25759   3.974   8.652   8.698 -0.7496 -0.4212 -0.2631
 4429SOL    HW125760   3.968   8.681   8.794 -0.9709 -1.0534 -0.0869
 4429SOL    HW225761   3.930   8.563   8.687 -0.9848 -0.2180 -1.0101
 4430SOL     OW25762   5.034   4.746   3.117  0.6737  0.0509  0.0178
 4430SOL    HW125763   5.025   4.835   3.162  2.4598  0.5397 -0.5382
 4430SOL    HW225764   5.056   4.760   3.020  0.9465 -0.9827 -0.0751
 4431SOL     OW25765   3.342   3.870   4.230  0.3672  0.2095  1.0470
 4431SOL    HW125766   3.428   3.859   4.279  0.5341 -1.7613  0.3705
 4431SOL    HW225767   3.358   3.861   4.131 -0.3974  1.2682  0.8156
 4432SOL     OW25768   6.206   5.538   7.405 -1.2240 -0.2112 -0.3813
 4432SOL    HW125769   6.190   5.633   7.429  0.0611 -0.1622  0.3507
 4432SOL    HW225770   6.172   5.479   7.479 -0.3310 -0.2243  0.0252
 4433SOL     OW25771   3.817   4.768   0.630  0.1089  0.1790 -0.4482
 4433SOL    HW125772   3.852   4.860   0.617  0.8701 -0.2457 -1.4733
 4433SOL    HW225773   3.735   4.754   0.573 -0.1306  0.2872 -0.1323
 4434SOL     OW25774   0.324   6.353   5.683  0.1915 -0.4408 -0.9466
 4434SOL    HW125775   0.248   6.400   5.730  2.2660  3.5038 -1.3172
 4434SOL    HW225776   0.400   6.341   5.747  0.4902 -1.3792 -1.4683
 4435SOL     OW25777   3.314   1.695   1.714 -0.7062 -0.2710 -0.6910
 4435SOL    HW125778   3.407   1.662   1.696 -0.4011 -0.2155  0.7100
 4435SOL    HW225779   3.285   1.756   1.641  0.9371  0.8836 -0.4046
 4436SOL     OW25780   4.519   8.154   1.400  0.0660 -0.3428  0.1630
 4436SOL    HW125781   4.477   8.228   1.453  2.3326  1.9345 -1.1034
 4436SOL    HW225782   4.587   8.107   1.456  2.3922  2.0025 -0.6044
 4437SOL     OW25783   4.773   8.580   8.478 -0.1473 -0.4320  0.3138
 4437SOL    HW125784   4.843   8.649   8.457 -0.9081  0.4882  0.7574
 4437SOL    HW225785   4.738   8.541   8.393 -1.2048  1.2562 -0.0640
 4438SOL     OW25786   5.929   7.822   0.208 -0.2114 -0.0180 -0.5031
 4438SOL    HW125787   5.946   7.797   0.303  1.7929 -1.1444 -1.1302
 4438SOL    HW225788   5.942   7.921   0.197  0.0847  0.0345  0.2819
 4439SOL     OW25789   4.762   7.454   7.309  0.4868 -0.1713  0.6117
 4439SOL    HW125790   4.860   7.448   7.329  0.8725 -0.1156 -1.1873
 4439SOL    HW225791   4.740   7.393   7.233 -0.9988 -0.6376  1.4035
 4440SOL     OW25792   0.483   4.089   1.654  0.1296  0.1751  0.1799
 4440SOL    HW125793   0.462   4.057   1.562 -0.0284 -1.7311  0.8519
 4440SOL    HW225794   0.573   4.133   1.655  0.5597 -0.6798 -0.6818
 4441SOL     OW25795   3.320   2.026   1.145 -0.5192 -0.7619  0.8560
 4441SOL    HW125796   3.398   2.086   1.129 -1.4504  0.3489  0.3946
 4441SOL    HW225797   3.311   1.962   1.068 -1.7872  1.0471 -0.5630
 4442SOL     OW25798   4.783   1.915   2.398 -0.0225 -0.0720 -0.0188
 4442SOL    HW125799   4.790   1.877   2.490  0.0008 -0.2007 -0.0739
 4442SOL    HW225800   4.723   1.995   2.400 -0.9788 -0.7794 -0.1051
 4443SOL     OW25801   5.453   2.359   2.568  0.1450 -0.4176  0.1249
 4443SOL    HW125802   5.401   2.354   2.483  1.9135 -0.6653 -0.9770
 4443SOL    HW225803   5.436   2.446   2.613 -0.5746 -0.1624 -0.6411
 4444SOL     OW25804   1.893   6.821   5.892 -0.7143  0.5086 -0.5741
 4444SOL    HW125805   1.848   6.881   5.826  0.5706  1.1517 -0.8842
 4444SOL    HW225806   1.862   6.843   5.984 -1.8516  0.2016 -0.8723
 4445SOL     OW25807   0.331   2.147   2.878  0.2918 -0.0139 -0.1839
 4445SOL    HW125808   0.337   2.229   2.821 -1.0566  1.0201  1.1252
 4445SOL    HW225809   0.259   2.087   2.841  1.1655 -0.5514 -1.0440
 4446SOL     OW25810   2.400   5.292   3.701 -0.0432 -0.2202  0.6654
 4446SOL    HW125811   2.343   5.232   3.758  0.4263 -0.7093  0.6235
 4446SOL    HW225812   2.494   5.289   3.734  0.0990  0.0203  0.2808
 4447SOL     OW25813   5.272   1.744   3.556  0.0004 -0.3963 -0.8053
 4447SOL    HW125814   5.297   1.650   3.581  2.3570  0.7005  1.1135
 4447SOL    HW225815   5.235   1.791   3.636  0.5767  0.8803 -1.2708
 4448SOL     OW25816   7.876   2.994   2.833 -0.3802  0.2863  0.1481
 4448SOL    HW125817   7.936   2.950   2.900 -0.5043  0.7196  0.5399
 4448SOL    HW225818   7.801   2.932   2.809  0.3946 -0.3907 -0.5886
 4449SOL     OW25819   5.622   0.751   3.013 -0.6737 -0.3998  0.1485
 4449SOL    HW125820   5.534   0.785   3.048 -1.9895 -2.4191 -1.1097
 4449SOL    HW225821   5.623   0.761   2.914  0.3495 -0.7872  0.1223
 4450SOL     OW25822   4.701   5.406   5.935  0.0929  0.0071 -0.8753
 4450SOL    HW125823   4.764   5.339   5.974 -0.3137  0.2510  0.2123
 4450SOL    HW225824   4.715   5.412   5.836  1.8685  0.1641 -0.6193
 4451SOL     OW25825   6.218   6.112   4.504  0.5316  0.0562  0.0038
 4451SOL    HW125826   6.299   6.170   4.491 -1.1881  2.7966  1.0476
 4451SOL    HW225827   6.204   6.096   4.602 -0.6296  0.2545 -0.1243
 4452SOL     OW25828   0.245   6.226   7.080  0.1378 -0.3929 -0.0435
 4452SOL    HW125829   0.195   6.192   7.000  0.2003  0.6486 -0.5438
 4452SOL    HW225830   0.295   6.152   7.123 -0.3545 -1.0767 -0.6454
 4453SOL     OW25831   0.265   3.675   4.442  0.0174 -0.0987 -0.5031
 4453SOL    HW125832   0.321   3.757   4.450 -2.1856  1.3803  0.5503
 4453SOL    HW225833   0.319   3.595   4.465  1.7504  1.2491  0.2182
 4454SOL     OW25834   4.326   4.703   6.594 -0.1493  0.2533  0.1559
 4454SOL    HW125835   4.288   4.621   6.550  0.3020  1.1664 -2.0097
 4454SOL    HW225836   4.345   4.772   6.524  1.2150  1.5211  1.7459
 4455SOL     OW25837   8.937   3.932   4.954 -0.2540 -0.2136 -0.0837
 4455SOL    HW125838   9.010   3.961   5.016 -0.8377 -0.3525  0.6723
 4455SOL    HW225839   8.969   3.856   4.898 -0.0679 -0.7856  0.7914
 4456SOL     OW25840   6.822   1.708   8.005  0.3023 -1.0945 -0.2756
 4456SOL    HW125841   6.773   1.755   7.931 -0.7042 -1.2350  0.2878
 4456SOL    HW225842   6.840   1.614   7.978  0.0945 -1.0959 -0.4133
 4457SOL     OW25843   0.065   0.522   0.426 -0.1032  0.5332  0.4240
 4457SOL    HW125844   0.065   0.477   0.515  1.1584 -0.8276 -0.2326
 4457SOL    HW225845   0.059   0.621   0.439  0.0174  0.3526  2.0120
 4458SOL     OW25846   4.117   4.818   0.685  0.5034 -0.5166  0.0069
 4458SOL    HW125847   4.038   4.880   0.685 -0.4686 -1.7275  1.3975
 4458SOL    HW225848   4.201   4.871   0.699 -0.4391  0.3394  2.7281
 4459SOL     OW25849   8.788   7.070   0.256 -0.2446  0.0789  0.0923
 4459SOL    HW125850   8.866   7.016   0.288 -1.2949 -1.3338  0.3112
 4459SOL    HW225851   8.766   7.140   0.324  1.6682  1.3919 -0.5883
 4460SOL     OW25852   4.522   1.778   2.014  0.5735  0.1285  0.6625
 4460SOL    HW125853   4.616   1.791   2.048  1.1237  1.2092 -1.1838
 4460SOL    HW225854   4.464   1.851   2.049  1.1579  1.2910 -0.7291
 4461SOL     OW25855   1.291   3.246   0.730  0.3172 -0.6673 -0.7374
 4461SOL    HW125856   1.349   3.289   0.661  1.2505 -2.3704 -1.0364
 4461SOL    HW225857   1.249   3.164   0.692  3.0381 -3.1910  1.5308
 4462SOL     OW25858   4.656   8.200   8.028  0.1693  0.3385  0.3430
 4462SOL    HW125859   4.731   8.266   8.021 -0.7624  1.5013  0.9809
 4462SOL    HW225860   4.667   8.145   8.110  1.7032 -1.2908 -0.9161
 4463SOL     OW25861   0.466   5.126   3.579  0.5347 -0.0575  0.8759
 4463SOL    HW125862   0.403   5.199   3.554  1.0535 -0.0159 -0.3478
 4463SOL    HW225863   0.417   5.039   3.582  0.3406  0.0335  0.3152
 4464SOL     OW25864   7.221   6.120   5.510  0.3521 -0.0137  0.7000
 4464SOL    HW125865   7.317   6.137   5.533  0.3020 -0.5577  1.3113
 4464SOL    HW225866   7.193   6.182   5.437  0.3113  2.2773  2.5759
 4465SOL     OW25867   8.627   3.860   1.204  0.5253  0.3243 -0.2974
 4465SOL    HW125868   8.684   3.901   1.275 -0.2144  1.7329 -0.4815
 4465SOL    HW225869   8.598   3.931   1.140  2.6773 -1.2103 -3.0951
 4466SOL     OW25870   2.471   2.979   3.758  0.2856  0.4563 -0.3000
 4466SOL    HW125871   2.430   2.909   3.701  0.2007  0.4005 -0.1720
 4466SOL    HW225872   2.401   3.046   3.783  0.0197 -0.2186  0.8050
 4467SOL     OW25873   2.492   8.558   0.137 -0.3215  0.1673 -0.0848
 4467SOL    HW125874   2.562   8.534   0.069 -0.5500  0.8069 -0.5518
 4467SOL    HW225875   2.533   8.613   0.209 -0.3067  0.3925 -0.2658
 4468SOL     OW25876   4.647   2.211   5.586  0.2171 -0.1636  0.0575
 4468SOL    HW125877   4.741   2.217   5.553 -0.2335 -3.7753 -2.2159
 4468SOL    HW225878   4.646   2.166   5.675  0.6619  0.1718  0.2346
 4469SOL     OW25879   7.419   3.963   1.674 -0.9337  1.2026 -0.7619
 4469SOL    HW125880   7.373   4.037   1.723  0.2911  1.6434 -0.2393
 4469SOL    HW225881   7.513   3.991   1.654 -0.3795 -0.3108 -0.3448
 4470SOL     OW25882   8.545   2.529   0.927  0.1381  0.1368  0.7028
 4470SOL    HW125883   8.638   2.507   0.899 -0.0942 -0.3336  0.2947
 4470SOL    HW225884   8.481   2.506   0.853 -0.5817 -1.9660  1.9304
 4471SOL     OW25885   4.193   1.219   6.078  0.3061  0.1230  0.3172
 4471SOL    HW125886   4.230   1.173   6.159  2.1639  2.0603  0.5991
 4471SOL    HW225887   4.242   1.189   5.996  1.3194  1.3417  0.4645
 4472SOL     OW25888   7.371   4.523   7.246 -0.2918  0.2898 -0.1196
 4472SOL    HW125889   7.441   4.453   7.255  1.8157  2.2476 -0.6507
 4472SOL    HW225890   7.293   4.501   7.304  0.1616 -2.6589 -0.5854
 4473SOL     OW25891   0.501   5.913   6.963  0.6468 -0.5482  0.4926
 4473SOL    HW125892   0.443   5.849   6.913 -0.2692  0.2062  0.5739
 4473SOL    HW225893   0.451   5.949   7.042  1.5816 -0.6464  1.1450
 4474SOL     OW25894   0.181   3.545   6.876 -0.0658 -0.2688 -0.0235
 4474SOL    HW125895   0.264   3.494   6.853  1.9341  3.0901 -0.5790
 4474SOL    HW225896   0.180   3.564   6.974  0.2022  0.3224 -0.1338
 4475SOL     OW25897   3.361   2.343   7.171  0.5625 -0.3462 -0.2202
 4475SOL    HW125898   3.278   2.343   7.226 -1.4049 -0.9809 -3.0653
 4475SOL    HW225899   3.388   2.437   7.151  0.3866 -0.1477  0.4564
 4476SOL     OW25900   4.829   4.285   2.462  0.2777 -0.0829 -0.6296
 4476SOL    HW125901   4.746   4.230   2.471 -1.2027  2.1826 -0.3078
 4476SOL    HW225902   4.833   4.324   2.370  1.3625 -0.7436 -0.8777
 4477SOL     OW25903   2.352   2.471   2.993  1.1709  0.1506  0.0071
 4477SOL    HW125904   2.387   2.518   3.074  2.0254  0.8450 -0.7548
 4477SOL    HW225905   2.326   2.377   3.017  0.6260  0.6107  1.2643
 4478SOL     OW25906   5.961   1.944   3.689 -0.4562 -0.2163  0.0469
 4478SOL    HW125907   6.051   1.988   3.689 -0.7547  0.4113 -0.6774
 4478SOL    HW225908   5.962   1.865   3.750  0.7683 -0.5918 -0.4563
 4479SOL     OW25909   0.231   0.461   5.654  0.1028 -0.3653  0.3599
 4479SOL    HW125910   0.266   0.384   5.599  1.9344  0.5315  0.2464
 4479SOL    HW225911   0.270   0.456   5.746  0.5920  0.6748  0.2136
 4480SOL     OW25912   2.292   5.067   4.433 -0.4700 -0.3130 -0.7745
 4480SOL    HW125913   2.226   5.118   4.489 -1.4012 -1.9935 -0.3087
 4480SOL    HW225914   2.381   5.068   4.478 -1.0167 -0.9579  0.3495
 4481SOL     OW25915   2.283   6.825   1.311 -0.2415  0.2938 -0.3780
 4481SOL    HW125916   2.329   6.908   1.342  1.1191  0.1044 -1.8623
 4481SOL    HW225917   2.293   6.754   1.382  1.4001  0.3916 -0.4775
 4482SOL     OW25918   6.396   4.422   2.104 -0.4062 -0.4073 -0.1941
 4482SOL    HW125919   6.473   4.482   2.125  0.2780 -1.2044 -0.3928
 4482SOL    HW225920   6.313   4.458   2.146 -0.3493  1.6042 -1.7555
 4483SOL     OW25921   5.657   8.533   1.342 -0.3809  0.0519  0.1600
 4483SOL    HW125922   5.734   8.567   1.288  1.1770 -2.3726  0.7851
 4483SOL    HW225923   5.644   8.591   1.422  0.7049  0.5467 -0.0142
 4484SOL     OW25924   3.121   7.156   7.321 -0.2365 -0.1025 -0.0801
 4484SOL    HW125925   3.181   7.223   7.365  0.0244 -1.3507  1.4741
 4484SOL    HW225926   3.166   7.120   7.240 -0.1486  1.1836 -0.6213
 4485SOL     OW25927   8.014   0.793   1.328  0.3419  0.0145 -0.5142
 4485SOL    HW125928   8.061   0.735   1.261 -0.6909 -1.3462 -0.0791
 4485SOL    HW225929   8.055   0.780   1.418 -0.9843 -1.3678 -0.0825
 4486SOL     OW25930   5.253   1.249   2.057  0.3157  0.3271  0.0447
 4486SOL    HW125931   5.296   1.254   2.147 -0.6542 -2.3339  0.6960
 4486SOL    HW225932   5.177   1.184   2.059  0.6809 -0.2765 -2.8455
 4487SOL     OW25933   6.034   5.375   6.081  0.5341  0.1251 -0.5626
 4487SOL    HW125934   5.999   5.429   6.157  0.0927 -0.3219 -0.4455
 4487SOL    HW225935   5.987   5.287   6.078  1.9524 -0.6665 -0.1286
 4488SOL     OW25936   6.753   4.424   7.730  0.1770 -0.0236  0.2027
 4488SOL    HW125937   6.716   4.515   7.749 -0.0167 -0.4675  2.0110
 4488SOL    HW225938   6.808   4.427   7.646 -0.0790  1.6834  0.0837
 4489SOL     OW25939   6.275   6.295   2.941  0.1592 -0.0027  0.3230
 4489SOL    HW125940   6.186   6.336   2.962 -0.1646 -0.3441 -0.3750
 4489SOL    HW225941   6.282   6.207   2.988 -0.4830 -0.6711 -0.8182
 4490SOL     OW25942   4.395   2.840   7.003 -0.7069 -0.5612 -0.8490
 4490SOL    HW125943   4.377   2.878   6.912 -1.4301  0.2322 -0.3795
 4490SOL    HW225944   4.315   2.789   7.034 -0.4387 -0.8791 -0.6666
 4491SOL     OW25945   0.661   7.202   4.676 -0.5238  0.1881  0.1447
 4491SOL    HW125946   0.737   7.167   4.731 -0.9967  0.0451  0.7106
 4491SOL    HW225947   0.601   7.126   4.649  0.8420 -0.0424 -2.3506
 4492SOL     OW25948   1.016   2.698   1.011  0.1127  0.3224 -0.0443
 4492SOL    HW125949   1.100   2.644   1.011 -0.7886 -1.1964  1.8629
 4492SOL    HW225950   0.949   2.656   0.949 -0.1472 -0.0560  0.4806
 4493SOL     OW25951   1.182   7.715   7.463  0.6945  0.5744  0.0823
 4493SOL    HW125952   1.148   7.670   7.381 -0.2125  0.1871  0.6653
 4493SOL    HW225953   1.123   7.793   7.485  0.0684 -0.1956  1.1869
 4494SOL     OW25954   0.954   3.223   3.196  0.2185 -0.5666  0.2495
 4494SOL    HW125955   0.860   3.195   3.215 -0.1856  0.5833 -0.0453
 4494SOL    HW225956   1.014   3.143   3.200 -0.9245 -1.4694 -0.5608
 4495SOL     OW25957   5.750   4.982   8.831  0.0894  0.0395 -0.0983
 4495SOL    HW125958   5.663   5.031   8.841 -0.5924 -0.7963 -1.6698
 4495SOL    HW225959   5.789   5.001   8.741  1.9414  1.0127  0.8936
 4496SOL     OW25960   8.379   7.119   7.390 -0.1715  0.4926  0.4128
 4496SOL    HW125961   8.414   7.052   7.456  0.7988 -2.1964 -2.7191
 4496SOL    HW225962   8.285   7.094   7.365 -1.0334  2.2999  1.7467
 4497SOL     OW25963   8.875   0.639   7.892 -0.0050 -0.1902 -0.6390
 4497SOL    HW125964   8.828   0.722   7.924  1.2256  0.5195 -0.6666
 4497SOL    HW225965   8.891   0.578   7.969 -1.9835 -0.9706 -0.7952
 4498SOL     OW25966   2.499   1.143   5.966 -0.0713 -0.3006  0.2033
 4498SOL    HW125967   2.544   1.226   6.000  1.7103 -1.3452  0.4492
 4498SOL    HW225968   2.536   1.064   6.014 -0.5303 -1.4002 -1.2403
 4499SOL     OW25969   8.353   8.059   7.111 -0.1791 -0.2499 -0.4938
 4499SOL    HW125970   8.442   8.013   7.118 -0.3193 -0.1899  2.0767
 4499SOL    HW225971   8.361   8.152   7.145 -1.2006 -0.1885 -0.4180
 4500SOL     OW25972   3.423   8.279   4.387 -0.4152  0.1357  0.0171
 4500SOL    HW125973   3.471   8.239   4.465  1.2108 -0.4593 -1.2636
 4500SOL    HW225974   3.416   8.211   4.314 -1.2786  0.9098 -0.6334
 4501SOL     OW25975   0.779   4.783   5.884 -1.0884  0.0225 -0.1898
 4501SOL    HW125976   0.778   4.879   5.854  0.7983 -0.1512 -0.8694
 4501SOL    HW225977   0.861   4.765   5.937 -1.1266 -1.3765 -0.5796
 4502SOL     OW25978   8.551   7.751   1.400 -0.4505  0.2197 -0.1835
 4502SOL    HW125979   8.632   7.750   1.458 -0.7023  0.3432  0.1745
 4502SOL    HW225980   8.483   7.814   1.439 -0.5451  0.4505 -0.7170
 4503SOL     OW25981   4.609   0.609   6.390  0.0700  0.1744 -0.2321
 4503SOL    HW125982   4.548   0.616   6.468 -0.5218 -0.5295 -0.6225
 4503SOL    HW225983   4.702   0.633   6.417 -0.1217 -0.1433  0.6942
 4504SOL     OW25984   0.365   4.725   2.930 -0.2148 -0.5505  0.2364
 4504SOL    HW125985   0.336   4.777   2.850 -0.9452  0.2956  1.0267
 4504SOL    HW225986   0.432   4.656   2.903 -0.5384 -0.3528 -1.1094
 4505SOL     OW25987   6.931   6.557   3.636 -0.0942  0.6696 -0.2702
 4505SOL    HW125988   7.005   6.608   3.681  0.6097 -0.2590 -0.3730
 4505SOL    HW225989   6.959   6.462   3.624 -0.5871  0.7446 -2.0078
 4506SOL     OW25990   2.574   2.216   4.462 -0.2753 -0.3833 -0.3939
 4506SOL    HW125991   2.657   2.215   4.518 -0.2924 -1.4166 -0.3797
 4506SOL    HW225992   2.494   2.224   4.521 -0.2796 -1.2384 -0.2671
 4507SOL     OW25993   0.315   1.951   4.610  0.4577 -0.3915 -0.1235
 4507SOL    HW125994   0.360   2.027   4.657 -0.5684 -0.3163  0.7518
 4507SOL    HW225995   0.370   1.923   4.531  1.4692  0.4279  0.2873
 4508SOL     OW25996   2.442   2.905   1.690 -0.0216  0.4165  0.3412
 4508SOL    HW125997   2.368   2.942   1.634  1.6359  2.5223 -0.5304
 4508SOL    HW225998   2.468   2.973   1.759  1.3217 -0.1646  0.4151
 4509SOL     OW25999   7.710   7.039   5.073 -0.4156 -0.2943  0.4339
 4509SOL    HW126000   7.664   7.090   5.146 -1.3140 -0.6979  0.1481
 4509SOL    HW226001   7.805   7.070   5.067 -0.7660  0.8742  0.7121
 4510SOL     OW26002   1.452   2.494   4.339 -0.4866 -0.2520 -0.5448
 4510SOL    HW126003   1.450   2.489   4.239 -2.7980 -1.3814 -0.4775
 4510SOL    HW226004   1.458   2.402   4.376 -2.9514 -0.0693  0.3761
 4511SOL     OW26005   6.756   2.059   0.232 -0.0636 -0.4113  0.2200
 4511SOL    HW126006   6.698   2.139   0.225 -2.3369 -1.8580  1.8057
 4511SOL    HW226007   6.729   1.991   0.164 -2.4879 -2.3777  2.9678
 4512SOL     OW26008   4.600   8.625   2.515  0.2558 -0.0387 -0.5017
 4512SOL    HW126009   4.629   8.682   2.591 -2.4277  0.2052  0.4066
 4512SOL    HW226010   4.677   8.610   2.453  2.0426  1.1569  1.3608
 4513SOL     OW26011   3.802   7.774   6.276  0.6415 -0.4097 -0.3571
 4513SOL    HW126012   3.749   7.805   6.197  0.9065 -0.8866 -0.7255
 4513SOL    HW226013   3.779   7.679   6.295 -1.3915  0.4596  1.7735
 4514SOL     OW26014   4.517   2.388   6.299 -0.2259 -0.2558  0.7479
 4514SOL    HW126015   4.492   2.319   6.367  2.0069 -1.6024  0.2750
 4514SOL    HW226016   4.477   2.364   6.211  0.1340 -0.6949  0.7003
 4515SOL     OW26017   7.713   0.663   5.100 -0.4881  0.2588  0.1293
 4515SOL    HW126018   7.666   0.586   5.145  0.1147 -0.8768 -1.1583
 4515SOL    HW226019   7.666   0.685   5.015 -0.6721  1.3582  0.5069
 4516SOL     OW26020   4.200   2.488   5.506 -0.7907  0.1754 -0.0124
 4516SOL    HW126021   4.240   2.580   5.508  0.7902 -0.4958 -0.1940
 4516SOL    HW226022   4.242   2.435   5.433 -0.3186 -1.2972  1.3086
 4517SOL     OW26023   8.698   4.509   7.089  0.5005 -0.2698  0.4679
 4517SOL    HW126024   8.727   4.552   7.004  0.9023 -0.6028  0.4359
 4517SOL    HW226025   8.740   4.557   7.166  0.2586 -0.0652  0.4743
 4518SOL     OW26026   5.704   3.722   8.036  0.1328 -0.0002  0.3356
 4518SOL    HW126027   5.732   3.743   8.130 -0.2719  1.7697  0.0767
 4518SOL    HW226028   5.783   3.687   7.986  0.9358  1.2237  0.7100
 4519SOL     OW26029   5.398   4.980   3.628  0.1351 -0.0531 -0.1096
 4519SOL    HW126030   5.300   4.966   3.616  0.1627 -0.6511  0.3656
 4519SOL    HW226031   5.424   5.068   3.589 -1.0380  1.3073  2.1331
 4520SOL     OW26032   1.204   5.013   4.882  0.1513 -0.4513  0.1509
 4520SOL    HW126033   1.131   4.984   4.820 -0.1031  2.9927 -1.2923
 4520SOL    HW226034   1.166   5.078   4.949  0.9874 -2.1207  2.2931
 4521SOL     OW26035   6.768   1.506   7.000  0.5572 -0.4163  0.2201
 4521SOL    HW126036   6.859   1.503   7.042  0.7537  0.5429 -0.1357
 4521SOL    HW226037   6.774   1.550   6.911 -0.6872  1.9025  1.2651
 4522SOL     OW26038   4.280   5.664   4.030 -0.6852  0.1585 -0.4197
 4522SOL    HW126039   4.367   5.646   4.075 -1.1756  1.0593  0.9196
 4522SOL    HW226040   4.205   5.658   4.096 -1.7805 -1.6453 -1.7657
 4523SOL     OW26041   0.493   6.631   6.217 -0.0408  0.6203  0.2483
 4523SOL    HW126042   0.428   6.658   6.147  0.5185 -0.1988 -0.6103
 4523SOL    HW226043   0.575   6.593   6.174  1.4573  2.5810  1.2725
 4524SOL     OW26044   8.015   3.714   1.381  0.6437  0.1014 -0.1918
 4524SOL    HW126045   7.941   3.771   1.415 -0.0511 -0.3568 -0.9228
 4524SOL    HW226046   8.047   3.748   1.293 -0.2102 -1.0068 -0.9391
 4525SOL     OW26047   6.372   1.524   8.687  0.1250  0.3546  0.3647
 4525SOL    HW126048   6.447   1.548   8.626  0.5248 -2.2128 -0.2275
 4525SOL    HW226049   6.287   1.563   8.653 -0.1291 -3.1875 -3.3975
 4526SOL     OW26050   2.409   4.789   7.632  0.2283 -0.1049  0.2486
 4526SOL    HW126051   2.502   4.765   7.605  0.1985 -1.4046  1.2532
 4526SOL    HW226052   2.377   4.866   7.577  1.1675 -0.9282 -1.4765
 4527SOL     OW26053   7.438   2.793   8.276 -0.7722  0.3144 -0.2222
 4527SOL    HW126054   7.511   2.729   8.299 -1.0029  0.5768  1.3026
 4527SOL    HW226055   7.473   2.887   8.282 -1.4266  0.4763  1.2954
 4528SOL     OW26056   2.710   2.604   4.088  1.1332  0.1471  0.4576
 4528SOL    HW126057   2.731   2.520   4.137 -1.1420 -0.2706  0.7661
 4528SOL    HW226058   2.644   2.584   4.015  0.4172  1.7040  0.6664
 4529SOL     OW26059   6.774   7.350   0.829  0.2355  0.4195  0.6490
 4529SOL    HW126060   6.727   7.262   0.832  2.4660 -0.8582 -0.3882
 4529SOL    HW226061   6.837   7.356   0.906  0.5294  0.8485  0.3760
 4530SOL     OW26062   1.723   4.613   1.195  0.6089  0.3359  0.1250
 4530SOL    HW126063   1.650   4.681   1.185  1.6985  1.5578  0.3016
 4530SOL    HW226064   1.763   4.593   1.106 -1.6617 -2.3137 -0.3555
 4531SOL     OW26065   4.976   6.455   0.183 -0.1625  0.3902 -0.7896
 4531SOL    HW126066   4.914   6.403   0.241  1.2957  0.7896  1.1895
 4531SOL    HW226067   5.037   6.392   0.134  1.5521  0.1658  1.5505
 4532SOL     OW26068   2.340   1.049   3.377 -0.2229  0.6867 -0.2801
 4532SOL    HW126069   2.401   1.025   3.452 -0.8696 -1.0407 -0.2851
 4532SOL    HW226070   2.361   1.141   3.345  0.5499  1.1623  1.5233
 4533SOL     OW26071   4.240   2.740   3.294 -0.2259  0.1823 -0.4162
 4533SOL    HW126072   4.182   2.759   3.215 -1.3384  0.6074  0.4782
 4533SOL    HW226073   4.229   2.813   3.362  0.2825 -0.4528  0.3578
 4534SOL     OW26074   0.796   0.404   2.728 -0.1184 -0.4403 -0.1174
 4534SOL    HW126075   0.728   0.382   2.658 -1.3764 -0.6817  1.1414
 4534SOL    HW226076   0.878   0.349   2.713  0.2106  0.5605 -2.2343
 4535SOL     OW26077   4.104   5.646   4.238 -0.6328 -0.1942 -0.2617
 4535SOL    HW126078   4.075   5.649   4.334 -0.2040 -0.6647 -0.1183
 4535SOL    HW226079   4.089   5.555   4.201  1.2627 -0.6322  0.0024
 4536SOL     OW26080   0.929   2.352   4.634 -0.3400  0.1420  0.7825
 4536SOL    HW126081   0.994   2.403   4.690  0.6822  0.1464 -0.3798
 4536SOL    HW226082   0.976   2.273   4.593 -1.1518 -0.0339  0.1893
 4537SOL     OW26083   1.879   4.251   4.433 -0.1741 -0.3530  0.2140
 4537SOL    HW126084   1.878   4.349   4.452 -1.1480 -0.7906  2.6026
 4537SOL    HW226085   1.792   4.224   4.392 -0.4000 -0.4142  0.7241
 4538SOL     OW26086   4.985   0.575   2.592 -0.1162  0.0562  0.1053
 4538SOL    HW126087   4.930   0.492   2.585 -3.0323  1.8396  1.2058
 4538SOL    HW226088   5.045   0.581   2.512 -1.3565 -2.0440 -1.0502
 4539SOL     OW26089   0.848   7.533   8.070  0.0052 -0.0445  0.0085
 4539SOL    HW126090   0.938   7.490   8.082  0.4235  1.3510  2.2019
 4539SOL    HW226091   0.784   7.495   8.137 -0.4949  0.3705 -0.2290
 4540SOL     OW26092   7.876   6.592   3.511 -0.2683  0.1320 -0.0072
 4540SOL    HW126093   7.966   6.584   3.469  0.4497 -2.1479  1.7939
 4540SOL    HW226094   7.828   6.672   3.475  2.1451  0.9103 -1.5828
 4541SOL     OW26095   8.121   1.668   3.260 -0.3021  0.1533 -0.1578
 4541SOL    HW126096   8.199   1.731   3.263 -0.9884  0.9461  1.1533
 4541SOL    HW226097   8.062   1.692   3.183 -0.1738  0.6514 -0.1020
 4542SOL     OW26098   7.961   3.639   1.750 -0.0487 -0.3853  1.1258
 4542SOL    HW126099   8.003   3.555   1.716 -0.0183  0.2989 -0.5893
 4542SOL    HW226100   8.021   3.716   1.729 -0.2261  0.1186  2.4007
 4543SOL     OW26101   3.775   0.801   3.020 -0.1784 -0.3278 -0.4950
 4543SOL    HW126102   3.737   0.787   2.929 -2.1012 -0.3788  0.2706
 4543SOL    HW226103   3.720   0.871   3.068  0.5351 -0.6197  0.7594
 4544SOL     OW26104   6.542   8.605   1.297 -0.1351  0.1956  0.1448
 4544SOL    HW126105   6.460   8.569   1.252 -0.6046 -0.0020  1.1343
 4544SOL    HW226106   6.570   8.542   1.369  2.6175 -1.2169 -2.0879
 4545SOL     OW26107   8.732   6.356   6.263 -0.2269 -0.0525  0.1251
 4545SOL    HW126108   8.731   6.392   6.356 -1.5709 -2.9977  1.3089
 4545SOL    HW226109   8.804   6.287   6.255 -0.1478  0.1589 -1.0008
 4546SOL     OW26110   1.226   6.252   1.009 -0.2377  0.0231  0.4610
 4546SOL    HW126111   1.217   6.342   1.051  2.6793  0.6207 -0.1187
 4546SOL    HW226112   1.252   6.263   0.913 -1.4215 -1.4316 -0.0411
 4547SOL     OW26113   7.772   2.764   2.086 -0.4297  0.1019  0.0233
 4547SOL    HW126114   7.803   2.826   2.014  0.9515  1.0773  1.4218
 4547SOL    HW226115   7.727   2.685   2.045 -0.6615  1.1769 -1.8553
 4548SOL     OW26116   5.836   3.479   8.644  0.1694  0.0802 -0.1813
 4548SOL    HW126117   5.808   3.500   8.551 -1.0569  0.0208  0.1547
 4548SOL    HW226118   5.847   3.380   8.654 -0.2067  0.0410 -0.1372
 4549SOL     OW26119   0.342   6.135   7.546  0.3553  0.2783 -0.4049
 4549SOL    HW126120   0.397   6.190   7.609  1.0945  0.2848 -1.0635
 4549SOL    HW226121   0.264   6.189   7.514 -0.8000 -0.1483  1.5407
 4550SOL     OW26122   7.556   6.028   2.432 -0.6098  0.1415  0.0165
 4550SOL    HW126123   7.613   5.960   2.386 -1.2446 -0.8112  0.6129
 4550SOL    HW226124   7.590   6.042   2.525 -2.3544 -1.7323  0.9801
 4551SOL     OW26125   2.078   4.914   0.244 -0.2058  0.3477 -0.2569
 4551SOL    HW126126   2.108   4.933   0.151 -0.4445  2.3169  0.0312
 4551SOL    HW226127   2.149   4.942   0.309  0.2257 -1.6180  0.1389
 4552SOL     OW26128   7.300   2.804   8.572 -0.6919  0.0473 -0.5542
 4552SOL    HW126129   7.350   2.839   8.652 -2.9926 -1.0337  1.3955
 4552SOL    HW226130   7.365   2.784   8.499  1.1924  3.9616 -0.1109
 4553SOL     OW26131   4.981   5.314   2.638  0.2065  0.0820 -0.1952
 4553SOL    HW126132   4.886   5.346   2.639  0.3130  0.3927  0.4488
 4553SOL    HW226133   4.992   5.245   2.567 -0.6712 -0.4765  0.1928
 4554SOL     OW26134   6.422   7.807   5.929  0.7921  0.0921 -0.2929
 4554SOL    HW126135   6.356   7.735   5.947  0.2541  0.4659 -0.7580
 4554SOL    HW226136   6.472   7.828   6.013 -1.8267  1.9537  0.8735
 4555SOL     OW26137   8.422   3.514   2.122 -0.1380  0.8762 -0.1967
 4555SOL    HW126138   8.489   3.564   2.177 -0.4411  1.2254 -0.1487
 4555SOL    HW226139   8.442   3.416   2.127 -2.1326  0.5848  3.1902
 4556SOL     OW26140   8.403   3.498   4.813 -0.5665 -0.1743  0.0293
 4556SOL    HW126141   8.369   3.568   4.875  0.8157  0.5877 -0.0404
 4556SOL    HW226142   8.373   3.518   4.720  1.4887  1.5038 -0.3208
 4557SOL     OW26143   2.359   3.325   6.105  0.4756 -0.3431  0.0143
 4557SOL    HW126144   2.339   3.349   6.200  0.9815 -2.4502  0.6787
 4557SOL    HW226145   2.409   3.400   6.062 -1.4103  1.4222  0.8341
 4558SOL     OW26146   0.239   8.058   8.112  0.0240 -0.4166  0.4035
 4558SOL    HW126147   0.281   7.970   8.091 -0.2848 -1.5290  4.0258
 4558SOL    HW226148   0.157   8.043   8.168  0.3270  2.1684  1.6348
 4559SOL     OW26149   3.932   0.430   7.681  0.5121  0.3403  0.4018
 4559SOL    HW126150   3.942   0.497   7.754  0.6154 -0.1404  0.8336
 4559SOL    HW226151   3.835   0.414   7.663  0.4893  0.6955  0.2162
 4560SOL     OW26152   0.910   8.111   8.069 -0.0815  0.0257  0.1648
 4560SOL    HW126153   0.922   8.210   8.077 -1.3199  0.3581 -1.6851
 4560SOL    HW226154   0.989   8.071   8.023 -0.3069  0.3995 -0.5564
 4561SOL     OW26155   0.656   7.234   5.266  0.0242 -0.3196  0.3265
 4561SOL    HW126156   0.731   7.252   5.329  0.1561 -0.0714  0.1013
 4561SOL    HW226157   0.623   7.320   5.229 -1.2661 -0.3195  1.4451
 4562SOL     OW26158   3.532   7.291   5.385  0.2060 -0.1402  0.1677
 4562SOL    HW126159   3.463   7.256   5.321  0.2379  1.5196 -0.8256
 4562SOL    HW226160   3.487   7.350   5.452  0.5349  0.1878  0.0981
 4563SOL     OW26161   6.709   8.660   7.711 -0.4860 -0.0893  0.2962
 4563SOL    HW126162   6.702   8.717   7.793  1.6044  2.0191 -0.9298
 4563SOL    HW226163   6.628   8.674   7.654  0.4957  2.5626 -0.5182
 4564SOL     OW26164   1.132   7.585   0.762  0.0622  0.4111 -0.1028
 4564SOL    HW126165   1.222   7.616   0.732  0.3461 -1.6260 -1.3971
 4564SOL    HW226166   1.062   7.621   0.701  0.0924  0.9571  0.1747
 4565SOL     OW26167   7.957   3.304   3.033 -0.5491  0.0695  0.2450
 4565SOL    HW126168   7.866   3.266   3.015 -0.2086 -0.9830  0.6620
 4565SOL    HW226169   8.016   3.231   3.068 -0.1097  1.1787  1.8822
 4566SOL     OW26170   4.265   1.271   6.524 -0.2635  0.5527 -0.0455
 4566SOL    HW126171   4.212   1.232   6.599 -0.2945  2.7660  1.1321
 4566SOL    HW226172   4.298   1.362   6.550  1.3487  0.5664 -2.0007
 4567SOL     OW26173   2.448   4.903   3.826 -0.4816 -0.4224  0.0324
 4567SOL    HW126174   2.378   4.832   3.826 -1.4005  0.4561  2.1644
 4567SOL    HW226175   2.536   4.863   3.851 -0.4752 -1.2625 -1.2714
 4568SOL     OW26176   6.848   3.786   1.906 -0.1034  0.2360 -0.0384
 4568SOL    HW126177   6.789   3.811   1.982  0.3726  0.4955  0.2471
 4568SOL    HW226178   6.848   3.859   1.838  0.9184  0.8275  0.5772
 4569SOL     OW26179   6.414   6.543   6.169 -0.0814  0.4636 -0.2650
 4569SOL    HW126180   6.334   6.546   6.108 -0.0557 -0.4143 -0.3541
 4569SOL    HW226181   6.397   6.601   6.249 -0.9133  0.0988 -0.1666
 4570SOL     OW26182   3.283   4.418   1.627 -0.2760  0.0452 -0.4898
 4570SOL    HW126183   3.275   4.517   1.631 -1.5512  0.0259 -1.9698
 4570SOL    HW226184   3.288   4.381   1.720  1.6663  1.5863  0.0437
 4571SOL     OW26185   1.880   7.781   6.627  0.4924 -0.4280  0.3442
 4571SOL    HW126186   1.873   7.707   6.560  0.5149 -0.1479  0.0319
 4571SOL    HW226187   1.907   7.866   6.581  0.9974 -0.3490  0.7797
 4572SOL     OW26188   0.542   1.114   1.706  0.0996 -0.1099  0.3519
 4572SOL    HW126189   0.501   1.191   1.755 -0.3948 -0.3459  0.3103
 4572SOL    HW226190   0.474   1.072   1.646  0.7227  0.2525 -0.6411
 4573SOL     OW26191   1.091   0.509   2.337  0.0679  0.4221 -0.3724
 4573SOL    HW126192   1.011   0.538   2.389 -0.1166  0.0659 -0.4521
 4573SOL    HW226193   1.137   0.589   2.298 -0.8855  0.5572 -1.2505
 4574SOL     OW26194   8.915   8.973   0.645 -0.6010 -0.1014  0.2745
 4574SOL    HW126195   8.924   8.876   0.625  1.2721  0.3113 -0.9598
 4574SOL    HW226196   8.819   9.000   0.634 -0.9823 -1.6043 -0.2586
 4575SOL     OW26197   1.963   2.660   3.945  0.2133 -0.4371  0.0344
 4575SOL    HW126198   2.025   2.691   3.873  1.6101 -2.7170  0.2168
 4575SOL    HW226199   1.921   2.574   3.918  0.2719 -0.9891  1.6570
 4576SOL     OW26200   6.262   5.992   5.223  0.3276 -0.2270 -0.1681
 4576SOL    HW126201   6.314   6.051   5.285  0.5657 -1.0724  0.4298
 4576SOL    HW226202   6.234   5.909   5.270  1.3214 -1.3184 -1.4449
 4577SOL     OW26203   3.086   1.545   2.698  0.6758 -0.6163  0.2924
 4577SOL    HW126204   3.114   1.482   2.625 -0.6743  0.7893 -1.4871
 4577SOL    HW226205   3.132   1.633   2.685 -0.9913  0.2231  0.0568
 4578SOL     OW26206   1.637   2.198   2.162  0.2606 -0.4565  0.1326
 4578SOL    HW126207   1.653   2.271   2.228  0.9715  0.7239 -1.3313
 4578SOL    HW226208   1.541   2.199   2.134 -0.1679 -1.3061  1.5417
 4579SOL     OW26209   8.606   4.323   2.715 -0.2722  0.1995 -0.3694
 4579SOL    HW126210   8.544   4.262   2.766  1.5830 -0.9807  0.5327
 4579SOL    HW226211   8.565   4.413   2.707 -1.9354 -0.4504  0.5588
 4580SOL     OW26212   3.503   5.700   1.289 -0.8152  0.6011 -0.7112
 4580SOL    HW126213   3.467   5.685   1.381 -1.0089 -2.6896 -1.2513
 4580SOL    HW226214   3.601   5.719   1.293 -0.6748 -0.2943  0.1341
 4581SOL     OW26215   3.293   1.513   4.014 -0.4650  0.1945 -0.0203
 4581SOL    HW126216   3.348   1.444   4.061  0.0118  1.3657  1.1536
 4581SOL    HW226217   3.206   1.526   4.063 -1.1716 -0.5959 -1.0458
 4582SOL     OW26218   2.795   5.367   5.752  0.2550  0.0791 -0.0974
 4582SOL    HW126219   2.854   5.370   5.833  1.1082 -3.0887 -0.5169
 4582SOL    HW226220   2.841   5.411   5.675  0.9662 -0.0396  0.2525
 4583SOL     OW26221   3.936   7.388   3.627  0.0344 -0.7305 -0.1396
 4583SOL    HW126222   4.029   7.402   3.661 -0.4532 -1.0894  1.3690
 4583SOL    HW226223   3.878   7.463   3.659 -0.4506 -1.1195 -0.1189
 4584SOL     OW26224   5.169   5.709   2.222  0.3048  0.4383 -0.2530
 4584SOL    HW126225   5.185   5.742   2.129 -0.9810 -0.9620 -1.0117
 4584SOL    HW226226   5.144   5.785   2.281  0.0531  1.1936 -1.3191
 4585SOL     OW26227   8.780   2.441   3.042  0.1604 -0.7295  0.1373
 4585SOL    HW126228   8.692   2.476   3.072 -0.2400 -1.2399 -0.4313
 4585SOL    HW226229   8.832   2.406   3.121 -0.6319 -1.5153  0.3159
 4586SOL     OW26230   4.396   2.364   6.064 -0.0177  0.2618 -0.1807
 4586SOL    HW126231   4.435   2.378   5.973  0.9839 -0.3861  0.1404
 4586SOL    HW226232   4.314   2.421   6.074  0.2952  0.9142 -1.2123
 4587SOL     OW26233   7.683   8.829   1.641  0.2308  0.3771 -0.6351
 4587SOL    HW126234   7.725   8.785   1.561  0.4180  1.7128 -1.2835
 4587SOL    HW226235   7.647   8.918   1.615 -1.0788  0.1777  0.4349
 4588SOL     OW26236   0.577   1.672   8.233 -0.1575  0.0633 -1.2329
 4588SOL    HW126237   0.642   1.596   8.235  0.1984  0.3191 -2.2160
 4588SOL    HW226238   0.484   1.637   8.226 -0.1673 -0.3151  0.6616
 4589SOL     OW26239   0.904   3.721   2.625 -0.6003  0.7703  0.0309
 4589SOL    HW126240   0.813   3.722   2.665 -1.0023 -0.3352 -0.8148
 4589SOL    HW226241   0.906   3.655   2.549  1.4286 -0.7120  1.3083
 4590SOL     OW26242   8.110   4.663   2.170 -0.5017 -0.8540 -0.0900
 4590SOL    HW126243   8.101   4.603   2.091 -1.9727  0.0893 -0.6642
 4590SOL    HW226244   8.019   4.679   2.210 -0.5149  2.9304 -1.4424
 4591SOL     OW26245   6.210   6.086   7.799  0.0894 -0.4443 -0.6804
 4591SOL    HW126246   6.242   6.000   7.838  0.0338 -0.8251 -1.4807
 4591SOL    HW226247   6.112   6.097   7.819  0.1696 -0.4068 -0.2973
 4592SOL     OW26248   3.237   5.560   2.361 -0.8431 -0.9183 -0.0248
 4592SOL    HW126249   3.284   5.615   2.430  0.2278 -0.0571 -1.4131
 4592SOL    HW226250   3.241   5.608   2.273 -2.3754 -1.8993 -0.6391
 4593SOL     OW26251   1.026   8.493   6.246  0.6800 -0.0403  0.1421
 4593SOL    HW126252   1.080   8.409   6.255  0.3881 -0.3181 -0.6485
 4593SOL    HW226253   1.066   8.564   6.304  0.3519 -1.0056  1.5739
 4594SOL     OW26254   3.595   1.171   2.970 -1.2077 -0.5870 -0.0771
 4594SOL    HW126255   3.596   1.120   3.056  2.2739  0.9350  0.8784
 4594SOL    HW226256   3.620   1.266   2.987 -0.9274 -0.1430 -2.6983
 4595SOL     OW26257   8.923   3.926   7.437 -0.4679 -0.6212  0.3039
 4595SOL    HW126258   8.887   3.877   7.517 -3.0904 -0.2092 -0.5994
 4595SOL    HW226259   8.979   3.863   7.383 -1.5218 -1.8575  0.6209
 4596SOL     OW26260   8.244   4.952   1.154  0.1734  0.3133 -0.1158
 4596SOL    HW126261   8.282   4.975   1.243  0.5756  0.4514 -0.3249
 4596SOL    HW226262   8.317   4.921   1.093  0.0923  1.5100 -0.8251
 4597SOL     OW26263   8.094   7.523   1.917  0.5149 -0.2079 -0.1129
 4597SOL    HW126264   8.126   7.548   1.826  0.5930  0.6164  0.1411
 4597SOL    HW226265   7.997   7.544   1.926  0.6247  0.1881  0.1639
 4598SOL     OW26266   7.757   4.075   3.969  0.3312  0.3224  0.6901
 4598SOL    HW126267   7.783   4.163   3.932  2.8678 -1.7268 -2.6816
 4598SOL    HW226268   7.678   4.039   3.919 -0.6354  0.5866  1.9841
 4599SOL     OW26269   4.996   3.318   2.110 -0.3982 -0.3751  0.0638
 4599SOL    HW126270   5.067   3.318   2.181  1.4316  0.8163 -1.7058
 4599SOL    HW226271   4.949   3.230   2.111  0.5950 -0.9148  1.7816
 4600SOL     OW26272   0.952   7.495   4.257 -0.0237  0.1399  0.2430
 4600SOL    HW126273   0.932   7.447   4.342 -0.5712  0.7227  0.4536
 4600SOL    HW226274   0.879   7.478   4.191  1.1830 -1.5956 -0.6828
 4601SOL     OW26275   2.019   8.634   4.480  0.5429 -0.4358 -0.0402
 4601SOL    HW126276   2.004   8.614   4.577 -0.5838 -0.2634 -0.1657
 4601SOL    HW226277   1.933   8.620   4.430  0.7420  0.8930 -0.7723
 4602SOL     OW26278   0.997   4.283   7.505  0.4770 -0.0581 -0.1729
 4602SOL    HW126279   1.024   4.377   7.483  2.1987 -0.1487  1.3604
 4602SOL    HW226280   0.959   4.280   7.598 -1.7531 -0.5036 -1.0877
 4603SOL     OW26281   0.927   7.306   0.233  0.3359 -0.0601  0.4495
 4603SOL    HW126282   0.836   7.265   0.226  1.7076 -3.0679 -0.2069
 4603SOL    HW226283   0.957   7.303   0.328  0.3563 -0.3820  0.4325
 4604SOL     OW26284   8.802   3.730   5.104  0.0194  0.5857 -0.0415
 4604SOL    HW126285   8.829   3.810   5.051  0.9515 -0.3381 -0.9926
 4604SOL    HW226286   8.769   3.658   5.043 -0.4864  0.1069  0.7707
 4605SOL     OW26287   3.661   0.835   7.582 -0.2045 -0.3457  0.3404
 4605SOL    HW126288   3.682   0.812   7.487 -1.3816 -1.0657  0.2498
 4605SOL    HW226289   3.580   0.892   7.585  0.4234  0.5307  0.8534
 4606SOL     OW26290   4.862   1.619   3.147 -0.4212  0.0212  0.3839
 4606SOL    HW126291   4.833   1.710   3.118 -1.5530 -0.7834 -1.0586
 4606SOL    HW226292   4.912   1.626   3.234 -0.8732  1.9495  0.5076
 4607SOL     OW26293   4.809   0.733   5.006 -0.0565  0.0795  0.7278
 4607SOL    HW126294   4.903   0.739   4.973 -0.1525  1.4730  0.7034
 4607SOL    HW226295   4.749   0.709   4.931  0.2597 -0.7106  0.7215
 4608SOL     OW26296   0.474   0.193   8.945  0.1965  0.1134  0.1973
 4608SOL    HW126297   0.455   0.253   8.868  0.9739  1.0174  0.6916
 4608SOL    HW226298   0.389   0.156   8.981 -0.2953  0.9745 -0.0796
 4609SOL     OW26299   7.953   2.161   8.520  0.2285 -0.1855 -0.0748
 4609SOL    HW126300   7.868   2.187   8.475  0.1145 -0.2150  0.1211
 4609SOL    HW226301   8.030   2.183   8.461  0.1765  1.2088  0.3557
 4610SOL     OW26302   2.041   0.681   0.776  0.5125 -0.3754 -0.1829
 4610SOL    HW126303   2.022   0.750   0.707 -1.3399 -0.4399  0.2217
 4610SOL    HW226304   1.956   0.635   0.801  1.2670 -0.8232  1.6444
 4611SOL     OW26305   2.376   7.598   4.600 -0.0556 -0.5243 -0.1194
 4611SOL    HW126306   2.290   7.622   4.554 -0.0398  2.4295  1.2970
 4611SOL    HW226307   2.358   7.529   4.670 -0.9804 -1.1024 -0.9044
 4612SOL     OW26308   6.530   1.980   6.310 -0.1101 -0.6640  0.2764
 4612SOL    HW126309   6.489   2.009   6.224 -0.8350 -0.8141  0.5723
 4612SOL    HW226310   6.466   1.922   6.360 -0.0953  0.2653  1.3967
 4613SOL     OW26311   4.681   8.371   5.343 -0.1372  0.2030 -0.3558
 4613SOL    HW126312   4.694   8.374   5.442 -1.8837  0.1046 -0.1146
 4613SOL    HW226313   4.607   8.433   5.317  0.7823  0.7568 -1.6838
 4614SOL     OW26314   6.505   1.143   1.295  0.3230 -0.2933 -0.7662
 4614SOL    HW126315   6.444   1.072   1.259 -0.9772  0.3241  0.1830
 4614SOL    HW226316   6.465   1.233   1.279  0.5742  0.0795  0.6311
 4615SOL     OW26317   0.704   0.203   2.466  0.5137  0.2688  0.1464
 4615SOL    HW126318   0.746   0.188   2.377  1.4517 -1.1297  0.8152
 4615SOL    HW226319   0.722   0.125   2.525 -0.3143  1.0740  1.4837
 4616SOL     OW26320   6.791   7.328   5.334 -0.3607  0.3875 -0.1768
 4616SOL    HW126321   6.847   7.405   5.305 -2.0967  1.9357  0.4549
 4616SOL    HW226322   6.802   7.314   5.433 -0.6959  0.3632 -0.1428
 4617SOL     OW26323   6.822   4.998   6.745 -0.8156 -0.2208 -0.3982
 4617SOL    HW126324   6.878   4.983   6.664  0.6760  0.5372  0.4717
 4617SOL    HW226325   6.763   4.918   6.760  0.3195 -1.1950 -1.0925
 4618SOL     OW26326   3.821   1.336   1.409 -0.3528  0.3980 -0.1123
 4618SOL    HW126327   3.843   1.293   1.496 -1.5107 -0.6102 -0.2951
 4618SOL    HW226328   3.883   1.412   1.392  1.1164 -0.6029  0.6850
 4619SOL     OW26329   4.862   4.021   3.630  0.4019  0.2045  0.7587
 4619SOL    HW126330   4.845   4.120   3.624 -0.0452  0.0844 -0.1872
 4619SOL    HW226331   4.820   3.985   3.713  1.2376  0.9409  1.5090
 4620SOL     OW26332   1.956   6.775   6.254 -0.2103 -0.3233  0.0347
 4620SOL    HW126333   2.023   6.759   6.327  0.7179  0.7278 -0.5734
 4620SOL    HW226334   1.932   6.687   6.212  0.2947 -0.7866  0.6946
 4621SOL     OW26335   1.511   0.730   3.905 -0.2249  0.4208 -0.0685
 4621SOL    HW126336   1.611   0.724   3.902 -0.2588 -0.4802  0.3762
 4621SOL    HW226337   1.472   0.650   3.860 -0.7449  0.5432  0.1693
 4622SOL     OW26338   5.689   1.425   3.111  0.4501  1.0279 -0.6076
 4622SOL    HW126339   5.604   1.380   3.139  2.2019 -1.7532  0.4322
 4622SOL    HW226340   5.701   1.414   3.012  0.2513  0.2454 -0.5476
 4623SOL     OW26341   2.124   0.284   1.633 -0.0092 -0.7683 -0.5374
 4623SOL    HW126342   2.182   0.282   1.551  0.3788 -0.9662 -0.2620
 4623SOL    HW226343   2.181   0.298   1.714 -0.4235 -0.2647 -0.3264
 4624SOL     OW26344   4.131   4.306   7.425  0.1493  0.3390  0.3714
 4624SOL    HW126345   4.194   4.264   7.360  0.4651  0.4169  0.6291
 4624SOL    HW226346   4.062   4.239   7.453  0.4585  0.0863  0.5317
 4625SOL     OW26347   5.115   0.500   0.590  0.6378  0.6319 -0.3429
 4625SOL    HW126348   5.038   0.487   0.653  0.4839 -2.8335 -1.1095
 4625SOL    HW226349   5.201   0.484   0.639  0.5694 -0.8893 -0.6742
 4626SOL     OW26350   0.933   0.603   8.022  0.2282  0.0242  0.2367
 4626SOL    HW126351   0.872   0.541   7.973  0.8913 -1.5246  1.3236
 4626SOL    HW226352   0.899   0.617   8.115 -0.6138  2.3455 -0.3862
 4627SOL     OW26353   5.786   2.718   8.530 -0.3947 -0.5593  0.0062
 4627SOL    HW126354   5.775   2.643   8.465 -0.3002 -0.2621 -0.3516
 4627SOL    HW226355   5.710   2.718   8.595  0.0332 -1.4751  0.5232
 4628SOL     OW26356   3.527   7.578   2.791 -0.3409  0.3101 -0.7419
 4628SOL    HW126357   3.467   7.504   2.763  0.0006 -0.2119 -0.1229
 4628SOL    HW226358   3.552   7.634   2.711  0.2680 -0.8829 -1.4014
 4629SOL     OW26359   6.991   3.500   4.499 -0.0765 -0.4537  0.1350
 4629SOL    HW126360   7.006   3.468   4.405 -1.7280 -1.8045  0.3031
 4629SOL    HW226361   6.984   3.599   4.499  0.5848 -0.3899 -1.0807
 4630SOL     OW26362   3.356   2.346   3.948  0.4858  0.3289 -0.3859
 4630SOL    HW126363   3.343   2.272   3.882 -0.8054  1.1735 -1.0936
 4630SOL    HW226364   3.268   2.391   3.965  0.5062 -0.7995  3.0081
 4631SOL     OW26365   5.910   7.422   1.570 -0.0266 -0.2606  0.3628
 4631SOL    HW126366   5.967   7.415   1.652  2.2720 -1.0644 -1.2766
 4631SOL    HW226367   5.922   7.511   1.528  1.8837 -1.2653 -1.2902
 4632SOL     OW26368   0.358   5.174   5.500  0.2912  0.8367 -0.5204
 4632SOL    HW126369   0.326   5.079   5.496 -2.0591  1.5263  0.7810
 4632SOL    HW226370   0.432   5.181   5.567  0.1114 -0.0023 -0.2209
 4633SOL     OW26371   1.577   5.255   5.406 -0.7900  0.3077 -0.0626
 4633SOL    HW126372   1.638   5.317   5.357 -1.0126  0.7512  0.2164
 4633SOL    HW226373   1.629   5.206   5.477 -1.0458  1.7584  1.1557
 4634SOL     OW26374   1.520   4.226   0.604 -0.4729  0.0333 -0.3738
 4634SOL    HW126375   1.427   4.243   0.639 -0.0701 -0.1621  0.8264
 4634SOL    HW226376   1.585   4.279   0.657  0.3267 -1.5788  0.2859
 4635SOL     OW26377   2.259   3.835   3.670 -0.3139 -0.7353 -1.1606
 4635SOL    HW126378   2.168   3.868   3.696  0.6926  0.6994  0.6129
 4635SOL    HW226379   2.279   3.750   3.719  0.4283  0.4564  0.6408
 4636SOL     OW26380   3.346   2.565   0.841  0.7993 -0.2565 -1.0165
 4636SOL    HW126381   3.439   2.591   0.866 -0.2493  0.3960  2.4579
 4636SOL    HW226382   3.326   2.475   0.879 -0.6891  0.5503  0.1582
 4637SOL     OW26383   8.384   4.424   5.849 -0.2550 -0.7816  0.7620
 4637SOL    HW126384   8.353   4.477   5.770 -0.4311  0.9637  1.9810
 4637SOL    HW226385   8.305   4.382   5.894 -0.0902 -2.3718 -0.3685
 4638SOL     OW26386   8.574   2.274   7.789 -0.0467  0.2648 -0.1930
 4638SOL    HW126387   8.581   2.174   7.794  1.0427  0.3752  0.6488
 4638SOL    HW226388   8.633   2.308   7.716 -0.9585  0.2435 -0.9494
 4639SOL     OW26389   1.280   5.585   4.142 -0.0469 -0.2600  0.2750
 4639SOL    HW126390   1.234   5.610   4.056  0.5513 -0.9845 -0.2652
 4639SOL    HW226391   1.307   5.668   4.190 -0.6561  0.1588 -0.0976
 4640SOL     OW26392   1.780   3.243   4.265  0.3870 -0.0588  0.6065
 4640SOL    HW126393   1.690   3.249   4.221  0.4990  0.6042  0.4742
 4640SOL    HW226394   1.799   3.147   4.288  0.0491 -0.3177 -0.1917
 4641SOL     OW26395   5.145   0.952   2.617  0.0706 -0.1419 -0.2987
 4641SOL    HW126396   5.109   1.025   2.675 -0.1789 -0.2784 -0.2829
 4641SOL    HW226397   5.217   0.902   2.667 -1.5971 -1.6187  0.7009
 4642SOL     OW26398   6.616   8.233   0.738 -0.0106 -0.3401  0.0813
 4642SOL    HW126399   6.706   8.238   0.693 -0.1274  1.3248  0.0075
 4642SOL    HW226400   6.620   8.283   0.824  0.2231 -3.5443  2.0172
 4643SOL     OW26401   3.500   8.037   2.677 -0.1680  0.1763 -0.4848
 4643SOL    HW126402   3.569   7.965   2.673 -1.0896 -0.7099 -0.7585
 4643SOL    HW226403   3.531   8.116   2.625  1.2486  0.3286  0.5644
 4644SOL     OW26404   8.208   6.273   3.428  0.6279 -0.7064  0.1955
 4644SOL    HW126405   8.130   6.246   3.484  1.0383 -1.9134  0.1834
 4644SOL    HW226406   8.204   6.372   3.413 -0.6425 -0.6842  0.5799
 4645SOL     OW26407   2.904   0.416   7.764 -0.0975  0.2406 -0.3405
 4645SOL    HW126408   2.984   0.359   7.780 -0.7298 -0.6676 -0.4028
 4645SOL    HW226409   2.844   0.372   7.698 -1.6593 -0.0635  1.2577
 4646SOL     OW26410   6.920   6.573   8.579  0.1730  0.3269 -0.4589
 4646SOL    HW126411   6.907   6.658   8.630  1.1796  1.8820 -2.6870
 4646SOL    HW226412   6.981   6.513   8.629 -0.7433  0.8020  1.2683
 4647SOL     OW26413   2.048   8.388   8.709 -0.0207 -0.0086  0.1362
 4647SOL    HW126414   1.975   8.355   8.650 -0.4007  1.5447 -0.2948
 4647SOL    HW226415   2.010   8.451   8.777  0.8707  0.6377  0.0530
 4648SOL     OW26416   3.578   8.176   5.551  0.4154 -0.3827 -0.1947
 4648SOL    HW126417   3.496   8.157   5.497  1.1729 -0.9918 -1.1393
 4648SOL    HW226418   3.650   8.212   5.492  0.6858  0.6143  0.7100
 4649SOL     OW26419   6.865   1.001   3.578 -0.1103  0.2415 -0.4485
 4649SOL    HW126420   6.852   1.059   3.497 -0.8547 -1.1302 -1.3185
 4649SOL    HW226421   6.832   0.909   3.559 -0.8073  0.0416  1.6036
 4650SOL     OW26422   4.074   5.813   3.073 -0.5810  0.0401  0.7191
 4650SOL    HW126423   4.002   5.805   3.142 -0.4200 -3.2405  0.5817
 4650SOL    HW226424   4.106   5.722   3.047  0.7215  1.2702 -2.2774
 4651SOL     OW26425   3.766   0.368   1.834 -0.1795  0.0823  0.4335
 4651SOL    HW126426   3.787   0.439   1.902  2.2142 -0.9329  0.7861
 4651SOL    HW226427   3.825   0.379   1.754 -0.3835 -1.0148  0.1178
 4652SOL     OW26428   3.890   2.276   3.739 -0.2994 -0.0419  0.0946
 4652SOL    HW126429   3.860   2.257   3.832 -0.5191  0.6658  0.1776
 4652SOL    HW226430   3.978   2.232   3.722 -0.6829 -0.9115  0.3397
 4653SOL     OW26431   7.941   3.104   2.136 -0.6998 -0.5121 -0.4193
 4653SOL    HW126432   7.978   3.193   2.107  0.6112 -1.4996 -1.8454
 4653SOL    HW226433   7.882   3.117   2.216  1.8704  1.2660  1.2801
 4654SOL     OW26434   8.635   8.204   7.289  0.2066  0.6131  0.0337
 4654SOL    HW126435   8.686   8.232   7.371 -1.2027  2.2213  0.3914
 4654SOL    HW226436   8.664   8.259   7.211 -0.2089  0.7674 -0.0096
 4655SOL     OW26437   0.754   4.668   6.285  0.2519 -0.0469 -0.0704
 4655SOL    HW126438   0.656   4.651   6.296 -0.1165  0.5640 -2.1998
 4655SOL    HW226439   0.804   4.582   6.294 -0.6318 -0.6040 -0.4176
 4656SOL     OW26440   8.506   1.747   7.242 -0.3564  0.1177  0.3208
 4656SOL    HW126441   8.570   1.771   7.315 -0.1538 -3.4146  1.4370
 4656SOL    HW226442   8.413   1.772   7.269 -0.0786  0.3346  1.0875
 4657SOL     OW26443   5.697   4.981   0.939  0.0549 -0.2109  0.6495
 4657SOL    HW126444   5.731   5.073   0.958 -2.8322  0.5029  2.6509
 4657SOL    HW226445   5.679   4.934   1.025  0.0003 -2.0934 -0.3628
 4658SOL     OW26446   4.442   3.624   6.885  0.2454 -0.0346 -0.6422
 4658SOL    HW126447   4.529   3.642   6.840  0.0840 -0.4946 -1.1552
 4658SOL    HW226448   4.434   3.526   6.906 -0.8407 -0.3016 -2.1393
 4659SOL     OW26449   1.259   4.186   8.913 -0.7111  0.3607 -0.0775
 4659SOL    HW126450   1.215   4.104   8.949 -0.6917  0.5756  0.4521
 4659SOL    HW226451   1.212   4.267   8.949  0.7139  0.6132  1.3097
 4660SOL     OW26452   1.035   8.483   6.813 -0.2594  0.2393  0.1510
 4660SOL    HW126453   0.971   8.529   6.751  1.0016  1.2918 -0.3929
 4660SOL    HW226454   0.990   8.467   6.901 -2.7662 -3.1552 -1.6307
 4661SOL     OW26455   0.822   4.990   0.753  0.5237 -0.5807  0.5046
 4661SOL    HW126456   0.902   4.933   0.770 -0.5764 -2.0725  0.7460
 4661SOL    HW226457   0.849   5.069   0.697  1.7396 -2.2180 -1.2854
 4662SOL     OW26458   1.423   7.570   6.411  0.1869 -0.2687  0.0417
 4662SOL    HW126459   1.437   7.666   6.435 -0.6850 -0.2301  0.3832
 4662SOL    HW226460   1.329   7.555   6.380  0.4841 -0.8950 -0.5857
 4663SOL     OW26461   4.344   7.111   0.558 -0.0860  0.3328  0.3509
 4663SOL    HW126462   4.287   7.032   0.537 -1.3060  1.3661 -0.2737
 4663SOL    HW226463   4.406   7.088   0.633  0.4867 -1.6249 -0.6855
 4664SOL     OW26464   1.618   1.066   8.276  0.4102 -0.3898  0.1352
 4664SOL    HW126465   1.524   1.072   8.243  0.7059  1.8493 -0.3687
 4664SOL    HW226466   1.681   1.078   8.199  1.1095 -1.4631  0.5336
 4665SOL     OW26467   5.348   3.884   7.442  0.2081 -0.2952  0.0584
 4665SOL    HW126468   5.406   3.903   7.363 -0.7852 -0.8524 -0.8142
 4665SOL    HW226469   5.401   3.836   7.512  1.4535  1.3860  0.3111
 4666SOL     OW26470   7.578   7.954   6.800  0.7545 -0.2697  0.0484
 4666SOL    HW126471   7.569   7.939   6.898 -0.9009 -0.4084 -0.0987
 4666SOL    HW226472   7.522   8.032   6.773  0.7204 -0.6069 -0.8781
 4667SOL     OW26473   5.854   3.462   4.195 -0.7873 -0.2926  0.3782
 4667SOL    HW126474   5.945   3.495   4.223 -0.9178  0.3178  0.0940
 4667SOL    HW226475   5.789   3.474   4.270 -0.9125  0.4201  0.1594
 4668SOL     OW26476   3.215   2.384   5.391  0.1659 -0.0600 -0.5242
 4668SOL    HW126477   3.291   2.318   5.385  1.7126  1.5521  0.7078
 4668SOL    HW226478   3.141   2.345   5.445  1.3755 -0.5246  0.8271
 4669SOL     OW26479   3.026   7.833   2.272  0.5043  0.1608 -0.6877
 4669SOL    HW126480   3.030   7.844   2.173  1.4305  0.0412 -0.6719
 4669SOL    HW226481   2.953   7.768   2.296  0.6576 -0.2507 -1.3243
 4670SOL     OW26482   0.686   4.686   5.370 -0.2555 -0.8073 -0.4124
 4670SOL    HW126483   0.721   4.639   5.451 -1.3871 -0.6309  0.1934
 4670SOL    HW226484   0.742   4.662   5.290  2.9727  1.6080  0.9968
 4671SOL     OW26485   2.072   4.244   0.490 -0.0066  0.3931  0.5415
 4671SOL    HW126486   2.042   4.239   0.395 -0.6950  0.9970  0.7165
 4671SOL    HW226487   2.146   4.179   0.506 -0.9403 -0.8218 -0.0120
 4672SOL     OW26488   1.135   5.821   6.404  0.0438  0.3476 -0.2947
 4672SOL    HW126489   1.166   5.894   6.466  0.2977  0.4443 -0.5357
 4672SOL    HW226490   1.186   5.825   6.319  1.0265 -0.9574  0.2065
 4673SOL     OW26491   0.110   0.168   8.445 -0.1754 -0.3452 -0.2415
 4673SOL    HW126492   0.028   0.218   8.473 -0.2612 -0.8217  0.3587
 4673SOL    HW226493   0.189   0.204   8.494 -0.1523 -0.4272 -0.2186
 4674SOL     OW26494   3.425   8.384   1.879  0.0917  0.0086 -0.7488
 4674SOL    HW126495   3.394   8.398   1.973  0.8314  1.5090 -0.7163
 4674SOL    HW226496   3.516   8.344   1.879 -1.6530 -4.2065 -0.8479
 4675SOL     OW26497   2.635   8.262   0.605 -0.3402 -0.7165  0.3988
 4675SOL    HW126498   2.612   8.311   0.521  0.6536  1.1719  1.1856
 4675SOL    HW226499   2.712   8.200   0.588  0.3224  0.1811  0.0540
 4676SOL     OW26500   4.769   4.287   4.077  1.0636 -0.3845 -0.2187
 4676SOL    HW126501   4.739   4.219   4.143  1.2926  0.2169  0.5209
 4676SOL    HW226502   4.864   4.312   4.096  0.6573  0.9072  0.1913
 4677SOL     OW26503   6.781   2.184   3.251 -0.2560  0.9524 -0.3360
 4677SOL    HW126504   6.866   2.134   3.267 -0.2328  1.2842  0.5697
 4677SOL    HW226505   6.775   2.209   3.155  0.6418  0.8780 -0.4124
 4678SOL     OW26506   5.388   6.075   7.607  0.4854 -0.5956 -0.0207
 4678SOL    HW126507   5.344   5.997   7.651 -0.9974  1.5936  2.5718
 4678SOL    HW226508   5.323   6.120   7.547  0.7790 -0.3220 -0.1355
 4679SOL     OW26509   6.012   7.051   0.231  0.3362 -0.3279 -0.1130
 4679SOL    HW126510   6.061   6.964   0.232  0.6481 -0.1530 -0.1884
 4679SOL    HW226511   6.017   7.093   0.322 -0.9730 -1.0344  0.2950
 4680SOL     OW26512   2.138   5.582   6.164  0.2123 -0.3621  0.3618
 4680SOL    HW126513   2.130   5.506   6.229 -1.5816 -0.2649  0.2851
 4680SOL    HW226514   2.049   5.627   6.154  1.3493  2.0598  0.7460
 4681SOL     OW26515   5.237   4.339   4.515  0.5926 -0.2358 -0.1480
 4681SOL    HW126516   5.202   4.431   4.534 -1.0597 -0.7088 -0.8317
 4681SOL    HW226517   5.261   4.295   4.601  0.7078  0.5765  0.2407
 4682SOL     OW26518   4.740   7.197   1.867  0.0822 -0.2809 -0.0423
 4682SOL    HW126519   4.753   7.152   1.778 -0.4355  1.2166 -0.9061
 4682SOL    HW226520   4.792   7.282   1.869 -0.8938  0.3178  0.6099
 4683SOL     OW26521   4.877   5.551   3.785 -0.2898 -0.7101  0.2922
 4683SOL    HW126522   4.912   5.458   3.768 -0.7767 -0.7491 -0.5290
 4683SOL    HW226523   4.859   5.562   3.883  1.3830 -0.9076  0.6453
 4684SOL     OW26524   6.675   6.706   4.614 -0.5391 -0.1673  0.2318
 4684SOL    HW126525   6.599   6.755   4.571 -1.5837 -0.3995  1.7645
 4684SOL    HW226526   6.725   6.768   4.674 -2.0716 -0.9788  2.4445
 4685SOL     OW26527   2.495   1.229   3.994  0.6402  0.1009 -0.5237
 4685SOL    HW126528   2.484   1.328   3.988  0.7642  0.3251  2.0680
 4685SOL    HW226529   2.437   1.194   4.069 -0.4030 -1.9740 -2.2441
 4686SOL     OW26530   2.113   4.003   6.370 -0.4562  0.2217  0.1185
 4686SOL    HW126531   2.185   4.046   6.424 -0.1895  0.2408 -0.2517
 4686SOL    HW226532   2.131   4.018   6.272  0.3494 -1.8391 -0.0711
 4687SOL     OW26533   2.980   4.293   7.547 -0.5252 -0.4238  0.1510
 4687SOL    HW126534   2.970   4.303   7.448 -0.4417  0.8702  0.2676
 4687SOL    HW226535   3.028   4.207   7.567 -0.9400 -0.9174 -0.9014
 4688SOL     OW26536   6.789   1.421   7.423  0.7443 -0.0020 -0.4696
 4688SOL    HW126537   6.689   1.420   7.409  0.3981 -0.6749  1.9631
 4688SOL    HW226538   6.814   1.503   7.474  1.0132 -1.4689  1.8179
 4689SOL     OW26539   5.196   5.973   2.819  0.4445  0.1054 -0.4333
 4689SOL    HW126540   5.235   5.992   2.909 -0.4216  2.1663 -0.4596
 4689SOL    HW226541   5.268   5.978   2.750  1.1399 -1.6299  0.1360
 4690SOL     OW26542   6.911   2.798   0.878 -0.1010 -0.4806 -0.0198
 4690SOL    HW126543   6.838   2.783   0.811 -0.8359 -1.7663  1.0546
 4690SOL    HW226544   6.929   2.896   0.885 -2.0658 -0.0961  0.0291
 4691SOL     OW26545   1.771   5.956   3.999 -0.6426  0.5482  0.4466
 4691SOL    HW126546   1.863   5.928   4.028 -0.4015 -0.4821 -1.2386
 4691SOL    HW226547   1.763   5.945   3.900 -2.2927  1.5092  0.4639
 4692SOL     OW26548   7.740   3.877   8.104 -0.3135  0.1828 -0.0829
 4692SOL    HW126549   7.747   3.778   8.103 -1.1226  0.0922  1.6676
 4692SOL    HW226550   7.771   3.914   8.016  1.9334 -1.4788 -0.0286
 4693SOL     OW26551   7.637   2.408   3.458  0.1089  0.0021 -0.4088
 4693SOL    HW126552   7.553   2.438   3.413  0.5865  0.1107 -1.2330
 4693SOL    HW226553   7.654   2.465   3.539  1.3901  2.4537 -2.3619
 4694SOL     OW26554   8.347   5.307   6.415 -0.1184  0.0289  0.2653
 4694SOL    HW126555   8.273   5.349   6.467 -0.5488 -2.3831  1.6395
 4694SOL    HW226556   8.416   5.377   6.393 -0.4138  1.2949  3.1990
 4695SOL     OW26557   3.612   3.979   2.138  0.1887  0.5442 -0.7165
 4695SOL    HW126558   3.542   3.922   2.183  2.5553 -0.9599  1.1831
 4695SOL    HW226559   3.669   3.921   2.079  2.7005  0.8322  1.3299
 4696SOL     OW26560   0.350   5.361   2.198  0.2980  0.2931  0.3653
 4696SOL    HW126561   0.391   5.285   2.148  3.0891  0.5672  2.1518
 4696SOL    HW226562   0.369   5.446   2.150 -0.7222  0.1432 -0.3309
 4697SOL     OW26563   1.916   3.975   4.990  0.4136 -0.1448 -0.0951
 4697SOL    HW126564   1.861   4.055   4.965  0.9437  1.0515  2.4149
 4697SOL    HW226565   2.011   3.990   4.961 -0.2200 -1.6412 -3.2202
 4698SOL     OW26566   5.669   5.775   3.534 -0.2317 -1.0095 -0.0600
 4698SOL    HW126567   5.656   5.681   3.503  1.4614 -0.4942 -2.4564
 4698SOL    HW226568   5.766   5.791   3.553 -0.4767  0.3059  0.1688
 4699SOL     OW26569   6.274   7.277   7.835  0.3629 -0.3141 -0.6699
 4699SOL    HW126570   6.238   7.185   7.850 -0.5385  0.1799  0.2871
 4699SOL    HW226571   6.248   7.309   7.744 -1.3071 -0.1156 -0.1389
 4700SOL     OW26572   2.114   3.774   0.728 -0.2057 -0.5905 -0.3862
 4700SOL    HW126573   2.209   3.801   0.744  0.2488 -1.1850 -1.9521
 4700SOL    HW226574   2.080   3.819   0.645  0.0008 -3.3918 -2.0620
 4701SOL     OW26575   5.489   4.921   6.738 -0.1714  0.1070 -0.7800
 4701SOL    HW126576   5.453   4.829   6.725 -1.0264  0.3752 -0.3086
 4701SOL    HW226577   5.419   4.980   6.778  0.8794  0.5395  0.4590
 4702SOL     OW26578   2.598   2.493   7.235  0.2911  0.4083 -0.0639
 4702SOL    HW126579   2.503   2.518   7.220 -0.0033 -0.8801 -0.4393
 4702SOL    HW226580   2.658   2.565   7.200 -0.5621  1.8144  1.3679
 4703SOL     OW26581   4.581   0.586   0.441  0.0058  0.7865 -0.4643
 4703SOL    HW126582   4.642   0.645   0.493  0.6928 -0.9032  0.7113
 4703SOL    HW226583   4.628   0.554   0.358  0.9434 -0.9469  0.7155
 4704SOL     OW26584   3.930   0.813   6.382  0.3013  0.3757  0.1792
 4704SOL    HW126585   3.939   0.825   6.283  0.4731 -2.3687 -0.1932
 4704SOL    HW226586   3.838   0.781   6.404  0.5586  0.0300  0.7873
 4705SOL     OW26587   7.737   7.675   7.150  0.8577 -0.4705  0.2426
 4705SOL    HW126588   7.730   7.763   7.198  0.5105 -0.5290  0.3010
 4705SOL    HW226589   7.663   7.616   7.180 -1.6397  0.7970 -3.1308
 4706SOL     OW26590   3.051   2.101   2.138 -0.1476  0.4117  0.3518
 4706SOL    HW126591   3.115   2.179   2.134 -0.2592  0.4595 -0.7633
 4706SOL    HW226592   3.103   2.016   2.134 -0.0962  0.4411  0.3835
 4707SOL     OW26593   5.524   5.534   2.953  0.2165  0.0469  0.1015
 4707SOL    HW126594   5.618   5.530   2.919 -0.3720  0.3800 -1.6111
 4707SOL    HW226595   5.508   5.622   2.996  0.2865  0.5297 -0.8455
 4708SOL     OW26596   4.022   3.805   4.381  0.2989 -0.1792  0.1711
 4708SOL    HW126597   4.035   3.741   4.456  0.4869 -3.1794 -2.3153
 4708SOL    HW226598   4.071   3.772   4.300 -1.5273  1.8918 -1.8412
 4709SOL     OW26599   8.501   1.676   3.450 -0.8600 -0.4409 -0.3813
 4709SOL    HW126600   8.544   1.592   3.420 -0.9828 -0.6849  0.1268
 4709SOL    HW226601   8.518   1.690   3.548  0.8699  1.1518 -0.8686
 4710SOL     OW26602   0.768   3.098   1.929 -0.5181 -0.2809 -0.1515
 4710SOL    HW126603   0.804   3.190   1.915  2.3552 -1.1549  0.8841
 4710SOL    HW226604   0.675   3.091   1.894 -0.3733  2.7025 -1.1981
 4711SOL     OW26605   0.815   6.136   1.335  0.3636  0.1213 -0.1168
 4711SOL    HW126606   0.861   6.128   1.423 -0.7061 -0.7207  0.3781
 4711SOL    HW226607   0.883   6.135   1.262  1.1097 -1.8678  0.5512
 4712SOL     OW26608   2.631   5.702   6.372  0.4105 -0.7905 -0.0195
 4712SOL    HW126609   2.599   5.649   6.294 -1.2725 -0.6841  0.5939
 4712SOL    HW226610   2.663   5.792   6.340  0.7260 -1.1502 -0.7159
 4713SOL     OW26611   3.866   3.469   0.400 -0.7372 -0.1605 -0.0086
 4713SOL    HW126612   3.834   3.527   0.475 -0.3893  0.0179  0.0008
 4713SOL    HW226613   3.787   3.431   0.352 -0.9845 -2.3195  2.0304
 4714SOL     OW26614   1.771   8.872   3.537  0.0281 -0.0985  0.2796
 4714SOL    HW126615   1.713   8.798   3.506 -1.1411  0.9233 -0.0223
 4714SOL    HW226616   1.778   8.869   3.637 -0.7500 -0.0820  0.3379
 4715SOL     OW26617   6.893   6.747   2.465  0.4388  0.4788 -0.1916
 4715SOL    HW126618   6.962   6.804   2.511 -0.3410  0.6900  0.7387
 4715SOL    HW226619   6.809   6.747   2.520  0.0917 -0.7227 -0.7241
 4716SOL     OW26620   1.235   1.944   6.158  0.1663 -0.8261  0.7335
 4716SOL    HW126621   1.267   1.850   6.170  0.0639 -0.8987  0.4370
 4716SOL    HW226622   1.178   1.950   6.076  0.2255 -0.4941  0.7151
 4717SOL     OW26623   4.092   6.833   5.088 -0.0448  0.5562  0.6788
 4717SOL    HW126624   4.110   6.834   5.186 -1.3998  2.5682  0.9227
 4717SOL    HW226625   4.016   6.771   5.069  1.1217 -0.9255  0.6973
 4718SOL     OW26626   5.199   5.716   6.330 -0.6693 -0.0369  0.0294
 4718SOL    HW126627   5.110   5.681   6.301 -0.2395 -1.3913  0.3020
 4718SOL    HW226628   5.210   5.703   6.429 -0.7733  1.5033  0.2546
 4719SOL     OW26629   3.936   1.910   6.732  0.4203 -0.3012  0.3292
 4719SOL    HW126630   3.949   1.860   6.817 -1.8913 -0.6198  0.5354
 4719SOL    HW226631   4.006   1.883   6.666  0.1625 -2.6444  0.9821
 4720SOL     OW26632   5.670   2.894   1.497  0.0126  0.3252 -0.3747
 4720SOL    HW126633   5.769   2.904   1.486  0.2555 -1.3888  0.0711
 4720SOL    HW226634   5.627   2.888   1.407  0.5970 -1.2965 -0.5607
 4721SOL     OW26635   2.528   1.420   4.780  0.2600  0.2504  0.0307
 4721SOL    HW126636   2.522   1.486   4.705  1.2568  0.8071  0.4431
 4721SOL    HW226637   2.620   1.381   4.784  0.7743  1.5744  2.0875
 4722SOL     OW26638   7.026   6.906   0.440 -0.3820 -0.2457  0.0857
 4722SOL    HW126639   7.027   6.842   0.518 -0.8336  1.4573  1.5150
 4722SOL    HW226640   7.114   6.899   0.392 -0.3230 -1.7601  0.3609
 4723SOL     OW26641   4.206   7.684   1.635 -0.2974 -0.2690 -0.3452
 4723SOL    HW126642   4.269   7.664   1.560  0.1670 -0.9885  0.2283
 4723SOL    HW226643   4.234   7.634   1.717 -0.5378  0.8560  0.4432
 4724SOL     OW26644   4.512   6.262   6.332  0.4115 -0.5650  0.2491
 4724SOL    HW126645   4.599   6.226   6.366  2.2376  0.9508 -2.6251
 4724SOL    HW226646   4.489   6.217   6.245 -1.3991 -0.5693  0.7184
 4725SOL     OW26647   3.670   6.011   2.325 -0.2391  0.1086  0.3255
 4725SOL    HW126648   3.619   5.935   2.365  0.2550 -0.3716  0.0579
 4725SOL    HW226649   3.730   5.976   2.253 -0.7845  0.8997 -0.5185
 4726SOL     OW26650   8.640   2.935   4.106 -0.0558 -1.0007 -0.0623
 4726SOL    HW126651   8.616   2.838   4.105 -0.5501 -0.8823 -2.7615
 4726SOL    HW226652   8.586   2.984   4.038  1.0403  0.9827  0.4343
 4727SOL     OW26653   7.012   4.326   0.031  0.2052 -0.1720  0.3783
 4727SOL    HW126654   7.036   4.346   0.126  0.5533  0.0757  0.2412
 4727SOL    HW226655   7.092   4.287  -0.016  0.6753  1.6803 -0.3774
 4728SOL     OW26656   1.352   1.440   2.086 -0.6090  1.0869 -0.0051
 4728SOL    HW126657   1.388   1.497   2.160  1.0757 -0.8823  0.7364
 4728SOL    HW226658   1.427   1.406   2.030 -1.3600 -1.9984  0.7436
 4729SOL     OW26659   6.894   1.472   3.071  0.1810  0.1322 -0.1801
 4729SOL    HW126660   6.860   1.550   3.017  0.4306 -0.0991 -0.6773
 4729SOL    HW226661   6.991   1.486   3.090  0.3247 -0.2580 -0.6255
 4730SOL     OW26662   7.453   3.765   3.284 -0.1919  0.1918 -0.0710
 4730SOL    HW126663   7.494   3.855   3.300 -1.4180  0.7360  0.0766
 4730SOL    HW226664   7.515   3.694   3.315  1.5640  0.9101 -1.7893
 4731SOL     OW26665   8.557   1.146   7.578 -0.2782  0.4477  0.3127
 4731SOL    HW126666   8.645   1.187   7.553 -1.0668  1.3412 -1.0897
 4731SOL    HW226667   8.492   1.219   7.599 -1.2057 -0.1340 -0.5193
 4732SOL     OW26668   0.909   3.677   3.031  0.8041  0.0137  0.6542
 4732SOL    HW126669   0.988   3.692   2.973 -0.1310  1.0535 -0.3759
 4732SOL    HW226670   0.917   3.734   3.113  0.4979  1.0933 -0.0641
 4733SOL     OW26671   7.453   0.085   2.030 -0.4308  0.5220  0.3879
 4733SOL    HW126672   7.513   0.092   1.951  0.2394 -0.6701  0.7842
 4733SOL    HW226673   7.442  -0.011   2.056 -0.8680  0.8723  1.5631
 4734SOL     OW26674   1.298   3.235   6.864 -0.2217 -0.5489 -0.0545
 4734SOL    HW126675   1.294   3.209   6.961 -2.5094  1.4237  0.4359
 4734SOL    HW226676   1.355   3.316   6.853  0.9898 -1.4488 -0.5564
 4735SOL     OW26677   8.904   8.031   0.288  0.4781 -0.0207  0.0530
 4735SOL    HW126678   8.970   8.103   0.264  0.5765 -0.0638  0.1929
 4735SOL    HW226679   8.822   8.042   0.232  0.3382  0.4343  0.3446
 4736SOL     OW26680   7.956   4.234   5.013 -0.1023  0.1609 -0.1596
 4736SOL    HW126681   7.995   4.167   5.077  1.6263  2.0718  0.8684
 4736SOL    HW226682   8.027   4.263   4.948 -1.2943 -0.2313 -1.6692
 4737SOL     OW26683   8.224   7.242   1.874  0.2596  0.0028  0.3532
 4737SOL    HW126684   8.138   7.237   1.823  1.1442 -2.5074 -0.9544
 4737SOL    HW226685   8.207   7.215   1.969  0.1605 -3.8616 -0.6809
 4738SOL     OW26686   1.126   6.580   5.997 -0.0320  0.3400 -0.6447
 4738SOL    HW126687   1.148   6.635   6.078  0.2295 -1.2350  0.3683
 4738SOL    HW226688   1.209   6.535   5.963 -0.4051 -0.1067 -0.9663
 4739SOL     OW26689   4.844   4.763   2.402 -0.2069 -0.3720  0.2356
 4739SOL    HW126690   4.755   4.808   2.409  0.1561  0.2016  1.1885
 4739SOL    HW226691   4.840   4.673   2.447 -0.8876 -1.2577 -1.5353
 4740SOL     OW26692   8.414   3.226   7.225 -0.3069 -0.2006 -0.2160
 4740SOL    HW126693   8.355   3.162   7.275  0.1896  0.1423  0.8133
 4740SOL    HW226694   8.381   3.319   7.239  2.4095  0.3336  3.1171
 4741SOL     OW26695   7.778   5.252   7.412  0.4644  0.4021 -0.6904
 4741SOL    HW126696   7.801   5.331   7.468  1.9397  1.3609 -2.5993
 4741SOL    HW226697   7.826   5.172   7.446  0.7598  0.8108 -0.1375
 4742SOL     OW26698   6.350   3.518   7.403  0.7839 -0.3216 -0.1273
 4742SOL    HW126699   6.334   3.425   7.369 -2.9971  0.4118 -0.5954
 4742SOL    HW226700   6.325   3.524   7.499  1.4228  0.1379  0.0185
 4743SOL     OW26701   0.091   1.932   3.915  0.0304 -0.2903  0.0505
 4743SOL    HW126702   0.128   1.956   4.005 -1.4124 -1.2290  0.9233
 4743SOL    HW226703   0.142   1.854   3.878  0.1220 -0.4133  0.4307
 4744SOL     OW26704   8.871   4.903   5.785  0.2497  0.9562 -0.0764
 4744SOL    HW126705   8.783   4.909   5.831 -0.5562  2.3285 -1.7098
 4744SOL    HW226706   8.944   4.935   5.846 -0.4612  0.3632  1.0860
 4745SOL     OW26707   0.773   3.719   6.975  0.0818 -0.6168  0.5327
 4745SOL    HW126708   0.755   3.624   6.948 -3.4719 -0.0260  0.5497
 4745SOL    HW226709   0.810   3.722   7.067 -0.4617 -1.9597  0.8006
 4746SOL     OW26710   6.888   5.172   6.950 -0.2008  0.4016 -0.1182
 4746SOL    HW126711   6.841   5.121   6.878  0.5727  0.1328 -0.4375
 4746SOL    HW226712   6.953   5.237   6.909  0.2986  0.1948  0.3347
 4747SOL     OW26713   2.357   2.554   0.652  0.8590 -0.1498 -0.0939
 4747SOL    HW126714   2.283   2.556   0.719  0.4439  0.1977 -0.5503
 4747SOL    HW226715   2.353   2.469   0.600 -0.2204  0.5499 -1.2006
 4748SOL     OW26716   6.627   0.227   8.807  0.0283 -0.3325 -0.0895
 4748SOL    HW126717   6.613   0.175   8.891  2.0747  0.4123  0.7537
 4748SOL    HW226718   6.577   0.184   8.732 -1.8552 -0.9911  1.5057
 4749SOL     OW26719   4.832   0.059   8.503  0.2697  0.0819 -0.0933
 4749SOL    HW126720   4.774   0.133   8.538 -1.8149 -0.9758 -1.2483
 4749SOL    HW226721   4.802   0.033   8.411  0.5993 -2.5812  0.5051
 4750SOL     OW26722   2.061   3.663   2.720  0.1100 -0.0206 -0.2122
 4750SOL    HW126723   2.155   3.695   2.714  0.2953 -0.8593 -1.8796
 4750SOL    HW226724   2.058   3.564   2.709 -0.8185 -0.1921  1.4198
 4751SOL     OW26725   8.698   5.963   2.517  0.0790  0.3506  0.5355
 4751SOL    HW126726   8.685   5.956   2.418  2.0763 -1.0794  0.3315
 4751SOL    HW226727   8.624   5.916   2.564  0.1524 -0.6749 -0.3529
 4752SOL     OW26728   1.127   7.508   3.307  0.4171 -0.3067 -0.4792
 4752SOL    HW126729   1.218   7.477   3.335 -0.0738 -3.0649 -1.7888
 4752SOL    HW226730   1.057   7.460   3.361 -0.3298  0.3509 -0.8425
 4753SOL     OW26731   7.195   0.175   5.220  0.3558 -0.0923  0.1168
 4753SOL    HW126732   7.218   0.115   5.297  0.1789 -1.0345 -0.5717
 4753SOL    HW226733   7.123   0.238   5.248  0.5231 -0.2117  0.8294
 4754SOL     OW26734   7.844   3.573   0.407 -0.1753  0.1712  0.1417
 4754SOL    HW126735   7.929   3.527   0.430 -0.4653 -1.1548 -1.3471
 4754SOL    HW226736   7.781   3.568   0.485  0.7392  0.3375  0.9068
 4755SOL     OW26737   5.831   0.829   8.872 -0.0163  0.1350 -0.7650
 4755SOL    HW126738   5.775   0.754   8.838 -0.9758  1.3562 -1.9534
 4755SOL    HW226739   5.903   0.793   8.931 -1.7476 -1.5196  0.4051
 4756SOL     OW26740   6.414   7.594   3.779 -0.5010  0.4085 -0.4666
 4756SOL    HW126741   6.424   7.619   3.875  2.0445  2.2426 -1.1867
 4756SOL    HW226742   6.344   7.652   3.737  0.1426  1.2733 -0.3369
 4757SOL     OW26743   3.221   6.589   1.443 -0.0744 -0.1264 -0.3462
 4757SOL    HW126744   3.277   6.596   1.526  2.7760 -1.3593 -2.0825
 4757SOL    HW226745   3.212   6.680   1.402 -1.2991  0.4483  1.1739
 4758SOL     OW26746   3.775   2.299   1.147  0.0934  0.6215 -0.1180
 4758SOL    HW126747   3.847   2.255   1.093  1.5310  2.6307  0.0978
 4758SOL    HW226748   3.806   2.310   1.242 -1.8051 -1.4746  0.7877
 4759SOL     OW26749   6.338   5.752   3.060 -0.1183  0.3698 -0.5348
 4759SOL    HW126750   6.410   5.754   2.990  0.5397  2.3043  0.1512
 4759SOL    HW226751   6.255   5.792   3.022  0.3275  1.6995 -0.1486
 4760SOL     OW26752   7.168   6.651   6.510  0.4977 -0.4539 -0.2959
 4760SOL    HW126753   7.243   6.585   6.507  0.6121 -0.3492  0.2745
 4760SOL    HW226754   7.188   6.721   6.578  0.6553  0.5057 -1.3271
 4761SOL     OW26755   4.217   7.090   4.454  0.1561  0.3013  0.1781
 4761SOL    HW126756   4.269   7.080   4.538 -0.8506  2.9648  1.1772
 4761SOL    HW226757   4.277   7.125   4.382  0.5007  0.2184  0.4240
 4762SOL     OW26758   1.079   8.185   2.732  0.1358  0.2154  0.0261
 4762SOL    HW126759   1.095   8.147   2.823 -1.9382 -0.8967 -0.0471
 4762SOL    HW226760   1.097   8.115   2.663 -0.0084  0.5109 -0.3122
 4763SOL     OW26761   4.137   1.861   0.074 -0.0237 -0.2700  0.3374
 4763SOL    HW126762   4.065   1.916   0.031  0.9315  1.8810  1.4131
 4763SOL    HW226763   4.100   1.818   0.157 -0.3859 -0.0055  0.3192
 4764SOL     OW26764   7.342   1.554   8.091 -0.2105 -0.0181  0.2958
 4764SOL    HW126765   7.324   1.619   8.164  1.4998  0.7997  0.0068
 4764SOL    HW226766   7.362   1.464   8.130 -0.9994 -0.0046  0.7487
 4765SOL     OW26767   1.050   2.028   7.596  0.3520  0.1600 -0.1545
 4765SOL    HW126768   1.075   2.043   7.501  0.9117  0.3325  0.0183
 4765SOL    HW226769   1.057   2.114   7.647 -0.4105  0.1754 -0.0559
 4766SOL     OW26770   5.189   6.166   7.425 -0.4144 -0.6403  0.5551
 4766SOL    HW126771   5.100   6.205   7.400 -0.6963 -0.9579  1.0562
 4766SOL    HW226772   5.247   6.161   7.344  0.0187  1.8154  0.6741
 4767SOL     OW26773   3.362   4.551   5.681  0.3550  0.3798 -0.2152
 4767SOL    HW126774   3.299   4.559   5.758 -0.2106 -0.9667 -0.5224
 4767SOL    HW226775   3.431   4.623   5.687 -0.8288  1.4884  0.4816
 4768SOL     OW26776   1.974   2.582   3.355 -0.3384  0.0473 -0.0317
 4768SOL    HW126777   1.927   2.641   3.289 -2.8808  0.6288  2.2382
 4768SOL    HW226778   1.966   2.486   3.326  0.2076  0.4468 -1.5450
 4769SOL     OW26779   6.148   5.407   2.849  0.2503 -0.1946  0.9708
 4769SOL    HW126780   6.057   5.367   2.839  0.6343 -1.2146  1.4199
 4769SOL    HW226781   6.167   5.422   2.946  0.3089  0.6157  0.8349
 4770SOL     OW26782   0.457   8.836   6.730 -0.0093  0.2914 -0.0238
 4770SOL    HW126783   0.461   8.917   6.787  2.4016  1.3894 -1.6557
 4770SOL    HW226784   0.468   8.862   6.634 -4.8614 -1.4004 -1.1750
 4771SOL     OW26785   6.028   0.093   1.780 -0.4942  0.3759  0.3705
 4771SOL    HW126786   6.126   0.112   1.776 -0.2485 -0.9062  0.1613
 4771SOL    HW226787   6.010   0.022   1.848 -1.1743 -0.0066 -0.2030
 4772SOL     OW26788   0.823   4.652   2.010  0.0021  0.1438 -0.8089
 4772SOL    HW126789   0.887   4.651   2.087  0.2056 -0.1677 -0.9819
 4772SOL    HW226790   0.749   4.588   2.028  0.3330 -0.3297 -1.1095
 4773SOL     OW26791   8.873   2.882   2.886 -0.0216  0.3005 -0.4760
 4773SOL    HW126792   8.813   2.825   2.830 -1.1802  1.5928 -0.5691
 4773SOL    HW226793   8.842   2.880   2.981 -0.1382  0.8740 -0.5030
 4774SOL     OW26794   7.460   0.530   2.046 -0.0523 -0.2012 -0.1594
 4774SOL    HW126795   7.394   0.459   2.071 -0.5115  0.0041 -0.7733
 4774SOL    HW226796   7.530   0.491   1.987  0.7239 -0.5587  0.9744
 4775SOL     OW26797   3.640   8.413   5.005 -1.0422 -0.2879  0.0924
 4775SOL    HW126798   3.619   8.500   4.960 -0.8307  0.5234  1.5387
 4775SOL    HW226799   3.557   8.376   5.046 -0.9830 -0.4211  0.0906
 4776SOL     OW26800   0.712   1.499   2.323 -0.4467  0.1926  0.0156
 4776SOL    HW126801   0.782   1.440   2.283  0.9359  1.0456  1.1375
 4776SOL    HW226802   0.709   1.484   2.422 -0.1745  1.9023  0.2978
 4777SOL     OW26803   0.511   3.005   3.426  0.3635  0.0981 -0.4438
 4777SOL    HW126804   0.458   2.921   3.438  0.4882  0.0578 -0.1754
 4777SOL    HW226805   0.477   3.054   3.346  1.2666 -0.9532 -1.4932
 4778SOL     OW26806   4.212   6.332   4.638  0.2995 -0.1821 -0.3814
 4778SOL    HW126807   4.275   6.270   4.589 -0.0309  0.3141 -1.4474
 4778SOL    HW226808   4.215   6.311   4.735 -0.2426 -2.2814 -0.7931
 4779SOL     OW26809   7.433   4.469   4.619 -0.1995  0.1499 -0.7284
 4779SOL    HW126810   7.368   4.465   4.543 -2.0961  0.1944  0.8601
 4779SOL    HW226811   7.521   4.504   4.586 -0.4587 -1.4082 -3.2349
 4780SOL     OW26812   7.325   6.513   4.418 -0.2529  0.2323 -0.7602
 4780SOL    HW126813   7.341   6.536   4.514 -1.4641 -1.3811 -0.1411
 4780SOL    HW226814   7.356   6.587   4.360 -1.8677  2.3788  1.0293
 4781SOL     OW26815   8.006   1.115   2.433  0.0341 -0.3114 -0.3391
 4781SOL    HW126816   8.041   1.153   2.347 -1.6581 -0.4333 -1.1032
 4781SOL    HW226817   7.906   1.107   2.428 -0.0989 -0.2304  1.6806
 4782SOL     OW26818   5.273   0.139   2.412 -0.4963  0.9043  0.4741
 4782SOL    HW126819   5.255   0.171   2.505 -0.9165  2.0223  0.0078
 4782SOL    HW226820   5.335   0.202   2.366  1.3190 -0.7049  0.6539
 4783SOL     OW26821   7.395   8.401   2.569 -0.3697 -0.1207  0.2378
 4783SOL    HW126822   7.381   8.478   2.631  1.1590 -1.5254  2.3977
 4783SOL    HW226823   7.308   8.378   2.523 -0.9019  2.6334 -0.2101
 4784SOL     OW26824   3.845   4.727   3.931 -0.2623  0.5304  0.6811
 4784SOL    HW126825   3.885   4.655   3.875 -0.1923  2.3926 -1.7395
 4784SOL    HW226826   3.755   4.698   3.964 -0.6915 -0.2745 -1.1367
 4785SOL     OW26827   3.755   4.694   8.777 -0.4308  0.0838 -0.0399
 4785SOL    HW126828   3.840   4.741   8.753 -1.0475  1.6652  0.8012
 4785SOL    HW226829   3.775   4.598   8.798  1.1268  0.4100  0.0514
 4786SOL     OW26830   7.240   3.874   8.259  0.5453 -0.4462  0.3269
 4786SOL    HW126831   7.302   3.941   8.300  1.2256 -1.3759  0.8123
 4786SOL    HW226832   7.283   3.835   8.177 -0.3812  0.6450 -0.6982
 4787SOL     OW26833   5.796   2.669   3.449 -0.0582  0.0795 -0.4082
 4787SOL    HW126834   5.720   2.604   3.447 -1.0880  1.2129  0.8957
 4787SOL    HW226835   5.760   2.762   3.450  1.2838  0.6110  2.1205
 4788SOL     OW26836   6.596   0.476   7.872  0.1886  0.0043  0.2625
 4788SOL    HW126837   6.605   0.507   7.966 -0.0834  1.2521 -0.1129
 4788SOL    HW226838   6.682   0.488   7.824 -0.0114  0.4902  0.0234
 4789SOL     OW26839   3.727   4.064   0.538 -0.2781  0.2288  0.1227
 4789SOL    HW126840   3.794   4.087   0.608  0.4069 -1.5817  0.0736
 4789SOL    HW226841   3.774   4.034   0.455 -1.1461 -1.4413  0.2240
 4790SOL     OW26842   0.306   0.174   5.229 -0.1494  0.3657  0.4024
 4790SOL    HW126843   0.333   0.243   5.162  0.7146 -0.0589  0.2989
 4790SOL    HW226844   0.381   0.108   5.240  0.0619  0.9082  2.4146
 4791SOL     OW26845   7.268   2.065   2.925 -0.5223 -0.3389 -0.2185
 4791SOL    HW126846   7.291   2.154   2.888 -0.3487  0.6307  2.1553
 4791SOL    HW226847   7.247   2.002   2.850  1.3984  1.0975 -1.9951
 4792SOL     OW26848   2.547   8.181   8.629  0.1706  0.1699  0.0118
 4792SOL    HW126849   2.570   8.085   8.611 -0.8247 -0.1774  0.5297
 4792SOL    HW226850   2.478   8.185   8.702 -1.1508  1.1825 -1.2545
 4793SOL     OW26851   5.199   8.808   7.464 -0.0188 -0.0212 -0.3542
 4793SOL    HW126852   5.163   8.739   7.527  2.3452 -0.9725  0.0248
 4793SOL    HW226853   5.219   8.766   7.376  2.5387 -0.1495  0.2423
 4794SOL     OW26854   7.612   6.373   3.991 -0.3225  0.3944  0.1336
 4794SOL    HW126855   7.627   6.415   4.080  1.3153  2.6530 -1.1654
 4794SOL    HW226856   7.647   6.433   3.919  1.4375 -2.8693 -1.8471
 4795SOL     OW26857   4.385   1.353   3.827 -0.1170 -0.1685  0.7554
 4795SOL    HW126858   4.450   1.405   3.883  1.0724 -2.0198  1.1211
 4795SOL    HW226859   4.407   1.256   3.832 -1.6099 -0.6076 -0.8655
 4796SOL     OW26860   1.369   1.340   5.970  0.3186 -0.2370  0.3497
 4796SOL    HW126861   1.318   1.425   5.981 -1.0749 -1.0386  0.2002
 4796SOL    HW226862   1.381   1.297   6.059  1.2201  0.2228  0.4539
 4797SOL     OW26863   7.037   3.188   8.305  0.2303  0.1295  0.1784
 4797SOL    HW126864   7.079   3.260   8.251 -1.1537  0.4963 -0.4079
 4797SOL    HW226865   6.957   3.224   8.354  0.0326 -0.7910  0.5527
 4798SOL     OW26866   4.744   7.103   1.221 -0.9031 -0.3656  0.3168
 4798SOL    HW126867   4.839   7.072   1.229 -0.4755  0.3117 -1.7325
 4798SOL    HW226868   4.685   7.024   1.201 -0.5467 -0.5727  0.0694
 4799SOL     OW26869   2.379   5.539   4.352  0.0896  1.2194 -0.6850
 4799SOL    HW126870   2.361   5.521   4.449 -0.9570  0.9542 -0.9208
 4799SOL    HW226871   2.415   5.456   4.309 -0.5874  0.9729 -0.7864
 4800SOL     OW26872   8.742   5.689   4.275 -0.0483  0.0264 -0.0358
 4800SOL    HW126873   8.761   5.760   4.343  1.1654  1.4637 -1.8097
 4800SOL    HW226874   8.688   5.616   4.317  2.1659 -0.0063  2.9237
 4801SOL     OW26875   4.237   0.060   8.212 -0.8683 -0.1733 -0.0901
 4801SOL    HW126876   4.278  -0.029   8.233 -1.8463 -0.0858  2.3262
 4801SOL    HW226877   4.186   0.052   8.126  0.3726 -1.5033 -0.7367
 4802SOL     OW26878   7.370   1.684   7.611  0.7557 -0.7007 -0.1420
 4802SOL    HW126879   7.442   1.750   7.591  0.4174 -0.1022  0.5932
 4802SOL    HW226880   7.324   1.657   7.526  2.2949 -1.6154 -0.7118
 4803SOL     OW26881   2.806   1.009   6.323 -0.0831 -0.1227 -0.0238
 4803SOL    HW126882   2.759   0.925   6.350  0.2294  0.1912  1.5992
 4803SOL    HW226883   2.828   1.062   6.405 -0.1567  1.4831 -1.0148
 4804SOL     OW26884   6.218   1.588   7.845  0.0917 -0.3246 -0.2859
 4804SOL    HW126885   6.120   1.608   7.846  0.0631 -0.4958  0.6366
 4804SOL    HW226886   6.243   1.538   7.928  1.0439  0.1346 -0.2865
 4805SOL     OW26887   8.103   0.732   0.580  0.7978  0.0884  0.5682
 4805SOL    HW126888   8.038   0.795   0.538  0.9803 -0.7964 -1.0670
 4805SOL    HW226889   8.059   0.644   0.594  2.1382 -1.0976 -2.2795
 4806SOL     OW26890   5.399   5.650   4.227  0.1327  0.7786  0.2224
 4806SOL    HW126891   5.388   5.617   4.321  1.2979 -0.3501 -0.0297
 4806SOL    HW226892   5.309   5.666   4.187 -0.3948  0.2731  1.1797
 4807SOL     OW26893   0.815   7.851   2.355 -0.5509 -0.4264  0.7639
 4807SOL    HW126894   0.858   7.794   2.286 -2.5499  0.0878 -0.9724
 4807SOL    HW226895   0.866   7.844   2.441  2.7510 -0.0940 -1.0736
 4808SOL     OW26896   2.787   6.581   6.941 -0.5969  0.1940  0.1201
 4808SOL    HW126897   2.834   6.656   6.987 -0.1190 -0.5839  0.9177
 4808SOL    HW226898   2.851   6.532   6.882 -0.4172 -0.7946  1.1179
 4809SOL     OW26899   7.045   6.321   3.616 -0.5127 -0.0461 -0.2580
 4809SOL    HW126900   7.101   6.258   3.669 -1.7554 -0.7095  0.3013
 4809SOL    HW226901   7.064   6.311   3.519  0.0519 -0.5285 -0.0964
 4810SOL     OW26902   3.140   4.179   2.070  0.5606  0.0597 -0.2691
 4810SOL    HW126903   3.192   4.094   2.081  1.6773  1.0646  2.5771
 4810SOL    HW226904   3.051   4.169   2.114  1.4142  0.9419  1.7323
 4811SOL     OW26905   6.650   6.201   6.100  0.0756 -0.6226 -0.0676
 4811SOL    HW126906   6.727   6.259   6.075 -1.5147  2.2185  1.4833
 4811SOL    HW226907   6.661   6.170   6.194 -1.7625  1.6252  0.9036
 4812SOL     OW26908   2.558   5.019   6.188 -0.1127 -0.6589  0.1440
 4812SOL    HW126909   2.477   4.962   6.192  0.0417 -0.7959  1.4292
 4812SOL    HW226910   2.570   5.067   6.275  0.8892 -0.2379 -0.2142
 4813SOL     OW26911   6.209   8.189   3.425 -0.3647 -0.1815  0.1932
 4813SOL    HW126912   6.135   8.222   3.366 -0.7230 -0.9574  0.2080
 4813SOL    HW226913   6.295   8.230   3.396 -1.1153  2.5006  1.5818
 4814SOL     OW26914   7.021   4.415   4.639 -0.5866 -0.4290 -0.2863
 4814SOL    HW126915   7.048   4.361   4.559 -4.3843 -1.0971 -1.1917
 4814SOL    HW226916   7.052   4.510   4.627  0.3473 -0.9018 -1.7469
 4815SOL     OW26917   3.468   6.273   8.467  0.3088  0.0103  0.1147
 4815SOL    HW126918   3.466   6.173   8.474  1.0414  0.0125  0.4233
 4815SOL    HW226919   3.376   6.310   8.484  0.9700 -0.3028  5.2184
 4816SOL     OW26920   4.489   6.165   2.356 -0.0107  0.0065 -0.5128
 4816SOL    HW126921   4.427   6.234   2.319  0.4574  0.2823 -0.7927
 4816SOL    HW226922   4.463   6.075   2.321 -1.1378 -0.0876  0.5068
 4817SOL     OW26923   1.053   2.838   0.411  0.1811 -0.4805  0.6775
 4817SOL    HW126924   1.048   2.738   0.417  2.0054 -0.7339 -1.2393
 4817SOL    HW226925   0.974   2.872   0.359 -0.1171 -0.9807  0.7951
 4818SOL     OW26926   4.127   1.605   6.803  0.8479  0.2252 -0.1371
 4818SOL    HW126927   4.093   1.643   6.889  0.4166  1.2577 -0.7546
 4818SOL    HW226928   4.113   1.506   6.802 -2.8240  0.6788 -0.6446
 4819SOL     OW26929   7.922   2.788   6.882 -0.4316 -0.9181 -0.0328
 4819SOL    HW126930   7.840   2.845   6.887  0.1002 -0.2211  0.9381
 4819SOL    HW226931   7.904   2.700   6.926 -0.8777 -1.0431 -0.4628
 4820SOL     OW26932   3.275   3.978   1.735  0.1823 -0.0144 -0.2351
 4820SOL    HW126933   3.192   4.013   1.691  0.5634  0.1386 -0.8443
 4820SOL    HW226934   3.273   3.878   1.736  0.4469 -0.0404 -1.1718
 4821SOL     OW26935   6.604   0.755   7.752  0.2410 -0.2074  0.2139
 4821SOL    HW126936   6.681   0.724   7.808  0.9494  0.4009 -0.4236
 4821SOL    HW226937   6.634   0.768   7.658 -0.7954 -0.5860 -0.1742
 4822SOL     OW26938   3.417   6.263   2.665 -0.1490  0.5909  0.1522
 4822SOL    HW126939   3.503   6.274   2.716  0.3931 -0.6742 -0.4785
 4822SOL    HW226940   3.399   6.166   2.650 -1.8925  0.8352  0.5926
 4823SOL     OW26941   4.362   4.600   7.836 -0.5758 -0.6048 -0.2419
 4823SOL    HW126942   4.310   4.631   7.757  1.5119  0.0646 -1.3938
 4823SOL    HW226943   4.459   4.621   7.822 -0.3744  1.1549  3.2728
 4824SOL     OW26944   3.004   7.896   0.827 -0.4628 -0.0052  0.1823
 4824SOL    HW126945   2.932   7.966   0.830 -0.7549 -0.2727 -0.6653
 4824SOL    HW226946   2.973   7.815   0.876 -1.3735 -0.7081 -1.5119
 4825SOL     OW26947   5.290   1.096   1.326 -0.1408 -0.4422 -0.0715
 4825SOL    HW126948   5.301   1.127   1.232 -0.5852 -0.3101 -0.0787
 4825SOL    HW226949   5.262   1.174   1.383 -0.5285 -0.6676  0.0465
 4826SOL     OW26950   5.579   3.906   5.655 -0.5824  0.1089 -0.0651
 4826SOL    HW126951   5.657   3.965   5.674  0.3823 -0.5635 -1.7564
 4826SOL    HW226952   5.610   3.811   5.653 -1.9424 -0.3886  1.7233
 4827SOL     OW26953   5.598   1.338   8.564 -0.1383 -0.7767  0.0320
 4827SOL    HW126954   5.560   1.269   8.625  1.7435 -0.2103  1.8886
 4827SOL    HW226955   5.544   1.422   8.572 -1.7505 -1.6353 -1.4058
 4828SOL     OW26956   1.928   5.481   3.126 -0.5641  0.0608  0.9884
 4828SOL    HW126957   1.877   5.408   3.173 -0.1491 -0.6193  0.3899
 4828SOL    HW226958   2.024   5.454   3.117 -0.0197  1.4630  2.3620
 4829SOL     OW26959   6.766   4.175   7.812 -0.1795 -0.2379 -0.0956
 4829SOL    HW126960   6.757   4.270   7.782  0.1111 -0.0519  0.3946
 4829SOL    HW226961   6.762   4.171   7.911 -2.3321 -0.9921 -0.1980
 4830SOL     OW26962   7.063   8.069   1.368 -0.0858  0.3078  0.0858
 4830SOL    HW126963   7.034   8.165   1.369 -2.2092 -0.2952  0.6378
 4830SOL    HW226964   7.017   8.020   1.443  0.5637 -1.2455 -0.5170
 4831SOL     OW26965   5.371   4.830   2.134  0.1672  0.4904  0.1698
 4831SOL    HW126966   5.332   4.786   2.053  1.4374  1.2387 -0.8748
 4831SOL    HW226967   5.307   4.898   2.170 -0.4746  0.0254 -0.0908
 4832SOL     OW26968   6.093   1.418   1.319 -0.8111  0.0472  0.3125
 4832SOL    HW126969   5.994   1.423   1.333 -0.9392 -2.2016  0.4607
 4832SOL    HW226970   6.133   1.358   1.388  0.4692 -0.0775 -0.5174
 4833SOL     OW26971   4.942   2.227   4.423 -0.2208  0.0452  0.1208
 4833SOL    HW126972   4.971   2.150   4.480 -1.6778  0.1717  1.0412
 4833SOL    HW226973   4.851   2.257   4.450 -0.2683  1.1645 -1.2030
 4834SOL     OW26974   5.282   8.946   4.166  0.0387 -0.3450  0.3240
 4834SOL    HW126975   5.233   9.028   4.137 -1.4619 -2.2439 -2.7715
 4834SOL    HW226976   5.381   8.963   4.163 -0.2610  1.5121  0.3384
 4835SOL     OW26977   5.758   0.480   1.679  0.3289 -0.2819 -0.8673
 4835SOL    HW126978   5.764   0.380   1.680 -0.3600 -0.3208 -0.0462
 4835SOL    HW226979   5.662   0.508   1.679  0.5180  0.3821 -0.9144
 4836SOL     OW26980   4.628   1.512   2.558 -0.3040 -0.3600  0.0904
 4836SOL    HW126981   4.553   1.577   2.547 -1.3996 -1.5731  0.3853
 4836SOL    HW226982   4.709   1.547   2.510 -0.5412  1.7580  1.1715
 4837SOL     OW26983   7.889   3.286   7.265  0.5018  0.5802 -0.6919
 4837SOL    HW126984   7.859   3.232   7.343 -0.7066  1.0739 -0.7980
 4837SOL    HW226985   7.937   3.227   7.200 -0.0337 -0.1797 -0.4060
 4838SOL     OW26986   4.536   3.868   7.496 -0.4473  0.6130  0.1115
 4838SOL    HW126987   4.540   3.935   7.421 -1.0750  1.1662  0.5615
 4838SOL    HW226988   4.497   3.912   7.577 -1.5884 -0.5091  0.1878
 4839SOL     OW26989   3.478   0.405   1.537  0.0332 -0.3472  0.3267
 4839SOL    HW126990   3.499   0.409   1.439  0.4420  2.1235  0.4830
 4839SOL    HW226991   3.525   0.479   1.584  1.3649 -2.6559  2.7193
 4840SOL     OW26992   0.619   5.051   7.947  0.0516 -0.2341  0.0128
 4840SOL    HW126993   0.631   5.141   7.988 -2.7631  0.6960 -1.1027
 4840SOL    HW226994   0.700   4.995   7.967  0.8090  1.6979  2.7549
 4841SOL     OW26995   8.447   5.174   7.096  0.2967  0.2813 -0.2401
 4841SOL    HW126996   8.505   5.255   7.102  0.7990 -0.2416  2.2880
 4841SOL    HW226997   8.422   5.159   7.000  4.0330  0.7159 -1.3724
 4842SOL     OW26998   4.407   1.152   0.047 -0.1116  0.6390  0.1570
 4842SOL    HW126999   4.481   1.146  -0.020 -1.2072 -0.4642 -0.9631
 4842SOL    HW227000   4.319   1.136   0.002 -0.8271 -0.6119  1.9478
 4843SOL     OW27001   4.123   3.823   6.458  1.2023  0.5342 -0.4378
 4843SOL    HW127002   4.026   3.811   6.478  1.2246 -1.3339 -1.2906
 4843SOL    HW227003   4.178   3.779   6.529  1.4735  2.5465  0.6401
 4844SOL     OW27004   5.193   4.324   5.582  0.5813  0.0221 -0.1332
 4844SOL    HW127005   5.152   4.237   5.608  0.0011  0.5038  0.5734
 4844SOL    HW227006   5.132   4.374   5.521  0.4883  0.3717  0.2483
 4845SOL     OW27007   0.225   4.662   2.186 -0.2922 -0.4641  0.4968
 4845SOL    HW127008   0.294   4.645   2.256 -0.3386  0.1071  0.6844
 4845SOL    HW227009   0.137   4.682   2.229 -0.7548 -1.9519  0.2468
 4846SOL     OW27010   7.693   1.829   1.869  0.4933  0.0685  0.2602
 4846SOL    HW127011   7.635   1.849   1.790  2.9074  1.4639 -1.2249
 4846SOL    HW227012   7.663   1.885   1.947 -0.9442 -0.1828 -0.1009
 4847SOL     OW27013   3.854   3.134   1.195 -0.1921 -0.5420 -0.4583
 4847SOL    HW127014   3.764   3.105   1.227  0.6069 -0.2168  2.2884
 4847SOL    HW227015   3.870   3.099   1.103 -2.5936 -1.7007 -0.4746
 4848SOL     OW27016   3.234   7.663   0.556  0.0258  0.5494  0.1450
 4848SOL    HW127017   3.163   7.723   0.519  0.6905  1.2825  0.0374
 4848SOL    HW227018   3.316   7.671   0.500 -0.2960 -1.4424 -0.6294
 4849SOL     OW27019   5.644   5.517   4.472 -0.7191  0.1172 -0.4168
 4849SOL    HW127020   5.719   5.543   4.411  1.1219 -0.6051  1.4787
 4849SOL    HW227021   5.636   5.417   4.474 -2.1549  0.2038 -1.0669
 4850SOL     OW27022   0.080   2.647   1.547  0.1640  0.3533 -0.4661
 4850SOL    HW127023   0.111   2.735   1.583 -2.1851  0.3502  1.6639
 4850SOL    HW227024   0.128   2.573   1.593 -0.4854  0.4461  0.3821
 4851SOL     OW27025   3.767   8.535   1.014 -0.2642  0.4180 -0.2745
 4851SOL    HW127026   3.748   8.567   0.922 -0.0026 -0.6988 -0.7183
 4851SOL    HW227027   3.861   8.559   1.039 -0.1570  0.2408 -0.5064
 4852SOL     OW27028   3.587   7.836   0.091  0.1760 -0.2957  0.0606
 4852SOL    HW127029   3.582   7.840   0.191  1.0614  1.2281  0.0660
 4852SOL    HW227030   3.682   7.844   0.062 -0.0818 -0.6741 -0.9122
 4853SOL     OW27031   2.055   1.852   4.573 -0.0850  0.1200 -0.4727
 4853SOL    HW127032   2.107   1.802   4.643 -0.8924  0.3748  0.3110
 4853SOL    HW227033   1.958   1.852   4.598 -0.1494  1.6373 -0.7418
 4854SOL     OW27034   3.624   7.167   7.283  0.1795 -0.1697 -0.2177
 4854SOL    HW127035   3.621   7.163   7.383  1.6729 -2.1973 -0.2273
 4854SOL    HW227036   3.531   7.175   7.248 -0.4546 -0.7198  1.2870
 4855SOL     OW27037   1.697   5.835   8.063  0.0159  0.1056 -0.2981
 4855SOL    HW127038   1.625   5.803   8.002 -0.9067  0.9486  0.3283
 4855SOL    HW227039   1.681   5.799   8.155  1.2551 -0.9519 -0.4716
 4856SOL     OW27040   1.043   0.257   2.389  0.1893 -0.2815 -0.6341
 4856SOL    HW127041   1.038   0.346   2.344 -0.3820 -0.2592 -0.5318
 4856SOL    HW227042   1.086   0.190   2.328 -0.3591 -0.1937 -1.1126
 4857SOL     OW27043   2.024   5.092   1.095 -0.3204 -0.1171 -0.4645
 4857SOL    HW127044   2.106   5.040   1.122  0.7338  2.0453  0.6055
 4857SOL    HW227045   1.960   5.031   1.049  0.7313 -2.4592  1.0696
 4858SOL     OW27046   1.153   0.880   8.852  0.6164 -0.1805 -0.5880
 4858SOL    HW127047   1.243   0.880   8.895 -0.0116 -1.9472  0.8025
 4858SOL    HW227048   1.164   0.884   8.753  2.1853  0.5614 -0.4103
 4859SOL     OW27049   2.043   4.311   1.288 -0.0272 -0.0985  0.0278
 4859SOL    HW127050   2.092   4.287   1.204 -0.3227 -1.6442  0.2866
 4859SOL    HW227051   2.093   4.276   1.367 -0.1377  0.7066  0.4614
 4860SOL     OW27052   2.560   5.834   1.567  0.1297  0.4298  0.0535
 4860SOL    HW127053   2.625   5.902   1.602 -0.5008 -0.5663  3.3846
 4860SOL    HW227054   2.607   5.771   1.505  1.7831  1.1229  0.5914
 4861SOL     OW27055   0.754   2.221   7.857 -0.0426 -0.1654  0.4548
 4861SOL    HW127056   0.729   2.217   7.954 -1.0501  1.9505  0.3094
 4861SOL    HW227057   0.718   2.140   7.810 -0.9100 -0.4187  1.5379
 4862SOL     OW27058   4.733   5.525   7.209 -0.1488  0.6545 -0.1806
 4862SOL    HW127059   4.740   5.623   7.187  0.8619  0.9892  1.4863
 4862SOL    HW227060   4.819   5.495   7.250 -1.3636 -0.2962  1.7556
 4863SOL     OW27061   5.035   4.941   4.960  0.0180  0.5441 -0.1338
 4863SOL    HW127062   5.102   4.867   4.954 -0.2548  0.3927 -1.3187
 4863SOL    HW227063   4.946   4.908   4.928 -0.1778  1.3099 -0.3858
 4864SOL     OW27064   8.325   7.433   7.226 -0.7171 -0.1763  0.2090
 4864SOL    HW127065   8.326   7.532   7.233  0.0838 -0.1612 -0.0815
 4864SOL    HW227066   8.274   7.395   7.303  0.0440  0.4087  1.0086
 4865SOL     OW27067   6.581   8.867   6.967 -0.0726  0.3682 -0.5429
 4865SOL    HW127068   6.557   8.875   7.064  1.1132  1.3499 -0.3274
 4865SOL    HW227069   6.598   8.958   6.929  0.9736 -0.1362 -1.2879
 4866SOL     OW27070   1.079   2.027   8.758  0.4758 -0.3032 -0.4533
 4866SOL    HW127071   1.040   1.994   8.672 -0.6036 -1.2530  0.3879
 4866SOL    HW227072   1.032   2.110   8.787  0.2711 -0.4540 -0.3515
 4867SOL     OW27073   0.672   2.963   6.644 -0.3276  0.1445  0.1643
 4867SOL    HW127074   0.711   3.049   6.679  0.6999  0.2700 -1.2575
 4867SOL    HW227075   0.619   2.982   6.561  1.4182 -0.8227 -1.2088
 4868SOL     OW27076   3.725   7.277   1.234  0.1501  0.0506  0.4284
 4868SOL    HW127077   3.652   7.263   1.167  0.3028  1.7231 -0.1243
 4868SOL    HW227078   3.723   7.204   1.301 -0.7078 -1.0611 -0.7788
 4869SOL     OW27079   4.123   1.090   4.972 -0.2660  0.0482 -0.0402
 4869SOL    HW127080   4.094   1.000   4.938 -1.1271 -0.1000  1.0510
 4869SOL    HW227081   4.211   1.114   4.932 -0.0430 -1.2701 -0.3603
 4870SOL     OW27082   6.868   4.231   1.610 -0.1849 -0.0680  0.0893
 4870SOL    HW127083   6.838   4.288   1.687 -0.3747  1.3988 -1.0365
 4870SOL    HW227084   6.953   4.185   1.634 -0.0265  0.6935  1.0292
 4871SOL     OW27085   0.304   8.070   4.332 -0.1944  0.1054 -0.2503
 4871SOL    HW127086   0.212   8.077   4.372 -0.4387  0.5554 -0.8969
 4871SOL    HW227087   0.367   8.037   4.402 -0.8161 -0.0523  0.2462
 4872SOL     OW27088   4.945   0.795   0.678  0.5749 -0.4100 -0.2826
 4872SOL    HW127089   5.020   0.736   0.708  1.8295  0.9396 -0.7411
 4872SOL    HW227090   4.973   0.891   0.685 -1.5927  0.1734  0.8903
 4873SOL     OW27091   4.885   3.096   7.890  0.0622 -0.6455  0.2753
 4873SOL    HW127092   4.970   3.104   7.838  0.2173 -1.0101  0.4678
 4873SOL    HW227093   4.807   3.098   7.828  0.1591  0.8953  0.2002
 4874SOL     OW27094   8.320   5.837   5.945 -0.1711 -0.1574 -0.0311
 4874SOL    HW127095   8.358   5.821   5.853 -1.1260  1.0324 -0.6493
 4874SOL    HW227096   8.234   5.787   5.953  0.1362 -0.6302  0.3981
 4875SOL     OW27097   6.247   4.378   2.578 -0.4076 -0.1537 -0.8678
 4875SOL    HW127098   6.341   4.362   2.549 -0.4448 -0.9655 -0.5458
 4875SOL    HW227099   6.202   4.291   2.598 -1.0437  0.2626 -0.4392
 4876SOL     OW27100   5.996   0.487   2.568  0.1440  0.1603  0.0960
 4876SOL    HW127101   5.971   0.434   2.649 -1.0794  0.7474  0.1111
 4876SOL    HW227102   5.966   0.582   2.579 -2.0619 -0.2576 -2.0004
 4877SOL     OW27103   2.120   8.567   2.591 -0.2045  0.1194 -0.1837
 4877SOL    HW127104   2.214   8.559   2.623 -0.4698 -1.4823  0.2408
 4877SOL    HW227105   2.116   8.545   2.494 -0.1686  0.0638 -0.1724
 4878SOL     OW27106   1.589   5.346   2.530  0.3830 -0.0260 -0.6044
 4878SOL    HW127107   1.503   5.312   2.567  0.5422  0.0525 -0.1586
 4878SOL    HW227108   1.622   5.422   2.585  2.4045 -2.1621  1.2559
 4879SOL     OW27109   1.476   0.354   5.972 -1.0575  1.0440  0.0052
 4879SOL    HW127110   1.455   0.438   5.923 -1.3684  1.4977  0.9023
 4879SOL    HW227111   1.534   0.375   6.051  0.1665  0.2058 -0.6717
 4880SOL     OW27112   5.406   8.895   8.052 -0.5663  0.1588 -0.0002
 4880SOL    HW127113   5.387   8.824   7.984  0.5962  1.4280 -1.6713
 4880SOL    HW227114   5.350   8.976   8.033  0.0090  0.6428  0.3408
 4881SOL     OW27115   3.610   8.718   6.626 -0.1279  0.3198  0.1886
 4881SOL    HW127116   3.575   8.626   6.642  1.2185 -0.0728  0.9734
 4881SOL    HW227117   3.534   8.783   6.625 -0.8883 -0.5342  1.5966
 4882SOL     OW27118   4.081   8.345   1.755 -0.5168  0.5159 -0.2340
 4882SOL    HW127119   4.040   8.256   1.734  0.7343 -0.3008  0.6410
 4882SOL    HW227120   4.011   8.408   1.788 -1.3005 -0.3786 -0.1766
 4883SOL     OW27121   5.516   5.802   4.812  0.3183  0.3695 -0.4525
 4883SOL    HW127122   5.452   5.848   4.751  0.2181  0.0260 -0.6087
 4883SOL    HW227123   5.578   5.869   4.853 -2.0837  1.1329  2.0851
 4884SOL     OW27124   2.682   6.544   5.076 -0.2659  0.1911  0.0623
 4884SOL    HW127125   2.739   6.588   5.006 -0.7871 -0.0239 -0.5078
 4884SOL    HW227126   2.621   6.613   5.116  0.3916  0.4205  0.6739
 4885SOL     OW27127   8.502   6.638   0.932  0.0424  0.4336 -0.4333
 4885SOL    HW127128   8.556   6.575   0.877  0.2318 -0.8729  1.2206
 4885SOL    HW227129   8.558   6.673   1.007 -0.2591  2.0943 -0.9444
 4886SOL     OW27130   5.763   4.352   5.654 -0.0438 -0.7322 -0.1490
 4886SOL    HW127131   5.762   4.412   5.735  1.1628 -1.0438  0.1004
 4886SOL    HW227132   5.677   4.302   5.650  1.3689 -3.6538  3.1880
 4887SOL     OW27133   7.473   3.723   4.078 -0.3201 -0.4150  0.3318
 4887SOL    HW127134   7.480   3.694   4.173  3.4020 -0.9529 -0.0464
 4887SOL    HW227135   7.481   3.823   4.072 -3.1410 -0.1254  0.7548
 4888SOL     OW27136   7.817   1.373   1.657  0.0489  0.0181  0.1353
 4888SOL    HW127137   7.754   1.297   1.645  1.0662 -0.3463 -3.2791
 4888SOL    HW227138   7.782   1.434   1.728 -1.0107 -3.3404  2.6384
 4889SOL     OW27139   2.035   4.491   5.555 -0.2706 -0.2245  0.0298
 4889SOL    HW127140   2.127   4.453   5.563 -0.4790 -0.9106 -0.7336
 4889SOL    HW227141   2.040   4.591   5.561  0.5967 -0.2194 -0.5370
 4890SOL     OW27142   2.821   5.212   8.734 -0.1365 -0.1118 -0.2714
 4890SOL    HW127143   2.876   5.262   8.801 -0.4041  0.3659 -0.4091
 4890SOL    HW227144   2.729   5.250   8.732  0.6462  1.7385 -2.9796
 4891SOL     OW27145   7.259   4.342   3.439 -0.4125 -0.1683 -0.4360
 4891SOL    HW127146   7.218   4.265   3.391  1.1212 -1.0829 -0.3243
 4891SOL    HW227147   7.306   4.308   3.521  0.6663  0.8301 -0.6330
 4892SOL     OW27148   7.895   0.573   0.046  0.1992 -0.2775  0.2868
 4892SOL    HW127149   7.927   0.479   0.055 -0.6905 -0.5096  1.0905
 4892SOL    HW227150   7.945   0.631   0.111  0.3491 -0.2903  0.1844
 4893SOL     OW27151   7.833   8.123   6.837 -0.1084 -0.1981  0.5965
 4893SOL    HW127152   7.816   8.024   6.834 -0.2550 -0.1562 -0.0122
 4893SOL    HW227153   7.809   8.163   6.748  0.3177  0.3246  0.7205
 4894SOL     OW27154   5.120   1.656   4.545  0.1280 -0.5005 -0.2521
 4894SOL    HW127155   5.077   1.698   4.625  0.0170 -1.4950  0.2146
 4894SOL    HW227156   5.157   1.728   4.486  1.9471  0.1760  1.6644
 4895SOL     OW27157   3.740   3.140   5.737  0.1301 -0.1333  1.1959
 4895SOL    HW127158   3.704   3.047   5.732  0.8356 -0.3028 -1.5685
 4895SOL    HW227159   3.667   3.205   5.718  0.6181 -0.3500 -1.5274
 4896SOL     OW27160   7.178   2.708   6.402 -0.8276  0.6502 -0.0502
 4896SOL    HW127161   7.114   2.654   6.457 -2.4672  1.3977 -1.1477
 4896SOL    HW227162   7.199   2.794   6.449  2.6981 -1.3539  2.2365
 4897SOL     OW27163   2.514   6.369   5.521  0.6237  0.2610 -0.0812
 4897SOL    HW127164   2.579   6.415   5.583 -0.1606  0.1216  0.8574
 4897SOL    HW227165   2.424   6.367   5.563  0.0382  0.2904 -1.3086
 4898SOL     OW27166   8.489   7.062   1.271  0.3607 -0.2921  0.1463
 4898SOL    HW127167   8.583   7.035   1.253 -0.2815 -2.0815 -0.5968
 4898SOL    HW227168   8.450   7.102   1.188  0.7768  1.4108  0.7543
 4899SOL     OW27169   7.036   0.102   2.890  0.0343  0.2297 -0.6837
 4899SOL    HW127170   7.018   0.042   2.968 -1.5418  1.7670  0.1664
 4899SOL    HW227171   7.135   0.104   2.872  0.1367 -2.3642 -0.5655
 4900SOL     OW27172   8.676   4.583   4.680  0.2600  0.3619 -0.0580
 4900SOL    HW127173   8.588   4.574   4.634 -0.2076  0.4511  0.8179
 4900SOL    HW227174   8.676   4.666   4.736  0.7535  0.1381  0.2774
 4901SOL     OW27175   8.597   3.695   2.253  0.3793 -0.2269 -0.3446
 4901SOL    HW127176   8.604   3.795   2.251  1.4427 -0.2857  0.1057
 4901SOL    HW227177   8.684   3.655   2.224 -0.2906 -1.0246 -1.2796
 4902SOL     OW27178   7.485   4.736   5.645 -0.4504  0.3338  0.2906
 4902SOL    HW127179   7.393   4.729   5.684 -0.4676  1.4239  0.4517
 4902SOL    HW227180   7.492   4.676   5.565 -0.6271 -1.4017  1.5311
 4903SOL     OW27181   3.247   3.033   7.166 -0.5851 -0.6111 -0.4246
 4903SOL    HW127182   3.319   3.072   7.109 -0.2732 -0.0384  0.3470
 4903SOL    HW227183   3.176   2.993   7.108 -0.0046 -0.5292 -1.1982
 4904SOL     OW27184   4.918   8.759   8.014  0.0085 -0.4404  1.0139
 4904SOL    HW127185   4.820   8.758   7.991  0.8080  0.0053 -2.8329
 4904SOL    HW227186   4.940   8.843   8.064 -0.9678  1.2853 -1.3684
 4905SOL     OW27187   2.657   6.725   1.044  0.3343 -0.0039  0.0141
 4905SOL    HW127188   2.680   6.652   1.109 -0.8931 -0.5230 -0.1080
 4905SOL    HW227189   2.687   6.699   0.952  1.7729  0.5829  0.3021
 4906SOL     OW27190   4.943   0.403   2.174  0.2800 -0.0687 -0.1265
 4906SOL    HW127191   4.961   0.409   2.075  0.2395 -0.1715 -0.1402
 4906SOL    HW227192   4.845   0.410   2.191  0.4624  2.4346  0.0929
 4907SOL     OW27193   3.505   1.687   4.250  0.2840  0.1294  0.0737
 4907SOL    HW127194   3.574   1.759   4.247  0.6102 -0.2112 -0.9201
 4907SOL    HW227195   3.514   1.628   4.169 -1.3016  0.1995 -0.1789
 4908SOL     OW27196   4.052   0.400   7.105  0.1134  0.1840 -0.7376
 4908SOL    HW127197   4.032   0.444   7.018 -1.2482  2.1833  0.5359
 4908SOL    HW227198   4.058   0.301   7.092  0.9645  0.5293 -3.2537
 4909SOL     OW27199   3.650   5.440   4.206  0.0456 -0.2001  0.5429
 4909SOL    HW127200   3.708   5.521   4.214  0.7884 -0.7855  1.1176
 4909SOL    HW227201   3.573   5.461   4.145  0.3303  0.8745  0.5317
 4910SOL     OW27202   8.292   8.026   8.802  0.0724 -0.5934 -0.1718
 4910SOL    HW127203   8.254   7.985   8.719 -0.3948 -1.4097  0.4338
 4910SOL    HW227204   8.231   8.006   8.879  0.0416  0.9214  0.2058
 4911SOL     OW27205   4.679   3.251   7.314  0.0116  0.4343  0.5786
 4911SOL    HW127206   4.617   3.210   7.381  2.2561  1.7353  3.5711
 4911SOL    HW227207   4.708   3.182   7.248  0.2072 -1.6814  2.8310
 4912SOL     OW27208   2.996   7.423   7.058  0.5314  0.3991  0.7763
 4912SOL    HW127209   3.072   7.487   7.074  0.5183  0.4736  0.5520
 4912SOL    HW227210   2.920   7.473   7.016  1.1022 -0.0721 -0.8649
 4913SOL     OW27211   4.835   2.833   2.943 -0.2139 -0.1862 -0.4921
 4913SOL    HW127212   4.892   2.898   2.892  0.1389 -1.5389 -1.8444
 4913SOL    HW227213   4.870   2.825   3.036 -0.1215  1.3913 -0.3760
 4914SOL     OW27214   1.243   6.867   6.597 -0.3524 -0.5507 -0.2908
 4914SOL    HW127215   1.202   6.957   6.614 -2.9663 -1.8431  0.6141
 4914SOL    HW227216   1.260   6.856   6.499 -1.1011  0.4899 -0.5447
 4915SOL     OW27217   6.098   7.482   4.533  0.0894 -0.2015  0.4001
 4915SOL    HW127218   6.112   7.400   4.588 -1.6372  0.5422  2.0388
 4915SOL    HW227219   6.020   7.469   4.473  0.5736 -0.2062 -0.2250
 4916SOL     OW27220   1.306   8.074   1.203 -0.7667  0.0031  0.3540
 4916SOL    HW127221   1.299   8.071   1.303 -0.0613 -1.6567  0.3657
 4916SOL    HW227222   1.216   8.057   1.163 -1.2280  1.5737  0.7112
 4917SOL     OW27223   0.573   4.362   3.105 -0.3406 -0.3662  0.1211
 4917SOL    HW127224   0.635   4.287   3.081 -0.9277 -0.4927 -0.9933
 4917SOL    HW227225   0.615   4.417   3.178  1.4131 -0.0330 -1.0902
 4918SOL     OW27226   5.583   0.403   7.878  0.0487  0.8659 -0.2258
 4918SOL    HW127227   5.675   0.373   7.853 -0.0230  0.2206  0.2710
 4918SOL    HW227228   5.545   0.459   7.805  0.6567  0.7554 -0.6323
 4919SOL     OW27229   8.787   3.305   7.545 -0.2110  0.7352  0.1024
 4919SOL    HW127230   8.738   3.272   7.464  1.1032 -1.1209  0.0135
 4919SOL    HW227231   8.731   3.292   7.626 -0.6507  0.4772 -0.2368
 4920SOL     OW27232   5.438   5.145   2.420  0.4968 -0.0916  0.8767
 4920SOL    HW127233   5.360   5.097   2.460 -0.5457  1.1243  0.3629
 4920SOL    HW227234   5.477   5.090   2.346 -1.1234  0.1299 -0.1786
 4921SOL     OW27235   0.137   2.751   2.940  0.2075  0.3268 -0.3097
 4921SOL    HW127236   0.043   2.779   2.917 -0.0060 -0.3788 -0.3184
 4921SOL    HW227237   0.135   2.658   2.977  0.8000  0.6336  0.5180
 4922SOL     OW27238   7.776   6.782   5.117 -0.6818  0.3607  0.1182
 4922SOL    HW127239   7.769   6.869   5.067 -0.5639 -0.2534 -0.9866
 4922SOL    HW227240   7.871   6.752   5.120 -0.8469 -0.2298 -0.3836
 4923SOL     OW27241   8.141   1.103   7.261 -0.3645 -0.4942  0.6034
 4923SOL    HW127242   8.234   1.070   7.244 -0.1122  0.3914  0.1953
 4923SOL    HW227243   8.086   1.030   7.300  0.3385 -1.2095  0.2764
 4924SOL     OW27244   8.005   2.991   5.537  0.1629  0.4414  0.5334
 4924SOL    HW127245   7.976   3.017   5.629  0.3317  0.4858  0.5740
 4924SOL    HW227246   7.987   3.067   5.474  2.0610  1.2541  0.9251
 4925SOL     OW27247   8.255   3.188   5.239  0.0226 -0.2735  0.1631
 4925SOL    HW127248   8.322   3.250   5.280  1.1777 -0.9955 -0.5985
 4925SOL    HW227249   8.184   3.241   5.192  0.5460  0.4857  0.2286
 4926SOL     OW27250   5.851   0.229   8.442  0.5594  0.1546  0.3332
 4926SOL    HW127251   5.902   0.311   8.469 -1.0382  1.0945  0.5813
 4926SOL    HW227252   5.763   0.256   8.403  0.2023 -1.4419 -0.0037
 4927SOL     OW27253   5.486   5.253   3.537  0.1744  0.1501  0.6135
 4927SOL    HW127254   5.476   5.288   3.630  4.0314  0.8247  0.8256
 4927SOL    HW227255   5.532   5.321   3.480  2.4340 -2.2019 -0.4766
 4928SOL     OW27256   5.359   5.632   3.408  0.5860  0.0045 -0.0169
 4928SOL    HW127257   5.277   5.596   3.363  0.0936 -0.5171  1.2759
 4928SOL    HW227258   5.360   5.732   3.398  0.7830 -0.1434 -1.6567
 4929SOL     OW27259   8.255   4.648   6.037 -0.1000 -0.1873 -0.6828
 4929SOL    HW127260   8.159   4.676   6.038  0.3965  1.5546 -0.3443
 4929SOL    HW227261   8.261   4.548   6.043 -1.8463 -0.1740  2.6926
 4930SOL     OW27262   4.790   0.444   0.057 -0.2426 -0.4103 -0.1352
 4930SOL    HW127263   4.796   0.488  -0.033 -0.9485 -2.5153 -1.2657
 4930SOL    HW227264   4.870   0.385   0.070 -0.0147  0.0927  0.7188
 4931SOL     OW27265   3.198   0.782   4.846  0.6084 -0.0958  0.1468
 4931SOL    HW127266   3.160   0.691   4.830  1.7364 -0.8265  1.4812
 4931SOL    HW227267   3.146   0.828   4.918  0.3049  0.1450 -0.2257
 4932SOL     OW27268   7.693   0.905   1.198  0.0590  0.5138 -0.2168
 4932SOL    HW127269   7.607   0.954   1.182  0.5485  1.8973  1.1566
 4932SOL    HW227270   7.729   0.931   1.288  2.1147  0.2654 -0.9425
 4933SOL     OW27271   0.818   4.197   4.531 -0.1842  0.3605 -0.0498
 4933SOL    HW127272   0.825   4.296   4.518 -0.7772  0.5923  1.3238
 4933SOL    HW227273   0.747   4.161   4.471  0.2690  0.7151 -0.8052
 4934SOL     OW27274   2.589   6.780   6.499  0.6226 -0.1211  0.2416
 4934SOL    HW127275   2.519   6.709   6.507  1.4756 -0.7863  1.9758
 4934SOL    HW227276   2.639   6.788   6.585 -0.6267  3.8473  0.6661
 4935SOL     OW27277   6.772   6.900   0.052  0.0405 -0.2339 -0.1243
 4935SOL    HW127278   6.726   6.816   0.082 -0.4067 -0.4457 -1.3764
 4935SOL    HW227279   6.719   6.979   0.082  0.9130 -0.3477  1.8202
 4936SOL     OW27280   6.448   7.615   6.343  0.3441 -0.7220  0.1794
 4936SOL    HW127281   6.451   7.552   6.265  0.7916  0.2384 -0.5840
 4936SOL    HW227282   6.525   7.595   6.404  0.5647 -0.8366 -0.1325
 4937SOL     OW27283   6.670   6.005   8.113  0.2306 -0.3182 -0.8239
 4937SOL    HW127284   6.631   6.097   8.123  1.0674 -0.3390  3.8091
 4937SOL    HW227285   6.767   6.013   8.091  0.3002 -0.0619 -0.4393
 4938SOL     OW27286   4.059   8.099   4.503  0.0284 -0.3288 -0.6543
 4938SOL    HW127287   4.015   8.121   4.591  0.7113 -0.3507 -0.3045
 4938SOL    HW227288   3.988   8.088   4.433 -0.4941  0.2211 -0.2280
 4939SOL     OW27289   7.955   0.858   6.134  0.5959 -0.0699  0.2770
 4939SOL    HW127290   7.983   0.762   6.147 -0.6392 -0.5832 -0.7767
 4939SOL    HW227291   7.902   0.888   6.213  2.1474  0.1931  1.2434
 4940SOL     OW27292   8.193   0.719   3.412  0.1749  0.6479  0.3755
 4940SOL    HW127293   8.189   0.761   3.502 -0.0835  0.7166  0.3339
 4940SOL    HW227294   8.163   0.785   3.343  1.3334  0.9153  0.1265
 4941SOL     OW27295   6.222   2.696   0.272  0.5420 -0.6008  0.2896
 4941SOL    HW127296   6.271   2.748   0.201  0.7680 -0.4176  0.5794
 4941SOL    HW227297   6.170   2.759   0.329 -0.5774 -0.8557 -0.4356
 4942SOL     OW27298   0.381   5.357   1.327 -0.3617 -0.2224  0.7805
 4942SOL    HW127299   0.360   5.261   1.311  0.9328 -0.5236  0.7971
 4942SOL    HW227300   0.392   5.373   1.425  1.2021 -0.4514  0.6493
 4943SOL     OW27301   8.231   5.934   7.298  0.3925 -0.2228  0.6479
 4943SOL    HW127302   8.217   5.873   7.219 -0.2854 -0.9074  1.2940
 4943SOL    HW227303   8.319   5.981   7.287 -0.6636  1.3172 -1.5737
 4944SOL     OW27304   5.142   8.053   4.510 -0.2704 -0.0132 -0.0873
 4944SOL    HW127305   5.057   8.087   4.470  0.0252  0.3080 -0.4543
 4944SOL    HW227306   5.181   8.123   4.570  0.1287  0.1418 -0.5224
 4945SOL     OW27307   8.386   4.402   1.416  0.4136  0.3353 -0.6495
 4945SOL    HW127308   8.313   4.433   1.355  0.5521 -2.0386 -2.0701
 4945SOL    HW227309   8.423   4.315   1.383  0.8858 -0.7340  2.5105
 4946SOL     OW27310   3.437   8.330   7.985  0.2425  0.4938 -0.2368
 4946SOL    HW127311   3.460   8.305   8.079 -2.0733  2.0115  0.7865
 4946SOL    HW227312   3.510   8.386   7.947  1.2432 -0.2100  0.6289
 4947SOL     OW27313   3.645   4.391   4.947  0.3183  0.2730 -0.1095
 4947SOL    HW127314   3.617   4.306   4.991 -0.7905  0.5041 -0.3468
 4947SOL    HW227315   3.691   4.450   5.014 -2.5628  1.1971  1.1316
 4948SOL     OW27316   2.100   0.909   7.333  0.0474 -0.6109 -0.5050
 4948SOL    HW127317   2.196   0.922   7.309  0.0907 -0.7608 -0.4121
 4948SOL    HW227318   2.049   0.877   7.253  0.1807 -1.0577 -0.4127
 4949SOL     OW27319   8.542   5.660   0.250 -0.4959 -0.3656  0.3682
 4949SOL    HW127320   8.594   5.626   0.328  3.0445 -0.4492 -1.8873
 4949SOL    HW227321   8.542   5.760   0.251 -0.6479 -0.3681  0.6067
 4950SOL     OW27322   8.961   3.166   0.868 -0.5803 -0.1780 -0.3943
 4950SOL    HW127323   8.939   3.070   0.851 -0.7761  0.0350 -1.4041
 4950SOL    HW227324   9.027   3.173   0.942 -0.4221 -1.1091 -0.4434
 4951SOL     OW27325   2.698   8.533   3.009  0.5411  0.1993 -0.5099
 4951SOL    HW127326   2.703   8.438   3.041 -1.0533  0.4016  0.4057
 4951SOL    HW227327   2.775   8.552   2.949  1.0118 -1.6085 -0.5114
 4952SOL     OW27328   1.364   5.189   3.964  0.0955 -0.3100  0.0024
 4952SOL    HW127329   1.343   5.107   3.912  0.1654  1.5920 -3.1265
 4952SOL    HW227330   1.454   5.179   4.007  0.8954 -1.1924 -1.8382
 4953SOL     OW27331   7.407   2.922   2.885 -0.0376  0.0533  0.1614
 4953SOL    HW127332   7.336   2.979   2.927 -0.6428 -0.2901 -0.3861
 4953SOL    HW227333   7.448   2.971   2.808  1.1145  0.7074  1.1894
 4954SOL     OW27334   3.252   3.812   3.467 -0.3063 -0.0737  0.2512
 4954SOL    HW127335   3.296   3.858   3.544  2.5139 -2.8315  0.3938
 4954SOL    HW227336   3.300   3.836   3.383 -0.5366 -0.5887 -0.0285
 4955SOL     OW27337   5.719   0.338   3.395 -0.0502  0.0357 -0.1400
 4955SOL    HW127338   5.701   0.425   3.349  1.4358 -0.1917 -1.2168
 4955SOL    HW227339   5.724   0.265   3.327  1.6019 -0.4038  0.4154
 4956SOL     OW27340   6.295   4.208   3.158  0.3247  0.0284 -0.0465
 4956SOL    HW127341   6.359   4.199   3.235  0.0054 -0.3979  0.1741
 4956SOL    HW227342   6.216   4.148   3.174  0.3092 -0.1428 -0.7554
 4957SOL     OW27343   0.734   5.496   7.701  0.2823 -0.8672  0.8128
 4957SOL    HW127344   0.690   5.418   7.657 -0.0086 -1.0120  1.3436
 4957SOL    HW227345   0.669   5.539   7.764 -0.5215  1.5727 -1.5908
 4958SOL     OW27346   3.825   4.898   7.740  1.1956  0.3044  0.5549
 4958SOL    HW127347   3.810   4.863   7.647 -0.3095 -0.7581  1.1694
 4958SOL    HW227348   3.756   4.858   7.801  1.3915  1.9815  1.8769
 4959SOL     OW27349   6.592   4.243   5.481 -0.3028 -0.0361  0.5159
 4959SOL    HW127350   6.553   4.158   5.444  0.3814 -1.1358  2.2382
 4959SOL    HW227351   6.528   4.318   5.465  0.4355 -0.1797 -3.8425
 4960SOL     OW27352   7.559   4.070   7.488 -0.4457  0.3616  0.1513
 4960SOL    HW127353   7.545   4.052   7.585 -0.3361  0.3055  0.1563
 4960SOL    HW227354   7.653   4.099   7.472 -0.3021 -0.1927 -0.0169
 4961SOL     OW27355   2.156   6.474   8.636  0.0260 -0.3362  0.3365
 4961SOL    HW127356   2.173   6.545   8.567  5.3415  0.7169  2.4779
 4961SOL    HW227357   2.174   6.384   8.596 -2.4768 -0.2194 -1.1615
 4962SOL     OW27358   2.621   1.253   0.737  0.9042 -0.7054  0.1206
 4962SOL    HW127359   2.611   1.330   0.674  2.1559 -0.4066  0.2817
 4962SOL    HW227360   2.532   1.229   0.775  0.1624 -0.7480 -1.6000
 4963SOL     OW27361   2.869   0.633   5.016  0.4841  0.3604 -0.1371
 4963SOL    HW127362   2.936   0.705   5.000  0.8658 -0.3725 -1.9701
 4963SOL    HW227363   2.784   0.656   4.969  0.1556  0.2468  0.3942
 4964SOL     OW27364   0.560   3.844   2.072  0.0121 -0.1868 -0.5016
 4964SOL    HW127365   0.483   3.782   2.059  1.0849 -1.4424 -1.1034
 4964SOL    HW227366   0.531   3.938   2.057 -1.6756 -0.5250  0.5578
 4965SOL     OW27367   2.060   4.799   2.222  0.3142  0.2535 -0.2482
 4965SOL    HW127368   2.046   4.827   2.127 -1.2499  0.4260  0.0137
 4965SOL    HW227369   1.981   4.827   2.277  1.1068 -0.0367  1.0582
 4966SOL     OW27370   4.371   0.284   4.873 -0.4432  0.5311 -0.3355
 4966SOL    HW127371   4.467   0.309   4.879 -0.6512  1.2460  0.0701
 4966SOL    HW227372   4.321   0.355   4.823  0.0999 -2.1599 -5.0593
 4967SOL     OW27373   4.629   3.429   3.013 -0.4711 -0.3713 -0.0228
 4967SOL    HW127374   4.583   3.491   2.949  0.3792 -0.5589 -0.8276
 4967SOL    HW227375   4.625   3.336   2.976  2.5677 -0.0695 -1.2743
 4968SOL     OW27376   6.535   1.654   8.471 -0.1113 -0.7574  0.1370
 4968SOL    HW127377   6.529   1.554   8.467  2.0244 -0.8737 -0.4279
 4968SOL    HW227378   6.558   1.690   8.381 -3.5682  0.4758 -0.3159
 4969SOL     OW27379   7.466   0.005   7.542 -0.3428  0.1990 -0.4749
 4969SOL    HW127380   7.557   0.042   7.526  0.1457 -0.5635  0.5251
 4969SOL    HW227381   7.423  -0.016   7.453  1.1374 -1.0678 -0.9117
 4970SOL     OW27382   3.659   6.498   7.995  0.3616 -0.2599 -0.3491
 4970SOL    HW127383   3.588   6.475   7.928 -0.5925  0.7744  0.2970
 4970SOL    HW227384   3.643   6.590   8.030  1.0098 -0.6834  1.0983
 4971SOL     OW27385   7.947   1.709   6.099 -0.0822  0.2918 -0.7134
 4971SOL    HW127386   7.935   1.613   6.075 -0.8965 -0.1131  1.2230
 4971SOL    HW227387   7.879   1.735   6.168  1.9773  1.4780  0.9432
 4972SOL     OW27388   8.253   3.037   8.254  0.5656  0.3415 -0.5761
 4972SOL    HW127389   8.244   2.952   8.202  1.5692 -0.1173  0.0025
 4972SOL    HW227390   8.317   3.025   8.329  0.4268  1.5013 -0.2496
 4973SOL     OW27391   4.330   5.777   5.237 -0.8637  0.4702  0.0011
 4973SOL    HW127392   4.378   5.692   5.257 -1.7100 -0.0829 -0.2754
 4973SOL    HW227393   4.329   5.792   5.138  0.1270  1.3085  0.1111
 4974SOL     OW27394   6.156   6.296   1.634 -0.7456 -0.3824  0.2785
 4974SOL    HW127395   6.099   6.264   1.558 -0.5623 -0.7615  0.2985
 4974SOL    HW227396   6.220   6.223   1.660  0.1929  0.2613 -0.1833
 4975SOL     OW27397   6.220   6.034   3.904  0.0271  0.0812 -0.3682
 4975SOL    HW127398   6.288   6.055   3.834 -0.3260 -0.1982 -0.7965
 4975SOL    HW227399   6.155   6.109   3.911 -0.5047 -0.3242 -1.0191
 4976SOL     OW27400   6.142   6.134   1.132 -0.1719  0.2844 -0.3972
 4976SOL    HW127401   6.231   6.173   1.157  0.3316 -0.4838 -0.9974
 4976SOL    HW227402   6.087   6.205   1.086  0.6723  0.3627 -1.3135
 4977SOL     OW27403   8.503   3.461   3.858 -0.1393  0.2894 -0.8035
 4977SOL    HW127404   8.446   3.406   3.797 -2.0493  2.2913 -0.8796
 4977SOL    HW227405   8.488   3.431   3.952 -1.1184  0.6180 -0.8498
 4978SOL     OW27406   2.950   0.835   3.613 -0.2726  0.2461 -0.4414
 4978SOL    HW127407   2.988   0.883   3.693 -0.9198  1.0409 -0.6018
 4978SOL    HW227408   2.883   0.894   3.568 -1.3839 -0.9729 -0.4113
 4979SOL     OW27409   5.680   4.367   8.233  0.7095  0.2115  0.1003
 4979SOL    HW127410   5.729   4.363   8.145  1.2647 -0.8638  0.4466
 4979SOL    HW227411   5.676   4.275   8.272 -1.7051  0.2790  0.0347
 4980SOL     OW27412   3.458   2.563   5.568 -0.8866 -0.1383  0.8185
 4980SOL    HW127413   3.444   2.500   5.492 -2.5216 -0.2839  1.2115
 4980SOL    HW227414   3.394   2.639   5.560  1.4600  1.7958  0.0358
 4981SOL     OW27415   3.540   1.295   8.547 -0.0464  0.1971  0.8215
 4981SOL    HW127416   3.547   1.300   8.646  1.1203 -0.6694  0.7791
 4981SOL    HW227417   3.515   1.386   8.511  2.2965  1.2223  1.6808
 4982SOL     OW27418   0.787   1.245   8.139  0.3473  0.8106 -0.2903
 4982SOL    HW127419   0.842   1.185   8.197  0.0083 -0.2386 -1.0361
 4982SOL    HW227420   0.836   1.262   8.054  0.4353  1.5909 -0.0884
 4983SOL     OW27421   8.082   1.513   7.816 -0.2755 -0.1131  0.5174
 4983SOL    HW127422   7.990   1.552   7.815  0.1967  1.0219  0.7704
 4983SOL    HW227423   8.090   1.443   7.745 -1.1505  0.2073  0.1037
 4984SOL     OW27424   6.279   3.261   6.198  0.0649  0.2326  0.3175
 4984SOL    HW127425   6.245   3.346   6.160  1.5359  0.3958 -0.6523
 4984SOL    HW227426   6.214   3.187   6.179 -0.2701  0.7549 -0.5469
 4985SOL     OW27427   5.937   3.814   5.569  0.0013  0.9467  0.2471
 4985SOL    HW127428   5.924   3.777   5.660 -2.7984  1.9779  0.2979
 4985SOL    HW227429   5.966   3.910   5.576  2.3420  0.2913  0.0464
 4986SOL     OW27430   1.389   4.458   4.193  0.3296  0.5479  0.6529
 4986SOL    HW127431   1.326   4.382   4.173  0.7113  0.5531 -0.5704
 4986SOL    HW227432   1.461   4.461   4.124  0.5717  1.7537  0.9557
 4987SOL     OW27433   6.301   7.165   0.433 -0.1138 -0.0009 -0.2545
 4987SOL    HW127434   6.251   7.227   0.373 -2.3180 -1.8139 -0.3641
 4987SOL    HW227435   6.395   7.153   0.399 -0.2127  1.8311 -1.2242
 4988SOL     OW27436   0.430   5.699   4.126  0.2307  0.9599 -0.2772
 4988SOL    HW127437   0.354   5.732   4.070  0.5457 -0.0951 -1.3520
 4988SOL    HW227438   0.398   5.685   4.220 -1.7051 -2.1172 -1.2792
 4989SOL     OW27439   1.121   1.949   5.038  0.1369 -0.3408  0.0816
 4989SOL    HW127440   1.025   1.961   5.062 -0.8949 -3.2427 -2.3468
 4989SOL    HW227441   1.177   1.954   5.121 -2.3088 -0.7556  1.7876
 4990SOL     OW27442   8.067   5.986   5.685 -0.2958  0.0849 -0.0382
 4990SOL    HW127443   7.972   5.983   5.717 -0.3848  0.5376 -0.2594
 4990SOL    HW227444   8.081   5.915   5.616  0.0805 -1.4003  1.5037
 4991SOL     OW27445   3.235   2.702   4.617  0.7002  0.4223  0.7231
 4991SOL    HW127446   3.227   2.651   4.531 -0.4776  1.1347  0.3864
 4991SOL    HW227447   3.267   2.642   4.690 -1.8340 -1.1157  0.6347
 4992SOL     OW27448   0.315   5.630   4.431  0.1312 -0.6447  0.2040
 4992SOL    HW127449   0.354   5.673   4.512 -0.0676  1.4956 -0.8167
 4992SOL    HW227450   0.355   5.539   4.420  2.6561  0.3355  0.8342
 4993SOL     OW27451   6.507   7.264   5.871 -0.4457 -0.0654  0.3444
 4993SOL    HW127452   6.450   7.289   5.793 -0.7699 -0.1396  0.5591
 4993SOL    HW227453   6.551   7.176   5.854  1.0731  0.8449 -0.6206
 4994SOL     OW27454   4.920   6.418   7.583 -0.9094  0.0134  0.2434
 4994SOL    HW127455   4.834   6.394   7.628 -1.1339  0.0092 -0.1927
 4994SOL    HW227456   4.932   6.362   7.501 -0.8427  0.5213 -0.0957
 4995SOL     OW27457   7.554   7.484   7.153 -0.7134  0.3545  0.1881
 4995SOL    HW127458   7.465   7.464   7.111 -0.5654  0.0913 -0.0005
 4995SOL    HW227459   7.626   7.436   7.103 -0.2747  1.9150 -0.6958
 4996SOL     OW27460   6.894   4.203   4.964 -0.0006 -0.3500 -0.1053
 4996SOL    HW127461   6.823   4.176   4.899  1.3102  0.4932 -1.9232
 4996SOL    HW227462   6.859   4.277   5.022 -0.4281  0.4765 -1.3828
 4997SOL     OW27463   8.304   6.757   6.537  0.0493 -0.1249  0.0729
 4997SOL    HW127464   8.226   6.696   6.550  0.0574 -0.2185 -0.3148
 4997SOL    HW227465   8.377   6.708   6.489  0.6046 -0.2420  1.0121
 4998SOL     OW27466   5.882   5.757   0.995 -0.9424  0.0860 -0.3029
 4998SOL    HW127467   5.876   5.659   0.979  0.3399 -0.0580  0.0120
 4998SOL    HW227468   5.954   5.776   1.062 -0.8723  1.2764 -0.6941
 4999SOL     OW27469   2.148   5.445   2.890  0.6748  0.8254  0.1179
 4999SOL    HW127470   2.228   5.458   2.833  0.5350  1.6155  0.0972
 4999SOL    HW227471   2.078   5.393   2.840 -0.0162  2.7528 -0.9554
 5000SOL     OW27472   8.342   4.510   4.733 -0.2496 -0.4101  0.0544
 5000SOL    HW127473   8.406   4.542   4.803 -0.2098 -0.5562  0.0850
 5000SOL    HW227474   8.389   4.505   4.645 -1.0660  2.6368 -0.6012
 5001SOL     OW27475   6.119   6.487   4.098 -0.0546  0.1695  0.6173
 5001SOL    HW127476   6.074   6.542   4.168 -0.0675  0.3972  0.4334
 5001SOL    HW227477   6.052   6.430   4.051 -0.2815  1.0756 -0.1772
 5002SOL     OW27478   7.031   3.440   7.732  0.1175  0.7425  0.2936
 5002SOL    HW127479   7.051   3.345   7.756 -0.2880  0.5030 -0.3078
 5002SOL    HW227480   6.992   3.444   7.640  0.8218  1.5639  0.0192
 5003SOL     OW27481   8.423   6.335   3.596  0.0129 -0.3230 -0.5947
 5003SOL    HW127482   8.351   6.278   3.556 -0.3908 -0.7402  0.7315
 5003SOL    HW227483   8.402   6.431   3.579 -0.8700 -0.4415 -0.1794
 5004SOL     OW27484   7.201   2.905   2.224 -0.3711  0.2890  0.3426
 5004SOL    HW127485   7.116   2.914   2.171  0.6844 -1.8680 -1.8091
 5004SOL    HW227486   7.253   2.990   2.219 -0.2172  0.0895 -2.2890
 5005SOL     OW27487   4.160   6.379   8.410 -0.2619  0.1419 -0.3648
 5005SOL    HW127488   4.091   6.346   8.475 -0.0039  0.6270  0.1648
 5005SOL    HW227489   4.121   6.380   8.318 -1.8545  2.9319  0.2799
 5006SOL     OW27490   8.294   6.536   8.578  0.5175 -0.6683  0.2875
 5006SOL    HW127491   8.200   6.552   8.609  0.0429 -1.0371 -0.9260
 5006SOL    HW227492   8.332   6.622   8.543  0.7523 -0.4450  1.0806
 5007SOL     OW27493   6.020   5.569   4.563  0.1332 -0.4765 -0.1148
 5007SOL    HW127494   5.948   5.588   4.630  0.5698 -0.7660  0.4399
 5007SOL    HW227495   6.066   5.655   4.539  0.6166 -0.4997  0.6949
 5008SOL     OW27496   4.132   0.765   3.266  0.1580  0.4771 -0.3362
 5008SOL    HW127497   4.121   0.705   3.186 -0.3383  0.3619 -0.1831
 5008SOL    HW227498   4.042   0.789   3.302  0.3296  1.8947 -0.8248
 5009SOL     OW27499   1.917   3.887   5.616 -0.5640 -0.2237 -0.1080
 5009SOL    HW127500   1.963   3.923   5.535 -0.0169  0.2112  0.3804
 5009SOL    HW227501   1.861   3.808   5.592  3.8645 -3.5789 -0.0372
 5010SOL     OW27502   0.788   7.869   0.852 -0.0223  0.3164  0.3933
 5010SOL    HW127503   0.711   7.930   0.833  0.3101  0.3946 -0.7440
 5010SOL    HW227504   0.843   7.858   0.769 -0.1311 -1.5934  0.5477
 5011SOL     OW27505   1.423   3.373   4.853 -0.3785  0.1970  0.4803
 5011SOL    HW127506   1.462   3.372   4.945 -0.4444  0.9357  0.5188
 5011SOL    HW227507   1.497   3.375   4.785 -0.3368  0.7514  0.5381
 5012SOL     OW27508   4.576   1.224   8.386 -0.9200 -0.3336 -0.3537
 5012SOL    HW127509   4.477   1.235   8.393 -1.0247 -1.7708  0.6306
 5012SOL    HW227510   4.597   1.149   8.324 -0.4358  0.1251 -0.7492
 5013SOL     OW27511   5.995   0.933   2.387  0.0412  0.0137 -0.1100
 5013SOL    HW127512   6.088   0.898   2.386  0.2687  0.6007 -1.1839
 5013SOL    HW227513   5.993   1.023   2.343 -0.9226  0.2907  0.4760
 5014SOL     OW27514   8.718   2.851   0.404  0.2095 -0.1688 -0.1249
 5014SOL    HW127515   8.741   2.878   0.498 -0.6938  0.5085 -0.0955
 5014SOL    HW227516   8.700   2.752   0.402  0.9662 -0.3252  0.2593
 5015SOL     OW27517   4.652   2.857   5.554 -0.0347 -0.4564 -0.6738
 5015SOL    HW127518   4.570   2.896   5.514 -0.1792 -0.5199 -0.4426
 5015SOL    HW227519   4.725   2.854   5.486 -0.1177 -0.0777 -0.7777
 5016SOL     OW27520   2.853   3.068   0.148  0.1834  0.2709  0.2112
 5016SOL    HW127521   2.937   3.081   0.201 -0.0571 -1.1532  0.9374
 5016SOL    HW227522   2.774   3.093   0.203 -0.1270 -2.0081  0.8510
 5017SOL     OW27523   2.518   5.853   6.631  0.5723  0.2410 -0.8542
 5017SOL    HW127524   2.458   5.882   6.556  1.8405 -1.7272 -2.6902
 5017SOL    HW227525   2.586   5.789   6.596  0.9333 -1.0608  2.0999
 5018SOL     OW27526   4.379   7.568   6.614 -0.5437  0.4532  0.2405
 5018SOL    HW127527   4.336   7.608   6.533  0.2407  0.7059 -0.0609
 5018SOL    HW227528   4.415   7.642   6.672  2.2650  0.1892 -1.0657
 5019SOL     OW27529   5.832   2.454   4.547 -0.0993  0.8977 -0.0597
 5019SOL    HW127530   5.759   2.417   4.605  0.5327  2.2133  1.6145
 5019SOL    HW227531   5.910   2.391   4.548  0.4705  1.6138  1.7150
 5020SOL     OW27532   0.730   3.615   4.397 -0.1707 -0.3372 -0.2096
 5020SOL    HW127533   0.635   3.623   4.429  0.3866  1.9087  0.9563
 5020SOL    HW227534   0.741   3.528   4.348 -2.6926 -0.8648  0.0782
 5021SOL     OW27535   4.352   4.993   0.739 -0.1973 -0.0673  0.3236
 5021SOL    HW127536   4.424   4.924   0.735 -1.5503 -1.4161 -1.8202
 5021SOL    HW227537   4.361   5.056   0.662 -0.3208  0.7792  0.9900
 5022SOL     OW27538   3.055   4.808   6.067  0.0967 -0.0472  0.2000
 5022SOL    HW127539   3.026   4.902   6.082  0.6982  0.5023 -1.8452
 5022SOL    HW227540   3.038   4.754   6.149  1.8077  2.3258  2.1750
 5023SOL     OW27541   1.395   6.023   6.307 -0.6002 -0.2115 -0.1374
 5023SOL    HW127542   1.329   6.090   6.274 -2.1792 -1.2720  0.7618
 5023SOL    HW227543   1.363   5.931   6.282  0.5932 -0.7248  0.2242
 5024SOL     OW27544   1.898   4.579   0.682  0.0512  0.2403  0.1857
 5024SOL    HW127545   1.871   4.492   0.640  1.2808  0.0751 -0.2856
 5024SOL    HW227546   1.883   4.653   0.616 -1.0220  0.4011  0.5968
 5025SOL     OW27547   0.083   2.573   3.144 -0.0981  0.0741  0.2412
 5025SOL    HW127548   0.128   2.496   3.190  1.0768  0.7800  0.2927
 5025SOL    HW227549  -0.005   2.591   3.188 -1.0275 -2.0923 -0.6153
 5026SOL     OW27550   4.853   5.065   5.672  0.7195  0.0611  0.1233
 5026SOL    HW127551   4.836   5.082   5.769  0.9423  0.6127  0.0665
 5026SOL    HW227552   4.950   5.042   5.659  0.1797 -2.6331  0.3906
 5027SOL     OW27553   1.455   5.699   5.773 -0.6137 -0.7435  0.0476
 5027SOL    HW127554   1.420   5.620   5.723 -1.9944 -0.0412 -0.1071
 5027SOL    HW227555   1.386   5.770   5.775  0.0761 -0.1073  1.4859
 5028SOL     OW27556   8.983   3.048   7.778  0.1771  0.0520  0.0329
 5028SOL    HW127557   8.954   2.991   7.701 -1.9574  0.7017  0.3337
 5028SOL    HW227558   8.996   3.142   7.747 -0.4186  0.2568  0.3898
 5029SOL     OW27559   8.244   6.145   7.666  0.6470  0.4384 -0.1038
 5029SOL    HW127560   8.236   6.228   7.721  0.9303 -0.3338  1.1102
 5029SOL    HW227561   8.232   6.065   7.724  2.1778 -0.4217 -0.9438
 5030SOL     OW27562   6.547   3.774   7.083  0.4299  0.3884  0.0224
 5030SOL    HW127563   6.526   3.838   7.010  1.6048  3.2874  2.1182
 5030SOL    HW227564   6.641   3.741   7.073  0.6584  0.9429  0.3283
 5031SOL     OW27565   0.228   2.970   6.006 -0.1377 -0.0420  0.1620
 5031SOL    HW127566   0.260   2.984   5.913 -1.8694 -1.6287 -0.7073
 5031SOL    HW227567   0.148   3.028   6.023 -1.2710 -1.4748 -0.1566
 5032SOL     OW27568   2.955   6.404   7.650 -0.1783 -0.3028 -0.3648
 5032SOL    HW127569   2.955   6.503   7.664 -0.7241 -0.5299  1.4139
 5032SOL    HW227570   2.891   6.361   7.714  3.1077 -2.1696  1.8426
 5033SOL     OW27571   2.583   4.047   5.690  0.2074 -0.6902  0.2093
 5033SOL    HW127572   2.532   4.131   5.669 -0.4179 -0.3808  2.8408
 5033SOL    HW227573   2.681   4.067   5.687  0.1437 -0.5025 -1.6272
 5034SOL     OW27574   6.512   3.965   5.088 -0.3579 -0.2575  0.7593
 5034SOL    HW127575   6.441   4.008   5.145  0.1139  0.9549  0.4544
 5034SOL    HW227576   6.516   4.012   4.999 -0.2205 -1.3167  0.1994
 5035SOL     OW27577   7.524   6.532   1.367 -0.5499  0.4789  0.3260
 5035SOL    HW127578   7.561   6.514   1.276  0.5435  0.0387  0.8391
 5035SOL    HW227579   7.600   6.537   1.433 -1.4009 -0.3396  1.3943
 5036SOL     OW27580   8.639   1.270   5.237  0.4992  0.5783 -0.1693
 5036SOL    HW127581   8.619   1.272   5.139  1.9127  1.1858 -0.4549
 5036SOL    HW227582   8.560   1.232   5.286 -0.0707 -0.1068 -1.5727
 5037SOL     OW27583   4.469   3.005   0.630 -0.0760  0.5875 -0.6394
 5037SOL    HW127584   4.374   3.023   0.606 -1.1255 -1.4715  1.7316
 5037SOL    HW227585   4.527   3.015   0.549 -2.4395  0.7924 -2.3534
 5038SOL     OW27586   5.945   1.601   7.766  0.2895  0.8737 -0.0375
 5038SOL    HW127587   5.954   1.585   7.668 -0.2561 -1.1604  0.2126
 5038SOL    HW227588   5.899   1.523   7.808  2.1074  0.9093  2.1099
 5039SOL     OW27589   2.841   8.564   2.310  0.0552  0.0841 -0.0798
 5039SOL    HW127590   2.744   8.548   2.292  0.2633  0.7575 -1.8675
 5039SOL    HW227591   2.896   8.496   2.263  0.5449  0.9972 -0.8455
 5040SOL     OW27592   3.260   7.717   4.868  0.2507 -0.2042  0.5694
 5040SOL    HW127593   3.305   7.672   4.791 -0.6334 -0.0501 -0.0406
 5040SOL    HW227594   3.319   7.711   4.949  1.3894  0.0379 -0.2279
 5041SOL     OW27595   2.259   6.096   2.077 -0.0029 -0.5224 -0.6366
 5041SOL    HW127596   2.312   6.138   2.152  0.0107  0.4338 -1.1745
 5041SOL    HW227597   2.208   6.167   2.029 -2.0272 -1.4906  0.0644
 5042SOL     OW27598   3.435   6.025   5.586 -0.0959 -0.3353 -0.2812
 5042SOL    HW127599   3.435   5.932   5.623 -1.9901 -0.3257 -0.2132
 5042SOL    HW227600   3.415   6.022   5.488 -2.5600  0.1313  0.1738
 5043SOL     OW27601   1.293   4.809   8.677  0.2664  0.0431  0.2366
 5043SOL    HW127602   1.282   4.812   8.776 -1.6107  0.8911  0.0363
 5043SOL    HW227603   1.310   4.715   8.647  0.6961 -0.2342  1.3434
 5044SOL     OW27604   3.295   6.140   4.717 -0.3718 -0.8542  0.0601
 5044SOL    HW127605   3.283   6.239   4.713 -0.1560 -0.7699  1.4477
 5044SOL    HW227606   3.318   6.106   4.626 -1.7853  0.1837 -0.7055
 5045SOL     OW27607   1.129   6.324   4.663 -0.3601 -0.1907 -0.7971
 5045SOL    HW127608   1.226   6.307   4.678 -0.4962  0.4564  0.9867
 5045SOL    HW227609   1.117   6.417   4.629 -0.4583  0.3527  0.6684
 5046SOL     OW27610   2.495   0.923   6.217 -0.2968 -0.3805 -0.3114
 5046SOL    HW127611   2.445   0.977   6.284 -0.6701 -0.3954 -0.5776
 5046SOL    HW227612   2.442   0.841   6.194 -0.2810 -0.2562 -0.8015
 5047SOL     OW27613   6.597   6.261   2.068 -0.5596 -0.5371  0.5652
 5047SOL    HW127614   6.688   6.221   2.060  0.2489  1.4774 -0.8893
 5047SOL    HW227615   6.578   6.319   1.988 -2.3974  0.4781  1.6756
 5048SOL     OW27616   5.891   1.657   1.734  0.8250 -0.4832  0.2612
 5048SOL    HW127617   5.932   1.697   1.652 -0.5140 -0.7409 -0.5465
 5048SOL    HW227618   5.879   1.729   1.803 -1.8103  0.6148 -1.2806
 5049SOL     OW27619   2.146   4.282   1.789 -0.0884 -0.1543  0.0421
 5049SOL    HW127620   2.237   4.242   1.802  0.3551  0.5444 -0.8516
 5049SOL    HW227621   2.156   4.380   1.771 -1.0487 -0.0035  0.3393
 5050SOL     OW27622   3.887   0.775   2.396 -0.1192  0.2437 -0.8191
 5050SOL    HW127623   3.799   0.784   2.351 -0.2961 -1.8052 -0.9410
 5050SOL    HW227624   3.907   0.857   2.449 -2.7808  0.1178  0.4259
 5051SOL     OW27625   4.815   6.595   0.591  0.4059 -0.3560  0.3311
 5051SOL    HW127626   4.910   6.625   0.600 -0.0511  1.0403  0.6706
 5051SOL    HW227627   4.763   6.665   0.543 -0.5438 -0.9321  0.5108
 5052SOL     OW27628   0.465   7.546   5.431 -0.4823  0.0664 -0.6318
 5052SOL    HW127629   0.489   7.495   5.348 -0.6455  0.4416 -0.9120
 5052SOL    HW227630   0.433   7.637   5.405  2.6203  1.3812  0.0095
 5053SOL     OW27631   2.262   5.324   5.504 -0.2727  0.2089  0.0340
 5053SOL    HW127632   2.324   5.395   5.537  0.2203 -0.1268 -0.1706
 5053SOL    HW227633   2.285   5.237   5.548  0.6709 -0.3431 -1.5156
 5054SOL     OW27634   7.831   6.339   2.054 -0.1449  0.0412 -0.2238
 5054SOL    HW127635   7.752   6.393   2.026 -0.0045  1.3278  1.7536
 5054SOL    HW227636   7.809   6.289   2.138  0.3078 -1.6486 -1.0793
 5055SOL     OW27637   2.406   7.912   6.140  0.0942 -0.1821  0.3452
 5055SOL    HW127638   2.502   7.925   6.118 -0.1076  0.7260 -0.0264
 5055SOL    HW227639   2.351   7.917   6.056 -0.3847  0.4035  0.6884
 5056SOL     OW27640   6.377   0.101   2.410  0.1605 -0.0688 -0.2363
 5056SOL    HW127641   6.363   0.187   2.360  1.1042  0.1422 -0.1597
 5056SOL    HW227642   6.457   0.111   2.470  1.6307 -1.6982 -1.8491
 5057SOL     OW27643   0.561   4.764   0.935 -0.1709 -0.1977  0.5849
 5057SOL    HW127644   0.510   4.686   0.898 -2.6264  1.5379  0.2044
 5057SOL    HW227645   0.557   4.840   0.870  1.8217  0.4170  1.1573
 5058SOL     OW27646   6.830   2.236   7.074 -0.2847  0.1374 -0.1663
 5058SOL    HW127647   6.883   2.315   7.104  1.1296 -1.0513  0.5101
 5058SOL    HW227648   6.735   2.247   7.102 -0.4703  2.3793 -1.5521
 5059SOL     OW27649   2.066   4.441   8.509 -0.3699  0.0046 -0.1041
 5059SOL    HW127650   2.069   4.396   8.420 -0.9191 -1.4987  0.6229
 5059SOL    HW227651   1.973   4.470   8.529 -0.4405 -0.5617  0.4091
 5060SOL     OW27652   5.012   5.640   4.253 -0.8553 -0.4456  0.3468
 5060SOL    HW127653   5.065   5.669   4.173 -1.8536 -1.1189 -0.5705
 5060SOL    HW227654   5.067   5.578   4.309  0.3861  1.2174  0.9895
 5061SOL     OW27655   2.849   7.129   2.636  0.2240 -0.0188 -0.3420
 5061SOL    HW127656   2.826   7.156   2.730 -0.6185 -1.8797  0.0251
 5061SOL    HW227657   2.813   7.196   2.572 -0.0773  0.7535  0.6228
 5062SOL     OW27658   4.865   1.171   8.303  0.3675 -0.0687  0.2743
 5062SOL    HW127659   4.876   1.186   8.401  1.4103 -1.2376  0.3577
 5062SOL    HW227660   4.868   1.258   8.255  1.8782  0.3619  1.1097
 5063SOL     OW27661   5.684   3.160   7.858 -0.1164  0.1564  0.0591
 5063SOL    HW127662   5.713   3.069   7.829  1.4634  0.5394  0.3837
 5063SOL    HW227663   5.739   3.189   7.937 -0.7794  1.2839  0.1176
 5064SOL     OW27664   4.705   0.762   3.578 -0.2023 -0.3841 -0.1389
 5064SOL    HW127665   4.675   0.784   3.485 -0.1605  0.8422  0.1290
 5064SOL    HW227666   4.769   0.685   3.575 -2.0553 -1.9217 -0.8780
 5065SOL     OW27667   2.138   8.400   3.129  0.0650 -0.1722  0.1010
 5065SOL    HW127668   2.210   8.442   3.073 -0.8978  0.7516 -0.4684
 5065SOL    HW227669   2.155   8.302   3.139  0.6806 -0.1939 -1.1437
 5066SOL     OW27670   3.704   2.137   5.746 -0.0009 -0.3358 -0.0809
 5066SOL    HW127671   3.728   2.150   5.650  1.1431 -1.9376 -0.0263
 5066SOL    HW227672   3.616   2.182   5.764  1.0027  2.2300 -1.2203
 5067SOL     OW27673   6.523   7.896   7.587  0.2564  0.0580  0.0886
 5067SOL    HW127674   6.433   7.881   7.627 -0.2734  1.4970 -0.5467
 5067SOL    HW227675   6.579   7.949   7.651  0.9825 -1.6083  0.8748
 5068SOL     OW27676   6.021   7.675   5.760 -0.4355 -0.4494  0.0496
 5068SOL    HW127677   5.960   7.599   5.780 -0.2238 -1.1695 -1.9415
 5068SOL    HW227678   6.026   7.689   5.661  0.8059  1.0965  0.3122
 5069SOL     OW27679   4.716   4.647   7.381  0.3752 -0.0200 -0.6920
 5069SOL    HW127680   4.677   4.637   7.472  0.2911  0.1179 -0.7138
 5069SOL    HW227681   4.804   4.600   7.377  0.6916  0.5426 -0.3472
 5070SOL     OW27682   8.822   7.354   1.562 -0.4232 -0.3403 -0.6312
 5070SOL    HW127683   8.746   7.364   1.499 -2.6140 -0.2877  1.9224
 5070SOL    HW227684   8.837   7.440   1.610 -1.3750 -1.4455  1.7218
 5071SOL     OW27685   4.015   1.749   4.744 -0.0920 -0.0749  0.1281
 5071SOL    HW127686   3.957   1.804   4.684  1.0959  0.9896 -0.0560
 5071SOL    HW227687   3.961   1.676   4.784 -1.5889  0.9656  0.0343
 5072SOL     OW27688   7.380   8.621   2.290 -0.1864 -0.4853  0.2625
 5072SOL    HW127689   7.339   8.583   2.373 -1.0351 -1.0865 -0.4227
 5072SOL    HW227690   7.472   8.584   2.279 -0.6617 -1.6644  0.0938
 5073SOL     OW27691   7.961   3.315   6.155 -0.1100  0.6614 -0.7291
 5073SOL    HW127692   8.021   3.285   6.080 -1.2465  2.6027 -2.4760
 5073SOL    HW227693   7.939   3.412   6.143 -1.5170  0.6273  1.3273
 5074SOL     OW27694   2.960   3.047   6.625  0.9725  0.1245  0.8664
 5074SOL    HW127695   3.032   3.089   6.680  0.2332  1.8562  0.5504
 5074SOL    HW227696   2.894   3.117   6.598 -0.6168 -1.3656  0.8163
 5075SOL     OW27697   3.509   2.660   4.421 -0.2434  0.2354 -0.7897
 5075SOL    HW127698   3.433   2.595   4.418 -0.9879  1.1081 -1.1538
 5075SOL    HW227699   3.488   2.739   4.363 -0.5912  2.1558  1.8751
 5076SOL     OW27700   6.339   7.184   7.479 -0.0007  0.5905  0.6087
 5076SOL    HW127701   6.287   7.269   7.476  0.5176  0.8666 -0.7685
 5076SOL    HW227702   6.278   7.108   7.499 -0.8495  0.9770 -0.4894
 5077SOL     OW27703   0.151   1.989   4.971 -0.2422 -0.1821  0.3797
 5077SOL    HW127704   0.186   2.078   4.942 -1.7886  0.5364  0.6705
 5077SOL    HW227705   0.168   1.922   4.899 -2.9907  1.3135 -1.7814
 5078SOL     OW27706   3.979   4.667   4.825  0.1089  0.1306 -0.7815
 5078SOL    HW127707   4.070   4.663   4.784  1.0683  0.0892  1.2958
 5078SOL    HW227708   3.984   4.637   4.920 -2.0465  0.3340 -0.5834
 5079SOL     OW27709   4.520   2.432   5.800 -0.2245 -0.0456 -0.4787
 5079SOL    HW127710   4.545   2.399   5.708 -0.1715 -0.9627 -0.1475
 5079SOL    HW227711   4.600   2.427   5.860 -0.2796  0.4768 -0.3591
 5080SOL     OW27712   3.300   6.347   5.016 -0.3374 -1.0345  0.5115
 5080SOL    HW127713   3.397   6.352   5.037 -0.4979 -0.2054  1.0891
 5080SOL    HW227714   3.286   6.355   4.917 -0.0265  2.2914  0.7010
 5081SOL     OW27715   1.968   6.090   1.470  0.5901 -0.5412  0.3754
 5081SOL    HW127716   1.922   6.059   1.387 -0.9920  1.5541  0.4293
 5081SOL    HW227717   1.945   6.029   1.546  2.3051 -2.6568 -0.7424
 5082SOL     OW27718   8.342   4.971   3.358 -0.4248 -0.2695 -0.2922
 5082SOL    HW127719   8.419   5.031   3.336 -1.3225  0.1144 -2.4521
 5082SOL    HW227720   8.260   5.027   3.374 -1.6117 -0.9128 -3.7028
 5083SOL     OW27721   4.135   7.021   5.885  0.1471  0.3020  0.1116
 5083SOL    HW127722   4.193   7.093   5.849 -0.2704  0.5537 -0.0689
 5083SOL    HW227723   4.117   6.953   5.814 -0.6357  0.7729 -0.1469
 5084SOL     OW27724   5.237   5.006   6.837 -0.0727 -0.4710  0.4742
 5084SOL    HW127725   5.180   5.003   6.754  0.8517  1.6060 -0.2497
 5084SOL    HW227726   5.223   4.921   6.889 -3.6172 -0.1485  0.1922
 5085SOL     OW27727   8.708   0.916   8.919 -0.7443  0.9828  0.1533
 5085SOL    HW127728   8.743   0.899   9.011 -1.6238  0.4480  0.3912
 5085SOL    HW227729   8.631   0.855   8.900  0.2353  0.2215 -1.4176
 5086SOL     OW27730   5.443   2.988   4.105 -0.2507  0.2791  0.4673
 5086SOL    HW127731   5.480   2.963   4.195 -1.4393  0.4978  1.0276
 5086SOL    HW227732   5.480   2.927   4.036 -1.6669 -1.8586  1.5445
 5087SOL     OW27733   0.827   2.267   3.419  0.3242  0.3971 -0.3726
 5087SOL    HW127734   0.877   2.338   3.469  1.7263 -2.3009  2.2025
 5087SOL    HW227735   0.892   2.212   3.366 -0.8589  1.5689 -3.1103
 5088SOL     OW27736   5.583   4.142   6.747 -0.6069 -0.4485  0.3441
 5088SOL    HW127737   5.672   4.182   6.768 -1.2127  1.1528 -0.0396
 5088SOL    HW227738   5.593   4.044   6.729  0.8009 -0.6286  2.0568
 5089SOL     OW27739   0.458   3.446   5.402 -0.9174  0.7153 -0.2601
 5089SOL    HW127740   0.392   3.424   5.330 -0.6084 -0.3735 -0.2177
 5089SOL    HW227741   0.444   3.385   5.480  3.0922 -2.7880 -2.0267
 5090SOL     OW27742   8.001   7.136   5.085  0.0875 -0.2475 -0.1111
 5090SOL    HW127743   8.012   7.212   5.149  0.0509 -0.6250  0.3465
 5090SOL    HW227744   8.087   7.087   5.077 -0.1989 -0.8684  0.5041
 5091SOL     OW27745   3.396   3.864   2.237 -0.4301 -0.4777 -0.3398
 5091SOL    HW127746   3.334   3.812   2.296  1.5942 -1.0870  1.3479
 5091SOL    HW227747   3.344   3.922   2.175 -2.6672 -1.4500  0.5921
 5092SOL     OW27748   6.034   3.969   7.948 -0.3200  0.5344  0.4856
 5092SOL    HW127749   5.973   4.018   8.010 -0.0747  1.6667 -0.1398
 5092SOL    HW227750   6.010   3.872   7.946 -0.3393  0.4818  2.3176
 5093SOL     OW27751   1.013   6.667   1.494  0.5331 -0.5901 -0.2213
 5093SOL    HW127752   1.015   6.758   1.534  0.6984 -0.8751  0.4261
 5093SOL    HW227753   1.008   6.674   1.394 -1.0579  0.1311 -0.1096
 5094SOL     OW27754   3.576   5.285   2.476 -0.4819 -0.5242 -0.4874
 5094SOL    HW127755   3.625   5.336   2.547 -1.1464 -0.6807  0.1008
 5094SOL    HW227756   3.587   5.187   2.492 -0.0870 -0.5613 -0.9901
 5095SOL     OW27757   7.042   5.368   6.805 -0.1399  0.0776  0.3762
 5095SOL    HW127758   7.138   5.351   6.781  0.2539 -1.0722  2.6814
 5095SOL    HW227759   7.002   5.431   6.738  0.9379 -2.8319 -3.2221
 5096SOL     OW27760   2.493   8.497   3.955  0.1375  0.3225  0.2655
 5096SOL    HW127761   2.457   8.585   3.924 -0.6058 -1.5401 -4.6503
 5096SOL    HW227762   2.419   8.443   3.995  0.3681  1.4522  2.2830
 5097SOL     OW27763   3.426   7.602   4.687  0.1659 -0.3332  0.2447
 5097SOL    HW127764   3.395   7.670   4.620  0.0138 -0.5090  0.1358
 5097SOL    HW227765   3.518   7.570   4.662  0.3489  0.0348  0.4517
 5098SOL     OW27766   2.260   2.427   6.113  0.0183 -0.2591 -0.0373
 5098SOL    HW127767   2.208   2.408   6.030  0.8980 -0.3402 -0.5775
 5098SOL    HW227768   2.275   2.525   6.122  0.5128 -0.3028 -0.3451
 5099SOL     OW27769   6.966   5.556   6.590  0.1721  0.0149  0.2758
 5099SOL    HW127770   6.910   5.624   6.638 -1.5897 -0.5286 -0.9877
 5099SOL    HW227771   7.004   5.596   6.507  0.4800 -0.0594  0.3777
 5100SOL     OW27772   3.122   0.941   0.284  1.0115 -0.2846  0.0492
 5100SOL    HW127773   3.095   0.846   0.297  0.9035 -0.5637 -2.0262
 5100SOL    HW227774   3.047   1.001   0.312  0.6387 -0.8534  0.2830
 5101SOL     OW27775   1.598   4.333   3.062  1.2544  0.2060 -0.1613
 5101SOL    HW127776   1.665   4.387   3.011  1.5443 -0.1659 -0.1690
 5101SOL    HW227777   1.551   4.271   2.999  1.6612 -0.3017  0.0364
 5102SOL     OW27778   3.539   3.231   1.024  0.3755  0.0669 -0.1206
 5102SOL    HW127779   3.535   3.162   1.096  0.9827  2.0382  1.8444
 5102SOL    HW227780   3.624   3.222   0.973  0.8543 -0.0585  0.7034
 5103SOL     OW27781   0.784   7.863   3.123  0.4740 -0.4052 -0.5174
 5103SOL    HW127782   0.786   7.963   3.120 -0.6480 -0.3050  1.4819
 5103SOL    HW227783   0.871   7.829   3.157  0.8716 -0.1263 -1.2374
 5104SOL     OW27784   5.722   3.575   2.799  0.1743 -0.2322  0.2913
 5104SOL    HW127785   5.651   3.635   2.837  1.1688  0.7107  0.6906
 5104SOL    HW227786   5.679   3.504   2.743 -1.0152  0.9076 -0.2684
 5105SOL     OW27787   0.590   8.209   2.824  0.4838 -0.2726 -0.0226
 5105SOL    HW127788   0.515   8.220   2.759  0.5721 -1.8076 -0.4007
 5105SOL    HW227789   0.562   8.145   2.896  2.0941 -2.3866 -1.2295
 5106SOL     OW27790   4.477   4.800   7.624 -0.2418  0.3480  0.1140
 5106SOL    HW127791   4.544   4.726   7.626  1.2902  1.6401 -1.2701
 5106SOL    HW227792   4.385   4.762   7.614  0.4736 -1.3784 -0.1279
 5107SOL     OW27793   2.545   8.093   5.578 -0.3666 -0.0696 -0.4091
 5107SOL    HW127794   2.474   8.088   5.649  0.3312 -0.1101  0.2826
 5107SOL    HW227795   2.606   8.015   5.587 -0.0700  0.1124 -0.8469
 5108SOL     OW27796   0.730   6.114   1.017  0.2726  0.0076  0.2638
 5108SOL    HW127797   0.682   6.092   1.102 -0.2438  1.1431  0.2689
 5108SOL    HW227798   0.828   6.102   1.031  0.1793  0.0516  0.9851
 5109SOL     OW27799   1.678   4.960   6.944 -0.3624 -0.1462  0.0093
 5109SOL    HW127800   1.637   5.050   6.951 -0.1582 -0.0933  0.5605
 5109SOL    HW227801   1.727   4.952   6.856  2.8866  1.6797  1.5483
 5110SOL     OW27802   0.676   7.968   7.944  0.6047 -1.1082 -0.5013
 5110SOL    HW127803   0.756   8.019   7.976  0.6827 -1.8957  0.6244
 5110SOL    HW227804   0.705   7.880   7.908  0.1145 -2.2792  1.8217
 5111SOL     OW27805   8.156   2.078   0.109 -0.1057  0.3804  0.1502
 5111SOL    HW127806   8.252   2.080   0.137 -0.6030 -0.1974  1.9337
 5111SOL    HW227807   8.133   1.987   0.075  0.0139  0.5568 -0.4033
 5112SOL     OW27808   4.128   1.813   3.737 -0.2309  0.4353  0.2094
 5112SOL    HW127809   4.175   1.743   3.791  0.2776  1.6599  1.3715
 5112SOL    HW227810   4.148   1.799   3.640  2.3795  0.8080  0.6649
 5113SOL     OW27811   1.251   4.084   7.237 -0.3029 -0.7172 -0.2312
 5113SOL    HW127812   1.279   4.048   7.148  0.6528 -2.2721  0.6615
 5113SOL    HW227813   1.151   4.089   7.241 -0.3056  1.6725 -2.2324
 5114SOL     OW27814   3.656   0.024   2.558 -0.3423  0.0567 -0.0959
 5114SOL    HW127815   3.624  -0.050   2.617 -0.3401 -1.1254 -1.5319
 5114SOL    HW227816   3.723   0.079   2.608 -0.4060 -0.8564  1.0365
 5115SOL     OW27817   3.845   2.151   6.249 -0.0324 -0.3251  0.3806
 5115SOL    HW127818   3.898   2.074   6.286 -1.6070 -1.0695  1.0901
 5115SOL    HW227819   3.772   2.116   6.191 -1.9251  0.5392  2.1895
 5116SOL     OW27820   1.696   7.498   4.311 -0.0730  0.1855  0.5801
 5116SOL    HW127821   1.757   7.438   4.261 -2.3167 -0.2439 -1.7587
 5116SOL    HW227822   1.713   7.490   4.410  0.7677 -3.0138  0.2074
 5117SOL     OW27823   0.528   1.729   0.198  0.4719 -0.1276 -0.3739
 5117SOL    HW127824   0.567   1.821   0.194 -3.0090  1.5436  1.3937
 5117SOL    HW227825   0.530   1.696   0.293 -2.9481  0.3858 -0.0267
 5118SOL     OW27826   2.473   3.226   7.948 -0.1471 -0.6374  0.0116
 5118SOL    HW127827   2.560   3.178   7.936 -0.6983 -1.3424 -1.1956
 5118SOL    HW227828   2.491   3.325   7.950  0.8171 -0.8225  0.9949
 5119SOL     OW27829   5.882   6.735   2.062  0.4079  0.0087  0.1677
 5119SOL    HW127830   5.937   6.720   1.981 -2.8575 -1.7350 -1.8483
 5119SOL    HW227831   5.829   6.819   2.052 -0.1740 -0.3257  0.3662
 5120SOL     OW27832   4.078   7.791   2.095  0.0884  0.4989 -0.1898
 5120SOL    HW127833   4.153   7.817   2.155 -0.9723  1.3402  0.7833
 5120SOL    HW227834   4.063   7.862   2.026  0.3937  0.1773 -0.5925
 5121SOL     OW27835   3.767   0.627   8.168 -0.2248  0.6617  0.5850
 5121SOL    HW127836   3.691   0.572   8.135  1.9160 -1.0693 -1.5896
 5121SOL    HW227837   3.791   0.599   8.261 -0.6693 -0.4833  0.3547
 5122SOL     OW27838   6.965   5.809   5.521  0.3858  0.0942 -0.2089
 5122SOL    HW127839   6.978   5.803   5.422 -0.9184 -2.1644 -0.2715
 5122SOL    HW227840   7.048   5.778   5.568  0.3755 -0.5144 -0.5942
 5123SOL     OW27841   2.788   5.243   6.599 -0.1549  0.9489 -0.0561
 5123SOL    HW127842   2.886   5.240   6.614  0.1991  1.9588 -2.0529
 5123SOL    HW227843   2.745   5.303   6.668  0.5255 -0.0344  1.2302
 5124SOL     OW27844   1.750   3.525   2.184  0.3343  0.1445  0.3979
 5124SOL    HW127845   1.715   3.608   2.139 -1.3110  1.6983  4.2852
 5124SOL    HW227846   1.686   3.450   2.170 -0.2832  0.6792  0.3202
 5125SOL     OW27847   1.634   7.905   7.101  0.4673  0.4075  0.5808
 5125SOL    HW127848   1.649   7.836   7.171 -0.8644 -1.5369 -0.9896
 5125SOL    HW227849   1.721   7.934   7.062  0.9025 -2.4948 -0.7067
 5126SOL     OW27850   3.667   6.283   1.697  0.7536 -0.1648 -0.1601
 5126SOL    HW127851   3.681   6.381   1.684 -0.7017  0.3482  1.7486
 5126SOL    HW227852   3.595   6.269   1.765  1.2301 -2.5708 -0.1015
 5127SOL     OW27853   2.271   1.395   2.063  0.3165  0.3053  0.7037
 5127SOL    HW127854   2.253   1.376   2.159  0.8564  1.1069  0.9590
 5127SOL    HW227855   2.250   1.490   2.043 -0.8545 -0.1283 -0.2288
 5128SOL     OW27856   2.526   3.726   2.267  0.3752 -0.1509  0.2238
 5128SOL    HW127857   2.439   3.677   2.275 -0.6607  1.8338  1.4512
 5128SOL    HW227858   2.577   3.691   2.189 -1.4069 -1.5384 -0.3417
 5129SOL     OW27859   3.097   4.279   8.527 -0.0291 -0.3355  0.3493
 5129SOL    HW127860   3.187   4.259   8.488  0.9080  3.3748  0.4198
 5129SOL    HW227861   3.097   4.253   8.624  1.8612  1.9479  1.0137
 5130SOL     OW27862   4.067   3.000   7.085 -0.2053  0.3688  0.0787
 5130SOL    HW127863   4.089   3.014   6.988 -0.6507  0.6280  0.0138
 5130SOL    HW227864   4.129   3.054   7.141 -1.7235  2.4091 -0.1606
 5131SOL     OW27865   4.507   6.891   2.876  0.0766 -0.0439 -0.2318
 5131SOL    HW127866   4.591   6.934   2.909  0.4279  0.3457 -1.5915
 5131SOL    HW227867   4.524   6.850   2.786 -1.0777 -0.3232 -0.3298
 5132SOL     OW27868   6.545   6.611   8.765 -0.4780  0.0679 -0.2190
 5132SOL    HW127869   6.604   6.677   8.718 -0.7504  1.5658  1.4941
 5132SOL    HW227870   6.449   6.632   8.747 -0.5541 -0.4390 -0.4234
 5133SOL     OW27871   0.954   0.205   5.153 -0.4354 -0.4398 -0.1972
 5133SOL    HW127872   0.962   0.218   5.252 -1.0528 -0.0641 -0.1936
 5133SOL    HW227873   0.952   0.295   5.108 -0.8164 -0.5986 -0.4992
 5134SOL     OW27874   0.970   5.360   6.107 -0.0463  0.9048 -0.5025
 5134SOL    HW127875   0.975   5.393   6.201 -0.0088  1.0675 -0.5614
 5134SOL    HW227876   0.893   5.297   6.098 -0.0845  0.9336 -0.3763
 5135SOL     OW27877   1.475   5.236   8.562 -0.2146  0.2486  0.0681
 5135SOL    HW127878   1.482   5.140   8.536  0.8565  0.3041  0.0914
 5135SOL    HW227879   1.516   5.249   8.653 -0.7850  0.6433  0.2689
 5136SOL     OW27880   8.363   2.367   8.058  0.1965  0.2421  0.1592
 5136SOL    HW127881   8.371   2.280   8.107 -0.6394 -0.9349 -1.7151
 5136SOL    HW227882   8.346   2.349   7.961  3.3865  2.4742 -0.9221
 5137SOL     OW27883   6.212   7.250   5.444  0.6151  0.0341  0.0201
 5137SOL    HW127884   6.280   7.225   5.376  0.7844  0.1624  0.1442
 5137SOL    HW227885   6.173   7.167   5.484  0.3240 -0.0467 -0.4223
 5138SOL     OW27886   6.919   6.026   8.048  0.2843 -0.4421 -0.4393
 5138SOL    HW127887   6.992   6.093   8.040  0.0944 -0.1022  0.6208
 5138SOL    HW227888   6.958   5.935   8.058  0.6054 -0.1219  1.4831
 5139SOL     OW27889   1.291   8.334   2.961 -0.3228 -0.7639  0.3164
 5139SOL    HW127890   1.380   8.372   2.986 -0.0335 -1.6759  0.6962
 5139SOL    HW227891   1.303   8.244   2.920 -0.8637  0.2626 -2.2244
 5140SOL     OW27892   0.493   1.824   2.002  0.0427  0.8158 -0.3994
 5140SOL    HW127893   0.519   1.869   1.916  0.7231  1.9187  0.3736
 5140SOL    HW227894   0.422   1.878   2.047  1.4836  1.6337  0.9627
 5141SOL     OW27895   3.942   4.609   7.544 -0.4736  0.0671 -0.4469
 5141SOL    HW127896   3.914   4.533   7.602  2.8576 -0.0891  1.0646
 5141SOL    HW227897   3.878   4.685   7.555 -0.5688 -0.4003  2.5519
 5142SOL     OW27898   5.818   7.737   0.956 -0.0198 -0.1167  0.1689
 5142SOL    HW127899   5.855   7.679   1.029  2.5729 -0.7432 -1.5867
 5142SOL    HW227900   5.732   7.698   0.922 -0.2437 -0.8544  1.5549
 5143SOL     OW27901   3.130   3.181   6.790 -0.1007  0.0899 -0.5180
 5143SOL    HW127902   3.137   3.276   6.819  1.9380 -0.1561 -0.0868
 5143SOL    HW227903   3.219   3.150   6.756 -1.3794 -0.8997 -3.0872
 5144SOL     OW27904   2.884   2.253   4.164 -0.2995  0.0037 -0.1764
 5144SOL    HW127905   2.894   2.207   4.076  0.9972 -0.2002  0.0679
 5144SOL    HW227906   2.793   2.295   4.170 -0.5600 -0.3726 -1.4188
 5145SOL     OW27907   1.159   2.995   0.631 -0.4018  0.3969 -0.4506
 5145SOL    HW127908   1.098   3.000   0.710  1.2962  0.9866  0.8655
 5145SOL    HW227909   1.109   2.961   0.552 -1.6024 -2.4698  1.4588
 5146SOL     OW27910   2.376   3.610   4.067 -0.4857  0.4751 -0.3604
 5146SOL    HW127911   2.345   3.701   4.093 -0.1027  0.3659  0.4940
 5146SOL    HW227912   2.296   3.550   4.054 -0.7305  0.8934 -0.8017
 5147SOL     OW27913   5.291   1.023   8.332 -0.4451  0.2797 -0.5998
 5147SOL    HW127914   5.302   1.106   8.386 -0.6011 -0.1375  0.0817
 5147SOL    HW227915   5.372   1.010   8.275  0.3294  0.0057  0.5454
 5148SOL     OW27916   6.537   7.630   4.045 -0.3740  0.3556  0.2898
 5148SOL    HW127917   6.516   7.536   4.072  0.2831  0.3448  0.7791
 5148SOL    HW227918   6.515   7.691   4.121 -1.0676  0.6354 -0.1289
 5149SOL     OW27919   6.956   2.272   2.558  0.0270 -0.2012  0.3379
 5149SOL    HW127920   6.859   2.272   2.534  0.1646 -0.6985 -0.2095
 5149SOL    HW227921   6.989   2.367   2.563 -0.5560 -0.0160  0.8405
 5150SOL     OW27922   1.153   6.644   6.743 -0.0461  0.0248 -0.0218
 5150SOL    HW127923   1.152   6.715   6.673  2.4240  0.8545  0.7305
 5150SOL    HW227924   1.187   6.682   6.829  0.6194 -1.8950  0.5944
 5151SOL     OW27925   6.832   4.054   5.740 -0.7370  0.4450  0.1404
 5151SOL    HW127926   6.857   4.091   5.651 -0.2574  0.0496  0.1109
 5151SOL    HW227927   6.881   4.104   5.812  0.1569 -0.3396  0.0813
 5152SOL     OW27928   7.301   8.587   1.213  0.2415  0.0034  0.0522
 5152SOL    HW127929   7.333   8.522   1.144 -0.3142  0.9602 -1.1182
 5152SOL    HW227930   7.342   8.564   1.301  0.3859 -1.6749 -0.4305
 5153SOL     OW27931   3.314   8.477   4.659 -0.3966 -0.0221  0.1489
 5153SOL    HW127932   3.358   8.392   4.688  0.2537 -0.3897 -1.8240
 5153SOL    HW227933   3.273   8.464   4.568 -1.0301  1.5233  0.1955
 5154SOL     OW27934   5.638   4.098   8.272 -0.2614  0.0764 -0.2958
 5154SOL    HW127935   5.601   4.040   8.200 -0.4791 -1.3924  0.9567
 5154SOL    HW227936   5.609   4.062   8.361  2.1675  0.3116  0.6138
 5155SOL     OW27937   7.102   3.208   2.608 -0.1482  0.1025  0.8428
 5155SOL    HW127938   7.151   3.170   2.530 -0.2241  0.3396  0.6826
 5155SOL    HW227939   7.057   3.293   2.582  1.6001  1.3370  1.6936
 5156SOL     OW27940   4.749   0.704   6.938 -0.3304  0.6590 -0.3561
 5156SOL    HW127941   4.670   0.644   6.951 -0.1120  0.2850 -0.7572
 5156SOL    HW227942   4.801   0.675   6.858  0.4918  0.6053  0.1890
 5157SOL     OW27943   3.835   7.829   5.862 -0.4003 -0.4384 -0.8575
 5157SOL    HW127944   3.873   7.889   5.792 -0.0537  1.1766  0.6817
 5157SOL    HW227945   3.890   7.746   5.869  0.3888  0.0260 -1.5019
 5158SOL     OW27946   3.684   5.785   7.714  0.2444 -0.1241  0.4200
 5158SOL    HW127947   3.626   5.707   7.737 -0.4209  0.2676  0.1009
 5158SOL    HW227948   3.727   5.770   7.625 -1.5066  0.7636 -0.6052
 5159SOL     OW27949   1.492   8.584   6.393 -0.2395 -1.1286  0.3213
 5159SOL    HW127950   1.461   8.659   6.334  1.4170 -0.4858  0.2590
 5159SOL    HW227951   1.513   8.619   6.484  2.0660 -1.2166 -0.1603
 5160SOL     OW27952   2.661   3.000   1.430 -0.3088  0.4920 -0.1675
 5160SOL    HW127953   2.612   2.964   1.509 -1.0631  0.7559 -0.4992
 5160SOL    HW227954   2.757   2.976   1.435 -0.4327  0.1719  0.6296
 5161SOL     OW27955   4.949   0.338   0.401  0.1772 -0.3407  0.3290
 5161SOL    HW127956   4.927   0.313   0.495  0.4101 -1.1716  0.1768
 5161SOL    HW227957   5.042   0.374   0.397 -0.4055  1.1920  0.6555
 5162SOL     OW27958   0.542   1.668   2.858  0.0890 -0.3550 -0.0636
 5162SOL    HW127959   0.609   1.711   2.798  0.1747 -0.4975 -0.0716
 5162SOL    HW227960   0.587   1.599   2.915  0.6078  1.9863  2.4401
 5163SOL     OW27961   4.229   0.565   2.331 -0.9751 -0.0049 -0.2290
 5163SOL    HW127962   4.242   0.484   2.388 -0.0041 -1.6418 -2.6717
 5163SOL    HW227963   4.132   0.573   2.307 -0.9221 -1.0523 -0.8195
 5164SOL     OW27964   2.582   7.849   2.168  0.5967  0.1190  0.3525
 5164SOL    HW127965   2.587   7.870   2.265  0.2241  0.9581  0.1907
 5164SOL    HW227966   2.638   7.768   2.148 -1.7148 -1.8894  1.7740
 5165SOL     OW27967   3.873   3.031   1.995  0.0612  0.2293  0.5762
 5165SOL    HW127968   3.818   2.981   1.927 -2.1347  1.4591  1.3711
 5165SOL    HW227969   3.959   2.984   2.009 -0.3748 -1.2715 -1.4356
 5166SOL     OW27970   7.883   3.947   1.011  0.1921 -0.2781  0.6735
 5166SOL    HW127971   7.820   3.894   1.069 -1.3849 -0.0923 -0.8193
 5166SOL    HW227972   7.866   3.925   0.915  0.2978  2.0951  0.0788
 5167SOL     OW27973   7.066   3.716   3.846 -0.6582 -0.4158  0.2820
 5167SOL    HW127974   7.122   3.710   3.929 -1.2068  1.6367  0.8294
 5167SOL    HW227975   7.107   3.661   3.774  0.0497 -1.9191  1.7968
 5168SOL     OW27976   1.938   3.716   6.635 -0.5437  0.2619 -0.3404
 5168SOL    HW127977   1.870   3.777   6.675 -0.6042  0.1158 -0.2215
 5168SOL    HW227978   1.939   3.629   6.685 -2.6017 -1.0084 -2.3458
 5169SOL     OW27979   8.187   0.982   6.050  0.5574  0.3598 -0.4053
 5169SOL    HW127980   8.110   0.945   6.101 -0.5564  1.5025 -1.2215
 5169SOL    HW227981   8.272   0.963   6.100 -0.5035  1.6179  1.9737
 5170SOL     OW27982   1.636   4.946   4.508 -0.3324  0.2970  0.1844
 5170SOL    HW127983   1.688   4.959   4.593  1.1058 -1.6006 -0.3532
 5170SOL    HW227984   1.646   5.026   4.450  0.0464  0.9295  1.1078
 5171SOL     OW27985   0.399   1.029   8.149  0.0771 -0.1251 -0.2606
 5171SOL    HW127986   0.427   0.978   8.068 -0.5080  0.5499 -0.9010
 5171SOL    HW227987   0.346   1.110   8.121 -1.0980 -0.4925  0.8415
 5172SOL     OW27988   4.843   1.577   2.400 -0.3903  0.0720 -0.1685
 5172SOL    HW127989   4.879   1.547   2.312  0.5092 -0.7378  0.4655
 5172SOL    HW227990   4.904   1.645   2.440 -0.5578  0.0999  0.0458
 5173SOL     OW27991   1.494   8.872   8.054  0.1341 -0.0120 -0.0248
 5173SOL    HW127992   1.428   8.851   8.126  0.4821 -1.0550 -0.0102
 5173SOL    HW227993   1.450   8.865   7.965 -0.0349  0.2846  0.0350
 5174SOL     OW27994   0.200   5.416   1.921  0.4151 -0.4116  0.1565
 5174SOL    HW127995   0.122   5.398   1.981  0.8922  1.0905  1.2601
 5174SOL    HW227996   0.262   5.481   1.965  1.2817 -0.0364 -1.5542
 5175SOL     OW27997   3.360   2.312   4.244 -0.8238 -0.5894  0.1031
 5175SOL    HW127998   3.448   2.270   4.221  1.1472  2.7726  1.0437
 5175SOL    HW227999   3.316   2.345   4.160 -0.2666 -0.6241 -0.2060
 5176SOL     OW28000   2.019   2.307   0.687  0.0256  0.2826 -0.3216
 5176SOL    HW128001   2.092   2.287   0.622 -0.1829 -1.2374 -0.1184
 5176SOL    HW228002   1.969   2.388   0.658  1.7481  1.3016 -0.4966
 5177SOL     OW28003   7.052   5.860   8.742 -0.1665  0.4599  0.0312
 5177SOL    HW128004   7.126   5.797   8.718 -0.4170  0.0667  0.2829
 5177SOL    HW228005   7.001   5.884   8.659 -0.7103 -0.4861  0.0833
 5178SOL     OW28006   7.348   3.153   2.420  0.1205  0.0033  0.4364
 5178SOL    HW128007   7.377   3.170   2.326  4.1457 -0.6857  1.4754
 5178SOL    HW228008   7.372   3.060   2.447 -0.7180  0.2819  2.2386
 5179SOL     OW28009   5.858   7.280   6.941  0.5113 -0.1151  0.2589
 5179SOL    HW128010   5.952   7.314   6.947 -0.0085  1.3054  0.5890
 5179SOL    HW228011   5.796   7.357   6.924 -0.2859 -1.3801 -3.0657
 5180SOL     OW28012   4.971   0.493   0.834 -0.2245 -0.4923 -0.6681
 5180SOL    HW128013   5.062   0.520   0.864 -0.2487 -0.8384 -0.2771
 5180SOL    HW228014   4.904   0.517   0.906 -0.0925 -2.6982  0.2262
 5181SOL     OW28015   3.902   7.976   0.791  0.9863 -0.1860  0.3374
 5181SOL    HW128016   3.827   7.911   0.784 -0.4885  1.7031 -2.5301
 5181SOL    HW228017   3.887   8.036   0.871 -0.3595 -0.0973  0.0349
 5182SOL     OW28018   6.091   5.833   4.448 -0.0834 -0.2517 -0.2252
 5182SOL    HW128019   6.000   5.873   4.456  0.7891  2.0970 -1.6765
 5182SOL    HW228020   6.153   5.880   4.511  0.0789 -2.0775  1.0144
 5183SOL     OW28021   4.421   5.172   3.928 -0.0308  0.7810 -0.0670
 5183SOL    HW128022   4.446   5.148   4.022  1.5656 -0.6536 -0.8233
 5183SOL    HW228023   4.322   5.159   3.916  0.1424 -1.5512  0.7093
 5184SOL     OW28024   5.498   8.273   1.292 -0.1023  0.0377  0.2380
 5184SOL    HW128025   5.570   8.216   1.255 -0.9538 -0.6025 -0.4496
 5184SOL    HW228026   5.534   8.365   1.311  0.4982  0.2068 -1.5988
 5185SOL     OW28027   6.621   4.485   0.589 -0.0640 -0.2823 -0.9871
 5185SOL    HW128028   6.691   4.428   0.546  0.0235 -0.2294 -0.9148
 5185SOL    HW228029   6.550   4.506   0.522 -0.5618 -1.2367 -0.7674
 5186SOL     OW28030   3.699   2.092   6.858  0.9388  0.2378 -0.3301
 5186SOL    HW128031   3.712   2.009   6.912 -1.9044  0.0134  0.0612
 5186SOL    HW228032   3.767   2.161   6.887  3.3139 -1.8914 -0.6615
 5187SOL     OW28033   3.420   8.351   0.279 -0.4062  0.3633 -0.0384
 5187SOL    HW128034   3.471   8.436   0.278  1.5063 -0.6951  2.5996
 5187SOL    HW228035   3.361   8.348   0.360 -0.4066 -0.8482 -0.0739
 5188SOL     OW28036   8.263   5.028   4.289 -0.2614 -0.1287  0.3306
 5188SOL    HW128037   8.259   5.086   4.208  1.9442  1.7938  1.5272
 5188SOL    HW228038   8.303   4.940   4.266  1.1237  0.7085 -0.5239
 5189SOL     OW28039   2.086   5.933   7.089 -0.7551 -0.1048 -0.0951
 5189SOL    HW128040   2.117   5.857   7.146  0.1907 -0.1486 -0.6492
 5189SOL    HW228041   1.988   5.924   7.072 -0.5765 -1.4401 -0.4853
 5190SOL     OW28042   7.204   8.906   3.999  0.0089 -0.4466 -0.0077
 5190SOL    HW128043   7.272   8.837   4.023 -0.6152 -0.2441  2.4750
 5190SOL    HW228044   7.250   8.994   3.982  0.7274 -1.2591 -2.4816
 5191SOL     OW28045   1.242   6.000   5.150  0.1192 -0.3390  0.5537
 5191SOL    HW128046   1.288   5.967   5.068 -0.0701 -0.0135  0.3145
 5191SOL    HW228047   1.220   6.097   5.139 -1.6224 -0.7605  0.2069
 5192SOL     OW28048   2.817   0.234   1.523 -0.2658 -1.0705  0.3023
 5192SOL    HW128049   2.891   0.202   1.464  1.5019 -0.3695  2.1100
 5192SOL    HW228050   2.801   0.167   1.596 -2.0095 -1.6232 -0.5397
 5193SOL     OW28051   0.050   1.958   4.561  0.1168 -0.5731  0.1586
 5193SOL    HW128052   0.034   1.865   4.529 -0.1705 -0.1867 -0.8191
 5193SOL    HW228053   0.148   1.972   4.578  0.0643 -1.3099  1.1276
 5194SOL     OW28054   4.614   7.792   3.972  0.3467 -0.2680 -0.1030
 5194SOL    HW128055   4.552   7.730   3.923 -0.1282  0.4066 -0.3573
 5194SOL    HW228056   4.564   7.840   4.044  0.7076 -0.1488  0.0696
 5195SOL     OW28057   4.995   2.135   1.700  0.3622  0.8633 -0.7804
 5195SOL    HW128058   4.921   2.100   1.642  0.8031 -0.6912 -0.4119
 5195SOL    HW228059   5.074   2.075   1.694 -0.1275 -0.2410  2.6313
 5196SOL     OW28060   6.210   5.405   4.202  0.7333  0.3826  0.0604
 5196SOL    HW128061   6.202   5.503   4.185  0.7221  0.4984  0.7032
 5196SOL    HW228062   6.213   5.356   4.115 -1.8580  0.7288 -0.2659
 5197SOL     OW28063   0.745   8.712   0.145 -0.4066 -0.4590 -0.0443
 5197SOL    HW128064   0.684   8.753   0.213 -0.1338  0.0843 -0.1256
 5197SOL    HW228065   0.777   8.623   0.179 -0.2643 -0.1879  0.5445
 5198SOL     OW28066   2.073   7.923   0.089 -0.3342 -1.0258 -0.1967
 5198SOL    HW128067   2.110   7.892   0.176  0.5820 -1.2183 -0.6420
 5198SOL    HW228068   2.143   7.975   0.040 -1.4262  0.6221 -0.0388
 5199SOL     OW28069   3.699   5.405   2.972 -0.7169  0.1775  0.6055
 5199SOL    HW128070   3.749   5.447   3.047  1.1131 -0.0877 -0.4446
 5199SOL    HW228071   3.716   5.306   2.972  0.1072  0.3081 -0.7539
 5200SOL     OW28072   2.030   5.653   5.690  0.5588  0.3770 -0.1371
 5200SOL    HW128073   1.936   5.684   5.706  0.9960  1.3915  0.5939
 5200SOL    HW228074   2.051   5.577   5.752 -0.6526 -1.7055 -2.2202
 5201SOL     OW28075   0.637   5.524   3.989 -0.6227 -0.2209 -0.0373
 5201SOL    HW128076   0.652   5.429   4.018  1.1315  0.5705  1.7545
 5201SOL    HW228077   0.611   5.579   4.068  0.4064  1.2148 -0.6772
 5202SOL     OW28078   2.335   1.683   7.012  0.0707  0.2431 -0.0962
 5202SOL    HW128079   2.306   1.778   7.011  2.1089  0.8978  1.1982
 5202SOL    HW228080   2.391   1.664   6.931  0.0064  0.2491 -0.1427
 5203SOL     OW28081   4.366   6.551   1.522 -0.0670  0.2123  0.4733
 5203SOL    HW128082   4.417   6.619   1.470 -1.3317  1.3421  0.6828
 5203SOL    HW228083   4.406   6.544   1.614  0.0323  0.7296  0.4741
 5204SOL     OW28084   2.320   7.910   7.118  0.7034  0.0028 -0.0851
 5204SOL    HW128085   2.383   7.900   7.195  0.0777  1.7988  0.6888
 5204SOL    HW228086   2.360   7.969   7.048  0.5905 -0.2565 -0.3696
 5205SOL     OW28087   2.706   2.589   5.052  0.2176  0.2939 -0.7676
 5205SOL    HW128088   2.760   2.644   5.116  1.3043  0.9979 -2.2405
 5205SOL    HW228089   2.609   2.603   5.070  0.4923  1.7986 -0.3440
 5206SOL     OW28090   1.599   7.342   1.778 -0.0823  0.2040  0.3404
 5206SOL    HW128091   1.634   7.386   1.694  0.8100 -0.8111  0.1774
 5206SOL    HW228092   1.647   7.379   1.857  0.5667 -0.3770  0.2162
 5207SOL     OW28093   4.496   8.020   5.530 -0.1295  0.2361 -0.3719
 5207SOL    HW128094   4.557   7.996   5.606 -0.0056 -0.1809 -0.6031
 5207SOL    HW228095   4.465   7.937   5.484 -1.2200  0.4271  0.0123
 5208SOL     OW28096   5.711   8.478   0.405 -0.2716 -0.0291  0.3582
 5208SOL    HW128097   5.779   8.444   0.339  0.4006  0.3235  0.8718
 5208SOL    HW228098   5.751   8.478   0.497 -0.5657  1.3466  0.4826
 5209SOL     OW28099   2.876   4.905   8.526  0.4444 -0.4640  0.4478
 5209SOL    HW128100   2.846   4.977   8.463 -0.2623  0.4757  1.8462
 5209SOL    HW228101   2.959   4.862   8.490 -0.2169 -0.2647 -1.3642
 5210SOL     OW28102   8.158   4.542   8.391  0.0258  0.2059 -0.1330
 5210SOL    HW128103   8.173   4.528   8.293 -1.5890  0.0536 -0.3823
 5210SOL    HW228104   8.191   4.632   8.418 -1.2742  1.0273 -1.2302
 5211SOL     OW28105   2.353   5.201   0.074 -0.7452 -0.7820  0.2003
 5211SOL    HW128106   2.301   5.181  -0.010  0.5326  2.1434 -1.3621
 5211SOL    HW228107   2.298   5.259   0.134 -2.1001 -3.7905  1.9805
 5212SOL     OW28108   8.779   5.637   5.648 -0.3983  0.0704  0.1580
 5212SOL    HW128109   8.819   5.545   5.650 -1.6394 -0.5356 -1.4009
 5212SOL    HW228110   8.834   5.696   5.589 -1.7561 -0.7486 -1.9491
 5213SOL     OW28111   3.816   8.883   4.236  0.4585 -0.5107 -0.5882
 5213SOL    HW128112   3.815   8.977   4.201  1.2393 -0.1454  0.3776
 5213SOL    HW228113   3.907   8.860   4.269  0.0496 -1.3178 -0.0134
 5214SOL     OW28114   3.814   3.189   8.114 -0.3035  0.0455  0.0526
 5214SOL    HW128115   3.830   3.254   8.188 -0.0796 -0.4939  0.4794
 5214SOL    HW228116   3.738   3.221   8.057 -0.9284  0.1152  0.9180
 5215SOL     OW28117   5.219   7.422   0.049  0.1524 -0.0931 -0.1766
 5215SOL    HW128118   5.303   7.445   0.000 -0.4622  2.5128 -0.0721
 5215SOL    HW228119   5.240   7.405   0.145  0.6064  0.2830 -0.2066
 5216SOL     OW28120   3.982   6.289   8.629 -0.6970  0.3686 -0.0481
 5216SOL    HW128121   3.993   6.258   8.724 -1.2757 -2.0131 -0.7287
 5216SOL    HW228122   3.897   6.342   8.621 -0.1451  1.4390  0.9471
 5217SOL     OW28123   8.254   2.250   2.615  0.1280 -0.3019 -0.9663
 5217SOL    HW128124   8.255   2.217   2.710  0.0214  0.5675 -0.6543
 5217SOL    HW228125   8.236   2.174   2.553 -0.4553 -0.7667 -0.2375
 5218SOL     OW28126   0.495   5.295   0.824  0.4746 -0.1147 -0.7382
 5218SOL    HW128127   0.407   5.332   0.854  0.5757 -0.8429  0.5092
 5218SOL    HW228128   0.551   5.369   0.785  0.7854  1.1601  1.9446
 5219SOL     OW28129   8.971   3.595   6.282  0.0252  0.1149 -0.7361
 5219SOL    HW128130   9.020   3.611   6.196  1.5143  0.5815  0.1880
 5219SOL    HW228131   8.958   3.681   6.331  1.0627 -0.4218  0.5049
 5220SOL     OW28132   3.927   5.044   0.700  0.3569  0.1561  0.4424
 5220SOL    HW128133   3.932   5.031   0.799 -1.9863  1.2037  0.7310
 5220SOL    HW228134   3.909   5.140   0.680 -0.6172 -0.2955 -0.9371
 5221SOL     OW28135   2.776   4.960   4.620 -0.2801  0.1328  0.2712
 5221SOL    HW128136   2.772   4.864   4.645  0.8670  0.0532  0.1729
 5221SOL    HW228137   2.818   4.970   4.530 -0.2553  0.7306  0.3453
 5222SOL     OW28138   8.127   1.446   6.599 -0.4387 -0.0798 -0.0525
 5222SOL    HW128139   8.226   1.442   6.612 -0.6202  0.2915  1.5658
 5222SOL    HW228140   8.103   1.523   6.540  0.2215 -0.1261 -0.3797
 5223SOL     OW28141   1.396   2.227   3.537  0.0296  0.4184  0.1907
 5223SOL    HW128142   1.392   2.127   3.544  1.6141  0.3298  0.1093
 5223SOL    HW228143   1.427   2.253   3.445 -1.8757  1.0390 -0.2997
 5224SOL     OW28144   7.878   7.610   6.423  0.3129 -0.0044 -0.1152
 5224SOL    HW128145   7.962   7.610   6.477 -0.1052  0.7013  0.5379
 5224SOL    HW228146   7.802   7.642   6.479 -0.2975 -0.1629 -0.8474
 5225SOL     OW28147   0.804   5.267   3.762  0.3220 -0.1230 -0.2992
 5225SOL    HW128148   0.711   5.257   3.799  0.7370 -0.8410  0.5568
 5225SOL    HW228149   0.799   5.278   3.663 -0.6848 -0.1037 -0.2517
 5226SOL     OW28150   5.891   3.162   3.473 -0.0474  0.0820 -0.4185
 5226SOL    HW128151   5.862   3.232   3.538 -0.2795 -0.7041  0.3209
 5226SOL    HW228152   5.877   3.197   3.380 -0.3902  0.9280 -0.0598
 5227SOL     OW28153   1.324   3.155   3.931 -0.8382  0.0397  0.1742
 5227SOL    HW128154   1.387   3.181   3.858 -1.3645  0.3970 -0.1585
 5227SOL    HW228155   1.231   3.154   3.895 -1.2004  1.0763  1.0467
 5228SOL     OW28156   0.453   4.348   1.593 -0.2409 -0.8791  0.0579
 5228SOL    HW128157   0.386   4.371   1.523  1.4173 -0.8525 -1.5627
 5228SOL    HW228158   0.472   4.250   1.589 -0.9065 -1.0548  1.1666
 5229SOL     OW28159   2.551   5.403   5.589  0.1074  0.1003  0.2718
 5229SOL    HW128160   2.586   5.442   5.674  0.4139  2.4178 -0.8690
 5229SOL    HW228161   2.620   5.416   5.517 -0.9041 -0.1669 -0.7434
 5230SOL     OW28162   1.800   8.059   0.742  0.2560 -0.4932 -0.1572
 5230SOL    HW128163   1.895   8.090   0.746 -0.4364  1.5730  0.6322
 5230SOL    HW228164   1.746   8.122   0.687 -1.3445  0.2312  2.1355
 5231SOL     OW28165   3.284   0.149   1.174 -0.7490  0.1567  0.3986
 5231SOL    HW128166   3.198   0.199   1.162 -0.9846  0.0012  1.3736
 5231SOL    HW228167   3.271   0.075   1.240  0.0466 -0.0756  0.3059
 5232SOL     OW28168   4.720   5.823   7.421 -0.0436 -0.0613 -0.1952
 5232SOL    HW128169   4.630   5.787   7.446 -0.6016  0.6539 -1.1685
 5232SOL    HW228170   4.773   5.839   7.504 -1.4291  1.1099  0.4806
 5233SOL     OW28171   2.525   0.414   3.190  0.1966  0.3770  0.3352
 5233SOL    HW128172   2.623   0.429   3.204  0.6556 -0.4826 -1.7759
 5233SOL    HW228173   2.497   0.328   3.232  0.5231  0.2372  0.2665
 5234SOL     OW28174   3.508   8.142   1.212  0.0948  0.4244  0.3289
 5234SOL    HW128175   3.556   8.062   1.249  0.2178 -0.3615 -1.4649
 5234SOL    HW228176   3.410   8.127   1.216  0.1237  0.0063 -0.3317
 5235SOL     OW28177   7.306   6.853   7.219  0.4015 -0.4139  0.2431
 5235SOL    HW128178   7.402   6.852   7.247  0.5733 -2.8497 -0.3126
 5235SOL    HW228179   7.300   6.858   7.119 -0.1162  1.6166  0.3402
 5236SOL     OW28180   6.182   8.285   8.196  0.6380  0.5257 -0.5083
 5236SOL    HW128181   6.255   8.306   8.260 -0.0483  1.0340  0.1232
 5236SOL    HW228182   6.168   8.186   8.191  0.8846  0.4712 -0.0850
 5237SOL     OW28183   4.948   5.129   1.688 -0.2573  0.3270  0.3092
 5237SOL    HW128184   4.959   5.194   1.613  1.6050 -0.8005 -0.4298
 5237SOL    HW228185   4.884   5.167   1.756 -1.8842  1.4065 -1.7613
 5238SOL     OW28186   0.891   3.657   1.083 -0.5014 -0.5000 -0.1417
 5238SOL    HW128187   0.869   3.743   1.128 -1.3983 -0.0001 -1.5003
 5238SOL    HW228188   0.847   3.581   1.131  0.5041 -0.2542  1.2129
 5239SOL     OW28189   0.286   1.524   6.606  0.2170 -0.0553 -0.2389
 5239SOL    HW128190   0.216   1.454   6.596 -0.3913  0.5167 -0.0148
 5239SOL    HW228191   0.289   1.580   6.522  0.8599 -0.5001 -0.5090
 5240SOL     OW28192   5.253   4.755   0.214  0.4308 -0.5173  0.3232
 5240SOL    HW128193   5.346   4.722   0.199  1.5928  1.6286  2.4740
 5240SOL    HW228194   5.225   4.732   0.307 -0.2985  0.8980  0.4619
 5241SOL     OW28195   5.101   3.365   1.840 -0.2127  0.1077  0.3319
 5241SOL    HW128196   5.140   3.293   1.781 -1.0896  1.5071 -2.0115
 5241SOL    HW228197   5.079   3.326   1.929 -1.9995 -2.9109 -1.3548
 5242SOL     OW28198   3.129   8.033   8.330  0.2747 -0.3259 -0.2554
 5242SOL    HW128199   3.115   8.045   8.428  0.4947  1.0412 -0.3783
 5242SOL    HW228200   3.076   8.101   8.280 -2.3612 -3.0239 -1.2503
 5243SOL     OW28201   6.332   8.110   7.493 -0.3500 -0.1777 -0.5770
 5243SOL    HW128202   6.407   8.044   7.485  0.2234  0.2799  0.9731
 5243SOL    HW228203   6.264   8.075   7.557 -0.0926  0.6938  0.1673
 5244SOL     OW28204   4.705   7.377   3.809  0.5985  0.1686 -0.5119
 5244SOL    HW128205   4.676   7.370   3.904 -0.6750  1.5766 -0.7865
 5244SOL    HW228206   4.767   7.455   3.799 -0.8684  1.2839 -1.1916
 5245SOL     OW28207   1.984   7.559   5.521  0.4557 -0.0778 -0.2646
 5245SOL    HW128208   1.948   7.623   5.589 -0.5967  0.3714 -1.2160
 5245SOL    HW228209   2.079   7.536   5.543  0.6528  1.3428  0.4344
 5246SOL     OW28210   6.892   2.269   2.223  0.7599  0.2186 -0.1861
 5246SOL    HW128211   6.851   2.359   2.239 -0.0007 -0.0640 -0.5473
 5246SOL    HW228212   6.844   2.201   2.278  1.2872  0.0205  0.0269
 5247SOL     OW28213   5.230   5.534   0.165  0.0061  0.0580  0.6112
 5247SOL    HW128214   5.310   5.574   0.122 -0.3074 -1.0221 -1.0528
 5247SOL    HW228215   5.246   5.522   0.262  1.6104  0.4492  0.3979
 5248SOL     OW28216   4.148   0.119   3.327  0.1145  0.6406  0.0637
 5248SOL    HW128217   4.194   0.207   3.333  0.7531  0.4127 -1.3244
 5248SOL    HW228218   4.200   0.050   3.376  2.1880  0.0294 -2.8530
 5249SOL     OW28219   7.880   6.533   1.781 -0.0481 -0.3527 -0.1342
 5249SOL    HW128220   7.803   6.564   1.837 -1.5495 -1.7983 -1.3299
 5249SOL    HW228221   7.906   6.441   1.808  0.4124 -0.3631 -0.5972
 5250SOL     OW28222   3.342   4.907   0.716 -0.1757  0.0936 -0.0277
 5250SOL    HW128223   3.406   4.872   0.648 -0.4890 -0.8589  0.1643
 5250SOL    HW228224   3.305   4.994   0.685  2.6844  1.6747  0.7270
 5251SOL     OW28225   4.942   8.423   5.335  0.1378 -0.1301  0.3086
 5251SOL    HW128226   4.846   8.406   5.314 -0.1305  0.9362  0.6057
 5251SOL    HW228227   4.998   8.404   5.254 -0.1391 -2.2199  0.6060
 5252SOL     OW28228   6.711   0.593   1.836  0.1074  0.2113  0.5601
 5252SOL    HW128229   6.736   0.557   1.746  1.5227  0.9081  0.6709
 5252SOL    HW228230   6.763   0.545   1.907  0.5223  1.0850  0.8525
 5253SOL     OW28231   8.224   4.770   4.186  0.2153  0.2336 -0.5445
 5253SOL    HW128232   8.288   4.779   4.110  1.0487 -0.9815 -0.0000
 5253SOL    HW228233   8.149   4.708   4.159  0.1066  0.4023 -0.6327
 5254SOL     OW28234   8.447   3.443   5.203  0.2999  0.1358 -0.4224
 5254SOL    HW128235   8.501   3.398   5.132  0.8648  0.5042 -0.2354
 5254SOL    HW228236   8.450   3.542   5.189  0.3735  0.2077  0.0841
 5255SOL     OW28237   2.916   8.818   4.903 -0.7709  0.8726  0.0004
 5255SOL    HW128238   2.929   8.719   4.909 -0.1912  0.9297 -0.2804
 5255SOL    HW228239   3.005   8.864   4.906 -1.1240  1.4879  1.9069
 5256SOL     OW28240   2.240   1.488   8.146 -0.1386  0.2889 -0.2763
 5256SOL    HW128241   2.340   1.481   8.153  0.0505 -0.9457 -3.2414
 5256SOL    HW228242   2.198   1.416   8.201  0.6600  0.1648  0.1800
 5257SOL     OW28243   3.248   8.001   4.918 -0.8857 -0.6257  0.1482
 5257SOL    HW128244   3.229   7.913   4.873 -0.6217 -1.0369  0.8357
 5257SOL    HW228245   3.335   7.996   4.966 -0.1092  0.5337 -1.1169
 5258SOL     OW28246   2.448   3.399   2.889  0.0298  1.0812  0.3044
 5258SOL    HW128247   2.505   3.320   2.909 -0.3939  0.5615 -0.5108
 5258SOL    HW228248   2.386   3.416   2.966 -1.1335 -0.4931 -0.2606
 5259SOL     OW28249   0.852   1.330   0.077 -0.3203  0.1685 -0.0558
 5259SOL    HW128250   0.895   1.401   0.022  0.9756 -0.2444  0.3990
 5259SOL    HW228251   0.785   1.371   0.139  0.1101  0.9390 -0.0957
 5260SOL     OW28252   6.862   2.469   6.458 -0.0157 -0.7873  0.5357
 5260SOL    HW128253   6.883   2.384   6.506  0.0796 -0.9067  0.2796
 5260SOL    HW228254   6.841   2.540   6.525  2.3731 -0.3511  0.8485
 5261SOL     OW28255   3.255   8.461   6.868  0.4509  0.0027  0.5927
 5261SOL    HW128256   3.335   8.473   6.928 -0.0370 -0.0427  1.2588
 5261SOL    HW228257   3.173   8.454   6.924  0.1227 -1.2463 -0.0338
 5262SOL     OW28258   5.782   2.995   7.267 -0.0328  0.1804  0.5953
 5262SOL    HW128259   5.880   2.998   7.288  0.3027 -0.1311 -0.8356
 5262SOL    HW228260   5.739   3.079   7.299  0.9579  0.8816  0.1276
 5263SOL     OW28261   5.656   5.565   5.908  0.2564  0.0720  0.2382
 5263SOL    HW128262   5.723   5.635   5.932 -0.4614  0.6763  0.5191
 5263SOL    HW228263   5.629   5.576   5.812  1.3658 -0.8540 -0.1800
 5264SOL     OW28264   0.990   5.164   8.129 -0.1932 -0.4230 -0.0542
 5264SOL    HW128265   0.927   5.231   8.170  2.2214  1.8811  0.0301
 5264SOL    HW228266   1.053   5.211   8.068  1.0216 -2.7807 -0.6573
 5265SOL     OW28267   6.794   4.850   1.508  0.3827 -0.1339 -0.7520
 5265SOL    HW128268   6.747   4.845   1.420  0.8743  0.0987 -1.0293
 5265SOL    HW228269   6.772   4.769   1.562 -1.5153  0.6581 -0.2905
 5266SOL     OW28270   5.169   4.480   6.601 -0.8120  0.6227 -0.0052
 5266SOL    HW128271   5.128   4.567   6.573 -1.9644 -0.1582 -0.8078
 5266SOL    HW228272   5.115   4.439   6.674 -0.0434  0.7724  0.6463
 5267SOL     OW28273   0.744   6.848   6.031  0.7698 -0.6332  0.5452
 5267SOL    HW128274   0.658   6.882   5.994  2.1053  0.1643 -1.9367
 5267SOL    HW228275   0.730   6.757   6.070 -1.4892  0.1143  1.5591
 5268SOL     OW28276   3.476   7.069   5.661 -0.6992 -0.5356  0.2420
 5268SOL    HW128277   3.558   7.076   5.604 -0.1791  1.0296  1.1435
 5268SOL    HW228278   3.400   7.037   5.606  0.4058 -1.5683 -0.7212
 5269SOL     OW28279   1.950   5.364   7.190 -0.1858 -0.0244  0.0921
 5269SOL    HW128280   1.886   5.324   7.256 -1.6755  0.5872 -0.9536
 5269SOL    HW228281   1.997   5.291   7.141 -2.4204 -0.5673 -1.3441
 5270SOL     OW28282   6.045   5.512   1.666 -0.0102  0.2829  0.9608
 5270SOL    HW128283   6.049   5.413   1.651  1.4843  0.6071 -1.0338
 5270SOL    HW228284   5.981   5.532   1.740 -0.2152 -2.1831  1.4988
 5271SOL     OW28285   7.585   0.957   0.784  0.0588  0.3708 -0.0739
 5271SOL    HW128286   7.580   0.898   0.703 -1.8057  1.6090 -0.8775
 5271SOL    HW228287   7.496   0.960   0.829  1.0118 -0.0927  1.9049
 5272SOL     OW28288   6.039   7.714   7.714  0.1270 -0.5790 -0.0030
 5272SOL    HW128289   5.971   7.641   7.723  0.2318 -0.8105 -0.9832
 5272SOL    HW228290   6.038   7.749   7.620  0.3560  0.4148  0.3566
 5273SOL     OW28291   3.545   1.697   3.125  0.1131 -0.3144  0.5012
 5273SOL    HW128292   3.482   1.657   3.192  0.0713  1.4910  1.5657
 5273SOL    HW228293   3.618   1.745   3.174  0.6094  0.2055 -0.7493
 5274SOL     OW28294   4.183   6.753   7.486 -0.1429 -0.3155  0.3196
 5274SOL    HW128295   4.152   6.845   7.509 -1.3068 -0.3994 -0.8605
 5274SOL    HW228296   4.106   6.698   7.455  0.5823 -1.6307  0.8035
 5275SOL     OW28297   3.273   7.420   6.444  0.2831  0.4519  0.0285
 5275SOL    HW128298   3.313   7.358   6.376  1.1664  1.4073 -0.3510
 5275SOL    HW228299   3.241   7.368   6.523 -0.3165 -0.6219 -0.9193
 5276SOL     OW28300   5.386   2.393   4.528 -0.4608  0.3681  0.1236
 5276SOL    HW128301   5.413   2.458   4.599  2.3471  0.1334 -0.7027
 5276SOL    HW228302   5.312   2.432   4.473  0.9742  2.7401 -0.1601
 5277SOL     OW28303   1.375   5.125   7.873  0.2120  0.2871  0.3626
 5277SOL    HW128304   1.372   5.081   7.784  1.0313  1.0498 -0.0442
 5277SOL    HW228305   1.458   5.098   7.922  0.2104  0.5742  0.5275
 5278SOL     OW28306   1.351   2.339   7.108 -0.2976  0.2133 -0.5425
 5278SOL    HW128307   1.267   2.374   7.149 -0.2432 -1.6723  1.2899
 5278SOL    HW228308   1.328   2.283   7.028 -0.7309  0.4909 -0.6136
 5279SOL     OW28309   6.656   8.972   8.399  0.2573 -0.1986 -0.1219
 5279SOL    HW128310   6.749   8.955   8.432  0.1389 -2.0146 -0.6473
 5279SOL    HW228311   6.660   9.012   8.307  0.5203 -1.1382 -0.5251
 5280SOL     OW28312   0.028   8.107   6.850 -0.2580 -0.0145 -0.3221
 5280SOL    HW128313   0.083   8.123   6.932 -0.6649  0.0036 -0.0517
 5280SOL    HW228314  -0.061   8.153   6.860  0.0601  0.8185 -1.1806
 5281SOL     OW28315   2.066   0.160   0.467  0.0855 -0.5284  0.6064
 5281SOL    HW128316   2.039   0.125   0.377  0.5921 -1.2249  0.7204
 5281SOL    HW228317   2.071   0.260   0.464 -1.7246 -0.4283  0.3675
 5282SOL     OW28318   1.977   3.805   8.479 -0.1447 -0.7443 -0.0901
 5282SOL    HW128319   2.073   3.781   8.464 -0.2857 -1.0684 -0.4677
 5282SOL    HW228320   1.971   3.900   8.509  0.1879 -0.2916 -1.4131
 5283SOL     OW28321   8.918   3.387   8.228 -0.8184  0.0947  0.6681
 5283SOL    HW128322   8.948   3.318   8.162 -1.8682  0.1314  0.1489
 5283SOL    HW228323   8.988   3.397   8.298  1.1960  1.4433 -1.4615
 5284SOL     OW28324   7.575   4.102   1.287  0.3011  0.3618 -0.2208
 5284SOL    HW128325   7.516   4.053   1.351  0.4845 -0.7394 -0.8864
 5284SOL    HW228326   7.520   4.137   1.212  0.1866  1.0908  0.1990
 5285SOL     OW28327   3.841   6.110   1.607 -0.1294  0.0231 -0.4264
 5285SOL    HW128328   3.839   6.018   1.648 -0.3324 -0.8267 -2.2898
 5285SOL    HW228329   3.774   6.168   1.653 -0.9811 -1.1639 -0.1444
 5286SOL     OW28330   2.919   8.398   7.482 -0.0212 -0.4251 -0.0656
 5286SOL    HW128331   2.908   8.307   7.522  1.5174  0.2003  1.8861
 5286SOL    HW228332   2.965   8.458   7.548  1.2846  1.0688 -2.2734
 5287SOL     OW28333   0.844   6.462   7.278  0.3195 -0.1165  0.5985
 5287SOL    HW128334   0.892   6.485   7.363  0.2556 -0.5287  0.7488
 5287SOL    HW228335   0.898   6.493   7.200  0.7526 -0.4363  0.7721
 5288SOL     OW28336   4.714   8.305   2.515 -0.2105  0.7404 -0.5340
 5288SOL    HW128337   4.737   8.228   2.455 -3.1144 -0.4173 -0.2106
 5288SOL    HW228338   4.670   8.377   2.462  0.7209  1.3764 -0.4647
 5289SOL     OW28339   3.266   3.457   1.728  0.4505  0.4562  0.6016
 5289SOL    HW128340   3.296   3.520   1.799 -0.0997  1.3228  0.0798
 5289SOL    HW228341   3.233   3.509   1.649 -2.7775 -0.4345  1.2786
 5290SOL     OW28342   1.794   8.880   8.716  0.0692 -0.3857  0.2036
 5290SOL    HW128343   1.812   8.909   8.622  1.6513  0.8689  0.8641
 5290SOL    HW228344   1.713   8.927   8.750  1.5256  1.8743  0.6276
 5291SOL     OW28345   5.964   3.234   2.859 -0.2889  0.3417  0.3480
 5291SOL    HW128346   5.987   3.316   2.807  2.9539  0.0229  1.1533
 5291SOL    HW228347   5.946   3.259   2.955  1.0423  0.0938  0.6704
 5292SOL     OW28348   6.482   2.459   2.631  0.7859  0.6596  0.1597
 5292SOL    HW128349   6.435   2.526   2.688  1.1057 -1.5724  3.1891
 5292SOL    HW228350   6.574   2.491   2.610 -0.0838  2.4941 -1.0614
 5293SOL     OW28351   0.028   6.922   1.060  0.5164  0.2174  0.1328
 5293SOL    HW128352  -0.007   6.998   1.115 -0.6005  1.3607 -2.0916
 5293SOL    HW228353   0.025   6.838   1.114 -1.5292  1.1037  1.4739
 5294SOL     OW28354   4.553   4.356   1.593 -0.1078  0.0837 -0.0142
 5294SOL    HW128355   4.530   4.360   1.690  1.1345  2.2668  0.2388
 5294SOL    HW228356   4.587   4.265   1.570  0.6449 -0.1342  1.8731
 5295SOL     OW28357   0.575   7.865   4.113 -0.1412  0.2801  0.5731
 5295SOL    HW128358   0.559   7.774   4.151 -0.4197  0.0257 -0.1401
 5295SOL    HW228359   0.667   7.871   4.076 -0.9008 -0.5118 -1.5503
 5296SOL     OW28360   7.624   1.377   7.128  0.4388 -0.0781  0.2608
 5296SOL    HW128361   7.672   1.298   7.088  0.1037 -0.0609 -0.1836
 5296SOL    HW228362   7.569   1.421   7.057 -1.9465 -1.3899  1.2107
 5297SOL     OW28363   4.722   0.579   7.441 -0.1696  0.1171 -0.1252
 5297SOL    HW128364   4.710   0.660   7.499  0.0104  0.2155 -0.2248
 5297SOL    HW228365   4.746   0.608   7.349  0.6810 -0.0700  0.0336
 5298SOL     OW28366   7.241   1.412   0.066  0.4686 -0.0750  0.2413
 5298SOL    HW128367   7.208   1.457  -0.017 -1.3215  0.3815  1.1900
 5298SOL    HW228368   7.314   1.467   0.107  1.1131 -0.1244 -0.8128
 5299SOL     OW28369   8.713   7.766   8.634  0.5294  0.0424 -0.2650
 5299SOL    HW128370   8.621   7.797   8.610  1.0809 -0.4996 -3.2559
 5299SOL    HW228371   8.759   7.837   8.688 -0.7884  1.3331 -0.8255
 5300SOL     OW28372   4.737   1.815   7.558 -0.0582  0.4115 -0.0547
 5300SOL    HW128373   4.784   1.895   7.521 -1.6088  1.0109 -0.7718
 5300SOL    HW228374   4.670   1.844   7.627  1.4367 -0.5347  1.8340
 5301SOL     OW28375   1.246   5.716   0.949  0.2692 -0.1879 -0.5507
 5301SOL    HW128376   1.343   5.698   0.935  0.4962  0.8926 -0.4040
 5301SOL    HW228377   1.234   5.804   0.995 -0.7754 -0.3672 -0.4522
 5302SOL     OW28378   2.328   2.583   7.201 -0.0496  0.4573  0.2215
 5302SOL    HW128379   2.307   2.617   7.292  1.1025 -1.1432  1.1117
 5302SOL    HW228380   2.275   2.500   7.183 -0.0371  0.5883 -0.4374
 5303SOL     OW28381   3.793   7.920   2.289  0.2890  0.6484 -0.1319
 5303SOL    HW128382   3.693   7.925   2.277  0.3169 -1.5085 -1.5224
 5303SOL    HW228383   3.836   7.994   2.237 -0.3454 -1.3265 -3.6559
 5304SOL     OW28384   5.678   0.529   0.779  0.1465  0.7130 -0.8683
 5304SOL    HW128385   5.611   0.597   0.749 -0.5969  0.5237  0.3282
 5304SOL    HW228386   5.646   0.486   0.864  2.5607  1.8408  0.6712
 5305SOL     OW28387   3.326   3.761   5.461 -0.1449  0.7788  0.7238
 5305SOL    HW128388   3.378   3.823   5.402 -0.9570  0.3213 -0.4859
 5305SOL    HW228389   3.277   3.815   5.530 -0.6295  1.4827 -0.1458
 5306SOL     OW28390   1.798   5.954   7.605 -0.1503  0.1022  0.3150
 5306SOL    HW128391   1.871   5.890   7.629 -0.3648 -0.3014 -0.1059
 5306SOL    HW228392   1.814   5.989   7.513 -0.9714 -0.6611 -0.1158
 5307SOL     OW28393   1.487   0.744   0.321  0.3625  0.0996  0.5307
 5307SOL    HW128394   1.530   0.832   0.297  0.2840 -0.3153 -1.1850
 5307SOL    HW228395   1.416   0.760   0.389 -0.3152  1.5100 -0.4855
 5308SOL     OW28396   6.760   3.222   1.256  0.4174  0.1681 -0.7730
 5308SOL    HW128397   6.660   3.216   1.261  0.2153  3.4263  0.7084
 5308SOL    HW228398   6.797   3.237   1.347  2.2440 -0.6285 -1.3664
 5309SOL     OW28399   7.929   3.279   3.903  0.6986 -0.0624  0.0533
 5309SOL    HW128400   7.836   3.242   3.909  0.9804 -0.7138  0.4759
 5309SOL    HW228401   7.959   3.310   3.994  1.1855 -0.5825  0.0746
 5310SOL     OW28402   1.306   5.100   4.471 -0.4714  0.1677  0.4387
 5310SOL    HW128403   1.288   5.002   4.477  0.9941 -0.0203  1.9859
 5310SOL    HW228404   1.343   5.121   4.380  0.6148 -0.9572  0.6040
 5311SOL     OW28405   5.431   5.650   5.020 -0.0311 -0.1043  0.3812
 5311SOL    HW128406   5.375   5.595   4.958 -1.3060  1.9529 -0.3753
 5311SOL    HW228407   5.477   5.722   4.967 -0.6271  1.2878  1.7097
 5312SOL     OW28408   2.754   4.848   3.947  0.2211  0.1796 -0.1861
 5312SOL    HW128409   2.714   4.774   4.001  0.2055 -0.3608 -0.9274
 5312SOL    HW228410   2.823   4.811   3.885  0.1980  0.7807 -0.5818
 5313SOL     OW28411   2.711   8.056   1.608 -0.0428 -0.0603 -0.5969
 5313SOL    HW128412   2.784   8.050   1.540  2.7760 -1.0362  2.3502
 5313SOL    HW228413   2.647   7.980   1.596  2.4750 -2.3491  0.0630
 5314SOL     OW28414   3.737   5.601   0.257  0.3124  0.0594 -0.0376
 5314SOL    HW128415   3.800   5.554   0.319 -0.9888 -1.7413 -0.0128
 5314SOL    HW228416   3.686   5.532   0.205 -0.3705  1.5187 -1.3167
 5315SOL     OW28417   5.318   1.228   1.105  0.1538  0.0555  0.7301
 5315SOL    HW128418   5.254   1.260   1.035  1.3610 -2.7878 -1.7796
 5315SOL    HW228419   5.394   1.293   1.112 -0.7068  1.1197  0.4972
 5316SOL     OW28420   0.760   5.833   4.769  0.1359 -0.0441  0.5534
 5316SOL    HW128421   0.684   5.889   4.737  0.1883  0.5204  1.4112
 5316SOL    HW228422   0.800   5.874   4.851  1.3064 -0.3852  0.1673
 5317SOL     OW28423   7.732   2.782   2.799 -0.2882  0.1875 -0.4100
 5317SOL    HW128424   7.636   2.772   2.771  0.1698 -0.2667 -1.8559
 5317SOL    HW228425   7.792   2.755   2.724  0.9869  0.5265  0.4628
 5318SOL     OW28426   0.184   4.076   5.418 -0.4190  0.1412  0.1891
 5318SOL    HW128427   0.210   3.980   5.412  0.6309  0.3904  0.6465
 5318SOL    HW228428   0.249   4.132   5.367 -1.2886  0.5629 -0.4591
 5319SOL     OW28429   3.280   5.030   7.223  0.1464 -0.0535 -0.2230
 5319SOL    HW128430   3.312   5.058   7.314  1.0491 -1.5023 -0.0735
 5319SOL    HW228431   3.354   4.984   7.174 -1.1615 -1.8704 -0.5580
 5320SOL     OW28432   2.932   8.254   7.833 -0.0942 -0.2206  0.1425
 5320SOL    HW128433   2.893   8.194   7.903 -0.2431 -0.7916 -0.4243
 5320SOL    HW228434   3.020   8.289   7.865 -1.2423  1.4226  1.6197
 5321SOL     OW28435   6.660   7.026   6.147 -0.0895 -0.7642  0.5641
 5321SOL    HW128436   6.684   7.117   6.113  0.4075 -1.3598 -0.7112
 5321SOL    HW228437   6.561   7.013   6.140  0.2848 -1.9863 -3.5755
 5322SOL     OW28438   0.490   7.324   0.302  0.4947  0.4866 -0.2433
 5322SOL    HW128439   0.518   7.420   0.308  1.2473  0.1074  3.3756
 5322SOL    HW228440   0.391   7.317   0.318  0.3796  0.6790 -0.8562
 5323SOL     OW28441   8.356   7.533   1.264  0.0842  0.3128  0.1918
 5323SOL    HW128442   8.300   7.539   1.347  0.9007  0.8568  0.7137
 5323SOL    HW228443   8.378   7.626   1.233  1.4651  0.1075  0.5273
 5324SOL     OW28444   6.101   5.401   6.494 -0.2951 -0.6638 -0.1640
 5324SOL    HW128445   6.038   5.323   6.496 -1.1914  0.0740  0.8845
 5324SOL    HW228446   6.055   5.480   6.454  0.5400 -0.5898 -1.0121
 5325SOL     OW28447   6.275   1.188   1.005  0.1107 -0.3170  0.0687
 5325SOL    HW128448   6.310   1.094   1.007  0.7856 -0.0657  0.3146
 5325SOL    HW228449   6.330   1.242   0.941 -0.6785 -0.2443 -0.5501
 5326SOL     OW28450   2.839   6.386   6.008 -0.1709  0.6799 -0.1780
 5326SOL    HW128451   2.791   6.445   5.943  1.9415  0.2243 -2.2230
 5326SOL    HW228452   2.888   6.315   5.958  0.9532 -0.1045  1.9772
 5327SOL     OW28453   6.392   1.288   1.837  0.4348 -0.7141  0.2293
 5327SOL    HW128454   6.409   1.254   1.745  1.0666  0.9736 -0.2947
 5327SOL    HW228455   6.363   1.383   1.833  0.2972 -0.6752  1.7701
 5328SOL     OW28456   2.963   3.765   0.645  0.2586 -0.1719  0.2063
 5328SOL    HW128457   3.048   3.807   0.675  1.0274 -1.3770 -0.2546
 5328SOL    HW228458   2.959   3.671   0.678  0.0995 -0.8187 -1.6023
 5329SOL     OW28459   3.245   3.642   5.805  0.5410 -0.2932 -0.1761
 5329SOL    HW128460   3.247   3.545   5.779  3.4589 -0.3746  0.2010
 5329SOL    HW228461   3.173   3.656   5.873 -1.9984 -1.5568 -2.5141
 5330SOL     OW28462   8.002   2.482   1.839 -0.5252 -0.2298 -0.3523
 5330SOL    HW128463   8.043   2.413   1.779  1.4093 -0.1700  0.8475
 5330SOL    HW228464   7.997   2.446   1.932  2.5863  1.9559  0.7616
 5331SOL     OW28465   7.557   0.394   8.065 -0.3210 -0.0043  0.1403
 5331SOL    HW128466   7.553   0.294   8.059  1.5036 -0.0646 -0.3632
 5331SOL    HW228467   7.482   0.434   8.012 -0.5930 -1.0902 -0.3050
 5332SOL     OW28468   8.509   5.033   7.321 -0.2711  0.2449 -0.1425
 5332SOL    HW128469   8.485   5.077   7.234 -2.2859 -1.3256 -0.4124
 5332SOL    HW228470   8.477   5.090   7.397 -2.9494 -0.7229 -0.4877
 5333SOL     OW28471   4.722   5.443   2.269  0.1279 -0.8265  0.2531
 5333SOL    HW128472   4.820   5.465   2.271 -0.3091  1.2973 -0.3569
 5333SOL    HW228473   4.681   5.461   2.358  0.0454 -0.4703  0.1449
 5334SOL     OW28474   0.398   3.180   5.521 -0.3374  0.1571 -0.1252
 5334SOL    HW128475   0.483   3.148   5.563 -1.0092  1.1850  2.0532
 5334SOL    HW228476   0.396   3.151   5.425  0.9691 -2.7162  0.6550
 5335SOL     OW28477   4.326   2.884   6.702 -0.1862  0.3439 -0.3015
 5335SOL    HW128478   4.231   2.883   6.735  0.0284  0.3523  0.3142
 5335SOL    HW228479   4.360   2.790   6.698 -0.9892  0.1275 -2.7545
 5336SOL     OW28480   2.038   6.215   2.288 -0.2296  0.2747 -0.5583
 5336SOL    HW128481   1.987   6.150   2.345  0.0984  1.8331  1.6001
 5336SOL    HW228482   2.133   6.185   2.278 -0.4349 -0.3009 -0.7599
 5337SOL     OW28483   7.560   3.708   8.888 -0.4630  0.5730 -0.2691
 5337SOL    HW128484   7.534   3.757   8.805 -1.7019  1.2595  0.5040
 5337SOL    HW228485   7.614   3.769   8.946 -0.5015  0.4397 -0.0940
 5338SOL     OW28486   3.500   5.147   8.554 -0.3978 -0.5863 -0.4014
 5338SOL    HW128487   3.535   5.102   8.636  2.2197  0.1453 -1.0768
 5338SOL    HW228488   3.484   5.244   8.573 -1.4498 -0.7824 -0.2767
 5339SOL     OW28489   5.226   3.634   0.765 -0.1373 -0.2285 -0.0393
 5339SOL    HW128490   5.230   3.605   0.669  1.7884 -1.3983  0.3666
 5339SOL    HW228491   5.312   3.612   0.811 -1.3181 -0.4386  2.1788
 5340SOL     OW28492   0.064   3.743   0.019  0.3468  0.0220  0.1048
 5340SOL    HW128493   0.014   3.668   0.061  2.6892 -0.2903  2.4432
 5340SOL    HW228494   0.162   3.732   0.036  1.0120  1.9732 -2.1571
 5341SOL     OW28495   7.331   7.743   6.056  0.5088 -0.4482 -0.0154
 5341SOL    HW128496   7.352   7.802   5.977  0.2097  0.7841  0.8158
 5341SOL    HW228497   7.279   7.795   6.123 -0.6803 -1.9770  0.2665
 5342SOL     OW28498   2.296   3.076   1.433 -0.6140  0.5787 -0.1206
 5342SOL    HW128499   2.221   3.037   1.486 -1.0813  2.8949  0.9880
 5342SOL    HW228500   2.258   3.128   1.356  0.0435 -2.4222 -2.5401
 5343SOL     OW28501   7.325   4.467   7.605  0.1834 -0.4802 -0.4156
 5343SOL    HW128502   7.238   4.429   7.635 -0.3444  0.9219 -0.1388
 5343SOL    HW228503   7.337   4.558   7.645  1.8458 -0.7288 -0.3295
 5344SOL     OW28504   6.612   7.598   6.555  0.0229 -0.1573 -0.2785
 5344SOL    HW128505   6.701   7.562   6.583  0.5357  1.3698  0.1487
 5344SOL    HW228506   6.569   7.645   6.633  0.0388  1.3814 -1.1687
 5345SOL     OW28507   3.339   8.524   2.126 -0.3783  0.1249  0.1471
 5345SOL    HW128508   3.289   8.446   2.164 -1.8237  1.6336  1.4309
 5345SOL    HW228509   3.310   8.608   2.172  2.6529  1.1824  0.2251
 5346SOL     OW28510   4.102   1.890   4.328 -0.2900 -0.6175 -0.0600
 5346SOL    HW128511   4.162   1.941   4.389 -0.5587 -0.0733 -0.2531
 5346SOL    HW228512   4.056   1.817   4.379 -0.5573 -0.1265  0.3996
 5347SOL     OW28513   1.478   1.382   0.962 -0.0426  0.3791 -0.0314
 5347SOL    HW128514   1.389   1.423   0.943  0.8563  1.7629 -1.3397
 5347SOL    HW228515   1.506   1.404   1.056 -0.1018  1.7655 -0.3315
 5348SOL     OW28516   1.275   4.308   0.683 -0.3836 -0.0327 -0.1871
 5348SOL    HW128517   1.217   4.311   0.764 -0.4538  0.9366 -0.2769
 5348SOL    HW228518   1.276   4.397   0.639 -0.0283 -0.4534 -1.0360
 5349SOL     OW28519   3.193   2.951   8.780 -0.0587 -0.3585 -0.1669
 5349SOL    HW128520   3.111   2.953   8.722 -0.3290  0.9133  0.2549
 5349SOL    HW228521   3.223   2.856   8.790  0.1301 -0.5934 -2.5839
 5350SOL     OW28522   8.349   8.913   7.416 -0.0611 -0.2437 -0.3858
 5350SOL    HW128523   8.286   8.943   7.488  0.0850  0.3177 -0.4880
 5350SOL    HW228524   8.345   8.978   7.340  0.4330 -0.3640 -0.5135
 5351SOL     OW28525   0.810   5.408   2.574 -0.3844 -0.1970  0.0666
 5351SOL    HW128526   0.763   5.354   2.504 -1.1039  0.9466 -0.3632
 5351SOL    HW228527   0.764   5.497   2.584  1.7770  1.0296 -0.4797
 5352SOL     OW28528   7.338   4.883   3.288  0.0889  0.3603  0.5000
 5352SOL    HW128529   7.391   4.963   3.261 -2.0623  1.0779 -1.7507
 5352SOL    HW228530   7.328   4.821   3.211 -1.7173 -0.1025  1.0786
 5353SOL     OW28531   6.711   7.398   0.538 -0.8080  0.8440 -0.6830
 5353SOL    HW128532   6.745   7.379   0.630 -0.7315 -0.1405 -0.9068
 5353SOL    HW228533   6.673   7.314   0.499 -1.0817  1.3226 -1.4437
 5354SOL     OW28534   0.188   7.312   0.329  0.0321  0.1448 -0.2401
 5354SOL    HW128535   0.142   7.226   0.306  0.6668 -0.5275  0.9855
 5354SOL    HW228536   0.120   7.384   0.339 -0.5257 -0.2524 -1.0608
 5355SOL     OW28537   6.374   3.583   8.671  0.0326 -0.4957  0.0624
 5355SOL    HW128538   6.310   3.659   8.678 -0.4248 -0.9392  0.6842
 5355SOL    HW228539   6.439   3.601   8.597 -1.0302 -0.2093 -0.8088
 5356SOL     OW28540   5.314   2.350   5.732  0.1510 -0.0988  0.2032
 5356SOL    HW128541   5.365   2.379   5.813 -1.4414  0.6589  0.9495
 5356SOL    HW228542   5.285   2.430   5.679 -0.4346 -0.5077 -0.1063
 5357SOL     OW28543   4.566   5.053   5.670 -1.1242 -0.0306 -0.0761
 5357SOL    HW128544   4.585   4.955   5.674 -0.0856  0.1596 -0.1902
 5357SOL    HW228545   4.639   5.099   5.619 -1.1255  0.9136  0.7466
 5358SOL     OW28546   5.361   4.827   1.407 -0.6285 -0.3079  0.1901
 5358SOL    HW128547   5.363   4.736   1.365 -0.1787 -0.7079  1.0420
 5358SOL    HW228548   5.369   4.897   1.337  0.4018 -0.9668 -0.3689
 5359SOL     OW28549   8.976   2.181   7.405  0.0450  0.1031  0.5176
 5359SOL    HW128550   8.935   2.141   7.324  0.6530  0.9441 -0.2175
 5359SOL    HW228551   8.922   2.157   7.486 -0.8512 -0.3050 -0.1999
 5360SOL     OW28552   6.077   3.889   6.495  0.3076  0.4112 -0.2237
 5360SOL    HW128553   6.086   3.909   6.398  0.6444  1.0730 -0.0600
 5360SOL    HW228554   6.070   3.790   6.508  2.7778  0.1493 -0.7211
 5361SOL     OW28555   3.761   4.595   4.661 -0.1983 -0.5367  0.9703
 5361SOL    HW128556   3.745   4.496   4.666 -1.9564 -0.2892  0.7017
 5361SOL    HW228557   3.851   4.616   4.699  1.0169 -2.4343 -0.7198
 5362SOL     OW28558   5.136   4.597   3.489  0.2826  0.7391  0.0839
 5362SOL    HW128559   5.115   4.532   3.562 -1.2118  2.8420  1.6249
 5362SOL    HW228560   5.107   4.559   3.401 -0.2399 -0.8159  0.9083
 5363SOL     OW28561   4.341   0.963   2.077  0.4648  0.5344  0.1352
 5363SOL    HW128562   4.362   0.994   2.170  0.1764 -0.8681  0.6836
 5363SOL    HW228563   4.242   0.971   2.061  0.2778 -0.8219  0.5629
 5364SOL     OW28564   7.766   7.339   7.061 -0.5875 -0.0733 -0.1324
 5364SOL    HW128565   7.835   7.392   7.111 -1.9766  1.0993  0.5934
 5364SOL    HW228566   7.797   7.322   6.968 -0.2355  2.3374 -0.4764
 5365SOL     OW28567   0.728   5.165   6.074  0.3706 -0.1149  0.0154
 5365SOL    HW128568   0.741   5.154   6.172 -0.1812  1.7483  0.3142
 5365SOL    HW228569   0.631   5.159   6.051  0.4613 -0.1880 -0.3580
 5366SOL     OW28570   5.633   4.013   6.235 -0.0346 -0.1343 -0.0730
 5366SOL    HW128571   5.648   4.035   6.331 -0.5643 -1.0135  0.2191
 5366SOL    HW228572   5.604   3.917   6.227  0.6396 -0.2555 -1.1665
 5367SOL     OW28573   5.638   3.210   7.383 -0.0247 -0.0128 -0.5445
 5367SOL    HW128574   5.638   3.293   7.327  2.1951  0.3513 -0.0678
 5367SOL    HW228575   5.550   3.201   7.429 -0.7043  1.4482 -1.5086
 5368SOL     OW28576   5.339   3.238   8.589  0.1188  0.8762  0.1127
 5368SOL    HW128577   5.300   3.221   8.680 -1.1576 -0.4198 -0.6489
 5368SOL    HW228578   5.266   3.267   8.527  0.7550  0.4790 -0.8253
 5369SOL     OW28579   5.742   6.377   4.604  0.2551 -0.2576 -0.4058
 5369SOL    HW128580   5.741   6.310   4.678  0.8700  0.6200  0.4086
 5369SOL    HW228581   5.672   6.447   4.623  1.8649  1.1486  0.4687
 5370SOL     OW28582   6.705   5.183   5.402 -0.3668 -0.5032  0.4410
 5370SOL    HW128583   6.766   5.222   5.471  0.4079  0.2655 -0.6520
 5370SOL    HW228584   6.610   5.194   5.432 -0.0920  0.8478  0.8677
 5371SOL     OW28585   6.552   8.023   7.154 -0.2610 -0.1057 -0.0294
 5371SOL    HW128586   6.648   8.000   7.165 -0.1211  0.8219  0.7487
 5371SOL    HW228587   6.529   8.025   7.057  0.2870 -1.2058 -0.1852
 5372SOL     OW28588   5.065   4.058   4.604 -0.2475 -0.1186 -0.2898
 5372SOL    HW128589   5.137   4.122   4.631 -0.2952 -0.1219 -0.1571
 5372SOL    HW228590   5.034   4.079   4.511  2.3342 -2.2070 -1.7242
 5373SOL     OW28591   5.866   6.624   4.655 -0.1149  0.5232  0.1482
 5373SOL    HW128592   5.843   6.547   4.597 -0.7156  2.0748 -1.7272
 5373SOL    HW228593   5.870   6.594   4.751  1.4539 -2.1895 -0.7117
 5374SOL     OW28594   4.210   3.198   4.963 -0.1791  0.0932  0.3734
 5374SOL    HW128595   4.230   3.280   4.909  0.1814 -0.9765 -1.1488
 5374SOL    HW228596   4.113   3.197   4.989 -0.3005  0.7367 -0.0595
 5375SOL     OW28597   5.522   8.741   7.295 -0.1126  0.3548 -0.4543
 5375SOL    HW128598   5.487   8.834   7.282  1.3771  1.2164  1.4798
 5375SOL    HW228599   5.479   8.700   7.376 -0.8636 -0.6908 -1.3780
 5376SOL     OW28600   8.815   2.282   5.797 -0.4065  0.7270 -0.2123
 5376SOL    HW128601   8.907   2.321   5.786 -0.0445 -0.1564 -0.3471
 5376SOL    HW228602   8.787   2.289   5.893  0.7223 -1.0073  0.2606
 5377SOL     OW28603   6.371   6.537   3.234 -0.1707 -0.0069  0.4659
 5377SOL    HW128604   6.316   6.491   3.304 -0.8698  0.4355  0.2212
 5377SOL    HW228605   6.311   6.594   3.177  0.3246 -0.6737 -0.7478
 5378SOL     OW28606   5.454   0.659   4.464 -0.1165 -0.3494  0.0244
 5378SOL    HW128607   5.430   0.743   4.513 -0.6664 -0.0248 -0.7810
 5378SOL    HW228608   5.434   0.671   4.366  0.8165 -1.0370 -0.2581
 5379SOL     OW28609   8.604   1.519   3.685 -0.3197 -0.6747 -0.9679
 5379SOL    HW128610   8.631   1.468   3.603 -0.1062 -1.1474 -0.6086
 5379SOL    HW228611   8.676   1.512   3.753 -0.3345  0.0398 -0.8789
 5380SOL     OW28612   6.458   0.521   1.571 -0.1258 -0.8108  0.1729
 5380SOL    HW128613   6.418   0.603   1.529 -0.7456 -0.5131  1.2950
 5380SOL    HW228614   6.555   0.537   1.589 -0.4130 -0.0283  1.0665
 5381SOL     OW28615   1.715   2.658   4.444 -0.5635  0.0042  0.2228
 5381SOL    HW128616   1.770   2.698   4.371  0.4563  1.1195  1.5744
 5381SOL    HW228617   1.639   2.607   4.405  0.8281 -0.6636 -1.6426
 5382SOL     OW28618   4.802   3.268   6.052 -0.4112 -0.4946  0.4920
 5382SOL    HW128619   4.733   3.317   5.999  0.2035 -0.7877 -0.6001
 5382SOL    HW228620   4.892   3.308   6.035 -0.1435 -0.8968  0.9420
 5383SOL     OW28621   8.089   8.172   0.878 -0.1304 -0.4171 -0.3747
 5383SOL    HW128622   8.167   8.215   0.832  0.1476 -0.3718  0.1284
 5383SOL    HW228623   8.095   8.073   0.868  0.4617 -0.4671  0.3817
 5384SOL     OW28624   6.205   6.626   3.605  0.3244 -0.4771  0.2555
 5384SOL    HW128625   6.301   6.612   3.580  0.5814  1.9951 -0.2292
 5384SOL    HW228626   6.160   6.684   3.537 -1.4945 -1.5001  0.5426
 5385SOL     OW28627   4.301   1.205   3.184 -0.3265  0.2841 -1.2001
 5385SOL    HW128628   4.371   1.275   3.199 -1.4660  1.4326 -1.2131
 5385SOL    HW228629   4.276   1.203   3.087  0.6600 -1.0787 -1.4493
 5386SOL     OW28630   2.798   7.166   4.362  0.0346  0.1168 -0.7235
 5386SOL    HW128631   2.861   7.088   4.364 -0.5195 -0.3159  1.0103
 5386SOL    HW228632   2.815   7.224   4.442 -1.5615  0.1709 -0.4248
 5387SOL     OW28633   4.695   1.652   0.965  0.1604 -0.4748 -0.1132
 5387SOL    HW128634   4.606   1.643   0.919  0.2252 -0.7153 -0.1944
 5387SOL    HW228635   4.681   1.654   1.064 -0.0580  0.9642 -0.1610
 5388SOL     OW28636   1.720   1.543   3.117  0.3394 -0.7451  0.1367
 5388SOL    HW128637   1.701   1.455   3.161 -0.7679 -1.5982 -2.0168
 5388SOL    HW228638   1.645   1.606   3.137  0.0307 -1.0044 -0.1990
 5389SOL     OW28639   6.869   1.713   2.932 -0.2092  0.2660 -0.2395
 5389SOL    HW128640   6.887   1.772   3.010 -1.0344 -1.5655  1.4012
 5389SOL    HW228641   6.781   1.737   2.891 -1.3111 -0.7961  1.4191
 5390SOL     OW28642   7.815   3.463   5.350  0.2442 -0.3887  0.1384
 5390SOL    HW128643   7.863   3.544   5.383 -0.3264  1.2246 -2.7864
 5390SOL    HW228644   7.717   3.472   5.369  0.1728 -0.3612 -0.2447
 5391SOL     OW28645   1.985   4.951   7.418 -0.0889 -0.7503  0.0202
 5391SOL    HW128646   1.993   4.874   7.480  2.3476 -0.3000  0.3016
 5391SOL    HW228647   1.901   5.002   7.438 -0.4973 -1.9482  1.3771
 5392SOL     OW28648   3.517   1.054   6.605 -0.0969 -0.3199 -0.7071
 5392SOL    HW128649   3.557   1.026   6.517 -0.7207 -3.8117  0.0318
 5392SOL    HW228650   3.589   1.074   6.670  0.3755  1.4056 -1.7388
 5393SOL     OW28651   1.853   1.770   2.623  0.2741  0.1026  0.1887
 5393SOL    HW128652   1.877   1.698   2.689  0.3729 -1.9438 -1.9848
 5393SOL    HW228653   1.760   1.755   2.590  0.9893 -0.2443 -1.7568
 5394SOL     OW28654   1.049   4.569   5.983  0.1111  1.0597 -0.6033
 5394SOL    HW128655   1.075   4.658   6.020 -0.2451  0.9045  0.0338
 5394SOL    HW228656   1.092   4.496   6.037  0.2765  0.8425 -1.0233
 5395SOL     OW28657   1.280   4.791   2.477  0.2191 -0.1821 -0.0837
 5395SOL    HW128658   1.213   4.847   2.429 -0.9320 -2.7237 -1.6006
 5395SOL    HW228659   1.346   4.755   2.410  0.5570 -1.1133  0.7396
 5396SOL     OW28660   4.378   6.555   7.558  0.0371  0.0011  0.2428
 5396SOL    HW128661   4.451   6.594   7.613  0.0133  1.5560 -0.8121
 5396SOL    HW228662   4.309   6.624   7.539 -0.9621 -1.0564 -0.0438
 5397SOL     OW28663   5.689   8.465   7.825  0.4763 -0.0484 -0.0302
 5397SOL    HW128664   5.778   8.457   7.780  0.0959  0.7777 -0.9214
 5397SOL    HW228665   5.703   8.476   7.924  1.4044  1.0689 -0.2712
 5398SOL     OW28666   5.800   5.881   7.261  0.5397  0.6352  0.3901
 5398SOL    HW128667   5.843   5.944   7.196 -0.2608  0.4386 -0.3544
 5398SOL    HW228668   5.733   5.932   7.316 -1.5256  0.1179 -1.5372
 5399SOL     OW28669   5.971   4.317   7.358 -0.4672 -0.5739 -0.2779
 5399SOL    HW128670   5.971   4.402   7.305 -0.8232 -0.9547 -0.8915
 5399SOL    HW228671   5.973   4.339   7.455 -1.4804  0.1492 -0.4122
 5400SOL     OW28672   6.689   5.639   1.707 -0.3495 -0.8747  0.0438
 5400SOL    HW128673   6.625   5.690   1.650  0.8556 -1.0390 -1.5120
 5400SOL    HW228674   6.753   5.703   1.750  0.6515 -0.9934 -1.2527
 5401SOL     OW28675   1.264   6.300   1.775  0.1724 -0.0597  0.0717
 5401SOL    HW128676   1.356   6.317   1.811  0.5376 -0.6578 -0.5804
 5401SOL    HW228677   1.229   6.384   1.733  0.0059  0.4604  1.2130
 5402SOL     OW28678   8.206   4.092   7.494 -0.2395 -0.5812  0.2783
 5402SOL    HW128679   8.126   4.041   7.462  0.3126 -0.6791 -0.9474
 5402SOL    HW228680   8.186   4.190   7.492 -0.6114 -0.6421  0.7692
 5403SOL     OW28681   0.514   8.541   8.914 -0.1573 -0.4201  0.5418
 5403SOL    HW128682   0.587   8.600   8.950 -1.4907  2.1652 -0.8499
 5403SOL    HW228683   0.471   8.586   8.836 -2.4431 -2.4747  0.5729
 5404SOL     OW28684   2.162   4.187   1.503 -0.1482  0.1915 -0.0071
 5404SOL    HW128685   2.157   4.087   1.508 -1.3315  0.3311  1.8177
 5404SOL    HW228686   2.167   4.226   1.595 -0.6068  1.8563 -0.6599
 5405SOL     OW28687   1.217   4.098   6.339  1.0610  0.4719 -0.0900
 5405SOL    HW128688   1.181   4.139   6.422  0.4948  0.9590 -0.5692
 5405SOL    HW228689   1.307   4.059   6.357  0.7188  0.1224  0.8730
 5406SOL     OW28690   6.836   4.798   3.094 -0.3191 -0.5302  0.6739
 5406SOL    HW128691   6.781   4.863   3.146 -1.0651 -0.0857 -0.6304
 5406SOL    HW228692   6.917   4.773   3.146 -0.5035  0.7283  1.5877
 5407SOL     OW28693   2.309   3.075   5.316  0.3603 -0.0395 -0.5916
 5407SOL    HW128694   2.240   3.096   5.386 -1.1094  0.8982 -2.2618
 5407SOL    HW228695   2.372   3.152   5.307  1.0131 -0.4839  0.2566
 5408SOL     OW28696   8.181   4.885   1.587 -0.2111  0.4441  0.2765
 5408SOL    HW128697   8.218   4.978   1.589  0.8834  0.0042  0.9075
 5408SOL    HW228698   8.241   4.824   1.638 -0.1030 -0.9125 -1.4078
 5409SOL     OW28699   0.353   1.359   0.266  0.2246 -0.5212 -0.5175
 5409SOL    HW128700   0.358   1.371   0.365  0.5560 -2.2769 -0.3015
 5409SOL    HW228701   0.258   1.368   0.236 -0.1111 -1.6510  0.1929
 5410SOL     OW28702   3.674   5.016   2.511 -0.4104 -0.4115  0.0375
 5410SOL    HW128703   3.753   4.963   2.481 -0.7927 -0.7471 -0.4062
 5410SOL    HW228704   3.615   4.958   2.567 -0.9533 -0.5390 -0.6539
 5411SOL     OW28705   8.990   0.824   5.660 -0.2908  0.3772  0.8198
 5411SOL    HW128706   8.931   0.784   5.591 -1.1014  1.4252  0.8885
 5411SOL    HW228707   9.082   0.836   5.623 -0.8634  1.4706 -0.2765
 5412SOL     OW28708   3.881   7.113   3.607 -0.7630  0.5482 -0.2344
 5412SOL    HW128709   3.897   7.196   3.660 -2.7026  0.3989  0.6293
 5412SOL    HW228710   3.898   7.131   3.510  0.2684  1.5301  0.1193
 5413SOL     OW28711   5.847   0.418   6.829  0.0007  0.6213 -0.5580
 5413SOL    HW128712   5.758   0.391   6.863  0.4916  0.1418  0.3706
 5413SOL    HW228713   5.894   0.339   6.789  0.6094  0.5231  0.3199
 5414SOL     OW28714   4.500   5.794   6.686  0.3697 -0.1482 -0.1222
 5414SOL    HW128715   4.411   5.817   6.723  0.4665  1.2493 -0.7344
 5414SOL    HW228716   4.571   5.816   6.752  0.4378  1.0118 -0.5792
 5415SOL     OW28717   0.856   7.212   5.853 -0.2301  0.0146 -1.2777
 5415SOL    HW128718   0.834   7.295   5.803  0.2770  0.6198 -0.5076
 5415SOL    HW228719   0.796   7.137   5.823 -1.9035  1.1021 -0.6915
 5416SOL     OW28720   2.158   3.291   4.332 -0.0782  0.3873 -0.0808
 5416SOL    HW128721   2.161   3.233   4.413 -0.2815 -0.0993 -0.4200
 5416SOL    HW228722   2.066   3.330   4.322 -0.3169 -0.3115 -0.6083
 5417SOL     OW28723   0.768   2.642   2.490 -0.3977 -0.0257  0.2313
 5417SOL    HW128724   0.738   2.549   2.511 -0.5150  0.3285  1.6818
 5417SOL    HW228725   0.863   2.654   2.519  0.0607 -0.0920 -1.1945
 5418SOL     OW28726   6.649   7.898   0.396 -1.0799 -0.1519  0.1824
 5418SOL    HW128727   6.639   7.827   0.326 -1.2409 -0.8206  0.8822
 5418SOL    HW228728   6.619   7.986   0.358 -0.4830 -0.3714 -0.8228
 5419SOL     OW28729   6.429   6.762   0.755  0.8610  0.1027  0.1503
 5419SOL    HW128730   6.423   6.846   0.701 -0.8335 -1.6959 -2.6282
 5419SOL    HW228731   6.337   6.727   0.773  1.5160 -0.9007  1.7400
 5420SOL     OW28732   0.416   5.046   6.056 -0.1150  0.2882 -0.3334
 5420SOL    HW128733   0.444   4.951   6.067  0.1784  0.2383 -1.4962
 5420SOL    HW228734   0.339   5.065   6.118  0.1639 -0.5509  0.2795
 5421SOL     OW28735   6.371   6.583   2.147 -0.0998  0.0743 -0.1864
 5421SOL    HW128736   6.341   6.557   2.239 -0.5446  0.8466 -0.1010
 5421SOL    HW228737   6.462   6.622   2.151  0.5695 -1.4426 -0.3153
 5422SOL     OW28738   0.724   6.093   5.149  0.0627 -0.6342  0.2043
 5422SOL    HW128739   0.819   6.118   5.168  0.0917 -0.6353  0.0547
 5422SOL    HW228740   0.719   6.042   5.063 -0.4800  2.1207 -1.4608
 5423SOL     OW28741   5.003   7.806   8.365 -0.4200 -0.2121  0.2661
 5423SOL    HW128742   5.099   7.778   8.375 -0.4117 -0.3038 -0.0595
 5423SOL    HW228743   4.953   7.735   8.316 -0.5585  0.0344  0.0532
 5424SOL     OW28744   2.868   7.538   1.039 -0.4527  0.4496 -0.4113
 5424SOL    HW128745   2.796   7.471   1.022 -0.5225  0.3780  0.1407
 5424SOL    HW228746   2.853   7.580   1.128  0.0388  0.6261 -0.4114
 5425SOL     OW28747   0.629   6.045   7.319  0.1385  0.4427 -0.3416
 5425SOL    HW128748   0.616   5.972   7.386  1.1080  0.1889 -0.4202
 5425SOL    HW228749   0.684   6.118   7.360  2.4001 -0.5924 -1.4673
 5426SOL     OW28750   7.852   3.438   8.715 -0.1281 -0.2462  0.6831
 5426SOL    HW128751   7.872   3.526   8.671 -0.0232 -0.2567  0.7117
 5426SOL    HW228752   7.759   3.409   8.689 -0.3709  0.1459  1.1263
 5427SOL     OW28753   8.832   4.751   7.414 -0.3384  0.4209  0.0470
 5427SOL    HW128754   8.818   4.850   7.405 -0.7444  0.2882 -0.8137
 5427SOL    HW228755   8.781   4.718   7.493 -0.2255  0.8951  0.3240
 5428SOL     OW28756   1.898   7.183   2.589 -0.0847 -0.0551 -1.0192
 5428SOL    HW128757   1.821   7.216   2.644  0.6109  0.4375 -0.3331
 5428SOL    HW228758   1.961   7.258   2.571  0.6217 -0.6158 -0.9250
 5429SOL     OW28759   6.379   1.809   7.412 -0.3707  0.1805 -0.6925
 5429SOL    HW128760   6.301   1.777   7.357 -0.4958  0.2575 -0.5605
 5429SOL    HW228761   6.404   1.901   7.382  0.2219 -0.1817 -1.3199
 5430SOL     OW28762   6.993   7.934   8.647 -0.2411 -0.0086  0.1791
 5430SOL    HW128763   7.050   7.996   8.593 -1.5923  0.1663 -1.0724
 5430SOL    HW228764   6.903   7.925   8.604 -0.5608 -1.6847  1.1492
 5431SOL     OW28765   5.876   6.884   4.337 -0.2672  0.0172 -0.4971
 5431SOL    HW128766   5.972   6.905   4.350  0.0739 -1.4959 -0.5488
 5431SOL    HW228767   5.829   6.886   4.426  0.0956 -0.6535 -0.2902
 5432SOL     OW28768   7.601   7.547   4.415  0.5589  0.0541 -0.2660
 5432SOL    HW128769   7.600   7.448   4.405  0.6720 -0.1228  1.2721
 5432SOL    HW228770   7.507   7.582   4.416  0.5460  0.0774 -1.7612
 5433SOL     OW28771   3.784   7.912   2.877  0.3284 -0.4380 -0.4607
 5433SOL    HW128772   3.753   7.910   2.781  1.0837  0.6382 -0.7348
 5433SOL    HW228773   3.704   7.912   2.937 -0.2085  1.1866 -1.1452
 5434SOL     OW28774   5.867   0.750   4.009 -0.3759  0.3225 -0.4067
 5434SOL    HW128775   5.946   0.698   3.977  0.2397  0.9566  0.0600
 5434SOL    HW228776   5.865   0.840   3.964  0.1688  0.9893  0.8772
 5435SOL     OW28777   2.014   3.134   2.004 -0.7291  0.2980  0.0917
 5435SOL    HW128778   2.009   3.059   2.070  0.7683  1.0148  1.0521
 5435SOL    HW228779   1.946   3.204   2.028  0.5228  1.0495  1.5354
 5436SOL     OW28780   2.299   0.406   7.088  0.2647  0.5907 -0.3754
 5436SOL    HW128781   2.215   0.456   7.068 -0.1870  0.1254  0.3313
 5436SOL    HW228782   2.356   0.402   7.006 -0.8154  0.1246 -1.1231
 5437SOL     OW28783   8.921   1.979   7.838  0.5307 -0.0017 -0.2223
 5437SOL    HW128784   8.999   2.012   7.892 -0.2781  1.5531  0.0233
 5437SOL    HW228785   8.911   1.881   7.852 -0.2857  0.4917  3.3548
 5438SOL     OW28786   5.393   3.706   4.246 -0.0041  0.4335  0.2518
 5438SOL    HW128787   5.340   3.732   4.327 -0.9056  0.0127 -0.1893
 5438SOL    HW228788   5.440   3.620   4.262 -0.1458  0.3734  0.3421
 5439SOL     OW28789   7.794   0.844   5.907 -0.2118 -0.7613  0.1377
 5439SOL    HW128790   7.824   0.781   5.835 -0.6792  1.4231 -1.9943
 5439SOL    HW228791   7.870   0.860   5.971  1.1824 -0.2936 -1.6019
 5440SOL     OW28792   1.027   4.351   1.918  0.7166 -0.1192 -0.2464
 5440SOL    HW128793   1.106   4.410   1.900  1.3837 -0.8825  0.1061
 5440SOL    HW228794   1.034   4.314   2.011  0.0814 -0.4036 -0.3112
 5441SOL     OW28795   0.645   4.869   1.174  0.0394 -0.2195  0.0687
 5441SOL    HW128796   0.646   4.820   1.087 -0.7125 -0.5004  0.2193
 5441SOL    HW228797   0.615   4.808   1.247  0.1618  0.1606  0.4417
 5442SOL     OW28798   5.482   1.501   1.202  0.2110  0.2412 -0.0280
 5442SOL    HW128799   5.488   1.467   1.296 -0.5225  1.1306  0.3546
 5442SOL    HW228800   5.564   1.554   1.181  1.5003 -2.0109 -0.7380
 5443SOL     OW28801   4.005   8.724   7.217 -0.5323  0.2087 -0.4978
 5443SOL    HW128802   3.937   8.794   7.235 -0.9379 -0.0421 -1.0428
 5443SOL    HW228803   4.090   8.767   7.186 -1.2607  0.3807 -2.2946
 5444SOL     OW28804   3.066   8.506   8.085 -0.1800 -0.2099 -0.0680
 5444SOL    HW128805   3.114   8.440   8.026 -0.5443  0.7541 -1.4582
 5444SOL    HW228806   3.057   8.467   8.177 -2.7847 -3.2577 -1.5012
 5445SOL     OW28807   2.405   7.644   6.253 -0.5571 -0.7211 -0.2370
 5445SOL    HW128808   2.490   7.609   6.294 -0.5695 -0.3760  0.0828
 5445SOL    HW228809   2.417   7.739   6.225 -1.1105 -0.3891  0.6207
 5446SOL     OW28810   4.560   7.061   5.090 -0.4164 -0.2778  0.3730
 5446SOL    HW128811   4.598   6.969   5.079  0.0716 -0.0949  0.5227
 5446SOL    HW228812   4.550   7.104   5.000  2.1998  0.6644  0.4923
 5447SOL     OW28813   7.740   3.104   0.643  0.1141  0.5293 -0.1072
 5447SOL    HW128814   7.691   3.185   0.673 -1.4989 -0.5552  0.2246
 5447SOL    HW228815   7.697   3.022   0.682  2.3652 -0.4371  0.4802
 5448SOL     OW28816   0.996   1.596   8.349 -0.0661 -0.3048  0.7646
 5448SOL    HW128817   0.912   1.560   8.307 -0.2548  2.5119 -1.4973
 5448SOL    HW228818   0.972   1.650   8.430 -0.6532  1.4534 -0.5227
 5449SOL     OW28819   5.065   6.692   4.335 -0.1654 -0.3046 -0.6751
 5449SOL    HW128820   5.017   6.778   4.317  2.9928  1.6102 -0.3653
 5449SOL    HW228821   5.053   6.666   4.431 -0.5209  0.1796 -0.5864
 5450SOL     OW28822   2.496   3.204   5.739  0.7093 -0.0866 -0.6305
 5450SOL    HW128823   2.457   3.288   5.703 -1.0943  0.1611  1.7838
 5450SOL    HW228824   2.564   3.226   5.810 -0.3838 -0.6583  0.6075
 5451SOL     OW28825   1.497   4.352   8.389  0.4988 -0.6422  0.0183
 5451SOL    HW128826   1.581   4.406   8.381 -0.2790  0.5005 -0.6003
 5451SOL    HW228827   1.434   4.378   8.316 -0.9387 -0.4889  1.2845
 5452SOL     OW28828   8.685   4.529   1.035  0.1710  0.8952 -0.1935
 5452SOL    HW128829   8.730   4.598   0.979 -0.3321  0.4136 -1.1965
 5452SOL    HW228830   8.656   4.569   1.122  3.6123  0.9508  1.0092
 5453SOL     OW28831   7.321   1.501   0.604 -0.0448 -0.0483  0.1840
 5453SOL    HW128832   7.255   1.472   0.673  0.9503  1.0540  1.6443
 5453SOL    HW228833   7.277   1.564   0.540 -0.3669  0.8967  1.3105
 5454SOL     OW28834   6.446   6.921   4.243  0.1574  0.2443 -0.1827
 5454SOL    HW128835   6.491   6.902   4.156  1.4448 -0.9957  0.7319
 5454SOL    HW228836   6.467   7.014   4.272  2.8239 -0.5544  0.5919
 5455SOL     OW28837   7.787   4.765   3.007 -0.4578 -0.3273  0.0311
 5455SOL    HW128838   7.780   4.865   3.006 -2.5319 -0.4575 -1.0769
 5455SOL    HW228839   7.879   4.738   2.977 -0.6436  1.1973 -1.9913
 5456SOL     OW28840   3.547   1.315   3.332 -0.1173  0.2756  0.4159
 5456SOL    HW128841   3.463   1.309   3.386 -0.3182  0.5467  0.1358
 5456SOL    HW228842   3.625   1.328   3.393 -0.3363  0.5267  0.6438
 5457SOL     OW28843   4.716   5.993   0.126 -0.0015  0.0467  0.0020
 5457SOL    HW128844   4.707   6.092   0.116 -0.2195  0.0029 -0.2282
 5457SOL    HW228845   4.803   5.964   0.086  0.2718  0.2015  0.4703
 5458SOL     OW28846   1.420   4.574   7.055 -0.1460  0.6173 -0.2664
 5458SOL    HW128847   1.343   4.571   6.991 -1.0265 -0.3175  0.8004
 5458SOL    HW228848   1.385   4.588   7.148  0.8324 -1.3203  0.4273
 5459SOL     OW28849   8.355   8.375   6.798  0.0084 -0.5567  0.2734
 5459SOL    HW128850   8.287   8.313   6.759  0.0086 -0.6804  0.4698
 5459SOL    HW228851   8.446   8.336   6.786 -0.0387 -0.8607  0.9075
 5460SOL     OW28852   2.972   0.400   5.098  0.7547  0.1257 -0.0222
 5460SOL    HW128853   2.931   0.491   5.086  1.9443  0.5163 -1.3331
 5460SOL    HW228854   2.902   0.330   5.088  0.0269  0.8706 -0.1661
 5461SOL     OW28855   6.083   2.875   2.482 -0.1255 -0.5880  0.0107
 5461SOL    HW128856   5.998   2.906   2.439 -1.3061  0.4287  2.9860
 5461SOL    HW228857   6.087   2.908   2.576  2.8141 -2.0205  0.4382
 5462SOL     OW28858   2.913   2.814   5.718  0.0210 -0.0740 -0.2295
 5462SOL    HW128859   2.915   2.804   5.619  1.1942  2.7178 -0.5466
 5462SOL    HW228860   2.834   2.765   5.756 -0.1465 -1.5780 -2.4574
 5463SOL     OW28861   1.644   8.330   8.803 -0.0096 -0.3190  0.1089
 5463SOL    HW128862   1.718   8.312   8.739  1.9522 -1.5662  2.5995
 5463SOL    HW228863   1.594   8.245   8.821 -0.2345 -0.0897  0.5766
 5464SOL     OW28864   6.536   4.655   0.389 -0.0237  0.1405  0.2073
 5464SOL    HW128865   6.538   4.735   0.449 -0.8554  0.4416 -0.1419
 5464SOL    HW228866   6.623   4.646   0.341 -0.4086  1.7107 -0.8440
 5465SOL     OW28867   2.644   8.083   2.416 -0.1766 -0.4114  0.7090
 5465SOL    HW128868   2.737   8.109   2.444 -0.0726  0.0288 -0.0026
 5465SOL    HW228869   2.598   8.034   2.490  0.2158  0.3870  1.4848
 5466SOL     OW28870   2.484   5.402   2.953 -0.2755 -0.5440  0.1868
 5466SOL    HW128871   2.433   5.468   3.007 -0.9303 -0.6830 -0.2517
 5466SOL    HW228872   2.457   5.309   2.980 -1.1040 -0.6057 -0.8509
 5467SOL     OW28873   1.710   8.006   0.999  0.3473  0.5358  0.2293
 5467SOL    HW128874   1.736   8.012   0.902 -0.6238 -1.5516 -0.1841
 5467SOL    HW228875   1.790   7.980   1.053  0.6391  0.6430 -0.1416
 5468SOL     OW28876   2.897   5.986   6.035  0.6327  0.5640 -0.7031
 5468SOL    HW128877   2.944   5.910   6.078  1.6173  1.2215 -0.6036
 5468SOL    HW228878   2.842   6.035   6.104  0.1031  0.0309 -0.7429
 5469SOL     OW28879   4.433   0.977   7.292  1.0947 -0.0437 -0.2438
 5469SOL    HW128880   4.388   0.893   7.322  0.6460 -0.3177 -1.6434
 5469SOL    HW228881   4.528   0.977   7.323  1.3730 -1.5359 -1.0735
 5470SOL     OW28882   5.711   2.020   8.610  0.1081 -0.3122  0.7955
 5470SOL    HW128883   5.622   2.059   8.634 -0.7844 -0.7534 -1.6518
 5470SOL    HW228884   5.702   1.921   8.599  0.6941 -0.2562 -0.2972
 5471SOL     OW28885   5.135   4.197   6.553  0.0800  0.2122  0.4398
 5471SOL    HW128886   5.116   4.266   6.623 -0.2843 -0.0827  0.6343
 5471SOL    HW228887   5.100   4.229   6.465 -0.9093 -0.1192  0.7050
 5472SOL     OW28888   0.077   3.406   6.467 -0.3334 -1.1681  0.1658
 5472SOL    HW128889  -0.000   3.444   6.416  0.8697  0.6580 -0.3571
 5472SOL    HW228890   0.103   3.468   6.541  1.3845 -1.1658 -0.4116
 5473SOL     OW28891   0.092   2.778   4.729 -0.3802 -0.2193 -0.0463
 5473SOL    HW128892   0.052   2.712   4.793 -0.3771 -0.1854 -0.0087
 5473SOL    HW228893   0.055   2.869   4.747  1.7791  0.3406  1.8555
 5474SOL     OW28894   4.235   5.026   3.389 -0.1364 -1.1152  0.5168
 5474SOL    HW128895   4.169   5.038   3.464  0.8015 -2.1713  1.5261
 5474SOL    HW228896   4.325   5.056   3.420  0.1179 -0.8717 -0.4489
 5475SOL     OW28897   6.088   3.936   4.522  0.2552 -0.0826  0.2503
 5475SOL    HW128898   6.096   4.034   4.501 -1.2398  0.4750  2.1248
 5475SOL    HW228899   6.044   3.889   4.446  2.5996  0.3370 -1.4576
 5476SOL     OW28900   5.151   4.138   2.759 -0.2678  0.2147  0.0114
 5476SOL    HW128901   5.080   4.205   2.737 -0.9515 -0.2343  0.8330
 5476SOL    HW228902   5.216   4.179   2.824 -1.2703 -0.2681  1.3199
 5477SOL     OW28903   1.627   4.705   2.577  0.1564  0.0001  0.2798
 5477SOL    HW128904   1.700   4.699   2.645 -0.9556 -2.2285  1.3390
 5477SOL    HW228905   1.587   4.614   2.563 -1.4940  0.9328 -1.2873
 5478SOL     OW28906   4.257   7.016   3.259  0.3269  0.1169 -0.3019
 5478SOL    HW128907   4.237   6.984   3.167 -0.7173 -1.6296  0.5111
 5478SOL    HW228908   4.275   6.938   3.319 -0.8813  1.1078  1.4017
 5479SOL     OW28909   3.688   7.870   8.194  0.5248 -0.8777  0.3745
 5479SOL    HW128910   3.787   7.877   8.183  0.7782 -1.7152  1.9016
 5479SOL    HW228911   3.660   7.924   8.274 -0.7826  2.4405 -2.2269
 5480SOL     OW28912   3.818   2.230   2.738 -0.0712 -0.2387 -1.0932
 5480SOL    HW128913   3.906   2.218   2.693  0.3358 -0.9263 -0.1306
 5480SOL    HW228914   3.744   2.215   2.672  0.5089  3.0983 -2.6066
 5481SOL     OW28915   6.007   6.569   0.164  0.2224  0.1518  0.3569
 5481SOL    HW128916   6.049   6.636   0.225  0.4026 -1.2799  1.8546
 5481SOL    HW228917   5.915   6.598   0.140  0.7180  1.4950  0.0445
 5482SOL     OW28918   0.053   4.554   4.200  0.2544 -0.4753  0.4376
 5482SOL    HW128919   0.068   4.524   4.106 -0.9825 -0.6654  0.2926
 5482SOL    HW228920   0.128   4.613   4.228 -0.1060  0.8034 -1.1906
 5483SOL     OW28921   1.142   4.864   3.202 -0.5330 -0.3294 -0.0668
 5483SOL    HW128922   1.075   4.803   3.245  0.1458 -0.4365  0.8377
 5483SOL    HW228923   1.152   4.947   3.257  1.1088 -0.9230  0.5559
 5484SOL     OW28924   4.010   2.210   7.954  0.1417  0.5473  1.1854
 5484SOL    HW128925   3.987   2.121   7.993 -3.9504  1.3621  0.9198
 5484SOL    HW228926   4.019   2.200   7.854  1.3001  0.1485  1.3263
 5485SOL     OW28927   2.051   4.927   3.930 -0.1650  0.2685  0.3926
 5485SOL    HW128928   1.960   4.947   3.966 -0.6801  0.9453 -1.2211
 5485SOL    HW228929   2.105   5.011   3.927  0.9832 -0.3596  2.5626
 5486SOL     OW28930   6.680   8.195   4.564  0.0262 -0.4285  0.6813
 5486SOL    HW128931   6.593   8.186   4.612 -0.0879 -0.2385  0.5128
 5486SOL    HW228932   6.735   8.112   4.577  0.6253  0.2119  2.3840
 5487SOL     OW28933   5.921   8.317   4.961 -0.3020  0.3132 -0.5153
 5487SOL    HW128934   5.857   8.243   4.942  0.0376 -0.0492 -0.2792
 5487SOL    HW228935   6.008   8.278   4.993 -0.1825  0.8232 -0.2133
 5488SOL     OW28936   3.013   1.703   6.903 -0.4169 -0.4289 -0.3610
 5488SOL    HW128937   2.950   1.780   6.897  0.5044  0.4247  0.6648
 5488SOL    HW228938   3.076   1.705   6.826  1.2451  1.3500  0.9920
 5489SOL     OW28939   7.587   0.989   5.791  0.5449 -0.2481 -0.1076
 5489SOL    HW128940   7.644   0.943   5.859  1.6964  0.4749 -0.5737
 5489SOL    HW228941   7.564   1.081   5.822  1.5016  0.2764 -0.8924
 5490SOL     OW28942   7.438   6.931   6.909  0.2999  0.0876 -0.3539
 5490SOL    HW128943   7.527   6.916   6.953 -1.6869 -1.6707  3.3124
 5490SOL    HW228944   7.403   7.020   6.936  0.0009 -0.1381  0.0165
 5491SOL     OW28945   8.948   2.061   6.516 -0.4123  0.1051 -0.7453
 5491SOL    HW128946   9.024   2.036   6.457  0.6529  0.6271  0.3881
 5491SOL    HW228947   8.883   2.118   6.466  0.2230  0.1234 -1.5446
 5492SOL     OW28948   2.946   0.605   7.535 -0.1384 -0.1303 -0.0890
 5492SOL    HW128949   2.927   0.604   7.634  1.3242  2.0057  0.2442
 5492SOL    HW228950   2.942   0.699   7.502  0.5629 -0.7104 -1.8375
 5493SOL     OW28951   2.332   3.747   7.437 -0.0093  0.0530  0.8307
 5493SOL    HW128952   2.295   3.711   7.523  0.7677 -0.2131  1.0633
 5493SOL    HW228953   2.262   3.743   7.366 -0.4351 -0.4062  1.2735
 5494SOL     OW28954   5.239   0.395   5.657 -0.4368  0.1352 -0.6469
 5494SOL    HW128955   5.278   0.487   5.653  0.5164 -0.1703  0.9676
 5494SOL    HW228956   5.234   0.356   5.565  0.3317  1.3146 -1.1968
 5495SOL     OW28957   0.649   8.424   3.748 -0.5623  0.3281 -0.7308
 5495SOL    HW128958   0.616   8.383   3.832 -0.1910  0.7256 -0.3883
 5495SOL    HW228959   0.622   8.521   3.745 -0.7326  0.2681 -1.1502
 5496SOL     OW28960   7.465   3.096   4.068 -0.4555  0.8275  0.4219
 5496SOL    HW128961   7.473   3.004   4.105 -1.5595  0.8296  0.6886
 5496SOL    HW228962   7.385   3.141   4.107  1.3532  2.7470  2.0366
 5497SOL     OW28963   7.395   4.782   0.994 -0.2107 -0.3609  0.1493
 5497SOL    HW128964   7.313   4.835   1.011 -0.4528 -0.4047 -0.8278
 5497SOL    HW228965   7.476   4.837   1.012 -0.4550 -0.2022  0.7594
 5498SOL     OW28966   8.281   1.987   8.359  0.4849 -0.0273  0.6641
 5498SOL    HW128967   8.207   1.931   8.321  1.3954 -0.8592  0.0790
 5498SOL    HW228968   8.243   2.066   8.407 -0.7560  0.0540 -0.4385
 5499SOL     OW28969   3.669   6.777   4.022 -0.4821 -0.5634  0.1298
 5499SOL    HW128970   3.714   6.801   4.108 -1.3250  1.3308  0.0772
 5499SOL    HW228971   3.729   6.720   3.967  0.5254 -0.8100  1.4688
 5500SOL     OW28972   6.942   5.501   0.449  0.2508  0.4491 -0.4381
 5500SOL    HW128973   6.955   5.402   0.439  0.3850  0.4593 -0.3515
 5500SOL    HW228974   6.942   5.543   0.358 -0.0908  0.3349 -0.4951
 5501SOL     OW28975   2.864   7.565   6.411 -0.6137 -0.4754  0.2418
 5501SOL    HW128976   2.911   7.632   6.353 -0.4117 -0.3238  0.5801
 5501SOL    HW228977   2.765   7.578   6.403 -0.5544  0.4707  1.0150
 5502SOL     OW28978   1.414   4.279   4.468 -0.4508 -0.7190  0.2449
 5502SOL    HW128979   1.340   4.338   4.437 -0.8257 -0.3149  1.8561
 5502SOL    HW228980   1.387   4.183   4.459 -0.5951 -0.6041 -0.5411
 5503SOL     OW28981   4.617   4.669   7.859  0.3018  0.2249  0.3307
 5503SOL    HW128982   4.691   4.720   7.815 -0.8379  0.6262 -1.1649
 5503SOL    HW228983   4.619   4.686   7.958  2.0531  0.4073  0.2830
 5504SOL     OW28984   5.545   5.687   1.464 -0.2980  0.4939  0.5558
 5504SOL    HW128985   5.572   5.759   1.401 -2.6751  1.0540  0.1199
 5504SOL    HW228986   5.564   5.716   1.558  1.2567  0.5397  0.2421
 5505SOL     OW28987   8.919   0.634   6.020 -0.0197  0.0605  0.0334
 5505SOL    HW128988   8.904   0.599   5.927 -0.8055  0.5697 -0.0423
 5505SOL    HW228989   8.889   0.729   6.025 -1.2988 -0.3796  1.1599
 5506SOL     OW28990   8.358   7.432   1.001  0.2494 -0.1594  0.2976
 5506SOL    HW128991   8.303   7.472   0.928 -0.6584 -2.7593 -0.4652
 5506SOL    HW228992   8.345   7.486   1.085 -2.9844 -0.3481 -0.0201
 5507SOL     OW28993   0.375   2.831   2.798  0.2645 -0.2319 -0.6306
 5507SOL    HW128994   0.302   2.802   2.860  0.6641 -0.6089 -0.3426
 5507SOL    HW228995   0.378   2.770   2.719 -1.5335  1.3682 -2.0187
 5508SOL     OW28996   7.621   6.828   0.291  0.0584  0.1745 -0.7713
 5508SOL    HW128997   7.677   6.842   0.373 -0.6632 -1.0152 -0.0689
 5508SOL    HW228998   7.650   6.744   0.245 -1.8854 -1.0709  0.2229
 5509SOL     OW28999   8.297   2.318   7.818 -0.3179 -0.7150  0.2135
 5509SOL    HW129000   8.390   2.310   7.782 -0.2293  1.4324 -0.1006
 5509SOL    HW229001   8.237   2.252   7.771  1.0306 -2.1332  0.4560
 5510SOL     OW29002   5.261   4.407   5.875  0.0214 -0.1514 -0.0405
 5510SOL    HW129003   5.212   4.321   5.895  0.4893 -0.1445  1.1558
 5510SOL    HW229004   5.310   4.398   5.788  0.5924 -1.3140  0.4036
 5511SOL     OW29005   2.354   5.990   7.074 -0.0724 -0.1241 -0.0668
 5511SOL    HW129006   2.256   5.977   7.058  0.1033  0.8266 -2.0123
 5511SOL    HW229007   2.377   5.957   7.165 -2.2607 -0.0870  0.5323
 5512SOL     OW29008   8.560   1.740   6.257 -0.2934 -0.4344 -0.0507
 5512SOL    HW129009   8.657   1.764   6.255 -0.4422  0.1704 -4.2705
 5512SOL    HW229010   8.549   1.641   6.254  0.1642 -0.5131  0.6891
 5513SOL     OW29011   2.792   4.214   0.209  0.5224 -0.2441 -0.1817
 5513SOL    HW129012   2.812   4.125   0.169  2.3567 -0.6342  1.5434
 5513SOL    HW229013   2.811   4.286   0.142  1.0539 -1.0240 -0.8755
 5514SOL     OW29014   1.475   3.844   5.278 -0.1558 -0.3978  0.5629
 5514SOL    HW129015   1.547   3.872   5.215 -1.7117  0.2262 -0.9690
 5514SOL    HW229016   1.438   3.926   5.323 -0.7376 -0.5910  0.4318
 5515SOL     OW29017   1.788   6.355   2.496  0.0336  0.4152 -0.3804
 5515SOL    HW129018   1.872   6.300   2.496  0.6774  1.3949 -0.9326
 5515SOL    HW229019   1.804   6.440   2.546 -0.8740  0.2549  0.1953
 5516SOL     OW29020   4.977   1.763   8.860 -0.6274 -0.0322  0.0791
 5516SOL    HW129021   4.992   1.862   8.865  0.8244 -0.0841 -2.7524
 5516SOL    HW229022   4.999   1.730   8.769 -3.9056 -2.5414  0.0850
 5517SOL     OW29023   6.426   1.128   8.523  0.2989  0.5843 -0.8333
 5517SOL    HW129024   6.476   1.042   8.524 -0.0657  0.3779 -0.1495
 5517SOL    HW229025   6.333   1.113   8.488  0.3896  0.7820 -1.1565
 5518SOL     OW29026   7.904   8.472   7.386 -0.1541  0.0353 -0.0994
 5518SOL    HW129027   7.929   8.549   7.327 -0.1729  0.3761  0.3423
 5518SOL    HW229028   7.919   8.497   7.482  1.6905 -1.1612 -0.0471
 5519SOL     OW29029   2.761   1.672   2.916  0.3451  0.3388 -0.3150
 5519SOL    HW129030   2.687   1.606   2.900  0.7116 -0.1982  0.2028
 5519SOL    HW229031   2.787   1.714   2.829  1.0084 -1.1564 -0.8570
 5520SOL     OW29032   4.789   7.118   7.844 -0.1565  0.0324  0.3961
 5520SOL    HW129033   4.704   7.086   7.885  0.1850 -0.4317  0.7449
 5520SOL    HW229034   4.769   7.159   7.755 -0.6775 -0.6072  0.2084
 5521SOL     OW29035   8.311   7.370   2.251  0.3204 -0.1785 -0.4717
 5521SOL    HW129036   8.260   7.419   2.322  0.7791  1.4482 -1.2441
 5521SOL    HW229037   8.409   7.385   2.263  0.3784  0.4589 -1.7027
 5522SOL     OW29038   1.976   2.180   4.027 -0.8014  0.2863  0.1399
 5522SOL    HW129039   1.893   2.160   4.079 -1.0827 -1.3382 -0.9004
 5522SOL    HW229040   2.045   2.110   4.045 -0.3066  0.6337 -0.3803
 5523SOL     OW29041   8.161   6.042   4.547 -0.4135 -0.3665 -0.1674
 5523SOL    HW129042   8.195   5.953   4.518 -2.0773 -1.0947  0.0563
 5523SOL    HW229043   8.085   6.069   4.487  1.4608  1.9258 -1.6318
 5524SOL     OW29044   2.924   8.122   7.595 -0.0521  0.3272  0.2712
 5524SOL    HW129045   2.908   8.160   7.686 -1.4105 -0.1250  0.2356
 5524SOL    HW229046   2.837   8.117   7.545  0.6867  0.6352 -1.0778
 5525SOL     OW29047   1.297   5.316   6.518  0.0450  0.4813 -0.4795
 5525SOL    HW129048   1.299   5.315   6.418  0.9990  0.0003 -0.4550
 5525SOL    HW229049   1.233   5.386   6.549 -1.2090 -0.2022 -1.4395
 5526SOL     OW29050   0.552   0.492   4.127  0.4767  0.0349  0.3601
 5526SOL    HW129051   0.622   0.482   4.198 -0.7949  0.0712  1.6337
 5526SOL    HW229052   0.466   0.454   4.159 -0.6113  1.7522 -0.4389
 5527SOL     OW29053   5.153   8.180   5.770  0.2046 -0.4212  0.6996
 5527SOL    HW129054   5.056   8.165   5.754  0.2282  0.4238 -0.3318
 5527SOL    HW229055   5.168   8.275   5.798  0.8863 -0.1117 -0.6742
 5528SOL     OW29056   3.941   4.981   7.310  0.7162  0.0821  0.4003
 5528SOL    HW129057   3.879   5.058   7.298  3.1458  2.0118 -0.2435
 5528SOL    HW229058   4.000   4.973   7.230  0.2866 -2.6860  0.3157
 5529SOL     OW29059   4.127   3.329   5.608 -0.0324  0.2762 -0.1845
 5529SOL    HW129060   4.069   3.348   5.687 -1.5592 -2.2672 -0.6473
 5529SOL    HW229061   4.096   3.246   5.563  2.8936 -0.1631 -1.5109
 5530SOL     OW29062   8.322   5.486   5.952 -0.4879  0.0756 -0.3239
 5530SOL    HW129063   8.304   5.388   5.941 -0.0675 -0.3476  2.4476
 5530SOL    HW229064   8.389   5.515   5.884  0.0028 -1.7431 -0.6438
 5531SOL     OW29065   1.001   7.632   0.455  0.0026  0.2746  0.1384
 5531SOL    HW129066   0.908   7.623   0.489 -0.3494  2.4493 -0.1944
 5531SOL    HW229067   1.042   7.541   0.446 -2.6115 -0.8283 -1.2425
 5532SOL     OW29068   8.253   6.029   5.421  0.5859  0.1063  0.2583
 5532SOL    HW129069   8.223   6.109   5.369 -0.2254 -0.4515 -0.1421
 5532SOL    HW229070   8.279   6.058   5.514 -0.0692  0.7779  0.2396
 5533SOL     OW29071   1.074   4.000   7.589 -0.0584 -0.0969 -0.2446
 5533SOL    HW129072   1.108   3.938   7.519 -2.5731 -0.7271 -0.9267
 5533SOL    HW229073   1.052   4.089   7.548 -1.8442 -0.5695 -0.3469
 5534SOL     OW29074   2.430   1.796   4.994 -0.0688  0.3819  0.0510
 5534SOL    HW129075   2.452   1.785   4.897  0.6066  0.2068  0.2179
 5534SOL    HW229076   2.472   1.880   5.028  1.6562 -0.7134  0.7362
 5535SOL     OW29077   4.668   1.837   8.958 -0.4224  0.3472 -0.3164
 5535SOL    HW129078   4.574   1.834   8.992 -0.4806 -0.4809 -0.5432
 5535SOL    HW229079   4.731   1.831   9.035 -0.5542  0.5275 -0.1928
 5536SOL     OW29080   0.041   2.645   7.740 -0.2428  0.4803  0.6417
 5536SOL    HW129081  -0.018   2.671   7.664 -0.7697  1.1081  1.2584
 5536SOL    HW229082   0.111   2.581   7.708 -1.0846 -0.0491 -0.1509
 5537SOL     OW29083   0.793   6.333   8.846 -0.0185  0.0971  0.0620
 5537SOL    HW129084   0.738   6.272   8.903  2.7702 -2.5285  0.0373
 5537SOL    HW229085   0.840   6.399   8.904 -0.7669  0.3847  0.3502
 5538SOL     OW29086   4.120   4.066   6.340 -0.0975 -0.1686 -0.4969
 5538SOL    HW129087   4.126   3.969   6.363 -0.5572  0.4283  2.4233
 5538SOL    HW229088   4.030   4.101   6.366  1.0174  1.6219  1.1547
 5539SOL     OW29089   6.170   7.528   1.177 -0.1801  0.2419 -0.3013
 5539SOL    HW129090   6.103   7.549   1.249 -0.7711  0.6001 -0.9437
 5539SOL    HW229091   6.133   7.556   1.089  0.6547  0.0532 -0.7149
 5540SOL     OW29092   6.004   8.896   1.999  0.3978  0.2925  0.1755
 5540SOL    HW129093   6.049   8.808   2.003 -0.9824 -0.4013  0.7825
 5540SOL    HW229094   5.986   8.929   2.092  0.0515  0.7539 -0.0525
 5541SOL     OW29095   3.116   4.635   6.267 -0.1558  0.0541 -0.4201
 5541SOL    HW129096   3.094   4.597   6.357 -1.5392  1.1655 -0.2764
 5541SOL    HW229097   3.194   4.697   6.276  0.8555 -1.2213 -0.3122
 5542SOL     OW29098   3.857   6.438   2.374 -0.1692  0.1352 -0.0932
 5542SOL    HW129099   3.893   6.507   2.436  0.4840 -0.3479  0.0731
 5542SOL    HW229100   3.833   6.480   2.286 -0.2034  0.6478  0.1633
 5543SOL     OW29101   8.428   5.940   3.113  0.0858  0.1847  0.5153
 5543SOL    HW129102   8.403   5.929   3.017  1.8548 -0.1045  0.0818
 5543SOL    HW229103   8.344   5.943   3.169 -0.9657  0.6848 -1.0461
 5544SOL     OW29104   5.753   2.042   1.504  0.3147 -0.2221  0.0424
 5544SOL    HW129105   5.676   2.053   1.567 -0.9460 -1.3588 -1.2850
 5544SOL    HW229106   5.728   2.075   1.413  0.8199 -2.1120 -0.8123
 5545SOL     OW29107   1.997   4.702   3.357 -0.2272  0.4866  0.5866
 5545SOL    HW129108   1.963   4.794   3.333  1.3381  0.8486 -0.2856
 5545SOL    HW229109   2.044   4.706   3.444  2.3872  1.1431 -0.8095
 5546SOL     OW29110   1.214   7.616   7.838 -0.3128  0.2764 -0.2676
 5546SOL    HW129111   1.284   7.567   7.785 -0.1669  0.1422  0.0496
 5546SOL    HW229112   1.256   7.660   7.917 -0.6480 -0.0885  0.1112
 5547SOL     OW29113   2.112   2.534   8.976  0.3805  0.3623  0.3279
 5547SOL    HW129114   2.211   2.548   8.982  1.0057 -2.9865 -0.7978
 5547SOL    HW229115   2.085   2.533   8.880 -0.2403 -1.5679  0.4946
 5548SOL     OW29116   1.317   3.133   1.936  0.0066 -0.3165  0.2426
 5548SOL    HW129117   1.253   3.076   1.987 -0.0048  0.2286  0.8461
 5548SOL    HW229118   1.409   3.120   1.974 -0.0011  0.0815  0.3986
 5549SOL     OW29119   3.369   2.536   8.352 -0.0895 -0.1445  0.2584
 5549SOL    HW129120   3.467   2.554   8.359  0.2243 -1.0838 -1.2371
 5549SOL    HW229121   3.318   2.609   8.396  1.2783  0.4771  0.8504
 5550SOL     OW29122   2.266   0.241   1.117 -0.3488 -0.1624  0.1569
 5550SOL    HW129123   2.362   0.259   1.140 -0.2580 -1.4887  0.8311
 5550SOL    HW229124   2.255   0.244   1.017  0.1393  1.2181  0.1394
 5551SOL     OW29125   1.848   8.056   0.195  0.1151  0.3857 -0.7329
 5551SOL    HW129126   1.913   7.984   0.170 -0.0660 -0.2949  0.6833
 5551SOL    HW229127   1.810   8.036   0.285 -0.5830  1.8177 -0.6955
 5552SOL     OW29128   9.000   1.937   5.207  0.0353 -0.7063 -0.1716
 5552SOL    HW129129   9.020   1.886   5.291  2.0649  0.0379 -0.1842
 5552SOL    HW229130   9.080   1.936   5.147 -0.8988  0.0189 -1.4513
 5553SOL     OW29131   1.280   6.765   4.732  0.1796 -0.2702  0.4033
 5553SOL    HW129132   1.323   6.848   4.696  0.8883  0.2574  2.4089
 5553SOL    HW229133   1.229   6.787   4.815 -0.2738 -1.7068  0.5210
 5554SOL     OW29134   0.237   5.697   5.875  0.2905 -0.1906  0.0704
 5554SOL    HW129135   0.243   5.612   5.929  2.3350 -1.0183 -1.3963
 5554SOL    HW229136   0.189   5.767   5.929 -0.2018 -1.8467  1.8526
 5555SOL     OW29137   2.691   5.935   1.100  0.1384 -0.1448 -0.4090
 5555SOL    HW129138   2.783   5.895   1.098  0.1491 -0.2244  0.8923
 5555SOL    HW229139   2.666   5.954   1.195 -0.7702  0.8603 -0.8489
 5556SOL     OW29140   0.422   2.652   2.153  0.2635 -0.0841 -0.1426
 5556SOL    HW129141   0.496   2.604   2.106 -0.2978  0.8052 -1.9938
 5556SOL    HW229142   0.357   2.586   2.191 -0.1514 -0.8310 -2.0832
 5557SOL     OW29143   3.135   3.460   4.170 -0.5587  0.5398  0.2168
 5557SOL    HW129144   3.156   3.534   4.107 -1.5626  0.7785  0.1521
 5557SOL    HW229145   3.216   3.402   4.181 -0.1307  0.9531 -0.6608
 5558SOL     OW29146   4.120   5.419   7.021 -0.6191  1.1583  0.2023
 5558SOL    HW129147   4.150   5.514   7.030  0.2064  1.0196 -0.9745
 5558SOL    HW229148   4.179   5.372   6.955 -2.4143  0.4375 -0.9261
 5559SOL     OW29149   6.793   2.146   2.985 -0.4099 -0.0524  0.0747
 5559SOL    HW129150   6.695   2.165   2.975 -0.3952 -0.6902 -1.4111
 5559SOL    HW229151   6.806   2.051   3.012 -0.1269 -0.7098 -2.2583
 5560SOL     OW29152   5.206   8.588   0.009 -0.2230 -0.1245  0.0951
 5560SOL    HW129153   5.234   8.615   0.102 -0.4836 -0.3080  0.2260
 5560SOL    HW229154   5.274   8.524  -0.028  0.7980  1.2787 -0.5029
 5561SOL     OW29155   6.070   6.783   6.270  0.0946 -0.1149 -0.1116
 5561SOL    HW129156   6.100   6.730   6.191  0.8598 -0.3248  0.3074
 5561SOL    HW229157   6.043   6.875   6.241  2.4396  0.5385 -0.3609
 5562SOL     OW29158   6.877   6.729   1.322  0.1230  0.6291 -0.3219
 5562SOL    HW129159   6.815   6.671   1.271 -0.4197  0.8671  0.0606
 5562SOL    HW229160   6.889   6.816   1.273  2.1621 -0.3940 -1.6868
 5563SOL     OW29161   2.856   3.024   7.349 -0.1767  0.0714 -1.1343
 5563SOL    HW129162   2.882   2.933   7.380 -1.1321  0.2659  0.3275
 5563SOL    HW229163   2.937   3.083   7.345  0.4539 -0.8527 -2.1699
 5564SOL     OW29164   0.939   1.067   3.672 -0.1419 -0.2483 -0.5034
 5564SOL    HW129165   0.938   1.028   3.764 -1.5231  0.3238 -0.2690
 5564SOL    HW229166   1.020   1.124   3.661  1.0139 -1.8160 -0.2807
 5565SOL     OW29167   1.852   4.459   8.771  0.1208 -0.1978  0.0030
 5565SOL    HW129168   1.813   4.463   8.863 -0.7741  0.1435 -0.3900
 5565SOL    HW229169   1.829   4.372   8.729  1.7243 -0.9525  0.6139
 5566SOL     OW29170   6.419   0.619   2.811 -0.0111  0.1435 -0.5787
 5566SOL    HW129171   6.478   0.564   2.752 -1.0547 -1.4230 -0.1946
 5566SOL    HW229172   6.340   0.651   2.760 -0.5715 -0.6459 -0.2132
 5567SOL     OW29173   6.705   7.111   7.222  0.4433 -0.3567  0.0857
 5567SOL    HW129174   6.702   7.019   7.261  0.8902 -0.9153 -1.1876
 5567SOL    HW229175   6.612   7.143   7.205  0.3366 -2.0207 -2.7882
 5568SOL     OW29176   2.952   5.824   1.044  0.2199  0.3633  0.0388
 5568SOL    HW129177   2.909   5.789   0.961 -0.0392  0.1517  0.2591
 5568SOL    HW229178   3.051   5.825   1.033  0.3136 -1.6862  0.5053
 5569SOL     OW29179   1.703   8.924   0.499  0.3482  0.3369 -0.5282
 5569SOL    HW129180   1.656   8.924   0.587 -1.3150  0.5305 -1.3986
 5569SOL    HW229181   1.700   8.833   0.459 -0.7782  0.7281 -1.3579
 5570SOL     OW29182   6.481   0.056   1.453  0.0571 -0.3248 -0.2401
 5570SOL    HW129183   6.492  -0.030   1.501  0.6181 -1.1559 -1.8184
 5570SOL    HW229184   6.497   0.042   1.355  0.9335  1.7269 -0.4158
 5571SOL     OW29185   2.357   5.842   5.039  0.2372  0.7389  0.2333
 5571SOL    HW129186   2.279   5.869   5.095  0.5652  0.5220  0.7944
 5571SOL    HW229187   2.438   5.891   5.069  0.6085 -0.0671  0.5556
 5572SOL     OW29188   0.757   8.232   0.633  0.1893 -0.2810  0.0269
 5572SOL    HW129189   0.706   8.146   0.640  0.9578 -0.7180  0.2846
 5572SOL    HW229190   0.713   8.301   0.690 -1.9976  0.2864 -2.2102
 5573SOL     OW29191   5.310   8.233   3.010 -0.5000 -0.2942 -0.2618
 5573SOL    HW129192   5.218   8.196   2.996 -0.4745 -0.6062  0.3833
 5573SOL    HW229193   5.326   8.247   3.108  0.2486 -0.5175 -0.3492
 5574SOL     OW29194   1.357   3.990   3.625  0.4882  0.1584 -1.1624
 5574SOL    HW129195   1.345   3.915   3.559  2.0559 -0.3535 -0.8859
 5574SOL    HW229196   1.452   4.022   3.622  0.6820 -0.1057  1.0913
 5575SOL     OW29197   4.836   4.321   8.484 -0.0740  0.1474  0.1647
 5575SOL    HW129198   4.895   4.337   8.563 -1.3650 -1.5626  1.5061
 5575SOL    HW229199   4.854   4.390   8.414  0.5631  2.1013  2.2291
 5576SOL     OW29200   8.074   6.981   6.162 -0.2963 -1.1102 -0.5138
 5576SOL    HW129201   8.099   6.985   6.259 -0.5052 -1.2589 -0.4549
 5576SOL    HW229202   8.136   7.040   6.110  0.6156 -2.0105 -0.4618
 5577SOL     OW29203   0.757   3.835   6.365  0.1999  0.2948 -0.4277
 5577SOL    HW129204   0.745   3.744   6.325  0.3813  0.0036  0.1832
 5577SOL    HW229205   0.853   3.862   6.358 -0.2913  1.5527 -2.9969
 5578SOL     OW29206   2.924   7.524   3.619  0.2505  0.2298  0.2462
 5578SOL    HW129207   2.851   7.566   3.674 -0.4439  0.9261 -1.1720
 5578SOL    HW229208   2.905   7.427   3.607 -1.1413  0.6483 -1.1669
 5579SOL     OW29209   5.621   8.099   7.500 -0.2568 -0.4715 -0.4357
 5579SOL    HW129210   5.648   8.039   7.425  0.3428 -0.4143 -0.2665
 5579SOL    HW229211   5.701   8.124   7.554 -0.3899  1.0400 -0.9085
 5580SOL     OW29212   3.671   8.156   5.863 -0.7001  0.2895  0.1661
 5580SOL    HW129213   3.579   8.120   5.879 -0.0899 -1.0245  0.7758
 5580SOL    HW229214   3.704   8.128   5.773 -0.4548 -0.1843  0.4031
 5581SOL     OW29215   5.999   2.868   5.520  0.2562  0.5481 -0.3220
 5581SOL    HW129216   5.958   2.896   5.433  0.5584 -0.6912 -0.8704
 5581SOL    HW229217   6.006   2.948   5.580  0.7182  1.5712 -1.6985
 5582SOL     OW29218   4.344   4.502   8.715  0.3039 -0.1415 -0.1238
 5582SOL    HW129219   4.256   4.484   8.760  0.0557 -0.4671 -0.7269
 5582SOL    HW229220   4.333   4.582   8.655 -0.1459 -1.4002 -1.7520
 5583SOL     OW29221   0.900   4.421   5.018 -0.9025  0.3118 -0.2217
 5583SOL    HW129222   0.907   4.507   5.069 -2.6960 -0.0971  0.7448
 5583SOL    HW229223   0.808   4.412   4.980 -0.6333 -1.0511 -0.5821
 5584SOL     OW29224   1.737   3.222   5.067 -0.0334  0.6291  0.1366
 5584SOL    HW129225   1.835   3.233   5.083  0.2508  0.6681 -1.6035
 5584SOL    HW229226   1.706   3.136   5.107  0.8391  0.3091  0.1288
 5585SOL     OW29227   1.441   3.971   0.545 -0.0861  0.1504 -0.8284
 5585SOL    HW129228   1.501   4.046   0.574 -1.1002  0.0881  1.5278
 5585SOL    HW229229   1.348   3.989   0.577 -0.5681 -1.5706 -1.2310
 5586SOL     OW29230   1.715   3.532   0.139  0.1627 -0.2725 -0.5218
 5586SOL    HW129231   1.732   3.460   0.072  0.5126  0.1022 -0.8438
 5586SOL    HW229232   1.740   3.620   0.100  0.2415 -0.0328  0.0533
 5587SOL     OW29233   5.693   0.940   4.340  0.1204 -0.3803  0.3234
 5587SOL    HW129234   5.760   0.891   4.285  1.6262 -0.5389  2.2480
 5587SOL    HW229235   5.611   0.957   4.285  2.1929  0.9492 -2.4914
 5588SOL     OW29236   7.466   4.193   0.753  0.4004 -0.1691  0.0685
 5588SOL    HW129237   7.535   4.248   0.706 -0.4539  0.7168 -0.1477
 5588SOL    HW229238   7.377   4.239   0.749 -0.3003 -1.5112 -0.0136
 5589SOL     OW29239   1.443   2.396   0.197 -0.2426  0.0963 -0.2231
 5589SOL    HW129240   1.406   2.394   0.290 -1.0054  0.5688 -0.5065
 5589SOL    HW229241   1.495   2.313   0.179 -1.5861 -0.8101  0.0357
 5590SOL     OW29242   2.529   2.351   0.394 -0.6326 -0.2390  0.0469
 5590SOL    HW129243   2.629   2.356   0.403 -0.6778 -0.7270  0.8778
 5590SOL    HW229244   2.506   2.279   0.329 -0.4248  0.3315 -0.6636
 5591SOL     OW29245   4.362   2.586   6.419 -0.2100  0.7856 -0.2402
 5591SOL    HW129246   4.323   2.631   6.339 -1.0701  0.9566  0.2758
 5591SOL    HW229247   4.422   2.512   6.390 -2.1583 -0.5166 -0.9984
 5592SOL     OW29248   0.890   4.903   6.244 -0.1197  0.1414 -0.2453
 5592SOL    HW129249   0.812   4.841   6.237 -1.3676  1.8712 -2.2214
 5592SOL    HW229250   0.871   4.973   6.313  0.8664 -1.0399  1.2558
 5593SOL     OW29251   3.554   3.507   2.092  0.7222  0.5229 -0.5408
 5593SOL    HW129252   3.546   3.411   2.116  0.8338  0.2998 -1.3771
 5593SOL    HW229253   3.553   3.563   2.175 -1.3684 -0.0470 -0.1419
 5594SOL     OW29254   3.969   2.233   7.666 -0.6178  0.1709 -0.0337
 5594SOL    HW129255   3.956   2.204   7.571 -3.1737  0.1891  0.2721
 5594SOL    HW229256   4.049   2.292   7.672  0.1131 -0.5653 -2.0039
 5595SOL     OW29257   8.855   7.712   6.131  0.8514 -0.2900 -0.2067
 5595SOL    HW129258   8.845   7.624   6.085 -1.2878  0.1078 -0.5407
 5595SOL    HW229259   8.814   7.707   6.222  1.1024  0.2459 -0.0613
 5596SOL     OW29260   0.229   3.690   2.438 -0.1444  0.0827 -0.3456
 5596SOL    HW129261   0.139   3.728   2.457  0.5472  0.9221  1.3519
 5596SOL    HW229262   0.295   3.725   2.505  1.4761 -0.3808 -1.6747
 5597SOL     OW29263   9.000   3.129   8.071 -0.0100  0.2474 -0.3688
 5597SOL    HW129264   9.049   3.141   7.985  0.9322  0.8426  0.2494
 5597SOL    HW229265   8.917   3.076   8.055  0.4058 -0.0462 -1.5626
 5598SOL     OW29266   6.973   8.456   2.084 -0.5609 -0.2385 -0.1414
 5598SOL    HW129267   7.032   8.410   2.017  0.6752  0.1427  0.6570
 5598SOL    HW229268   6.896   8.498   2.036 -0.9532 -1.9278 -1.0425
 5599SOL     OW29269   5.287   7.497   1.912 -0.0948  0.1159 -0.2533
 5599SOL    HW129270   5.191   7.509   1.936 -0.0184  0.6994 -0.2294
 5599SOL    HW229271   5.293   7.451   1.824 -0.4408  2.1409 -1.3829
 5600SOL     OW29272   5.303   5.463   5.710  0.0399  0.0510  0.3036
 5600SOL    HW129273   5.341   5.555   5.701 -0.6090  0.4030  1.0271
 5600SOL    HW229274   5.209   5.462   5.677 -0.6871  0.1812  2.2625
 5601SOL     OW29275   0.767   6.253   7.432 -0.1602  0.1351 -0.6459
 5601SOL    HW129276   0.799   6.331   7.378 -1.4454  0.0001 -1.6130
 5601SOL    HW229277   0.695   6.283   7.494 -0.6538 -0.2934 -1.0151
 5602SOL     OW29278   5.437   8.435   4.364 -0.1015  0.2031 -0.1936
 5602SOL    HW129279   5.470   8.529   4.360  1.6103 -0.2230  2.5916
 5602SOL    HW229280   5.509   8.373   4.333 -0.5317 -0.3228 -0.1522
 5603SOL     OW29281   3.443   5.278   3.793 -0.7871  0.1139  0.4744
 5603SOL    HW129282   3.352   5.304   3.761 -0.2881  0.4837 -0.6637
 5603SOL    HW229283   3.492   5.233   3.718 -0.1631 -0.3961  1.1910
 5604SOL     OW29284   5.607   2.630   8.709  0.5172  0.4373  0.5808
 5604SOL    HW129285   5.569   2.705   8.763  1.6123  1.8879 -0.6119
 5604SOL    HW229286   5.611   2.547   8.764 -0.4030  1.3363  2.0242
 5605SOL     OW29287   0.941   6.608   5.297  0.1041 -0.0944  0.0965
 5605SOL    HW129288   1.032   6.631   5.331  0.1470 -0.2165  0.0639
 5605SOL    HW229289   0.917   6.515   5.323 -0.0976  0.0078  0.2834
 5606SOL     OW29290   1.583   8.816   2.200  0.3111 -0.1131  0.3883
 5606SOL    HW129291   1.562   8.854   2.290  0.1419 -0.3408  0.4461
 5606SOL    HW229292   1.505   8.830   2.139  0.8743  1.1026 -0.0715
 5607SOL     OW29293   5.863   8.320   1.235  0.3913 -0.4695  0.8024
 5607SOL    HW129294   5.836   8.290   1.327  0.5081  0.3121  1.0929
 5607SOL    HW229295   5.898   8.413   1.239 -1.3913  0.2674 -0.3387
 5608SOL     OW29296   8.068   2.849   2.979  0.3251 -0.1818 -0.2258
 5608SOL    HW129297   8.088   2.777   2.912  0.8517 -0.2116 -0.0424
 5608SOL    HW229298   7.987   2.823   3.032  1.9085 -1.8197  1.4726
 5609SOL     OW29299   5.350   6.108   2.607 -0.0513 -0.5445  0.4062
 5609SOL    HW129300   5.401   6.164   2.672 -1.0140  1.2291 -0.3258
 5609SOL    HW229301   5.307   6.167   2.539  0.0937 -2.2886 -1.2501
 5610SOL     OW29302   0.244   1.533   4.147 -0.2263  0.0975  0.8888
 5610SOL    HW129303   0.300   1.457   4.179 -1.0938 -0.0125  2.1926
 5610SOL    HW229304   0.255   1.610   4.210 -0.8499  0.3794  0.6530
 5611SOL     OW29305   1.299   5.694   0.591  0.2932 -0.2927  0.1567
 5611SOL    HW129306   1.216   5.748   0.606  0.4663  0.0359 -0.0445
 5611SOL    HW229307   1.362   5.746   0.533  1.0300 -0.1517  1.0667
 5612SOL     OW29308   3.204   1.865   2.084 -0.4370 -0.3370 -0.0161
 5612SOL    HW129309   3.300   1.879   2.108  0.1911 -3.4837 -0.5189
 5612SOL    HW229310   3.170   1.782   2.128 -1.7988 -1.3712 -2.8718
 5613SOL     OW29311   1.876   5.954   1.687 -0.0956 -0.1231 -0.3072
 5613SOL    HW129312   1.813   6.031   1.699  0.1398  0.2631 -1.4666
 5613SOL    HW229313   1.954   5.966   1.748 -0.8921 -0.3528  0.7835
 5614SOL     OW29314   6.808   7.599   1.432  0.0579  0.5623 -0.3500
 5614SOL    HW129315   6.871   7.581   1.508  0.9129 -0.8519 -1.3712
 5614SOL    HW229316   6.751   7.678   1.454  0.0717 -0.0250  1.9088
 5615SOL     OW29317   7.893   3.514   7.731  0.4063  0.3639 -0.8431
 5615SOL    HW129318   7.808   3.470   7.702 -1.2421  3.1676 -0.4354
 5615SOL    HW229319   7.942   3.548   7.651  1.3426 -1.5858 -1.1057
 5616SOL     OW29320   0.764   4.899   3.771  0.4264 -0.0492  0.5944
 5616SOL    HW129321   0.780   4.804   3.746  2.3470  0.5611 -0.5713
 5616SOL    HW229322   0.839   4.933   3.828 -0.5021  0.6289  1.4545
 5617SOL     OW29323   6.913   4.026   7.123  0.3489 -0.2506 -0.0408
 5617SOL    HW129324   6.907   4.090   7.045 -1.3796  0.4764  0.6670
 5617SOL    HW229325   6.874   4.069   7.204  0.2799 -1.7692  0.7472
 5618SOL     OW29326   5.543   8.864   2.086 -0.0201  0.2130  0.5786
 5618SOL    HW129327   5.447   8.875   2.059 -0.6582 -2.9960  1.3336
 5618SOL    HW229328   5.594   8.946   2.062 -2.4915  1.0920 -1.8901
 5619SOL     OW29329   8.521   5.762   7.115 -0.2497  0.9888 -0.0159
 5619SOL    HW129330   8.591   5.744   7.184 -1.4026  0.2193  0.9731
 5619SOL    HW229331   8.565   5.794   7.031  1.3384 -0.0351  0.3923
 5620SOL     OW29332   4.519   5.591   5.321 -0.1079  0.1960  0.0251
 5620SOL    HW129333   4.611   5.627   5.336 -0.9035  2.9131 -1.3996
 5620SOL    HW229334   4.516   5.495   5.351  3.3260 -0.1497 -0.5036
 5621SOL     OW29335   1.780   8.699   0.118  0.8587  0.4509  0.0653
 5621SOL    HW129336   1.692   8.741   0.095 -0.1460 -1.9670 -0.7064
 5621SOL    HW229337   1.784   8.607   0.079  3.9751  0.7115 -0.4003
 5622SOL     OW29338   1.624   0.881   1.672  0.0992  0.0349 -0.6360
 5622SOL    HW129339   1.563   0.913   1.599  1.1387  0.1621 -1.4684
 5622SOL    HW229340   1.680   0.805   1.638  2.3862  1.7447 -0.7942
 5623SOL     OW29341   8.017   3.319   4.156 -0.1476 -0.7783 -0.2957
 5623SOL    HW129342   7.926   3.329   4.196  0.1447 -1.1525  0.4684
 5623SOL    HW229343   8.056   3.231   4.184  0.8986 -0.1325  0.2782
 5624SOL     OW29344   4.691   2.771   6.127  0.0968 -1.1801  0.3574
 5624SOL    HW129345   4.729   2.863   6.137 -0.7037 -0.9017  0.9142
 5624SOL    HW229346   4.594   2.777   6.106  0.0929 -1.9002  0.1398
 5625SOL     OW29347   4.499   6.921   8.830  0.7586 -0.5450 -0.2856
 5625SOL    HW129348   4.474   6.915   8.733  2.1920  0.8233 -0.7670
 5625SOL    HW229349   4.504   7.017   8.857 -0.1352 -0.9242  1.3006
 5626SOL     OW29350   4.525   5.651   7.992  0.3910  0.0024 -0.4538
 5626SOL    HW129351   4.506   5.660   8.090  2.3195 -1.3917  0.0704
 5626SOL    HW229352   4.440   5.631   7.944 -0.7537  1.7191  0.7827
 5627SOL     OW29353   5.680   6.677   2.636  0.2959 -0.0048 -0.2363
 5627SOL    HW129354   5.773   6.641   2.629 -0.1335 -1.1371 -0.2938
 5627SOL    HW229355   5.619   6.604   2.666 -0.4220  0.9673  0.6982
 5628SOL     OW29356   2.223   1.766   8.250 -0.0599  0.2295 -0.0457
 5628SOL    HW129357   2.206   1.685   8.194 -0.6946 -0.4590  1.1370
 5628SOL    HW229358   2.320   1.790   8.245  0.3168 -1.1778  0.3672
 5629SOL     OW29359   0.520   5.461   2.755  0.3714  0.1592  0.0722
 5629SOL    HW129360   0.542   5.492   2.662  2.3312 -0.6016  0.2602
 5629SOL    HW229361   0.431   5.499   2.782  0.3783  1.4682 -1.6087
 5630SOL     OW29362   1.633   7.027   0.441 -0.1007  0.7166  0.0898
 5630SOL    HW129363   1.588   7.018   0.530 -1.2653  0.6500 -0.4932
 5630SOL    HW229364   1.564   7.035   0.369  0.8248  0.6817 -0.8235
 5631SOL     OW29365   0.712   4.316   4.185 -0.5062  0.0363 -0.1862
 5631SOL    HW129366   0.771   4.250   4.139 -0.5789  0.8049 -1.4158
 5631SOL    HW229367   0.649   4.268   4.246 -0.5404 -1.0328 -1.0373
 5632SOL     OW29368   4.302   7.826   5.132 -0.1034  0.4707  0.5914
 5632SOL    HW129369   4.371   7.875   5.079 -1.3287 -0.0979 -1.5702
 5632SOL    HW229370   4.337   7.735   5.156  0.0291  0.3052 -0.2203
 5633SOL     OW29371   5.867   4.353   4.462 -0.4319 -0.0334 -0.5950
 5633SOL    HW129372   5.890   4.297   4.542  2.0625  0.0910 -1.1855
 5633SOL    HW229373   5.819   4.297   4.396  0.0096 -0.8892 -0.2024
 5634SOL     OW29374   1.679   3.006   7.141 -0.5794 -0.0544 -0.2334
 5634SOL    HW129375   1.708   2.911   7.152 -0.8299  0.0565  1.5736
 5634SOL    HW229376   1.696   3.056   7.226 -1.6362  1.1954 -0.7367
 5635SOL     OW29377   0.917   2.875   6.718  0.9299 -0.3861  0.3034
 5635SOL    HW129378   0.918   2.864   6.817  2.5857 -0.9811  0.2338
 5635SOL    HW229379   0.828   2.912   6.690  0.0194 -1.2776  1.8818
 5636SOL     OW29380   8.231   2.011   6.063 -0.1741 -0.4835  0.0035
 5636SOL    HW129381   8.225   2.094   6.007 -1.2274 -0.9150 -0.5299
 5636SOL    HW229382   8.230   2.036   6.160 -2.0243  0.0424 -0.1386
 5637SOL     OW29383   7.990   6.757   1.346 -0.4709 -0.1641 -0.2355
 5637SOL    HW129384   7.991   6.794   1.253 -1.3254 -0.9550 -0.5579
 5637SOL    HW229385   8.021   6.661   1.344 -3.6805 -1.2545 -0.1726
 5638SOL     OW29386   0.483   5.617   1.670 -0.4672 -0.2076  0.2410
 5638SOL    HW129387   0.533   5.638   1.587 -0.8378 -1.3465 -0.2830
 5638SOL    HW229388   0.548   5.609   1.746 -0.1500  1.0276  0.1146
 5639SOL     OW29389   1.055   4.004   2.780  0.3582  0.3091 -0.7964
 5639SOL    HW129390   1.089   3.920   2.821 -1.6878 -0.0424  0.2375
 5639SOL    HW229391   1.001   3.982   2.698  1.0113  0.7258 -1.3466
 5640SOL     OW29392   2.792   3.312   1.904 -0.2858 -0.8830  0.1507
 5640SOL    HW129393   2.725   3.279   1.971 -0.8804 -0.0442 -0.0183
 5640SOL    HW229394   2.877   3.334   1.950 -0.6458 -0.4480  0.6076
 5641SOL     OW29395   5.701   7.593   7.183  0.0136  0.1216 -0.2402
 5641SOL    HW129396   5.747   7.632   7.263  0.3859 -1.1838  0.1977
 5641SOL    HW229397   5.718   7.650   7.103  0.5971  0.8161  0.3757
 5642SOL     OW29398   7.648   6.510   1.933  0.0940  0.2490  0.3535
 5642SOL    HW129399   7.617   6.418   1.908 -0.0623  0.8365 -1.7236
 5642SOL    HW229400   7.571   6.560   1.974 -1.0038  0.7585 -2.2015
 5643SOL     OW29401   8.806   6.505   5.264 -0.0599 -0.7843 -0.0668
 5643SOL    HW129402   8.893   6.455   5.267  0.1390 -0.4748 -0.6368
 5643SOL    HW229403   8.775   6.512   5.170  0.5458  1.2308 -0.1520
 5644SOL     OW29404   2.665   5.561   6.807 -0.1353 -0.3784  0.7485
 5644SOL    HW129405   2.589   5.541   6.745 -0.8161  0.0123  1.4596
 5644SOL    HW229406   2.636   5.624   6.878  0.8937 -0.1153  0.9521
 5645SOL     OW29407   6.789   1.295   6.723 -0.3366 -0.5118  0.2665
 5645SOL    HW129408   6.756   1.242   6.801  0.5271 -0.3619  0.7390
 5645SOL    HW229409   6.717   1.302   6.654 -1.2622 -0.2268  1.2687
 5646SOL     OW29410   1.022   3.019   5.585 -0.6808  0.0615 -0.5018
 5646SOL    HW129411   1.090   3.081   5.545  0.1651  0.2139  1.1411
 5646SOL    HW229412   0.962   3.071   5.646  0.8505 -0.9492  1.9080
 5647SOL     OW29413   3.701   2.122   8.035 -0.6725 -0.1334 -0.7672
 5647SOL    HW129414   3.773   2.053   8.033 -0.2336  0.3414 -1.7864
 5647SOL    HW229415   3.611   2.077   8.035 -0.3866 -0.7113 -0.1665
 5648SOL     OW29416   0.069   5.528   0.243  0.4761 -0.2478 -0.8042
 5648SOL    HW129417  -0.016   5.580   0.236  1.2401  1.2961  0.9304
 5648SOL    HW229418   0.047   5.433   0.265 -0.8054  0.2574  0.2191
 5649SOL     OW29419   3.182   4.367   8.941  0.2696  0.7819  0.3793
 5649SOL    HW129420   3.159   4.458   8.976 -0.3445  0.0798  1.8720
 5649SOL    HW229421   3.270   4.338   8.979  2.2047  2.1435 -2.8260
 5650SOL     OW29422   8.571   5.485   6.409  0.3207  0.1009  0.4481
 5650SOL    HW129423   8.595   5.525   6.320 -0.8447  2.2101  1.0473
 5650SOL    HW229424   8.634   5.520   6.479  3.4919 -4.2323 -0.0174
 5651SOL     OW29425   3.271   8.822   0.077  0.0126  0.0668 -0.2297
 5651SOL    HW129426   3.368   8.795   0.080 -0.0252 -0.2953 -1.9254
 5651SOL    HW229427   3.254   8.877  -0.005 -1.2041  0.2452  0.1309
 5652SOL     OW29428   5.600   6.713   5.938  0.0135  0.0939  0.3451
 5652SOL    HW129429   5.566   6.693   6.030 -0.4814  0.7238  0.2991
 5652SOL    HW229430   5.617   6.811   5.929  2.2878 -0.2709  0.5124
 5653SOL     OW29431   7.666   5.060   1.607 -0.4337 -0.2682  0.0167
 5653SOL    HW129432   7.589   5.124   1.607 -0.5378 -0.3890 -0.3031
 5653SOL    HW229433   7.645   4.983   1.547  0.4282  0.3057 -1.0462
 5654SOL     OW29434   7.295   0.097   7.729  0.4465 -0.1533  0.3568
 5654SOL    HW129435   7.281   0.193   7.706 -1.2403 -0.3850  0.3727
 5654SOL    HW229436   7.356   0.055   7.662  0.3813  0.6853 -0.2251
 5655SOL     OW29437   8.488   3.165   6.750 -0.4213 -0.2641  0.1402
 5655SOL    HW129438   8.516   3.108   6.827  2.2961  1.6862  0.6787
 5655SOL    HW229439   8.443   3.247   6.783 -1.2243 -0.4534 -0.4662
 5656SOL     OW29440   3.781   5.458   1.785  0.2957  0.4366 -0.2251
 5656SOL    HW129441   3.872   5.416   1.792 -0.5379 -1.3033  0.5300
 5656SOL    HW229442   3.745   5.446   1.693 -0.6363 -2.1029  0.4082
 5657SOL     OW29443   4.021   5.672   4.520 -0.5162 -0.4513 -0.0280
 5657SOL    HW129444   4.016   5.648   4.617 -0.0249 -1.6994 -0.3025
 5657SOL    HW229445   4.007   5.770   4.509 -1.5365 -0.4560  1.2185
 5658SOL     OW29446   4.862   7.190   0.640 -0.1587 -0.1491 -0.4471
 5658SOL    HW129447   4.793   7.248   0.683 -0.5156 -0.8907 -0.0174
 5658SOL    HW229448   4.819   7.136   0.568  0.8399  2.6505 -3.2355
 5659SOL     OW29449   6.436   4.824   1.824  0.2444  0.3185  0.4376
 5659SOL    HW129450   6.355   4.826   1.882 -0.4906  1.6057 -0.6259
 5659SOL    HW229451   6.429   4.894   1.753  2.3525  0.5562  0.4300
 5660SOL     OW29452   7.783   2.866   8.738 -0.2807  0.0355  0.0136
 5660SOL    HW129453   7.720   2.828   8.671  0.3731 -1.4549  0.2212
 5660SOL    HW229454   7.813   2.794   8.800 -0.4372  1.2771  1.5614
 5661SOL     OW29455   7.757   5.878   2.305  0.4931 -0.0383 -0.3774
 5661SOL    HW129456   7.735   5.875   2.207 -1.4717 -0.6925  0.0641
 5661SOL    HW229457   7.851   5.909   2.317  0.0822  2.1540 -2.3989
 5662SOL     OW29458   6.943   6.554   8.013 -0.0142  0.4037  0.0309
 5662SOL    HW129459   6.988   6.465   8.011 -0.0531  0.3978 -1.0671
 5662SOL    HW229460   7.007   6.623   8.046  0.0667  0.0088  0.7218
 5663SOL     OW29461   2.616   2.406   7.876 -0.0174 -0.6328  0.5677
 5663SOL    HW129462   2.701   2.436   7.920  1.2997 -0.3419 -2.0530
 5663SOL    HW229463   2.552   2.483   7.873  0.2330 -0.3950  1.1638
 5664SOL     OW29464   2.562   2.577   2.191  0.3547 -0.2276  0.0033
 5664SOL    HW129465   2.629   2.550   2.261 -1.1384 -0.0366  1.5285
 5664SOL    HW229466   2.555   2.677   2.188  0.6528 -0.2228 -0.6576
 5665SOL     OW29467   8.797   5.353   7.473  0.3190 -0.8592  0.1391
 5665SOL    HW129468   8.810   5.268   7.524 -0.6466  0.0530  1.9566
 5665SOL    HW229469   8.790   5.430   7.537 -1.2882  0.2736 -1.3417
 5666SOL     OW29470   1.920   4.043   3.007  0.3040 -0.9259 -0.6457
 5666SOL    HW129471   1.990   3.986   2.963  0.7734 -0.2021 -0.8464
 5666SOL    HW229472   1.858   4.078   2.938  0.8192 -0.0949 -0.6926
 5667SOL     OW29473   3.393   5.269   1.336 -0.0991  0.4209 -0.8854
 5667SOL    HW129474   3.467   5.289   1.272 -0.4027  2.7307 -0.5564
 5667SOL    HW229475   3.306   5.300   1.298 -0.5143  0.2721 -0.0720
 5668SOL     OW29476   8.482   0.613   2.675 -0.4252 -0.0588  0.2095
 5668SOL    HW129477   8.424   0.553   2.730  0.0026 -1.8488 -1.2386
 5668SOL    HW229478   8.425   0.684   2.633 -1.2125 -0.4279  0.6268
 5669SOL     OW29479   5.476   8.603   4.036 -0.1951 -0.0063  0.4510
 5669SOL    HW129480   5.568   8.624   4.068  0.2543  0.2964 -1.0218
 5669SOL    HW229481   5.450   8.511   4.066  0.0947  0.3698  1.9141
 5670SOL     OW29482   0.990   2.122   5.603 -0.0368 -0.5212 -0.2865
 5670SOL    HW129483   0.923   2.119   5.677  0.5957  0.4699  0.3367
 5670SOL    HW229484   1.057   2.194   5.622  1.7436 -2.0913 -0.4230
 5671SOL     OW29485   3.249   2.249   0.032  0.4929 -0.2212  0.1633
 5671SOL    HW129486   3.269   2.162  -0.013  1.3733 -0.0946  0.3128
 5671SOL    HW229487   3.190   2.233   0.111 -0.0099 -0.5862 -0.2833
 5672SOL     OW29488   3.932   8.082   3.138  0.3300 -1.0825  0.1043
 5672SOL    HW129489   3.855   8.036   3.094  0.9362 -1.3086 -0.7226
 5672SOL    HW229490   3.990   8.125   3.068  1.0179 -1.0083  0.7134
 5673SOL     OW29491   4.793   0.530   1.078  0.1642  0.1400  0.2761
 5673SOL    HW129492   4.805   0.465   1.153  1.1117 -0.9459 -0.7842
 5673SOL    HW229493   4.842   0.615   1.099 -0.3678  0.2078  1.2865
 5674SOL     OW29494   7.629   4.896   6.183 -0.1605 -0.0808  0.2097
 5674SOL    HW129495   7.532   4.916   6.168 -0.2160 -0.8615 -0.4808
 5674SOL    HW229496   7.656   4.819   6.125  1.4126  1.5523 -1.2941
 5675SOL     OW29497   1.237   5.416   2.188 -0.2035  0.0275 -0.1269
 5675SOL    HW129498   1.262   5.421   2.285 -2.3969 -2.3551  0.6275
 5675SOL    HW229499   1.254   5.323   2.154  0.4109  0.8094 -2.0016
 5676SOL     OW29500   3.215   5.841   1.014  0.4687 -0.5280 -0.2914
 5676SOL    HW129501   3.277   5.911   1.051  0.2656  0.8194 -2.4442
 5676SOL    HW229502   3.255   5.750   1.030  1.3858  0.1262  1.3091
 5677SOL     OW29503   8.626   3.747   6.852  0.6238  0.2223 -0.6539
 5677SOL    HW129504   8.707   3.711   6.807  0.4689 -0.4610 -0.3953
 5677SOL    HW229505   8.649   3.832   6.901  2.2836 -2.3096  3.2252
 5678SOL     OW29506   8.824   1.237   1.418 -0.2916  0.5808  0.1926
 5678SOL    HW129507   8.769   1.276   1.344  0.3272 -0.8378 -1.0444
 5678SOL    HW229508   8.897   1.300   1.442  0.3856  0.4381 -1.4304
 5679SOL     OW29509   3.479   8.709   5.677 -0.4737 -0.3814 -0.7074
 5679SOL    HW129510   3.394   8.745   5.639 -0.4088 -0.4153 -0.8834
 5679SOL    HW229511   3.466   8.614   5.704 -0.6369 -0.2386 -0.2702
 5680SOL     OW29512   0.675   0.852   3.811  0.6553  0.4916 -0.1541
 5680SOL    HW129513   0.632   0.940   3.791  0.6409  0.4666 -0.2337
 5680SOL    HW229514   0.608   0.790   3.852  0.3914  0.1639 -1.0771
 5681SOL     OW29515   8.499   6.464   8.292  0.0912 -0.2337  0.6956
 5681SOL    HW129516   8.439   6.531   8.334 -0.6536  0.3033 -1.1428
 5681SOL    HW229517   8.518   6.390   8.356 -1.1225  0.4774  1.8883
 5682SOL     OW29518   3.752   1.735   2.009  0.4656 -0.7722  0.8559
 5682SOL    HW129519   3.725   1.782   1.925  1.0486  0.5596  1.4060
 5682SOL    HW229520   3.675   1.680   2.042 -1.1041  1.7584  1.5565
 5683SOL     OW29521   8.549   6.553   1.716  0.0343 -0.0994  0.2532
 5683SOL    HW129522   8.551   6.504   1.803  0.9195 -1.0427 -0.2820
 5683SOL    HW229523   8.556   6.651   1.732  0.1106 -0.2682  1.2540
 5684SOL     OW29524   4.681   0.828   0.572  0.1002  0.1077  1.2657
 5684SOL    HW129525   4.779   0.809   0.576 -0.1625 -1.2968  1.0238
 5684SOL    HW229526   4.661   0.881   0.490  0.7527  1.0559  1.7019
 5685SOL     OW29527   0.457   5.321   3.270 -0.3193 -0.0285 -0.0815
 5685SOL    HW129528   0.427   5.414   3.250 -1.2377 -0.2083  0.4044
 5685SOL    HW229529   0.534   5.323   3.333  1.1638  0.4701 -1.8368
 5686SOL     OW29530   5.019   4.402   4.127  0.2874 -0.0831  0.5822
 5686SOL    HW129531   5.116   4.425   4.118  0.4092 -0.5427  0.7324
 5686SOL    HW229532   4.964   4.486   4.119  0.6102 -0.0041 -0.8742
 5687SOL     OW29533   8.176   4.807   6.690 -0.0520 -0.1390 -0.2228
 5687SOL    HW129534   8.232   4.825   6.771 -0.5074 -1.2147  0.3260
 5687SOL    HW229535   8.233   4.816   6.608  0.9329 -1.2606  0.3335
 5688SOL     OW29536   2.852   1.616   5.238  0.2378 -0.4657  0.4370
 5688SOL    HW129537   2.833   1.640   5.334  1.7417 -0.9285  0.8609
 5688SOL    HW229538   2.883   1.698   5.189 -0.7254 -0.1846  0.2901
 5689SOL     OW29539   1.731   3.638   3.533  0.6080  0.9701 -0.2146
 5689SOL    HW129540   1.665   3.670   3.465  0.2364  1.1637  0.2387
 5689SOL    HW229541   1.729   3.699   3.613 -0.5953 -0.5671  0.9502
 5690SOL     OW29542   6.247   5.392   8.768  0.4690  0.5619 -0.5300
 5690SOL    HW129543   6.156   5.376   8.806  1.1779 -2.4985 -0.0225
 5690SOL    HW229544   6.306   5.431   8.838  0.5700 -0.9979  0.2728
 5691SOL     OW29545   1.633   0.925   3.251 -0.7217  0.3220 -0.3672
 5691SOL    HW129546   1.712   0.987   3.250 -1.4031  1.2041 -0.0145
 5691SOL    HW229547   1.665   0.831   3.266  0.2004  0.7779  0.6553
 5692SOL     OW29548   7.722   3.979   0.475 -0.0946 -0.4424 -0.1660
 5692SOL    HW129549   7.776   3.896   0.486 -0.3261 -0.1712  3.8457
 5692SOL    HW229550   7.784   4.057   0.466  0.1263 -0.7844 -1.7164
 5693SOL     OW29551   1.021   4.419   3.055  0.4637 -0.2805  0.2018
 5693SOL    HW129552   0.987   4.331   3.021  0.0706  0.3088 -0.9751
 5693SOL    HW229553   1.105   4.443   3.007 -0.8518  1.2296 -1.3912
 5694SOL     OW29554   6.913   0.828   3.316 -0.6936  0.1067 -0.6576
 5694SOL    HW129555   6.997   0.796   3.359 -0.9557  0.3496  0.0406
 5694SOL    HW229556   6.901   0.783   3.227 -0.6280 -1.0974 -0.0578
 5695SOL     OW29557   3.501   6.972   7.945  0.2806 -0.2306 -0.4737
 5695SOL    HW129558   3.468   7.058   7.906  0.8953 -0.0848 -0.6779
 5695SOL    HW229559   3.440   6.897   7.917 -0.5324  0.2094  0.1083
 5696SOL     OW29560   2.177   1.469   1.753  0.1697 -0.0156 -0.0279
 5696SOL    HW129561   2.181   1.403   1.827  2.1314 -1.5512 -1.4382
 5696SOL    HW229562   2.082   1.481   1.723 -0.3790 -0.9346  1.3325
 5697SOL     OW29563   7.829   0.010   1.021  0.1807  0.3018  0.4774
 5697SOL    HW129564   7.917   0.012   0.974  0.0909  0.6338  0.3185
 5697SOL    HW229565   7.832   0.073   1.099 -0.3567  1.3556 -0.3347
 5698SOL     OW29566   3.146   2.009   5.003  0.2627  0.2188  0.1300
 5698SOL    HW129567   3.185   1.947   4.934 -1.6184 -0.9162  0.0482
 5698SOL    HW229568   3.129   2.098   4.961  0.1178 -0.1448 -0.5926
 5699SOL     OW29569   0.833   5.698   7.966  0.2692  0.0832  0.0863
 5699SOL    HW129570   0.756   5.677   7.906 -0.0322  0.8086  0.2194
 5699SOL    HW229571   0.809   5.775   8.026  1.6499  1.3360 -0.9431
 5700SOL     OW29572   7.039   1.935   8.380  0.4440  0.1444  0.8396
 5700SOL    HW129573   6.955   1.948   8.327  0.9421  0.0165  0.0221
 5700SOL    HW229574   7.018   1.879   8.461  0.3045 -2.3621 -0.8730
 5701SOL     OW29575   5.674   7.023   4.668  0.8238 -0.4115  0.7487
 5701SOL    HW129576   5.764   6.979   4.658  1.2373  0.4325  0.7726
 5701SOL    HW229577   5.607   6.972   4.613  1.6568 -0.0502 -0.6290
 5702SOL     OW29578   3.606   4.796   2.670  0.0322  0.0157 -0.5307
 5702SOL    HW129579   3.703   4.785   2.650  0.7004  0.1814  2.4176
 5702SOL    HW229580   3.591   4.793   2.769 -2.8813  0.6991 -0.8859
 5703SOL     OW29581   7.360   0.430   8.699  0.6238 -0.1702  0.2489
 5703SOL    HW129582   7.365   0.354   8.633 -0.7157  0.2871 -0.3923
 5703SOL    HW229583   7.291   0.496   8.669  1.0210  0.7707  1.3719
 5704SOL     OW29584   7.295   5.182   4.973 -0.4662 -0.4626 -0.0473
 5704SOL    HW129585   7.309   5.195   5.071  1.1480 -0.6607 -0.2213
 5704SOL    HW229586   7.382   5.199   4.925  0.1257 -5.1928 -0.9339
 5705SOL     OW29587   2.831   5.491   0.309 -0.3731  1.0729 -0.2929
 5705SOL    HW129588   2.841   5.405   0.359  0.5843 -0.4633 -3.0588
 5705SOL    HW229589   2.817   5.565   0.375  0.1268 -0.9607  2.2121
 5706SOL     OW29590   5.527   3.673   3.326 -0.3312 -0.1894 -0.2996
 5706SOL    HW129591   5.472   3.657   3.244 -0.0728  0.2468 -0.5548
 5706SOL    HW229592   5.606   3.729   3.303  1.5061 -2.7402 -0.4185
 5707SOL     OW29593   0.291   5.825   3.261 -0.1458  0.6060  0.5562
 5707SOL    HW129594   0.222   5.866   3.202  0.4099  1.4086  0.4619
 5707SOL    HW229595   0.366   5.890   3.276  1.4346 -0.8358 -0.7673
 5708SOL     OW29596   1.200   3.053   5.102 -0.3052 -0.7427  0.1365
 5708SOL    HW129597   1.232   3.069   5.196  0.5323 -1.5308 -0.0088
 5708SOL    HW229598   1.221   3.133   5.046  1.9294 -1.4529 -0.0852
 5709SOL     OW29599   1.481   8.917   5.233 -0.5161 -0.0821  0.6333
 5709SOL    HW129600   1.440   8.891   5.320 -0.2188  1.1169  1.1325
 5709SOL    HW229601   1.570   8.960   5.249  0.8687 -2.4551 -0.4213
 5710SOL     OW29602   0.243   2.740   4.513 -0.8906 -0.1004 -0.4469
 5710SOL    HW129603   0.172   2.751   4.582 -2.1801 -0.1373 -1.7528
 5710SOL    HW229604   0.217   2.668   4.449 -0.1191  0.5093 -1.4770
 5711SOL     OW29605   5.000   3.196   1.307  0.0457  0.4610  0.1724
 5711SOL    HW129606   4.957   3.107   1.325  2.8231 -1.3124 -1.7806
 5711SOL    HW229607   4.979   3.225   1.214 -1.9126  2.5407  1.2010
 5712SOL     OW29608   1.337   2.364   2.744 -0.2425 -0.1005  0.2995
 5712SOL    HW129609   1.279   2.325   2.815  2.4721 -5.0048  0.0249
 5712SOL    HW229610   1.312   2.325   2.655  2.4126 -1.1902 -0.0287
 5713SOL     OW29611   8.712   7.933   4.719  0.1522 -0.6140 -0.8173
 5713SOL    HW129612   8.719   7.866   4.792  1.2908  0.6828  0.2911
 5713SOL    HW229613   8.745   8.022   4.751  0.2173  0.0995 -2.7497
 5714SOL     OW29614   3.145   8.848   1.052 -0.1376 -0.1393  0.3316
 5714SOL    HW129615   3.223   8.792   1.080 -0.3840 -0.5207  0.2590
 5714SOL    HW229616   3.172   8.908   0.977  0.7479  1.4628  1.8838
 5715SOL     OW29617   5.136   6.295   4.712 -0.2526 -0.9720  0.0208
 5715SOL    HW129618   5.173   6.269   4.622 -1.5433 -0.4980 -0.6626
 5715SOL    HW229619   5.073   6.224   4.744  1.5508 -1.9967  1.3929
 5716SOL     OW29620   0.218   8.785   5.118  0.0341 -0.5023  0.0444
 5716SOL    HW129621   0.309   8.798   5.079  0.2295 -0.8768  0.3734
 5716SOL    HW229622   0.187   8.691   5.102 -0.7294 -0.0768 -0.9741
 5717SOL     OW29623   6.573   4.039   4.094  0.3678 -0.2468  0.0085
 5717SOL    HW129624   6.635   4.117   4.108 -1.8073  1.3424  0.9279
 5717SOL    HW229625   6.563   3.988   4.179  1.0287 -1.0110 -0.3548
 5718SOL     OW29626   3.107   5.189   2.576 -0.0728 -0.0043  0.4393
 5718SOL    HW129627   3.078   5.271   2.526  1.8183 -0.6101 -1.7249
 5718SOL    HW229628   3.139   5.215   2.667 -0.8157  1.4865  0.2840
 5719SOL     OW29629   1.912   3.535   2.408  0.3127  0.2548  0.6007
 5719SOL    HW129630   1.972   3.461   2.379 -1.8507 -1.5150  0.4468
 5719SOL    HW229631   1.854   3.563   2.331 -0.7097  0.2890  1.3731
 5720SOL     OW29632   0.671   7.920   4.792 -0.6673  0.0389  0.0164
 5720SOL    HW129633   0.602   7.941   4.722  0.1585  1.1469 -0.4721
 5720SOL    HW229634   0.720   8.004   4.816  0.0530 -0.6235  0.8690
 5721SOL     OW29635   7.887   1.358   0.978 -0.3625  0.3987  0.4440
 5721SOL    HW129636   7.857   1.309   1.059  0.5810 -0.8504  0.0493
 5721SOL    HW229637   7.817   1.351   0.907  0.0193 -0.8838  0.1879
 5722SOL     OW29638   6.427   7.997   1.602  0.0911 -0.6493  0.2345
 5722SOL    HW129639   6.347   8.021   1.547  0.5197 -1.1799 -0.6468
 5722SOL    HW229640   6.431   8.055   1.683  0.1404  1.0253 -0.9409
 5723SOL     OW29641   6.284   5.844   7.414  0.5364  0.1866  0.9329
 5723SOL    HW129642   6.324   5.865   7.325 -3.0785  0.2309 -0.7704
 5723SOL    HW229643   6.273   5.929   7.466 -0.1614  0.5729  0.1630
 5724SOL     OW29644   3.228   8.846   8.720 -0.2310  0.1965 -0.2731
 5724SOL    HW129645   3.197   8.751   8.723 -0.9757  0.4063 -1.1110
 5724SOL    HW229646   3.160   8.905   8.763 -0.0350  0.4134 -0.2572
 5725SOL     OW29647   0.161   3.790   7.989 -0.0770  0.6306  0.0839
 5725SOL    HW129648   0.116   3.858   8.048  0.6945  1.5507 -0.3613
 5725SOL    HW229649   0.093   3.748   7.929 -0.3314  2.1611 -0.7274
 5726SOL     OW29650   6.019   8.724   6.432 -0.3323  0.7317  0.2528
 5726SOL    HW129651   6.094   8.667   6.398 -0.1747  2.1499 -1.8999
 5726SOL    HW229652   5.943   8.721   6.367 -1.0254  1.5461  1.0111
 5727SOL     OW29653   1.488   7.407   8.345 -0.3133 -0.5344  0.6653
 5727SOL    HW129654   1.393   7.427   8.366 -0.4497 -0.8596  0.3733
 5727SOL    HW229655   1.516   7.457   8.263  0.5097  1.5083  2.1394
 5728SOL     OW29656   5.858   1.412   8.264  0.6877  0.0874 -0.4650
 5728SOL    HW129657   5.958   1.418   8.256  0.9013 -0.3556  1.6093
 5728SOL    HW229658   5.828   1.468   8.341 -0.7759  0.8952 -1.5904
 5729SOL     OW29659   7.290   6.318   4.727  0.0331  0.1696  0.5564
 5729SOL    HW129660   7.278   6.240   4.789 -0.3179 -0.3465 -0.1454
 5729SOL    HW229661   7.369   6.301   4.668  2.6124  2.2782  3.2506
 5730SOL     OW29662   4.265   1.642   0.889  0.4235 -0.0617  0.1874
 5730SOL    HW129663   4.276   1.739   0.909  0.3895 -0.1295  0.5376
 5730SOL    HW229664   4.201   1.601   0.954 -0.3625 -0.1002 -0.5915
 5731SOL     OW29665   2.190   4.639   4.301 -0.3110 -0.4871 -0.2312
 5731SOL    HW129666   2.166   4.722   4.351 -0.3961  1.1435 -2.8858
 5731SOL    HW229667   2.107   4.590   4.275 -0.2956 -0.9460  0.5823
 5732SOL     OW29668   8.295   0.769   1.169 -0.5098  0.5284  0.2189
 5732SOL    HW129669   8.335   0.815   1.248  0.5490 -0.6609  0.3858
 5732SOL    HW229670   8.291   0.832   1.092 -1.3192  1.6188  1.1398
 5733SOL     OW29671   4.994   3.920   8.366 -0.3542  0.0662  1.1489
 5733SOL    HW129672   5.005   3.993   8.298 -1.7946 -0.9761 -0.2333
 5733SOL    HW229673   4.899   3.920   8.399 -0.1748 -0.7257  1.6750
 5734SOL     OW29674   0.966   7.900   0.383  0.7759  0.2326 -0.1105
 5734SOL    HW129675   1.052   7.950   0.369  1.8492 -1.7420 -0.7664
 5734SOL    HW229676   0.986   7.803   0.390 -1.3765 -0.1848  0.2891
 5735SOL     OW29677   3.056   6.966   8.843 -0.4193  0.7269 -0.1214
 5735SOL    HW129678   3.009   6.887   8.882 -1.5709 -0.3421 -3.4865
 5735SOL    HW229679   3.034   7.047   8.897  1.5300 -1.2872  3.9748
 5736SOL     OW29680   8.374   8.958   2.164  0.5028 -0.8265  0.1131
 5736SOL    HW129681   8.454   8.964   2.224  0.5083 -0.7257  0.0952
 5736SOL    HW229682   8.297   9.005   2.207  0.6843 -0.1855 -0.2497
 5737SOL     OW29683   2.066   2.637   6.943 -0.2324 -0.2214  0.5874
 5737SOL    HW129684   2.126   2.654   7.021  0.1874 -0.1470  0.2515
 5737SOL    HW229685   1.978   2.683   6.957 -0.5916 -1.1904  1.5571
 5738SOL     OW29686   4.015   5.173   1.917  0.0480  0.1064 -0.1796
 5738SOL    HW129687   3.938   5.125   1.876  0.6759  0.5327 -1.8972
 5738SOL    HW229688   4.035   5.256   1.865  1.2005  0.3935  0.6870
 5739SOL     OW29689   0.740   2.491   7.490  0.1737 -0.1759  0.5862
 5739SOL    HW129690   0.804   2.545   7.545 -0.4682  0.9997  0.2090
 5739SOL    HW229691   0.790   2.441   7.420  0.4473  3.1136 -1.6713
 5740SOL     OW29692   6.305   7.587   7.383 -0.1526  0.3575 -0.2372
 5740SOL    HW129693   6.403   7.602   7.400 -0.0816 -0.5355  0.1769
 5740SOL    HW229694   6.286   7.601   7.286  0.6438 -0.7176 -0.5668
 5741SOL     OW29695   5.251   2.030   2.388 -0.2031  1.0447 -0.0756
 5741SOL    HW129696   5.222   1.942   2.426 -1.5202  1.5849  0.2135
 5741SOL    HW229697   5.351   2.037   2.391  0.0651 -1.3568 -2.1715
 5742SOL     OW29698   5.579   5.935   4.483  0.3256 -0.5394  0.0088
 5742SOL    HW129699   5.499   5.994   4.477  1.1330  0.7991  1.9451
 5742SOL    HW229700   5.571   5.861   4.415 -0.8576  1.5639 -2.2237
 5743SOL     OW29701   5.373   6.799   1.079 -0.2042  0.5923  0.0806
 5743SOL    HW129702   5.413   6.887   1.107  0.5694  1.2067 -2.7856
 5743SOL    HW229703   5.447   6.733   1.063 -0.7088 -0.1742  0.9054
 5744SOL     OW29704   0.582   3.844   0.559 -0.0564 -0.1581 -0.1127
 5744SOL    HW129705   0.552   3.827   0.653 -1.3429 -2.0410 -0.8330
 5744SOL    HW229706   0.673   3.805   0.545 -0.3558 -0.8980  0.0181
 5745SOL     OW29707   1.210   6.670   6.246 -0.6128 -0.1701 -0.5007
 5745SOL    HW129708   1.189   6.628   6.334 -0.8385 -0.3077 -0.6212
 5745SOL    HW229709   1.196   6.769   6.253  0.5500 -0.0285 -0.0307
 5746SOL     OW29710   1.499   8.310   5.618  0.0765 -0.5960 -0.2910
 5746SOL    HW129711   1.595   8.307   5.645 -0.2137  0.8594  0.9681
 5746SOL    HW229712   1.444   8.255   5.681 -0.3886  1.5325  1.2163
 5747SOL     OW29713   4.915   4.501   1.114 -0.3548  0.6159 -0.4841
 5747SOL    HW129714   4.918   4.584   1.059 -0.7562  0.8299 -0.1906
 5747SOL    HW229715   4.820   4.475   1.130 -0.2407  0.4555 -0.0505
 5748SOL     OW29716   5.528   5.083   2.173 -0.0984 -0.1342  0.3817
 5748SOL    HW129717   5.598   5.131   2.120  0.2136 -0.4076  0.5414
 5748SOL    HW229718   5.543   4.984   2.166 -0.8225 -0.2160 -0.0627
 5749SOL     OW29719   6.584   2.282   6.553  0.0980 -0.0756 -0.3084
 5749SOL    HW129720   6.677   2.314   6.535 -0.2894  0.5133 -1.3379
 5749SOL    HW229721   6.520   2.335   6.498 -0.5321 -2.8393 -2.3794
 5750SOL     OW29722   0.261   4.927   5.295  0.2119 -0.2479  0.0240
 5750SOL    HW129723   0.345   4.901   5.341  0.3068 -0.7455 -0.4222
 5750SOL    HW229724   0.200   4.848   5.288 -0.3868  0.1660  0.5470
 5751SOL     OW29725   5.076   1.701   3.384 -0.2083  0.6605  0.2137
 5751SOL    HW129726   5.163   1.713   3.432 -1.0671  0.4720  1.8520
 5751SOL    HW229727   5.088   1.724   3.287  2.4145 -2.2942 -0.2366
 5752SOL     OW29728   5.637   1.247   8.311  0.2266  0.2338 -0.4557
 5752SOL    HW129729   5.623   1.278   8.405  0.2628 -2.9892  0.6623
 5752SOL    HW229730   5.722   1.287   8.276  0.1392  1.5796  0.8099
 5753SOL     OW29731   0.364   1.445   3.313 -0.3528  0.3948 -0.1242
 5753SOL    HW129732   0.418   1.373   3.268 -1.0022 -0.9451  1.1984
 5753SOL    HW229733   0.422   1.525   3.328  1.1610 -0.8386  0.8333
 5754SOL     OW29734   2.595   3.813   3.274 -0.2487 -0.4410  0.2485
 5754SOL    HW129735   2.524   3.789   3.208 -0.1039 -1.0547  0.3131
 5754SOL    HW229736   2.622   3.909   3.260 -0.2261 -0.5599 -0.5739
 5755SOL     OW29737   1.964   7.210   3.997 -0.1689  0.1922 -0.1016
 5755SOL    HW129738   2.053   7.241   3.963 -0.6096  1.3525 -0.2159
 5755SOL    HW229739   1.925   7.145   3.931  0.5304 -0.2305 -0.1107
 5756SOL     OW29740   2.714   4.355   1.535  0.2286  0.0734 -0.4029
 5756SOL    HW129741   2.648   4.416   1.492  2.0753  1.2602 -1.6637
 5756SOL    HW229742   2.735   4.279   1.473 -0.6375 -0.8121  0.3778
 5757SOL     OW29743   2.416   2.513   3.385  0.4118  0.4121 -0.5658
 5757SOL    HW129744   2.460   2.553   3.305  0.7210  1.8563  0.3180
 5757SOL    HW229745   2.346   2.576   3.420  2.7856  1.4540  2.4729
 5758SOL     OW29746   4.663   7.709   8.890  0.1212  0.3908 -0.3010
 5758SOL    HW129747   4.726   7.772   8.933 -1.0405  4.1651 -3.8289
 5758SOL    HW229748   4.711   7.653   8.822  0.1995  1.3820 -1.0718
 5759SOL     OW29749   1.964   5.452   0.790  0.2266 -0.3252  0.4248
 5759SOL    HW129750   1.936   5.413   0.878 -1.7217 -0.8083 -0.3920
 5759SOL    HW229751   1.939   5.389   0.716  1.2390  0.3866 -0.5382
 5760SOL     OW29752   1.881   3.478   3.994  0.0233 -0.7714 -0.6900
 5760SOL    HW129753   1.930   3.558   3.961 -0.0897 -0.5395 -0.2876
 5760SOL    HW229754   1.885   3.474   4.094 -0.7984 -0.7337 -0.6532
 5761SOL     OW29755   5.534   6.520   1.930 -0.5002 -0.1042 -0.2439
 5761SOL    HW129756   5.501   6.493   2.020 -0.2296 -1.7727 -0.6234
 5761SOL    HW229757   5.634   6.526   1.931 -0.3917 -1.5843 -0.7962
 5762SOL     OW29758   8.153   0.718   2.821  0.1769  0.1630 -0.2147
 5762SOL    HW129759   8.208   0.790   2.780  2.6586 -0.9422  1.0643
 5762SOL    HW229760   8.134   0.741   2.917 -0.2441 -0.2112 -0.2059
 5763SOL     OW29761   1.209   4.685   1.624  0.2119 -0.0935 -0.0387
 5763SOL    HW129762   1.220   4.783   1.644 -0.4276 -0.4230  2.0901
 5763SOL    HW229763   1.232   4.668   1.528  0.6929  2.0799 -0.3482
 5764SOL     OW29764   4.403   0.250   0.372  0.1350  0.5945  0.1847
 5764SOL    HW129765   4.498   0.266   0.345  0.0830 -0.3483 -0.5731
 5764SOL    HW229766   4.365   0.175   0.318 -0.7056  0.2363  1.2620
 5765SOL     OW29767   5.635   4.606   8.701 -0.1994 -1.0283  0.3632
 5765SOL    HW129768   5.551   4.556   8.681 -0.8583 -0.5097  1.8000
 5765SOL    HW229769   5.680   4.632   8.615 -3.0825  1.3341 -0.5061
 5766SOL     OW29770   1.932   4.654   7.294 -0.3397  0.1296  0.1330
 5766SOL    HW129771   1.964   4.642   7.200 -1.1581  1.3613 -0.3187
 5766SOL    HW229772   1.996   4.610   7.357 -0.2453 -1.4869 -1.0526
 5767SOL     OW29773   1.530   0.573   6.743  0.2937  0.4202  0.5969
 5767SOL    HW129774   1.532   0.491   6.800 -0.3250  1.3505  1.9845
 5767SOL    HW229775   1.463   0.637   6.781  0.0299  1.1372 -1.0681
 5768SOL     OW29776   6.277   6.265   3.714  0.0859  0.1119 -0.5543
 5768SOL    HW129777   6.196   6.320   3.691  0.2073  0.2141 -0.7414
 5768SOL    HW229778   6.343   6.269   3.639  0.8467  1.1275  0.1471
 5769SOL     OW29779   3.625   1.343   6.504 -0.3345  0.5038  0.1268
 5769SOL    HW129780   3.573   1.339   6.419  2.9513  0.1819 -1.9750
 5769SOL    HW229781   3.586   1.280   6.571 -3.5660  1.4987 -0.7333
 5770SOL     OW29782   6.258   6.420   8.110 -0.1807  0.6261 -0.0214
 5770SOL    HW129783   6.189   6.447   8.043  0.2110 -0.0270 -0.6948
 5770SOL    HW229784   6.269   6.320   8.110  1.1565  0.7521 -0.3300
 5771SOL     OW29785   2.274   1.384   6.532  0.7451 -0.0949  0.1298
 5771SOL    HW129786   2.254   1.418   6.439 -1.4483  1.1858  1.0220
 5771SOL    HW229787   2.363   1.419   6.562  0.4299  1.3937 -0.6138
 5772SOL     OW29788   8.839   4.865   7.827  0.8511 -0.2063  0.2803
 5772SOL    HW129789   8.808   4.939   7.886 -0.8788 -0.4491 -0.2857
 5772SOL    HW229790   8.902   4.901   7.758 -0.6603  0.9304 -0.5366
 5773SOL     OW29791   4.167   4.970   1.036  0.1674 -0.5920  0.5587
 5773SOL    HW129792   4.235   4.957   0.963  1.0487  0.9604  1.0862
 5773SOL    HW229793   4.085   4.916   1.015  0.7075 -0.7646 -1.1889
 5774SOL     OW29794   8.765   4.234   3.118  0.1889 -0.0785 -0.2042
 5774SOL    HW129795   8.789   4.197   3.028  0.5042 -0.2123 -0.0637
 5774SOL    HW229796   8.817   4.187   3.189 -0.8361 -0.7138  0.1435
 5775SOL     OW29797   6.195   0.407   7.688  0.1105 -0.7381 -0.0713
 5775SOL    HW129798   6.139   0.463   7.749  0.1269  0.1400 -0.8545
 5775SOL    HW229799   6.137   0.366   7.617  0.8564  2.8587 -2.9223
 5776SOL     OW29800   7.573   4.691   6.854  0.3263 -0.1979 -0.8840
 5776SOL    HW129801   7.550   4.709   6.758 -1.2216 -1.7969 -0.8435
 5776SOL    HW229802   7.489   4.687   6.908  1.0654 -0.9324  0.2272
 5777SOL     OW29803   2.189   5.361   3.143  0.6742  0.7831 -0.7382
 5777SOL    HW129804   2.170   5.364   3.045 -1.5933  2.3709 -0.3026
 5777SOL    HW229805   2.247   5.438   3.169  3.3007 -0.9788 -1.1720
 5778SOL     OW29806   1.249   0.695   7.111  0.1280  0.0337 -0.1005
 5778SOL    HW129807   1.316   0.763   7.142 -0.9825  1.0313  0.1419
 5778SOL    HW229808   1.266   0.608   7.157  0.7945  0.4828  0.5134
 5779SOL     OW29809   1.879   1.836   1.764 -0.3854  0.2993  0.2833
 5779SOL    HW129810   1.968   1.792   1.768 -0.8954 -0.7712 -0.0608
 5779SOL    HW229811   1.891   1.936   1.767  0.6294  0.1386  3.4264
 5780SOL     OW29812   2.240   7.594   6.473  0.6643 -0.2897  0.3203
 5780SOL    HW129813   2.201   7.676   6.515  0.7715  0.6101 -1.3005
 5780SOL    HW229814   2.319   7.619   6.418 -1.0629 -1.0245 -2.6105
 5781SOL     OW29815   7.024   3.614   0.292 -0.4865 -0.7486 -0.0834
 5781SOL    HW129816   7.007   3.599   0.389 -0.4990  0.6249  0.1375
 5781SOL    HW229817   7.111   3.571   0.267  0.7066  0.9280  1.0821
 5782SOL     OW29818   0.341   4.858   3.274  0.3748 -0.1613  0.3176
 5782SOL    HW129819   0.426   4.867   3.221 -1.1505 -1.0307 -2.3802
 5782SOL    HW229820   0.290   4.944   3.270  0.8584  0.1803  1.4634
 5783SOL     OW29821   7.814   4.988   7.463 -0.4098  0.2239  0.6854
 5783SOL    HW129822   7.834   4.949   7.553  2.8842  0.2404  0.0169
 5783SOL    HW229823   7.776   4.916   7.403 -1.4930 -0.0661  1.6947
 5784SOL     OW29824   2.852   8.014   3.128 -0.3802  0.5633 -0.0063
 5784SOL    HW129825   2.823   8.036   3.035 -2.4580  0.7195  0.6468
 5784SOL    HW229826   2.796   8.066   3.193 -1.3587 -2.1914  1.4126
 5785SOL     OW29827   8.282   7.990   1.095 -0.2627  0.0052 -0.5198
 5785SOL    HW129828   8.221   7.974   1.018  0.9266 -0.0123 -1.4835
 5785SOL    HW229829   8.234   8.039   1.168 -0.8523  1.7627 -2.0734
 5786SOL     OW29830   1.228   0.697   3.036  0.1086 -0.2895  0.1188
 5786SOL    HW129831   1.303   0.702   3.103  0.8223  0.7610 -0.7554
 5786SOL    HW229832   1.164   0.625   3.064 -0.5968  1.3690  2.9404
 5787SOL     OW29833   2.832   8.915   3.815 -0.3932 -0.1417 -0.6286
 5787SOL    HW129834   2.880   8.894   3.729 -0.1043  1.2869 -0.8339
 5787SOL    HW229835   2.780   9.001   3.804  1.6828  1.4328  1.3927
 5788SOL     OW29836   0.875   4.850   7.065  0.0764  0.0070 -0.4622
 5788SOL    HW129837   0.788   4.831   7.110  0.7680 -3.6061 -0.5407
 5788SOL    HW229838   0.858   4.882   6.972 -1.1811 -0.3319 -0.3580
 5789SOL     OW29839   6.584   5.067   8.604  0.5816 -0.6270  0.4870
 5789SOL    HW129840   6.591   4.978   8.559  1.8615  0.1031 -0.7830
 5789SOL    HW229841   6.539   5.056   8.692  1.2278 -2.6152  0.5884
 5790SOL     OW29842   4.496   5.165   3.112  0.1635 -0.3684 -0.0263
 5790SOL    HW129843   4.567   5.099   3.137 -1.1680 -1.6626  0.3974
 5790SOL    HW229844   4.510   5.196   3.018  2.0315  0.3913  0.4695
 5791SOL     OW29845   5.901   2.729   2.750  0.0182 -0.4849 -0.2574
 5791SOL    HW129846   5.936   2.649   2.702  0.3007 -1.3549  1.3700
 5791SOL    HW229847   5.973   2.766   2.810 -0.6990 -0.1066  0.3716
 5792SOL     OW29848   3.996   5.639   4.782  0.1498 -0.3992  0.0733
 5792SOL    HW129849   4.043   5.695   4.850  0.1640  0.0947 -0.3398
 5792SOL    HW229850   3.899   5.632   4.806 -0.0302  0.5464 -0.3520
 5793SOL     OW29851   4.206   2.098   6.369 -0.1048  0.1387  0.7003
 5793SOL    HW129852   4.122   2.047   6.386 -0.1304  0.7656  2.5207
 5793SOL    HW229853   4.193   2.159   6.291 -1.0430 -0.4068  0.4210
 5794SOL     OW29854   8.363   2.519   0.019  0.0811  0.1523  0.2084
 5794SOL    HW129855   8.440   2.569  -0.020  0.9315 -0.2708  1.3162
 5794SOL    HW229856   8.370   2.422  -0.005 -1.1788  0.4171 -1.3338
 5795SOL     OW29857   8.784   2.314   3.291  0.2463 -0.3808  0.1952
 5795SOL    HW129858   8.801   2.232   3.345  0.4039  1.1098  2.4951
 5795SOL    HW229859   8.697   2.305   3.243 -0.0287 -1.6500  0.9106
 5796SOL     OW29860   5.297   1.762   2.405  0.1849 -0.3992  0.1482
 5796SOL    HW129861   5.299   1.725   2.312  2.3954 -1.2372  0.5030
 5796SOL    HW229862   5.213   1.732   2.450 -1.8751  1.6405 -2.1926
 5797SOL     OW29863   3.460   3.582   8.245 -0.0092  0.0046 -0.0375
 5797SOL    HW129864   3.559   3.600   8.242 -0.2655  1.3812 -0.9512
 5797SOL    HW229865   3.429   3.550   8.155 -0.4857  0.1444  0.0745
 5798SOL     OW29866   4.743   3.193   1.648 -0.2616 -0.1611 -0.2138
 5798SOL    HW129867   4.761   3.287   1.618 -1.0354  0.2687  0.6518
 5798SOL    HW229868   4.645   3.174   1.640  0.1269 -1.5038 -2.0999
 5799SOL     OW29869   5.442   2.538   8.490 -0.5397  0.5205 -0.6221
 5799SOL    HW129870   5.522   2.587   8.524 -0.9031  2.3366 -2.3028
 5799SOL    HW229871   5.371   2.537   8.561 -0.0538  1.3266 -0.1105
 5800SOL     OW29872   7.698   2.503   2.002  0.3116  0.0520  0.4420
 5800SOL    HW129873   7.785   2.454   2.011 -0.2515 -1.2454 -0.9629
 5800SOL    HW229874   7.625   2.438   1.981 -0.6466  1.3565 -0.3477
 5801SOL     OW29875   0.385   4.577   0.799 -0.3663 -0.0984  0.4525
 5801SOL    HW129876   0.361   4.667   0.762  1.1994 -0.5794 -1.7900
 5801SOL    HW229877   0.318   4.509   0.767 -0.0867 -0.1869  0.0608
 5802SOL     OW29878   6.580   3.416   4.255 -0.3233  0.0118 -0.3997
 5802SOL    HW129879   6.547   3.327   4.222 -3.0302 -0.1571  2.5043
 5802SOL    HW229880   6.626   3.404   4.342  0.3361  1.3259 -0.5560
 5803SOL     OW29881   2.662   6.436   6.480  0.2562 -0.0499  0.1607
 5803SOL    HW129882   2.655   6.351   6.533 -0.8347 -0.1786 -0.1817
 5803SOL    HW229883   2.599   6.504   6.518  0.1470  0.1601 -0.3952
 5804SOL     OW29884   0.001   7.847   6.740  0.6789  0.0275  0.4739
 5804SOL    HW129885  -0.088   7.823   6.779  0.0325 -0.9084 -1.5012
 5804SOL    HW229886   0.033   7.933   6.780 -1.3281  0.6208  0.8544
 5805SOL     OW29887   4.992   2.709   6.787  0.0779  0.1433 -0.0930
 5805SOL    HW129888   4.961   2.648   6.714 -2.9592  1.0526  0.3899
 5805SOL    HW229889   5.011   2.655   6.869  0.2068 -0.4711 -0.5191
 5806SOL     OW29890   0.708   2.505   7.797  0.2261 -0.1186 -0.6838
 5806SOL    HW129891   0.799   2.535   7.769  1.3384  0.4715  3.3573
 5806SOL    HW229892   0.712   2.410   7.827 -0.4093  0.0061 -0.1933
 5807SOL     OW29893   6.893   0.979   2.018  0.6384  0.3329 -0.0748
 5807SOL    HW129894   6.803   1.018   1.999  0.2038  0.9209  2.9116
 5807SOL    HW229895   6.947   1.044   2.072  1.9243 -1.0088  0.2963
 5808SOL     OW29896   3.134   1.355   5.743  0.2205 -0.0665 -0.1912
 5808SOL    HW129897   3.085   1.394   5.666 -1.1687 -1.2008  0.0956
 5808SOL    HW229898   3.108   1.403   5.827  1.4917  0.9600 -0.3777
 5809SOL     OW29899   6.648   3.739   1.517  0.1126 -0.1549  0.2481
 5809SOL    HW129900   6.625   3.801   1.592 -0.0097  0.3179 -0.1760
 5809SOL    HW229901   6.706   3.787   1.451  1.8824 -1.1734  1.0350
 5810SOL     OW29902   4.803   4.103   6.046 -0.1655 -0.0633  0.0969
 5810SOL    HW129903   4.795   4.039   6.123  0.8489 -0.0396  0.2324
 5810SOL    HW229904   4.729   4.169   6.050  0.1031  0.1866  1.3004
 5811SOL     OW29905   1.631   3.372   3.546 -0.2040  0.4397 -0.3190
 5811SOL    HW129906   1.688   3.454   3.536  0.6391 -0.1732 -0.5847
 5811SOL    HW229907   1.630   3.321   3.460  2.6432 -1.9754  0.9852
 5812SOL     OW29908   2.731   4.308   5.582  0.0174  0.3187 -0.1262
 5812SOL    HW129909   2.800   4.242   5.551 -0.7088 -0.5673  0.1223
 5812SOL    HW229910   2.736   4.390   5.526  2.0364  0.7298  0.6023
 5813SOL     OW29911   4.862   3.171   5.349  0.1799  0.0496 -0.5541
 5813SOL    HW129912   4.837   3.235   5.421 -0.2924 -0.5463 -0.1811
 5813SOL    HW229913   4.790   3.170   5.279  1.2945  1.6638 -1.7453
 5814SOL     OW29914   8.868   5.936   6.348 -0.0491  0.2435  0.3521
 5814SOL    HW129915   8.868   6.003   6.274  1.7021  1.2541  1.2546
 5814SOL    HW229916   8.775   5.899   6.359 -0.5483  0.8305 -1.6423
 5815SOL     OW29917   4.407   1.881   0.123  0.2335 -0.2437 -0.2073
 5815SOL    HW129918   4.447   1.970   0.100  0.1390  0.4383  2.1021
 5815SOL    HW229919   4.308   1.887   0.118  0.1932  0.0525  0.8226
 5816SOL     OW29920   5.692   0.522   8.515  0.6735 -0.4112  0.2401
 5816SOL    HW129921   5.779   0.508   8.563 -0.0137  0.8063  1.8853
 5816SOL    HW229922   5.617   0.487   8.571 -0.1276  0.9397  0.0471
 5817SOL     OW29923   5.299   1.756   2.110  0.2623  0.8773  0.0759
 5817SOL    HW129924   5.251   1.678   2.068 -0.7418  0.9218  1.1130
 5817SOL    HW229925   5.359   1.798   2.042  0.1203 -0.2311 -0.7636
 5818SOL     OW29926   5.656   4.141   1.740  0.1236  0.2406 -0.0587
 5818SOL    HW129927   5.754   4.125   1.756 -0.2928  0.8422  3.4541
 5818SOL    HW229928   5.637   4.239   1.746 -1.1849 -0.1291  2.6210
 5819SOL     OW29929   8.023   3.961   8.578 -0.4183  0.2064  0.2844
 5819SOL    HW129930   8.048   3.875   8.533 -3.1039  0.4604 -1.8645
 5819SOL    HW229931   8.064   4.038   8.528 -0.4647  0.3133  0.4085
 5820SOL     OW29932   2.238   5.767   7.651  0.3146  0.6428  0.0812
 5820SOL    HW129933   2.255   5.681   7.604  0.2359 -0.1180  1.4309
 5820SOL    HW229934   2.275   5.843   7.597 -0.7657 -0.1055 -1.7384
 5821SOL     OW29935   5.348   8.285   8.335 -0.5436 -0.1836 -0.0838
 5821SOL    HW129936   5.411   8.341   8.390 -0.4304  0.9232 -1.3220
 5821SOL    HW229937   5.334   8.197   8.380  1.7751 -0.3874  0.3083
 5822SOL     OW29938   2.564   1.720   7.667  0.8950 -0.0440  0.0913
 5822SOL    HW129939   2.652   1.675   7.650  0.6950 -1.0899  1.7345
 5822SOL    HW229940   2.577   1.798   7.727  0.5326 -0.9976  1.4293
 5823SOL     OW29941   1.984   2.946   5.447 -0.8112  0.3504  0.4522
 5823SOL    HW129942   2.045   3.025   5.438 -0.6136  0.0778 -0.7158
 5823SOL    HW229943   2.025   2.880   5.510  0.1686  0.1260 -0.3996
 5824SOL     OW29944   8.764   0.172   0.237  0.6907  0.3062 -0.4305
 5824SOL    HW129945   8.709   0.089   0.251 -1.2772  2.2765  4.6508
 5824SOL    HW229946   8.859   0.153   0.261  0.8794 -1.2053 -2.2272
 5825SOL     OW29947   2.219   5.907   1.715  0.2281  0.2607 -0.2278
 5825SOL    HW129948   2.177   5.997   1.728  2.0966  1.2193 -0.6254
 5825SOL    HW229949   2.318   5.915   1.727  0.2903 -2.0026  0.9698
 5826SOL     OW29950   8.805   0.833   7.507  0.3690  0.1449  0.0030
 5826SOL    HW129951   8.730   0.817   7.571  0.5315 -1.1504 -0.1029
 5826SOL    HW229952   8.772   0.884   7.428 -0.5439 -0.9665 -0.3433
 5827SOL     OW29953   0.122   6.993   6.893 -0.8782  0.0302  0.2956
 5827SOL    HW129954   0.037   7.036   6.923  0.1988  1.7713  0.9378
 5827SOL    HW229955   0.142   6.914   6.951 -2.2421 -0.6055 -0.0937
 5828SOL     OW29956   8.053   3.371   5.138 -0.0033  0.2410  0.2997
 5828SOL    HW129957   8.118   3.446   5.142 -1.1621  1.3033 -0.6875
 5828SOL    HW229958   7.979   3.387   5.204 -0.2774 -0.0120  0.0570
 5829SOL     OW29959   7.437   8.264   5.632 -0.1926 -0.3328 -0.1456
 5829SOL    HW129960   7.344   8.294   5.612 -0.1257 -0.3369 -0.4687
 5829SOL    HW229961   7.496   8.284   5.555  0.2822  0.5402  0.4365
 5830SOL     OW29962   4.868   7.943   1.929 -0.3710  1.0389  0.2229
 5830SOL    HW129963   4.830   7.903   2.013  0.0614  1.3014  0.5475
 5830SOL    HW229964   4.846   8.040   1.926  0.7571  1.3157  0.6942
 5831SOL     OW29965   4.866   3.259   8.101  0.2699 -0.9121 -0.1015
 5831SOL    HW129966   4.867   3.202   8.019 -0.5704  0.9504 -1.4268
 5831SOL    HW229967   4.777   3.249   8.146  1.0776 -2.6944  1.1588
 5832SOL     OW29968   3.349   8.890   1.666 -0.6932  0.2220 -0.4345
 5832SOL    HW129969   3.398   8.968   1.627  0.3203  1.1342  2.4991
 5832SOL    HW229970   3.413   8.831   1.714 -1.9894 -0.3042  0.6931
 5833SOL     OW29971   2.497   1.441   8.213 -0.0324  0.0990 -0.5754
 5833SOL    HW129972   2.561   1.369   8.240 -0.5624 -0.2743 -0.2861
 5833SOL    HW229973   2.506   1.459   8.115  0.5943  0.1320 -0.5102
 5834SOL     OW29974   8.994   3.219   3.692 -0.7742  0.6160  0.2388
 5834SOL    HW129975   8.903   3.204   3.654 -0.2397 -0.5507 -0.6040
 5834SOL    HW229976   9.027   3.135   3.734 -0.0944  1.0445  0.5754
 5835SOL     OW29977   2.961   1.220   7.020 -0.8952 -0.5998  0.3960
 5835SOL    HW129978   2.952   1.142   6.958 -1.0709  1.8397 -2.7401
 5835SOL    HW229979   2.911   1.298   6.983  1.3813  1.7849  2.1719
 5836SOL     OW29980   7.181   6.428   3.934 -0.3574 -0.3690 -0.3332
 5836SOL    HW129981   7.113   6.468   3.995  0.4002  0.4944 -0.0490
 5836SOL    HW229982   7.189   6.484   3.851 -1.5350 -1.6480 -1.3384
 5837SOL     OW29983   4.245   2.339   4.719  0.3012  0.3089  0.3167
 5837SOL    HW129984   4.313   2.396   4.766  0.1141  1.0579 -0.3062
 5837SOL    HW229985   4.227   2.377   4.628 -3.0049  1.7569  1.4907
 5838SOL     OW29986   5.493   2.093   1.060 -0.1241  0.0588  0.3074
 5838SOL    HW129987   5.475   2.185   1.026  0.8693 -0.8665 -2.8311
 5838SOL    HW229988   5.407   2.047   1.080 -0.6783  1.0375  0.1719
 5839SOL     OW29989   3.149   1.885   6.453  0.3659  0.1202  0.0693
 5839SOL    HW129990   3.175   1.844   6.540  0.7906  0.3402  0.0483
 5839SOL    HW229991   3.135   1.812   6.385  0.8201 -0.0052  0.1093
 5840SOL     OW29992   8.515   1.043   0.648 -0.1891  0.5598 -0.4112
 5840SOL    HW129993   8.589   1.084   0.702  0.8876 -1.8309  0.0047
 5840SOL    HW229994   8.460   0.983   0.706 -0.8555  0.2792 -1.3108
 5841SOL     OW29995   7.264   3.687   0.455  0.0289 -0.2799  0.0591
 5841SOL    HW129996   7.211   3.753   0.402  2.4428  2.5714  1.0601
 5841SOL    HW229997   7.352   3.671   0.410  0.1667 -1.5081  0.7421
 5842SOL     OW29998   2.591   1.130   6.895  0.3088 -0.6201  0.4320
 5842SOL    HW129999   2.599   1.101   6.991 -0.9078  0.4469  0.8701
 5842SOL    HW230000   2.585   1.050   6.837 -1.4348 -1.2830  1.4844
 5843SOL     OW30001   5.625   8.979   4.455 -0.4117  0.2654  0.4692
 5843SOL    HW130002   5.673   8.940   4.533 -1.3140  0.6110  1.2011
 5843SOL    HW230003   5.528   8.956   4.460 -0.5505  0.6553 -0.3195
 5844SOL     OW30004   3.228   3.223   4.762  0.2264 -0.8349  0.0264
 5844SOL    HW130005   3.129   3.236   4.767 -0.0207 -2.4548 -0.5402
 5844SOL    HW230006   3.256   3.155   4.830  0.9929 -0.1505  0.3989
 5845SOL     OW30007   3.795   1.308   2.606 -0.3073  0.3979 -0.2607
 5845SOL    HW130008   3.768   1.233   2.545 -1.3997  0.3199  0.3076
 5845SOL    HW230009   3.812   1.271   2.697 -0.8548  0.8484  0.0219
 5846SOL     OW30010   7.792   4.993   8.286  0.7102  0.4912 -0.4001
 5846SOL    HW130011   7.715   4.928   8.284  0.5702  0.6614 -0.5947
 5846SOL    HW230012   7.760   5.083   8.256  1.4663  0.0575 -2.6123
 5847SOL     OW30013   3.417   0.941   0.195 -0.0319  0.3724 -0.5022
 5847SOL    HW130014   3.401   0.865   0.131  2.8439 -0.4008 -0.3989
 5847SOL    HW230015   3.360   0.929   0.275  0.3719 -1.7330 -0.4928
 5848SOL     OW30016   8.156   8.059   6.921 -0.2677  0.3386 -0.1824
 5848SOL    HW130017   8.079   8.123   6.918  0.6699  1.4492 -2.4074
 5848SOL    HW230018   8.208   8.074   7.005 -0.0577  2.5736 -0.6562
 5849SOL     OW30019   4.946   0.027   5.721  0.3492  0.4257  0.2530
 5849SOL    HW130020   5.024   0.088   5.733  0.1860  0.5327  0.8070
 5849SOL    HW230021   4.864   0.069   5.761 -0.2137  0.7640 -1.1990
 5850SOL     OW30022   7.088   7.547   0.230 -0.0406  0.6177 -0.2333
 5850SOL    HW130023   7.110   7.449   0.235  0.3587  0.8068  2.2307
 5850SOL    HW230024   7.008   7.566   0.288  1.3676  2.1390  1.2521
 5851SOL     OW30025   8.595   4.706   6.476  0.4861 -0.5485 -0.1398
 5851SOL    HW130026   8.508   4.755   6.473  1.6265  1.3579 -3.1744
 5851SOL    HW230027   8.671   4.771   6.474  2.0066 -2.2909 -0.4563
 5852SOL     OW30028   4.736   7.711   6.551  0.0781  0.2712  0.5109
 5852SOL    HW130029   4.675   7.700   6.473  1.5154 -1.0594 -0.4599
 5852SOL    HW230030   4.683   7.707   6.636 -1.2863 -0.0439 -0.3399
 5853SOL     OW30031   3.064   4.363   1.463  0.7670  0.2304  0.5698
 5853SOL    HW130032   3.144   4.389   1.517  1.6488  0.1480 -0.6713
 5853SOL    HW230033   3.087   4.285   1.405  0.4484  1.5829 -1.4101
 5854SOL     OW30034   1.531   4.148   8.129 -0.1692 -0.4125  0.1788
 5854SOL    HW130035   1.442   4.184   8.159 -0.3935 -0.0761 -0.8385
 5854SOL    HW230036   1.594   4.224   8.115 -0.7872 -0.3055 -2.4346
 5855SOL     OW30037   0.669   6.933   1.053  0.0847  0.2129  0.1406
 5855SOL    HW130038   0.683   6.860   0.986  0.2501  0.5283 -0.1667
 5855SOL    HW230039   0.611   7.004   1.014 -1.5322 -0.5791  1.0344
 5856SOL     OW30040   1.600   2.574   3.512 -0.2535 -0.0024  0.0985
 5856SOL    HW130041   1.637   2.534   3.428  1.3942  0.2245  0.7110
 5856SOL    HW230042   1.643   2.663   3.529  0.1483 -0.4924  1.7210
 5857SOL     OW30043   6.388   6.062   0.354  0.1728 -0.2272 -0.4168
 5857SOL    HW130044   6.445   6.036   0.276 -0.3220 -1.8029 -0.2697
 5857SOL    HW230045   6.426   6.145   0.396  2.0952 -0.9766 -0.6013
 5858SOL     OW30046   5.526   7.892   5.806 -0.5868  0.1059  0.3037
 5858SOL    HW130047   5.434   7.898   5.767 -0.2515 -0.9283 -0.6786
 5858SOL    HW230048   5.569   7.807   5.775  1.3419  1.4116 -0.6636
 5859SOL     OW30049   5.036   8.533   8.107 -0.5449 -0.8983  0.1335
 5859SOL    HW130050   5.130   8.531   8.141 -0.7611 -1.2566  0.7114
 5859SOL    HW230051   5.016   8.624   8.070 -0.4160 -0.3998  1.2638
 5860SOL     OW30052   0.235   5.620   5.550 -0.4978 -0.1373  0.0198
 5860SOL    HW130053   0.239   5.590   5.646  0.6581 -0.0072  0.0143
 5860SOL    HW230054   0.276   5.550   5.492 -5.3735 -2.4242 -0.9421
 5861SOL     OW30055   5.558   0.875   1.626 -0.2918 -0.0706 -0.3220
 5861SOL    HW130056   5.611   0.795   1.598 -0.1828 -0.2959  0.5150
 5861SOL    HW230057   5.480   0.846   1.681  1.1778  0.5373  2.2095
 5862SOL     OW30058   1.691   4.298   0.822  0.0876 -0.2349  0.0051
 5862SOL    HW130059   1.704   4.204   0.855  0.6110 -0.6229 -1.2839
 5862SOL    HW230060   1.745   4.361   0.877  1.6218 -0.9754 -0.6336
 5863SOL     OW30061   8.109   1.470   1.212 -0.1139 -0.0933  0.6948
 5863SOL    HW130062   8.088   1.454   1.309 -0.5643  1.7439  0.9253
 5863SOL    HW230063   8.029   1.447   1.157 -0.3485  0.2089  0.9038
 5864SOL     OW30064   5.061   7.520   3.521 -0.1179 -0.0339 -0.1074
 5864SOL    HW130065   4.988   7.584   3.493 -0.5807 -0.9841 -1.1249
 5864SOL    HW230066   5.149   7.568   3.520 -0.5330  0.7420 -0.3156
 5865SOL     OW30067   2.755   4.029   2.299  0.5046  0.1160  0.6399
 5865SOL    HW130068   2.831   4.015   2.362  0.4356 -0.4341  0.5998
 5865SOL    HW230069   2.669   4.035   2.351  0.3614 -1.0711  0.5378
 5866SOL     OW30070   0.649   4.840   2.637 -0.0288 -0.2075  0.0726
 5866SOL    HW130071   0.680   4.777   2.708  0.7727 -1.5163 -1.3875
 5866SOL    HW230072   0.652   4.794   2.548 -1.1289  1.3482 -0.7988
 5867SOL     OW30073   4.782   4.967   8.429 -0.2891  0.1767  0.2041
 5867SOL    HW130074   4.788   5.047   8.488 -0.1470  0.6179 -0.4047
 5867SOL    HW230075   4.715   4.983   8.357 -1.7280 -1.0297  1.2566
 5868SOL     OW30076   5.086   6.825   5.313  0.1925 -0.4871 -0.3856
 5868SOL    HW130077   4.987   6.841   5.316  0.4850  1.8992 -2.2109
 5868SOL    HW230078   5.108   6.743   5.367 -2.3293  0.9144  2.9210
 5869SOL     OW30079   5.252   2.182   8.365 -0.3576 -0.4981  0.2030
 5869SOL    HW130080   5.208   2.272   8.358  1.4740  0.3970 -0.0904
 5869SOL    HW230081   5.349   2.194   8.386 -0.3441 -2.4541  1.3527
 5870SOL     OW30082   2.533   6.026   6.883  0.2544  0.1519  0.6771
 5870SOL    HW130083   2.531   5.968   6.802  0.7752  0.5843  0.3531
 5870SOL    HW230084   2.457   6.002   6.943  0.1489 -0.4915  0.2865
 5871SOL     OW30085   3.579   4.601   7.501 -0.3410  0.4894 -0.3228
 5871SOL    HW130086   3.582   4.619   7.599 -1.7000 -0.0252 -0.1734
 5871SOL    HW230087   3.602   4.505   7.484 -2.1488  0.0442 -0.3196
 5872SOL     OW30088   6.912   6.514   1.970  0.2139  0.5541  0.3444
 5872SOL    HW130089   6.979   6.574   1.928  1.8179 -0.5936  1.2188
 5872SOL    HW230090   6.909   6.529   2.069  1.6891 -1.7647  0.7833
 5873SOL     OW30091   6.747   8.098   8.111 -0.0696 -0.2618  0.2294
 5873SOL    HW130092   6.827   8.061   8.064 -1.0128 -0.6775 -1.0709
 5873SOL    HW230093   6.702   8.166   8.053 -0.6258  0.0292  0.9854
 5874SOL     OW30094   8.644   6.140   4.885 -0.3031 -0.3758 -0.0096
 5874SOL    HW130095   8.545   6.151   4.892 -0.4184  0.1133 -2.3453
 5874SOL    HW230096   8.686   6.167   4.972 -2.1441 -0.0719  0.8187
 5875SOL     OW30097   6.683   0.302   3.548  0.3719 -0.1553  0.1326
 5875SOL    HW130098   6.596   0.351   3.539 -0.0375 -0.8350  0.3656
 5875SOL    HW230099   6.710   0.300   3.644 -0.0366 -1.1148  0.2294
 5876SOL     OW30100   3.657   3.322   0.308  0.3201 -0.0588 -0.5937
 5876SOL    HW130101   3.635   3.231   0.344  1.4655 -0.7090 -1.4787
 5876SOL    HW230102   3.581   3.384   0.324 -0.4202 -1.1407  0.1520
 5877SOL     OW30103   2.649   8.361   5.470  0.1418 -0.8152 -0.1251
 5877SOL    HW130104   2.600   8.283   5.508  0.4985 -1.0784 -0.1977
 5877SOL    HW230105   2.701   8.332   5.390 -1.8596  0.0709 -1.7739
 5878SOL     OW30106   4.054   4.827   7.868 -0.1821  0.0309 -0.6563
 5878SOL    HW130107   3.964   4.850   7.830 -1.0810  0.1489  1.4299
 5878SOL    HW230108   4.103   4.911   7.891  0.0885 -0.0426 -0.9675
 5879SOL     OW30109   1.852   5.959   5.720 -0.7020 -0.2007 -0.1705
 5879SOL    HW130110   1.849   5.917   5.629 -1.1342 -0.2693 -0.1272
 5879SOL    HW230111   1.761   5.995   5.742 -0.8782 -1.1433  0.6825
 5880SOL     OW30112   3.489   7.600   4.993  0.3069  0.0331 -0.0426
 5880SOL    HW130113   3.584   7.617   5.020  0.7989 -0.1997 -1.5638
 5880SOL    HW230114   3.485   7.516   4.938 -0.8961 -0.3465  0.5990
 5881SOL     OW30115   5.241   8.699   7.205  0.6908  0.4569  0.2111
 5881SOL    HW130116   5.162   8.653   7.166  0.2440 -0.7884  2.5092
 5881SOL    HW230117   5.296   8.634   7.258  1.9910  1.8017  0.5671
 5882SOL     OW30118   8.127   6.689   7.082 -0.3296 -0.1504 -0.2111
 5882SOL    HW130119   8.184   6.755   7.130 -0.5639 -0.3107  0.2920
 5882SOL    HW230120   8.176   6.602   7.074  0.4160  0.4092 -1.8571
 5883SOL     OW30121   8.542   0.382   0.332  0.6675 -0.6421 -0.1323
 5883SOL    HW130122   8.630   0.335   0.342  0.6153 -1.1527 -1.8732
 5883SOL    HW230123   8.518   0.387   0.235 -1.8764 -1.7342  0.3986
 5884SOL     OW30124   7.337   5.907   3.785  0.1025 -0.1422 -0.4186
 5884SOL    HW130125   7.274   5.959   3.727  0.2272  0.1841 -0.2624
 5884SOL    HW230126   7.427   5.905   3.742 -0.2429 -1.4152 -1.1092
 5885SOL     OW30127   3.338   0.241   0.902  0.6762 -0.3777  0.6664
 5885SOL    HW130128   3.307   0.215   0.994 -1.5895  0.5342  0.1852
 5885SOL    HW230129   3.360   0.159   0.850  1.1331 -0.9493  1.7310
 5886SOL     OW30130   3.040   1.662   0.901 -0.0526  0.0466  0.2440
 5886SOL    HW130131   3.109   1.598   0.867 -0.0921  0.4169 -0.5543
 5886SOL    HW230132   2.965   1.612   0.943  1.0673 -0.3402  1.8320
 5887SOL     OW30133   6.892   6.217   0.551  0.2566 -0.3759 -0.5063
 5887SOL    HW130134   6.938   6.155   0.616 -0.7697 -0.2592  0.3397
 5887SOL    HW230135   6.943   6.219   0.465  1.3941 -0.8777  0.1457
 5888SOL     OW30136   3.307   5.609   7.128 -0.1660  0.3351 -0.2062
 5888SOL    HW130137   3.288   5.611   7.226  0.3047 -0.8731 -0.0724
 5888SOL    HW230138   3.247   5.542   7.084  0.2350  0.2258 -0.5929
 5889SOL     OW30139   4.899   6.872   7.794 -0.6630 -0.1659 -0.0425
 5889SOL    HW130140   4.862   6.964   7.813  1.3308  0.9784 -1.5237
 5889SOL    HW230141   4.863   6.839   7.707 -1.3984 -0.8175  0.5021
 5890SOL     OW30142   1.250   5.889   1.434 -0.3204 -0.4130 -0.4709
 5890SOL    HW130143   1.329   5.828   1.441  0.1471  0.1439 -0.8338
 5890SOL    HW230144   1.202   5.891   1.522  1.5808  1.2803  0.5522
 5891SOL     OW30145   3.602   4.921   2.217 -0.4841  0.0578  0.4719
 5891SOL    HW130146   3.695   4.903   2.249 -0.4896 -3.2348 -1.1408
 5891SOL    HW230147   3.541   4.933   2.295  1.1143  1.2232  1.5532
 5892SOL     OW30148   1.740   6.809   8.529 -0.4028  1.1353 -0.0408
 5892SOL    HW130149   1.811   6.768   8.471 -1.2365 -0.2572 -0.1177
 5892SOL    HW230150   1.673   6.855   8.471 -1.0150  0.0975 -0.1715
 5893SOL     OW30151   5.392   1.072   4.320 -0.1619 -0.6401 -0.0003
 5893SOL    HW130152   5.404   0.995   4.382  2.2114 -0.6196 -0.4180
 5893SOL    HW230153   5.414   1.157   4.366  2.7316 -0.7211 -1.1649
 5894SOL     OW30154   1.458   7.119   0.232  0.4142  0.0181 -0.0180
 5894SOL    HW130155   1.480   7.217   0.234  2.4425 -0.4424  2.0348
 5894SOL    HW230156   1.360   7.106   0.246  0.5032  1.6629  2.3523
 5895SOL     OW30157   6.404   0.586   1.939  0.4951  0.0557 -1.0183
 5895SOL    HW130158   6.439   0.658   1.879  1.3101 -0.5560 -1.3016
 5895SOL    HW230159   6.372   0.625   2.024  0.1362  0.8461 -1.5154
 5896SOL     OW30160   5.022   8.106   2.175 -0.5780 -0.5604 -0.0529
 5896SOL    HW130161   5.121   8.111   2.190 -0.6519 -1.3160  0.6797
 5896SOL    HW230162   5.001   8.034   2.109 -0.8285 -2.0637  1.6386
 5897SOL     OW30163   4.833   7.670   3.498 -0.1823  0.1101 -0.0210
 5897SOL    HW130164   4.861   7.707   3.410 -1.1325  0.6858 -0.0869
 5897SOL    HW230165   4.760   7.602   3.484  0.6380 -0.8366  0.2077
 5898SOL     OW30166   8.886   6.511   5.612 -0.2309 -0.3093 -0.3182
 5898SOL    HW130167   8.826   6.502   5.532  0.4515 -1.1139 -0.7423
 5898SOL    HW230168   8.830   6.522   5.694 -0.9470  2.7549 -1.1306
 5899SOL     OW30169   7.633   0.208   3.843 -0.6321  0.5394 -0.5627
 5899SOL    HW130170   7.688   0.127   3.823 -2.1254 -0.9515  1.2075
 5899SOL    HW230171   7.538   0.182   3.856 -0.7576  2.2343  2.3726
 5900SOL     OW30172   1.092   2.641   8.507 -0.2427 -0.8803  0.2966
 5900SOL    HW130173   1.114   2.555   8.460 -3.7596 -1.7709  0.1589
 5900SOL    HW230174   1.067   2.621   8.602 -0.1669  0.0923  0.5241
 5901SOL     OW30175   8.476   5.450   6.872 -0.2373  0.1864  0.2038
 5901SOL    HW130176   8.467   5.537   6.824 -1.1204 -0.0598 -0.0774
 5901SOL    HW230177   8.560   5.451   6.926  0.7129  0.5366 -1.2269
 5902SOL     OW30178   2.953   2.120   7.371 -0.1482  0.2867  0.3505
 5902SOL    HW130179   2.937   2.056   7.446  0.6183  2.7375  2.6931
 5902SOL    HW230180   2.970   2.069   7.286  1.2409 -2.6139  2.2987
 5903SOL     OW30181   2.283   3.895   5.542 -0.9227  0.2764  0.4324
 5903SOL    HW130182   2.372   3.852   5.554 -0.6425  0.7776  0.1538
 5903SOL    HW230183   2.247   3.873   5.451 -0.2968  1.4929 -0.1280
 5904SOL     OW30184   8.862   1.320   4.079  0.2974  0.2109 -0.1792
 5904SOL    HW130185   8.933   1.369   4.028  1.4919 -2.9770 -1.7485
 5904SOL    HW230186   8.808   1.385   4.132  1.6835  3.1962 -2.2707
 5905SOL     OW30187   8.585   2.383   0.514 -0.3222  0.1694 -0.2036
 5905SOL    HW130188   8.637   2.338   0.587 -1.5547  1.2447  1.3564
 5905SOL    HW230189   8.512   2.322   0.482 -1.1794  0.5461  1.0131
 5906SOL     OW30190   3.995   1.173   6.840 -0.0822  0.0927 -0.0074
 5906SOL    HW130191   4.076   1.230   6.826  0.6725 -0.9848 -0.1515
 5906SOL    HW230192   4.023   1.086   6.882 -1.0749 -0.5473 -0.6522
 5907SOL     OW30193   7.830   4.297   8.173  0.4599  0.4501 -0.6711
 5907SOL    HW130194   7.875   4.318   8.086 -0.4801  1.1820 -0.9924
 5907SOL    HW230195   7.827   4.198   8.187  2.4796  0.4007 -0.4670
 5908SOL     OW30196   4.761   8.719   8.738  0.1632  0.5843  0.1206
 5908SOL    HW130197   4.777   8.696   8.642 -2.0525 -2.2659  0.3416
 5908SOL    HW230198   4.848   8.718   8.787  0.8699 -2.0702 -1.0708
 5909SOL     OW30199   1.258   5.517   8.980 -0.4642  0.2227  0.2761
 5909SOL    HW130200   1.309   5.603   8.977 -0.1691  0.0535  0.3943
 5909SOL    HW230201   1.247   5.488   9.075  0.6135 -0.5573  0.1879
 5910SOL     OW30202   0.556   3.326   6.384  0.6633  0.0902 -0.2216
 5910SOL    HW130203   0.468   3.320   6.433  0.4067  0.2799 -0.6508
 5910SOL    HW230204   0.553   3.405   6.323  0.3224 -1.1695 -1.8515
 5911SOL     OW30205   2.659   0.373   5.467  0.7293  0.1844  0.0552
 5911SOL    HW130206   2.570   0.335   5.492 -0.6643  2.6598 -0.9279
 5911SOL    HW230207   2.715   0.386   5.549  0.0295 -0.9949  0.7250
 5912SOL     OW30208   5.640   3.015   3.188 -0.5362  0.0994 -0.4911
 5912SOL    HW130209   5.563   2.954   3.170  0.0211 -1.0169  0.8823
 5912SOL    HW230210   5.726   2.963   3.186  0.0602  1.0672 -0.5456
 5913SOL     OW30211   4.961   1.568   2.147 -0.0432  0.5059  0.2438
 5913SOL    HW130212   4.891   1.630   2.112 -1.1173 -0.9812 -0.2770
 5913SOL    HW230213   5.051   1.602   2.120 -0.6870  1.1558 -1.1637
 5914SOL     OW30214   1.756   2.483   2.238  0.3261  0.4623  1.1807
 5914SOL    HW130215   1.836   2.426   2.256  0.0003 -0.2166  0.5251
 5914SOL    HW230216   1.683   2.460   2.302  0.3880  0.5480  1.2836
 5915SOL     OW30217   0.944   7.840   6.818 -0.2516  0.0244  0.5365
 5915SOL    HW130218   0.864   7.786   6.791  0.4205 -1.1550  0.8989
 5915SOL    HW230219   1.013   7.836   6.745  0.4378 -0.9035  1.2302
 5916SOL     OW30220   7.169   6.697   3.751 -0.0403 -0.7539 -0.6826
 5916SOL    HW130221   7.093   6.755   3.777 -0.9197 -1.8827 -0.6920
 5916SOL    HW230222   7.254   6.750   3.752 -0.5356  0.0433  1.2154
 5917SOL     OW30223   4.480   7.326   1.806 -0.5960  0.1629  0.0107
 5917SOL    HW130224   4.552   7.268   1.846 -3.0076 -1.3357  2.3119
 5917SOL    HW230225   4.440   7.279   1.728 -1.8647 -0.8712  1.2620
 5918SOL     OW30226   4.820   8.175   0.124  0.8373  0.2457 -0.5347
 5918SOL    HW130227   4.862   8.261   0.154 -1.8668  2.3508 -2.5312
 5918SOL    HW230228   4.784   8.127   0.203  0.9877  1.7188  0.4557
 5919SOL     OW30229   0.420   5.153   7.379  0.5580  0.3011 -0.4166
 5919SOL    HW130230   0.413   5.093   7.459 -0.1635  0.6501 -0.2137
 5919SOL    HW230231   0.491   5.222   7.394 -0.3015  1.0263  0.3652
 5920SOL     OW30232   7.757   3.507   2.000  0.3405  0.0626  0.5501
 5920SOL    HW130233   7.721   3.468   1.916 -0.0598 -0.2162  0.8444
 5920SOL    HW230234   7.840   3.459   2.027  0.0806 -0.3131  0.6873
 5921SOL     OW30235   1.128   6.301   1.346  0.3363 -0.1255 -0.4227
 5921SOL    HW130236   1.212   6.248   1.362  0.4429  0.4545  1.0411
 5921SOL    HW230237   1.058   6.274   1.412  0.3820  1.5103  0.3385
 5922SOL     OW30238   4.523   6.880   3.452  0.7357 -0.1376 -0.8153
 5922SOL    HW130239   4.586   6.956   3.435  0.8849  0.3034  1.6080
 5922SOL    HW230240   4.438   6.895   3.401  1.0154  1.3084 -0.8761
 5923SOL     OW30241   0.340   2.776   1.916  0.1885  0.0052 -0.1932
 5923SOL    HW130242   0.363   2.718   1.995  0.9123 -0.5564 -0.8108
 5923SOL    HW230243   0.395   2.748   1.837  1.5009  2.4025 -0.1545
 5924SOL     OW30244   7.720   7.758   4.264  0.2003  0.0122  0.9681
 5924SOL    HW130245   7.676   7.719   4.345  0.0212 -0.5259  0.6126
 5924SOL    HW230246   7.674   7.723   4.182  1.5635 -0.8850  0.5803
 5925SOL     OW30247   4.197   3.699   1.912  0.1342  0.2196 -0.1416
 5925SOL    HW130248   4.289   3.686   1.876 -0.2106  0.7347 -1.2487
 5925SOL    HW230249   4.142   3.751   1.846 -0.7974  0.3731  0.7311
 5926SOL     OW30250   3.071   2.121   1.269  0.2882 -0.4643 -0.0776
 5926SOL    HW130251   3.159   2.089   1.233  0.8522  0.5434  0.3799
 5926SOL    HW230252   3.054   2.077   1.357  0.6990 -0.0748  0.1960
 5927SOL     OW30253   8.995   5.202   4.308 -0.3178  0.5502 -0.3972
 5927SOL    HW130254   9.055   5.257   4.250 -0.3427  0.7844 -0.2027
 5927SOL    HW230255   9.012   5.225   4.404 -0.7560  0.6524 -0.3460
 5928SOL     OW30256   5.706   0.013   8.579  0.1134 -0.4457  0.2307
 5928SOL    HW130257   5.771   0.083   8.548 -0.0997  1.0162  2.8592
 5928SOL    HW230258   5.613   0.049   8.574 -0.1962 -1.3464 -0.4828
 5929SOL     OW30259   0.783   4.229   8.694 -0.2700 -0.2609  0.4944
 5929SOL    HW130260   0.742   4.278   8.772  0.9831  1.1759  0.2818
 5929SOL    HW230261   0.856   4.169   8.727  0.6988  0.8374  0.3754
 5930SOL     OW30262   5.703   1.627   1.101  0.5478  0.4258 -0.3554
 5930SOL    HW130263   5.768   1.588   1.036  2.2389  1.3355  0.7478
 5930SOL    HW230264   5.683   1.722   1.077  1.8549  1.0453  0.9013
 5931SOL     OW30265   3.414   2.103   2.725  0.0672 -0.2439 -0.2168
 5931SOL    HW130266   3.481   2.036   2.692 -0.5182 -1.1839  0.4670
 5931SOL    HW230267   3.341   2.113   2.658 -1.0563 -2.0602  0.6623
 5932SOL     OW30268   4.820   1.991   1.905  0.0529 -0.1416 -0.1670
 5932SOL    HW130269   4.725   2.002   1.874  0.2879  1.6243 -0.3148
 5932SOL    HW230270   4.875   2.068   1.873  1.3426 -0.6794  0.6908
 5933SOL     OW30271   5.555   3.384   7.789 -0.3238 -0.0757 -0.4940
 5933SOL    HW130272   5.586   3.299   7.830  0.7514  0.3227 -0.4566
 5933SOL    HW230273   5.486   3.365   7.719 -0.0243 -0.9765 -0.5428
 5934SOL     OW30274   3.128   8.582   8.801 -1.0099 -0.3213  0.2152
 5934SOL    HW130275   3.198   8.520   8.764 -2.7239 -1.4758 -1.1374
 5934SOL    HW230276   3.126   8.574   8.900  2.9691  2.0911  0.6255
 5935SOL     OW30277   2.049   0.675   7.911 -0.5578  0.1365  0.9425
 5935SOL    HW130278   2.074   0.758   7.862  0.2761 -1.1735 -0.9226
 5935SOL    HW230279   2.052   0.597   7.849  0.0152 -1.5078  2.9532
 5936SOL     OW30280   5.242   5.198   3.398 -0.5067 -0.0147  0.0661
 5936SOL    HW130281   5.184   5.261   3.345 -2.4260 -0.6563  1.3585
 5936SOL    HW230282   5.307   5.250   3.453 -1.2835  0.8060  0.2148
 5937SOL     OW30283   0.817   3.673   0.827 -0.0136 -0.4686  0.1860
 5937SOL    HW130284   0.728   3.719   0.826  1.4242  2.3880 -0.3858
 5937SOL    HW230285   0.847   3.661   0.921  1.3525  3.4012  0.3322
 5938SOL     OW30286   5.480   3.550   3.800  0.2475 -0.0255  0.2572
 5938SOL    HW130287   5.451   3.478   3.737 -1.6396  0.4601  0.5436
 5938SOL    HW230288   5.538   3.510   3.871 -0.7673 -1.2807  0.4059
 5939SOL     OW30289   2.307   2.433   4.085  0.0777 -0.1988 -0.1189
 5939SOL    HW130290   2.244   2.501   4.123 -0.8094 -0.1301 -1.6745
 5939SOL    HW230291   2.398   2.446   4.124 -0.9420 -0.5414  2.4466
 5940SOL     OW30292   0.510   7.611   7.997 -0.0251 -0.6985 -0.6596
 5940SOL    HW130293   0.608   7.611   7.981  0.1620  1.5415  0.2879
 5940SOL    HW230294   0.488   7.544   8.069  1.0599  0.1670  0.5019
 5941SOL     OW30295   2.150   7.206   7.718  0.0787  0.0718 -0.1580
 5941SOL    HW130296   2.067   7.235   7.670  0.4227  0.4082 -0.5548
 5941SOL    HW230297   2.146   7.237   7.813 -1.7094 -2.6863  0.7105
 5942SOL     OW30298   4.925   8.792   8.432 -0.0502  0.3881 -0.6951
 5942SOL    HW130299   4.919   8.883   8.472 -0.4987 -0.9783  2.4962
 5942SOL    HW230300   5.017   8.777   8.395  0.8576  1.1693  1.1980
 5943SOL     OW30301   3.037   7.145   5.321 -0.0567  0.2277  0.2053
 5943SOL    HW130302   3.053   7.218   5.387 -1.1624 -1.8951  2.9042
 5943SOL    HW230303   3.122   7.092   5.309  0.2854  0.9255 -0.4778
 5944SOL     OW30304   3.368   3.598   3.981  0.3708 -0.0576 -0.4516
 5944SOL    HW130305   3.350   3.508   3.940 -1.0052 -0.6838  1.4342
 5944SOL    HW230306   3.437   3.588   4.052 -1.2921 -0.0561  1.2110
 5945SOL     OW30307   8.455   3.138   4.556  0.0584  0.3161  0.1396
 5945SOL    HW130308   8.495   3.136   4.465 -0.7500  2.7133 -0.3004
 5945SOL    HW230309   8.505   3.202   4.614  1.1328 -1.8655  1.6839
 5946SOL     OW30310   4.977   5.517   2.357  0.3086 -0.3576  0.3854
 5946SOL    HW130311   5.044   5.576   2.313 -0.4023 -0.0856 -0.3390
 5946SOL    HW230312   4.973   5.538   2.454 -0.8206  1.6463 -0.0684
 5947SOL     OW30313   3.614   1.556   7.047 -0.5593  0.7302 -0.3481
 5947SOL    HW130314   3.649   1.493   6.978 -1.5486 -0.9585  0.6391
 5947SOL    HW230315   3.527   1.521   7.082  0.0464  1.4093  1.9105
 5948SOL     OW30316   2.029   4.157   2.079 -0.0258  0.7427 -0.1103
 5948SOL    HW130317   2.029   4.224   2.006 -2.1055 -1.3461 -2.1070
 5948SOL    HW230318   1.947   4.168   2.135 -0.0391  0.3120 -0.0402
 5949SOL     OW30319   0.744   0.005   6.066 -0.5558  0.5402 -0.1249
 5949SOL    HW130320   0.808  -0.030   5.998  0.2589  1.6238  0.0667
 5949SOL    HW230321   0.689  -0.070   6.103  1.3745 -0.5787  0.5341
 5950SOL     OW30322   7.522   5.857   4.561 -0.5275 -0.7809  0.0808
 5950SOL    HW130323   7.513   5.907   4.647 -2.4726 -0.4653 -0.2846
 5950SOL    HW230324   7.494   5.916   4.485 -0.8884 -1.7571 -0.5555
 5951SOL     OW30325   1.261   4.054   5.143 -0.1934 -0.0149  0.2372
 5951SOL    HW130326   1.207   4.132   5.112  0.9407 -0.5119 -3.1715
 5951SOL    HW230327   1.347   4.051   5.092 -0.1521 -3.4062  0.4342
 5952SOL     OW30328   0.646   5.298   8.058 -0.3595  0.0950 -0.1019
 5952SOL    HW130329   0.697   5.257   8.134  0.1464 -0.8548 -0.9340
 5952SOL    HW230330   0.705   5.364   8.011 -0.8703  1.1275  0.6784
 5953SOL     OW30331   4.320   4.018   1.929  0.2314  0.7452  0.0585
 5953SOL    HW130332   4.331   3.986   1.835 -0.7091  0.8808 -0.0994
 5953SOL    HW230333   4.223   4.029   1.950  0.3507 -1.1378  1.6831
 5954SOL     OW30334   2.380   1.733   6.549 -0.6018  0.1427 -0.2654
 5954SOL    HW130335   2.386   1.813   6.609 -0.0807  1.5129 -2.1187
 5954SOL    HW230336   2.285   1.717   6.523 -0.9528 -0.9780  1.5608
 5955SOL     OW30337   1.580   0.737   7.376  0.1068  0.0937  0.3320
 5955SOL    HW130338   1.662   0.694   7.414 -0.0953 -0.8381 -0.2817
 5955SOL    HW230339   1.499   0.685   7.403 -0.5611  2.4169  3.0716
 5956SOL     OW30340   5.342   5.173   5.704 -0.4961  0.3640  0.2736
 5956SOL    HW130341   5.424   5.122   5.731 -0.6772 -0.3879 -0.5916
 5956SOL    HW230342   5.345   5.264   5.746  0.0553 -0.1784  1.4407
 5957SOL     OW30343   3.919   2.982   7.985 -0.0002  0.0859  0.7346
 5957SOL    HW130344   3.995   2.956   8.044  2.2245  1.2414 -1.5133
 5957SOL    HW230345   3.872   3.061   8.023  0.9026  0.3246  1.3685
 5958SOL     OW30346   4.804   1.376   3.527  0.1934  0.1806  0.7332
 5958SOL    HW130347   4.719   1.351   3.573  0.8077 -0.6972  1.4266
 5958SOL    HW230348   4.801   1.344   3.433 -1.7340  3.4246 -0.3775
 5959SOL     OW30349   8.357   0.044   0.835  0.2069  0.4316  0.2658
 5959SOL    HW130350   8.414   0.091   0.767 -0.1751  1.6339  0.7639
 5959SOL    HW230351   8.320   0.111   0.899  0.6267 -0.6958  1.7142
 5960SOL     OW30352   7.486   5.537   0.028 -0.3607 -0.2500  0.1133
 5960SOL    HW130353   7.440   5.465  -0.024  0.2008 -0.5116 -0.0205
 5960SOL    HW230354   7.462   5.528   0.125 -1.4506  0.2749 -0.0997
 5961SOL     OW30355   4.212   2.755   5.573 -0.1830 -0.2796 -0.3403
 5961SOL    HW130356   4.283   2.820   5.601 -0.7324  0.1846 -0.0025
 5961SOL    HW230357   4.126   2.779   5.617 -1.0923  0.5036 -2.4964
 5962SOL     OW30358   5.643   3.323   5.418 -0.3048 -0.4124  0.7499
 5962SOL    HW130359   5.582   3.390   5.460 -1.5412 -0.9786 -0.1375
 5962SOL    HW230360   5.707   3.371   5.358 -1.8061 -0.0921 -0.6339
 5963SOL     OW30361   8.617   3.051   6.333 -0.3881  0.0310 -0.5370
 5963SOL    HW130362   8.558   3.092   6.263 -1.8098  0.1855  0.7190
 5963SOL    HW230363   8.651   3.124   6.394 -0.0383 -0.2400 -0.4057
 5964SOL     OW30364   6.645   8.474   4.407  0.3543  0.1979 -0.1183
 5964SOL    HW130365   6.707   8.530   4.353 -0.6549  0.7814 -0.6833
 5964SOL    HW230366   6.691   8.447   4.492  1.4241  0.4955 -0.5890
 5965SOL     OW30367   3.888   1.417   7.745  0.5720 -0.5124  0.1378
 5965SOL    HW130368   3.792   1.424   7.718 -0.1394 -0.8574  2.4206
 5965SOL    HW230369   3.942   1.384   7.668 -1.0193  0.3677 -1.3965
 5966SOL     OW30370   1.949   1.848   6.084 -0.2904  0.4274  0.3420
 5966SOL    HW130371   1.921   1.874   5.992 -1.3312  1.8239  1.0322
 5966SOL    HW230372   1.885   1.780   6.120 -0.7793  1.0206  0.6026
 5967SOL     OW30373   4.951   5.100   3.555 -0.0331  0.1938  0.3072
 5967SOL    HW130374   5.049   5.080   3.562 -0.6527 -2.6538  1.4117
 5967SOL    HW230375   4.937   5.172   3.487  2.6932 -0.5822 -1.1563
 5968SOL     OW30376   4.899   2.760   3.252 -0.4430  0.8742  0.0073
 5968SOL    HW130377   4.952   2.843   3.266 -0.9803  1.1544  0.4328
 5968SOL    HW230378   4.880   2.717   3.341 -0.6733  0.6181 -0.1635
 5969SOL     OW30379   1.910   7.651   5.955 -0.2077  0.4204 -0.9016
 5969SOL    HW130380   1.885   7.661   6.052  0.0943 -1.9998 -0.5496
 5969SOL    HW230381   2.008   7.664   5.944 -0.1970  0.3897 -0.8401
 5970SOL     OW30382   4.423   1.174   4.910  0.1685  0.4324 -0.0824
 5970SOL    HW130383   4.387   1.264   4.884  1.6057  0.8896 -0.5386
 5970SOL    HW230384   4.483   1.184   4.989  0.3765 -0.1172 -0.1683
 5971SOL     OW30385   3.413   5.833   0.160  0.1204  0.4824 -0.1741
 5971SOL    HW130386   3.397   5.845   0.062 -2.1932  1.6784  0.3099
 5971SOL    HW230387   3.423   5.923   0.204 -0.0088  0.0002  0.8658
 5972SOL     OW30388   2.025   0.286   0.999  0.0545  0.2990  0.0684
 5972SOL    HW130389   2.095   0.281   1.071  0.6640  1.8291 -0.4035
 5972SOL    HW230390   2.070   0.286   0.909 -0.6540 -0.5403 -0.2922
 5973SOL     OW30391   2.844   7.173   5.136 -0.3075 -0.0890 -0.4995
 5973SOL    HW130392   2.917   7.167   5.204  0.4538  0.5232 -1.2581
 5973SOL    HW230393   2.766   7.222   5.175  0.0091  0.0034  0.0234
 5974SOL     OW30394   6.699   4.256   3.839  0.6111  0.4757 -0.1096
 5974SOL    HW130395   6.729   4.273   3.745 -1.7804  0.5554 -0.8782
 5974SOL    HW230396   6.780   4.240   3.897  2.0503 -0.9345 -2.4129
 5975SOL     OW30397   0.418   3.678   5.043 -0.3255 -0.4573 -0.1036
 5975SOL    HW130398   0.502   3.693   4.989  0.7819  0.5807  1.8431
 5975SOL    HW230399   0.442   3.668   5.139 -2.4355 -0.5146  0.4380
 5976SOL     OW30400   8.692   4.866   2.764  0.0184  0.1300 -0.4867
 5976SOL    HW130401   8.760   4.936   2.785  0.1531 -1.0418  3.4650
 5976SOL    HW230402   8.726   4.806   2.691  2.0335  1.2145 -0.4664
 5977SOL     OW30403   1.850   5.686   2.964  1.0822  0.4709 -0.1680
 5977SOL    HW130404   1.887   5.613   3.021  2.1108  0.3314 -1.0014
 5977SOL    HW230405   1.750   5.686   2.972  0.9965 -1.5404 -0.7591
 5978SOL     OW30406   7.951   7.032   1.549  0.3064  0.0481 -0.2126
 5978SOL    HW130407   8.036   7.059   1.504 -0.1485  0.6651 -0.7038
 5978SOL    HW230408   7.927   6.939   1.522  0.2363  0.2769 -0.9447
 5979SOL     OW30409   8.569   3.092   8.834 -0.0387  0.0090 -0.2387
 5979SOL    HW130410   8.486   3.063   8.882 -0.7407 -0.6248 -1.8051
 5979SOL    HW230411   8.545   3.126   8.743  1.5517 -1.6001 -1.2927
 5980SOL     OW30412   4.116   4.319   4.478  0.2158 -0.1844  0.1525
 5980SOL    HW130413   4.055   4.349   4.552  0.9782  0.0369  0.6972
 5980SOL    HW230414   4.070   4.250   4.423 -1.0012  0.8777 -0.2000
 5981SOL     OW30415   8.202   2.689   7.395 -0.0089 -0.6253  0.2425
 5981SOL    HW130416   8.267   2.742   7.341  0.0434 -0.6502  0.2816
 5981SOL    HW230417   8.240   2.671   7.486  0.7191 -2.2469 -0.3635
 5982SOL     OW30418   4.622   2.779   4.623 -0.2067 -0.1077 -0.4238
 5982SOL    HW130419   4.572   2.809   4.704 -0.1794  1.4452 -0.9750
 5982SOL    HW230420   4.720   2.777   4.643  0.0526  2.9487 -1.2192
 5983SOL     OW30421   1.221   7.508   1.310 -1.0862  0.0492  0.1740
 5983SOL    HW130422   1.253   7.565   1.233 -2.5880  1.2029  0.3842
 5983SOL    HW230423   1.300   7.466   1.355 -0.0074  1.2538 -0.5441
 5984SOL     OW30424   8.250   5.711   7.012 -0.0576 -0.2185  0.3254
 5984SOL    HW130425   8.339   5.718   7.056 -0.3730 -1.9551  1.2999
 5984SOL    HW230426   8.261   5.721   6.913  0.9274  1.6340  0.6045
 5985SOL     OW30427   5.636   0.639   3.466  0.0483  0.1341  0.3034
 5985SOL    HW130428   5.650   0.718   3.406 -0.4285 -0.6645 -0.8629
 5985SOL    HW230429   5.704   0.642   3.540  1.4272  0.4709 -0.9398
 5986SOL     OW30430   5.222   0.068   7.937 -0.1381  0.2544  0.5710
 5986SOL    HW130431   5.199   0.044   7.843  0.3862  0.4152  0.4038
 5986SOL    HW230432   5.140   0.057   7.994 -0.6547  0.8867 -0.0376
 5987SOL     OW30433   4.693   5.800   4.363  0.2073  0.4429 -0.7083
 5987SOL    HW130434   4.598   5.778   4.386  0.3008 -0.6758 -1.3885
 5987SOL    HW230435   4.739   5.834   4.445 -0.1755 -1.1264  0.1945
 5988SOL     OW30436   6.635   6.225   6.929 -0.3414 -0.2098 -0.3866
 5988SOL    HW130437   6.593   6.167   6.860 -0.9291  0.6324 -0.7467
 5988SOL    HW230438   6.731   6.241   6.906 -0.2365 -0.8575 -0.3970
 5989SOL     OW30439   0.444   8.513   0.620  0.6399 -0.2023 -0.0502
 5989SOL    HW130440   0.374   8.578   0.590 -0.4844 -1.5470 -0.4249
 5989SOL    HW230441   0.462   8.526   0.717 -0.4737 -0.1275  0.1523
 5990SOL     OW30442   2.053   2.625   5.425 -0.7927 -0.1585  0.5188
 5990SOL    HW130443   2.149   2.614   5.402 -0.9218  0.0425 -0.1175
 5990SOL    HW230444   2.016   2.705   5.378 -1.4595 -0.6669  0.1773
 5991SOL     OW30445   5.005   6.597   7.779  0.2638  0.1008 -0.0008
 5991SOL    HW130446   4.975   6.690   7.801 -1.0943 -0.6539  1.4481
 5991SOL    HW230447   4.972   6.572   7.688 -0.8311  0.4365  0.2928
 5992SOL     OW30448   0.667   7.461   3.765  0.3998  0.3308 -0.1217
 5992SOL    HW130449   0.720   7.524   3.708 -0.0232  1.6975  0.9636
 5992SOL    HW230450   0.603   7.410   3.709  2.9233 -1.4518 -1.5019
 5993SOL     OW30451   8.432   4.810   3.143  0.5549 -0.5459 -0.0043
 5993SOL    HW130452   8.347   4.838   3.187  1.2048 -0.4858  1.2469
 5993SOL    HW230453   8.462   4.881   3.080 -0.4448 -0.6754 -0.6271
 5994SOL     OW30454   1.368   8.584   3.338  0.2040 -0.1629 -0.0295
 5994SOL    HW130455   1.467   8.587   3.344  0.1876  2.4693 -0.2019
 5994SOL    HW230456   1.328   8.625   3.421 -0.6465  2.0597 -1.4920
 5995SOL     OW30457   3.787   2.544   2.393  0.0620 -0.3824 -0.1694
 5995SOL    HW130458   3.777   2.445   2.399  1.7080 -0.5175  0.5499
 5995SOL    HW230459   3.725   2.587   2.459  0.5488 -0.9945  0.6911
 5996SOL     OW30460   7.419   5.288   5.539 -0.5379  0.1015  0.7139
 5996SOL    HW130461   7.367   5.294   5.454 -0.3543  0.1509  0.6064
 5996SOL    HW230462   7.423   5.192   5.568 -1.7592  0.2468  1.3864
 5997SOL     OW30463   1.480   6.386   8.575 -0.0777 -0.2950 -0.1300
 5997SOL    HW130464   1.482   6.486   8.569  0.3626 -0.2668  0.3911
 5997SOL    HW230465   1.521   6.357   8.662 -0.0092 -0.9365 -0.3713
 5998SOL     OW30466   3.520   0.867   2.556  0.3788  0.0947 -0.7222
 5998SOL    HW130467   3.487   0.808   2.483 -2.5070  1.3546 -0.4987
 5998SOL    HW230468   3.464   0.949   2.560  2.6364  1.6131  0.7288
 5999SOL     OW30469   0.950   2.876   6.294  0.2907 -0.5952 -0.1448
 5999SOL    HW130470   0.991   2.902   6.207 -0.0781  0.1790 -0.0928
 5999SOL    HW230471   0.961   2.777   6.308  0.0135 -0.7891 -1.2423
 6000SOL     OW30472   2.056   0.006   7.571  0.2829 -0.0052  0.0896
 6000SOL    HW130473   2.121  -0.026   7.502  0.9430  1.6295 -0.0662
 6000SOL    HW230474   1.968  -0.040   7.557 -0.4055  2.1906 -3.5062
 6001SOL     OW30475   5.993   2.095   1.589  0.1943 -0.5616  0.1945
 6001SOL    HW130476   5.897   2.077   1.567 -0.3442  1.1089  1.0990
 6001SOL    HW230477   6.037   2.010   1.618 -1.0586 -1.2983 -0.0263
 6002SOL     OW30478   3.535   1.540   2.036  0.0474 -0.3210  0.3785
 6002SOL    HW130479   3.453   1.567   1.986 -0.1457  0.9005  1.3428
 6002SOL    HW230480   3.511   1.515   2.129  0.8138  0.3334  0.7605
 6003SOL     OW30481   0.403   4.099   0.838 -0.0438  0.7386  0.5182
 6003SOL    HW130482   0.485   4.108   0.894  0.1760  0.6562  0.2119
 6003SOL    HW230483   0.322   4.121   0.892  0.1186  0.0869  1.0360
 6004SOL     OW30484   0.888   0.668   2.846 -0.0632 -0.6087  0.3417
 6004SOL    HW130485   0.979   0.668   2.804 -0.2106 -1.0075  0.0207
 6004SOL    HW230486   0.833   0.594   2.807  0.3958 -2.1529  2.5073
 6005SOL     OW30487   6.699   3.038   3.447 -0.3931 -0.4150 -0.1188
 6005SOL    HW130488   6.746   3.073   3.528  1.5065 -1.1361 -0.8760
 6005SOL    HW230489   6.708   2.939   3.444 -0.7318 -0.4231 -1.0558
 6006SOL     OW30490   1.253   3.569   7.033  0.1376  0.4346  0.6951
 6006SOL    HW130491   1.270   3.497   6.965 -0.2980  0.0285  1.0111
 6006SOL    HW230492   1.196   3.641   6.992 -0.6863 -0.1349  0.8259
 6007SOL     OW30493   5.025   1.690   6.941 -0.2831  0.2411 -0.1713
 6007SOL    HW130494   5.067   1.673   6.852  2.1246 -2.7761  1.4008
 6007SOL    HW230495   5.069   1.770   6.984  2.0995 -1.2681  0.3162
 6008SOL     OW30496   8.024   1.054   1.216 -0.2105  0.2959 -0.1002
 6008SOL    HW130497   8.023   0.967   1.265 -1.3293  0.6959  0.5973
 6008SOL    HW230498   8.103   1.057   1.155  0.6451 -0.6023  0.9610
 6009SOL     OW30499   6.188   4.122   7.713 -0.0401  0.3046 -0.3347
 6009SOL    HW130500   6.181   4.064   7.632 -0.3509  0.5230 -0.4623
 6009SOL    HW230501   6.147   4.074   7.791  1.7101 -0.5991  0.0695
 6010SOL     OW30502   6.130   2.352   2.289  0.5555  0.5401 -0.1616
 6010SOL    HW130503   6.226   2.343   2.315 -0.2103 -2.5234  1.9444
 6010SOL    HW230504   6.082   2.406   2.357  0.5079  1.0300 -0.5759
 6011SOL     OW30505   3.574   2.735   1.422 -0.1363  0.4462 -0.3533
 6011SOL    HW130506   3.652   2.768   1.476  0.6616  0.7982 -1.7040
 6011SOL    HW230507   3.489   2.765   1.466  0.5189  1.3851  0.3030
 6012SOL     OW30508   4.269   4.876   2.246  0.2514  0.1818 -0.3149
 6012SOL    HW130509   4.311   4.785   2.239  2.1075  0.6283  3.4999
 6012SOL    HW230510   4.177   4.874   2.207  0.3585 -3.2551 -0.5288
 6013SOL     OW30511   1.728   7.390   2.029 -0.2916  0.0042 -0.0651
 6013SOL    HW130512   1.826   7.369   2.034 -0.3335 -0.2380 -0.1992
 6013SOL    HW230513   1.676   7.313   2.067 -0.3684  0.9276  1.7471
 6014SOL     OW30514   1.810   8.392   8.537  0.3364  0.3606  0.2707
 6014SOL    HW130515   1.725   8.372   8.489  0.7587 -2.7639  0.6956
 6014SOL    HW230516   1.842   8.484   8.512 -3.0840  1.5628  0.0735
 6015SOL     OW30517   4.299   3.604   4.653  0.2366  0.3415 -0.7548
 6015SOL    HW130518   4.378   3.639   4.602 -0.5682  0.7404 -1.7449
 6015SOL    HW230519   4.253   3.680   4.699  0.6976  0.0432  0.2135
 6016SOL     OW30520   0.225   3.490   5.074 -0.0564 -0.1269  0.4347
 6016SOL    HW130521   0.283   3.571   5.066 -1.1692  0.8444  2.0117
 6016SOL    HW230522   0.283   3.410   5.093  1.2123 -0.0621 -2.7785
 6017SOL     OW30523   1.411   2.764   1.961  0.4283  0.0040 -0.1747
 6017SOL    HW130524   1.457   2.848   1.989  1.2801 -1.2566  2.3015
 6017SOL    HW230525   1.369   2.721   2.041 -0.9762 -1.3592 -1.6119
 6018SOL     OW30526   3.064   2.379   2.426  0.3585  0.1662 -0.7143
 6018SOL    HW130527   2.995   2.361   2.356  0.0116 -1.1350 -0.0480
 6018SOL    HW230528   3.020   2.389   2.515  0.9951 -0.2775 -0.3450
 6019SOL     OW30529   0.421   2.676   8.870 -0.0789 -0.5519 -0.1691
 6019SOL    HW130530   0.446   2.581   8.855  1.6201 -0.0349 -0.8218
 6019SOL    HW230531   0.424   2.725   8.782 -1.5641 -0.0236  0.0537
 6020SOL     OW30532   4.358   4.786   4.231 -0.2544 -0.0977 -0.0016
 6020SOL    HW130533   4.344   4.731   4.313  0.4735  0.6675  0.6464
 6020SOL    HW230534   4.323   4.737   4.151 -1.1225 -0.7760  0.7841
 6021SOL     OW30535   2.808   5.089   4.080  0.0250 -0.1054 -0.1125
 6021SOL    HW130536   2.790   5.009   4.023 -0.2169  0.7906 -1.3228
 6021SOL    HW230537   2.906   5.106   4.085  0.1247 -0.9091  0.7644
 6022SOL     OW30538   8.926   3.436   4.402 -0.5435  0.1176 -0.6599
 6022SOL    HW130539   8.894   3.467   4.313  2.0635  0.7353 -1.4261
 6022SOL    HW230540   8.939   3.336   4.400  0.1524  0.2176 -1.1899
 6023SOL     OW30541   3.786   7.950   6.794  0.2178 -0.2394 -0.4795
 6023SOL    HW130542   3.744   7.943   6.885  3.4465  0.4251  1.1187
 6023SOL    HW230543   3.715   7.938   6.725 -2.4538 -0.0794  2.0927
 6024SOL     OW30544   6.280   5.908   1.389 -0.4106 -0.0162 -0.4769
 6024SOL    HW130545   6.356   5.884   1.328 -1.3823 -0.7260 -1.4039
 6024SOL    HW230546   6.272   6.007   1.395  1.2398  0.0952  0.4387
 6025SOL     OW30547   6.020   5.450   5.832  0.6521 -0.1822  0.1396
 6025SOL    HW130548   6.076   5.532   5.820 -1.3878  1.0570 -1.1866
 6025SOL    HW230549   6.033   5.414   5.925  1.4692  1.7103  0.7774
 6026SOL     OW30550   5.265   5.823   1.152  0.1331  0.3195 -0.7147
 6026SOL    HW130551   5.305   5.886   1.219 -1.8819  0.7128  0.1834
 6026SOL    HW230552   5.312   5.832   1.065  2.6616 -0.0120  0.5512
 6027SOL     OW30553   8.786   0.274   8.990 -0.0957  0.0320  0.3908
 6027SOL    HW130554   8.715   0.236   8.930  0.3279  1.2384 -0.8878
 6027SOL    HW230555   8.770   0.243   9.084 -0.5047 -2.2465 -0.4003
 6028SOL     OW30556   1.942   3.257   5.727  0.4047  0.1981 -0.3143
 6028SOL    HW130557   1.944   3.314   5.809 -0.1611  0.0840 -0.2188
 6028SOL    HW230558   1.898   3.170   5.748  2.1381 -0.6780 -0.2070
 6029SOL     OW30559   5.265   7.684   3.604  0.4877 -0.6126 -0.2893
 6029SOL    HW130560   5.338   7.690   3.536  0.8367  0.7005  0.1954
 6029SOL    HW230561   5.209   7.767   3.600 -0.0089 -0.9098  0.4385
 6030SOL     OW30562   4.646   6.236   5.810  0.3874  0.1152  0.2597
 6030SOL    HW130563   4.644   6.177   5.730  1.0441 -0.8487  0.9357
 6030SOL    HW230564   4.561   6.226   5.862  0.5241 -0.2910  0.4064
 6031SOL     OW30565   1.430   4.843   0.331 -0.0226 -0.7369  0.8742
 6031SOL    HW130566   1.465   4.924   0.284  0.3692 -1.6496 -0.4508
 6031SOL    HW230567   1.479   4.830   0.417 -0.2699  0.5789  1.2131
 6032SOL     OW30568   7.980   3.438   6.403 -0.1775  0.4313 -0.1798
 6032SOL    HW130569   7.965   3.425   6.305 -1.6107 -0.8176  0.1889
 6032SOL    HW230570   7.957   3.532   6.428  1.9954  1.3232 -1.3487
 6033SOL     OW30571   2.301   4.479   5.934 -0.3946  0.3114  0.9493
 6033SOL    HW130572   2.298   4.459   6.031  2.9179  0.4404  1.1265
 6033SOL    HW230573   2.334   4.399   5.884  0.0878  0.9614  0.2071
 6034SOL     OW30574   6.890   3.205   6.112 -0.0022 -0.4700  0.3047
 6034SOL    HW130575   6.844   3.137   6.054 -0.3416 -1.2346  1.4667
 6034SOL    HW230576   6.823   3.250   6.171  0.4932 -0.4183  0.8343
 6035SOL     OW30577   5.698   2.907   2.647  0.1184  0.2971 -0.1963
 6035SOL    HW130578   5.703   2.913   2.547  2.0393  1.2676 -0.0509
 6035SOL    HW230579   5.774   2.852   2.682 -0.6842 -0.2557  0.7407
 6036SOL     OW30580   8.401   0.878   6.440  0.0731  0.4359 -0.1746
 6036SOL    HW130581   8.453   0.942   6.383  2.3207 -1.4676 -0.3487
 6036SOL    HW230582   8.406   0.786   6.400 -2.2077 -0.0918  0.6377
 6037SOL     OW30583   2.029   0.009   3.562  0.1236 -0.1810  0.5321
 6037SOL    HW130584   1.957  -0.059   3.573  0.5335 -0.6532  0.3231
 6037SOL    HW230585   2.118  -0.037   3.558  0.2859  0.2491 -1.1248
 6038SOL     OW30586   6.810   5.715   8.020  0.6771 -0.2775  0.6918
 6038SOL    HW130587   6.765   5.658   7.952 -0.4559 -0.0003  1.1924
 6038SOL    HW230588   6.743   5.778   8.060  1.2586 -0.6239  2.2637
 6039SOL     OW30589   6.786   4.318   0.438  0.2861  0.0071 -0.5612
 6039SOL    HW130590   6.869   4.301   0.386 -0.4942 -1.7896 -1.2392
 6039SOL    HW230591   6.781   4.255   0.515 -1.2018 -0.9403 -1.4195
 6040SOL     OW30592   3.555   7.250   1.029  0.3928 -0.7333  0.6404
 6040SOL    HW130593   3.472   7.305   1.035  1.2188  0.6562 -0.2514
 6040SOL    HW230594   3.532   7.156   1.003 -0.8137 -0.0799 -0.7034
 6041SOL     OW30595   1.731   1.585   2.843 -0.1710  0.2001  0.8069
 6041SOL    HW130596   1.750   1.579   2.941  1.8411  0.1778  0.4491
 6041SOL    HW230597   1.689   1.499   2.812  2.2028 -1.0957  1.0624
 6042SOL     OW30598   2.969   8.612   6.865 -0.1929  0.1373 -0.7598
 6042SOL    HW130599   3.001   8.542   6.800  2.5811  0.1640  0.4846
 6042SOL    HW230600   2.911   8.569   6.934 -1.1786 -0.3364 -1.8751
 6043SOL     OW30601   1.273   7.001   7.241  0.0077  0.1322  0.3348
 6043SOL    HW130602   1.189   7.045   7.273  0.7631  0.3058  2.1283
 6043SOL    HW230603   1.344   7.070   7.230  0.3541 -0.2240  0.3223
 6044SOL     OW30604   5.286   7.897   8.062  0.8304  0.1133  0.6443
 6044SOL    HW130605   5.338   7.844   8.129 -0.3153  0.0918  1.5425
 6044SOL    HW230606   5.275   7.991   8.095 -0.8726 -0.2382  1.1522
 6045SOL     OW30607   6.793   5.701   3.780 -0.5263  0.0251  0.1288
 6045SOL    HW130608   6.891   5.701   3.799 -0.6574 -2.1887  0.9114
 6045SOL    HW230609   6.772   5.631   3.712 -1.5467  0.6318 -0.2001
 6046SOL     OW30610   1.404   4.284   3.479  0.3287 -0.4463 -0.1036
 6046SOL    HW130611   1.476   4.260   3.413  0.8895  0.0699  0.3046
 6046SOL    HW230612   1.365   4.201   3.518 -0.2490 -0.7710 -1.3376
 6047SOL     OW30613   6.824   6.000   2.019  0.5075  0.1305 -0.1408
 6047SOL    HW130614   6.839   5.952   2.105  0.5851 -2.4302 -1.5266
 6047SOL    HW230615   6.906   6.053   1.996  1.1966 -0.6621  0.4366
 6048SOL     OW30616   3.092   5.403   4.524  0.1171 -0.1922  0.8705
 6048SOL    HW130617   3.189   5.429   4.524  0.1328 -0.2294 -0.3507
 6048SOL    HW230618   3.082   5.315   4.570  0.6356 -0.1306  1.1182
 6049SOL     OW30619   1.094   2.418   2.473 -0.1826 -0.4593 -0.0490
 6049SOL    HW130620   0.999   2.388   2.465 -0.1751 -0.0017 -2.4140
 6049SOL    HW230621   1.098   2.500   2.530 -1.3196 -0.0410 -0.5470
 6050SOL     OW30622   2.547   5.331   0.326 -0.0784  0.0880  0.1003
 6050SOL    HW130623   2.494   5.347   0.409 -0.8758 -1.5378 -0.0746
 6050SOL    HW230624   2.644   5.345   0.344 -0.0805 -1.8487  1.7373
 6051SOL     OW30625   5.482   0.558   1.729 -0.1130 -0.3884  0.7931
 6051SOL    HW130626   5.500   0.584   1.824  2.8661  1.2642 -0.1371
 6051SOL    HW230627   5.402   0.608   1.695 -0.8085 -0.5121  2.2147
 6052SOL     OW30628   3.129   4.028   5.954  0.1089  0.4632 -0.8461
 6052SOL    HW130629   3.102   3.989   5.866  0.4854 -1.5925 -0.0926
 6052SOL    HW230630   3.222   4.000   5.976  0.9438  3.0496 -0.9350
 6053SOL     OW30631   5.814   7.703   7.392  0.0067  0.2313  0.0247
 6053SOL    HW130632   5.907   7.737   7.400  0.0397 -0.1067  1.2279
 6053SOL    HW230633   5.802   7.625   7.453 -0.5852 -0.7814 -1.3746
 6054SOL     OW30634   4.441   3.552   3.860  0.4770  0.2412  0.5485
 6054SOL    HW130635   4.478   3.464   3.888  3.0836  0.7634 -1.1388
 6054SOL    HW230636   4.344   3.556   3.884 -0.3673 -4.0880 -1.5734
 6055SOL     OW30637   3.540   5.588   3.319  0.0813 -0.0322  0.4590
 6055SOL    HW130638   3.514   5.493   3.331 -3.0468  0.7600  0.2588
 6055SOL    HW230639   3.540   5.634   3.408 -2.5212  0.7549  0.0882
 6056SOL     OW30640   0.223   6.086   5.681  0.1664  0.3790  0.2441
 6056SOL    HW130641   0.140   6.065   5.630  0.8992  1.8146 -1.6103
 6056SOL    HW230642   0.260   6.173   5.649  2.5698 -0.4052  0.7786
 6057SOL     OW30643   5.790   8.951   6.602 -0.0687  0.1717  0.9184
 6057SOL    HW130644   5.869   8.995   6.560 -0.1767 -1.2414 -0.8165
 6057SOL    HW230645   5.711   9.012   6.596  0.1798  0.4175  0.0019
 6058SOL     OW30646   6.019   7.692   4.663 -0.5478 -0.1700  0.4720
 6058SOL    HW130647   6.028   7.605   4.613  0.2576  0.1543  0.0363
 6058SOL    HW230648   6.101   7.707   4.718 -0.2581  0.7820 -0.2077
 6059SOL     OW30649   7.947   3.146   7.054  0.1084  0.3259 -0.4049
 6059SOL    HW130650   7.980   3.198   6.975  0.3825  0.1618 -0.3989
 6059SOL    HW230651   8.015   3.077   7.079 -0.1289  0.1560 -0.2330
 6060SOL     OW30652   2.447   6.426   5.007 -0.0005  0.0470 -0.0997
 6060SOL    HW130653   2.448   6.371   4.923 -1.0951  1.5665 -1.1384
 6060SOL    HW230654   2.536   6.468   5.020 -0.0891  0.5493 -1.0321
 6061SOL     OW30655   8.915   8.388   6.949  0.1982  0.1483  0.1618
 6061SOL    HW130656   8.974   8.467   6.933  0.7693  0.0042  1.4448
 6061SOL    HW230657   8.894   8.343   6.863  0.7330  1.0883 -0.4650
 6062SOL     OW30658   8.201   1.021   0.138 -0.7272 -0.0628  0.2305
 6062SOL    HW130659   8.220   1.037   0.041 -0.7069 -2.3441 -0.1793
 6062SOL    HW230660   8.122   1.074   0.165  1.2911  3.2476 -0.1399
 6063SOL     OW30661   7.116   6.481   6.092 -0.2960  0.7401 -0.3507
 6063SOL    HW130662   7.210   6.478   6.059  0.2911  1.3498  1.2358
 6063SOL    HW230663   7.112   6.443   6.184 -1.6803  0.3637 -0.5565
 6064SOL     OW30664   2.525   5.092   4.613  0.3696  1.0805  0.1182
 6064SOL    HW130665   2.607   5.037   4.627  1.0581  1.7206 -1.3430
 6064SOL    HW230666   2.541   5.185   4.646 -0.6735  0.5417  2.2529
 6065SOL     OW30667   4.446   8.783   6.000  0.0149 -0.5564  0.1919
 6065SOL    HW130668   4.423   8.796   5.904  0.0766 -0.4754  0.1883
 6065SOL    HW230669   4.542   8.807   6.015  0.0217 -0.6272  0.2611
 6066SOL     OW30670   5.269   8.465   7.372  0.2396 -0.5683  0.2149
 6066SOL    HW130671   5.225   8.481   7.461 -0.3438  1.7682 -0.4498
 6066SOL    HW230672   5.365   8.441   7.386  0.5795  1.3604  1.4565
 6067SOL     OW30673   5.542   7.587   8.117  0.3668  0.3024 -0.4627
 6067SOL    HW130674   5.569   7.666   8.172  0.9056 -0.2685  0.0927
 6067SOL    HW230675   5.618   7.563   8.056  0.2123  0.1924 -0.6109
 6068SOL     OW30676   8.179   0.826   8.470 -0.3948  0.0129  0.5781
 6068SOL    HW130677   8.140   0.918   8.459 -1.4676 -0.1573  2.7586
 6068SOL    HW230678   8.113   0.767   8.516  0.2467 -1.9090 -0.8948
 6069SOL     OW30679   2.749   1.394   7.230  0.0250 -0.3545 -0.1244
 6069SOL    HW130680   2.664   1.445   7.234 -0.2472 -0.7195 -1.1361
 6069SOL    HW230681   2.790   1.404   7.139  1.4164  0.3915  0.5707
 6070SOL     OW30682   2.245   2.029   4.484  0.3150 -0.3594 -0.4207
 6070SOL    HW130683   2.165   1.971   4.499 -0.0635  0.5413  1.1249
 6070SOL    HW230684   2.318   1.975   4.441  0.4218 -2.3395  2.1494
 6071SOL     OW30685   5.266   0.561   7.709  0.0553  0.6041 -0.1168
 6071SOL    HW130686   5.314   0.560   7.621  0.5152 -0.4559  0.1313
 6071SOL    HW230687   5.315   0.620   7.773 -0.0975  1.1210 -0.4726
 6072SOL     OW30688   4.721   0.901   1.769  0.1870  0.0255  0.4277
 6072SOL    HW130689   4.627   0.867   1.776 -0.0276  0.2326 -1.3181
 6072SOL    HW230690   4.723   0.985   1.715  1.6198 -1.0938 -1.3123
 6073SOL     OW30691   4.550   1.522   3.958 -0.1749 -0.2272  0.2483
 6073SOL    HW130692   4.506   1.601   4.001 -0.1745 -0.5694  0.8836
 6073SOL    HW230693   4.647   1.540   3.946 -0.2011 -0.0770  0.2664
 6074SOL     OW30694   2.139   1.840   2.402 -0.2461  0.6470 -0.1631
 6074SOL    HW130695   2.103   1.802   2.487  1.8961 -1.0020  0.0682
 6074SOL    HW230696   2.080   1.814   2.326 -2.4777  2.6027  0.8812
 6075SOL     OW30697   1.018   2.138   4.027  0.1796 -0.1626  0.3057
 6075SOL    HW130698   0.989   2.119   4.121 -0.7769 -0.2871 -0.0050
 6075SOL    HW230699   1.040   2.235   4.018 -0.6919  0.0550  0.4215
 6076SOL     OW30700   0.604   3.806   2.745 -0.2462  0.0107 -0.1477
 6076SOL    HW130701   0.576   3.710   2.744 -0.1851 -0.0080 -1.3499
 6076SOL    HW230702   0.525   3.864   2.724 -0.4678  0.2868  1.3949
 6077SOL     OW30703   0.348   3.715   0.046  0.3768 -0.1096  0.0807
 6077SOL    HW130704   0.367   3.703  -0.052  1.9050  0.9873  0.2240
 6077SOL    HW230705   0.341   3.626   0.090 -0.5659 -0.6148 -1.0703
 6078SOL     OW30706   7.271   3.654   1.010 -0.4571 -0.5099 -0.4023
 6078SOL    HW130707   7.188   3.620   0.965 -0.6070  0.4469 -0.8797
 6078SOL    HW230708   7.279   3.753   0.993  0.3478 -0.4455  0.3265
 6079SOL     OW30709   4.838   1.554   7.621  0.3899 -0.0801  0.0469
 6079SOL    HW130710   4.895   1.560   7.704  2.4176  2.1064 -1.4481
 6079SOL    HW230711   4.811   1.646   7.592 -0.3467 -0.8273 -1.7078
 6080SOL     OW30712   1.601   8.063   7.324 -0.4143  0.4519 -0.9054
 6080SOL    HW130713   1.572   8.012   7.243 -0.9693  1.1323 -1.1417
 6080SOL    HW230714   1.523   8.074   7.386 -0.2112  0.7059 -0.6927
 6081SOL     OW30715   7.789   4.750   3.940  0.4071  0.0466 -1.0244
 6081SOL    HW130716   7.735   4.675   3.902 -1.1293  0.8995 -0.5385
 6081SOL    HW230717   7.763   4.836   3.895 -0.5874  0.8902  1.0850
 6082SOL     OW30718   1.294   5.922   8.561 -0.2617  0.0504 -0.2519
 6082SOL    HW130719   1.331   6.012   8.538 -0.7088  0.3516  0.1950
 6082SOL    HW230720   1.361   5.852   8.538  0.2429  0.5242 -0.2550
 6083SOL     OW30721   0.382   8.378   1.499 -0.8668  0.1214  0.2047
 6083SOL    HW130722   0.477   8.394   1.525  0.5479 -0.4250 -4.2312
 6083SOL    HW230723   0.334   8.465   1.491  0.6388  0.7856 -2.1263
 6084SOL     OW30724   1.085   5.407   6.719  0.0155  0.0090  0.2597
 6084SOL    HW130725   1.034   5.323   6.704 -0.3290 -0.2921  2.8000
 6084SOL    HW230726   1.120   5.408   6.813  2.6374  1.3016 -0.6771
 6085SOL     OW30727   1.822   4.835   0.505  0.3353  1.1672 -0.2615
 6085SOL    HW130728   1.855   4.924   0.474  0.2332  0.8632 -1.2671
 6085SOL    HW230729   1.850   4.765   0.440  0.1698  0.5034  0.3782
 6086SOL     OW30730   0.275   3.790   2.705  0.3479 -0.2850  0.1539
 6086SOL    HW130731   0.178   3.784   2.728  0.4800  1.5417  1.2631
 6086SOL    HW230732   0.325   3.717   2.752 -0.0783  0.5308  1.8835
 6087SOL     OW30733   3.644   4.057   7.876 -0.0661  0.8714  0.2344
 6087SOL    HW130734   3.603   3.968   7.900  3.7334 -1.5806 -1.8489
 6087SOL    HW230735   3.681   4.099   7.958  0.0947 -0.5669  0.9264
 6088SOL     OW30736   0.262   8.437   0.325  0.2048 -0.1970 -0.0816
 6088SOL    HW130737   0.337   8.388   0.371  1.8843  1.0473 -1.4281
 6088SOL    HW230738   0.293   8.466   0.234 -0.8781  3.0096  0.5333
 6089SOL     OW30739   4.363   8.433   8.756 -0.6330  0.0562  0.3826
 6089SOL    HW130740   4.305   8.352   8.749  0.3982 -0.5852 -1.0548
 6089SOL    HW230741   4.430   8.432   8.681  1.0419  0.9173  1.8458
 6090SOL     OW30742   0.874   4.703   6.636 -0.3684 -0.3569  0.0665
 6090SOL    HW130743   0.832   4.782   6.680 -0.4821  0.0490 -0.7688
 6090SOL    HW230744   0.969   4.724   6.613 -0.5290 -0.3026 -0.5579
 6091SOL     OW30745   5.210   1.864   4.368 -0.1940  0.4900  0.2168
 6091SOL    HW130746   5.247   1.941   4.420 -2.0597  1.5640  0.0354
 6091SOL    HW230747   5.236   1.874   4.272  0.5817  0.2371  0.3998
 6092SOL     OW30748   8.461   6.904   0.857  0.1835 -0.0698  0.4995
 6092SOL    HW130749   8.462   6.804   0.866  4.0790 -0.1941 -0.5811
 6092SOL    HW230750   8.456   6.929   0.761 -1.6717  0.8137  0.8115
 6093SOL     OW30751   7.791   3.533   8.418 -0.0445  0.0318 -0.2461
 6093SOL    HW130752   7.880   3.508   8.379  0.3572  1.1547 -0.0770
 6093SOL    HW230753   7.799   3.621   8.464 -1.0013 -0.3686  0.6942
 6094SOL     OW30754   0.014   4.959   2.083 -0.0773  0.0723 -0.5242
 6094SOL    HW130755   0.111   4.962   2.059  0.2442 -0.5153  0.6625
 6094SOL    HW230756  -0.013   5.046   2.126 -0.1947  0.4152 -1.2930
 6095SOL     OW30757   0.155   5.119   2.624 -0.1675 -0.2226  0.0654
 6095SOL    HW130758   0.198   5.030   2.644 -0.6078 -0.6378 -0.8192
 6095SOL    HW230759   0.181   5.148   2.532 -2.3972 -0.8400 -0.7755
 6096SOL     OW30760   6.142   1.421   6.744 -0.1751 -0.0139  0.3731
 6096SOL    HW130761   6.078   1.454   6.814 -0.9506  1.3165 -0.9328
 6096SOL    HW230762   6.092   1.404   6.659  0.9537 -0.4831 -0.1995
 6097SOL     OW30763   0.111   3.409   2.953  0.4854  0.0414  0.3011
 6097SOL    HW130764   0.057   3.440   2.875  0.3194  0.9856  0.7938
 6097SOL    HW230765   0.084   3.316   2.977 -0.9350  0.5099  0.5570
 6098SOL     OW30766   3.852   7.602   1.486 -0.0606 -0.0009 -0.5459
 6098SOL    HW130767   3.858   7.640   1.578 -0.4350 -0.8471 -0.1634
 6098SOL    HW230768   3.936   7.621   1.436  0.6191 -0.5691  0.3707
 6099SOL     OW30769   3.247   3.897   5.689  0.1948  0.3854 -0.2818
 6099SOL    HW130770   3.259   3.817   5.748  0.2673  0.0167 -0.7987
 6099SOL    HW230771   3.316   3.966   5.713  0.2974  0.1922 -0.0124
 6100SOL     OW30772   0.040   4.029   7.141 -0.0841  0.3785  0.0239
 6100SOL    HW130773   0.000   4.056   7.053  0.9766  0.6295 -0.3884
 6100SOL    HW230774   0.107   4.097   7.169 -0.9703  0.6876  1.4094
 6101SOL     OW30775   4.700   2.253   7.014 -0.0025 -0.0095 -0.3538
 6101SOL    HW130776   4.672   2.326   7.076  1.1114  0.3890 -0.3074
 6101SOL    HW230777   4.655   2.168   7.041  0.9994  0.0008  1.4277
 6102SOL     OW30778   7.034   3.238   3.464  0.2870 -0.1378  0.2638
 6102SOL    HW130779   7.116   3.259   3.516 -0.0667  0.6452  0.5143
 6102SOL    HW230780   6.973   3.180   3.519  0.7861 -0.9438 -0.0240
 6103SOL     OW30781   5.458   6.618   0.542  0.6746 -0.3041 -0.5025
 6103SOL    HW130782   5.434   6.679   0.618  0.9030 -1.3033  0.3885
 6103SOL    HW230783   5.479   6.527   0.578 -0.7846 -1.2332 -1.9059
 6104SOL     OW30784   6.932   2.654   1.973  0.3353 -0.2575  0.8617
 6104SOL    HW130785   7.027   2.685   1.978 -0.3291  1.6611  1.8525
 6104SOL    HW230786   6.883   2.681   2.055 -1.4591  0.1060 -0.2894
 6105SOL     OW30787   2.213   1.582   6.320  0.1975 -0.2779 -0.0336
 6105SOL    HW130788   2.121   1.543   6.322 -1.7771  4.0100 -0.6996
 6105SOL    HW230789   2.239   1.601   6.225  1.1526 -0.0720  0.2631
 6106SOL     OW30790   4.379   1.838   0.532  0.0941 -0.0544 -0.2757
 6106SOL    HW130791   4.424   1.868   0.617 -0.9281 -1.2910  0.7151
 6106SOL    HW230792   4.322   1.759   0.551 -1.4722  0.6865 -1.8052
 6107SOL     OW30793   5.247   7.249   1.755 -0.4194 -0.5961 -0.1956
 6107SOL    HW130794   5.229   7.168   1.810  2.4016 -0.6110  0.7986
 6107SOL    HW230795   5.179   7.256   1.682 -2.4552 -2.1923  1.4886
 6108SOL     OW30796   4.628   0.095   5.910 -0.0955  0.1602  0.1335
 6108SOL    HW130797   4.561   0.113   5.981 -2.4327 -1.7326 -1.4861
 6108SOL    HW230798   4.671   0.006   5.926  2.1611  1.3920  1.2040
 6109SOL     OW30799   2.640   2.674   0.196 -0.0298 -0.1030  0.0132
 6109SOL    HW130800   2.648   2.589   0.144  1.9880  0.7265 -1.0701
 6109SOL    HW230801   2.679   2.661   0.287  1.0709 -0.1031 -0.4521
 6110SOL     OW30802   5.740   0.959   7.489  0.1517 -0.0268 -0.2750
 6110SOL    HW130803   5.838   0.958   7.504  0.1362 -1.3585 -0.2208
 6110SOL    HW230804   5.697   1.027   7.548  0.8107 -0.7937  1.0934
 6111SOL     OW30805   1.408   5.897   2.414  0.1529 -0.4459 -0.6639
 6111SOL    HW130806   1.505   5.886   2.394  0.6913  0.3841  1.4370
 6111SOL    HW230807   1.383   5.993   2.404  0.0070 -0.3291  0.7466
 6112SOL     OW30808   8.831   2.828   6.986  0.6562 -0.3521 -0.1291
 6112SOL    HW130809   8.763   2.814   6.913 -0.5016  0.1120  0.8468
 6112SOL    HW230810   8.816   2.917   7.028 -0.0554 -1.4987  2.1031
 6113SOL     OW30811   4.911   4.283   5.262 -0.2457  0.1239 -0.3851
 6113SOL    HW130812   4.961   4.361   5.298  0.1401 -0.7867  1.1163
 6113SOL    HW230813   4.890   4.298   5.165 -1.1988  2.5910  0.1573
 6114SOL     OW30814   6.742   1.048   7.745 -1.0871  0.9112  0.1180
 6114SOL    HW130815   6.658   1.094   7.774 -1.4754 -0.3827  1.0442
 6114SOL    HW230816   6.783   1.001   7.823  0.5574  1.6125 -0.3061
 6115SOL     OW30817   2.921   2.479   3.705 -0.3199  0.2489 -0.1180
 6115SOL    HW130818   3.017   2.468   3.677 -0.6961 -1.3715 -0.7678
 6115SOL    HW230819   2.870   2.522   3.631 -0.7143 -1.5315 -0.9002
 6116SOL     OW30820   6.356   2.046   2.109 -0.5205 -0.9394 -0.4147
 6116SOL    HW130821   6.394   1.958   2.083 -0.3720 -0.7392 -0.8882
 6116SOL    HW230822   6.284   2.071   2.044  0.0566 -0.2966 -0.8252
 6117SOL     OW30823   1.500   4.458   5.618  0.1435 -0.0354 -0.1937
 6117SOL    HW130824   1.483   4.519   5.695  0.3446 -0.1938 -0.0256
 6117SOL    HW230825   1.593   4.422   5.623  0.0699 -0.2513 -0.3662
 6118SOL     OW30826   0.775   2.942   5.977 -0.2059  0.1126  0.1580
 6118SOL    HW130827   0.723   2.927   6.060  0.1566  1.0970  0.5730
 6118SOL    HW230828   0.758   2.867   5.912 -1.9438  0.3180  0.3669
 6119SOL     OW30829   6.578   4.289   7.569  0.1031  0.2515 -0.0506
 6119SOL    HW130830   6.520   4.370   7.558  2.3172  1.8711 -0.1579
 6119SOL    HW230831   6.639   4.303   7.647  0.1345 -1.5685  0.2629
 6120SOL     OW30832   7.089   2.976   1.688  0.2214  0.4573 -0.3022
 6120SOL    HW130833   7.030   2.895   1.685 -0.3351  0.8351  0.2808
 6120SOL    HW230834   7.182   2.951   1.662  0.3888 -0.6690  1.3393
 6121SOL     OW30835   4.973   3.535   2.474 -0.0605  0.1231  0.2049
 6121SOL    HW130836   5.072   3.541   2.464 -0.0821  0.1622  0.0052
 6121SOL    HW230837   4.944   3.588   2.554  0.2685 -1.3018  1.2934
 6122SOL     OW30838   7.357   7.868   7.327  0.0706 -0.1150  0.2605
 6122SOL    HW130839   7.432   7.827   7.379 -1.1465 -2.7321  0.0553
 6122SOL    HW230840   7.301   7.923   7.388 -0.6304 -2.1514  1.5067
 6123SOL     OW30841   8.879   4.219   7.423 -0.0878 -0.1058 -0.4451
 6123SOL    HW130842   8.907   4.123   7.434 -2.6006 -0.6598  1.5642
 6123SOL    HW230843   8.866   4.239   7.326  1.3850 -1.5045 -0.9603
 6124SOL     OW30844   4.281   2.478   2.556 -0.3502 -0.2446 -0.8365
 6124SOL    HW130845   4.332   2.563   2.543  2.6002 -1.7043  0.6288
 6124SOL    HW230846   4.205   2.494   2.619 -0.2585  1.4678 -1.1513
 6125SOL     OW30847   4.082   7.600   8.274 -0.3493 -0.5011  0.0694
 6125SOL    HW130848   4.144   7.563   8.343 -0.5123 -1.5505 -0.3401
 6125SOL    HW230849   4.028   7.526   8.234 -1.2931  0.2983 -0.1540
 6126SOL     OW30850   0.919   6.135   8.580 -0.5246 -0.4020  0.8866
 6126SOL    HW130851   0.902   6.071   8.655 -0.4226 -0.1090  1.1627
 6126SOL    HW230852   0.985   6.204   8.609  1.4940 -1.7663 -0.3185
 6127SOL     OW30853   4.784   7.291   3.551  0.0979  0.6844  0.5838
 6127SOL    HW130854   4.881   7.317   3.544 -0.0616  0.8915 -1.0016
 6127SOL    HW230855   4.751   7.312   3.643  0.9256  2.8304  0.4374
 6128SOL     OW30856   1.165   3.162   6.206 -0.0490  0.2201  0.1067
 6128SOL    HW130857   1.176   3.079   6.151 -0.4077 -1.5758  2.6606
 6128SOL    HW230858   1.085   3.213   6.173  0.2223 -0.3946 -1.5431
 6129SOL     OW30859   3.209   5.945   2.494 -0.2114 -0.0903  0.5436
 6129SOL    HW130860   3.163   5.974   2.411 -2.2736 -3.7810  0.2787
 6129SOL    HW230861   3.154   5.970   2.574  0.2447  0.6812  0.6245
 6130SOL     OW30862   4.457   2.608   5.399  0.1874  0.2575 -0.0997
 6130SOL    HW130863   4.479   2.681   5.463  0.2950 -0.7673  1.0550
 6130SOL    HW230864   4.418   2.647   5.316  1.9120  1.7388 -0.2389
 6131SOL     OW30865   0.861   0.521   3.070 -0.3237  0.1879 -0.4450
 6131SOL    HW130866   0.885   0.564   2.983  0.2402 -1.6817 -1.2485
 6131SOL    HW230867   0.764   0.497   3.070  0.0857 -1.5680 -1.3761
 6132SOL     OW30868   7.325   5.162   6.591  0.4386  0.1108  0.4573
 6132SOL    HW130869   7.245   5.182   6.534  0.5738  0.7387  0.4833
 6132SOL    HW230870   7.347   5.065   6.585 -1.4984 -0.4645  1.9290
 6133SOL     OW30871   1.883   3.648   7.122  0.2730  0.0245 -0.5187
 6133SOL    HW130872   1.819   3.687   7.188  0.6419  0.7271 -0.5695
 6133SOL    HW230873   1.939   3.721   7.083 -0.4237 -0.2981 -2.1444
 6134SOL     OW30874   1.239   2.547   3.463 -0.2849  0.7212 -0.3910
 6134SOL    HW130875   1.324   2.500   3.440 -0.5888  0.2210 -0.5157
 6134SOL    HW230876   1.212   2.606   3.387  0.7230  2.0128  0.2491
 6135SOL     OW30877   7.005   7.893   0.846 -0.0132 -0.5701  0.0145
 6135SOL    HW130878   7.034   7.799   0.864 -1.1765 -1.0701 -0.6526
 6135SOL    HW230879   7.007   7.946   0.931  1.6665 -0.8919  0.2075
 6136SOL     OW30880   8.210   8.720   6.488  0.3887  0.0140  0.1161
 6136SOL    HW130881   8.215   8.684   6.581 -1.0103 -2.7907 -0.8470
 6136SOL    HW230882   8.298   8.708   6.443  0.4919 -0.4090  0.4295
 6137SOL     OW30883   1.020   8.423   7.361  0.2512  0.2999  0.8118
 6137SOL    HW130884   1.072   8.343   7.392  1.4411 -0.1124 -2.0623
 6137SOL    HW230885   1.069   8.506   7.384  1.3762 -0.0256 -0.3217
 6138SOL     OW30886   4.738   7.871   0.653 -0.1001 -0.2641  0.2831
 6138SOL    HW130887   4.659   7.898   0.599  0.5558 -0.0610 -0.5791
 6138SOL    HW230888   4.726   7.902   0.748 -2.4586 -2.8891  0.9338
 6139SOL     OW30889   7.156   3.243   6.643  0.1935 -0.6050  0.0621
 6139SOL    HW130890   7.114   3.326   6.679  0.2694 -0.1817 -0.8252
 6139SOL    HW230891   7.121   3.224   6.552  1.2572 -0.7481 -0.3263
 6140SOL     OW30892   0.667   6.981   1.693 -0.2789  0.1561 -0.1821
 6140SOL    HW130893   0.691   6.968   1.789 -0.2949 -1.7023 -0.4208
 6140SOL    HW230894   0.748   7.011   1.642  0.0634 -0.2074  0.1488
 6141SOL     OW30895   4.060   3.800   1.689  0.5348  0.7727 -0.1949
 6141SOL    HW130896   3.995   3.876   1.694 -1.8832 -1.3234  0.6796
 6141SOL    HW230897   4.026   3.730   1.627  3.3542  0.8761 -1.9975
 6142SOL     OW30898   7.068   3.439   8.773  0.0517  0.0363 -0.2380
 6142SOL    HW130899   6.985   3.384   8.766  0.6168 -1.4094  3.3619
 6142SOL    HW230900   7.044   3.531   8.805 -0.3611  0.3919 -1.5133
 6143SOL     OW30901   7.847   6.984   8.139  0.3086  0.6047 -0.3470
 6143SOL    HW130902   7.807   6.991   8.230 -0.0791  0.2187 -0.4840
 6143SOL    HW230903   7.944   7.005   8.144  0.8967 -2.0656  0.6480
 6144SOL     OW30904   2.396   1.296   5.623  0.1376  0.5809  0.1987
 6144SOL    HW130905   2.419   1.201   5.645  2.1990  0.9318 -0.3549
 6144SOL    HW230906   2.361   1.341   5.705 -3.1464 -1.2748 -0.0886
 6145SOL     OW30907   8.000   2.018   0.366 -0.6119  0.4293  0.1945
 6145SOL    HW130908   7.957   1.930   0.349  1.0233 -0.2246 -0.6384
 6145SOL    HW230909   8.042   2.052   0.281  0.7431  0.9075  1.0341
 6146SOL     OW30910   1.561   0.935   7.905 -0.0243 -0.1060  0.0173
 6146SOL    HW130911   1.520   1.025   7.891 -0.2397  0.2803  2.7757
 6146SOL    HW230912   1.649   0.946   7.953  0.2802 -1.3254 -0.2410
 6147SOL     OW30913   1.274   4.038   2.612  0.0969 -0.8956  0.4620
 6147SOL    HW130914   1.288   4.132   2.642 -2.9117 -0.2432 -0.0398
 6147SOL    HW230915   1.193   4.000   2.656  0.0005 -2.5077 -1.0303
 6148SOL     OW30916   4.865   2.915   8.091 -0.4693  0.0949 -0.2165
 6148SOL    HW130917   4.890   2.984   8.023  0.8350  1.1257  1.2709
 6148SOL    HW230918   4.771   2.932   8.123 -0.8285  0.0321 -1.2230
 6149SOL     OW30919   1.063   8.662   5.788  0.4893 -0.7343 -0.1068
 6149SOL    HW130920   1.149   8.611   5.793  0.5421 -0.9162 -2.3829
 6149SOL    HW230921   0.986   8.598   5.788  0.3861 -0.6157  0.9933
 6150SOL     OW30922   1.398   7.470   5.630  0.1888 -0.0877  0.2412
 6150SOL    HW130923   1.393   7.539   5.702 -2.1122  0.1983 -0.1373
 6150SOL    HW230924   1.363   7.383   5.664  0.9846 -0.4875  0.0514
 6151SOL     OW30925   5.032   2.415   3.081  0.0696 -0.0554  0.1018
 6151SOL    HW130926   5.077   2.338   3.126 -0.0391  0.4605  1.1206
 6151SOL    HW230927   5.092   2.452   3.011  0.2031 -0.9358 -0.2568
 6152SOL     OW30928   6.007   2.021   2.077  0.0377  0.0058  0.9288
 6152SOL    HW130929   5.982   2.114   2.106  1.1688  0.9198 -0.9610
 6152SOL    HW230930   6.062   2.025   1.994  0.8214 -2.3311  1.2877
 6153SOL     OW30931   4.708   2.049   6.801 -0.0624  0.2447 -0.1550
 6153SOL    HW130932   4.689   2.145   6.824 -0.3740  0.6707 -2.1644
 6153SOL    HW230933   4.784   2.017   6.858 -0.1863  1.5766  0.7964
 6154SOL     OW30934   4.513   5.960   1.777 -0.3589 -0.0565 -0.2975
 6154SOL    HW130935   4.525   5.980   1.874 -0.2072  1.1204 -0.5562
 6154SOL    HW230936   4.603   5.961   1.732 -0.3588 -1.1933 -0.3499
 6155SOL     OW30937   2.880   5.510   6.440 -0.6826  0.7613  0.0514
 6155SOL    HW130938   2.868   5.428   6.497  0.1541  2.0285  2.0799
 6155SOL    HW230939   2.790   5.538   6.404 -1.4513  0.8025  1.9606
 6156SOL     OW30940   8.585   1.366   1.320 -0.2125  0.0157 -0.4894
 6156SOL    HW130941   8.584   1.449   1.377  0.4476  0.5733 -1.2661
 6156SOL    HW230942   8.533   1.294   1.365 -0.2211  0.6416  0.5279
 6157SOL     OW30943   6.255   6.151   7.059 -0.0781 -0.1151  0.2322
 6157SOL    HW130944   6.310   6.230   7.084  1.4401 -0.6461 -1.3512
 6157SOL    HW230945   6.219   6.163   6.967  0.3334 -1.3615 -0.0988
 6158SOL     OW30946   0.716   0.158   6.583 -0.0959 -0.0604  0.2222
 6158SOL    HW130947   0.734   0.245   6.536  0.6901 -0.4928 -0.3031
 6158SOL    HW230948   0.788   0.142   6.651  0.1548 -0.6202 -0.1663
 6159SOL     OW30949   7.449   7.220   3.730 -0.7937  0.0859  0.2307
 6159SOL    HW130950   7.501   7.151   3.779 -1.4847  0.0025  0.8499
 6159SOL    HW230951   7.377   7.257   3.789  0.6570  2.5834  0.5165
 6160SOL     OW30952   8.655   6.451   3.461  0.1553 -0.1796 -0.1549
 6160SOL    HW130953   8.635   6.537   3.412 -0.2390 -1.3185 -2.0606
 6160SOL    HW230954   8.570   6.413   3.497 -0.0544 -1.1118 -1.6115
 6161SOL     OW30955   8.984   3.167   2.948 -0.8930  0.1640 -0.6830
 6161SOL    HW130956   8.921   3.233   2.988 -0.4576 -1.6340  3.1807
 6161SOL    HW230957   8.944   3.075   2.954  0.9255 -0.6426 -0.7276
 6162SOL     OW30958   0.523   7.036   5.096 -0.1612  0.1392 -0.7080
 6162SOL    HW130959   0.564   6.945   5.087  0.2095  0.2237  0.0570
 6162SOL    HW230960   0.578   7.090   5.160 -0.5183  0.8190 -0.9780
 6163SOL     OW30961   2.959   4.054   4.361  0.1366  0.1933 -0.2959
 6163SOL    HW130962   2.915   3.968   4.338 -0.0960  0.5718 -1.2766
 6163SOL    HW230963   3.049   4.036   4.399 -0.0220 -0.4918 -0.2364
 6164SOL     OW30964   6.923   6.499   3.119  0.2809 -0.2382  0.1460
 6164SOL    HW130965   6.827   6.519   3.098  0.2095  0.9854  1.5468
 6164SOL    HW230966   6.963   6.446   3.045 -0.8270  1.2877 -1.5842
 6165SOL     OW30967   8.929   6.057   4.703  0.1434 -1.1160 -0.0794
 6165SOL    HW130968   8.871   6.134   4.677  1.8677  0.2801  0.1129
 6165SOL    HW230969   8.907   6.027   4.796  0.1396 -0.2194  0.2075
 6166SOL     OW30970   7.521   3.874   7.156 -0.1183 -0.2305  0.0600
 6166SOL    HW130971   7.441   3.869   7.216  0.2852 -0.4314  0.5829
 6166SOL    HW230972   7.520   3.960   7.105 -1.8072 -1.1586 -1.5460
 6167SOL     OW30973   5.503   0.632   2.625 -0.1104  0.0981  0.3681
 6167SOL    HW130974   5.418   0.598   2.665  0.0633 -1.0939 -0.2506
 6167SOL    HW230975   5.488   0.655   2.529  0.4888 -1.0654 -0.0211
 6168SOL     OW30976   1.977   5.967   0.652 -0.5003  0.3079  0.0173
 6168SOL    HW130977   1.947   5.986   0.558  0.8260  0.6727 -0.3389
 6168SOL    HW230978   2.050   5.898   0.650 -0.8951 -0.1462  0.8346
 6169SOL     OW30979   5.205   0.832   1.383 -0.0631  0.0510 -0.0561
 6169SOL    HW130980   5.260   0.915   1.388  0.5335 -0.3674  0.5786
 6169SOL    HW230981   5.117   0.852   1.340 -0.2078  1.1591  0.7255
 6170SOL     OW30982   7.790   4.228   7.447  0.1808 -0.5481  0.3878
 6170SOL    HW130983   7.857   4.250   7.376  2.3827 -1.2233  2.2090
 6170SOL    HW230984   7.757   4.313   7.490  1.0553 -0.2983  0.5655
 6171SOL     OW30985   2.292   0.114   7.164  0.2978 -0.2146  0.2679
 6171SOL    HW130986   2.350   0.080   7.090  2.5926 -0.7663  2.2453
 6171SOL    HW230987   2.292   0.214   7.164 -0.7639 -0.2029 -1.2484
 6172SOL     OW30988   0.065   2.292   6.740 -0.7393 -0.1171  1.0047
 6172SOL    HW130989   0.049   2.329   6.648  3.1898  0.3519  0.3975
 6172SOL    HW230990   0.036   2.197   6.744  1.5050 -0.9629 -1.5993
 6173SOL     OW30991   1.556   7.971   6.197 -0.1914 -0.1724  0.6032
 6173SOL    HW130992   1.484   8.034   6.168  1.9554  1.4243 -1.4448
 6173SOL    HW230993   1.585   7.915   6.120  1.4601 -0.0693  1.1318
 6174SOL     OW30994   5.485   7.561   4.899 -0.1642  0.3473  0.7261
 6174SOL    HW130995   5.398   7.514   4.880 -0.1630  1.4551 -2.2343
 6174SOL    HW230996   5.466   7.656   4.924  0.2154  0.8078 -0.7018
 6175SOL     OW30997   1.503   8.775   6.595 -0.2991 -0.1875 -0.6056
 6175SOL    HW130998   1.520   8.828   6.512  1.6003  1.1718  0.6318
 6175SOL    HW230999   1.589   8.755   6.641 -1.4202  0.5062  1.9157
 6176SOL     OW31000   2.243   1.569   4.472 -0.3051 -0.3443  0.0206
 6176SOL    HW131001   2.233   1.666   4.497 -2.9020 -0.9648  1.5701
 6176SOL    HW231002   2.255   1.515   4.555  1.9228 -1.3098 -0.8907
 6177SOL     OW31003   7.096   1.723   1.557  0.3313  0.5054  0.0830
 6177SOL    HW131004   7.185   1.679   1.558 -0.8434 -1.9847 -0.3466
 6177SOL    HW231005   7.069   1.747   1.650  0.7718 -0.1869  0.3964
 6178SOL     OW31006   1.047   7.305   1.298 -0.1708  0.0419  0.1172
 6178SOL    HW131007   1.099   7.232   1.255 -0.0486 -1.5822  2.8732
 6178SOL    HW231008   1.106   7.384   1.314  0.5690 -0.4962  0.0792
 6179SOL     OW31009   7.157   1.666   0.294 -0.2038 -0.0922  0.2591
 6179SOL    HW131010   7.182   1.599   0.224  1.4445  2.3465 -1.6189
 6179SOL    HW231011   7.237   1.722   0.315 -1.8392  2.1046  0.8136
 6180SOL     OW31012   5.359   2.125   4.783  0.1893  0.1616  0.5120
 6180SOL    HW131013   5.376   2.029   4.760  0.3054 -0.1241  1.7856
 6180SOL    HW231014   5.272   2.153   4.744  0.0331 -0.5352  0.3485
 6181SOL     OW31015   8.265   3.223   1.619  0.5246 -0.0055 -0.1150
 6181SOL    HW131016   8.363   3.239   1.633  0.8605 -1.2745 -0.8730
 6181SOL    HW231017   8.248   3.207   1.522 -0.4050 -0.0104  0.0429
 6182SOL     OW31018   2.094   0.598   1.723  0.3532  0.3340  0.3438
 6182SOL    HW131019   2.020   0.566   1.783  1.5670  0.6100  2.0453
 6182SOL    HW231020   2.063   0.598   1.628 -1.3840 -0.8220  0.8886
 6183SOL     OW31021   7.767   7.186   5.369  0.2343 -0.6309  0.2675
 6183SOL    HW131022   7.826   7.263   5.344  1.7547 -1.8681  0.0015
 6183SOL    HW231023   7.672   7.208   5.346  0.8372  0.5984 -1.1072
 6184SOL     OW31024   5.245   3.559   3.982  0.9683 -0.1449 -0.7229
 6184SOL    HW131025   5.172   3.625   3.972  1.9602  1.1080  0.2149
 6184SOL    HW231026   5.328   3.594   3.938  2.7170  1.1975  3.4306
 6185SOL     OW31027   6.795   0.471   1.615 -0.3306  0.0087 -0.1774
 6185SOL    HW131028   6.835   0.495   1.526 -2.7447  2.5754 -0.6569
 6185SOL    HW231029   6.767   0.375   1.614  1.7123 -0.6138 -1.3540
 6186SOL     OW31030   4.001   4.051   8.910 -0.0024  0.1826 -0.0974
 6186SOL    HW131031   3.933   4.067   8.839  0.0618 -1.4216 -0.5378
 6186SOL    HW231032   4.001   3.955   8.935  2.7187 -0.0149 -0.7411
 6187SOL     OW31033   4.235   2.255   7.455 -0.4200  0.0016 -0.0085
 6187SOL    HW131034   4.242   2.328   7.523  0.0413  0.5792 -0.6732
 6187SOL    HW231035   4.144   2.214   7.460 -1.7401  2.5909 -1.6207
 6188SOL     OW31036   4.987   6.590   2.926 -0.1997 -0.4561 -0.1623
 6188SOL    HW131037   4.990   6.539   2.840  1.7006  0.7663 -0.8625
 6188SOL    HW231038   4.999   6.527   3.002  0.1137 -1.2949 -0.8914
 6189SOL     OW31039   8.878   5.004   8.117  0.3259  0.0056  0.2604
 6189SOL    HW131040   8.903   5.052   8.201  0.1262  1.6848 -0.6378
 6189SOL    HW231041   8.939   5.031   8.043 -0.6584 -0.0798 -0.5855
 6190SOL     OW31042   3.313   4.566   5.326  0.1863  0.2138 -0.1227
 6190SOL    HW131043   3.352   4.578   5.235 -1.2094 -0.6191 -0.8488
 6190SOL    HW231044   3.213   4.562   5.319  0.1092 -0.7872  1.3358
 6191SOL     OW31045   3.464   1.424   7.431 -0.4771 -0.0318 -0.1520
 6191SOL    HW131046   3.452   1.442   7.333 -0.1686 -2.0699 -0.5730
 6191SOL    HW231047   3.374   1.423   7.476 -0.6585  0.3615 -0.5037
 6192SOL     OW31048   4.509   1.131   7.831 -0.1640  0.2743  0.3541
 6192SOL    HW131049   4.453   1.202   7.788  0.4649 -0.3530 -1.5190
 6192SOL    HW231050   4.537   1.162   7.922 -1.7226  1.5044  0.4302
 6193SOL     OW31051   2.913   8.287   8.311  0.9630 -0.0931 -0.5118
 6193SOL    HW131052   2.851   8.345   8.258  2.6220  1.7074 -0.5292
 6193SOL    HW231053   2.894   8.299   8.409  2.5106  1.9680 -0.4169
 6194SOL     OW31054   1.046   3.868   5.213 -0.0272  0.2858  0.3827
 6194SOL    HW131055   1.122   3.934   5.220 -1.1140  1.5107  0.8345
 6194SOL    HW231056   1.035   3.840   5.118 -0.2001  1.5539  0.0138
 6195SOL     OW31057   5.510   0.696   1.982 -0.2984  0.4296 -0.1250
 6195SOL    HW131058   5.592   0.679   2.037  1.2560 -0.6224 -2.6568
 6195SOL    HW231059   5.488   0.794   1.984  0.7375  0.6526  0.9533
 6196SOL     OW31060   5.837   1.378   1.374  0.2811 -0.3855  0.4252
 6196SOL    HW131061   5.739   1.390   1.382  0.1871 -0.7597 -0.1099
 6196SOL    HW231062   5.861   1.284   1.401  0.0452 -1.4337 -2.8292
 6197SOL     OW31063   0.145   6.169   2.880  0.7463  0.1031  0.0826
 6197SOL    HW131064   0.199   6.252   2.884  2.5754 -1.1161  1.0901
 6197SOL    HW231065   0.182   6.108   2.811  1.4771 -1.2877  1.6700
 6198SOL     OW31066   2.664   6.265   8.227  0.2059  0.3979  0.1242
 6198SOL    HW131067   2.751   6.263   8.178  2.2723  1.3581  3.5550
 6198SOL    HW231068   2.658   6.186   8.288 -2.1932 -0.6526 -1.3869
 6199SOL     OW31069   3.292   8.926   7.830 -0.1159 -0.0401  0.3874
 6199SOL    HW131070   3.390   8.913   7.842 -0.0412  1.0610  1.0826
 6199SOL    HW231071   3.261   9.000   7.890 -0.8943  1.4333 -1.7955
 6200SOL     OW31072   3.038   4.713   7.797  0.6376  0.1169  0.1870
 6200SOL    HW131073   2.972   4.692   7.725 -0.3746 -1.9185  1.6793
 6200SOL    HW231074   3.125   4.667   7.777  0.5957  0.1641 -0.1133
 6201SOL     OW31075   4.380   3.195   5.636 -0.2807  0.0251  0.0512
 6201SOL    HW131076   4.312   3.267   5.652 -1.2232 -1.0289  0.8925
 6201SOL    HW231077   4.461   3.234   5.593 -0.5442  1.7071  1.0418
 6202SOL     OW31078   3.433   7.618   8.991  0.3607  0.2732 -0.2067
 6202SOL    HW131079   3.410   7.661   8.903  0.3524  1.4213  0.3461
 6202SOL    HW231080   3.503   7.673   9.037 -0.6652  0.4717  1.1460
 6203SOL     OW31081   3.937   8.526   7.666  0.1736 -0.2388 -0.3318
 6203SOL    HW131082   3.870   8.453   7.673 -0.1350 -0.0839 -1.5666
 6203SOL    HW231083   3.898   8.603   7.616  0.4874  0.7944  0.9870
 6204SOL     OW31084   4.281   0.635   1.299 -0.3678  0.2243 -0.7423
 6204SOL    HW131085   4.369   0.600   1.268 -0.3602  0.2268 -0.7241
 6204SOL    HW231086   4.288   0.733   1.318 -0.1892  0.0847 -0.0545
 6205SOL     OW31087   0.109   6.297   3.305  0.1388 -0.4220 -0.2064
 6205SOL    HW131088   0.025   6.246   3.322 -0.0101 -0.6713 -1.6105
 6205SOL    HW231089   0.175   6.278   3.378  0.0760 -2.6091 -0.6936
 6206SOL     OW31090   1.012   2.247   7.749  0.3126  0.4667  0.0751
 6206SOL    HW131091   0.923   2.234   7.791  0.2972 -2.7758 -0.8347
 6206SOL    HW231092   1.055   2.330   7.787 -2.3069  1.1143  1.7700
 6207SOL     OW31093   1.491   2.948   4.084 -0.2839  0.2331 -0.0545
 6207SOL    HW131094   1.413   2.969   4.026 -1.6885 -1.0450  1.3486
 6207SOL    HW231095   1.503   2.849   4.091  0.7648  0.3955  0.6640
 6208SOL     OW31096   1.279   8.910   7.169  0.4786 -0.1237 -0.0702
 6208SOL    HW131097   1.195   8.964   7.179  1.4365  1.5746 -0.9745
 6208SOL    HW231098   1.256   8.817   7.143 -1.2658 -0.4408  2.4352
 6209SOL     OW31099   5.983   0.907   3.546 -0.1773  0.1848 -0.3618
 6209SOL    HW131100   6.024   0.903   3.455 -0.0652  1.1673 -0.3610
 6209SOL    HW231101   5.948   0.999   3.563 -0.0451  0.0546  0.6599
 6210SOL     OW31102   8.733   0.300   4.787  0.1052 -0.2479 -0.1397
 6210SOL    HW131103   8.637   0.302   4.762  0.1553  1.0039 -0.3072
 6210SOL    HW231104   8.776   0.217   4.753 -0.3891  0.2736 -2.0844
 6211SOL     OW31105   1.354   2.628   4.622 -0.8243  0.0014  0.1954
 6211SOL    HW131106   1.418   2.552   4.623  0.2195  0.8679  0.1761
 6211SOL    HW231107   1.361   2.677   4.535 -1.3700  0.2344  0.2761
 6212SOL     OW31108   4.312   8.796   7.203 -0.5450  0.5011 -0.3674
 6212SOL    HW131109   4.328   8.784   7.105  2.9231  0.6474  0.1124
 6212SOL    HW231110   4.335   8.890   7.229  0.7684 -0.1553  0.9380
 6213SOL     OW31111   3.177   2.431   3.670  0.3954  0.0060  0.1376
 6213SOL    HW131112   3.226   2.486   3.737  1.9047 -0.8459 -0.2439
 6213SOL    HW231113   3.240   2.366   3.627 -0.5581  0.5056 -2.0759
 6214SOL     OW31114   2.763   5.006   6.010  0.0251  0.5154  0.0145
 6214SOL    HW131115   2.699   5.021   6.086  0.8852  0.2897  0.7819
 6214SOL    HW231116   2.810   5.092   5.989  1.1871  0.1228  1.0047
 6215SOL     OW31117   2.363   8.906   5.127 -0.4061  0.0866 -0.4893
 6215SOL    HW131118   2.369   8.868   5.220  0.5588 -2.2274 -1.4381
 6215SOL    HW231119   2.452   8.942   5.101  0.4629 -2.8928 -1.9235
 6216SOL     OW31120   5.133   8.477   5.533 -0.1579  0.3466  0.1891
 6216SOL    HW131121   5.213   8.501   5.478 -0.1401 -2.1874 -0.9300
 6216SOL    HW231122   5.054   8.466   5.474 -0.8098  0.5045  1.0248
 6217SOL     OW31123   4.072   2.885   6.801 -0.6124  0.0315 -0.2856
 6217SOL    HW131124   4.025   2.917   6.719 -0.0111 -0.6338 -0.8921
 6217SOL    HW231125   4.086   2.786   6.795 -0.2877  0.0300  0.4780
 6218SOL     OW31126   7.876   1.418   0.219 -0.2222 -0.0989 -0.1549
 6218SOL    HW131127   7.919   1.329   0.204  0.6571  0.1874  0.6320
 6218SOL    HW231128   7.841   1.422   0.312  2.2048  1.3767  0.7467
 6219SOL     OW31129   0.914   3.119   0.447 -0.0332  0.0101  0.0804
 6219SOL    HW131130   0.846   3.046   0.441 -1.6707  1.4879  0.1585
 6219SOL    HW231131   0.926   3.145   0.543 -0.4534  0.7340 -0.0574
 6220SOL     OW31132   8.801   0.274   5.079  0.0197 -0.6776  0.2014
 6220SOL    HW131133   8.782   0.293   4.983 -1.8368  0.8943  0.8505
 6220SOL    HW231134   8.800   0.175   5.094  1.3020 -0.9798 -1.5723
 6221SOL     OW31135   2.668   2.263   2.171  0.3753  0.0084  0.6458
 6221SOL    HW131136   2.617   2.343   2.140  0.6154 -0.2402 -0.4322
 6221SOL    HW231137   2.760   2.292   2.198 -0.4897  0.5422  3.1372
 6222SOL     OW31138   8.685   5.525   1.299  1.0873 -0.5996 -0.1305
 6222SOL    HW131139   8.713   5.430   1.284  1.1130 -0.7184  0.6481
 6222SOL    HW231140   8.705   5.579   1.217  3.4107 -0.7343  0.3103
 6223SOL     OW31141   0.940   1.985   5.867  0.3962  0.3714  0.0946
 6223SOL    HW131142   0.991   1.906   5.834 -1.3737 -1.3560  1.3913
 6223SOL    HW231143   0.851   1.989   5.821  1.0139  2.4261 -0.9718
 6224SOL     OW31144   1.285   7.651   4.782  0.1351 -0.2754 -0.0330
 6224SOL    HW131145   1.214   7.678   4.848  0.0667  0.2774 -0.3338
 6224SOL    HW231146   1.249   7.660   4.689  0.8756  0.8517 -0.2269
 6225SOL     OW31147   5.742   7.643   7.679 -0.7995 -0.3691  0.3821
 6225SOL    HW131148   5.675   7.715   7.663 -0.7778 -0.8253 -1.9601
 6225SOL    HW231149   5.698   7.553   7.668 -0.1268 -0.6741  0.1466
 6226SOL     OW31150   1.079   4.769   4.251  0.0343  0.2432 -0.1863
 6226SOL    HW131151   1.016   4.693   4.237 -0.1856  0.5212 -0.7325
 6226SOL    HW231152   1.051   4.846   4.194  1.4991 -0.0024 -1.2392
 6227SOL     OW31153   4.300   8.543   1.352 -1.0346 -0.5633  0.0795
 6227SOL    HW131154   4.233   8.487   1.304 -1.6219 -0.2315  0.5106
 6227SOL    HW231155   4.259   8.580   1.435 -0.1069 -0.9332  0.7184
 6228SOL     OW31156   2.975   7.620   1.902  0.4421  0.5242  0.7593
 6228SOL    HW131157   2.895   7.592   1.955 -0.7493 -4.1033 -3.1533
 6228SOL    HW231158   3.048   7.553   1.915  0.5220 -0.0666 -2.4259
 6229SOL     OW31159   4.706   0.493   5.799  0.2367  0.0221 -0.3503
 6229SOL    HW131160   4.721   0.485   5.897 -0.1334  0.4225 -0.2610
 6229SOL    HW231161   4.792   0.520   5.754  0.1457  0.8810 -0.0129
 6230SOL     OW31162   3.343   8.717   4.039  0.2273  0.4172 -0.0331
 6230SOL    HW131163   3.381   8.804   4.008 -0.6692  0.0138 -2.3443
 6230SOL    HW231164   3.245   8.715   4.022  0.5195 -1.7287 -1.6509
 6231SOL     OW31165   8.014   4.020   5.187 -0.0322  0.6368 -0.0071
 6231SOL    HW131166   7.968   3.936   5.214 -1.6924  0.5623 -2.8973
 6231SOL    HW231167   8.111   4.002   5.174 -0.0555 -0.3878  1.1543
 6232SOL     OW31168   2.291   5.211   1.586  0.1011 -0.3274 -0.4363
 6232SOL    HW131169   2.352   5.151   1.638  0.5142  0.2173 -0.2940
 6232SOL    HW231170   2.281   5.176   1.493  0.7511 -0.3193 -0.5049
 6233SOL     OW31171   8.291   2.993   5.062  0.5340 -0.0421  0.5821
 6233SOL    HW131172   8.293   3.078   5.114  0.9250 -0.3019  1.0007
 6233SOL    HW231173   8.337   3.005   4.975 -0.6510  0.5665  0.0310
 6234SOL     OW31174   6.126   4.137   2.649 -0.3367  0.3826  0.5728
 6234SOL    HW131175   6.166   4.138   2.741  1.6400  0.2676 -0.2441
 6234SOL    HW231176   6.028   4.121   2.655  0.1367 -2.1035  2.5471
 6235SOL     OW31177   6.142   7.280   6.772  0.4137  0.5208  0.0920
 6235SOL    HW131178   6.229   7.267   6.724  0.5870  2.0149 -0.0247
 6235SOL    HW231179   6.081   7.335   6.715 -1.3370 -2.1138 -0.6586
 6236SOL     OW31180   7.587   6.046   0.034  0.3868  0.1593  0.0568
 6236SOL    HW131181   7.603   5.955   0.071  0.6146  0.0571 -0.2827
 6236SOL    HW231182   7.675   6.088   0.010  0.2015 -0.0965 -1.1094
 6237SOL     OW31183   6.815   1.933   1.706 -0.2121 -0.4358  0.5171
 6237SOL    HW131184   6.823   1.921   1.607 -1.1255 -1.3519  0.5442
 6237SOL    HW231185   6.894   1.891   1.752 -0.7135 -1.6566  0.2810
 6238SOL     OW31186   4.603   8.027   3.458 -0.4478  0.5035 -0.3960
 6238SOL    HW131187   4.671   7.974   3.508 -0.5103  0.2059 -0.6287
 6238SOL    HW231188   4.513   8.012   3.497 -0.3467  1.0865  0.0652
 6239SOL     OW31189   8.260   6.760   4.642  0.0609 -0.9241 -0.0802
 6239SOL    HW131190   8.185   6.809   4.598 -1.8852 -1.3642  2.5697
 6239SOL    HW231191   8.334   6.824   4.663  0.2666 -0.3927 -2.3130
 6240SOL     OW31192   2.344   6.681   5.493 -0.3226  0.0067  0.2324
 6240SOL    HW131193   2.366   6.633   5.577  0.8646 -0.4274 -0.3074
 6240SOL    HW231194   2.371   6.624   5.414  0.0930  1.0887 -0.4173
 6241SOL     OW31195   1.983   2.328   1.871 -0.4774  0.0656 -0.3588
 6241SOL    HW131196   1.883   2.335   1.862 -0.5097 -0.4741 -0.4681
 6241SOL    HW231197   2.017   2.402   1.928 -0.6825  1.5703 -2.1514
 6242SOL     OW31198   7.803   6.653   6.620  0.2024 -0.4496  0.5102
 6242SOL    HW131199   7.851   6.668   6.706 -0.1429 -0.2122  0.6641
 6242SOL    HW231200   7.866   6.617   6.551  0.1616 -2.0411  1.2822
 6243SOL     OW31201   4.133   6.751   6.194 -0.3829 -0.3081  0.3731
 6243SOL    HW131202   4.195   6.787   6.124 -0.7011 -2.8487 -1.2934
 6243SOL    HW231203   4.038   6.761   6.162 -0.5355 -1.3386  0.4794
 6244SOL     OW31204   0.511   6.346   0.518 -0.3320  0.2332 -0.2699
 6244SOL    HW131205   0.421   6.358   0.477 -0.5205 -0.1151  0.0465
 6244SOL    HW231206   0.535   6.249   0.519  0.0986  0.3332 -0.4629
 6245SOL     OW31207   1.653   4.208   4.287  0.7452 -0.5236 -0.5441
 6245SOL    HW131208   1.601   4.232   4.370 -0.9684 -4.2211 -0.4217
 6245SOL    HW231209   1.590   4.201   4.210  1.3143 -3.1265 -0.8191
 6246SOL     OW31210   8.649   3.268   6.538 -0.2779 -0.3324 -0.2503
 6246SOL    HW131211   8.728   3.298   6.591 -0.0546  0.0361 -0.7818
 6246SOL    HW231212   8.589   3.213   6.595 -0.3329  0.5523  0.5497
 6247SOL     OW31213   4.976   8.822   3.985 -0.1421 -0.6010  0.3142
 6247SOL    HW131214   5.051   8.773   4.028  0.0541  0.2584  0.9676
 6247SOL    HW231215   5.008   8.867   3.902  0.3232  0.6134  1.1401
 6248SOL     OW31216   3.822   1.905   2.376 -0.4424 -0.0024 -0.1278
 6248SOL    HW131217   3.839   1.815   2.417  0.3283  0.7224  1.1505
 6248SOL    HW231218   3.847   1.902   2.280  0.6012 -0.8525  0.1580
 6249SOL     OW31219   1.759   1.950   8.886 -0.1244 -0.0846  0.5659
 6249SOL    HW131220   1.840   2.001   8.915  0.4816 -1.4160  1.2187
 6249SOL    HW231221   1.781   1.853   8.875 -1.2085 -0.1923 -0.9323
 6250SOL     OW31222   1.013   1.760   0.611 -0.0982  0.5446  0.1355
 6250SOL    HW131223   0.925   1.714   0.622 -0.1419  0.8796  1.2526
 6250SOL    HW231224   1.087   1.693   0.621 -0.2102  0.3777 -0.1609
 6251SOL     OW31225   1.281   4.291   5.544  0.0894  0.0965 -0.1177
 6251SOL    HW131226   1.226   4.272   5.625  1.0924  1.7066  0.9826
 6251SOL    HW231227   1.353   4.356   5.568 -0.9536  2.3453 -2.8233
 6252SOL     OW31228   2.589   2.207   3.945  0.0578 -0.4066 -0.2455
 6252SOL    HW131229   2.642   2.133   3.903  2.4122  0.3905  1.2584
 6252SOL    HW231230   2.620   2.295   3.911 -0.7082  0.0508  0.2166
 6253SOL     OW31231   4.737   0.081   3.929  0.2657  0.0413  0.0877
 6253SOL    HW131232   4.744  -0.010   3.972 -0.1300  0.4539  1.0375
 6253SOL    HW231233   4.829   0.115   3.910  0.4430 -0.2421  0.4160
 6254SOL     OW31234   5.948   0.853   7.870 -0.2751  0.1687  0.9856
 6254SOL    HW131235   5.874   0.817   7.813  0.3188  0.8345 -0.2170
 6254SOL    HW231236   5.969   0.946   7.841  0.5549  0.2373  1.8033
 6255SOL     OW31237   0.334   5.050   1.297 -0.4848  0.6534  0.0783
 6255SOL    HW131238   0.425   5.015   1.271 -0.1027  0.5911  1.4687
 6255SOL    HW231239   0.267   4.977   1.286 -0.1437  0.2967  0.3370
 6256SOL     OW31240   2.717   6.479   5.679 -0.0493  0.4574  0.4566
 6256SOL    HW131241   2.805   6.439   5.705 -0.5243 -0.9053  0.0028
 6256SOL    HW231242   2.732   6.545   5.605  0.5591 -0.0237  0.1369
 6257SOL     OW31243   2.895   1.116   5.623 -0.2634  0.2833  0.1565
 6257SOL    HW131244   2.959   1.159   5.687  0.1748 -0.5783  0.3062
 6257SOL    HW231245   2.857   1.034   5.665 -0.1465 -0.1649 -0.6077
 6258SOL     OW31246   6.748   2.069   0.749 -0.1639 -0.3278  0.3525
 6258SOL    HW131247   6.712   2.077   0.656 -0.9479  3.4096  0.8732
 6258SOL    HW231248   6.683   2.018   0.805 -1.9610  1.3827 -0.1104
 6259SOL     OW31249   1.085   8.416   2.589 -0.8932 -0.2042  0.4170
 6259SOL    HW131250   1.084   8.351   2.666 -0.6522 -1.4476 -0.6041
 6259SOL    HW231251   1.004   8.474   2.594 -3.0672 -2.9968 -0.6193
 6260SOL     OW31252   0.758   5.931   2.022 -0.4172 -0.2278 -0.6216
 6260SOL    HW131253   0.765   5.843   1.975 -0.7742 -0.2146 -0.7041
 6260SOL    HW231254   0.749   6.004   1.954  0.8786 -0.0284 -0.5792
 6261SOL     OW31255   1.253   8.822   6.690  0.5099 -0.3538  0.1333
 6261SOL    HW131256   1.192   8.877   6.632 -0.7332 -1.2134  0.6019
 6261SOL    HW231257   1.339   8.806   6.643  0.6532  1.4742 -0.2629
 6262SOL     OW31258   0.036   3.753   2.851  0.3098 -0.3163 -0.2161
 6262SOL    HW131259  -0.011   3.752   2.940 -0.3000  1.6471 -0.4889
 6262SOL    HW231260  -0.015   3.697   2.786  1.2235 -2.4651  0.8856
 6263SOL     OW31261   7.225   0.867   8.605 -0.0350  0.1730  0.1497
 6263SOL    HW131262   7.227   0.958   8.565 -1.4503 -0.2143 -0.8120
 6263SOL    HW231263   7.307   0.817   8.577  0.2344  0.7872 -0.1702
 6264SOL     OW31264   8.279   2.968   2.013 -0.3931 -0.6433 -0.0113
 6264SOL    HW131265   8.249   3.051   2.062 -0.9626 -0.4261 -0.7076
 6264SOL    HW231266   8.243   2.971   1.919  1.5776 -0.5280 -0.7907
 6265SOL     OW31267   2.093   4.322   7.276 -0.6763  0.4277 -0.3741
 6265SOL    HW131268   2.021   4.319   7.206 -0.6382 -0.1535 -0.3860
 6265SOL    HW231269   2.161   4.391   7.251 -0.4503 -0.0604 -1.1138
 6266SOL     OW31270   1.057   7.840   2.931  0.2508 -0.3960 -0.2736
 6266SOL    HW131271   1.047   7.814   3.027 -2.8021 -0.4377 -0.5522
 6266SOL    HW231272   1.031   7.762   2.873 -3.0645  1.2081 -1.0899
 6267SOL     OW31273   3.299   7.215   8.105 -0.2213  0.6256 -0.0288
 6267SOL    HW131274   3.324   7.272   8.184 -0.0252  1.8825 -0.9835
 6267SOL    HW231275   3.369   7.226   8.034 -0.5599 -0.2684 -0.4981
 6268SOL     OW31276   4.999   4.520   5.798  0.0276  0.2922  0.4611
 6268SOL    HW131277   5.074   4.481   5.852 -0.0934 -0.3192  0.1928
 6268SOL    HW231278   4.928   4.451   5.785 -0.3520  0.7126  0.2792
 6269SOL     OW31279   0.342   0.651   7.356  0.3451 -0.1275 -0.7691
 6269SOL    HW131280   0.333   0.654   7.257  1.5998 -0.3120 -0.9010
 6269SOL    HW231281   0.266   0.600   7.395  0.0662 -0.4108 -1.6701
 6270SOL     OW31282   3.208   2.388   1.847  0.6058  0.0864  0.1949
 6270SOL    HW131283   3.254   2.300   1.857 -0.2676 -0.1861  1.9506
 6270SOL    HW231284   3.276   2.460   1.834  1.4595 -0.4936  1.3646
 6271SOL     OW31285   5.062   7.507   1.237 -0.6471  0.1935  0.1597
 6271SOL    HW131286   5.067   7.576   1.309  0.5610  0.9746 -0.6595
 6271SOL    HW231287   5.102   7.543   1.153  0.0236 -1.5014 -0.2779
 6272SOL     OW31288   5.118   4.896   3.647  0.4014 -0.4279 -0.4139
 6272SOL    HW131289   5.125   4.823   3.579 -0.4200 -0.4653 -0.4571
 6272SOL    HW231290   5.026   4.898   3.685  0.5218  0.3596 -0.1529
 6273SOL     OW31291   2.750   8.839   2.221  0.3200  0.0340  0.4418
 6273SOL    HW131292   2.715   8.753   2.257  1.8255 -0.3793  0.9512
 6273SOL    HW231293   2.849   8.844   2.235  0.1371  2.2137  1.1614
 6274SOL     OW31294   8.151   0.663   2.493  0.5267 -0.1243  0.6483
 6274SOL    HW131295   8.221   0.687   2.560 -0.6422  1.8725  1.2228
 6274SOL    HW231296   8.136   0.564   2.493  1.8000 -0.3248  2.0536
 6275SOL     OW31297   3.765   0.822   5.429  0.4101 -0.2575  0.0427
 6275SOL    HW131298   3.829   0.865   5.365 -0.9470 -0.0516 -1.1832
 6275SOL    HW231299   3.737   0.733   5.392 -0.8829  0.1516  0.0346
 6276SOL     OW31300   2.002   3.859   7.828  0.0738 -0.0504 -0.0610
 6276SOL    HW131301   2.036   3.886   7.738  0.4227 -0.3557 -0.0205
 6276SOL    HW231302   1.923   3.915   7.852  0.8247  0.9874  0.0406
 6277SOL     OW31303   6.098   4.510   5.082  0.5355  0.1162  0.6842
 6277SOL    HW131304   6.127   4.428   5.132 -1.0454 -1.7522 -1.3514
 6277SOL    HW231305   6.177   4.554   5.041  0.9413 -3.2372 -2.3371
 6278SOL     OW31306   1.467   4.548   4.826  0.1001  0.3702 -0.1709
 6278SOL    HW131307   1.495   4.638   4.794 -0.9001 -0.2331 -2.8497
 6278SOL    HW231308   1.381   4.555   4.877  1.0393  1.1600  1.3518
 6279SOL     OW31309   1.634   5.958   4.269 -0.2053  0.3305 -0.4834
 6279SOL    HW131310   1.654   5.973   4.172 -1.0466  0.5302 -0.6301
 6279SOL    HW231311   1.643   6.044   4.319 -1.0837  0.5092 -0.6225
 6280SOL     OW31312   1.964   2.636   3.628 -0.0207  0.2636  0.0730
 6280SOL    HW131313   1.974   2.736   3.626  1.2796  0.1683  1.1037
 6280SOL    HW231314   1.926   2.605   3.541  1.0403  1.5090 -0.8624
 6281SOL     OW31315   7.453   6.664   2.067 -0.1097  0.4796 -0.1669
 6281SOL    HW131316   7.407   6.745   2.031 -0.3373  0.2606 -0.3762
 6281SOL    HW231317   7.426   6.649   2.162 -0.1780  0.5675 -0.1725
 6282SOL     OW31318   1.579   5.611   7.294  0.2126 -0.1301  0.0495
 6282SOL    HW131319   1.673   5.583   7.277  0.1374 -0.5194  0.2627
 6282SOL    HW231320   1.575   5.710   7.306  0.6942 -0.1937  0.7393
 6283SOL     OW31321   3.707   0.396   7.295  0.4126  0.4429  0.1734
 6283SOL    HW131322   3.785   0.443   7.253 -0.2522  0.1737 -1.4138
 6283SOL    HW231323   3.709   0.300   7.268 -0.8832  0.6011 -0.4817
 6284SOL     OW31324   4.144   7.327   1.461 -0.1109  0.0287 -0.3243
 6284SOL    HW131325   4.054   7.295   1.489 -0.7171  0.3875 -1.8259
 6284SOL    HW231326   4.135   7.406   1.400  1.1995 -0.0463 -0.6516
 6285SOL     OW31327   2.224   6.213   0.966 -0.2609  0.9392 -0.4620
 6285SOL    HW131328   2.318   6.238   0.944  0.0031 -0.2585 -0.7210
 6285SOL    HW231329   2.223   6.123   1.010 -1.1512  1.5592  0.8178
 6286SOL     OW31330   8.942   6.767   6.703 -0.3016  0.1541 -0.0352
 6286SOL    HW131331   8.956   6.774   6.802 -1.3714  1.1834  0.0502
 6286SOL    HW231332   8.846   6.783   6.681 -0.1829 -0.6154 -1.1990
 6287SOL     OW31333   4.731   3.778   0.629  0.6445  0.2248 -0.5563
 6287SOL    HW131334   4.784   3.718   0.569  0.7038  2.9120 -3.3181
 6287SOL    HW231335   4.749   3.874   0.605 -0.7639  1.3340  2.5756
 6288SOL     OW31336   7.395   4.098   2.306  0.6653  0.4181 -0.1416
 6288SOL    HW131337   7.381   4.000   2.315 -0.4377  0.6010  0.2068
 6288SOL    HW231338   7.492   4.120   2.321  1.0300 -0.6830 -0.8748
 6289SOL     OW31339   2.834   1.779   2.415 -0.0185  0.0376  0.0002
 6289SOL    HW131340   2.863   1.688   2.387  1.9485  0.6410  0.0130
 6289SOL    HW231341   2.835   1.840   2.335  2.3245  0.9427  0.6943
 6290SOL     OW31342   7.815   4.304   3.855 -0.2247 -0.2025  0.1022
 6290SOL    HW131343   7.865   4.306   3.768 -1.9783  1.3688 -0.8987
 6290SOL    HW231344   7.881   4.312   3.930  1.1208  1.0946 -1.1596
 6291SOL     OW31345   3.243   6.727   6.336  0.4753  0.1647 -0.2249
 6291SOL    HW131346   3.267   6.820   6.311  0.8176  0.4034  0.9992
 6291SOL    HW231347   3.261   6.712   6.433  0.7426 -1.2757 -0.4881
 6292SOL     OW31348   3.649   2.676   2.172  0.1251 -0.5308 -0.4401
 6292SOL    HW131349   3.687   2.623   2.248 -1.4120 -0.3382  0.5028
 6292SOL    HW231350   3.666   2.773   2.187 -0.7066 -0.4395  0.0081
 6293SOL     OW31351   1.019   7.320   0.505 -0.5202  0.4665 -0.1697
 6293SOL    HW131352   1.115   7.298   0.522 -0.0148 -1.4905 -4.8252
 6293SOL    HW231353   0.962   7.275   0.574  1.6955 -1.0507  0.7344
 6294SOL     OW31354   4.175   8.766   4.956 -0.2501 -0.3303  0.2470
 6294SOL    HW131355   4.111   8.741   5.029 -1.0613 -0.1284 -0.4012
 6294SOL    HW231356   4.193   8.864   4.959 -1.6042 -0.0384 -0.8891
 6295SOL     OW31357   7.243   4.053   3.305  0.1900 -0.4886 -0.0207
 6295SOL    HW131358   7.170   4.010   3.359  1.0760 -0.3013  1.3449
 6295SOL    HW231359   7.330   4.041   3.352  1.4328 -2.8008 -2.8009
 6296SOL     OW31360   4.767   3.223   6.911 -0.0972  0.3352 -0.0215
 6296SOL    HW131361   4.735   3.176   6.829  1.6999 -0.6650 -0.1618
 6296SOL    HW231362   4.724   3.183   6.992 -0.7224  0.3364 -0.3525
 6297SOL     OW31363   6.758   6.037   3.282  0.1416 -0.0286 -1.2021
 6297SOL    HW131364   6.804   6.017   3.369  1.4966 -3.7077 -2.6766
 6297SOL    HW231365   6.824   6.077   3.218 -0.5807  1.6327 -0.9319
 6298SOL     OW31366   3.869   3.542   2.101 -0.2316  0.0430 -0.2406
 6298SOL    HW131367   3.834   3.625   2.056  0.6990  0.3500 -0.4032
 6298SOL    HW231368   3.805   3.467   2.084 -1.5687  0.9337  0.6920
 6299SOL     OW31369   7.177   3.802   5.202  0.2222  0.0103 -0.2459
 6299SOL    HW131370   7.210   3.817   5.295  0.5510 -3.2251  0.2094
 6299SOL    HW231371   7.251   3.819   5.137  0.4653  0.6564  0.1954
 6300SOL     OW31372   5.930   6.127   0.297 -0.0187 -0.1751  0.1301
 6300SOL    HW131373   5.843   6.078   0.302 -0.3572  0.5535  1.4740
 6300SOL    HW231374   6.005   6.060   0.293 -0.4288 -0.8392  2.7522
 6301SOL     OW31375   8.998   5.584   4.160  0.2663 -0.5458 -0.4379
 6301SOL    HW131376   8.901   5.589   4.185  0.2396  1.1462 -0.8282
 6301SOL    HW231377   9.043   5.669   4.186  1.4942 -1.0410 -0.9323
 6302SOL     OW31378   3.875   0.811   3.973  0.9315 -0.4056 -0.2726
 6302SOL    HW131379   3.975   0.811   3.969  0.9626  2.8032 -0.7428
 6302SOL    HW231380   3.843   0.884   4.033 -1.1472 -0.2835 -1.4512
 6303SOL     OW31381   8.244   3.825   4.038 -0.0583 -0.2840 -0.2045
 6303SOL    HW131382   8.332   3.807   3.994 -0.1338  0.1620 -0.5439
 6303SOL    HW231383   8.227   3.923   4.041 -0.1888 -0.3235  0.5644
 6304SOL     OW31384   4.873   6.300   7.966 -0.2448  0.0238 -0.2191
 6304SOL    HW131385   4.809   6.264   8.033  0.5460 -0.7205  0.1505
 6304SOL    HW231386   4.828   6.370   7.911 -1.0859  0.1820  0.6608
 6305SOL     OW31387   3.801   5.402   6.974  0.1388 -0.3589 -0.1387
 6305SOL    HW131388   3.846   5.411   6.885 -1.9810  1.8707 -1.0551
 6305SOL    HW231389   3.853   5.451   7.043 -1.0076  2.5890 -1.2752
 6306SOL     OW31390   3.238   1.568   3.095  0.0207  0.0324  0.2386
 6306SOL    HW131391   3.281   1.600   3.010  0.5445 -2.3772 -0.4486
 6306SOL    HW231392   3.296   1.593   3.173  1.7048 -1.4656 -0.5093
 6307SOL     OW31393   4.764   0.980   8.704  0.0474 -0.2172 -0.0455
 6307SOL    HW131394   4.712   0.902   8.667  0.9054 -1.6638  1.7380
 6307SOL    HW231395   4.859   0.953   8.718  0.7322  1.6661 -0.9203
 6308SOL     OW31396   6.405   6.929   2.987 -0.1471  0.1709  0.4422
 6308SOL    HW131397   6.428   7.017   3.028  1.4777 -0.9297  1.9611
 6308SOL    HW231398   6.305   6.919   2.982 -0.3436  2.3927 -0.4475
 6309SOL     OW31399   7.690   6.282   2.840  0.3253 -0.2910  0.3557
 6309SOL    HW131400   7.642   6.370   2.837  0.4063 -0.2396  0.5229
 6309SOL    HW231401   7.783   6.297   2.875 -0.0342 -0.6157  1.4576
 6310SOL     OW31402   2.473   6.373   2.481  0.5196 -0.0819 -0.0281
 6310SOL    HW131403   2.404   6.445   2.475  1.8405  1.3078  1.1860
 6310SOL    HW231404   2.448   6.309   2.554  0.8901  0.8265  0.8949
 6311SOL     OW31405   3.865   2.533   8.553 -0.0669 -0.9821 -0.0593
 6311SOL    HW131406   3.889   2.629   8.549  0.7872 -1.1479  0.9071
 6311SOL    HW231407   3.852   2.505   8.648  2.6929 -2.5391 -0.0839
 6312SOL     OW31408   8.071   6.024   6.254 -0.4628 -0.7242  0.4490
 6312SOL    HW131409   7.989   5.982   6.214  0.2083 -1.0976 -0.5612
 6312SOL    HW231410   8.151   5.997   6.201 -0.0320  2.0147 -0.4026
 6313SOL     OW31411   6.661   5.763   4.034  0.3299 -0.0351  0.0872
 6313SOL    HW131412   6.703   5.753   3.944 -0.3840 -0.6606 -0.1758
 6313SOL    HW231413   6.587   5.830   4.029 -0.5655 -1.0304 -0.0876
 6314SOL     OW31414   6.588   5.385   2.087 -0.0383 -0.0857  0.0938
 6314SOL    HW131415   6.678   5.343   2.076 -0.1971 -0.3165 -0.3574
 6314SOL    HW231416   6.546   5.396   1.997 -0.8007 -0.7132  0.3686
 6315SOL     OW31417   5.835   3.206   3.122  0.0372 -0.1470 -0.4447
 6315SOL    HW131418   5.758   3.143   3.115 -0.4258  0.2085  1.1380
 6315SOL    HW231419   5.805   3.299   3.102 -0.0949  0.0786  0.7596
 6316SOL     OW31420   0.165   8.567   7.702  0.0039  0.1849 -0.6243
 6316SOL    HW131421   0.248   8.511   7.702  0.1906  0.4561  0.0975
 6316SOL    HW231422   0.150   8.605   7.793  0.5139  2.2528 -1.3788
 6317SOL     OW31423   6.211   8.560   1.678 -0.3038 -0.6301  0.0216
 6317SOL    HW131424   6.193   8.502   1.758 -0.5956  3.4115  3.0265
 6317SOL    HW231425   6.124   8.599   1.646  0.1449 -0.1523 -0.6068
 6318SOL     OW31426   6.619   5.806   5.775 -0.0478 -0.3277 -0.0491
 6318SOL    HW131427   6.525   5.792   5.743  0.6275 -1.9349 -1.4077
 6318SOL    HW231428   6.681   5.748   5.722  1.7842  1.1301  0.4630
 6319SOL     OW31429   3.623   3.919   6.715 -0.2772  0.3140 -0.1366
 6319SOL    HW131430   3.591   3.886   6.626 -2.1804  0.2133  0.5810
 6319SOL    HW231431   3.649   3.841   6.772  0.9212  0.3773 -0.5782
 6320SOL     OW31432   8.114   3.243   5.935  0.2438 -0.2289 -0.2645
 6320SOL    HW131433   8.161   3.268   5.850  0.5858 -1.5428 -0.4790
 6320SOL    HW231434   8.181   3.235   6.008  0.3053 -1.6022 -0.4543
 6321SOL     OW31435   5.839   5.538   4.293 -0.0004  0.2021  0.0140
 6321SOL    HW131436   5.924   5.589   4.279 -0.3882  0.5818 -1.0225
 6321SOL    HW231437   5.834   5.463   4.227 -0.4675  0.1712  0.0845
 6322SOL     OW31438   6.897   2.879   7.642 -0.0692  0.7918 -0.2992
 6322SOL    HW131439   6.865   2.829   7.722  1.0624  1.3040  0.4952
 6322SOL    HW231440   6.831   2.950   7.618 -0.4278  0.6228  0.1826
 6323SOL     OW31441   5.816   1.786   2.814  0.1165  0.9121 -0.3473
 6323SOL    HW131442   5.829   1.688   2.831  1.7243  0.8301 -1.8564
 6323SOL    HW231443   5.897   1.823   2.769 -0.8667  2.7468 -0.6702
 6324SOL     OW31444   2.952   3.623   7.114  0.1808  0.2847  0.5465
 6324SOL    HW131445   2.855   3.643   7.124 -0.0855 -1.0491  0.7927
 6324SOL    HW231446   2.989   3.675   7.037 -0.3404  2.0499  1.4817
 6325SOL     OW31447   4.216   2.276   6.710  0.9094  0.1211  0.6416
 6325SOL    HW131448   4.264   2.302   6.627  1.2583 -1.9290  0.1553
 6325SOL    HW231449   4.123   2.245   6.686  0.7083  0.3609  1.1073
 6326SOL     OW31450   1.772   0.653   3.292 -0.1534  0.6721  0.1729
 6326SOL    HW131451   1.826   0.648   3.208  1.2886  0.6544  1.0800
 6326SOL    HW231452   1.811   0.592   3.361 -1.7359  0.1699  0.6350
 6327SOL     OW31453   8.424   3.094   0.385  0.5969 -0.7734  0.2016
 6327SOL    HW131454   8.422   3.183   0.340  0.0628 -1.0574 -0.3285
 6327SOL    HW231455   8.465   3.105   0.476  1.6048 -0.1927 -0.3065
 6328SOL     OW31456   5.305   5.544   6.850  1.0851 -0.1749  0.3021
 6328SOL    HW131457   5.215   5.572   6.885  0.5503 -0.5240 -0.7687
 6328SOL    HW231458   5.298   5.455   6.806  0.9281  1.7342 -3.8094
 6329SOL     OW31459   7.689   7.902   2.399 -0.4014  0.5362  0.2949
 6329SOL    HW131460   7.681   7.996   2.365 -0.4757 -0.5255 -2.8057
 6329SOL    HW231461   7.599   7.870   2.430 -1.4400 -0.0220 -3.0270
 6330SOL     OW31462   3.066   6.695   4.349 -0.2799 -0.9444 -0.5359
 6330SOL    HW131463   3.084   6.642   4.266 -0.9597 -0.1376 -1.2049
 6330SOL    HW231464   3.041   6.633   4.424  0.2986 -1.6683 -0.9325
 6331SOL     OW31465   8.992   2.023   3.073 -0.3010 -0.2064 -0.1840
 6331SOL    HW131466   8.994   1.991   3.167  0.2337  0.6166  0.0879
 6331SOL    HW231467   8.897   2.043   3.047 -0.5235 -1.0579 -0.0434
 6332SOL     OW31468   6.368   8.926   8.666 -0.7535 -0.0386  0.5091
 6332SOL    HW131469   6.427   9.003   8.644 -0.2264 -0.3242  0.9013
 6332SOL    HW231470   6.295   8.918   8.598  0.2910 -0.3470 -0.5754
 6333SOL     OW31471   3.244   6.366   7.755  0.0750  0.3213 -0.6213
 6333SOL    HW131472   3.173   6.383   7.824 -0.7778 -2.3126 -0.7977
 6333SOL    HW231473   3.201   6.341   7.668  1.1824  2.4333 -1.8191
 6334SOL     OW31474   7.736   5.360   5.597  1.0082  0.2907 -0.5039
 6334SOL    HW131475   7.732   5.433   5.666  0.0297  0.1445 -0.3938
 6334SOL    HW231476   7.643   5.336   5.569  1.1425 -2.6571  1.3281
 6335SOL     OW31477   6.785   5.543   3.519 -0.1022 -0.0192  0.0360
 6335SOL    HW131478   6.857   5.486   3.559  0.0548 -0.5537 -0.9629
 6335SOL    HW231479   6.706   5.485   3.499 -0.8060  0.5653  1.1127
 6336SOL     OW31480   2.594   2.234   5.598  0.2946 -0.4098  0.2937
 6336SOL    HW131481   2.523   2.244   5.667  0.8688 -0.5438  0.9099
 6336SOL    HW231482   2.554   2.245   5.507 -0.5693 -0.7736  0.6202
 6337SOL     OW31483   5.797   5.426   3.602 -0.0517 -0.0931  0.1149
 6337SOL    HW131484   5.735   5.452   3.528 -0.9669 -1.4298  0.4050
 6337SOL    HW231485   5.890   5.416   3.566 -0.1116  1.2427 -0.4491
 6338SOL     OW31486   8.375   7.930   5.507  0.1939  0.2731  0.1651
 6338SOL    HW131487   8.443   8.003   5.502 -0.8531  1.3843  1.7156
 6338SOL    HW231488   8.405   7.853   5.450  2.5991  0.8426  0.5986
 6339SOL     OW31489   1.144   4.292   6.530  0.1411 -0.0923  0.6864
 6339SOL    HW131490   1.144   4.319   6.626  2.5504 -0.6230  0.8813
 6339SOL    HW231491   1.051   4.295   6.494 -1.1527 -2.1448  3.6650
 6340SOL     OW31492   4.902   6.842   6.080 -0.3851  0.2327  0.6217
 6340SOL    HW131493   4.968   6.884   6.017 -0.3196 -1.1766 -0.2680
 6340SOL    HW231494   4.945   6.828   6.169  0.0210  0.7658  0.5117
 6341SOL     OW31495   0.433   4.767   5.425 -0.6734 -0.2495 -0.0278
 6341SOL    HW131496   0.529   4.741   5.414 -1.0944 -0.9973 -2.2868
 6341SOL    HW231497   0.384   4.695   5.475 -0.3200 -0.4618  0.0121
 6342SOL     OW31498   8.846   3.521   1.378  0.6702 -0.1176 -0.2726
 6342SOL    HW131499   8.867   3.516   1.280 -1.2076  0.1379 -0.7193
 6342SOL    HW231500   8.785   3.599   1.395  1.9663  0.5898  1.3020
 6343SOL     OW31501   5.572   0.788   8.484  0.2020 -0.2225 -0.1959
 6343SOL    HW131502   5.615   0.698   8.496  2.3421  0.8982  0.9082
 6343SOL    HW231503   5.598   0.825   8.395 -0.7209 -0.7057 -0.6725
 6344SOL     OW31504   4.793   0.580   1.905  0.8207 -0.0261 -0.0470
 6344SOL    HW131505   4.835   0.640   1.973  4.1578 -3.3710  0.9766
 6344SOL    HW231506   4.843   0.586   1.819 -0.2984  0.4053 -0.6837
 6345SOL     OW31507   6.605   3.446   0.802  0.0776  0.7056  0.1408
 6345SOL    HW131508   6.556   3.409   0.880 -1.7855 -1.6250 -2.0511
 6345SOL    HW231509   6.593   3.546   0.799 -1.1681  0.6264  1.8862
 6346SOL     OW31510   4.934   4.213   7.472  0.6356 -0.3005  0.4638
 6346SOL    HW131511   4.929   4.209   7.572  1.8616 -1.3373  0.5011
 6346SOL    HW231512   4.997   4.142   7.439  1.8176  1.3300 -0.8933
 6347SOL     OW31513   5.623   2.093   2.034  0.0292  0.1449 -0.5794
 6347SOL    HW131514   5.559   2.156   1.991 -0.0500  0.0484 -0.6043
 6347SOL    HW231515   5.710   2.096   1.986 -1.0070 -2.2240 -2.6905
 6348SOL     OW31516   4.620   4.788   1.004 -0.6393 -0.6972  0.2727
 6348SOL    HW131517   4.608   4.873   1.054  0.6574  0.1567 -0.8115
 6348SOL    HW231518   4.569   4.793   0.918 -0.9229 -1.1846  0.4148
 6349SOL     OW31519   1.185   2.812   7.835 -0.6001  0.2932  0.3697
 6349SOL    HW131520   1.161   2.758   7.916 -0.3790 -1.5581 -0.7651
 6349SOL    HW231521   1.283   2.833   7.838 -0.2001 -1.3715 -0.3103
 6350SOL     OW31522   5.427   5.090   7.318 -0.3168  0.2850 -0.9505
 6350SOL    HW131523   5.463   5.041   7.239  0.2829  1.1727 -1.2394
 6350SOL    HW231524   5.500   5.142   7.361 -0.4299 -0.9050  0.7482
 6351SOL     OW31525   3.024   3.542   7.495 -0.1496 -0.1731  0.1765
 6351SOL    HW131526   3.052   3.486   7.417 -1.2593 -0.5359  0.0165
 6351SOL    HW231527   2.931   3.515   7.523  0.1121  0.1750  1.4127
 6352SOL     OW31528   3.527   3.332   6.655  0.5005 -0.3107  0.8238
 6352SOL    HW131529   3.490   3.318   6.563  0.8505 -0.8992  0.7750
 6352SOL    HW231530   3.575   3.250   6.685 -2.0693 -1.2087  2.6872
 6353SOL     OW31531   7.716   3.757   7.776 -0.5296 -0.3099  0.4465
 6353SOL    HW131532   7.720   3.796   7.684  2.3323 -1.1958  0.1530
 6353SOL    HW231533   7.724   3.657   7.771  0.7347 -0.3008  1.6806
 6354SOL     OW31534   8.875   4.377   4.702 -0.0677 -0.8435 -0.9158
 6354SOL    HW131535   8.868   4.281   4.731  0.2561 -0.3075  0.9889
 6354SOL    HW231536   8.787   4.422   4.713 -0.0020 -0.6948 -0.9971
 6355SOL     OW31537   3.442   8.005   4.554 -0.1527 -0.1527 -0.6112
 6355SOL    HW131538   3.538   7.977   4.549  0.0198  0.0444  1.1072
 6355SOL    HW231539   3.384   7.924   4.557  0.1120 -0.3077  0.6432
 6356SOL     OW31540   1.888   2.422   5.195  0.1399 -0.5654 -0.3688
 6356SOL    HW131541   1.832   2.382   5.266  1.3733 -0.2462  0.8022
 6356SOL    HW231542   1.832   2.484   5.139 -0.8696 -0.9731  0.1805
 6357SOL     OW31543   4.508   8.242   5.039  0.2019 -0.1896  0.7756
 6357SOL    HW131544   4.527   8.302   5.116 -0.9840  1.5658 -0.2611
 6357SOL    HW231545   4.503   8.297   4.955 -0.9757 -1.7290 -0.1793
 6358SOL     OW31546   0.170   7.049   6.644  0.1530  0.1708  0.2277
 6358SOL    HW131547   0.158   7.050   6.743 -0.6464  0.0629  0.1361
 6358SOL    HW231548   0.093   7.001   6.602  0.3880  0.3910 -0.4585
 6359SOL     OW31549   3.067   4.367   4.365  0.2472 -0.3616  0.5057
 6359SOL    HW131550   3.062   4.267   4.363  0.0099 -0.4579  3.5052
 6359SOL    HW231551   3.162   4.396   4.354  0.1860 -0.8737 -1.4036
 6360SOL     OW31552   3.370   5.740   7.782  0.3891  0.1467  0.3236
 6360SOL    HW131553   3.424   5.815   7.745  2.2935 -1.2354  0.2061
 6360SOL    HW231554   3.368   5.665   7.715 -1.9646  0.3021  0.1959
 6361SOL     OW31555   6.143   8.566   7.851 -0.1534 -0.3398  0.2395
 6361SOL    HW131556   6.167   8.614   7.935  0.5819  2.2730 -1.3905
 6361SOL    HW231557   6.203   8.597   7.777  0.6127 -4.1366 -0.8035
 6362SOL     OW31558   1.000   7.876   0.675  0.4867  0.8925 -0.1316
 6362SOL    HW131559   1.049   7.954   0.712  0.7689  1.3714 -1.4860
 6362SOL    HW231560   1.019   7.867   0.577 -1.8362  0.8773 -0.6227
 6363SOL     OW31561   3.857   4.280   1.918  0.3988 -0.5268  0.0769
 6363SOL    HW131562   3.838   4.322   1.830  1.8244 -0.1809 -0.0820
 6363SOL    HW231563   3.893   4.348   1.981 -0.5605 -0.7840  0.9205
 6364SOL     OW31564   5.611   5.273   7.416 -0.7321 -0.3852 -0.2868
 6364SOL    HW131565   5.614   5.346   7.484 -0.9581 -1.3408  0.7561
 6364SOL    HW231566   5.669   5.297   7.338  1.2907 -0.2776  1.2173
 6365SOL     OW31567   8.452   4.487   7.673  0.0146  0.5924 -0.7227
 6365SOL    HW131568   8.428   4.494   7.577 -1.4157  0.5518 -0.3913
 6365SOL    HW231569   8.551   4.483   7.684  0.1332 -1.0972 -2.3026
 6366SOL     OW31570   5.521   1.862   3.478  0.4372  0.5347 -0.3921
 6366SOL    HW131571   5.503   1.940   3.418 -0.6339  0.5459 -0.0706
 6366SOL    HW231572   5.434   1.829   3.516  1.1002  0.5293  1.1473
 6367SOL     OW31573   2.670   2.722   5.777  0.2666  0.1346  0.1792
 6367SOL    HW131574   2.607   2.676   5.715 -0.1661  0.5956  0.2844
 6367SOL    HW231575   2.620   2.762   5.854  0.8363 -0.7599  1.0334
 6368SOL     OW31576   4.358   2.163   5.567 -0.2179  0.2348  0.2075
 6368SOL    HW131577   4.359   2.198   5.473 -0.8145  0.8482  0.4246
 6368SOL    HW231578   4.450   2.169   5.605  0.1821 -0.7242 -0.5957
 6369SOL     OW31579   0.627   0.347   4.586 -0.3614  0.4527  0.5190
 6369SOL    HW131580   0.582   0.259   4.569 -0.7213  0.6504  0.4358
 6369SOL    HW231581   0.649   0.391   4.499 -1.3811  1.0473  0.5493
 6370SOL     OW31582   2.798   5.446   0.045  0.0702 -0.5606  0.1964
 6370SOL    HW131583   2.808   5.497   0.131  1.4012 -0.4992  0.0021
 6370SOL    HW231584   2.876   5.384   0.033 -1.4667 -2.6127  0.3910
 6371SOL     OW31585   7.472   2.810   2.071  0.0088  0.1872 -0.3292
 6371SOL    HW131586   7.378   2.825   2.100  0.2378 -0.3850  0.7451
 6371SOL    HW231587   7.506   2.725   2.111  0.8952  0.2496 -0.9291
 6372SOL     OW31588   5.899   4.414   0.136 -0.1215  1.0264  0.0641
 6372SOL    HW131589   5.824   4.474   0.111 -1.6595  0.0509  2.1563
 6372SOL    HW231590   5.885   4.324   0.095 -0.9025  0.4030  1.6736
 6373SOL     OW31591   7.540   1.845   1.653  0.1656 -0.3969 -0.5905
 6373SOL    HW131592   7.473   1.770   1.646  1.6189 -1.4492 -3.9549
 6373SOL    HW231593   7.506   1.925   1.604 -0.0218  0.1554  0.4234
 6374SOL     OW31594   2.809   3.820   1.438  0.0334 -0.0441 -0.5063
 6374SOL    HW131595   2.723   3.862   1.466 -0.0170 -0.3717 -0.1624
 6374SOL    HW231596   2.811   3.811   1.338 -0.7240 -0.8739 -0.4530
 6375SOL     OW31597   3.933   2.486   6.688  0.2335  0.1872 -0.1248
 6375SOL    HW131598   3.926   2.398   6.735  2.6702 -0.1090 -0.2522
 6375SOL    HW231599   3.922   2.472   6.589  0.0159  0.1206 -0.0922
 6376SOL     OW31600   7.786   0.168   8.767 -0.1624 -0.2531 -0.1375
 6376SOL    HW131601   7.824   0.095   8.825  2.0789 -0.1984 -1.5043
 6376SOL    HW231602   7.816   0.257   8.801 -1.0602 -0.0727  0.1981
 6377SOL     OW31603   4.054   6.005   7.922 -0.6299  0.0198 -0.4152
 6377SOL    HW131604   3.976   5.967   7.971 -0.4636 -0.0503 -0.2041
 6377SOL    HW231605   4.100   6.073   7.980  1.0091 -1.8039  0.4814
 6378SOL     OW31606   2.444   6.878   8.289 -0.0465  0.0766 -0.2837
 6378SOL    HW131607   2.359   6.926   8.268 -1.2924 -2.5543 -1.4185
 6378SOL    HW231608   2.464   6.888   8.387 -2.2335 -0.2087  0.2177
 6379SOL     OW31609   6.465   2.513   3.961 -0.5587  0.3231 -0.4456
 6379SOL    HW131610   6.524   2.593   3.968 -0.8025  0.5180 -0.6086
 6379SOL    HW231611   6.420   2.512   3.872 -0.2327 -0.2209 -0.6088
 6380SOL     OW31612   3.689   5.984   6.113 -0.2384  0.2725  0.6751
 6380SOL    HW131613   3.709   6.054   6.044  0.1101  1.1285  1.6281
 6380SOL    HW231614   3.614   6.015   6.171 -1.0991 -0.8162  0.1648
 6381SOL     OW31615   2.558   7.479   5.455 -0.4725  0.1520  0.2129
 6381SOL    HW131616   2.574   7.497   5.357 -3.1911 -0.4327 -0.3786
 6381SOL    HW231617   2.589   7.557   5.509  4.7617 -1.1076 -0.7140
 6382SOL     OW31618   3.457   6.820   2.471  0.9488  0.2240 -0.1502
 6382SOL    HW131619   3.541   6.777   2.507  0.9071 -2.0030 -2.6048
 6382SOL    HW231620   3.378   6.765   2.498  0.4313  1.3625  0.6657
 6383SOL     OW31621   8.924   5.484   2.136  0.0993  0.0374 -0.0029
 6383SOL    HW131622   8.903   5.505   2.040  0.2024  0.4977  0.0704
 6383SOL    HW231623   8.948   5.569   2.183 -0.4734 -0.1117  0.5612
 6384SOL     OW31624   4.601   6.427   8.695 -0.0017 -0.1032 -0.8394
 6384SOL    HW131625   4.511   6.409   8.656  0.2858  1.4750 -2.3276
 6384SOL    HW231626   4.646   6.341   8.719 -1.7754 -0.9010 -0.3704
 6385SOL     OW31627   0.984   4.059   4.324  0.0827 -0.0168  0.3022
 6385SOL    HW131628   0.954   4.070   4.419  0.4126  0.3625  0.3650
 6385SOL    HW231629   1.060   3.995   4.321  0.4116  0.3690  0.3595
 6386SOL     OW31630   6.686   6.754   8.572  0.0850  0.0836 -0.3360
 6386SOL    HW131631   6.667   6.843   8.530  1.0820  0.1892 -0.5774
 6386SOL    HW231632   6.688   6.683   8.502  1.5923  0.2350 -0.4731
 6387SOL     OW31633   1.606   2.360   7.251  0.4712  0.0906 -0.0654
 6387SOL    HW131634   1.521   2.360   7.200 -0.3628  1.3927  1.2974
 6387SOL    HW231635   1.594   2.310   7.337  1.4693 -0.8903 -0.4773
 6388SOL     OW31636   3.166   8.689   5.007  0.4244  0.3885 -0.4398
 6388SOL    HW131637   3.252   8.740   5.012  0.3692  0.4196  0.2827
 6388SOL    HW231638   3.127   8.681   5.099 -0.3064  0.3092 -0.7561
 6389SOL     OW31639   0.671   5.186   5.037  0.1475  0.1297 -0.1596
 6389SOL    HW131640   0.574   5.166   5.051 -0.3830  2.8420  0.4137
 6389SOL    HW231641   0.720   5.178   5.123 -0.1879  1.7592  0.2080
 6390SOL     OW31642   1.945   3.820   4.149 -0.4599  0.4220 -0.0966
 6390SOL    HW131643   2.012   3.890   4.175 -0.3342 -0.1406  1.1429
 6390SOL    HW231644   1.862   3.832   4.203 -0.4324 -0.3801  0.1358
 6391SOL     OW31645   7.382   3.908   5.426 -0.9264  0.4759  0.0214
 6391SOL    HW131646   7.379   4.003   5.395 -0.7554  1.2625  2.2996
 6391SOL    HW231647   7.349   3.903   5.521 -1.0990 -1.7657 -0.1382
 6392SOL     OW31648   3.390   4.645   1.401 -0.4160 -0.0333  0.1321
 6392SOL    HW131649   3.457   4.697   1.454 -1.0709  0.1764  0.7681
 6392SOL    HW231650   3.436   4.575   1.347  0.2409 -0.3565  1.1084
 6393SOL     OW31651   2.150   3.921   1.494 -0.0063  0.1206 -0.2284
 6393SOL    HW131652   2.070   3.897   1.439 -0.1368 -0.9833  0.4264
 6393SOL    HW231653   2.233   3.889   1.449 -0.0032  0.4516 -0.4590
 6394SOL     OW31654   4.126   1.158   3.389  0.0087  0.2715 -0.4499
 6394SOL    HW131655   4.166   1.142   3.299 -1.1531  1.6698 -1.2324
 6394SOL    HW231656   4.147   1.251   3.419 -1.3327  0.5027 -0.1927
 6395SOL     OW31657   8.122   4.080   1.627 -0.3193 -0.2180 -0.0722
 6395SOL    HW131658   8.039   4.124   1.593 -0.0248 -0.2605 -0.8486
 6395SOL    HW231659   8.198   4.144   1.620  0.0532 -0.7521 -0.9270
 6396SOL     OW31660   5.698   5.955   4.959  0.2917 -0.0839  0.3960
 6396SOL    HW131661   5.782   5.968   4.907  0.0030 -0.2555 -0.1190
 6396SOL    HW231662   5.697   6.017   5.038 -1.1668  3.2740 -2.1093
 6397SOL     OW31663   3.693   8.465   7.336  0.0513 -0.2167 -0.3793
 6397SOL    HW131664   3.700   8.415   7.250  0.0394  0.7970 -0.9788
 6397SOL    HW231665   3.630   8.542   7.324 -1.0246 -0.8792  0.9196
 6398SOL     OW31666   4.467   7.333   6.022  0.4299 -0.2113  0.5447
 6398SOL    HW131667   4.557   7.297   5.994 -0.0921 -1.4731  0.4717
 6398SOL    HW231668   4.415   7.357   5.940  0.8865  0.9931  0.6025
 6399SOL     OW31669   0.105   4.872   3.912 -0.1541 -0.2900 -0.3187
 6399SOL    HW131670   0.076   4.786   3.869  0.0763  0.5382 -2.1672
 6399SOL    HW231671   0.105   4.861   4.012 -1.1442 -2.1021 -0.4989
 6400SOL     OW31672   0.885   3.841   4.728 -0.4939 -0.6705 -0.3234
 6400SOL    HW131673   0.824   3.921   4.732 -3.6838 -3.0585  0.4501
 6400SOL    HW231674   0.909   3.822   4.633 -1.8946 -0.3869 -0.7415
 6401SOL     OW31675   6.737   6.842   6.846  0.0871  0.1977  0.6895
 6401SOL    HW131676   6.697   6.753   6.824 -0.6115  1.0233 -1.4987
 6401SOL    HW231677   6.781   6.837   6.935 -2.5370 -1.5087  1.9796
 6402SOL     OW31678   5.393   3.537   8.651 -0.2004 -0.7726 -0.1567
 6402SOL    HW131679   5.325   3.471   8.684 -1.4656  0.5646 -0.0564
 6402SOL    HW231680   5.366   3.570   8.561  0.8572 -0.9788 -0.5553
 6403SOL     OW31681   8.652   8.037   1.857  0.1921 -0.3425  0.5718
 6403SOL    HW131682   8.639   7.990   1.769  0.3846  0.2835  0.2056
 6403SOL    HW231683   8.747   8.025   1.886 -0.0263 -1.0568  0.9918
 6404SOL     OW31684   0.010   1.246   8.075  0.5233 -0.4270  0.7156
 6404SOL    HW131685  -0.059   1.316   8.059  0.6854  0.0291  1.8945
 6404SOL    HW231686   0.099   1.278   8.043  0.4206 -0.4755  0.3887
 6405SOL     OW31687   6.390   0.741   8.216 -0.3668  0.1505  0.2300
 6405SOL    HW131688   6.308   0.718   8.268 -1.3902  1.3513 -0.8279
 6405SOL    HW231689   6.376   0.717   8.120  1.1066 -1.0596  0.3009
 6406SOL     OW31690   3.783   5.783   1.366  0.0234  0.2560 -0.1199
 6406SOL    HW131691   3.830   5.726   1.434 -0.1032 -0.4698 -0.6309
 6406SOL    HW231692   3.851   5.827   1.307  0.0902 -0.2921 -0.4587
 6407SOL     OW31693   7.238   7.032   3.777 -0.2713 -0.1570 -0.0398
 6407SOL    HW131694   7.150   7.042   3.824  0.1498  0.4646  0.6212
 6407SOL    HW231695   7.281   7.121   3.768  0.8592 -0.6082  0.7439
 6408SOL     OW31696   1.496   6.153   2.757  0.2759  0.1312 -0.1685
 6408SOL    HW131697   1.555   6.144   2.677  1.0758 -0.4004  0.4716
 6408SOL    HW231698   1.534   6.099   2.833 -0.2529  0.9492  0.6892
 6409SOL     OW31699   0.320   7.197   2.643 -0.4433 -0.3473 -0.2051
 6409SOL    HW131700   0.259   7.213   2.721 -0.4319 -0.0549 -0.2555
 6409SOL    HW231701   0.282   7.125   2.585 -1.1213  0.3544 -0.6401
 6410SOL     OW31702   7.315   2.472   2.822  0.0346  0.1348  0.4118
 6410SOL    HW131703   7.235   2.411   2.813  0.2897 -0.2772  0.9452
 6410SOL    HW231704   7.347   2.496   2.730 -0.8614  0.5158  0.1877
 6411SOL     OW31705   1.890   1.068   5.648 -0.0154 -0.0018  0.4024
 6411SOL    HW131706   1.899   1.160   5.610  0.8971 -0.7913 -1.3542
 6411SOL    HW231707   1.844   1.009   5.581 -1.4664 -0.5968  1.8992
 6412SOL     OW31708   3.941   5.705   6.219 -0.1677 -0.4372 -0.0657
 6412SOL    HW131709   3.877   5.719   6.295 -1.5922  0.2831 -1.3718
 6412SOL    HW231710   3.890   5.699   6.134  1.6718  2.1772 -1.3982
 6413SOL     OW31711   2.074   8.984   8.231  0.4656  0.7834 -0.0459
 6413SOL    HW131712   2.066   8.886   8.247 -0.3244  0.4799 -2.1354
 6413SOL    HW231713   1.985   9.028   8.245  1.2810  1.6028  3.1107
 6414SOL     OW31714   6.195   3.383   8.758 -0.1867 -0.9404 -0.0920
 6414SOL    HW131715   6.147   3.359   8.674  0.2712  0.7523 -0.8595
 6414SOL    HW231716   6.287   3.415   8.735 -0.0546 -0.4828  1.0586
 6415SOL     OW31717   0.135   1.720   6.768 -0.2243  0.1950 -0.6031
 6415SOL    HW131718   0.167   1.652   6.703 -3.1858 -2.7900  0.9201
 6415SOL    HW231719   0.069   1.781   6.723 -1.5462 -1.2710 -0.6806
 6416SOL     OW31720   4.422   8.430   7.704  0.1381 -0.0893 -0.0485
 6416SOL    HW131721   4.457   8.521   7.730  0.8322 -0.6124  0.8862
 6416SOL    HW231722   4.340   8.441   7.648  0.2857  1.1214 -0.0541
 6417SOL     OW31723   2.568   3.541   3.882  0.6377 -0.0754 -0.0889
 6417SOL    HW131724   2.502   3.548   3.957  0.8052 -0.7118  0.1192
 6417SOL    HW231725   2.523   3.509   3.799  0.9932 -2.1765  0.4930
 6418SOL     OW31726   1.545   3.233   4.134 -0.7685 -0.4704 -0.5494
 6418SOL    HW131727   1.458   3.277   4.160 -1.1969 -0.3090 -2.2075
 6418SOL    HW231728   1.526   3.149   4.084  0.0179  0.1079 -1.8466
 6419SOL     OW31729   6.548   3.389   1.098 -0.1827  0.1346  0.1613
 6419SOL    HW131730   6.512   3.473   1.138  0.3260  0.5670 -0.2845
 6419SOL    HW231731   6.642   3.375   1.128 -0.0187  0.1142 -0.3496
 6420SOL     OW31732   3.003   6.878   7.446 -0.1804 -0.3000 -0.4485
 6420SOL    HW131733   2.929   6.811   7.434 -1.8531  1.0881  1.8793
 6420SOL    HW231734   2.966   6.970   7.439  1.0248  0.4336  2.2873
 6421SOL     OW31735   6.023   8.075   2.069 -0.7140  0.2201 -0.6222
 6421SOL    HW131736   6.111   8.034   2.089 -0.9431  0.0408  0.0350
 6421SOL    HW231737   6.012   8.159   2.123 -0.6587  0.6102 -1.2146
 6422SOL     OW31738   6.324   0.292   8.411  0.3543 -0.3358 -0.0505
 6422SOL    HW131739   6.236   0.331   8.382  0.3212  1.5590  2.3883
 6422SOL    HW231740   6.396   0.321   8.348 -0.6645 -1.5402 -1.8228
 6423SOL     OW31741   1.175   7.257   0.153  0.2240 -0.3811 -0.0337
 6423SOL    HW131742   1.085   7.301   0.157  0.7196  0.5090  1.4850
 6423SOL    HW231743   1.167   7.162   0.183 -0.1936 -0.2705  0.2133
 6424SOL     OW31744   2.381   3.859   3.086 -0.6916  0.0877 -0.1736
 6424SOL    HW131745   2.400   3.950   3.124 -0.6784  0.3189 -0.7254
 6424SOL    HW231746   2.289   3.858   3.048 -0.7664 -0.1956  0.0150
 6425SOL     OW31747   7.823   0.458   1.243  0.7381 -0.6496 -0.1112
 6425SOL    HW131748   7.832   0.541   1.298 -2.5469 -1.2007  1.4050
 6425SOL    HW231749   7.777   0.480   1.157  0.9422 -0.7087 -0.2363
 6426SOL     OW31750   6.288   7.052   5.723 -0.5538 -0.2256 -0.5779
 6426SOL    HW131751   6.221   7.012   5.661 -0.9996  0.3179 -0.4468
 6426SOL    HW231752   6.299   7.149   5.703 -0.3756 -0.1431 -0.0942
 6427SOL     OW31753   5.637   5.280   6.387  0.2174  0.2790  0.4899
 6427SOL    HW131754   5.599   5.230   6.465  1.1440  0.9575  1.3839
 6427SOL    HW231755   5.728   5.247   6.366  0.1944  0.4866  0.0475
 6428SOL     OW31756   1.751   1.098   8.036 -0.7266  0.2438 -0.2849
 6428SOL    HW131757   1.837   1.123   7.992 -0.2922 -0.5915  0.0881
 6428SOL    HW231758   1.675   1.140   7.986 -0.3456 -1.8216 -2.7366
 6429SOL     OW31759   5.473   2.139   8.718 -0.2611 -0.6384  0.0630
 6429SOL    HW131760   5.392   2.080   8.718  0.1818 -1.2520 -0.1872
 6429SOL    HW231761   5.473   2.196   8.636  0.1250 -1.4298 -0.4979
 6430SOL     OW31762   1.166   3.504   1.042  0.1124  0.9811  0.0134
 6430SOL    HW131763   1.112   3.476   0.962  0.3105 -1.5833  0.7346
 6430SOL    HW231764   1.114   3.488   1.125  0.8923  1.2375  0.5552
 6431SOL     OW31765   3.999   4.621   5.093 -0.0947 -0.4684  0.0297
 6431SOL    HW131766   4.040   4.688   5.154 -2.3203 -0.1595  1.2227
 6431SOL    HW231767   3.904   4.607   5.118 -0.2044 -2.6147 -1.4613
 6432SOL     OW31768   0.818   5.527   6.805 -0.0843 -0.2258  0.0405
 6432SOL    HW131769   0.791   5.609   6.856 -1.5019  0.3729 -1.6061
 6432SOL    HW231770   0.904   5.544   6.757  0.0527 -0.0036  0.3589
 6433SOL     OW31771   2.616   5.331   3.292  0.0268 -0.1857  0.5634
 6433SOL    HW131772   2.641   5.410   3.348 -0.2549  0.4125 -0.1449
 6433SOL    HW231773   2.587   5.255   3.351  1.3445 -0.1328  1.2943
 6434SOL     OW31774   3.697   1.805   3.330 -0.3700  0.2706 -0.0753
 6434SOL    HW131775   3.685   1.904   3.319  0.2710  0.5472  1.6271
 6434SOL    HW231776   3.791   1.779   3.307 -0.1125  0.2960  0.8945
 6435SOL     OW31777   2.973   5.840   4.207 -0.1747 -0.1007 -0.1780
 6435SOL    HW131778   3.066   5.820   4.237  0.9778  1.7875 -2.3094
 6435SOL    HW231779   2.947   5.933   4.235 -0.0807  0.6796 -2.5600
 6436SOL     OW31780   8.722   2.913   8.957  0.5436 -0.4168 -0.0348
 6436SOL    HW131781   8.668   2.975   8.901 -0.1685  0.0038  1.1005
 6436SOL    HW231782   8.724   2.946   9.051 -1.3298 -3.0245  0.9827
 6437SOL     OW31783   1.652   3.881   4.232 -0.3268 -0.2514 -0.3093
 6437SOL    HW131784   1.641   3.867   4.331 -1.8457 -1.2526 -0.5998
 6437SOL    HW231785   1.663   3.978   4.214  1.8477 -0.2218  1.0045
 6438SOL     OW31786   3.246   0.911   7.284  0.5890  0.3072 -0.1371
 6438SOL    HW131787   3.221   0.858   7.365  1.2506 -0.4285 -0.3988
 6438SOL    HW231788   3.165   0.955   7.246 -0.2512 -1.6593 -0.7171
 6439SOL     OW31789   7.370   1.298   2.979 -0.1012  0.5751 -0.0263
 6439SOL    HW131790   7.459   1.252   2.977 -0.1651  0.4424  0.1372
 6439SOL    HW231791   7.374   1.374   3.044 -0.8553 -0.9927  1.9053
 6440SOL     OW31792   8.745   4.693   1.721 -0.0532 -0.0199 -0.0132
 6440SOL    HW131793   8.677   4.620   1.730 -0.9124  0.6169 -1.1378
 6440SOL    HW231794   8.781   4.716   1.812  0.2736 -1.8674  0.3451
 6441SOL     OW31795   8.557   7.398   8.791 -0.0111 -0.2715  0.2041
 6441SOL    HW131796   8.613   7.469   8.749 -1.0157  0.8875  0.7770
 6441SOL    HW231797   8.570   7.312   8.742  1.4020  0.2395 -0.3533
 6442SOL     OW31798   8.658   3.038   3.802 -0.9606  0.1494 -0.3708
 6442SOL    HW131799   8.662   3.123   3.854 -2.7703 -0.6245  1.0628
 6442SOL    HW231800   8.750   3.012   3.774 -0.1620  1.4552  0.9783
 6443SOL     OW31801   2.776   6.083   0.657 -0.4556 -0.5568  0.2113
 6443SOL    HW131802   2.848   6.124   0.712 -0.6857  0.3954 -0.1885
 6443SOL    HW231803   2.687   6.114   0.690 -0.6631 -1.2951  0.3551
 6444SOL     OW31804   0.190   0.621   0.766 -0.0772 -0.0768 -0.2629
 6444SOL    HW131805   0.202   0.699   0.705  0.7956  0.7902  1.0025
 6444SOL    HW231806   0.094   0.616   0.795 -0.0835  0.6654 -0.1589
 6445SOL     OW31807   5.954   4.399   0.650 -0.2876  0.1529  0.1243
 6445SOL    HW131808   6.026   4.466   0.632 -0.0579 -0.0505  0.2852
 6445SOL    HW231809   5.976   4.313   0.604 -0.9009  0.3830 -0.6122
 6446SOL     OW31810   8.134   3.737   5.692 -0.4810 -0.0474  0.3616
 6446SOL    HW131811   8.046   3.775   5.719 -0.0100  2.2181 -1.1525
 6446SOL    HW231812   8.121   3.682   5.609 -0.7310 -1.0914  1.0829
 6447SOL     OW31813   4.560   1.498   7.144  0.0992  0.2676  0.1198
 6447SOL    HW131814   4.565   1.398   7.136 -0.2439  0.1978  0.6915
 6447SOL    HW231815   4.594   1.525   7.234  1.4886  0.7875 -0.5499
 6448SOL     OW31816   6.378   8.346   8.387 -0.2906  0.5917  0.1688
 6448SOL    HW131817   6.438   8.397   8.448  1.1328 -0.5438 -0.2406
 6448SOL    HW231818   6.355   8.258   8.428  1.3876 -0.5540 -1.2612
 6449SOL     OW31819   1.436   4.015   6.504  0.3235 -0.0983  0.0940
 6449SOL    HW131820   1.504   3.941   6.500  0.5321  0.0432  0.9341
 6449SOL    HW231821   1.372   3.997   6.578  0.1192  0.3464  0.0257
 6450SOL     OW31822   7.269   4.502   0.982 -0.1111 -0.0110  0.1972
 6450SOL    HW131823   7.247   4.454   1.067 -1.6978 -0.4947 -0.4655
 6450SOL    HW231824   7.332   4.577   1.001 -0.8121  0.1620  1.8799
 6451SOL     OW31825   2.222   8.997   7.792  0.3542 -0.1234  0.0260
 6451SOL    HW131826   2.286   8.920   7.793  0.8805  0.2664 -1.9057
 6451SOL    HW231827   2.166   8.993   7.710 -1.1247  0.3549  1.0002
 6452SOL     OW31828   4.644   7.446   5.374 -1.2758 -0.1662  0.7230
 6452SOL    HW131829   4.670   7.362   5.326 -1.9146 -0.1824  0.3975
 6452SOL    HW231830   4.603   7.510   5.308  0.3456  0.8925  0.7269
 6453SOL     OW31831   1.255   0.742   1.699  0.4414 -0.3686 -0.4874
 6453SOL    HW131832   1.342   0.748   1.649  0.6482 -0.8735 -0.1936
 6453SOL    HW231833   1.199   0.822   1.678  1.9205  1.1263  1.1072
 6454SOL     OW31834   0.955   4.166   1.481  0.2751  0.2493  0.2633
 6454SOL    HW131835   1.015   4.200   1.554  0.7929 -1.1750  0.5075
 6454SOL    HW231836   0.933   4.070   1.497 -2.1817  0.7614  0.2308
 6455SOL     OW31837   5.347   3.088   7.828  0.4674  0.4358  0.3250
 6455SOL    HW131838   5.397   3.003   7.844  1.5331  0.8534 -0.7455
 6455SOL    HW231839   5.303   3.117   7.913  2.5290  0.3567  1.4627
 6456SOL     OW31840   2.652   5.691   5.725  0.1175  0.0730 -0.8260
 6456SOL    HW131841   2.705   5.772   5.746 -1.3720  0.8106  0.1399
 6456SOL    HW231842   2.583   5.676   5.796  0.1567 -1.8474 -1.1572
 6457SOL     OW31843   8.419   2.250   5.980  0.2646 -0.3594  0.5500
 6457SOL    HW131844   8.400   2.243   6.078 -1.1742  3.4016  0.6445
 6457SOL    HW231845   8.345   2.299   5.935  1.4766 -0.9751 -2.2494
 6458SOL     OW31846   3.841   6.163   5.121 -0.7355 -0.4278 -0.5396
 6458SOL    HW131847   3.779   6.118   5.185 -0.6451 -0.5086 -0.5088
 6458SOL    HW231848   3.912   6.212   5.172 -0.2152 -1.1340 -0.5923
 6459SOL     OW31849   5.867   5.119   5.492 -0.0577  0.1675  0.2242
 6459SOL    HW131850   5.782   5.122   5.439  0.6607 -2.5891 -1.1324
 6459SOL    HW231851   5.850   5.158   5.583 -2.0384  2.2194 -0.9720
 6460SOL     OW31852   6.531   2.601   0.678  0.0851  0.2833 -0.0810
 6460SOL    HW131853   6.507   2.541   0.755  0.8940  0.0934  0.0265
 6460SOL    HW231854   6.490   2.566   0.594  0.5552 -0.4288 -0.0194
 6461SOL     OW31855   1.517   4.141   2.851  0.6063 -0.1976 -0.0670
 6461SOL    HW131856   1.453   4.185   2.789 -0.7483 -0.2491  1.2541
 6461SOL    HW231857   1.497   4.043   2.855  0.7876 -0.2216  0.3047
 6462SOL     OW31858   3.457   7.636   6.492 -0.0957  0.2211 -0.6614
 6462SOL    HW131859   3.385   7.704   6.503  0.9209  1.1348  0.6705
 6462SOL    HW231860   3.418   7.549   6.463 -1.3921  1.4251 -2.5734
 6463SOL     OW31861   0.674   0.020   8.208 -0.1184  0.3741  0.2918
 6463SOL    HW131862   0.671   0.093   8.140  1.9775 -0.7186 -1.0298
 6463SOL    HW231863   0.685  -0.068   8.163 -1.6060 -0.6725  1.9201
 6464SOL     OW31864   4.979   6.673   4.836  0.1597 -0.4028  0.1312
 6464SOL    HW131865   5.041   6.705   4.908  1.0505 -1.1563 -0.2962
 6464SOL    HW231866   5.029   6.663   4.750 -1.0062  0.9994 -0.7543
 6465SOL     OW31867   8.025   8.583   7.636  0.0460  0.2414  0.4157
 6465SOL    HW131868   8.053   8.645   7.709  2.5454 -1.1005  0.6250
 6465SOL    HW231869   8.076   8.497   7.643  0.6369  0.2449 -3.1679
 6466SOL     OW31870   2.501   5.723   7.499  0.1337  0.0224 -0.2932
 6466SOL    HW131871   2.526   5.810   7.457 -0.1884  0.4632  0.4124
 6466SOL    HW231872   2.521   5.727   7.597 -0.0835 -0.6225 -0.2206
 6467SOL     OW31873   4.017   5.948   2.827 -0.3259 -0.2560 -0.2573
 6467SOL    HW131874   4.065   5.940   2.914 -0.4413 -0.7915 -0.2398
 6467SOL    HW231875   4.055   6.025   2.775 -0.0362 -0.1384  0.1232
 6468SOL     OW31876   7.871   4.791   6.681  0.3449  0.4251 -0.2051
 6468SOL    HW131877   7.965   4.822   6.669  0.6011 -0.4709 -0.5875
 6468SOL    HW231878   7.808   4.868   6.670  0.8231  0.4333 -3.3436
 6469SOL     OW31879   4.367   4.372   8.029  0.4638 -0.0983  0.2244
 6469SOL    HW131880   4.270   4.380   8.003 -0.1623 -0.6093  2.3110
 6469SOL    HW231881   4.424   4.410   7.956 -1.2292 -1.2154 -1.7487
 6470SOL     OW31882   4.375   2.730   8.122 -0.1743  0.0628  0.5505
 6470SOL    HW131883   4.328   2.645   8.098 -1.7442  0.5064  1.9900
 6470SOL    HW231884   4.433   2.758   8.046  1.0449 -2.7393  0.3580
 6471SOL     OW31885   0.889   2.968   2.148  0.2566 -0.7501 -0.1279
 6471SOL    HW131886   0.851   3.016   2.069 -0.9895 -2.5575 -0.6556
 6471SOL    HW231887   0.821   2.968   2.222  0.4587 -1.2061  0.0598
 6472SOL     OW31888   0.334   1.048   6.742  0.6397  0.0361 -0.6626
 6472SOL    HW131889   0.246   1.045   6.695 -0.6767 -1.0798  1.8052
 6472SOL    HW231890   0.366   1.143   6.747 -1.1944  0.6426 -0.1732
 6473SOL     OW31891   0.612   6.049   0.591 -0.6441  0.0361 -0.1172
 6473SOL    HW131892   0.553   5.983   0.545  0.8778 -1.1717 -0.3942
 6473SOL    HW231893   0.579   6.064   0.684 -0.7187 -1.5261  0.1189
 6474SOL     OW31894   3.267   1.042   6.257  0.3541 -0.4776  0.1078
 6474SOL    HW131895   3.224   1.083   6.176  0.6810  2.5580  1.4294
 6474SOL    HW231896   3.196   1.009   6.319 -0.0624  1.4681  0.7174
 6475SOL     OW31897   8.478   2.792   3.837 -0.2106  0.0236 -0.2728
 6475SOL    HW131898   8.503   2.725   3.906  0.3645 -0.1856 -0.6809
 6475SOL    HW231899   8.559   2.820   3.786 -0.3674  1.3872  0.2050
 6476SOL     OW31900   4.049   1.473   5.230  0.2040  0.3816  0.1969
 6476SOL    HW131901   4.013   1.552   5.180  0.0338 -0.2602 -0.7180
 6476SOL    HW231902   4.128   1.501   5.284  0.0799  1.2029 -0.0341
 6477SOL     OW31903   1.811   8.776   2.044  0.5968  0.2268 -0.1046
 6477SOL    HW131904   1.751   8.768   2.124  0.5028 -1.0647 -0.2982
 6477SOL    HW231905   1.764   8.741   1.963 -0.1841  3.6298 -1.2122
 6478SOL     OW31906   4.921   8.929   0.642  0.2521 -0.3222 -0.2392
 6478SOL    HW131907   4.883   8.877   0.566 -0.5070  1.7313 -1.2931
 6478SOL    HW231908   4.888   8.891   0.728  1.3220 -2.8293 -0.8791
 6479SOL     OW31909   4.647   3.027   0.425  0.0116  0.1659 -0.3334
 6479SOL    HW131910   4.709   3.091   0.468  0.5263  1.3851 -2.8042
 6479SOL    HW231911   4.699   2.960   0.371 -0.6496 -0.7564  0.1489
 6480SOL     OW31912   0.849   2.353   0.216 -0.1538  0.3300  0.3928
 6480SOL    HW131913   0.941   2.354   0.256  0.1988  0.8827 -0.4189
 6480SOL    HW231914   0.845   2.285   0.143  0.0032  1.2815 -0.4956
 6481SOL     OW31915   2.953   6.526   6.229  0.7355 -0.4413  0.4103
 6481SOL    HW131916   2.879   6.499   6.167  0.1497  3.5144 -0.7309
 6481SOL    HW231917   2.925   6.605   6.283  4.0736  1.1328 -0.0265
 6482SOL     OW31918   3.590   5.469   1.173  0.1590  0.3859  0.0868
 6482SOL    HW131919   3.537   5.470   1.088  0.3310  0.9524 -0.0145
 6482SOL    HW231920   3.555   5.541   1.234 -0.3301 -0.3807  0.7188
 6483SOL     OW31921   7.730   6.929   5.689 -0.0599 -0.6455 -0.0090
 6483SOL    HW131922   7.658   6.996   5.703  1.8038  1.2748  0.7676
 6483SOL    HW231923   7.745   6.916   5.591 -0.6131 -0.1426 -0.1605
 6484SOL     OW31924   8.847   6.815   1.632  0.1515 -0.3305 -0.0573
 6484SOL    HW131925   8.888   6.895   1.588 -1.0566  0.5768  0.4578
 6484SOL    HW231926   8.865   6.734   1.576  1.0247  0.3596 -0.7930
 6485SOL     OW31927   1.830   3.737   8.268  0.1258  0.0033 -0.2624
 6485SOL    HW131928   1.881   3.756   8.352  0.8974 -1.2005 -0.4541
 6485SOL    HW231929   1.890   3.751   8.189  0.1701 -1.3842 -0.4897
 6486SOL     OW31930   3.457   5.890   6.754  0.7310  0.0771  0.0915
 6486SOL    HW131931   3.417   5.887   6.845  0.6271 -1.6376  0.0089
 6486SOL    HW231932   3.385   5.908   6.687  0.8621  1.6651  0.3768
 6487SOL     OW31933   4.850   1.954   1.529  0.3248 -0.5613 -0.0569
 6487SOL    HW131934   4.902   1.885   1.480 -0.4612 -0.7812 -0.5842
 6487SOL    HW231935   4.759   1.919   1.550  0.6995 -0.5206  1.6863
 6488SOL     OW31936   1.299   3.883   7.746 -0.2381  0.5552 -0.1238
 6488SOL    HW131937   1.377   3.869   7.684 -0.0592 -0.0121  0.2213
 6488SOL    HW231938   1.218   3.906   7.694  0.0650  0.7193 -0.5224
 6489SOL     OW31939   0.817   5.085   1.015 -0.4219 -0.1292 -0.2355
 6489SOL    HW131940   0.823   5.091   0.916  0.0198  0.5827 -0.1686
 6489SOL    HW231941   0.737   5.030   1.041 -0.3940 -0.5234 -0.9832
 6490SOL     OW31942   8.080   7.980   1.420  0.0185 -0.1817  0.2969
 6490SOL    HW131943   8.010   8.030   1.368 -0.2281 -0.0445  0.7461
 6490SOL    HW231944   8.043   7.892   1.449  0.2237 -0.3441  0.0636
 6491SOL     OW31945   1.898   1.540   0.548 -0.6939  0.2036 -0.8092
 6491SOL    HW131946   1.902   1.448   0.588  3.5077 -0.0441 -1.5853
 6491SOL    HW231947   1.894   1.608   0.620  0.1416 -0.4534 -0.1417
 6492SOL     OW31948   4.261   5.246   0.845 -0.3584 -0.2952  0.2361
 6492SOL    HW131949   4.166   5.249   0.875 -0.2848 -0.6265  0.5022
 6492SOL    HW231950   4.290   5.151   0.835  0.4180 -0.2140  1.6587
 6493SOL     OW31951   2.368   2.617   1.735 -0.2965 -0.8584  0.0689
 6493SOL    HW131952   2.422   2.700   1.719 -0.8544 -0.3993  0.5694
 6493SOL    HW231953   2.322   2.623   1.823 -2.2780 -0.6354 -0.9372
 6494SOL     OW31954   1.552   6.230   1.481 -0.3862 -0.2129 -0.5494
 6494SOL    HW131955   1.453   6.227   1.470 -0.7089  2.4813  1.1979
 6494SOL    HW231956   1.582   6.325   1.490  2.1010 -1.1086  1.2282
 6495SOL     OW31957   1.344   4.435   6.159 -0.0449  0.3572 -0.2997
 6495SOL    HW131958   1.390   4.404   6.242  1.4224  1.1312 -0.8095
 6495SOL    HW231959   1.260   4.383   6.147  0.3830 -0.6692  0.9726
 6496SOL     OW31960   3.302   7.544   8.203 -0.4763 -0.2209 -0.1794
 6496SOL    HW131961   3.238   7.621   8.213 -0.8001 -0.5136 -0.0105
 6496SOL    HW231962   3.304   7.515   8.107  0.5322  0.7624 -0.4661
 6497SOL     OW31963   1.424   4.256   1.022 -0.2622  0.4223 -0.0762
 6497SOL    HW131964   1.366   4.175   1.033 -0.3562  0.2824 -1.4810
 6497SOL    HW231965   1.493   4.237   0.952  0.1343  1.3293  0.0705
 6498SOL     OW31966   5.767   3.415   7.215  0.0250 -0.2130  0.3981
 6498SOL    HW131967   5.817   3.496   7.245  0.6304 -0.2333 -0.5341
 6498SOL    HW231968   5.760   3.416   7.115 -1.9225 -0.1461  0.5146
 6499SOL     OW31969   8.248   6.529   4.838 -0.1128  0.0881  0.3901
 6499SOL    HW131970   8.264   6.621   4.801  2.0156 -0.3072  0.2767
 6499SOL    HW231971   8.267   6.530   4.936 -2.3970  0.3060  0.8635
 6500SOL     OW31972   1.796   5.795   5.510 -0.4348 -0.4572 -0.4825
 6500SOL    HW131973   1.892   5.798   5.482 -0.5015 -0.7335 -0.7383
 6500SOL    HW231974   1.740   5.838   5.440 -0.5826 -0.9916 -0.6903
 6501SOL     OW31975   6.321   4.098   5.270  0.0734  0.6971  0.5197
 6501SOL    HW131976   6.334   4.085   5.368 -2.3278  0.3865  0.8302
 6501SOL    HW231977   6.262   4.177   5.254 -1.7565 -0.8398 -0.5432
 6502SOL     OW31978   4.799   5.760   1.439 -0.3571  0.1255  0.7018
 6502SOL    HW131979   4.834   5.696   1.507 -0.9382 -1.2513 -0.2866
 6502SOL    HW231980   4.871   5.780   1.372 -0.5657 -0.4561  0.3063
 6503SOL     OW31981   8.981   7.081   4.342  1.1924  0.7267  0.0316
 6503SOL    HW131982   8.911   7.102   4.410  0.5087 -1.3449 -0.0038
 6503SOL    HW231983   9.025   6.995   4.365  2.7570  1.3074 -0.7319
 6504SOL     OW31984   4.089   5.894   0.390  0.2640 -0.6885 -0.5995
 6504SOL    HW131985   4.006   5.873   0.338 -0.9132  2.7143 -0.2092
 6504SOL    HW231986   4.155   5.940   0.331  1.0129 -1.4598 -0.3666
 6505SOL     OW31987   7.311   1.726   0.798  0.3244 -0.4115  0.1157
 6505SOL    HW131988   7.275   1.680   0.879 -1.1543 -1.2014 -0.9642
 6505SOL    HW231989   7.391   1.676   0.765 -0.3785 -1.3807 -0.1702
 6506SOL     OW31990   8.722   0.506   5.293  0.0188 -0.2090  0.0574
 6506SOL    HW131991   8.737   0.417   5.248 -1.6352 -0.3932 -0.1402
 6506SOL    HW231992   8.696   0.574   5.224  1.6774  0.5441  0.1501
 6507SOL     OW31993   7.695   3.643   3.355  0.1502 -0.8026  0.5899
 6507SOL    HW131994   7.715   3.548   3.333  0.3801 -0.5754 -0.1835
 6507SOL    HW231995   7.779   3.697   3.354  0.0138 -0.5794  0.9743
 6508SOL     OW31996   7.171   8.345   1.926 -0.2873 -0.0770  0.3059
 6508SOL    HW131997   7.217   8.319   1.842  0.4318  1.6229  0.1487
 6508SOL    HW231998   7.226   8.317   2.005 -0.2988 -0.4549  0.1792
 6509SOL     OW31999   1.853   3.704   5.003  0.3260  0.0042  0.3529
 6509SOL    HW132000   1.873   3.798   4.973  0.9581 -0.3984 -0.4957
 6509SOL    HW232001   1.829   3.705   5.100 -0.3595  1.1364  0.1773
 6510SOL     OW32002   4.203   8.273   7.371  0.8556  0.4282  0.0438
 6510SOL    HW132003   4.134   8.202   7.383  1.9933 -0.7520 -0.3693
 6510SOL    HW232004   4.213   8.325   7.456  0.2770 -0.1303  0.4571
 6511SOL     OW32005   2.367   6.624   1.127  0.0289  0.5117  0.4144
 6511SOL    HW132006   2.408   6.671   1.049  0.7662  1.1325  1.1616
 6511SOL    HW232007   2.337   6.692   1.194 -2.0950  0.0552 -0.0520
 6512SOL     OW32008   8.871   7.924   1.376  0.3800  0.2299 -0.1459
 6512SOL    HW132009   8.877   8.020   1.405  0.2547  0.6195 -1.3635
 6512SOL    HW232010   8.946   7.872   1.416 -1.3392  0.1430  3.0763
 6513SOL     OW32011   5.271   5.831   7.695 -0.3113 -0.5133  0.0651
 6513SOL    HW132012   5.218   5.865   7.773 -0.4533 -1.7533  0.5139
 6513SOL    HW232013   5.316   5.746   7.720  0.3290 -0.4800 -0.9495
 6514SOL     OW32014   3.220   2.942   1.778 -0.5814  0.3479  0.3948
 6514SOL    HW132015   3.201   3.018   1.716 -1.1591 -0.1813 -0.0861
 6514SOL    HW232016   3.135   2.895   1.800 -0.2943  0.1523  1.1010
 6515SOL     OW32017   1.421   4.385   6.661  0.8417  0.0277  0.2243
 6515SOL    HW132018   1.360   4.352   6.732  1.1536  1.2325  1.0841
 6515SOL    HW232019   1.386   4.359   6.571 -0.0431 -0.7198  0.7832
 6516SOL     OW32020   8.376   3.179   7.741 -0.0132 -0.6653 -0.5223
 6516SOL    HW132021   8.360   3.261   7.686  0.5050  0.0071  0.3299
 6516SOL    HW232022   8.380   3.099   7.681  2.0240  0.2386 -1.6078
 6517SOL     OW32023   1.242   8.926   7.680  0.4183  0.1722 -0.9109
 6517SOL    HW132024   1.151   8.965   7.665  0.1152 -1.1651 -2.6041
 6517SOL    HW232025   1.311   8.994   7.656 -0.1067  0.9126 -0.3717
 6518SOL     OW32026   5.324   2.468   0.663  0.3101  0.2671  0.0854
 6518SOL    HW132027   5.238   2.501   0.624  1.2748  1.3058 -1.2214
 6518SOL    HW232028   5.397   2.533   0.642  1.8335 -1.6727 -0.7385
 6519SOL     OW32029   6.033   3.353   1.896 -0.0209 -0.3378 -0.3968
 6519SOL    HW132030   5.994   3.291   1.965 -1.0577  0.7318  0.0019
 6519SOL    HW232031   5.973   3.432   1.885  1.2851  0.6011 -0.9066
 6520SOL     OW32032   5.895   6.157   8.075  0.4899 -0.7121 -0.1331
 6520SOL    HW132033   5.908   6.247   8.119 -1.3190 -0.9071  0.8559
 6520SOL    HW232034   5.954   6.090   8.120 -2.0644 -1.1290  2.8248
 6521SOL     OW32035   7.387   2.853   8.828  0.2229  0.1780  0.0773
 6521SOL    HW132036   7.440   2.808   8.899 -0.2808  2.0664  1.6824
 6521SOL    HW232037   7.308   2.900   8.869 -1.7165 -1.0998 -2.0544
 6522SOL     OW32038   4.100   5.856   8.247  0.3197 -0.9407 -0.4342
 6522SOL    HW132039   4.100   5.782   8.181 -1.1435 -1.2129 -0.1409
 6522SOL    HW232040   4.053   5.935   8.209  0.6067 -0.6526 -0.1987
 6523SOL     OW32041   5.695   2.318   4.765  0.0827 -0.5835  0.2029
 6523SOL    HW132042   5.715   2.222   4.784 -1.3283 -0.9556 -0.1164
 6523SOL    HW232043   5.603   2.340   4.798 -0.5025  0.0422 -1.7558
 6524SOL     OW32044   4.607   6.809   8.220  0.3298 -0.5064  0.0536
 6524SOL    HW132045   4.520   6.850   8.195  1.5882  0.8251 -2.2556
 6524SOL    HW232046   4.673   6.881   8.243  0.6970 -1.5162  2.3572
 6525SOL     OW32047   8.443   4.950   1.362 -0.5989  0.0997 -0.1876
 6525SOL    HW132048   8.475   4.943   1.457 -2.3894 -0.3113  0.3985
 6525SOL    HW232049   8.479   4.872   1.310  1.0676  0.7688 -0.0611
 6526SOL     OW32050   6.281   8.629   8.109  0.2883 -0.0094 -0.0304
 6526SOL    HW132051   6.226   8.656   8.188 -0.5611 -1.6770 -0.0135
 6526SOL    HW232052   6.357   8.572   8.141  0.8297  0.5877 -0.2623
 6527SOL     OW32053   8.057   2.216   3.221  0.0227 -0.1398  0.3809
 6527SOL    HW132054   7.969   2.236   3.263  0.2227  0.7024  0.4131
 6527SOL    HW232055   8.054   2.236   3.123  0.1754 -0.1262  0.3782
 6528SOL     OW32056   2.431   2.620   7.898 -0.0394  0.1523 -0.8295
 6528SOL    HW132057   2.362   2.575   7.955 -0.1404  1.6816  0.2501
 6528SOL    HW232058   2.389   2.696   7.849  0.7779  0.8060 -0.5172
 6529SOL     OW32059   0.958   7.846   6.393  0.4182  0.1259  0.0404
 6529SOL    HW132060   1.032   7.835   6.327 -0.5311  2.8885 -1.5845
 6529SOL    HW232061   0.996   7.861   6.484  1.8908  1.5658 -0.7825
 6530SOL     OW32062   5.062   7.924   4.201  0.1118 -0.1937  0.4001
 6530SOL    HW132063   4.988   7.898   4.139 -2.4549  1.4904  2.6230
 6530SOL    HW232064   5.079   7.850   4.266 -0.2950 -0.1962  0.5009
 6531SOL     OW32065   3.717   4.411   8.439 -0.5350 -0.9215 -0.2734
 6531SOL    HW132066   3.792   4.475   8.458  0.7338 -2.3581 -0.3343
 6531SOL    HW232067   3.691   4.418   8.343 -1.0792  0.1970 -0.0535
 6532SOL     OW32068   0.932   3.501   2.462 -0.5919 -0.4393 -0.6164
 6532SOL    HW132069   1.017   3.501   2.411  0.1305 -0.9547  0.5651
 6532SOL    HW232070   0.932   3.425   2.527 -0.4417  1.5919  1.8350
 6533SOL     OW32071   4.126   6.092   5.824  0.1190  0.2751  0.1451
 6533SOL    HW132072   4.102   6.033   5.902  0.1997  0.1070  0.0428
 6533SOL    HW232073   4.058   6.165   5.816 -0.5223 -0.3677 -0.3152
 6534SOL     OW32074   0.702   6.841   4.979  0.0921 -0.4958 -0.0356
 6534SOL    HW132075   0.720   6.749   5.014 -0.6917  0.1861  2.2644
 6534SOL    HW232076   0.615   6.842   4.930  0.4058 -1.1115 -0.6110
 6535SOL     OW32077   8.921   3.865   1.939  0.0423 -0.2675 -0.3953
 6535SOL    HW132078   8.830   3.878   1.898  0.8188 -1.2644 -2.5115
 6535SOL    HW232079   8.912   3.820   2.028 -1.6269  1.0156  0.1014
 6536SOL     OW32080   8.824   1.725   8.985 -0.0520  0.8069  0.1287
 6536SOL    HW132081   8.773   1.793   9.039 -1.0856  0.7844 -0.8056
 6536SOL    HW232082   8.771   1.700   8.905  0.0412 -1.5746  0.7797
 6537SOL     OW32083   5.504   2.897   4.346  0.0632 -0.2591  0.1924
 6537SOL    HW132084   5.576   2.855   4.401 -0.8396 -0.9730  0.8536
 6537SOL    HW232085   5.421   2.841   4.353 -0.6101  0.6640 -0.4007
 6538SOL     OW32086   8.607   3.957   5.818 -0.1417 -0.4617  0.0112
 6538SOL    HW132087   8.568   3.871   5.852  1.4187 -2.4701 -3.0838
 6538SOL    HW232088   8.534   4.016   5.784 -1.0788 -1.3077  0.5373
 6539SOL     OW32089   0.671   2.883   6.238 -0.8764  0.0850 -0.2367
 6539SOL    HW132090   0.769   2.897   6.255 -1.1706  1.1316  0.6302
 6539SOL    HW232091   0.618   2.913   6.317 -1.7213 -3.9980  0.9047
 6540SOL     OW32092   3.527   4.605   3.229 -0.1463  0.3007 -0.0072
 6540SOL    HW132093   3.449   4.631   3.172  0.3486 -0.8104 -1.2125
 6540SOL    HW232094   3.572   4.688   3.263  0.2936  0.9952 -2.2283
 6541SOL     OW32095   3.438   4.823   5.392  0.1326 -0.0658 -0.5148
 6541SOL    HW132096   3.536   4.806   5.400  0.3283  0.9796 -0.6654
 6541SOL    HW232097   3.388   4.737   5.408  1.0908 -0.7443 -1.1167
 6542SOL     OW32098   6.069   3.434   2.447  0.2979  0.1249  0.0530
 6542SOL    HW132099   6.048   3.481   2.362 -0.7487  1.8390  1.2163
 6542SOL    HW232100   6.157   3.466   2.482  0.3747 -0.0123 -0.0185
 6543SOL     OW32101   8.369   8.210   7.780 -0.3193  0.2462  0.1911
 6543SOL    HW132102   8.432   8.257   7.718 -0.5484  1.1030  0.5973
 6543SOL    HW232103   8.370   8.112   7.761  2.2235  0.0418  1.1326
 6544SOL     OW32104   8.312   1.275   5.008 -0.2176  0.2436  0.3632
 6544SOL    HW132105   8.311   1.321   4.920  0.8676 -0.1912  0.1195
 6544SOL    HW232106   8.351   1.336   5.077  0.1104  0.1232  0.2840
 6545SOL     OW32107   6.621   3.588   8.345  0.0962 -0.1975 -0.4399
 6545SOL    HW132108   6.699   3.563   8.402 -0.0552  0.8905  0.2599
 6545SOL    HW232109   6.568   3.659   8.391  0.9461  1.9814 -2.7350
 6546SOL     OW32110   3.376   8.100   4.155 -0.1285  0.0454 -0.1018
 6546SOL    HW132111   3.302   8.158   4.124 -0.7966  0.3763  2.0452
 6546SOL    HW232112   3.345   8.005   4.158 -0.2070  0.0742 -0.0143
 6547SOL     OW32113   7.440   2.638   2.287 -0.3079 -0.1997  0.5093
 6547SOL    HW132114   7.459   2.550   2.330  0.2664 -0.4041 -0.1619
 6547SOL    HW232115   7.442   2.710   2.357 -0.2683 -0.6492  0.9721
 6548SOL     OW32116   4.950   3.949   1.592 -0.3036  0.5641 -0.4508
 6548SOL    HW132117   5.025   3.979   1.533 -0.3483  1.5798 -0.0062
 6548SOL    HW232118   4.982   3.946   1.687 -0.1916 -1.1913 -0.5360
 6549SOL     OW32119   2.201   6.342   8.893 -0.1307 -0.1148 -0.1238
 6549SOL    HW132120   2.194   6.393   8.808  2.3807 -0.2842 -0.4800
 6549SOL    HW232121   2.162   6.395   8.968 -0.0588  1.1309 -0.9615
 6550SOL     OW32122   0.758   4.178   5.456 -0.1585  0.3011  0.3889
 6550SOL    HW132123   0.700   4.101   5.428 -1.2958  0.9696  0.8807
 6550SOL    HW232124   0.848   4.143   5.483 -0.1801 -0.7004 -0.7858
 6551SOL     OW32125   4.892   3.287   7.496  0.0335  0.0120 -0.5999
 6551SOL    HW132126   4.801   3.275   7.455 -1.1796  3.3843  0.9658
 6551SOL    HW232127   4.886   3.271   7.595  1.2260 -0.1188 -0.5485
 6552SOL     OW32128   2.841   0.480   1.635 -0.2094  0.2211 -0.3824
 6552SOL    HW132129   2.908   0.460   1.707 -0.7019  0.2157  0.0726
 6552SOL    HW232130   2.810   0.394   1.594 -0.3549  0.1935 -0.2148
 6553SOL     OW32131   3.284   7.868   2.604  0.2738 -0.4845  0.2866
 6553SOL    HW132132   3.358   7.932   2.621  0.2905 -0.5730  0.5522
 6553SOL    HW232133   3.321   7.775   2.596  0.0674 -0.7038  1.6612
 6554SOL     OW32134   1.826   3.105   2.354  0.2777 -0.2069 -0.3258
 6554SOL    HW132135   1.908   3.064   2.395  0.2569  0.8339  0.7649
 6554SOL    HW232136   1.853   3.181   2.296  0.1452 -0.4495 -0.7090
 6555SOL     OW32137   3.309   6.150   2.960 -0.2203 -0.0330 -0.4331
 6555SOL    HW132138   3.359   6.087   2.900 -1.2300  1.3558 -2.7913
 6555SOL    HW232139   3.215   6.160   2.927 -1.1405 -0.1160  2.0690
 6556SOL     OW32140   7.248   5.115   2.893  0.0373  0.2633  0.4963
 6556SOL    HW132141   7.286   5.194   2.844 -0.0995  0.2889  0.4304
 6556SOL    HW232142   7.159   5.140   2.931 -2.2712 -1.2782 -3.5593
 6557SOL     OW32143   0.980   0.651   5.326  0.4882 -0.2574 -0.0397
 6557SOL    HW132144   0.938   0.742   5.330 -1.9164 -1.2701 -1.3293
 6557SOL    HW232145   0.910   0.582   5.341  1.8179 -2.0037 -1.6776
 6558SOL     OW32146   1.044   7.774   3.230  0.7492 -0.2308 -0.0676
 6558SOL    HW132147   1.075   7.680   3.247 -0.1455  0.0268  3.5506
 6558SOL    HW232148   1.116   7.838   3.256  0.1004  0.1337  0.8857
 6559SOL     OW32149   4.028   5.512   2.023 -0.2103  0.1633 -0.4319
 6559SOL    HW132150   4.071   5.447   2.085 -0.7375 -0.9315 -1.1969
 6559SOL    HW232151   3.993   5.590   2.075 -0.1982 -0.4948  0.5735
 6560SOL     OW32152   4.108   1.793   5.176 -0.2662  0.4297  0.1539
 6560SOL    HW132153   4.041   1.779   5.249  1.0982  0.6599  1.4694
 6560SOL    HW232154   4.065   1.841   5.100 -1.4012  1.2278  1.2856
 6561SOL     OW32155   4.201   4.286   8.610  0.4216 -0.1978 -0.3605
 6561SOL    HW132156   4.219   4.277   8.708  0.4080  0.2022 -0.3192
 6561SOL    HW232157   4.286   4.307   8.562  0.1978  1.0306 -0.2492
 6562SOL     OW32158   8.017   3.980   8.854 -0.0466 -0.2814 -0.3399
 6562SOL    HW132159   7.998   4.000   8.758  1.7574  0.3132 -0.5939
 6562SOL    HW232160   8.112   3.949   8.863  0.6045  2.0977  1.5499
 6563SOL     OW32161   6.539   0.357   2.091 -0.3477  0.1935 -0.4457
 6563SOL    HW132162   6.516   0.429   2.026 -1.1391  0.1147 -0.2601
 6563SOL    HW232163   6.578   0.279   2.042  1.2536  1.0535 -0.5595
 6564SOL     OW32164   7.014   1.825   1.836 -0.0484 -0.1081 -0.5070
 6564SOL    HW132165   7.082   1.862   1.899 -1.9120  4.2811 -0.8871
 6564SOL    HW232166   6.946   1.773   1.887  0.4868  0.2626  0.6005
 6565SOL     OW32167   0.667   1.930   6.721 -0.0851  0.5590  0.5470
 6565SOL    HW132168   0.691   1.917   6.625 -2.0781  1.3765 -0.0905
 6565SOL    HW232169   0.683   2.025   6.747  0.9050  0.2303  1.1745
 6566SOL     OW32170   5.886   6.540   5.456  0.2069 -0.0676  1.3094
 6566SOL    HW132171   5.829   6.587   5.523  0.0921 -0.6203  1.6048
 6566SOL    HW232172   5.973   6.515   5.500 -0.0513 -0.8344  1.3814
 6567SOL     OW32173   1.561   8.035   6.643  0.1481  0.3762  0.2863
 6567SOL    HW132174   1.631   8.088   6.595  0.2020 -0.6959 -0.8158
 6567SOL    HW232175   1.505   8.097   6.698  1.0197  1.4209  0.0147
 6568SOL     OW32176   8.549   3.068   1.026 -0.3139  0.1386 -0.2071
 6568SOL    HW132177   8.596   3.121   1.097 -0.0079 -1.1829  0.5933
 6568SOL    HW232178   8.453   3.097   1.021 -0.2872  0.3760  0.6028
 6569SOL     OW32179   0.690   1.922   3.773 -0.2238  0.0931  0.1646
 6569SOL    HW132180   0.665   1.976   3.693 -0.8886 -0.1174  0.2326
 6569SOL    HW232181   0.788   1.935   3.792 -0.3987  1.3917  0.2597
 6570SOL     OW32182   1.548   4.611   2.286 -0.2920  0.4570  0.0646
 6570SOL    HW132183   1.547   4.512   2.272 -0.6197  0.5383 -0.5010
 6570SOL    HW232184   1.643   4.642   2.299 -0.3506 -0.1856  2.1477
 6571SOL     OW32185   1.470   1.259   1.922  0.0854  0.1016 -0.0199
 6571SOL    HW132186   1.528   1.180   1.941 -1.3462 -0.7975  0.6166
 6571SOL    HW232187   1.527   1.333   1.886  1.2221 -1.6967 -2.0279
 6572SOL     OW32188   4.994   8.166   6.636 -0.0764  0.2663 -0.0856
 6572SOL    HW132189   4.977   8.168   6.537 -1.0707  3.4823  0.0945
 6572SOL    HW232190   4.917   8.123   6.682 -1.8364  3.0112 -0.3603
 6573SOL     OW32191   4.991   3.602   4.797  0.4145  0.0605  0.2279
 6573SOL    HW132192   4.991   3.689   4.748  1.1887  0.6858  1.3134
 6573SOL    HW232193   4.903   3.589   4.843 -0.6976 -0.9992 -2.1015
 6574SOL     OW32194   2.631   6.404   8.931 -0.0679 -0.0993 -0.4646
 6574SOL    HW132195   2.629   6.484   8.990  1.3215  0.0094 -0.5486
 6574SOL    HW232196   2.652   6.323   8.986 -1.0169 -0.3462 -0.4537
 6575SOL     OW32197   6.878   7.279   1.591 -0.3263  0.1337 -0.2191
 6575SOL    HW132198   6.837   7.368   1.569 -0.2810  0.2427  0.1390
 6575SOL    HW232199   6.848   7.250   1.681  3.3634  2.0302  1.7266
 6576SOL     OW32200   2.893   3.819   4.249  0.1932 -0.2775 -0.4495
 6576SOL    HW132201   2.937   3.759   4.316  0.4311  0.2783 -0.1062
 6576SOL    HW232202   2.826   3.766   4.196  1.8334 -1.3195 -1.5306
 6577SOL     OW32203   0.707   3.455   5.436 -0.3886  0.3039 -0.6992
 6577SOL    HW132204   0.608   3.466   5.424 -0.3525 -1.2620 -2.4818
 6577SOL    HW232205   0.739   3.377   5.383  1.3410 -1.0530  2.2287
 6578SOL     OW32206   1.492   4.252   6.339  0.0220  0.1021  0.0063
 6578SOL    HW132207   1.487   4.192   6.419 -1.4771 -0.4078 -0.4504
 6578SOL    HW232208   1.525   4.199   6.260  0.7670  0.4165  0.1063
 6579SOL     OW32209   2.856   2.069   2.506  0.5032  0.3763  0.0511
 6579SOL    HW132210   2.758   2.073   2.486  0.5310 -0.3396 -0.2235
 6579SOL    HW232211   2.897   1.993   2.456  1.1603  0.5443  0.3365
 6580SOL     OW32212   0.544   5.192   3.835  0.3818 -0.3164 -0.0039
 6580SOL    HW132213   0.540   5.152   3.743  0.8978  0.1601 -0.2369
 6580SOL    HW232214   0.461   5.245   3.852  0.5248  0.0518 -0.4157
 6581SOL     OW32215   4.601   7.057   8.024  0.1802  0.1533  0.1286
 6581SOL    HW132216   4.582   7.129   8.091 -0.5390  0.2520 -0.1793
 6581SOL    HW232217   4.565   6.970   8.058 -2.9849  0.7483 -1.4779
 6582SOL     OW32218   7.424   3.902   8.043  0.1219  0.1593  0.1803
 6582SOL    HW132219   7.398   3.999   8.037 -0.2368  0.1068  0.8540
 6582SOL    HW232220   7.514   3.894   8.086  0.2238  0.2078 -0.0271
 6583SOL     OW32221   7.222   3.640   7.532  0.0520  0.0349  0.2149
 6583SOL    HW132222   7.288   3.629   7.606 -0.5867  0.1424  0.8083
 6583SOL    HW232223   7.131   3.612   7.564 -0.5976  1.9428  0.0835
 6584SOL     OW32224   1.861   2.310   2.579  0.2069  0.1252 -0.4678
 6584SOL    HW132225   1.862   2.215   2.608  1.7359  1.1556  3.1834
 6584SOL    HW232226   1.771   2.350   2.596 -0.2797 -0.4861 -1.5316
 6585SOL     OW32227   3.058   8.972   7.418  0.7230 -0.2285  1.0325
 6585SOL    HW132228   3.023   9.061   7.449 -1.8796 -1.0050  0.4656
 6585SOL    HW232229   3.061   8.970   7.318  1.6567 -0.4660  1.0606
 6586SOL     OW32230   5.173   3.143   7.465 -0.4295  0.1417  0.1063
 6586SOL    HW132231   5.174   3.053   7.420  1.6295  0.1076  0.2152
 6586SOL    HW232232   5.103   3.200   7.421 -0.3065 -0.7941 -1.3614
 6587SOL     OW32233   4.579   0.227   8.939  0.2185  0.2028 -0.2655
 6587SOL    HW132234   4.628   0.281   9.008 -0.7302 -0.9100  1.3044
 6587SOL    HW232235   4.630   0.143   8.921 -0.1262 -0.0549 -0.0461
 6588SOL     OW32236   8.859   4.760   4.976  0.4098 -0.1729  0.6502
 6588SOL    HW132237   8.955   4.776   4.952  0.4190 -0.0742  0.7464
 6588SOL    HW232238   8.834   4.666   4.955  0.0187  0.3007 -1.0173
 6589SOL     OW32239   4.508   2.806   7.899  0.1856 -0.3306  0.1884
 6589SOL    HW132240   4.592   2.753   7.889  0.9867  1.0519 -0.6123
 6589SOL    HW232241   4.507   2.880   7.831 -0.5305  1.1556  1.7670
 6590SOL     OW32242   4.281   1.436   2.527  0.5083 -0.0932  0.3119
 6590SOL    HW132243   4.201   1.453   2.585  0.3641  1.4778 -0.3076
 6590SOL    HW232244   4.322   1.523   2.501  0.1242 -0.6971 -2.5271
 6591SOL     OW32245   5.642   6.514   3.792  0.1961 -0.5373  0.7153
 6591SOL    HW132246   5.579   6.499   3.869  0.0819  3.2351  1.4596
 6591SOL    HW232247   5.734   6.531   3.828  0.7958 -1.8148 -0.1724
 6592SOL     OW32248   0.882   1.451   5.183 -0.3843  0.2820 -0.4923
 6592SOL    HW132249   0.980   1.464   5.170 -0.2392 -0.6626 -0.3193
 6592SOL    HW232250   0.843   1.534   5.223  0.0768  1.2186 -1.9614
 6593SOL     OW32251   4.547   5.428   7.401 -0.2483 -1.3561 -0.1297
 6593SOL    HW132252   4.605   5.477   7.337 -2.8711  1.9937 -0.0888
 6593SOL    HW232253   4.496   5.356   7.353 -0.8285 -0.0704 -1.4660
 6594SOL     OW32254   8.405   1.116   1.110 -0.4942  0.0187 -0.1250
 6594SOL    HW132255   8.367   1.165   1.189  0.6896  0.7354  0.0143
 6594SOL    HW232256   8.482   1.168   1.072 -0.4412 -0.7966 -1.1613
 6595SOL     OW32257   5.046   4.974   4.236 -0.4100 -0.2398  0.2037
 6595SOL    HW132258   5.106   5.052   4.255 -0.6039  0.3310 -1.4961
 6595SOL    HW232259   4.963   4.983   4.291  1.2579 -1.3686  3.0762
 6596SOL     OW32260   4.971   6.918   8.091 -0.3687 -1.0305  0.5250
 6596SOL    HW132261   5.070   6.918   8.102 -0.2071  1.8812 -0.3823
 6596SOL    HW232262   4.947   6.874   8.004  0.0727 -2.4312  1.1170
 6597SOL     OW32263   4.681   6.370   8.298 -0.0749  0.2511  0.3598
 6597SOL    HW132264   4.641   6.439   8.237  1.6240  0.1595 -0.9061
 6597SOL    HW232265   4.649   6.279   8.271 -0.8450  0.3754  0.8421
 6598SOL     OW32266   2.952   6.488   4.502 -0.6655 -0.2681  0.1826
 6598SOL    HW132267   2.993   6.404   4.466  0.2848  0.3281 -0.1345
 6598SOL    HW232268   2.852   6.481   4.497 -0.6415 -1.9988  1.5858
 6599SOL     OW32269   6.867   3.747   8.466 -0.6075 -0.3860  0.1356
 6599SOL    HW132270   6.937   3.818   8.461  0.3394 -1.2535  0.8649
 6599SOL    HW232271   6.806   3.767   8.543 -0.4129 -0.2973  0.2670
 6600SOL     OW32272   4.791   1.121   2.568 -0.2109 -0.2742 -0.1448
 6600SOL    HW132273   4.879   1.108   2.521 -1.2736 -1.0658 -2.0050
 6600SOL    HW232274   4.737   1.190   2.519 -0.8222 -0.1511  0.6928
 6601SOL     OW32275   1.995   6.549   6.728 -0.1031 -0.3161 -0.7703
 6601SOL    HW132276   2.036   6.482   6.791 -1.2638 -1.8912 -1.6611
 6601SOL    HW232277   2.034   6.537   6.637 -0.0859  0.4548 -0.8694
 6602SOL     OW32278   4.693   5.070   6.309  0.1581  0.0855 -0.0931
 6602SOL    HW132279   4.611   5.036   6.262  2.5159 -4.3355 -1.2302
 6602SOL    HW232280   4.693   5.036   6.404  1.3828 -1.2164 -0.5448
 6603SOL     OW32281   6.127   5.492   8.201  0.1845  0.1599 -0.0268
 6603SOL    HW132282   6.148   5.589   8.213  0.5150 -0.1168  1.7440
 6603SOL    HW232283   6.211   5.438   8.214 -0.7517 -0.6527  3.1192
 6604SOL     OW32284   6.574   6.922   7.529 -0.3433  0.3843  0.7551
 6604SOL    HW132285   6.645   6.986   7.557  0.0682 -0.3756  1.4737
 6604SOL    HW232286   6.484   6.962   7.546 -0.0930  1.2037  0.1751
 6605SOL     OW32287   1.805   4.846   2.996 -0.6057 -0.5590 -0.1894
 6605SOL    HW132288   1.712   4.810   2.997  0.5447 -3.6315  0.2342
 6605SOL    HW232289   1.834   4.865   3.090 -0.7778  0.4565 -0.3263
 6606SOL     OW32290   1.367   5.194   5.772  0.4974 -0.4334 -0.5192
 6606SOL    HW132291   1.369   5.117   5.707  2.5766 -0.4723 -0.4558
 6606SOL    HW232292   1.439   5.259   5.748 -0.1060  0.6123  0.4825
 6607SOL     OW32293   3.719   7.031   6.063 -0.1850 -0.1631 -0.0358
 6607SOL    HW132294   3.690   7.041   6.158  0.7519 -0.9815  0.3397
 6607SOL    HW232295   3.806   7.078   6.049  0.5980 -1.6036 -0.0358
 6608SOL     OW32296   4.379   0.460   0.864 -0.8869 -0.5423  0.2558
 6608SOL    HW132297   4.419   0.427   0.778  0.8623  0.6486  0.5794
 6608SOL    HW232298   4.335   0.548   0.848 -1.3248 -0.7320  0.4072
 6609SOL     OW32299   0.829   3.281   2.316 -0.0344 -0.7382  0.4576
 6609SOL    HW132300   0.828   3.216   2.392  1.8027 -0.6973  0.5414
 6609SOL    HW232301   0.846   3.373   2.351  2.5243 -0.9432 -0.1014
 6610SOL     OW32302   3.497   5.687   0.383  0.0259 -0.2254  0.7191
 6610SOL    HW132303   3.447   5.751   0.325  1.2023  0.5055  0.4962
 6610SOL    HW232304   3.587   5.668   0.342  0.1919 -1.0259  1.4360
 6611SOL     OW32305   5.038   4.338   0.190  0.1952 -0.3716 -0.6329
 6611SOL    HW132306   5.054   4.375   0.098  0.1896 -1.1699 -0.9585
 6611SOL    HW232307   5.122   4.296   0.224 -0.1445 -1.2066 -0.7992
 6612SOL     OW32308   0.036   5.251   7.707 -0.3354 -0.1779 -0.1702
 6612SOL    HW132309   0.060   5.249   7.804  0.5024 -1.3829 -0.3918
 6612SOL    HW232310   0.115   5.283   7.654 -1.3191  2.1360 -0.3233
 6613SOL     OW32311   6.877   3.299   7.545 -0.0984  0.6534 -0.4810
 6613SOL    HW132312   6.796   3.351   7.519 -0.2884 -0.1319 -1.4959
 6613SOL    HW232313   6.890   3.223   7.481 -0.4713 -1.2099  1.5955
 6614SOL     OW32314   3.107   5.363   1.397 -0.1563  0.5377 -0.3409
 6614SOL    HW132315   3.071   5.328   1.311  0.7053  0.6316 -0.7484
 6614SOL    HW232316   3.048   5.334   1.472 -0.7145  0.1496 -0.9223
 6615SOL     OW32317   4.789   1.155   5.064  0.0921  0.1177 -0.4088
 6615SOL    HW132318   4.733   1.231   5.099  3.1031  1.1977  2.2590
 6615SOL    HW232319   4.788   1.080   5.130 -2.0322 -1.8760 -2.5734
 6616SOL     OW32320   6.906   3.821   0.760 -0.4698 -0.1500  0.2549
 6616SOL    HW132321   6.979   3.839   0.826  0.2663 -0.9116 -0.3352
 6616SOL    HW232322   6.894   3.900   0.700  0.3442 -0.2694 -0.0746
 6617SOL     OW32323   5.752   7.444   8.793 -0.6877  0.1449  0.0649
 6617SOL    HW132324   5.793   7.533   8.772 -0.6820  0.5843  1.8370
 6617SOL    HW232325   5.770   7.380   8.718  1.9182  0.7848  0.0928
 6618SOL     OW32326   0.669   2.673   4.886  0.2980  0.4788 -0.0827
 6618SOL    HW132327   0.764   2.658   4.860  0.4954  0.5869  0.5692
 6618SOL    HW232328   0.616   2.698   4.805  0.5974 -0.6455 -0.6457
 6619SOL     OW32329   3.335   7.153   1.564  0.3883 -0.0486 -0.1973
 6619SOL    HW132330   3.253   7.145   1.508  0.5177  0.0074 -0.3996
 6619SOL    HW232331   3.393   7.073   1.550 -0.6282 -1.1151  1.5973
 6620SOL     OW32332   2.611   1.203   6.560 -0.0734 -0.2277 -0.7054
 6620SOL    HW132333   2.599   1.291   6.607 -0.0182 -0.0092 -1.1008
 6620SOL    HW232334   2.567   1.208   6.470  0.4124 -0.4204 -0.9533
 6621SOL     OW32335   5.446   3.227   4.360  0.2169  0.5805 -0.5548
 6621SOL    HW132336   5.448   3.146   4.302 -0.8302  1.2371 -1.5164
 6621SOL    HW232337   5.361   3.228   4.414  1.0129  0.1603  0.7401
 6622SOL     OW32338   5.091   6.264   7.805  0.9849 -0.0776  0.1194
 6622SOL    HW132339   5.082   6.334   7.733  0.5048 -0.3839 -0.1186
 6622SOL    HW232340   5.011   6.266   7.864  0.3592 -1.2924 -0.6628
 6623SOL     OW32341   4.917   0.246   0.648  0.3571  0.1070  0.3390
 6623SOL    HW132342   4.918   0.146   0.643  0.8087  0.1735 -0.9056
 6623SOL    HW232343   4.905   0.274   0.744 -1.8777 -1.1373  0.4464
 6624SOL     OW32344   5.012   7.643   6.237 -0.1440  0.0438 -0.3305
 6624SOL    HW132345   5.041   7.557   6.195  1.6594 -0.3760  1.7421
 6624SOL    HW232346   5.002   7.631   6.335 -2.5549  1.5199 -0.3546
 6625SOL     OW32347   5.203   3.836   4.410  0.2514  0.2304  0.2276
 6625SOL    HW132348   5.193   3.888   4.495 -0.3054  1.1088 -0.3697
 6625SOL    HW232349   5.198   3.899   4.332  0.1667 -0.6477 -0.4778
 6626SOL     OW32350   0.603   8.059   4.349  0.4641 -0.3950  0.3249
 6626SOL    HW132351   0.579   8.000   4.272  3.4665 -1.5248  0.1783
 6626SOL    HW232352   0.682   8.115   4.325  0.3300  0.5361  1.9708
 6627SOL     OW32353   4.588   6.053   5.411  0.5588 -0.0634  0.5589
 6627SOL    HW132354   4.568   6.024   5.504 -0.1549 -1.0638  0.1033
 6627SOL    HW232355   4.672   6.008   5.379 -0.5057 -1.6521 -0.1207
 6628SOL     OW32356   0.271   4.379   2.463 -0.4027  0.3976 -0.1289
 6628SOL    HW132357   0.307   4.366   2.555  0.1348 -0.5983 -0.4748
 6628SOL    HW232358   0.181   4.336   2.455  0.1585 -0.7192 -0.4682
 6629SOL     OW32359   2.582   3.984   1.201 -0.1678 -0.1485 -0.1565
 6629SOL    HW132360   2.665   3.934   1.222 -0.1489  1.0371  2.8077
 6629SOL    HW232361   2.502   3.927   1.220 -0.0939 -0.4325 -0.6760
 6630SOL     OW32362   4.610   0.300   2.888  0.1849  0.0698 -0.2448
 6630SOL    HW132363   4.542   0.307   2.816  0.1864 -2.4937 -0.5548
 6630SOL    HW232364   4.571   0.251   2.966  0.4865  1.9672  1.1412
 6631SOL     OW32365   2.643   1.946   0.272 -0.0531 -0.0874  0.1829
 6631SOL    HW132366   2.609   2.001   0.196  0.5250  1.4155  0.9752
 6631SOL    HW232367   2.721   1.891   0.242  0.7968  1.2303 -0.0971
 6632SOL     OW32368   1.592   3.961   1.432  0.2228  0.2951  0.1656
 6632SOL    HW132369   1.608   4.040   1.490  0.6244 -1.1466  2.0420
 6632SOL    HW232370   1.646   3.970   1.348  1.5413  1.2162  1.0880
 6633SOL     OW32371   8.069   0.741   6.484 -0.1632  0.2798 -0.0115
 6633SOL    HW132372   8.066   0.687   6.399 -2.9784  0.9914 -0.4187
 6633SOL    HW232373   8.099   0.834   6.464  0.0917  0.1858 -0.0679
 6634SOL     OW32374   5.713   4.743   7.011  0.1394  0.3279 -0.2432
 6634SOL    HW132375   5.799   4.765   6.964 -0.5465 -1.3532 -2.3683
 6634SOL    HW232376   5.645   4.812   6.990 -0.1951 -0.4729 -1.8636
 6635SOL     OW32377   1.857   7.140   5.520 -0.1276  0.4842  0.0800
 6635SOL    HW132378   1.825   7.093   5.438  2.2421  1.8959 -1.7562
 6635SOL    HW232379   1.829   7.236   5.516  0.9242  0.8128  0.3617
 6636SOL     OW32380   1.634   6.727   5.705  0.3315 -0.3144  0.2356
 6636SOL    HW132381   1.534   6.719   5.713  0.3643 -0.1173  0.8461
 6636SOL    HW232382   1.663   6.816   5.738  0.8890 -1.0204  1.6552
 6637SOL     OW32383   2.265   8.464   7.127  0.0510  0.2180  0.6669
 6637SOL    HW132384   2.356   8.495   7.099  0.7422 -0.1625  2.4313
 6637SOL    HW232385   2.274   8.385   7.188 -1.4733  0.0889  0.7407
 6638SOL     OW32386   6.643   6.999   8.458 -1.0640 -0.0241 -0.4267
 6638SOL    HW132387   6.559   7.034   8.416 -0.6497  1.1437 -0.2853
 6638SOL    HW232388   6.722   7.028   8.404 -0.7352 -1.0366 -0.5003
 6639SOL     OW32389   1.046   2.878   2.418  0.4427  0.0900  0.3424
 6639SOL    HW132390   1.109   2.955   2.406 -1.7254  1.3417 -4.2462
 6639SOL    HW232391   0.961   2.911   2.459 -1.7097  0.9611 -4.5156
 6640SOL     OW32392   0.668   2.746   7.934 -0.0659  0.5971 -0.1852
 6640SOL    HW132393   0.572   2.774   7.927 -0.1229  0.2567 -0.8932
 6640SOL    HW232394   0.683   2.667   7.873  0.4790  0.1628  0.5126
 6641SOL     OW32395   1.593   1.515   7.608  0.2506  0.1845 -0.7380
 6641SOL    HW132396   1.657   1.583   7.645  0.5985 -0.4105 -0.2457
 6641SOL    HW232397   1.505   1.524   7.654  1.2732 -1.9029  1.7093
 6642SOL     OW32398   8.329   5.330   5.479  0.4963 -0.1071 -0.0996
 6642SOL    HW132399   8.254   5.333   5.413  0.3142 -0.9903  0.0544
 6642SOL    HW232400   8.293   5.306   5.569  0.8361  0.4007  0.1732
 6643SOL     OW32401   4.742   5.767   2.966 -0.5132 -0.9067  0.4868
 6643SOL    HW132402   4.801   5.697   2.927  0.5699  0.8787 -1.1896
 6643SOL    HW232403   4.794   5.820   3.034 -0.0981  0.7817 -1.1182
 6644SOL     OW32404   2.731   8.439   7.843 -0.6704 -0.1251  0.7799
 6644SOL    HW132405   2.801   8.377   7.807 -0.5359 -0.6115  1.8475
 6644SOL    HW232406   2.641   8.395   7.836 -0.4625 -0.8790  2.4335
 6645SOL     OW32407   8.583   4.505   6.708 -0.0117 -0.0979  0.7744
 6645SOL    HW132408   8.570   4.579   6.642  2.1639  0.7652  1.2830
 6645SOL    HW232409   8.521   4.429   6.685  0.3966  0.3477 -1.9827
 6646SOL     OW32410   6.453   6.704   1.397 -0.6420 -0.0107  0.5133
 6646SOL    HW132411   6.475   6.635   1.327 -0.8844  1.3883 -0.9721
 6646SOL    HW232412   6.360   6.738   1.382  0.2238  2.1518 -0.0731
 6647SOL     OW32413   5.390   7.263   2.465 -0.2112 -0.0780 -0.0206
 6647SOL    HW132414   5.380   7.348   2.516  1.2141 -0.0719  0.2616
 6647SOL    HW232415   5.299   7.226   2.445 -0.8793  2.0301 -1.0646
 6648SOL     OW32416   6.697   0.903   7.511  0.0038  0.7626  0.1737
 6648SOL    HW132417   6.775   0.882   7.451 -0.3163  0.3776 -0.1093
 6648SOL    HW232418   6.728   0.961   7.586  0.2681  1.8338 -0.7469
 6649SOL     OW32419   4.777   6.106   7.302  0.3531  0.4153 -0.1150
 6649SOL    HW132420   4.692   6.100   7.354  1.4555  0.6593  1.7799
 6649SOL    HW232421   4.830   6.022   7.315  0.3454  0.1972 -1.4114
 6650SOL     OW32422   0.979   5.108   1.286  0.0704  0.5245  0.0517
 6650SOL    HW132423   0.940   5.052   1.360  0.2679  1.4045  0.8401
 6650SOL    HW232424   0.908   5.130   1.220  0.3736 -2.1735 -1.2629
 6651SOL     OW32425   0.079   7.824   1.517  0.5993  0.3186  0.5307
 6651SOL    HW132426   0.082   7.886   1.595 -2.0652  0.7176  0.3598
 6651SOL    HW232427   0.090   7.729   1.549 -1.3159  0.4105  1.4925
 6652SOL     OW32428   3.085   4.701   6.649 -0.1511 -0.1068  0.1309
 6652SOL    HW132429   3.174   4.743   6.629 -0.1092 -0.0166  0.5128
 6652SOL    HW232430   3.064   4.633   6.579  0.2319 -0.1492  0.0561
 6653SOL     OW32431   4.805   5.917   8.113  0.3093 -0.1748  0.2918
 6653SOL    HW132432   4.862   5.835   8.115  0.7725  0.1544  2.5792
 6653SOL    HW232433   4.864   5.998   8.116 -0.2057  0.1671  2.2918
 6654SOL     OW32434   7.227   7.429   1.227  0.2155  0.2841 -0.9161
 6654SOL    HW132435   7.226   7.330   1.219  2.0211  0.1784 -0.1814
 6654SOL    HW232436   7.137   7.466   1.205 -0.9220 -1.6436  0.4207
 6655SOL     OW32437   3.932   7.446   3.328  0.3324  0.4839 -0.5858
 6655SOL    HW132438   3.883   7.516   3.276 -0.7949 -0.3154 -0.6214
 6655SOL    HW232439   3.875   7.416   3.404  0.7829 -0.4484 -0.6118
 6656SOL     OW32440   0.854   0.798   8.455  0.1300  0.7415  0.0216
 6656SOL    HW132441   0.875   0.871   8.390  0.4427  1.0048  0.4236
 6656SOL    HW232442   0.843   0.712   8.405 -0.9259  1.1883 -0.5323
 6657SOL     OW32443   3.358   1.104   2.509  0.5823  0.1733  0.0054
 6657SOL    HW132444   3.286   1.147   2.564 -0.8573  0.1526 -1.8069
 6657SOL    HW232445   3.390   1.168   2.439  0.9561 -0.4842 -0.4300
 6658SOL     OW32446   4.467   0.618   3.678  0.1454  0.2790 -0.6724
 6658SOL    HW132447   4.558   0.656   3.665  0.2842  0.1605 -0.0322
 6658SOL    HW232448   4.472   0.534   3.731 -0.4348  0.7974  0.2207
 6659SOL     OW32449   1.247   7.836   4.038 -0.1723 -0.0859 -0.1508
 6659SOL    HW132450   1.192   7.812   4.117  0.0188  2.4024  0.7773
 6659SOL    HW232451   1.209   7.794   3.956 -3.0111  1.0015  0.5806
 6660SOL     OW32452   3.925   4.930   2.646  0.3155  0.0252  0.0390
 6660SOL    HW132453   4.008   4.911   2.699 -0.5736 -0.1982  1.3722
 6660SOL    HW232454   3.917   5.029   2.633  1.4331 -0.0285 -1.1634
 6661SOL     OW32455   5.745   4.253   4.866 -0.0929  0.2856 -0.3959
 6661SOL    HW132456   5.790   4.342   4.868 -0.8033  0.6483 -0.3109
 6661SOL    HW232457   5.729   4.226   4.771 -1.0372  0.8450 -0.3991
 6662SOL     OW32458   0.227   4.403   0.648 -0.2024  0.2130  0.0234
 6662SOL    HW132459   0.254   4.461   0.571 -1.4420  1.0238  0.1793
 6662SOL    HW232460   0.276   4.316   0.643  3.1766  1.9476  0.8339
 6663SOL     OW32461   1.949   6.154   5.374  0.0687  0.6130  0.1527
 6663SOL    HW132462   1.915   6.248   5.381  1.5688  1.1705  0.0123
 6663SOL    HW232463   2.049   6.154   5.381  0.1155 -0.9156 -0.4240
 6664SOL     OW32464   5.997   1.466   1.904 -0.2028  0.1312  0.2177
 6664SOL    HW132465   5.966   1.523   1.828  0.0198  0.0419  0.0587
 6664SOL    HW232466   5.921   1.452   1.968 -0.4656 -0.0054 -0.1199
 6665SOL     OW32467   3.579   4.050   7.585  0.0285 -0.0829  0.2238
 6665SOL    HW132468   3.562   4.071   7.682 -0.9559 -0.7417  0.1952
 6665SOL    HW232469   3.510   3.986   7.552  2.4678 -2.7069  0.0613
 6666SOL     OW32470   1.577   8.181   0.572 -0.4281 -1.0410 -0.1738
 6666SOL    HW132471   1.491   8.201   0.619 -0.1227  1.3138 -0.5561
 6666SOL    HW232472   1.564   8.189   0.473  0.7390  1.5888 -0.1473
 6667SOL     OW32473   7.566   4.331   4.358  0.1232  0.0214  0.0601
 6667SOL    HW132474   7.532   4.424   4.365  1.2100  0.5589 -1.5053
 6667SOL    HW232475   7.504   4.269   4.406 -0.9104  1.4717  0.6260
 6668SOL     OW32476   3.329   2.803   3.718 -0.0957 -0.1281 -0.2241
 6668SOL    HW132477   3.240   2.849   3.713  0.5332  1.3824  1.8308
 6668SOL    HW232478   3.343   2.767   3.811  1.1681 -0.9425 -0.7124
 6669SOL     OW32479   7.591   6.147   7.092  0.2461 -0.0288 -0.1619
 6669SOL    HW132480   7.639   6.124   7.176  1.2236  0.6614 -0.5143
 6669SOL    HW232481   7.626   6.091   7.017  0.3987  0.3697 -0.3903
 6670SOL     OW32482   1.629   4.014   6.184  0.3712 -0.7034  0.0537
 6670SOL    HW132483   1.581   3.927   6.171 -0.1776 -0.4678  0.5013
 6670SOL    HW232484   1.684   4.010   6.267 -0.8168 -0.1073  0.8808
 6671SOL     OW32485   0.365   6.975   6.436 -0.1049  0.5269  0.0733
 6671SOL    HW132486   0.285   6.991   6.493  0.2085  1.9600  0.1454
 6671SOL    HW232487   0.441   7.032   6.469 -0.0197  1.6618 -1.9655
 6672SOL     OW32488   8.203   7.190   1.461 -0.2211 -0.5269  0.3432
 6672SOL    HW132489   8.281   7.149   1.510  1.1926  1.2709 -0.3446
 6672SOL    HW232490   8.175   7.273   1.507 -0.0984  0.1722 -0.8262
 6673SOL     OW32491   2.713   4.899   0.022  0.2910  0.0143 -0.4425
 6673SOL    HW132492   2.763   4.951   0.091 -0.0334  0.0734 -0.2516
 6673SOL    HW232493   2.745   4.925  -0.069  1.3680 -0.7364 -0.2811
 6674SOL     OW32494   4.116   1.149   1.819 -0.0709 -0.2969  0.8250
 6674SOL    HW132495   4.170   1.080   1.770  0.0015  0.5132 -0.2429
 6674SOL    HW232496   4.067   1.206   1.753  1.3648  1.9157  1.6134
 6675SOL     OW32497   6.287   6.362   6.362  0.7830 -0.4431  0.5729
 6675SOL    HW132498   6.371   6.393   6.407  0.9065  0.5646 -0.3153
 6675SOL    HW232499   6.308   6.331   6.270  0.3086 -1.0757  0.6724
 6676SOL     OW32500   7.226   5.158   8.762  0.1059 -0.2375  0.3330
 6676SOL    HW132501   7.177   5.128   8.680 -1.3280 -1.7356  1.6936
 6676SOL    HW232502   7.201   5.099   8.839  5.1869 -1.9390  0.8125
 6677SOL     OW32503   2.292   3.370   6.378 -0.0063  0.0647  0.2482
 6677SOL    HW132504   2.362   3.318   6.428 -0.0299 -1.8158 -1.6189
 6677SOL    HW232505   2.202   3.340   6.409 -0.0120 -0.5047 -0.3056
 6678SOL     OW32506   3.655   2.317   2.086 -0.9871  0.2375  0.0478
 6678SOL    HW132507   3.605   2.234   2.060  0.2952 -0.3411 -0.5833
 6678SOL    HW232508   3.748   2.293   2.113 -1.3011  1.2127  2.1215
 6679SOL     OW32509   4.258   4.660   3.989  0.2207  0.4061 -0.3110
 6679SOL    HW132510   4.346   4.638   3.946  1.4648  2.5105  1.0888
 6679SOL    HW232511   4.198   4.703   3.921  0.8379  0.4153 -0.8588
 6680SOL     OW32512   0.658   3.649   1.893  0.3008  0.4074 -0.4254
 6680SOL    HW132513   0.588   3.586   1.927  1.0384 -0.8717 -1.2511
 6680SOL    HW232514   0.672   3.722   1.960 -0.4653 -0.3767  0.6079
 6681SOL     OW32515   7.761   2.615   2.339 -0.5717  0.6005 -0.3294
 6681SOL    HW132516   7.672   2.570   2.329 -2.0103  3.1934  0.4529
 6681SOL    HW232517   7.785   2.660   2.253  0.2330 -0.4932 -0.6883
 6682SOL     OW32518   6.084   0.849   3.821 -0.2770  0.1415 -0.3350
 6682SOL    HW132519   6.036   0.870   3.735  0.4582  0.6483 -0.6334
 6682SOL    HW232520   6.105   0.935   3.868 -0.5078 -0.1295  0.2616
 6683SOL     OW32521   0.021   4.118   8.956 -0.2687 -0.2092  0.1361
 6683SOL    HW132522   0.028   4.089   8.860  0.0282 -0.3232  0.1897
 6683SOL    HW232523  -0.038   4.054   9.005  0.7787 -1.0368  0.3646
 6684SOL     OW32524   5.993   0.256   3.160  0.2606 -0.3158  0.2890
 6684SOL    HW132525   5.895   0.245   3.175  0.2908 -2.1431 -0.7504
 6684SOL    HW232526   6.009   0.314   3.080  0.0270 -0.4531  0.1434
 6685SOL     OW32527   3.924   7.463   8.020 -0.4905  0.1430  0.2771
 6685SOL    HW132528   3.888   7.384   8.068  0.6569 -0.0527  0.8406
 6685SOL    HW232529   4.005   7.437   7.967 -2.1503  0.2101 -2.3545
 6686SOL     OW32530   2.890   3.757   3.786 -0.0121 -0.6253 -0.1547
 6686SOL    HW132531   2.905   3.769   3.688  0.4119  0.1536 -0.0036
 6686SOL    HW232532   2.861   3.663   3.805  0.3728 -0.9088 -0.9682
 6687SOL     OW32533   8.554   6.171   6.149  0.3559 -0.3334  0.6581
 6687SOL    HW132534   8.619   6.098   6.126 -0.1590 -0.5130 -0.2543
 6687SOL    HW232535   8.603   6.246   6.193  1.6410  0.6336 -2.2906
 6688SOL     OW32536   6.327   2.834   8.664  0.4081 -0.4018  0.6794
 6688SOL    HW132537   6.341   2.932   8.648  0.8933 -0.5833  0.0037
 6688SOL    HW232538   6.237   2.820   8.705  0.1627  0.2818  0.3810
 6689SOL     OW32539   3.775   7.132   8.827  0.3021 -0.6023 -0.1393
 6689SOL    HW132540   3.752   7.087   8.741 -0.5551  1.7716 -1.1866
 6689SOL    HW232541   3.838   7.074   8.879  0.1930 -2.4319 -1.9791
 6690SOL     OW32542   6.250   4.709   4.979 -0.2118  0.2925 -0.0522
 6690SOL    HW132543   6.336   4.759   4.992 -0.7419  1.3277 -0.5385
 6690SOL    HW232544   6.174   4.773   4.976 -0.9582 -0.5923 -0.0836
 6691SOL     OW32545   1.621   3.604   4.272 -0.4922 -0.2569  0.2697
 6691SOL    HW132546   1.555   3.546   4.226  0.1874 -0.2023 -0.7886
 6691SOL    HW232547   1.606   3.699   4.246 -0.2198 -0.2040  0.3033
 6692SOL     OW32548   6.515   0.467   2.589  0.2197  0.1313  0.2947
 6692SOL    HW132549   6.415   0.473   2.581  0.0166 -1.1980  1.5298
 6692SOL    HW232550   6.554   0.442   2.501 -0.7809 -1.8850  0.4087
 6693SOL     OW32551   7.127   7.145   5.565  0.0663 -0.4764  0.0082
 6693SOL    HW132552   7.041   7.194   5.553 -1.2868 -3.1871 -1.8093
 6693SOL    HW232553   7.112   7.064   5.623  1.8578  0.1927  1.4527
 6694SOL     OW32554   4.427   2.186   4.257  0.1662  0.1136  0.4051
 6694SOL    HW132555   4.379   2.167   4.171  0.2732 -1.8834  0.7594
 6694SOL    HW232556   4.382   2.138   4.332  2.2333 -1.1865  0.8730
 6695SOL     OW32557   4.891   7.122   7.199 -0.7596  0.3934 -0.2739
 6695SOL    HW132558   4.853   7.162   7.116 -0.5217 -0.5234 -0.8280
 6695SOL    HW232559   4.892   7.022   7.191 -1.3884  0.2640  1.1161
 6696SOL     OW32560   8.319   8.734   7.148 -0.4177 -0.0899  0.4339
 6696SOL    HW132561   8.281   8.820   7.114  0.7181  0.5804  0.8337
 6696SOL    HW232562   8.314   8.732   7.248 -1.0576 -0.7839  0.3907
 6697SOL     OW32563   8.361   1.549   5.909 -0.4687 -0.3016 -0.4209
 6697SOL    HW132564   8.299   1.628   5.910  1.8034  1.5153  0.7793
 6697SOL    HW232565   8.455   1.580   5.895  0.5870 -2.7194  0.9463
 6698SOL     OW32566   2.470   8.082   6.943 -0.1825  0.3478 -0.0018
 6698SOL    HW132567   2.568   8.090   6.930 -0.2083 -0.9804 -1.0399
 6698SOL    HW232568   2.422   8.112   6.861 -0.6943  2.1031  0.9196
 6699SOL     OW32569   3.673   2.526   4.894  0.2422  0.0823  0.3715
 6699SOL    HW132570   3.660   2.538   4.795  0.1430  0.1203  0.3890
 6699SOL    HW232571   3.600   2.574   4.943  1.0989  1.2623  0.5072
 6700SOL     OW32572   3.943   3.110   6.331  0.6068 -0.3144  0.1555
 6700SOL    HW132573   3.848   3.141   6.322  0.8935  1.2117  1.9175
 6700SOL    HW232574   3.964   3.044   6.259 -2.5683 -2.6091  1.1878
 6701SOL     OW32575   8.479   0.699   6.722 -0.2597 -0.6788  0.0362
 6701SOL    HW132576   8.476   0.789   6.678 -0.1400 -0.3698  0.6634
 6701SOL    HW232577   8.402   0.645   6.690 -2.2711  0.8238  2.1695
 6702SOL     OW32578   1.747   8.954   5.324 -0.4276 -0.2291 -0.1714
 6702SOL    HW132579   1.824   8.920   5.270  0.1812  1.0628 -0.1450
 6702SOL    HW232580   1.733   8.895   5.404 -1.1306 -1.9655 -1.5505
 6703SOL     OW32581   6.902   5.230   0.441  0.3768  0.2312 -0.0460
 6703SOL    HW132582   6.977   5.172   0.412  1.9157  0.9461  2.3512
 6703SOL    HW232583   6.817   5.201   0.396  1.5095 -2.4828 -0.4875
 6704SOL     OW32584   1.507   7.793   4.114 -0.1666  0.1433  0.5032
 6704SOL    HW132585   1.427   7.845   4.087  0.6964  0.8191 -0.8153
 6704SOL    HW232586   1.498   7.699   4.082 -0.6468  0.0903  0.7886
 6705SOL     OW32587   1.983   4.368   7.668 -0.1146  0.0998 -0.6626
 6705SOL    HW132588   2.021   4.279   7.646 -0.8856 -0.3262 -0.2928
 6705SOL    HW232589   2.024   4.438   7.609  1.1383 -0.3601 -0.3467
 6706SOL     OW32590   2.150   1.231   6.208  0.4534  0.0206 -0.4079
 6706SOL    HW132591   2.118   1.149   6.255 -0.1914 -0.1054 -1.0521
 6706SOL    HW232592   2.086   1.306   6.225  0.8277  0.2786 -0.1480
 6707SOL     OW32593   0.519   4.263   8.462  0.1092 -0.3754 -0.0828
 6707SOL    HW132594   0.459   4.306   8.394 -0.1184 -1.3114 -0.4711
 6707SOL    HW232595   0.593   4.326   8.484 -0.8819  0.7117  0.2407
 6708SOL     OW32596   7.051   4.515   2.571 -0.4882  0.3118 -0.1526
 6708SOL    HW132597   7.058   4.509   2.471 -2.6046  1.7055 -0.4228
 6708SOL    HW232598   6.961   4.480   2.599 -0.6212  1.6358  1.0838
 6709SOL     OW32599   6.555   4.743   5.372 -0.2868  0.1822  0.5689
 6709SOL    HW132600   6.556   4.720   5.275 -0.3679 -0.3657  0.6936
 6709SOL    HW232601   6.505   4.828   5.387  1.3975  1.3033 -0.0970
 6710SOL     OW32602   7.266   3.902   7.676 -0.0610  0.0478  0.3013
 6710SOL    HW132603   7.208   3.848   7.614 -1.8901  2.3750 -0.0952
 6710SOL    HW232604   7.233   3.891   7.770  0.7606 -1.0036  0.4765
 6711SOL     OW32605   3.632   2.540   1.922 -0.5602 -0.3184 -0.4730
 6711SOL    HW132606   3.643   2.607   1.996 -1.5214  0.7511 -1.2809
 6711SOL    HW232607   3.639   2.448   1.959  0.8060  0.2223  0.6596
 6712SOL     OW32608   0.303   3.299   0.951  0.2947 -0.0612  0.3665
 6712SOL    HW132609   0.247   3.310   1.034  0.1328 -1.4269  0.4381
 6712SOL    HW232610   0.292   3.380   0.893  0.1791  0.7791  1.5325
 6713SOL     OW32611   8.516   4.013   1.549 -0.1222  0.2459  0.0075
 6713SOL    HW132612   8.450   3.987   1.619 -1.0641  1.4801 -0.4030
 6713SOL    HW232613   8.574   4.088   1.583 -0.6109  0.8786 -0.5400
 6714SOL     OW32614   4.390   0.523   5.484  0.2986 -0.4297  0.4602
 6714SOL    HW132615   4.455   0.550   5.555 -1.5831  1.5649  1.4671
 6714SOL    HW232616   4.305   0.574   5.495 -0.5181 -1.0690 -2.4260
 6715SOL     OW32617   3.077   1.464   7.790  0.0211  0.1872  0.3435
 6715SOL    HW132618   3.104   1.445   7.884  0.4139  0.7502  0.3468
 6715SOL    HW232619   2.983   1.433   7.775  0.4509 -1.2297  0.5096
 6716SOL     OW32620   1.755   6.583   2.252  0.3530  0.0058  0.0346
 6716SOL    HW132621   1.714   6.665   2.292 -0.7999 -0.6021  0.1212
 6716SOL    HW232622   1.748   6.507   2.317 -0.4858 -0.6913 -0.8467
 6717SOL     OW32623   8.600   7.428   7.226 -0.2706 -0.3877 -0.1977
 6717SOL    HW132624   8.501   7.419   7.215 -0.5531  0.9461  1.1038
 6717SOL    HW232625   8.623   7.524   7.244  1.3708 -0.5141 -1.4585
 6718SOL     OW32626   1.095   7.210   2.901 -0.1892  0.4350 -0.1913
 6718SOL    HW132627   1.058   7.297   2.868 -0.8276  0.7810  1.3836
 6718SOL    HW232628   1.042   7.134   2.862 -0.7899  0.8245 -0.1375
 6719SOL     OW32629   8.925   1.102   0.425 -0.1858 -0.0012  0.6273
 6719SOL    HW132630   8.936   1.145   0.336  0.6185 -1.1585  0.1580
 6719SOL    HW232631   9.013   1.101   0.473 -0.4511 -0.0755  1.1222
 6720SOL     OW32632   7.940   5.889   2.015 -0.3888  0.0280 -1.3451
 6720SOL    HW132633   7.987   5.960   1.962 -0.2551  1.3812  0.5406
 6720SOL    HW232634   7.842   5.907   2.013 -0.2812  0.7811 -0.1492
 6721SOL     OW32635   1.062   4.573   7.338  0.9928 -0.5686  0.4235
 6721SOL    HW132636   1.161   4.576   7.324  1.3322 -0.3318  2.7640
 6721SOL    HW232637   1.016   4.566   7.249  2.9901  2.0402 -0.8662
 6722SOL     OW32638   0.073   4.472   3.920  0.3301 -0.1214  0.7176
 6722SOL    HW132639   0.161   4.476   3.871 -0.1247  3.4393  0.0724
 6722SOL    HW232640   0.007   4.531   3.874 -0.6094  2.0427  4.6135
 6723SOL     OW32641   4.939   4.121   1.037  0.3109  0.2047  0.2138
 6723SOL    HW132642   4.948   4.154   0.943 -0.0338  0.4612  0.2738
 6723SOL    HW232643   4.843   4.123   1.064  0.6374  1.9820  1.2483
 6724SOL     OW32644   5.476   4.307   5.599 -0.0665 -0.0176 -0.0586
 6724SOL    HW132645   5.508   4.299   5.505 -1.5803 -1.3153 -0.4850
 6724SOL    HW232646   5.376   4.309   5.601 -0.0772 -0.9064  1.5867
 6725SOL     OW32647   0.694   1.313   7.461  1.1934 -0.0875 -0.0793
 6725SOL    HW132648   0.793   1.323   7.453  1.2611  0.1891  1.0063
 6725SOL    HW232649   0.670   1.217   7.469  1.5003 -0.0791  1.0707
 6726SOL     OW32650   2.556   2.438   7.506  0.2053 -0.6973  0.0289
 6726SOL    HW132651   2.597   2.356   7.545  1.0571 -0.8059 -1.0655
 6726SOL    HW232652   2.591   2.452   7.413 -0.2424  0.6760  0.0523
 6727SOL     OW32653   4.472   1.876   5.495 -0.3027 -0.3669 -0.4206
 6727SOL    HW132654   4.524   1.840   5.573  1.1275  0.3332 -1.0381
 6727SOL    HW232655   4.423   1.959   5.523  0.7827  0.2897 -0.4532
 6728SOL     OW32656   3.354   4.804   4.505 -0.1113  0.0967 -0.4324
 6728SOL    HW132657   3.266   4.756   4.499 -0.6815  0.8680  1.3787
 6728SOL    HW232658   3.428   4.739   4.495 -0.8894 -0.7894 -0.5328
 6729SOL     OW32659   3.675   7.849   0.386  0.3248 -0.0039  0.2557
 6729SOL    HW132660   3.672   7.947   0.406  0.8655  0.0278  0.2068
 6729SOL    HW232661   3.769   7.823   0.363  0.2342 -0.5807  0.5187
 6730SOL     OW32662   2.558   8.551   7.150  0.1707 -0.0466  0.1773
 6730SOL    HW132663   2.572   8.644   7.185  1.7043 -0.5880  1.0236
 6730SOL    HW232664   2.491   8.504   7.207  0.4403  0.0680  0.5884
 6731SOL     OW32665   5.019   6.655   7.016 -0.1405 -0.0189  0.5778
 6731SOL    HW132666   4.944   6.600   6.980  1.0343 -1.9944  1.0625
 6731SOL    HW232667   5.017   6.745   6.974 -0.9026 -1.0802 -1.7758
 6732SOL     OW32668   2.628   1.414   2.883  0.0495 -0.2533 -1.0899
 6732SOL    HW132669   2.576   1.443   2.963  0.5469  1.7197 -1.4636
 6732SOL    HW232670   2.682   1.332   2.907  1.4397  1.2378  1.0933
 6733SOL     OW32671   5.981   6.260   3.740  0.8647  0.1255  0.0583
 6733SOL    HW132672   5.994   6.244   3.838  1.3629  1.2000  0.1826
 6733SOL    HW232673   5.887   6.236   3.715  1.3804 -2.2348  0.3355
 6734SOL     OW32674   1.464   6.790   7.539 -0.6210  0.2857  0.0380
 6734SOL    HW132675   1.432   6.743   7.457  0.4144 -0.0925 -0.1539
 6734SOL    HW232676   1.468   6.889   7.521  0.3531  0.1342 -0.6312
 6735SOL     OW32677   8.526   7.145   7.171  0.1341 -0.2985 -0.0966
 6735SOL    HW132678   8.615   7.190   7.179  1.4835 -3.0862  1.7579
 6735SOL    HW232679   8.479   7.149   7.259 -0.8764 -0.1618 -0.6469
 6736SOL     OW32680   5.249   2.574   2.923 -0.4129  0.1742 -0.6787
 6736SOL    HW132681   5.344   2.558   2.951 -1.4983 -0.3856  3.0037
 6736SOL    HW232682   5.219   2.663   2.959 -2.2214 -1.0462  0.9198
 6737SOL     OW32683   1.544   2.775   0.310 -0.1427  0.0300 -0.3687
 6737SOL    HW132684   1.486   2.828   0.371  2.4164  1.9941  0.4361
 6737SOL    HW232685   1.571   2.690   0.355 -1.4077 -0.3648 -0.3209
 6738SOL     OW32686   2.655   4.410   0.607 -0.1380 -0.0705  0.4395
 6738SOL    HW132687   2.731   4.357   0.569  0.0738 -0.1192  0.9235
 6738SOL    HW232688   2.645   4.496   0.556 -2.4150 -1.9041 -2.3027
 6739SOL     OW32689   7.259   6.154   0.473  0.2228  0.3512  0.6072
 6739SOL    HW132690   7.294   6.205   0.552 -1.9305  0.5995  1.4286
 6739SOL    HW232691   7.321   6.167   0.395  0.9850  2.2374  1.4836
 6740SOL     OW32692   8.910   4.587   6.844 -0.1397  0.5109  0.2656
 6740SOL    HW132693   8.836   4.641   6.885 -0.9951  1.5142 -2.5158
 6740SOL    HW232694   8.979   4.648   6.806  1.2406 -0.4275  1.1994
 6741SOL     OW32695   5.973   1.509   6.945  0.1711  0.0854 -0.0090
 6741SOL    HW132696   5.912   1.492   7.022  0.2438  0.6262  0.1693
 6741SOL    HW232697   5.960   1.603   6.913  1.4546  0.4405  0.5039
 6742SOL     OW32698   4.521   5.350   0.707  0.4385  0.3745 -0.4560
 6742SOL    HW132699   4.468   5.286   0.763  1.5082 -1.3784 -1.4174
 6742SOL    HW232700   4.577   5.408   0.768 -0.0843 -0.0011  0.3945
 6743SOL     OW32701   7.524   6.269   4.598 -0.1444  0.3041  0.0305
 6743SOL    HW132702   7.583   6.233   4.670  1.4347  1.1152 -0.8203
 6743SOL    HW232703   7.480   6.194   4.548 -1.1648 -0.2615  1.7461
 6744SOL     OW32704   7.629   0.714   2.149  0.2258  0.1989 -0.9488
 6744SOL    HW132705   7.702   0.667   2.198 -1.1060 -0.0385  0.8925
 6744SOL    HW232706   7.557   0.649   2.126  0.0074  0.6658 -1.5900
 6745SOL     OW32707   2.087   8.308   0.574 -0.1304 -0.1756  0.1363
 6745SOL    HW132708   2.155   8.264   0.515  1.2885  1.9414  0.1413
 6745SOL    HW232709   2.084   8.406   0.554 -1.7294  0.0881  1.5652
 6746SOL     OW32710   1.460   7.837   6.417 -0.1950 -0.2254  0.1333
 6746SOL    HW132711   1.496   7.848   6.324  0.8528 -3.3979  0.0932
 6746SOL    HW232712   1.481   7.918   6.471 -0.3915  1.4606 -2.2516
 6747SOL     OW32713   5.738   4.942   4.962 -0.0584 -0.3185 -0.6935
 6747SOL    HW132714   5.831   4.906   4.967 -0.2994 -1.0838 -1.4563
 6747SOL    HW232715   5.733   5.030   5.008  1.0187 -0.3282 -0.5548
 6748SOL     OW32716   6.310   5.804   8.896  0.1689 -0.4053  0.5269
 6748SOL    HW132717   6.363   5.728   8.934  1.1217  0.7772  1.6060
 6748SOL    HW232718   6.233   5.824   8.955 -0.1016 -0.5483  0.2252
 6749SOL     OW32719   5.946   3.554   2.231  0.5435  0.4711 -0.1075
 6749SOL    HW132720   5.943   3.545   2.132 -1.2430 -0.6314  0.0447
 6749SOL    HW232721   5.859   3.590   2.265  1.2333  1.1068  1.0390
 6750SOL     OW32722   3.409   1.128   7.292  0.1125 -0.2637  0.0380
 6750SOL    HW132723   3.475   1.113   7.365 -0.0921 -0.7866  0.1148
 6750SOL    HW232724   3.350   1.048   7.282 -0.8886  0.4138  0.3572
 6751SOL     OW32725   7.966   6.193   8.833  0.0829  0.0971  0.1144
 6751SOL    HW132726   7.981   6.122   8.902 -0.0682  0.2153  0.2694
 6751SOL    HW232727   8.052   6.214   8.787 -0.0348 -0.8528 -0.5760
 6752SOL     OW32728   5.922   4.001   3.869  0.6666  0.3900  0.3353
 6752SOL    HW132729   5.947   4.089   3.828 -0.8966  0.0420 -1.4403
 6752SOL    HW232730   5.932   3.929   3.801 -1.4738 -0.2781  0.6851
 6753SOL     OW32731   3.752   5.080   2.062  0.1049 -0.3179 -0.1862
 6753SOL    HW132732   3.826   5.020   2.033 -0.0388 -0.1456 -0.9267
 6753SOL    HW232733   3.677   5.026   2.100  1.2167 -0.3970  1.9746
 6754SOL     OW32734   7.322   3.083   0.023 -0.4398 -0.1622 -0.5534
 6754SOL    HW132735   7.356   3.025   0.097  0.4198  1.7991  0.6288
 6754SOL    HW232736   7.393   3.091  -0.048 -0.3716 -0.1540 -0.4846
 6755SOL     OW32737   1.824   8.770   3.797 -0.1007 -0.3549  0.4422
 6755SOL    HW132738   1.758   8.775   3.872  0.6294 -1.4663  1.1686
 6755SOL    HW232739   1.846   8.675   3.778 -0.1682 -0.0763 -1.1109
 6756SOL     OW32740   6.826   8.744   3.169 -0.1662 -0.6476  0.4507
 6756SOL    HW132741   6.819   8.675   3.097 -0.8756  0.1430 -0.2353
 6756SOL    HW232742   6.736   8.759   3.209  0.1502 -0.7662  1.2232
 6757SOL     OW32743   4.994   7.078   7.468  0.2618 -0.4279 -0.5964
 6757SOL    HW132744   4.988   6.981   7.488  0.1316 -0.3239 -0.1173
 6757SOL    HW232745   4.959   7.095   7.375 -3.2828 -0.3832  0.6562
 6758SOL     OW32746   3.338   5.248   7.019  0.7689  0.0493 -0.5485
 6758SOL    HW132747   3.280   5.317   6.976 -0.4641 -0.2904  0.5334
 6758SOL    HW232748   3.295   5.158   7.009  1.0714 -0.1958  0.3399
 6759SOL     OW32749   0.975   0.691   1.933  0.3039 -0.0129  0.0263
 6759SOL    HW132750   0.885   0.680   1.976  0.2014 -2.2977 -0.6918
 6759SOL    HW232751   0.967   0.677   1.835  1.4910 -0.5607  0.0007
 6760SOL     OW32752   2.339   5.291   1.893  0.2060  0.1855  0.4414
 6760SOL    HW132753   2.310   5.269   1.800 -1.5432 -0.6518  1.1616
 6760SOL    HW232754   2.266   5.268   1.957  0.1708  3.5578  1.7317
 6761SOL     OW32755   8.707   5.256   6.342  0.0370 -0.2458 -0.4983
 6761SOL    HW132756   8.657   5.343   6.343 -1.8223 -1.2844 -0.5784
 6761SOL    HW232757   8.676   5.199   6.417  0.8942 -1.0445 -0.7425
 6762SOL     OW32758   2.681   4.630   0.137 -0.5238  0.2826 -0.2101
 6762SOL    HW132759   2.669   4.727   0.119 -2.2215  0.4937  1.7913
 6762SOL    HW232760   2.592   4.586   0.148  0.2451 -0.9951  1.2938
 6763SOL     OW32761   8.088   1.284   7.642  0.1296 -0.1827  0.2682
 6763SOL    HW132762   8.069   1.279   7.544 -2.0315 -0.1264  0.6676
 6763SOL    HW232763   8.011   1.247   7.693  0.8506  0.6230  1.9818
 6764SOL     OW32764   8.572   0.484   5.837 -0.5766  0.0603 -0.8916
 6764SOL    HW132765   8.628   0.461   5.757 -0.3479 -2.8989  0.0935
 6764SOL    HW232766   8.624   0.466   5.921 -1.8644  0.3877 -0.0061
 6765SOL     OW32767   3.790   3.303   4.858  0.5481 -0.2854 -0.4532
 6765SOL    HW132768   3.717   3.254   4.811  1.2262 -1.0676 -0.7057
 6765SOL    HW232769   3.874   3.300   4.802  0.1651  2.5928 -1.2621
 6766SOL     OW32770   1.986   6.885   7.687 -0.0952 -0.5338  0.3983
 6766SOL    HW132771   2.052   6.906   7.759  2.3086 -1.8532 -1.3561
 6766SOL    HW232772   1.998   6.948   7.611 -0.1062 -1.4968 -0.4044
 6767SOL     OW32773   1.804   7.386   5.922  0.5290 -0.4833  0.1496
 6767SOL    HW132774   1.835   7.480   5.904  1.4706 -0.6475  0.8428
 6767SOL    HW232775   1.884   7.328   5.935 -0.0707 -1.2338  0.4708
 6768SOL     OW32776   6.281   5.480   4.638 -0.3237  0.1420 -0.8073
 6768SOL    HW132777   6.191   5.523   4.628  0.3415  1.4238 -1.5072
 6768SOL    HW232778   6.342   5.512   4.565  1.1853  0.5746  0.5944
 6769SOL     OW32779   4.271   3.331   4.709  0.0192 -0.5345 -0.3540
 6769SOL    HW132780   4.337   3.271   4.663 -0.6654 -1.0872 -0.6272
 6769SOL    HW232781   4.288   3.426   4.684  1.6561 -0.5253  0.7419
 6770SOL     OW32782   1.359   4.697   6.705  0.1382  0.2646 -0.4651
 6770SOL    HW132783   1.419   4.773   6.680  0.5563  0.0790 -0.0289
 6770SOL    HW232784   1.397   4.611   6.670 -0.6035  0.3187 -1.4096
 6771SOL     OW32785   4.908   0.574   0.273 -0.5138  0.1443 -1.0798
 6771SOL    HW132786   4.907   0.501   0.341  0.1076  0.9810 -0.1679
 6771SOL    HW232787   4.879   0.537   0.184 -0.9856 -1.0238 -0.4470
 6772SOL     OW32788   5.712   4.429   1.462  0.4111 -0.1190 -1.2956
 6772SOL    HW132789   5.661   4.419   1.547 -0.7790  0.4350 -1.9399
 6772SOL    HW232790   5.809   4.445   1.483 -0.2175  2.1679 -0.0049
 6773SOL     OW32791   2.579   8.881   1.505 -1.0255 -0.5446 -0.2770
 6773SOL    HW132792   2.676   8.865   1.520 -0.8686 -0.6283 -1.3664
 6773SOL    HW232793   2.531   8.793   1.499 -1.5456 -0.4969  2.5868
 6774SOL     OW32794   2.320   4.502   3.414 -0.0118  0.0806  0.0748
 6774SOL    HW132795   2.309   4.542   3.323 -0.5867 -1.2306 -0.4417
 6774SOL    HW232796   2.295   4.570   3.483 -3.1816 -0.0548 -0.8496
 6775SOL     OW32797   5.171   5.571   7.468 -0.2576  0.3000  0.7944
 6775SOL    HW132798   5.164   5.660   7.513 -0.0427  1.4356 -1.3932
 6775SOL    HW232799   5.083   5.547   7.427  0.2033  0.4149 -0.2824
 6776SOL     OW32800   2.468   7.316   8.624  0.5256 -0.4854 -0.1614
 6776SOL    HW132801   2.539   7.348   8.687  1.3318 -0.1429 -1.2408
 6776SOL    HW232802   2.389   7.285   8.677  1.0201  0.2142  1.0075
 6777SOL     OW32803   3.613   3.467   2.779 -0.7316  0.6670 -0.4283
 6777SOL    HW132804   3.584   3.520   2.859 -1.4788  1.4876 -1.2281
 6777SOL    HW232805   3.701   3.501   2.747  1.1813 -1.8203  1.9987
 6778SOL     OW32806   1.348   0.616   2.426  0.2605  0.1313  0.1698
 6778SOL    HW132807   1.259   0.572   2.415  0.5800 -0.4460 -0.1968
 6778SOL    HW232808   1.409   0.556   2.477  1.1239 -0.4716 -1.5001
 6779SOL     OW32809   7.065   4.157   7.651 -0.2878 -0.2801 -0.3738
 6779SOL    HW132810   7.026   4.249   7.650  0.1069 -0.0938  0.5809
 6779SOL    HW232811   7.152   4.158   7.601 -1.6388 -0.7787 -2.8290
 6780SOL     OW32812   6.040   6.377   0.345  0.6443  0.4609  0.0559
 6780SOL    HW132813   6.027   6.420   0.256  1.3337  2.6051  0.9553
 6780SOL    HW232814   5.983   6.295   0.351 -1.5644  1.8354 -1.2995
 6781SOL     OW32815   5.032   6.508   3.197 -0.3430  0.0629  0.3176
 6781SOL    HW132816   5.051   6.572   3.272 -1.0721 -0.1246  0.6626
 6781SOL    HW232817   5.012   6.418   3.235  0.0650 -0.2216 -0.1421
 6782SOL     OW32818   1.412   0.985   0.682  0.2885  0.2105  0.3465
 6782SOL    HW132819   1.344   0.969   0.610  0.5279  0.3759  0.0822
 6782SOL    HW232820   1.495   1.022   0.641  1.2882 -1.8993  0.3846
 6783SOL     OW32821   8.733   6.388   4.220 -0.1720  0.5999 -0.6512
 6783SOL    HW132822   8.782   6.363   4.304 -0.4658 -0.2044 -0.7164
 6783SOL    HW232823   8.778   6.466   4.177  0.4253  0.5376 -0.1396
 6784SOL     OW32824   2.329   7.714   5.692  1.1177 -0.0118  0.3149
 6784SOL    HW132825   2.302   7.622   5.663  0.7162 -0.0235  0.7099
 6784SOL    HW232826   2.269   7.782   5.649  2.3145  0.1690 -1.0902
 6785SOL     OW32827   2.248   7.058   8.997 -0.8393  0.2644 -0.6345
 6785SOL    HW132828   2.207   6.975   8.962 -1.1597  0.2494 -0.2266
 6785SOL    HW232829   2.219   7.073   9.092  0.5737 -0.0771 -0.1301
 6786SOL     OW32830   2.014   6.683   5.679  0.0379  0.5525  1.1135
 6786SOL    HW132831   2.001   6.766   5.733  0.0358  1.1773  0.1789
 6786SOL    HW232832   2.108   6.651   5.689  1.3457  3.1088 -1.8106
 6787SOL     OW32833   5.043   7.488   8.026 -0.0882 -0.8877 -0.4490
 6787SOL    HW132834   5.011   7.394   8.011  0.6373 -0.9287 -1.8103
 6787SOL    HW232835   5.131   7.486   8.074 -0.2211 -0.8892 -0.2033
 6788SOL     OW32836   7.147   8.443   8.256  0.1439  0.3237 -0.0659
 6788SOL    HW132837   7.156   8.477   8.163 -1.1183 -0.2432 -0.4077
 6788SOL    HW232838   7.084   8.365   8.258  2.4036 -1.5525  0.8136
 6789SOL     OW32839   5.370   4.580   3.645  0.1126 -0.3674 -0.0736
 6789SOL    HW132840   5.298   4.594   3.577  0.5183 -2.1092 -0.8959
 6789SOL    HW232841   5.450   4.635   3.621 -0.4352  0.5083  0.0788
 6790SOL     OW32842   1.663   3.603   5.198 -0.3551  0.4601 -0.0353
 6790SOL    HW132843   1.616   3.665   5.261  0.5240 -0.3207  1.4180
 6790SOL    HW232844   1.753   3.579   5.236 -0.2721 -0.9095 -1.0609
 6791SOL     OW32845   2.693   5.127   5.270  0.2881 -0.4529 -0.5483
 6791SOL    HW132846   2.747   5.052   5.308 -0.1023 -0.2246  0.4692
 6791SOL    HW232847   2.630   5.091   5.202  1.4362 -0.7774 -1.4693
 6792SOL     OW32848   3.399   1.954   6.686 -0.0403  0.1597 -0.3360
 6792SOL    HW132849   3.429   2.001   6.769 -0.8564 -1.1079  0.6857
 6792SOL    HW232850   3.445   1.865   6.679 -2.0718 -0.9663  0.2496
 6793SOL     OW32851   1.917   3.147   6.780 -0.3600  0.0447  0.6171
 6793SOL    HW132852   1.849   3.075   6.775  0.3711 -0.7286  1.6427
 6793SOL    HW232853   1.935   3.169   6.876  2.3833 -1.2547  0.4423
 6794SOL     OW32854   5.953   0.285   2.804 -0.4650  0.4640  0.1854
 6794SOL    HW132855   5.926   0.189   2.805 -2.3758  0.9613 -0.9570
 6794SOL    HW232856   5.873   0.342   2.822  0.8514  1.8175  1.9000
 6795SOL     OW32857   2.077   2.879   7.877  0.0838 -0.5812  0.0953
 6795SOL    HW132858   2.150   2.936   7.840 -0.6461 -0.6487 -1.4595
 6795SOL    HW232859   2.071   2.794   7.825  0.2608 -1.4984  1.5290
 6796SOL     OW32860   7.439   3.483   2.686  0.2017 -0.1307 -0.0666
 6796SOL    HW132861   7.501   3.492   2.764 -0.2850  0.8218  0.2216
 6796SOL    HW232862   7.386   3.399   2.696  0.5952 -0.3363  0.3032
 6797SOL     OW32863   8.635   1.273   6.785  0.7317  0.0093  0.0086
 6797SOL    HW132864   8.574   1.210   6.835  0.9893  0.9048  1.4778
 6797SOL    HW232865   8.690   1.324   6.850  1.6208  0.6705 -1.2492
 6798SOL     OW32866   4.090   1.994   8.621 -0.1654 -0.0173 -0.0231
 6798SOL    HW132867   3.995   2.020   8.602 -0.2392 -0.1793  0.1094
 6798SOL    HW232868   4.148   2.020   8.545 -0.6050 -1.5021 -0.8746
 6799SOL     OW32869   8.953   2.108   4.349 -0.2811 -0.0883 -0.0233
 6799SOL    HW132870   8.985   2.199   4.375  1.2876 -1.1077  1.7837
 6799SOL    HW232871   8.964   2.045   4.426  1.5873 -2.5306 -2.1522
 6800SOL     OW32872   6.950   6.350   4.987 -0.1496  0.5102  0.1978
 6800SOL    HW132873   6.878   6.335   4.919 -0.1028 -0.8082  0.4198
 6800SOL    HW232874   7.021   6.409   4.948  0.5212 -1.2669 -1.3787
 6801SOL     OW32875   5.508   5.547   5.262 -0.1524 -0.2434  0.6282
 6801SOL    HW132876   5.418   5.556   5.305  0.6143  1.1005  2.0045
 6801SOL    HW232877   5.507   5.590   5.172 -0.6343  0.6327  1.0445
 6802SOL     OW32878   0.258   1.553   0.013  0.4343 -0.3514 -0.9161
 6802SOL    HW132879   0.256   1.642   0.059 -0.4428  0.3547 -2.2647
 6802SOL    HW232880   0.182   1.497   0.046  0.4008 -0.2273 -0.7834
 6803SOL     OW32881   3.481   1.399   8.067 -0.4308  0.1255  0.2319
 6803SOL    HW132882   3.561   1.362   8.114 -0.4105 -0.4990 -0.2879
 6803SOL    HW232883   3.508   1.475   8.008  0.0732 -1.3029 -1.3907
 6804SOL     OW32884   8.664   6.060   8.195 -0.2505 -0.0601  0.2781
 6804SOL    HW132885   8.629   5.990   8.258 -0.0429  0.0482  0.5128
 6804SOL    HW232886   8.588   6.114   8.160 -0.2618  0.6366  1.3427
 6805SOL     OW32887   3.060   6.106   0.041 -0.3705  0.3575 -0.1783
 6805SOL    HW132888   3.066   6.125   0.139 -0.3223  1.5124 -0.4073
 6805SOL    HW232889   3.129   6.037   0.017  0.8086  1.3702  0.2720
 6806SOL     OW32890   8.183   4.023   5.995 -0.2037  0.0529  0.9614
 6806SOL    HW132891   8.180   3.967   6.077 -1.6246  0.1461  0.9733
 6806SOL    HW232892   8.270   4.008   5.947 -0.1272 -1.3318  1.5342
 6807SOL     OW32893   3.368   7.989   3.762 -0.7031  0.6306  0.2553
 6807SOL    HW132894   3.426   7.923   3.811 -0.7584 -0.8220 -1.5943
 6807SOL    HW232895   3.381   8.080   3.802  0.9217 -0.1183  1.5203
 6808SOL     OW32896   4.759   4.581   2.600 -0.3693 -0.3593  0.0290
 6808SOL    HW132897   4.752   4.485   2.626  0.8571 -0.4149  0.1786
 6808SOL    HW232898   4.757   4.638   2.682  2.5001 -0.4779  0.2209
 6809SOL     OW32899   0.125   5.277   7.147  0.7832  0.6134 -0.1852
 6809SOL    HW132900   0.177   5.213   7.204  0.6226  1.4471  0.9090
 6809SOL    HW232901   0.105   5.234   7.059 -1.2630 -1.6740  1.3511
 6810SOL     OW32902   6.750   0.209   1.978 -0.3337  0.2247  0.0242
 6810SOL    HW132903   6.701   0.196   1.892  0.9264 -1.1601 -0.5063
 6810SOL    HW232904   6.806   0.292   1.973 -1.8221  1.2658  0.2747
 6811SOL     OW32905   3.117   4.178   8.760  0.0735  0.5126 -1.1878
 6811SOL    HW132906   3.166   4.229   8.831  0.8732 -0.7080 -0.8581
 6811SOL    HW232907   3.022   4.163   8.789  0.3849  0.0580 -0.4051
 6812SOL     OW32908   5.169   0.662   4.786 -0.1340 -0.3152  0.4293
 6812SOL    HW132909   5.095   0.621   4.839 -2.9117  1.6604 -1.7697
 6812SOL    HW232910   5.211   0.592   4.728 -0.0127 -1.5238  1.9359
 6813SOL     OW32911   6.504   7.031   0.161 -0.0289 -0.2480  0.2847
 6813SOL    HW132912   6.539   7.046   0.253  1.2002 -1.8402  0.1033
 6813SOL    HW232913   6.540   7.101   0.099  1.9805 -1.2086  0.3357
 6814SOL     OW32914   6.336   3.711   2.702  0.3657 -0.8022  0.6417
 6814SOL    HW132915   6.283   3.772   2.643 -1.8713 -2.0603  1.2556
 6814SOL    HW232916   6.406   3.763   2.751 -0.2958  0.9237 -0.2195
 6815SOL     OW32917   6.522   1.651   7.590 -0.3157  0.3098  0.3104
 6815SOL    HW132918   6.605   1.700   7.564 -0.3364  0.1553 -0.0614
 6815SOL    HW232919   6.448   1.677   7.528 -0.5934  0.6018  0.7731
 6816SOL     OW32920   7.717   5.223   3.940 -0.2047 -0.2310  0.0150
 6816SOL    HW132921   7.690   5.148   3.880  1.2845 -0.5131 -0.3083
 6816SOL    HW232922   7.645   5.292   3.941 -1.1388 -1.1885 -0.4771
 6817SOL     OW32923   5.790   6.041   1.778 -0.7566 -0.0164  0.2698
 6817SOL    HW132924   5.814   5.969   1.712  0.5481  0.4720  0.2010
 6817SOL    HW232925   5.812   6.130   1.739  0.6215  0.2458  1.6112
 6818SOL     OW32926   1.032   3.387   5.081 -0.2965 -0.4008  0.9146
 6818SOL    HW132927   0.970   3.465   5.076 -0.3485 -0.4641  0.5880
 6818SOL    HW232928   1.039   3.356   5.176 -0.5966 -0.2613  0.9811
 6819SOL     OW32929   1.254   5.816   4.606  0.1494  0.4864 -0.1520
 6819SOL    HW132930   1.297   5.835   4.518 -1.1081  1.0328 -0.6511
 6819SOL    HW232931   1.195   5.736   4.597  0.0975  0.4819  0.2237
 6820SOL     OW32932   3.669   2.406   3.539 -0.4779 -0.8432  0.2874
 6820SOL    HW132933   3.711   2.369   3.622  1.1191  1.2110  0.4626
 6820SOL    HW232934   3.615   2.487   3.562 -0.2206 -0.3985 -0.6356
 6821SOL     OW32935   3.473   6.818   3.658  0.6833 -0.8665  0.0518
 6821SOL    HW132936   3.566   6.781   3.660  1.6166  1.3583 -0.7781
 6821SOL    HW232937   3.430   6.794   3.571  0.9457 -0.8426 -0.0874
 6822SOL     OW32938   8.826   8.905   1.203  0.5254 -0.0195  0.0832
 6822SOL    HW132939   8.911   8.922   1.153  0.5602 -1.2837 -0.3032
 6822SOL    HW232940   8.756   8.873   1.139  0.5202 -1.5023  0.8118
 6823SOL     OW32941   8.416   6.969   4.695  0.0061  0.1303 -0.4580
 6823SOL    HW132942   8.432   7.064   4.720  1.0113 -1.0021  3.6753
 6823SOL    HW232943   8.497   6.932   4.650  1.7498 -0.1779  2.7865
 6824SOL     OW32944   2.355   2.845   4.639  0.6012 -0.5883  0.4719
 6824SOL    HW132945   2.412   2.835   4.558 -0.1022  0.0709 -0.1132
 6824SOL    HW232946   2.413   2.849   4.720  1.3087 -1.2858  0.0085
 6825SOL     OW32947   7.190   0.569   8.333 -0.2888 -0.7120  0.3346
 6825SOL    HW132948   7.278   0.521   8.338  0.3069  0.4351  1.0891
 6825SOL    HW232949   7.150   0.576   8.424 -0.7155 -0.3993  0.1277
 6826SOL     OW32950   2.054   8.717   2.875 -0.4296 -0.5701 -1.0428
 6826SOL    HW132951   1.980   8.676   2.928  0.8643  0.5883  1.7309
 6826SOL    HW232952   2.096   8.646   2.817 -0.5575 -2.3444  0.9753
 6827SOL     OW32953   1.296   4.612   5.030 -0.2881 -0.2057  0.2851
 6827SOL    HW132954   1.357   4.684   4.994 -2.5435  0.9906 -1.2515
 6827SOL    HW232955   1.308   4.605   5.129  0.1730  2.1239  0.4226
 6828SOL     OW32956   0.522   1.140   0.887 -0.1834  0.0959 -0.0593
 6828SOL    HW132957   0.476   1.147   0.975 -1.4670 -1.0262 -0.6085
 6828SOL    HW232958   0.619   1.163   0.897  0.0467 -1.6272  1.9446
 6829SOL     OW32959   3.687   6.039   5.325  0.0375  0.0066 -0.2817
 6829SOL    HW132960   3.749   5.971   5.364  1.1869  1.3117  0.1804
 6829SOL    HW232961   3.594   6.000   5.320  0.5786 -1.4140  0.4251
 6830SOL     OW32962   4.830   4.995   5.956 -0.1866  0.0826  0.3866
 6830SOL    HW132963   4.846   4.899   5.933 -1.9743 -0.5606  1.7352
 6830SOL    HW232964   4.873   5.017   6.044  0.3623  0.5800  0.0027
 6831SOL     OW32965   2.648   8.792   0.311 -0.5663 -0.0991 -0.1587
 6831SOL    HW132966   2.697   8.728   0.370  0.3269 -1.5562 -2.4125
 6831SOL    HW232967   2.621   8.872   0.364  1.4169 -0.7290  1.8857
 6832SOL     OW32968   5.743   6.458   2.308  0.2980 -0.5159  0.0339
 6832SOL    HW132969   5.829   6.483   2.352  0.8769 -1.6791 -0.4142
 6832SOL    HW232970   5.753   6.370   2.261 -1.8100 -1.8882  2.0005
 6833SOL     OW32971   4.597   8.242   2.770  0.0027 -0.0640 -0.0747
 6833SOL    HW132972   4.649   8.273   2.690 -0.1314  1.4950  0.4204
 6833SOL    HW232973   4.643   8.274   2.853 -2.7033  3.0222  0.3431
 6834SOL     OW32974   2.954   8.314   4.983 -0.0702 -0.6144 -0.2012
 6834SOL    HW132975   2.949   8.230   4.929  0.9357 -1.4058  0.9148
 6834SOL    HW232976   3.001   8.385   4.931  1.9632 -1.7301  0.0769
 6835SOL     OW32977   0.301   6.547   3.002  0.3364  0.3622 -0.7518
 6835SOL    HW132978   0.298   6.607   2.922  0.4382  1.2457 -0.1003
 6835SOL    HW232979   0.255   6.592   3.079 -0.0561 -0.6168 -0.4035
 6836SOL     OW32980   5.301   7.455   2.628 -0.1476  0.2975 -0.0998
 6836SOL    HW132981   5.361   7.525   2.669 -0.9133  0.6768  0.3736
 6836SOL    HW232982   5.206   7.477   2.648 -0.3849 -0.9648  0.1582
 6837SOL     OW32983   4.367   6.651   0.496 -0.0492 -0.3548  0.1418
 6837SOL    HW132984   4.375   6.643   0.396 -3.2317  1.8343 -0.3721
 6837SOL    HW232985   4.439   6.597   0.539  1.5227 -1.2173 -3.3277
 6838SOL     OW32986   7.977   7.919   2.352 -0.1909 -0.1484  0.6616
 6838SOL    HW132987   7.997   7.899   2.256  0.7498 -1.9129  1.2188
 6838SOL    HW232988   7.880   7.902   2.370 -0.1294 -0.8812  0.2967
 6839SOL     OW32989   1.553   0.310   6.897 -0.2990 -0.2021  0.2091
 6839SOL    HW132990   1.588   0.332   6.988  0.0491 -0.1840  0.0721
 6839SOL    HW232991   1.454   0.324   6.895 -0.2249  0.3712  0.4154
 6840SOL     OW32992   1.779   4.548   7.828 -0.0348 -0.2149  0.0378
 6840SOL    HW132993   1.701   4.574   7.772 -0.3797 -1.4404 -0.0728
 6840SOL    HW232994   1.833   4.479   7.780 -0.3720 -1.3271  1.2304
 6841SOL     OW32995   4.576   7.576   3.444 -0.1280  0.0290 -0.2531
 6841SOL    HW132996   4.524   7.506   3.396 -0.4138  0.6294 -0.8299
 6841SOL    HW232997   4.558   7.570   3.542 -0.7480 -0.2135 -0.3798
 6842SOL     OW32998   7.517   3.306   3.599 -0.2658 -0.6135  0.2940
 6842SOL    HW132999   7.581   3.372   3.638  1.6294 -2.2460  0.0677
 6842SOL    HW233000   7.467   3.348   3.524  1.3586  0.3708 -0.2624
 6843SOL     OW33001   1.218   2.060   1.906 -0.2898 -0.0424  0.1448
 6843SOL    HW133002   1.273   2.041   1.825 -0.7450  0.7999 -0.3716
 6843SOL    HW233003   1.208   1.976   1.960  0.3373 -0.5183 -0.4681
 6844SOL     OW33004   3.742   3.562   5.542  0.3444 -0.2910 -0.1212
 6844SOL    HW133005   3.708   3.500   5.613  1.5232  1.0190  1.6202
 6844SOL    HW233006   3.687   3.645   5.541 -0.0773 -0.5657 -1.2172
 6845SOL     OW33007   1.573   0.358   8.386 -0.4353  0.4910 -0.0105
 6845SOL    HW133008   1.585   0.259   8.396  1.8878  0.6891 -0.5954
 6845SOL    HW233009   1.477   0.382   8.404 -0.4476 -1.5073  3.0666
 6846SOL     OW33010   0.888   5.702   5.669 -0.1923  0.2338  0.1049
 6846SOL    HW133011   0.794   5.725   5.645  0.1447  0.7167 -0.7857
 6846SOL    HW233012   0.901   5.603   5.668 -1.4117  0.0008  2.9888
 6847SOL     OW33013   0.632   3.537   7.933 -0.0275 -0.6848 -0.1151
 6847SOL    HW133014   0.548   3.591   7.947  0.7307  0.8971 -1.4462
 6847SOL    HW233015   0.711   3.596   7.947  0.9922 -2.9760  4.4607
 6848SOL     OW33016   7.277   7.521   1.814  0.0648 -0.5393 -0.9376
 6848SOL    HW133017   7.351   7.588   1.805  0.9168 -1.1740  1.2203
 6848SOL    HW233018   7.269   7.470   1.728  0.7787  0.8963 -1.8893
 6849SOL     OW33019   1.133   8.249   6.290 -0.1254  0.0931  0.0819
 6849SOL    HW133020   1.175   8.226   6.377 -1.5330 -0.8957  0.5335
 6849SOL    HW233021   1.043   8.206   6.285 -0.3270  0.6768 -1.5893
 6850SOL     OW33022   8.177   5.374   2.199 -0.2567  0.1884  0.0437
 6850SOL    HW133023   8.202   5.285   2.162 -0.3077  1.2649 -2.7598
 6850SOL    HW233024   8.256   5.415   2.244 -0.6091 -1.8056  2.5179
 6851SOL     OW33025   5.874   4.223   2.136  0.1528 -0.3174  0.8784
 6851SOL    HW133026   5.828   4.170   2.065  0.6264 -0.1833  0.4730
 6851SOL    HW233027   5.853   4.320   2.123  1.5792 -0.1235 -0.0756
 6852SOL     OW33028   8.465   8.720   6.389  0.2669 -0.3263  0.2305
 6852SOL    HW133029   8.483   8.760   6.299  0.3032 -0.9530 -0.0423
 6852SOL    HW233030   8.504   8.628   6.393 -0.6561 -0.7078  0.5177
 6853SOL     OW33031   1.717   2.559   0.306  0.0823 -0.1311  0.3889
 6853SOL    HW133032   1.764   2.647   0.308  3.0757 -1.6529 -0.4784
 6853SOL    HW233033   1.705   2.529   0.211 -2.0416 -0.1094  0.6248
 6854SOL     OW33034   2.036   7.221   5.907 -0.2815  0.4635 -0.0453
 6854SOL    HW133035   2.052   7.133   5.952 -0.5559  0.7219  0.5730
 6854SOL    HW233036   2.089   7.226   5.822 -1.8276 -1.1065 -1.1300
 6855SOL     OW33037   5.508   5.762   6.925 -0.4235  0.0886  0.5394
 6855SOL    HW133038   5.571   5.713   6.986 -1.0093  0.2196  1.2576
 6855SOL    HW233039   5.424   5.709   6.914 -0.4445  0.2111  0.0849
 6856SOL     OW33040   8.286   6.569   0.402 -0.0136  0.2328  0.1079
 6856SOL    HW133041   8.316   6.547   0.309 -1.9108  0.2077 -0.5148
 6856SOL    HW233042   8.355   6.538   0.467 -0.2838 -2.9912 -1.0434
 6857SOL     OW33043   6.803   2.006   8.250 -0.0349  0.3521 -0.0810
 6857SOL    HW133044   6.727   2.005   8.314  0.5844 -0.4460  0.6492
 6857SOL    HW233045   6.819   2.100   8.218  0.1035  0.8632  1.4652
 6858SOL     OW33046   7.024   0.758   0.879  0.8789 -0.0693  0.3987
 6858SOL    HW133047   6.998   0.682   0.820  1.4048 -0.0298  0.1200
 6858SOL    HW233048   6.952   0.773   0.947  1.4226 -1.7003  1.3313
 6859SOL     OW33049   2.654   4.957   7.837  0.5812 -0.1063 -0.1382
 6859SOL    HW133050   2.664   4.932   7.741 -2.0061 -1.8981  0.0238
 6859SOL    HW233051   2.717   4.903   7.892  1.9471  0.7968 -0.7944
 6860SOL     OW33052   5.167   3.254   8.347 -0.5038 -0.3172 -0.6854
 6860SOL    HW133053   5.256   3.257   8.303 -0.3538  1.3073 -0.3061
 6860SOL    HW233054   5.122   3.168   8.326  1.9000 -1.9464  0.5658
 6861SOL     OW33055   1.656   5.720   8.360 -0.3962  0.0878 -0.0708
 6861SOL    HW133056   1.678   5.815   8.384 -1.1401  0.3688 -0.4755
 6861SOL    HW233057   1.737   5.663   8.371 -0.5568  0.2982  2.6058
 6862SOL     OW33058   7.288   5.417   3.706  0.1526 -0.0132  0.0141
 6862SOL    HW133059   7.297   5.516   3.695  0.5151 -0.0456  0.0198
 6862SOL    HW233060   7.255   5.396   3.798  0.3673  0.0849  0.1123
 6863SOL     OW33061   4.947   4.439   7.325 -0.1691  0.3877  0.4407
 6863SOL    HW133062   5.017   4.425   7.256 -0.9901 -0.7483 -0.1731
 6863SOL    HW233063   4.953   4.368   7.395 -0.2743  0.6908  0.7642
 6864SOL     OW33064   7.903   2.088   1.983  0.0243 -0.2363  0.3360
 6864SOL    HW133065   7.939   2.045   2.066 -0.1121 -1.1619 -0.0708
 6864SOL    HW233066   7.931   2.034   1.903 -0.3652  0.3017 -0.1656
 6865SOL     OW33067   0.570   6.325   2.057 -0.7919 -0.1080  0.0389
 6865SOL    HW133068   0.587   6.313   2.154  0.1333  2.4602  0.2293
 6865SOL    HW233069   0.609   6.247   2.007 -0.9082 -1.2412  1.6704
 6866SOL     OW33070   2.006   6.684   3.991 -0.4146 -0.1766  0.2151
 6866SOL    HW133071   2.025   6.599   3.942  1.0987 -0.5369  1.3843
 6866SOL    HW233072   1.934   6.668   4.059  1.0014 -0.9599  1.5600
 6867SOL     OW33073   3.359   5.528   4.564  0.1045 -0.0813 -0.4033
 6867SOL    HW133074   3.405   5.441   4.543 -0.4322 -0.2715 -0.7936
 6867SOL    HW233075   3.413   5.604   4.529  0.7452 -0.2370  0.2256
 6868SOL     OW33076   5.788   5.459   6.817  0.5216  0.5668  0.2639
 6868SOL    HW133077   5.713   5.452   6.883 -0.2142  3.0880 -0.2639
 6868SOL    HW233078   5.871   5.421   6.857 -0.4869 -0.1673  1.7207
 6869SOL     OW33079   5.922   5.983   5.922  0.1443  0.7194  0.1703
 6869SOL    HW133080   5.933   6.064   5.980 -0.1831  0.1439  1.0494
 6869SOL    HW233081   5.993   5.916   5.946 -1.4736 -0.5112  1.6078
 6870SOL     OW33082   0.309   2.186   4.048  0.1233  0.8141  0.0077
 6870SOL    HW133083   0.245   2.131   4.101  1.7369  0.7040  1.8787
 6870SOL    HW233084   0.356   2.127   3.982 -1.8724  0.9535 -1.6345
 6871SOL     OW33085   3.345   7.167   4.727 -0.0497  0.4728 -0.6027
 6871SOL    HW133086   3.341   7.261   4.760  0.8110 -0.0773  1.1147
 6871SOL    HW233087   3.388   7.165   4.637 -1.2952  1.8549 -1.2563
 6872SOL     OW33088   7.403   6.037   3.054  0.1658  0.0163  0.1515
 6872SOL    HW133089   7.324   6.021   3.112  0.8849 -0.2354  1.0814
 6872SOL    HW233090   7.486   6.007   3.102  0.8074  0.1578 -0.8530
 6873SOL     OW33091   7.704   6.817   5.925  0.0885  0.1255  0.0145
 6873SOL    HW133092   7.784   6.765   5.955  0.0917 -0.0913 -0.3738
 6873SOL    HW233093   7.720   6.854   5.834 -0.9300 -1.3838 -0.7822
 6874SOL     OW33094   7.435   3.073   3.497  0.2670  0.0491 -0.6325
 6874SOL    HW133095   7.467   3.005   3.564  0.9015  0.9933  0.0351
 6874SOL    HW233096   7.453   3.165   3.532 -0.7215  0.5645 -1.4698
 6875SOL     OW33097   3.196   1.778   6.711 -0.8339  0.2166  0.4841
 6875SOL    HW133098   3.241   1.860   6.746  0.2124 -0.5629  1.0012
 6875SOL    HW233099   3.266   1.710   6.687 -1.7758 -1.4309  2.3316
 6876SOL     OW33100   1.019   5.064   4.167 -0.4549  0.0609 -0.2369
 6876SOL    HW133101   0.935   5.099   4.210 -1.2614 -1.6752 -0.3631
 6876SOL    HW233102   1.090   5.134   4.172 -1.5937  1.1766  0.8052
 6877SOL     OW33103   5.947   5.743   3.332  0.5045 -0.4962 -0.0993
 6877SOL    HW133104   6.044   5.745   3.305  0.0761  3.1234 -1.6005
 6877SOL    HW233105   5.934   5.799   3.414 -0.7711  1.7029 -1.7406
 6878SOL     OW33106   2.759   1.156   7.939  0.1949  0.3005  0.8048
 6878SOL    HW133107   2.689   1.085   7.946 -0.1136  0.7290  2.2213
 6878SOL    HW233108   2.848   1.114   7.926 -0.6095 -0.1959 -4.0040
 6879SOL     OW33109   5.928   5.846   3.592  0.0783  0.4753 -0.3111
 6879SOL    HW133110   5.954   5.937   3.624 -0.5240  0.6941 -0.4205
 6879SOL    HW233111   6.008   5.787   3.588  0.2118  0.5357  1.2780
 6880SOL     OW33112   5.657   4.908   0.509 -0.0937  0.2491  0.2042
 6880SOL    HW133113   5.750   4.879   0.486  0.1726 -0.0592  1.6742
 6880SOL    HW233114   5.612   4.942   0.426  1.0130 -0.4488 -0.7026
 6881SOL     OW33115   7.513   1.258   7.357 -0.2676 -0.0470 -0.4490
 6881SOL    HW133116   7.513   1.329   7.428 -0.2056 -0.4798 -0.0059
 6881SOL    HW233117   7.546   1.296   7.271 -2.7802  1.1354 -0.9184
 6882SOL     OW33118   8.105   0.041   1.262 -0.0560 -0.2752 -0.0563
 6882SOL    HW133119   8.112  -0.038   1.201 -0.5944 -0.7388  0.4733
 6882SOL    HW233120   8.070   0.011   1.351  0.7071  0.3926  0.4805
 6883SOL     OW33121   3.266   1.976   0.199  0.0858 -0.2899  0.0306
 6883SOL    HW133122   3.281   1.893   0.254 -0.0607 -0.5841 -0.3752
 6883SOL    HW233123   3.280   1.954   0.103  2.0985  0.6231  0.0828
 6884SOL     OW33124   8.483   5.865   5.722 -0.2248 -0.4946  0.1397
 6884SOL    HW133125   8.480   5.958   5.759 -3.3317  0.0207 -1.1851
 6884SOL    HW233126   8.485   5.870   5.622  0.9594 -1.8695  0.0904
 6885SOL     OW33127   7.630   0.326   7.419 -0.0852  1.2012  0.0706
 6885SOL    HW133128   7.694   0.315   7.342  0.6487 -1.7676  1.0317
 6885SOL    HW233129   7.540   0.350   7.384  0.2039 -0.2596 -1.7632
 6886SOL     OW33130   4.157   1.234   5.475 -0.5889 -0.6874  0.0863
 6886SOL    HW133131   4.219   1.290   5.530 -1.9118  0.9880 -0.0769
 6886SOL    HW233132   4.063   1.250   5.505 -1.3111  0.0265 -2.4188
 6887SOL     OW33133   1.554   1.746   0.317 -0.2336 -0.0282  0.7232
 6887SOL    HW133134   1.647   1.781   0.315  0.5334 -2.0590 -0.4032
 6887SOL    HW233135   1.491   1.817   0.286  1.2441  0.4778 -1.2060
 6888SOL     OW33136   0.584   5.488   3.505  0.3750 -0.1841 -0.0548
 6888SOL    HW133137   0.561   5.538   3.421 -0.8286  0.4639  0.6492
 6888SOL    HW233138   0.508   5.496   3.570  1.2378 -0.8189  1.0368
 6889SOL     OW33139   1.072   3.525   6.381 -1.1118 -0.4576  0.4148
 6889SOL    HW133140   0.990   3.534   6.324  2.2172  0.9428 -4.4969
 6889SOL    HW233141   1.102   3.430   6.381 -1.6496 -0.6295  0.6091
 6890SOL     OW33142   8.254   7.403   6.108  0.5203 -0.4947 -0.0972
 6890SOL    HW133143   8.190   7.391   6.184  1.8622 -0.4285  1.0584
 6890SOL    HW233144   8.276   7.500   6.097 -0.3453 -0.4052 -1.1499
 6891SOL     OW33145   6.642   8.052   7.791  0.4420  0.2878 -0.3996
 6891SOL    HW133146   6.742   8.047   7.797  0.4602  0.9417 -0.1314
 6891SOL    HW233147   6.607   8.112   7.864 -0.2082 -0.5990  0.0241
 6892SOL     OW33148   6.770   5.067   4.919 -0.4268 -0.1634 -0.5942
 6892SOL    HW133149   6.721   5.044   5.003 -0.8466 -0.2153 -0.8507
 6892SOL    HW233150   6.729   5.018   4.842 -3.8103  4.2515 -1.8110
 6893SOL     OW33151   6.065   0.566   0.396 -0.0601  0.2494  0.0897
 6893SOL    HW133152   6.014   0.504   0.455 -0.7443  0.3673 -0.3775
 6893SOL    HW233153   6.008   0.595   0.320  1.4367 -1.3727 -1.6852
 6894SOL     OW33154   3.583   3.182   3.929 -0.1125 -0.1218  0.1655
 6894SOL    HW133155   3.655   3.245   3.902  0.4572 -1.1657 -0.8155
 6894SOL    HW233156   3.569   3.188   4.028 -0.6964  2.1545 -0.0274
 6895SOL     OW33157   3.902   2.538   1.568 -0.2783 -0.2857 -0.6478
 6895SOL    HW133158   3.961   2.458   1.574 -1.4765 -1.2773 -1.8821
 6895SOL    HW233159   3.942   2.606   1.507  1.4184  0.6824  1.4711
 6896SOL     OW33160   7.364   5.017   6.163  0.1442 -0.2212 -0.0968
 6896SOL    HW133161   7.377   5.115   6.147 -1.1822 -0.3850 -2.4394
 6896SOL    HW233162   7.282   5.003   6.218 -0.4415 -0.0597 -0.9189
 6897SOL     OW33163   7.378   5.591   6.931 -0.3447  0.1153  0.1081
 6897SOL    HW133164   7.355   5.530   6.855 -0.1609 -0.8553  0.8237
 6897SOL    HW233165   7.312   5.581   7.005 -0.5733  1.1229  0.0542
 6898SOL     OW33166   3.458   8.678   7.501 -0.0691 -0.5567 -0.2236
 6898SOL    HW133167   3.373   8.711   7.541  0.6039 -1.0500  1.6320
 6898SOL    HW233168   3.468   8.581   7.521  0.0651 -0.9263 -1.9921
 6899SOL     OW33169   3.888   1.731   3.651  0.5257 -0.2190 -0.2351
 6899SOL    HW133170   3.961   1.778   3.700  0.8263 -0.8746 -0.0495
 6899SOL    HW233171   3.833   1.678   3.716  0.1898 -0.1258 -0.4426
 6900SOL     OW33172   5.199   4.632   4.540 -0.2649  0.3666  0.0093
 6900SOL    HW133173   5.166   4.723   4.562  1.7022  0.9589  0.5360
 6900SOL    HW233174   5.230   4.630   4.445 -2.2612 -0.3397 -0.6588
 6901SOL     OW33175   4.243   0.692   0.758  0.1425  0.6399 -0.1662
 6901SOL    HW133176   4.171   0.628   0.733  1.0421 -0.8073  0.8482
 6901SOL    HW233177   4.206   0.763   0.818  0.0402 -1.5884  2.5180
 6902SOL     OW33178   3.882   1.833   6.157  0.5563  0.0539  0.0599
 6902SOL    HW133179   3.920   1.779   6.083  0.0368 -0.3347  0.0689
 6902SOL    HW233180   3.826   1.907   6.120  2.0442  1.1871  0.0272
 6903SOL     OW33181   5.211   4.014   6.172 -0.3416 -0.3444  0.4223
 6903SOL    HW133182   5.281   3.999   6.103  0.4095  2.0983  0.6246
 6903SOL    HW233183   5.234   3.961   6.254  0.2987 -0.9646 -0.1499
 6904SOL     OW33184   3.924   8.038   6.095 -0.5696  0.3385  0.4778
 6904SOL    HW133185   3.913   8.018   6.192  0.1553 -0.1572  0.4565
 6904SOL    HW233186   3.879   7.967   6.041 -0.6870  0.4376  0.4437
 6905SOL     OW33187   7.629   6.334   8.496  0.2143  0.2442 -0.7594
 6905SOL    HW133188   7.679   6.320   8.410  0.8970 -0.4287 -0.2661
 6905SOL    HW233189   7.561   6.405   8.484 -3.0910 -3.1608 -3.2841
 6906SOL     OW33190   3.552   0.876   7.096  0.5730  0.2434  0.7120
 6906SOL    HW133191   3.580   0.818   7.173  0.3802 -0.2797  0.3870
 6906SOL    HW233192   3.455   0.897   7.104  0.5656  0.2350  0.6429
 6907SOL     OW33193   5.370   2.942   2.302  0.1506  0.1229 -0.5813
 6907SOL    HW133194   5.385   2.844   2.316  3.0557  0.5678 -0.1620
 6907SOL    HW233195   5.274   2.964   2.320 -0.4730 -2.5652 -0.3239
 6908SOL     OW33196   6.861   7.607   0.447 -0.1222  0.2552 -0.1501
 6908SOL    HW133197   6.798   7.539   0.483  0.3380 -0.4190 -0.6088
 6908SOL    HW233198   6.811   7.692   0.429 -1.2623 -0.8050 -2.1310
 6909SOL     OW33199   3.341   2.856   7.332 -0.3674 -0.2133 -0.6427
 6909SOL    HW133200   3.275   2.782   7.322 -0.2969 -0.3774  0.1125
 6909SOL    HW233201   3.304   2.940   7.291 -0.0165 -0.9047 -2.4534
 6910SOL     OW33202   0.931   8.814   6.794 -0.3190 -0.5617  1.2132
 6910SOL    HW133203   0.867   8.738   6.783 -1.1162  0.3488 -0.7039
 6910SOL    HW233204   0.964   8.843   6.704 -2.0673  3.0487  1.6214
 6911SOL     OW33205   7.994   3.758   3.360 -0.5232  0.4225  0.4157
 6911SOL    HW133206   8.071   3.769   3.297 -0.8017 -0.5977 -0.1139
 6911SOL    HW233207   8.024   3.779   3.453  0.1468  0.9634  0.0871
 6912SOL     OW33208   3.324   4.424   1.087 -0.2368 -0.1378  0.5288
 6912SOL    HW133209   3.300   4.475   1.004  0.0508 -1.1356 -0.1919
 6912SOL    HW233210   3.248   4.364   1.112  0.1669 -0.7814  0.2332
 6913SOL     OW33211   8.082   8.143   4.262  0.1919 -0.0342 -0.2570
 6913SOL    HW133212   8.077   8.149   4.362 -0.7850 -1.6703 -0.1805
 6913SOL    HW233213   7.999   8.182   4.223  0.2236 -0.0945 -0.3857
 6914SOL     OW33214   4.833   7.783   7.683  0.1215  0.3984  0.5433
 6914SOL    HW133215   4.800   7.756   7.593 -2.0420  0.4996  1.2762
 6914SOL    HW233216   4.805   7.877   7.703 -2.1242 -0.6424  2.5453
 6915SOL     OW33217   1.844   2.255   8.772 -0.3049  0.3186 -0.7501
 6915SOL    HW133218   1.908   2.183   8.745  1.8064  2.2509 -1.0462
 6915SOL    HW233219   1.762   2.250   8.715 -0.5464 -2.3254 -0.2250
 6916SOL     OW33220   3.142   3.216   3.898 -0.2281  0.1199 -0.1958
 6916SOL    HW133221   3.145   3.315   3.910 -0.8011  0.3216 -1.5446
 6916SOL    HW233222   3.102   3.195   3.808 -1.6981 -1.3663  0.7779
 6917SOL     OW33223   8.546   7.780   4.135  0.5572 -0.3020  0.2871
 6917SOL    HW133224   8.493   7.830   4.203  1.1841  2.1066 -0.9327
 6917SOL    HW233225   8.526   7.682   4.142 -1.4754  0.2066  2.0484
 6918SOL     OW33226   8.897   0.626   0.885 -0.0167  0.0288  0.0009
 6918SOL    HW133227   8.919   0.552   0.948  2.4504  1.0899  0.4199
 6918SOL    HW233228   8.859   0.703   0.935 -0.2606 -0.0038 -0.1299
 6919SOL     OW33229   7.340   6.238   7.142 -0.0044 -0.2118  0.2622
 6919SOL    HW133230   7.297   6.166   7.197 -0.2770  0.8811  1.5095
 6919SOL    HW233231   7.438   6.219   7.134  0.1117 -0.1676  1.4808
 6920SOL     OW33232   6.562   6.443   0.230  0.3410 -0.0727 -0.5827
 6920SOL    HW133233   6.571   6.471   0.325  0.0748  0.7027 -0.7850
 6920SOL    HW233234   6.469   6.409   0.215  0.5415 -0.7041 -0.4401
 6921SOL     OW33235   1.625   7.410   6.474  0.0877  0.1943  0.0250
 6921SOL    HW133236   1.542   7.465   6.466 -0.1694 -0.2757 -0.4732
 6921SOL    HW233237   1.642   7.390   6.570  0.5276  1.6838  0.2840
 6922SOL     OW33238   6.810   4.882   7.692 -0.1170 -0.2228 -0.4180
 6922SOL    HW133239   6.844   4.917   7.605  0.0521 -1.2720 -0.7716
 6922SOL    HW233240   6.736   4.942   7.725  0.1539  0.4514 -1.0284
 6923SOL     OW33241   2.140   3.120   8.153  0.5209  0.0238  0.4569
 6923SOL    HW133242   2.066   3.182   8.178  0.4094  0.4682 -0.9594
 6923SOL    HW233243   2.157   3.125   8.054  2.5570  0.0553  0.7783
 6924SOL     OW33244   4.297   5.209   2.042  0.4875 -0.1047 -0.4371
 6924SOL    HW133245   4.337   5.298   2.064  0.1598  0.1799 -0.9839
 6924SOL    HW233246   4.203   5.222   2.009  0.2738 -0.6890 -0.0797
 6925SOL     OW33247   8.350   3.922   1.011 -0.3512 -0.6891  0.2103
 6925SOL    HW133248   8.266   3.976   1.009 -0.0775 -0.2225  0.9374
 6925SOL    HW233249   8.338   3.845   1.074  0.5902  0.8109  2.3226
 6926SOL     OW33250   3.100   1.388   2.953  0.4164 -0.3842 -0.3726
 6926SOL    HW133251   3.090   1.449   2.874 -3.4828 -0.0816  0.2479
 6926SOL    HW233252   3.149   1.436   3.025 -0.0991  1.0154 -0.9228
 6927SOL     OW33253   7.061   0.795   1.289  0.1273 -0.2274 -0.2525
 6927SOL    HW133254   7.105   0.753   1.368  2.4007  1.4281 -0.6098
 6927SOL    HW233255   7.049   0.893   1.305 -0.6559 -0.1126 -1.4218
 6928SOL     OW33256   8.329   2.263   8.843  0.0790 -0.0820 -0.2446
 6928SOL    HW133257   8.240   2.228   8.873 -0.6479  2.9550  1.4315
 6928SOL    HW233258   8.321   2.299   8.750 -0.2514 -0.5602 -0.4002
 6929SOL     OW33259   0.967   5.155   1.895 -1.0036  0.2587  0.2505
 6929SOL    HW133260   1.023   5.214   1.954 -0.4939  0.4824 -0.4502
 6929SOL    HW233261   0.949   5.203   1.809  1.3084 -1.4893 -1.2432
 6930SOL     OW33262   6.303   0.734   1.432 -0.3416  0.3642 -0.3565
 6930SOL    HW133263   6.270   0.704   1.342 -3.2138 -0.2252  0.8418
 6930SOL    HW233264   6.225   0.748   1.493  1.5535  1.0465  1.9712
 6931SOL     OW33265   8.933   0.697   6.349  0.5819 -0.2209 -0.3254
 6931SOL    HW133266   8.926   0.794   6.325  1.2174 -0.1461 -0.2040
 6931SOL    HW233267   8.850   0.669   6.397  0.1140  0.1005 -0.9276
 6932SOL     OW33268   2.834   2.064   0.730  0.3327 -0.1650 -0.7571
 6932SOL    HW133269   2.821   2.086   0.633  0.5921  1.5065 -0.4210
 6932SOL    HW233270   2.919   2.107   0.762 -1.4664  2.1115  1.0742
 6933SOL     OW33271   2.112   1.586   0.378 -0.7837 -0.2819  0.4157
 6933SOL    HW133272   2.026   1.558   0.421 -0.1674 -0.8843  1.2714
 6933SOL    HW233273   2.184   1.521   0.402 -0.9503 -1.9981 -3.4846
 6934SOL     OW33274   0.298   7.796   8.060  0.0260 -0.5560 -0.5130
 6934SOL    HW133275   0.390   7.770   8.031  0.3098 -0.3719  0.2220
 6934SOL    HW233276   0.274   7.749   8.145 -0.1881  0.1204 -0.1931
 6935SOL     OW33277   3.053   8.294   0.098  0.6608  0.6849 -0.3539
 6935SOL    HW133278   2.968   8.260   0.138  0.1457 -0.3418 -2.2410
 6935SOL    HW233279   3.057   8.394   0.107 -0.7698  0.7425 -0.2956
 6936SOL     OW33280   3.111   5.244   5.678  0.1934 -0.2686 -0.7603
 6936SOL    HW133281   3.105   5.145   5.673 -0.6347 -0.1925 -1.3521
 6936SOL    HW233282   3.161   5.271   5.760  1.0827 -1.1938 -1.0041
 6937SOL     OW33283   1.454   0.147   7.645 -0.3279 -0.0477  0.6695
 6937SOL    HW133284   1.505   0.107   7.568 -0.8314 -0.9352  0.7931
 6937SOL    HW233285   1.510   0.217   7.689 -0.4076  1.2110 -1.1409
 6938SOL     OW33286   1.653   1.127   6.853 -0.8370 -0.3633  0.7100
 6938SOL    HW133287   1.750   1.149   6.846 -1.0804  0.7866  0.8198
 6938SOL    HW233288   1.618   1.102   6.762 -1.0019  1.6873  0.1794
 6939SOL     OW33289   7.314   5.069   3.978  0.1926 -0.4315  0.2586
 6939SOL    HW133290   7.369   5.099   4.056  0.0842 -0.0610  0.1961
 6939SOL    HW233291   7.374   5.038   3.905  0.2672 -1.8243  0.8977
 6940SOL     OW33292   3.895   2.980   2.402 -0.1565  0.6553 -0.1188
 6940SOL    HW133293   3.860   3.068   2.433  0.1873  0.9347 -0.5195
 6940SOL    HW233294   3.946   2.936   2.476  1.8278  1.9246 -0.6783
 6941SOL     OW33295   1.856   3.629   4.449 -0.6013  0.0617 -0.2856
 6941SOL    HW133296   1.791   3.672   4.386 -1.8244  0.0568  0.9334
 6941SOL    HW233297   1.815   3.624   4.540  0.0859 -2.3612 -0.0806
 6942SOL     OW33298   6.791   2.769   3.509 -0.4427 -0.5911  0.0860
 6942SOL    HW133299   6.846   2.750   3.427 -0.9488  0.3582 -0.4843
 6942SOL    HW233300   6.699   2.733   3.496 -0.8001  0.3814 -0.1608
 6943SOL     OW33301   1.449   6.822   1.967 -0.3855 -0.4888  0.0688
 6943SOL    HW133302   1.385   6.859   2.035 -0.7646 -0.0969 -0.4988
 6943SOL    HW233303   1.399   6.770   1.899 -0.0380 -0.6210 -0.0852
 6944SOL     OW33304   4.549   1.872   2.724 -0.1018 -0.2729 -0.1167
 6944SOL    HW133305   4.559   1.867   2.824 -6.2136 -0.5822  0.7020
 6944SOL    HW233306   4.552   1.968   2.696  0.8568 -0.1290  0.4440
 6945SOL     OW33307   1.167   7.478   8.463  0.3722  0.4291  0.0012
 6945SOL    HW133308   1.164   7.381   8.485  3.4053 -0.4470 -2.9553
 6945SOL    HW233309   1.194   7.530   8.544  0.2272 -1.3748  1.2313
 6946SOL     OW33310   6.389   2.321   6.128 -0.4022  0.3799 -0.2164
 6946SOL    HW133311   6.370   2.355   6.036 -0.3564  2.4273  0.5067
 6946SOL    HW233312   6.486   2.300   6.137  0.0363  2.3838  0.0337
 6947SOL     OW33313   7.558   1.171   0.457 -0.0306  0.2710  0.3915
 6947SOL    HW133314   7.523   1.134   0.543  0.4345 -1.6722 -0.2456
 6947SOL    HW233315   7.487   1.166   0.387  0.4708 -0.6647 -0.0499
 6948SOL     OW33316   6.519   2.183   2.902  0.1262 -0.2102  0.5084
 6948SOL    HW133317   6.432   2.198   2.950  0.1256  0.6123  0.2552
 6948SOL    HW233318   6.500   2.155   2.808  0.1264  1.8167 -0.1139
 6949SOL     OW33319   1.541   5.850   0.213 -0.0257 -0.6323  0.5699
 6949SOL    HW133320   1.488   5.863   0.297 -1.2638  0.1521 -0.3180
 6949SOL    HW233321   1.609   5.923   0.205 -0.5443 -0.1571  0.4258
 6950SOL     OW33322   0.678   3.071   5.568 -0.2959 -0.4485  0.0665
 6950SOL    HW133323   0.709   3.130   5.494 -0.9613  0.9868  0.9139
 6950SOL    HW233324   0.728   3.092   5.651 -0.5114 -1.1199  0.3726
 6951SOL     OW33325   4.419   2.467   0.315  0.0552 -0.0978 -0.2060
 6951SOL    HW133326   4.429   2.393   0.382 -2.2669  1.0052  1.4373
 6951SOL    HW233327   4.422   2.555   0.363  0.0630  0.7860 -1.8002
 6952SOL     OW33328   6.025   1.016   7.431 -0.1437  0.1083 -0.3490
 6952SOL    HW133329   6.003   0.979   7.341 -0.1155 -0.9724  0.0828
 6952SOL    HW233330   6.091   0.956   7.477  0.2852  0.9582  0.1633
 6953SOL     OW33331   8.951   3.591   7.865  0.2631 -0.3201  0.0536
 6953SOL    HW133332   8.907   3.603   7.954  0.8095  0.6940  0.1958
 6953SOL    HW233333   8.914   3.510   7.821 -1.1378  0.0302  0.5388
 6954SOL     OW33334   7.380   1.784   0.339 -0.0987  0.3463  0.5110
 6954SOL    HW133335   7.469   1.741   0.350  1.2276  1.7553 -3.7661
 6954SOL    HW233336   7.391   1.883   0.332 -2.1158  0.6243  0.8644
 6955SOL     OW33337   5.654   8.920   5.170 -0.1133 -0.0062 -0.3517
 6955SOL    HW133338   5.662   8.852   5.243  0.0278  0.5447  0.1481
 6955SOL    HW233339   5.741   8.968   5.160 -0.6507  1.1187  0.3011
 6956SOL     OW33340   0.109   4.628   5.456 -0.3622  0.5508 -0.4054
 6956SOL    HW133341   0.016   4.595   5.474  0.0282  0.1060  0.8736
 6956SOL    HW233342   0.175   4.561   5.491  0.4539  2.4430  1.8381
 6957SOL     OW33343   8.357   3.767   1.496 -0.0054  0.0546 -0.8524
 6957SOL    HW133344   8.290   3.748   1.424  0.9085 -1.4645 -1.3315
 6957SOL    HW233345   8.409   3.849   1.471  0.4268 -0.5570 -2.0444
 6958SOL     OW33346   5.979   3.830   4.293 -0.3661 -0.0600 -0.3883
 6958SOL    HW133347   5.886   3.831   4.258 -0.6042 -0.2510  0.2297
 6958SOL    HW233348   6.030   3.908   4.257 -0.9914  0.4738 -0.1179
 6959SOL     OW33349   4.661   3.290   5.687  0.3768  0.5477 -0.3787
 6959SOL    HW133350   4.648   3.350   5.766  0.5671 -1.4900  1.2490
 6959SOL    HW233351   4.672   3.195   5.719  1.9973 -0.1044 -2.7444
 6960SOL     OW33352   5.262   0.431   4.996  0.2275 -0.4283 -0.6968
 6960SOL    HW133353   5.167   0.455   4.977 -1.3344 -4.0745  1.9811
 6960SOL    HW233354   5.316   0.442   4.912 -2.3070  2.5528 -2.0376
 6961SOL     OW33355   8.498   7.494   2.598 -0.5027  0.1356 -0.1431
 6961SOL    HW133356   8.435   7.428   2.639 -0.2064  0.4155  0.7667
 6961SOL    HW233357   8.477   7.586   2.632 -0.0324  0.3208 -0.3522
 6962SOL     OW33358   7.672   8.310   5.464  0.0117 -0.5238 -0.6933
 6962SOL    HW133359   7.759   8.267   5.443  1.7796  1.4983  2.1763
 6962SOL    HW233360   7.684   8.409   5.468 -2.4518 -0.2138 -0.3590
 6963SOL     OW33361   0.787   3.420   1.162 -0.2036  0.0709  0.0575
 6963SOL    HW133362   0.879   3.398   1.193  0.1848  0.6173 -0.7107
 6963SOL    HW233363   0.747   3.339   1.119 -1.5163 -1.3578  3.7076
 6964SOL     OW33364   3.349   4.795   6.272  0.0710 -0.1811  0.4262
 6964SOL    HW133365   3.357   4.855   6.192 -1.3209  0.2654  0.6076
 6964SOL    HW233366   3.383   4.843   6.353 -0.4187  0.1197  0.4547
 6965SOL     OW33367   0.312   3.146   4.639 -0.2512  0.0780  0.1631
 6965SOL    HW133368   0.214   3.128   4.636  0.0317 -1.5877  0.1146
 6965SOL    HW233369   0.347   3.161   4.546 -0.3428 -0.0013  0.1167
 6966SOL     OW33370   6.330   5.612   2.731  0.4875 -0.5339  0.6025
 6966SOL    HW133371   6.237   5.624   2.698  0.8492 -0.0735 -0.2720
 6966SOL    HW233372   6.334   5.533   2.792 -0.7541  0.2962  1.7882
 6967SOL     OW33373   3.576   3.043   1.234  0.3451 -0.3543  0.0647
 6967SOL    HW133374   3.604   2.949   1.215 -1.2411 -0.9608  0.7348
 6967SOL    HW233375   3.516   3.045   1.313 -1.8993  0.8878 -1.6357
 6968SOL     OW33376   1.582   2.580   7.412 -0.2190 -0.3955  0.7684
 6968SOL    HW133377   1.588   2.506   7.346 -1.2591 -0.3664  0.6403
 6968SOL    HW233378   1.509   2.643   7.386  0.6850  0.7146  0.8437
 6969SOL     OW33379   0.900   8.385   8.412  0.6545  0.2411 -0.1154
 6969SOL    HW133380   0.870   8.291   8.429  0.0114  0.3106 -0.8560
 6969SOL    HW233381   0.991   8.385   8.372  0.8876 -0.0425  0.4122
 6970SOL     OW33382   0.579   0.688   8.539  0.3251  0.1567 -0.0583
 6970SOL    HW133383   0.649   0.759   8.534  1.7201 -1.2533 -1.3116
 6970SOL    HW233384   0.609   0.615   8.600 -0.5570  0.0600  0.2715
 6971SOL     OW33385   6.895   6.867   8.689 -0.7375 -0.1716 -0.2254
 6971SOL    HW133386   6.921   6.818   8.773 -1.9795  0.5835  0.6236
 6971SOL    HW233387   6.811   6.827   8.652 -1.3551  0.8426  0.0670
 6972SOL     OW33388   3.614   2.119   3.447  0.8809 -0.0098  0.0375
 6972SOL    HW133389   3.674   2.061   3.502 -0.5047 -0.8242  0.7282
 6972SOL    HW233390   3.621   2.213   3.479  2.0609 -0.0325 -0.1349
 6973SOL     OW33391   0.696   4.254   2.292  0.5258 -0.3348 -0.6794
 6973SOL    HW133392   0.604   4.216   2.301  0.7348 -0.7653 -0.2831
 6973SOL    HW233393   0.700   4.343   2.337  0.6091 -0.8505  0.3519
 6974SOL     OW33394   1.082   4.534   3.466  0.0527 -0.4189  0.3694
 6974SOL    HW133395   1.035   4.454   3.505 -0.7605 -0.0823  0.0918
 6974SOL    HW233396   1.033   4.565   3.385  0.7699 -0.0643  0.0705
 6975SOL     OW33397   1.011   7.041   7.275  0.0700  0.5387  0.1103
 6975SOL    HW133398   0.913   7.041   7.252  0.4437  2.0812 -1.6168
 6975SOL    HW233399   1.027   7.096   7.357 -0.1036  3.3815 -1.6960
 6976SOL     OW33400   6.666   7.054   5.794 -0.0594 -0.5806 -0.1647
 6976SOL    HW133401   6.639   7.040   5.698  1.6206  1.4377 -0.9860
 6976SOL    HW233402   6.765   7.063   5.799 -0.3643  3.1059  1.2090
 6977SOL     OW33403   2.197   3.384   4.043  0.2132  0.1480 -0.0754
 6977SOL    HW133404   2.146   3.357   4.125 -0.4780 -0.4144 -0.6919
 6977SOL    HW233405   2.138   3.378   3.963  1.5441 -1.6169 -0.9736
 6978SOL     OW33406   2.188   7.901   8.550 -0.4136  0.3156 -0.4548
 6978SOL    HW133407   2.250   7.892   8.627  1.8873 -0.3141 -2.3275
 6978SOL    HW233408   2.172   7.998   8.531 -2.2544  0.4867  1.7382
 6979SOL     OW33409   3.905   6.033   8.210  0.2173 -0.1461 -0.1798
 6979SOL    HW133410   3.861   6.049   8.298  1.3306  0.0182  0.3526
 6979SOL    HW233411   3.908   6.118   8.158  0.6591  0.0303  0.1331
 6980SOL     OW33412   6.502   2.706   6.773  0.3448  0.1827 -0.7846
 6980SOL    HW133413   6.521   2.608   6.768 -0.0518  0.1966 -3.1357
 6980SOL    HW233414   6.586   2.755   6.798  0.1482 -0.8581  2.1469
 6981SOL     OW33415   6.542   7.461   3.388 -0.5694 -0.0135  0.3386
 6981SOL    HW133416   6.546   7.501   3.480  0.2485 -1.3915  0.9198
 6981SOL    HW233417   6.556   7.532   3.320 -2.3063  1.2241  1.2311
 6982SOL     OW33418   6.556   5.968   2.134  0.1080  0.8982 -0.2688
 6982SOL    HW133419   6.648   5.952   2.098  0.2199  1.7950 -0.3952
 6982SOL    HW233420   6.544   6.065   2.152 -0.3013  0.6002  1.1600
 6983SOL     OW33421   0.894   8.508   7.078 -0.4640  0.0566 -0.7202
 6983SOL    HW133422   0.951   8.469   7.150 -1.0222 -0.2263 -0.4307
 6983SOL    HW233423   0.803   8.466   7.081 -0.2524 -0.5548 -2.0971
 6984SOL     OW33424   4.449   0.878   3.222  0.1726 -0.4624  0.0293
 6984SOL    HW133425   4.409   0.964   3.254 -0.4831 -0.7014 -0.1462
 6984SOL    HW233426   4.384   0.803   3.236  1.0019 -1.0506  0.8266
 6985SOL     OW33427   5.432   6.492   6.410 -0.1020 -0.3753 -0.1536
 6985SOL    HW133428   5.433   6.456   6.504 -1.6609  4.1101  1.7053
 6985SOL    HW233429   5.353   6.455   6.361 -1.2060 -0.1804  1.4384
 6986SOL     OW33430   2.322   4.413   7.573 -0.1887  0.5176  0.1240
 6986SOL    HW133431   2.316   4.419   7.672  0.1878  1.4880  0.0920
 6986SOL    HW233432   2.286   4.496   7.532 -2.1979 -0.6961 -0.6385
 6987SOL     OW33433   7.072   6.623   7.550 -0.4223  0.6420  0.2855
 6987SOL    HW133434   7.132   6.619   7.471  0.5541 -0.5492  1.0717
 6987SOL    HW233435   6.997   6.558   7.539 -1.2338  1.6850 -0.4150
 6988SOL     OW33436   8.141   8.431   8.015  0.4856  0.5727  0.5967
 6988SOL    HW133437   8.175   8.517   7.977  1.4028 -0.0677 -0.0574
 6988SOL    HW233438   8.041   8.432   8.015  0.4831  1.1826 -0.4474
 6989SOL     OW33439   0.739   5.873   1.436  0.2417  0.1237 -0.1583
 6989SOL    HW133440   0.822   5.929   1.434 -0.0148  0.5189  0.2937
 6989SOL    HW233441   0.662   5.929   1.466  0.3191 -0.9279  2.0440
 6990SOL     OW33442   8.249   6.639   0.884 -0.1849  0.4573  1.2071
 6990SOL    HW133443   8.254   6.581   0.803 -0.2578 -1.5442  2.5837
 6990SOL    HW233444   8.339   6.642   0.928 -0.0930  1.6971  0.9587
 6991SOL     OW33445   0.609   8.782   7.689 -0.0020 -0.7038 -0.1674
 6991SOL    HW133446   0.538   8.738   7.635 -0.4044 -0.7174  0.3636
 6991SOL    HW233447   0.686   8.806   7.631 -1.1838  0.9101 -1.0938
 6992SOL     OW33448   1.294   0.375   7.562  0.2027  0.3823  0.2711
 6992SOL    HW133449   1.357   0.311   7.608 -0.9003 -0.9314 -0.0155
 6992SOL    HW233450   1.309   0.371   7.463 -0.2885  0.1123  0.2073
 6993SOL     OW33451   2.738   6.749   8.278  0.2480 -0.1845  0.0350
 6993SOL    HW133452   2.667   6.816   8.256 -0.2339 -1.2734 -1.9031
 6993SOL    HW233453   2.696   6.668   8.320  0.4350 -0.4586 -0.2944
 6994SOL     OW33454   5.160   0.662   0.361 -0.6021 -0.3561 -0.2471
 6994SOL    HW133455   5.090   0.630   0.297 -0.9608  0.3427 -0.1957
 6994SOL    HW233456   5.163   0.601   0.440  1.1347 -2.3678 -1.7838
 6995SOL     OW33457   8.272   2.262   5.626  0.1476  0.4221  0.2023
 6995SOL    HW133458   8.348   2.327   5.635  1.4204 -1.0832  0.7723
 6995SOL    HW233459   8.278   2.216   5.537 -0.2286  0.4591  0.1574
 6996SOL     OW33460   4.647   0.336   4.855  0.4696  0.5886 -0.1484
 6996SOL    HW133461   4.659   0.429   4.820 -0.9816  0.3109 -1.4349
 6996SOL    HW233462   4.705   0.323   4.936  2.4495  1.8485 -1.3216
 6997SOL     OW33463   0.914   3.742   7.183  0.1732 -0.0301  0.8206
 6997SOL    HW133464   0.925   3.834   7.223  0.4614  0.6841 -0.8568
 6997SOL    HW233465   0.984   3.681   7.221 -0.1115  0.3917  2.0583
 6998SOL     OW33466   2.687   0.502   0.080 -0.4179  0.0488 -0.9532
 6998SOL    HW133467   2.690   0.475   0.176 -2.0358  2.4512 -0.1692
 6998SOL    HW233468   2.769   0.553   0.057 -1.3488  2.0689  0.0339
 6999SOL     OW33469   4.213   6.217   5.394 -0.3254  0.0936 -0.2813
 6999SOL    HW133470   4.231   6.119   5.391 -0.7026  0.0348 -0.8549
 6999SOL    HW233471   4.297   6.266   5.416 -0.5851 -0.4858  2.0729
 7000SOL     OW33472   4.805   1.898   3.187  0.3317 -0.9716  0.2705
 7000SOL    HW133473   4.756   1.889   3.274  0.3741  0.0292  0.4089
 7000SOL    HW233474   4.747   1.945   3.121  0.6947 -0.7665  0.0959
 7001SOL     OW33475   1.969   8.813   0.334  0.1565  0.0993 -0.2779
 7001SOL    HW133476   1.886   8.774   0.294 -0.1655 -0.0121  0.4982
 7001SOL    HW233477   1.982   8.906   0.298  0.5465 -0.4521 -1.5878
 7002SOL     OW33478   6.957   2.102   7.703 -0.2694 -0.1730  0.0455
 7002SOL    HW133479   6.940   2.170   7.774 -0.1966  0.4256 -0.5084
 7002SOL    HW233480   6.873   2.053   7.683 -0.5658  0.4752 -0.2988
 7003SOL     OW33481   4.343   2.069   7.788 -0.0753  0.0725 -0.2447
 7003SOL    HW133482   4.383   2.061   7.879  2.2631  0.5831 -1.1961
 7003SOL    HW233483   4.337   1.979   7.746  1.7939  0.1831 -0.7881
 7004SOL     OW33484   5.004   7.552   1.952 -0.1320  0.0693  0.5332
 7004SOL    HW133485   4.977   7.645   1.928 -0.8718  0.2538  2.0673
 7004SOL    HW233486   5.014   7.544   2.051 -1.7720 -1.9387  0.5603
 7005SOL     OW33487   2.443   0.778   5.716 -0.2845 -0.1993  0.4117
 7005SOL    HW133488   2.437   0.746   5.621 -1.0586  1.4976 -0.1219
 7005SOL    HW233489   2.373   0.732   5.771 -0.0127 -0.9820  0.1110
 7006SOL     OW33490   0.861   4.133   2.103  0.1369  0.4633  0.1040
 7006SOL    HW133491   0.824   4.118   2.012 -0.8085 -0.1687  0.5803
 7006SOL    HW233492   0.800   4.194   2.154  1.6256  2.3359 -0.2966
 7007SOL     OW33493   0.487   6.785   7.734 -0.2921  0.4366  0.3683
 7007SOL    HW133494   0.581   6.816   7.718  0.0892 -0.1076  1.4872
 7007SOL    HW233495   0.427   6.864   7.744  0.0584  0.7888 -0.2840
 7008SOL     OW33496   8.691   0.628   0.656 -0.7347  0.2791 -0.3475
 7008SOL    HW133497   8.736   0.660   0.739  0.4221  1.6868 -1.4902
 7008SOL    HW233498   8.685   0.703   0.590 -0.5023 -1.1348 -2.0235
 7009SOL     OW33499   3.780   2.501   8.805  0.6846  0.0954  0.1099
 7009SOL    HW133500   3.824   2.426   8.854  0.3261  0.8964  1.6726
 7009SOL    HW233501   3.781   2.584   8.861  0.5262  1.1145 -1.3447
 7010SOL     OW33502   3.395   6.427   2.448 -0.4332  0.3019  0.2018
 7010SOL    HW133503   3.376   6.367   2.526 -0.8656 -0.4888 -0.5068
 7010SOL    HW233504   3.489   6.411   2.416 -1.1971 -1.4513 -1.2399
 7011SOL     OW33505   3.644   3.102   6.723  0.2073 -0.2708 -0.1603
 7011SOL    HW133506   3.660   3.023   6.665 -1.2173 -0.9049  0.2956
 7011SOL    HW233507   3.726   3.119   6.779  0.5812 -1.3077 -0.3809
 7012SOL     OW33508   5.770   5.456   5.333 -0.3623  0.0795  0.3618
 7012SOL    HW133509   5.813   5.450   5.243  0.7578 -1.2466  0.9646
 7012SOL    HW233510   5.671   5.462   5.322 -0.2179  0.2770 -0.9634
 7013SOL     OW33511   0.453   4.187   2.628 -0.2726  0.0450  0.3036
 7013SOL    HW133512   0.366   4.138   2.627 -0.9073  1.1520 -0.2071
 7013SOL    HW233513   0.454   4.252   2.704 -0.5814  1.2068 -0.6602
 7014SOL     OW33514   4.998   0.882   8.805  0.2935 -0.1818 -0.3592
 7014SOL    HW133515   5.053   0.945   8.751  0.7175  1.1235  1.5491
 7014SOL    HW233516   5.041   0.868   8.894 -1.7594 -0.1729  0.6621
 7015SOL     OW33517   5.335   1.325   7.002  0.6383 -0.3450  0.1306
 7015SOL    HW133518   5.398   1.265   6.953 -0.9061  1.0783 -3.8968
 7015SOL    HW233519   5.245   1.281   7.007 -0.1374  0.9541 -1.6248
 7016SOL     OW33520   5.705   3.502   1.146 -0.3444  0.6192  0.0994
 7016SOL    HW133521   5.697   3.510   1.245  0.5011 -0.1439  0.2315
 7016SOL    HW233522   5.626   3.453   1.110  0.3032 -0.8638  0.6313
 7017SOL     OW33523   7.816   7.502   4.608 -0.4054  0.0876 -0.2606
 7017SOL    HW133524   7.752   7.514   4.532 -0.9832  0.4447  0.2778
 7017SOL    HW233525   7.771   7.527   4.693 -0.5684 -2.7257  0.5197
 7018SOL     OW33526   0.898   4.909   2.435 -0.7893 -0.5211 -0.4548
 7018SOL    HW133527   0.987   4.908   2.389 -0.7890  0.8693 -0.4994
 7018SOL    HW233528   0.912   4.906   2.534 -0.7844 -3.2951 -0.5057
 7019SOL     OW33529   1.130   6.641   5.659 -0.1504  0.3645 -0.4204
 7019SOL    HW133530   1.133   6.542   5.646  3.4288  0.3923 -0.1670
 7019SOL    HW233531   1.076   6.662   5.741  0.1456 -1.4590  0.2706
 7020SOL     OW33532   4.475   3.781   0.690  0.1869 -0.8251  0.0966
 7020SOL    HW133533   4.470   3.869   0.737  1.5270 -2.0180  2.5344
 7020SOL    HW233534   4.570   3.757   0.673 -0.2067 -1.3410 -1.5039
 7021SOL     OW33535   1.886   6.318   8.978 -0.1354 -0.0632 -0.4169
 7021SOL    HW133536   1.819   6.351   9.044  0.4879  0.4570 -0.0339
 7021SOL    HW233537   1.919   6.395   8.922  1.3751 -0.0052  0.5258
 7022SOL     OW33538   8.409   8.096   7.397 -1.0349  0.1164 -0.2294
 7022SOL    HW133539   8.501   8.121   7.367 -0.4071 -0.8750  0.8462
 7022SOL    HW233540   8.343   8.163   7.362  0.2010  1.3196 -0.2870
 7023SOL     OW33541   5.056   6.782   2.239 -0.2617  0.7876  0.2263
 7023SOL    HW133542   5.041   6.754   2.145 -1.9922 -0.1645  0.7680
 7023SOL    HW233543   5.124   6.856   2.241  1.0467 -0.3224 -1.5885
 7024SOL     OW33544   5.610   0.624   8.868  0.4605  0.2203  0.5858
 7024SOL    HW133545   5.613   0.524   8.870  2.1716  0.2155 -1.0902
 7024SOL    HW233546   5.517   0.653   8.846  0.0412 -0.9935  0.6714
 7025SOL     OW33547   6.603   2.881   2.454 -0.4149  0.4761  0.2666
 7025SOL    HW133548   6.652   2.903   2.538  1.1158  1.1215 -0.7706
 7025SOL    HW233549   6.506   2.902   2.465 -0.4828 -0.7128  2.3186
 7026SOL     OW33550   0.181   5.267   2.401  0.4518 -0.1847  0.4613
 7026SOL    HW133551   0.143   5.336   2.463  0.5659 -0.7610  1.1834
 7026SOL    HW233552   0.250   5.309   2.342 -2.0524  1.1414 -1.6374
 7027SOL     OW33553   7.606   0.802   2.866  0.1584 -0.0233  0.6676
 7027SOL    HW133554   7.601   0.877   2.800 -2.0421 -0.4516  0.3020
 7027SOL    HW233555   7.520   0.796   2.917  0.6034 -1.7927  1.2654
 7028SOL     OW33556   0.277   6.651   0.928 -0.1992  0.2241  0.4782
 7028SOL    HW133557   0.302   6.743   0.898  2.2155 -0.2693  0.8832
 7028SOL    HW233558   0.259   6.652   1.026  1.5875 -0.0468  0.8311
 7029SOL     OW33559   5.300   3.585   6.018  0.0287 -0.2162  0.3531
 7029SOL    HW133560   5.343   3.496   6.005 -1.2967 -0.6862 -1.0373
 7029SOL    HW233561   5.237   3.582   6.095 -0.5369 -0.7079 -0.1180
 7030SOL     OW33562   6.999   1.813   6.885  0.1173 -0.0678  0.0676
 7030SOL    HW133563   6.924   1.774   6.831 -0.5537 -0.9443  1.5647
 7030SOL    HW233564   6.960   1.873   6.955  0.7348 -1.0711  1.3017
 7031SOL     OW33565   5.791   4.223   0.805  0.2677  0.2854  0.7568
 7031SOL    HW133566   5.694   4.223   0.779  0.5650 -1.2166 -0.4371
 7031SOL    HW233567   5.837   4.298   0.758 -0.4193  1.4219  1.8421
 7032SOL     OW33568   6.981   3.888   1.552 -0.3969 -0.5665  0.3694
 7032SOL    HW133569   7.064   3.852   1.509 -0.5817 -2.0778  1.2145
 7032SOL    HW233570   6.906   3.887   1.487  0.1633  0.5107 -0.3061
 7033SOL     OW33571   5.584   6.527   5.583  0.1869 -0.6044  0.2175
 7033SOL    HW133572   5.590   6.482   5.494 -2.8140  1.7472 -1.2786
 7033SOL    HW233573   5.644   6.608   5.583  1.0877 -1.2682  0.7726
 7034SOL     OW33574   5.975   4.278   3.770 -0.3281  0.5505  0.5962
 7034SOL    HW133575   6.033   4.241   3.697 -2.0870 -2.9055  0.8590
 7034SOL    HW233576   6.032   4.329   3.834  2.0826 -0.8172 -0.3574
 7035SOL     OW33577   7.437   6.933   6.481 -0.1620 -0.1788  0.1495
 7035SOL    HW133578   7.463   6.851   6.532  2.1591  0.0115 -0.6758
 7035SOL    HW233579   7.449   6.916   6.383 -0.3083  0.9336 -0.0625
 7036SOL     OW33580   8.635   3.284   1.248  0.7377 -0.4403 -0.9480
 7036SOL    HW133581   8.607   3.333   1.330  1.5991 -1.0135 -0.3032
 7036SOL    HW233582   8.675   3.348   1.182 -0.5655  0.1216 -1.1975
 7037SOL     OW33583   1.272   8.739   4.760 -0.0893  0.3749 -0.6229
 7037SOL    HW133584   1.304   8.742   4.665  0.6129  0.3298 -0.3904
 7037SOL    HW233585   1.311   8.659   4.806  1.8371  1.9209  0.4971
 7038SOL     OW33586   4.873   1.339   2.007 -0.0840 -0.0534  0.2868
 7038SOL    HW133587   4.905   1.431   2.027  0.8690  0.0526 -1.5914
 7038SOL    HW233588   4.777   1.342   1.978 -0.0520  0.3438  0.2272
 7039SOL     OW33589   1.279   5.343   6.198 -0.6189 -0.5001  0.0078
 7039SOL    HW133590   1.192   5.322   6.154  0.4607 -1.0591 -1.9142
 7039SOL    HW233591   1.354   5.317   6.138  0.8828  0.7498  1.2933
 7040SOL     OW33592   4.760   6.741   7.175 -0.0219 -0.1917  0.5387
 7040SOL    HW133593   4.762   6.669   7.244 -0.9259  0.5138  1.3148
 7040SOL    HW233594   4.837   6.729   7.112  1.0371 -0.6032  1.8996
 7041SOL     OW33595   1.776   6.091   8.045 -0.0402  0.1321  0.3765
 7041SOL    HW133596   1.741   5.997   8.043 -0.4672  0.2754  0.9557
 7041SOL    HW233597   1.810   6.116   7.955  1.2260 -1.0187  0.5298
 7042SOL     OW33598   4.428   1.441   1.218 -0.3643  0.1511 -0.0467
 7042SOL    HW133599   4.347   1.384   1.202 -0.2964 -0.2342  0.9821
 7042SOL    HW233600   4.506   1.402   1.169 -0.7915  0.5198 -1.0382
 7043SOL     OW33601   8.782   1.198   8.886 -0.9917 -0.3626  0.7596
 7043SOL    HW133602   8.684   1.214   8.901 -0.9349  0.7808 -0.0330
 7043SOL    HW233603   8.796   1.103   8.862 -2.2062 -0.0126 -1.4610
 7044SOL     OW33604   4.684   4.143   0.111 -0.4072 -0.2234  0.4824
 7044SOL    HW133605   4.740   4.149   0.028 -0.3338 -3.8269  0.1749
 7044SOL    HW233606   4.726   4.197   0.184  1.3779  0.2298 -0.8436
 7045SOL     OW33607   5.746   2.169   0.146 -0.1255 -0.2073  0.4794
 7045SOL    HW133608   5.677   2.130   0.085  1.2747 -2.1290  0.0837
 7045SOL    HW233609   5.821   2.206   0.092  1.2892 -2.2300  1.0181
 7046SOL     OW33610   5.467   2.358   0.916  0.2239  0.3994 -0.3628
 7046SOL    HW133611   5.448   2.350   0.818  0.6223  0.6445 -0.4609
 7046SOL    HW233612   5.383   2.380   0.964  0.5157  3.0288 -0.9803
 7047SOL     OW33613   3.269   4.551   6.938  0.1447 -0.1011  0.0879
 7047SOL    HW133614   3.354   4.558   6.989 -0.0570  0.5520  0.3350
 7047SOL    HW233615   3.284   4.494   6.857  1.1763  1.1491 -0.6254
 7048SOL     OW33616   4.202   4.483   1.638 -0.7688 -0.1478 -0.5164
 7048SOL    HW133617   4.230   4.396   1.678 -0.7072 -0.1744 -0.6172
 7048SOL    HW233618   4.283   4.539   1.618 -0.8600  0.3725  0.5389
 7049SOL     OW33619   5.271   7.647   2.370  0.0261 -0.0025  0.2082
 7049SOL    HW133620   5.336   7.655   2.294 -0.1478  0.7320  0.1379
 7049SOL    HW233621   5.308   7.585   2.439 -0.3629 -1.6980 -1.0566
 7050SOL     OW33622   7.131   1.260   1.944 -0.2992  0.4004  0.1919
 7050SOL    HW133623   7.222   1.300   1.958  0.1118 -0.4823  0.0566
 7050SOL    HW233624   7.077   1.321   1.887 -0.0653  1.3115  0.9272
 7051SOL     OW33625   5.993   1.647   1.005 -0.5972 -0.3803 -0.2541
 7051SOL    HW133626   5.982   1.731   0.951  1.5310 -0.6901 -1.2497
 7051SOL    HW233627   6.043   1.580   0.951  0.9794 -0.9567  1.8492
 7052SOL     OW33628   6.611   0.897   3.726  0.1621  0.6618 -0.3603
 7052SOL    HW133629   6.679   0.941   3.785 -0.8590  2.1389 -0.2445
 7052SOL    HW233630   6.653   0.875   3.638  1.1676  0.2540  0.2114
 7053SOL     OW33631   7.681   5.710   2.534 -0.2586  0.9702 -0.6307
 7053SOL    HW133632   7.713   5.728   2.441  2.3014 -2.2805 -0.4688
 7053SOL    HW233633   7.593   5.664   2.530  0.5207 -0.4659 -1.5083
 7054SOL     OW33634   8.272   1.523   8.027  0.3671  0.2367  0.0906
 7054SOL    HW133635   8.212   1.499   7.950 -0.6491  1.0340  0.6276
 7054SOL    HW233636   8.264   1.620   8.047  3.2625  0.7575 -1.0252
 7055SOL     OW33637   1.608   7.187   8.238 -0.1857 -0.0621  0.0721
 7055SOL    HW133638   1.637   7.117   8.303  1.8837  0.7494  0.0806
 7055SOL    HW233639   1.564   7.262   8.287  1.3463  0.5344  0.5526
 7056SOL     OW33640   7.272   3.262   4.179 -0.4091 -0.1760 -0.0978
 7056SOL    HW133641   7.332   3.288   4.254 -0.1032  2.3860 -1.1870
 7056SOL    HW233642   7.229   3.343   4.140 -0.6530 -1.4366 -2.6041
 7057SOL     OW33643   7.540   3.027   8.389  0.1762 -0.0091 -0.4255
 7057SOL    HW133644   7.458   3.055   8.440  0.3339 -1.7341  0.8540
 7057SOL    HW233645   7.581   3.106   8.345  0.0774  1.6050  2.2572
 7058SOL     OW33646   5.711   6.329   0.387 -0.2567 -0.5883  0.0373
 7058SOL    HW133647   5.642   6.276   0.437  1.0705 -1.9312  0.4876
 7058SOL    HW233648   5.780   6.267   0.351  1.7459  0.9132  1.2124
 7059SOL     OW33649   2.435   6.756   0.895 -0.2791 -0.0680  0.6726
 7059SOL    HW133650   2.407   6.823   0.826  0.1803 -1.5205 -0.9415
 7059SOL    HW233651   2.526   6.779   0.928 -0.0618  0.0313  0.0164
 7060SOL     OW33652   3.793   2.239   0.303 -0.2264 -0.5059  0.7276
 7060SOL    HW133653   3.882   2.204   0.332 -0.3230 -2.3079 -1.0409
 7060SOL    HW233654   3.721   2.194   0.356 -0.1849 -0.7530  0.5787
 7061SOL     OW33655   1.739   3.917   2.031  0.0952 -0.5382 -0.0244
 7061SOL    HW133656   1.658   3.860   2.048 -1.5915  1.5277 -0.8648
 7061SOL    HW233657   1.717   4.012   2.050  2.6711 -0.0491  0.6874
 7062SOL     OW33658   7.141   5.677   7.462  0.1506  0.2486  0.5827
 7062SOL    HW133659   7.208   5.703   7.392 -0.6146  1.1626  0.1749
 7062SOL    HW233660   7.156   5.733   7.544 -0.1539  0.4976  0.4687
 7063SOL     OW33661   4.174   4.536   5.503 -0.4935  0.2551 -0.0789
 7063SOL    HW133662   4.119   4.453   5.510 -1.1830  0.7751  0.8963
 7063SOL    HW233663   4.207   4.547   5.409  1.2380 -2.1295  0.2327
 7064SOL     OW33664   4.452   4.161   3.862  0.0166 -0.9139 -0.2739
 7064SOL    HW133665   4.438   4.144   3.765  0.4510 -0.6227 -0.3886
 7064SOL    HW233666   4.491   4.252   3.875 -1.5251 -0.3159  0.2848
 7065SOL     OW33667   8.333   7.913   1.482  0.0581  0.2801  0.0086
 7065SOL    HW133668   8.249   7.939   1.433 -0.6484 -2.2954 -0.2105
 7065SOL    HW233669   8.387   7.995   1.501 -1.9087  1.8434 -0.9511
 7066SOL     OW33670   3.048   7.693   4.218 -0.0963 -0.0840 -0.2904
 7066SOL    HW133671   2.968   7.664   4.270  0.1527 -0.2371  0.0031
 7066SOL    HW233672   3.054   7.640   4.133 -0.2404 -0.1530 -0.2569
 7067SOL     OW33673   8.691   4.235   5.916 -0.2922 -0.3155  0.3243
 7067SOL    HW133674   8.762   4.165   5.926 -0.6513 -0.6225  0.7501
 7067SOL    HW233675   8.601   4.192   5.912 -0.4382  0.0542 -0.5252
 7068SOL     OW33676   2.891   7.819   6.631  0.0418 -0.5704 -0.3006
 7068SOL    HW133677   2.938   7.731   6.623  0.7057 -0.4570  2.0479
 7068SOL    HW233678   2.816   7.811   6.697 -1.3870  0.0293 -1.8205
 7069SOL     OW33679   4.041   8.877   3.515 -0.3022  0.0844  0.0365
 7069SOL    HW133680   3.999   8.820   3.586  0.8568 -0.0251  0.6526
 7069SOL    HW233681   4.130   8.838   3.490 -0.0787  0.9166 -0.4729
 7070SOL     OW33682   3.027   5.026   5.217 -0.1274  0.1136  0.7280
 7070SOL    HW133683   3.106   4.979   5.179  0.3112  0.1141  1.6281
 7070SOL    HW233684   2.958   4.958   5.243 -0.4040  0.1106 -0.0006
 7071SOL     OW33685   2.957   7.623   3.330  0.7515 -0.3914  0.2040
 7071SOL    HW133686   2.931   7.619   3.426  2.1330  0.3190  0.6140
 7071SOL    HW233687   3.048   7.583   3.318  0.0031 -1.7519 -1.0255
 7072SOL     OW33688   6.531   0.340   8.220  0.1364  0.6110  0.0803
 7072SOL    HW133689   6.597   0.265   8.221 -0.2770  0.2010 -1.6020
 7072SOL    HW233690   6.578   0.425   8.198  0.8135  1.0955  3.1690
 7073SOL     OW33691   5.587   2.624   6.605  0.4283 -0.1646 -0.6638
 7073SOL    HW133692   5.566   2.612   6.702 -0.1197  1.9393 -0.5089
 7073SOL    HW233693   5.508   2.664   6.559  1.7455  1.6215 -1.3981
 7074SOL     OW33694   8.936   4.948   4.137 -0.3500  0.3992 -0.1954
 7074SOL    HW133695   8.903   4.868   4.187 -0.2628  0.5680  0.1345
 7074SOL    HW233696   8.993   5.004   4.198 -0.4160  0.7138 -0.4228
 7075SOL     OW33697   4.582   7.211   3.998 -0.2167  0.2922 -0.1104
 7075SOL    HW133698   4.493   7.241   4.031 -1.1710 -1.1901 -1.2746
 7075SOL    HW233699   4.577   7.115   3.972  1.0776  0.8318 -2.5086
 7076SOL     OW33700   0.115   1.345   5.564  0.4591  0.0604  0.2925
 7076SOL    HW133701   0.021   1.322   5.590  0.2288  0.4724 -0.1449
 7076SOL    HW233702   0.135   1.306   5.474  0.4509  0.5888  0.0560
 7077SOL     OW33703   4.025   0.228   0.774  0.1126 -0.4425 -0.0420
 7077SOL    HW133704   4.029   0.323   0.743 -1.3223 -0.7665 -1.2886
 7077SOL    HW233705   4.118   0.193   0.786  0.6950  0.3918 -1.8806
 7078SOL     OW33706   5.759   0.492   8.206 -0.3912 -0.1123  0.0019
 7078SOL    HW133707   5.717   0.582   8.205 -0.3437 -0.0878  0.3000
 7078SOL    HW233708   5.714   0.434   8.274 -0.4817 -0.3413 -0.2538
 7079SOL     OW33709   3.035   4.482   6.477 -0.2016  0.1133 -0.2232
 7079SOL    HW133710   2.941   4.505   6.450 -0.9538 -0.5995  1.6423
 7079SOL    HW233711   3.047   4.382   6.476  0.3254  0.1677  0.1479
 7080SOL     OW33712   4.499   5.189   2.841  0.4414 -0.2989 -0.4080
 7080SOL    HW133713   4.470   5.259   2.776  1.7281  0.7925  0.1692
 7080SOL    HW233714   4.534   5.109   2.791 -0.2493 -0.1961 -1.0639
 7081SOL     OW33715   2.071   4.274   5.790  0.5063 -0.1085 -0.2323
 7081SOL    HW133716   2.022   4.338   5.849  0.2671 -0.2092 -0.3240
 7081SOL    HW233717   2.007   4.210   5.749  0.5119  0.6366 -1.4556
 7082SOL     OW33718   2.072   8.803   1.404 -0.5443  0.0629 -0.4950
 7082SOL    HW133719   2.121   8.755   1.477  0.8851 -0.0950 -1.5451
 7082SOL    HW233720   2.132   8.872   1.363 -1.4836  0.4594 -1.2218
 7083SOL     OW33721   0.909   2.485   7.104 -0.2420 -0.4435 -0.3828
 7083SOL    HW133722   0.856   2.567   7.124  0.6383  0.5354 -2.0195
 7083SOL    HW233723   0.963   2.499   7.021  0.9563 -2.1826  0.0755
 7084SOL     OW33724   5.966   6.085   7.154  0.1336  0.1387 -0.7086
 7084SOL    HW133725   5.949   6.183   7.147 -0.5725  0.4207  3.4440
 7084SOL    HW233726   6.064   6.069   7.165  0.1527  0.4457 -0.4180
 7085SOL     OW33727   3.177   7.332   4.014  0.2737  0.0297 -0.7872
 7085SOL    HW133728   3.223   7.244   4.021  0.0143 -0.2002 -1.9577
 7085SOL    HW233729   3.094   7.331   4.070  1.8009  0.5357  1.5499
 7086SOL     OW33730   3.337   7.864   7.418  0.3451 -0.3077  0.9020
 7086SOL    HW133731   3.382   7.938   7.368  0.9298 -1.2066  0.0768
 7086SOL    HW233732   3.300   7.900   7.504 -2.8661  1.8619 -1.2454
 7087SOL     OW33733   2.203   6.944   8.550 -0.2221  0.0159  0.0791
 7087SOL    HW133734   2.109   6.963   8.579 -1.3064 -0.8193 -2.7403
 7087SOL    HW233735   2.228   7.007   8.475  1.5126  0.2921  0.8600
 7088SOL     OW33736   0.131   7.007   7.760 -0.0764 -0.3919 -0.5110
 7088SOL    HW133737   0.211   7.041   7.810 -1.6858  0.0653  1.8495
 7088SOL    HW233738   0.146   7.018   7.662  2.4200  0.4386 -0.0730
 7089SOL     OW33739   7.861   5.218   4.197  0.4737  0.6394  0.2702
 7089SOL    HW133740   7.790   5.245   4.131 -0.5137 -0.2523  0.9427
 7089SOL    HW233741   7.903   5.132   4.166  0.2451  0.3995  0.6272
 7090SOL     OW33742   3.884   5.968   6.350 -0.5109  0.1685 -0.6017
 7090SOL    HW133743   3.875   5.970   6.250 -1.4987  2.7197 -0.4849
 7090SOL    HW233744   3.815   6.028   6.391  1.3568  0.9147  1.5189
 7091SOL     OW33745   3.793   3.516   5.991 -0.3875 -0.6353  0.3671
 7091SOL    HW133746   3.851   3.453   6.042 -2.2160 -1.8221  1.0267
 7091SOL    HW233747   3.703   3.523   6.035 -0.3531  2.1463  0.0840
 7092SOL     OW33748   2.398   5.483   2.708  0.2470 -0.4706  0.5777
 7092SOL    HW133749   2.405   5.581   2.694 -1.9479 -0.3995 -0.2508
 7092SOL    HW233750   2.454   5.456   2.787  2.8012  1.0343 -0.6705
 7093SOL     OW33751   5.047   4.156   0.532 -0.1172  0.4893 -0.3141
 7093SOL    HW133752   5.032   4.173   0.434 -2.7696  0.9456  0.1322
 7093SOL    HW233753   5.059   4.057   0.547  1.9103  0.5679 -1.2697
 7094SOL     OW33754   8.679   7.444   2.826 -0.4075  0.8003 -0.0040
 7094SOL    HW133755   8.670   7.525   2.885 -3.9592  1.7703 -1.7132
 7094SOL    HW233756   8.635   7.462   2.738  1.0201 -2.1239 -1.3924
 7095SOL     OW33757   5.425   5.867   5.276 -0.4187  0.3660  0.3780
 7095SOL    HW133758   5.519   5.852   5.306  0.1537 -0.1806 -1.6869
 7095SOL    HW233759   5.412   5.964   5.255 -0.8591  0.7858  2.3861
 7096SOL     OW33760   6.494   0.936   1.544  0.4174  0.1420  0.0794
 7096SOL    HW133761   6.456   1.019   1.584 -1.1396  0.4921 -2.0449
 7096SOL    HW233762   6.429   0.897   1.479  1.7124 -1.9548 -0.0144
 7097SOL     OW33763   6.763   0.253   0.307  0.3007  0.0776  0.1724
 7097SOL    HW133764   6.743   0.332   0.248  2.7606 -1.3174 -2.6445
 7097SOL    HW233765   6.683   0.193   0.310 -0.7226  1.4203  0.3085
 7098SOL     OW33766   0.289   8.138   4.636 -0.5171  0.2344  0.6320
 7098SOL    HW133767   0.329   8.205   4.575  2.0666 -2.0490 -0.2711
 7098SOL    HW233768   0.189   8.150   4.638 -0.3697  2.1850 -1.7430
 7099SOL     OW33769   2.017   2.257   7.371 -0.4143 -0.0817 -0.0064
 7099SOL    HW133770   2.015   2.224   7.465  0.5794  0.6492  0.2708
 7099SOL    HW233771   1.963   2.341   7.364 -0.7073 -0.2812 -0.1456
 7100SOL     OW33772   4.731   2.023   7.847  0.0411 -0.2721 -0.8496
 7100SOL    HW133773   4.823   1.986   7.863  0.4952  1.5154  0.8817
 7100SOL    HW233774   4.685   2.035   7.935 -0.9973  0.9440 -1.5484
 7101SOL     OW33775   8.455   8.041   3.988  0.2518 -0.0899  0.1852
 7101SOL    HW133776   8.525   8.106   4.018 -0.0157 -0.3802  1.4726
 7101SOL    HW233777   8.434   7.978   4.063 -1.1720 -0.1936 -0.2938
 7102SOL     OW33778   4.869   1.249   7.142  0.0996  0.3127 -0.1001
 7102SOL    HW133779   4.779   1.275   7.178 -0.4480  0.2166 -1.3515
 7102SOL    HW233780   4.904   1.170   7.193 -2.5725 -2.5340 -2.3977
 7103SOL     OW33781   5.736   2.764   8.947  0.6227 -0.6506  0.6138
 7103SOL    HW133782   5.710   2.836   8.883 -1.3842 -0.8110  1.2167
 7103SOL    HW233783   5.766   2.805   9.033  1.8539 -0.4876  0.1264
 7104SOL     OW33784   1.446   3.638   1.863 -0.2032  0.2072  0.5946
 7104SOL    HW133785   1.384   3.575   1.817  0.7784  0.8294 -1.6948
 7104SOL    HW233786   1.451   3.724   1.811  1.3069  0.7768  1.6256
 7105SOL     OW33787   6.054   6.404   6.896 -0.3428 -0.0271  0.4327
 7105SOL    HW133788   6.100   6.477   6.847  0.3782 -1.0487 -0.4541
 7105SOL    HW233789   6.067   6.318   6.846 -2.3796 -0.5056  0.7005
 7106SOL     OW33790   5.955   8.395   7.748  0.2174 -0.9737 -0.4191
 7106SOL    HW133791   6.015   8.448   7.809 -0.9220  0.6134 -0.6344
 7106SOL    HW233792   5.976   8.417   7.653  0.2439 -1.4911 -0.5347
 7107SOL     OW33793   0.263   4.489   3.727  0.5405  1.0087 -0.0031
 7107SOL    HW133794   0.332   4.417   3.733 -0.8650 -0.3138  0.7974
 7107SOL    HW233795   0.307   4.577   3.709  2.1740 -0.2631 -2.4634
 7108SOL     OW33796   4.077   0.984   2.500  0.6178  0.1792  0.2057
 7108SOL    HW133797   4.148   0.915   2.515  0.3642 -0.3987 -1.2239
 7108SOL    HW233798   4.119   1.072   2.477  0.8901  0.0907  0.3663
 7109SOL     OW33799   8.108   6.073   1.885 -0.1584  0.1863  0.2881
 7109SOL    HW133800   8.150   6.152   1.842 -0.9838  0.5521  0.1369
 7109SOL    HW233801   8.161   5.991   1.865  0.4146  0.6218  0.0180
 7110SOL     OW33802   2.567   6.547   4.363 -0.2415 -0.1120  0.2529
 7110SOL    HW133803   2.554   6.645   4.376  2.4165  0.3386 -0.0996
 7110SOL    HW233804   2.547   6.499   4.448  1.1988  1.0561  1.2686
 7111SOL     OW33805   3.290   7.397   8.957 -0.2214 -0.4231 -0.1251
 7111SOL    HW133806   3.286   7.495   8.977 -3.0338 -1.0335  2.7518
 7111SOL    HW233807   3.386   7.368   8.950  0.7222  1.9847  2.0352
 7112SOL     OW33808   0.619   7.514   0.036 -0.1459 -0.1108  0.3818
 7112SOL    HW133809   0.536   7.490  -0.014 -0.5754  2.5301 -0.2012
 7112SOL    HW233810   0.595   7.541   0.129 -0.0412  1.4491 -0.0356
 7113SOL     OW33811   3.812   7.972   3.377  0.2966  0.2302  0.3100
 7113SOL    HW133812   3.865   7.992   3.295  2.1917 -0.1561  1.3997
 7113SOL    HW233813   3.824   7.875   3.401  0.2656  0.4849  1.3849
 7114SOL     OW33814   2.431   3.485   3.654 -0.1776  0.2946  0.0529
 7114SOL    HW133815   2.447   3.399   3.607 -0.6817  0.0333  0.3616
 7114SOL    HW233816   2.434   3.560   3.588 -1.0515 -0.0881 -0.4264
 7115SOL     OW33817   8.348   3.881   0.122 -0.4286 -0.0748 -0.0165
 7115SOL    HW133818   8.253   3.880   0.153 -0.9181 -1.9106 -1.4272
 7115SOL    HW233819   8.351   3.902   0.024  1.0286  4.8594  0.9580
 7116SOL     OW33820   3.718   4.070   5.746  0.2689  0.5035  0.1448
 7116SOL    HW133821   3.710   4.051   5.843  1.4905  2.7980  0.7371
 7116SOL    HW233822   3.813   4.060   5.718 -0.0576 -0.0273 -0.7990
 7117SOL     OW33823   5.219   0.932   4.813 -0.5801 -0.0659 -0.0446
 7117SOL    HW133824   5.223   0.832   4.810  0.9817  0.0386 -1.9092
 7117SOL    HW233825   5.243   0.964   4.905 -2.2075 -1.4282  0.8826
 7118SOL     OW33826   8.237   2.397   8.579 -0.0778 -0.5097  0.4016
 7118SOL    HW133827   8.257   2.494   8.566 -0.5157 -0.4767 -0.0830
 7118SOL    HW233828   8.142   2.386   8.607 -0.3696 -0.8601 -0.6724
 7119SOL     OW33829   4.338   8.044   0.834 -0.6059 -0.2753 -0.2180
 7119SOL    HW133830   4.280   7.962   0.837 -3.2415  1.5907  2.3627
 7119SOL    HW233831   4.392   8.050   0.918  0.5124  0.0055 -0.9452
 7120SOL     OW33832   2.649   7.212   8.449  0.8321 -0.0169  0.5252
 7120SOL    HW133833   2.662   7.114   8.459  1.4576  0.1186  1.1158
 7120SOL    HW233834   2.587   7.245   8.520 -0.3185 -0.1690 -0.4013
 7121SOL     OW33835   6.237   1.165   2.049  0.1697  0.7361  0.3586
 7121SOL    HW133836   6.267   1.225   1.975 -0.7459 -1.1914 -1.6292
 7121SOL    HW233837   6.255   1.070   2.024 -1.7011 -0.0480  1.8770
 7122SOL     OW33838   5.396   8.484   3.804 -0.4427 -0.2590 -0.3577
 7122SOL    HW133839   5.451   8.543   3.863  0.0343  1.2865 -2.2928
 7122SOL    HW233840   5.365   8.404   3.856  0.6824  0.6207  1.7178
 7123SOL     OW33841   2.473   3.672   3.471 -0.1826 -0.0383  0.3643
 7123SOL    HW133842   2.530   3.717   3.402 -1.1632 -2.0454 -1.8268
 7123SOL    HW233843   2.391   3.727   3.488 -1.0578 -0.5953 -1.8135
 7124SOL     OW33844   6.160   8.106   8.766 -0.7722  0.4955 -0.2175
 7124SOL    HW133845   6.156   8.008   8.785 -2.4855  0.7536  0.8559
 7124SOL    HW233846   6.122   8.124   8.675  1.1110  0.0071 -1.1381
 7125SOL     OW33847   4.173   6.588   3.147  0.2920  0.2898  0.0648
 7125SOL    HW133848   4.077   6.563   3.133  0.4546 -1.3933  1.7143
 7125SOL    HW233849   4.195   6.670   3.093 -2.1366  0.8665 -0.1018
 7126SOL     OW33850   2.828   3.494   6.420 -0.0812 -0.0063 -0.3461
 7126SOL    HW133851   2.890   3.568   6.446 -0.0519 -0.2520  0.3012
 7126SOL    HW233852   2.737   3.532   6.401 -0.6243 -0.0358  2.0433
 7127SOL     OW33853   2.461   0.941   2.690  0.4233 -0.0324  0.1259
 7127SOL    HW133854   2.528   0.980   2.752  1.6120  0.2619 -1.3130
 7127SOL    HW233855   2.485   0.964   2.596 -1.1536 -0.7586 -0.4787
 7128SOL     OW33856   6.505   3.704   7.834  0.3737  0.0084 -0.0390
 7128SOL    HW133857   6.536   3.664   7.920 -1.3890 -0.4675  0.3837
 7128SOL    HW233858   6.580   3.756   7.793  2.2727 -2.4801  0.1309
 7129SOL     OW33859   2.366   6.218   7.952 -0.0998 -0.1088 -0.4350
 7129SOL    HW133860   2.427   6.281   8.002 -2.5120 -0.0425  2.5323
 7129SOL    HW233861   2.287   6.269   7.919 -1.7840 -1.4322  1.4794
 7130SOL     OW33862   1.288   0.300   8.432 -0.5996 -0.2331  0.2792
 7130SOL    HW133863   1.223   0.336   8.365 -1.2634 -0.4054  0.8261
 7130SOL    HW233864   1.267   0.203   8.450  0.9878 -0.8264 -0.9638
 7131SOL     OW33865   3.990   2.895   3.404  0.0950 -0.2167  0.5299
 7131SOL    HW133866   3.946   2.851   3.483  2.4729 -1.9509  0.9168
 7131SOL    HW233867   3.928   2.890   3.326 -0.7283 -1.9382  1.2560
 7132SOL     OW33868   6.153   5.479   3.119  0.3085  0.6172  0.7951
 7132SOL    HW133869   6.198   5.554   3.166 -2.4560  3.2513 -0.5517
 7132SOL    HW233870   6.074   5.448   3.172 -1.2317  1.7865 -0.7499
 7133SOL     OW33871   1.152   3.844   4.320 -0.1874 -0.1282 -0.3236
 7133SOL    HW133872   1.189   3.781   4.252 -0.2701 -1.0308  0.4585
 7133SOL    HW233873   1.102   3.792   4.389 -2.1133  0.9906 -0.8568
 7134SOL     OW33874   1.714   6.772   0.341  0.1611 -0.0299  0.3255
 7134SOL    HW133875   1.744   6.695   0.398 -0.1453  0.6851  1.4771
 7134SOL    HW233876   1.683   6.846   0.400 -1.5297  0.1874 -0.8254
 7135SOL     OW33877   7.115   1.549   2.532  0.4583  0.5158 -0.1922
 7135SOL    HW133878   7.066   1.635   2.547  0.5588  0.6716 -0.7841
 7135SOL    HW233879   7.114   1.496   2.617 -1.8513 -0.0515 -0.5365
 7136SOL     OW33880   2.114   4.791   6.410 -0.2393 -0.1601 -0.1992
 7136SOL    HW133881   2.096   4.717   6.345 -0.0464 -0.9799  0.6912
 7136SOL    HW233882   2.200   4.836   6.386  0.0792 -0.7787 -0.2253
 7137SOL     OW33883   1.162   2.191   3.203 -0.0353 -0.7338 -0.5965
 7137SOL    HW133884   1.144   2.288   3.185 -0.9672 -0.7248  0.3492
 7137SOL    HW233885   1.082   2.137   3.176  0.6415 -1.2937 -1.5126
 7138SOL     OW33886   8.455   6.917   7.555 -0.6574 -0.1079 -0.0674
 7138SOL    HW133887   8.526   6.959   7.612 -0.9973 -0.9677  1.0279
 7138SOL    HW233888   8.483   6.825   7.530 -2.2991 -1.2779  2.2075
 7139SOL     OW33889   2.273   4.080   0.537  0.2495  0.4939 -0.4362
 7139SOL    HW133890   2.369   4.091   0.566  0.8140  1.8676 -2.6788
 7139SOL    HW233891   2.256   3.984   0.515  1.6095  0.5095 -1.6406
 7140SOL     OW33892   4.260   7.914   4.501  0.1936  0.5341  0.0497
 7140SOL    HW133893   4.346   7.959   4.526 -0.0100  1.4457 -0.8784
 7140SOL    HW233894   4.188   7.983   4.491  0.6029  0.4559 -4.5880
 7141SOL     OW33895   7.276   0.320   7.621  0.6383 -0.3584 -0.3660
 7141SOL    HW133896   7.319   0.327   7.531  0.0044  2.9553 -0.4759
 7141SOL    HW233897   7.182   0.352   7.617  0.5049 -0.4308  1.4106
 7142SOL     OW33898   0.153   5.102   1.526 -0.3993 -0.1171 -0.1104
 7142SOL    HW133899   0.182   5.150   1.609  1.5955 -1.5496  0.0491
 7142SOL    HW233900   0.221   5.114   1.455 -0.3517 -1.8964 -0.3825
 7143SOL     OW33901   0.901   1.077   1.072 -0.0524  0.2219 -0.6146
 7143SOL    HW133902   0.966   1.046   1.002  0.9624 -0.9293  0.8143
 7143SOL    HW233903   0.951   1.100   1.156 -1.2308  1.8683 -0.3490
 7144SOL     OW33904   5.163   6.410   4.136 -0.2612  0.4532 -0.3978
 7144SOL    HW133905   5.156   6.510   4.135  1.0272  0.5521 -0.1584
 7144SOL    HW233906   5.104   6.373   4.064 -0.7794  1.3821 -0.4698
 7145SOL     OW33907   3.670   3.642   7.246  0.7714  0.2520  0.0752
 7145SOL    HW133908   3.724   3.590   7.313  2.4333  0.3432 -1.1631
 7145SOL    HW233909   3.712   3.732   7.233 -0.2667  0.7039 -0.1674
 7146SOL     OW33910   1.123   1.911   3.527 -0.2838  0.6733 -0.3352
 7146SOL    HW133911   1.104   1.852   3.605  0.6957  1.2957  0.3820
 7146SOL    HW233912   1.100   2.006   3.550 -2.4552  0.4900 -1.6988
 7147SOL     OW33913   2.494   5.957   7.370 -0.2417 -0.4803  0.5223
 7147SOL    HW133914   2.559   6.027   7.338  0.3256 -1.0252  0.4691
 7147SOL    HW233915   2.418   6.002   7.416  0.3397  0.1558  0.8813
 7148SOL     OW33916   2.825   5.990   6.361 -0.5958 -0.2404  0.1886
 7148SOL    HW133917   2.790   6.075   6.322  0.8409 -0.2861 -1.2747
 7148SOL    HW233918   2.867   6.009   6.450 -0.1435  0.6285 -0.1969
 7149SOL     OW33919   6.441   1.050   7.532 -0.1832 -0.7293  0.1365
 7149SOL    HW133920   6.523   0.994   7.529 -0.1929 -0.6579 -1.7468
 7149SOL    HW233921   6.456   1.129   7.592  1.2520 -0.5025 -0.5182
 7150SOL     OW33922   2.473   1.565   2.709  0.0642  0.2637  0.4138
 7150SOL    HW133923   2.532   1.501   2.760  0.7427  1.9555  1.8255
 7150SOL    HW233924   2.531   1.628   2.657 -0.6194 -0.9226 -1.8352
 7151SOL     OW33925   4.908   8.745   2.495 -0.0036 -0.1414  0.5142
 7151SOL    HW133926   4.854   8.774   2.574 -1.7166  0.1514 -0.7293
 7151SOL    HW233927   4.986   8.805   2.484  0.2745 -0.2015  1.9965
 7152SOL     OW33928   7.323   5.174   0.468  0.7395 -0.4568 -0.1558
 7152SOL    HW133929   7.281   5.209   0.552 -0.1689  3.1867 -2.0709
 7152SOL    HW233930   7.254   5.125   0.415  1.1751 -2.2587  0.8947
 7153SOL     OW33931   0.176   8.981   8.698 -0.2587 -0.8443  0.4462
 7153SOL    HW133932   0.090   8.943   8.664  0.2614 -1.2273 -0.4739
 7153SOL    HW233933   0.194   9.069   8.654  2.3763 -3.1560 -3.4064
 7154SOL     OW33934   0.684   4.753   2.380  0.0745 -0.0172 -0.0235
 7154SOL    HW133935   0.639   4.760   2.291  0.2122 -1.4199 -0.2238
 7154SOL    HW233936   0.761   4.816   2.383 -1.4753  1.9139  0.0746
 7155SOL     OW33937   8.300   3.184   6.131  0.3562  0.1573 -0.7240
 7155SOL    HW133938   8.390   3.203   6.091  0.8961 -1.9055 -0.5383
 7155SOL    HW233939   8.293   3.087   6.153  0.2721  1.2148  4.6339
 7156SOL     OW33940   5.156   2.895   6.678 -0.1414 -0.5611 -0.7777
 7156SOL    HW133941   5.083   2.845   6.725  0.4670 -0.1414  0.6440
 7156SOL    HW233942   5.245   2.859   6.707  0.3308  1.6392  0.6829
 7157SOL     OW33943   8.021   3.633   5.429 -0.3504  0.2730 -0.1845
 7157SOL    HW133944   8.098   3.573   5.407  0.0356  1.1016 -1.1555
 7157SOL    HW233945   8.014   3.705   5.359 -1.6310  0.5609  0.2234
 7158SOL     OW33946   1.896   3.683   1.966  0.5137 -0.0949  0.3189
 7158SOL    HW133947   1.847   3.770   1.952  1.2441  0.2215 -0.3423
 7158SOL    HW233948   1.980   3.700   2.018  1.8947  0.0047 -1.8732
 7159SOL     OW33949   5.005   4.826   1.316  0.0976  0.1289 -0.3177
 7159SOL    HW133950   5.027   4.734   1.286 -3.7761 -0.3773 -2.0009
 7159SOL    HW233951   4.969   4.823   1.410  3.4304  0.4865  1.0330
 7160SOL     OW33952   4.918   6.883   0.376 -0.2350 -0.0755  0.8554
 7160SOL    HW133953   4.844   6.823   0.406 -0.7638  0.3901  0.4922
 7160SOL    HW233954   4.986   6.829   0.325 -0.9330 -0.2913  0.1444
 7161SOL     OW33955   0.502   7.957   4.569 -0.3174  0.7192  0.4437
 7161SOL    HW133956   0.546   8.000   4.490  0.0721  0.1415  0.3432
 7161SOL    HW233957   0.437   8.021   4.610 -0.6384  0.9642 -0.4418
 7162SOL     OW33958   0.222   2.859   0.870 -0.9602  0.1726  0.0363
 7162SOL    HW133959   0.284   2.807   0.810 -0.5078  0.8647 -0.0971
 7162SOL    HW233960   0.129   2.823   0.860 -0.1895 -2.5869  2.1343
 7163SOL     OW33961   1.153   6.325   8.553  0.3424  0.0781 -0.1694
 7163SOL    HW133962   1.168   6.299   8.458  1.9112 -1.5427  0.4732
 7163SOL    HW233963   1.238   6.360   8.592 -0.3460  0.9461  0.5657
 7164SOL     OW33964   4.354   7.478   2.401 -0.0129  0.3575  0.2694
 7164SOL    HW133965   4.297   7.552   2.436 -0.3022 -0.7524  2.1770
 7164SOL    HW233966   4.424   7.455   2.468  2.4136  1.3154 -1.7904
 7165SOL     OW33967   3.318   6.398   6.715  0.1069  0.0972  0.2856
 7165SOL    HW133968   3.255   6.366   6.644  0.0797 -0.7411  0.6766
 7165SOL    HW233969   3.388   6.328   6.731 -1.5437 -1.0019  3.0773
 7166SOL     OW33970   4.640   0.780   4.463 -0.5399 -0.1964  0.0252
 7166SOL    HW133971   4.717   0.800   4.402  0.2518  1.0798  1.3934
 7166SOL    HW233972   4.561   0.751   4.409  0.7437 -1.0379 -1.4373
 7167SOL     OW33973   5.010   0.927   0.271  0.0782 -0.5717 -1.0506
 7167SOL    HW133974   4.993   0.829   0.285 -0.7853 -0.1422  1.1418
 7167SOL    HW233975   4.929   0.969   0.229 -0.8032 -0.2569  0.8769
 7168SOL     OW33976   0.105   0.232   0.959 -0.5281 -0.2078 -0.6486
 7168SOL    HW133977   0.176   0.246   1.027  0.5386  1.3347 -2.0276
 7168SOL    HW233978   0.028   0.295   0.977 -0.5458 -0.2767 -0.4825
 7169SOL     OW33979   6.032   4.442   2.423  0.0231 -0.1357  0.3354
 7169SOL    HW133980   5.977   4.358   2.426  0.9836 -0.7381  1.1837
 7169SOL    HW233981   6.111   4.432   2.483  1.3130  0.5489 -1.2190
 7170SOL     OW33982   1.753   7.349   1.308  0.1973 -0.1045 -0.1131
 7170SOL    HW133983   1.683   7.401   1.259  0.7770 -1.0022 -1.9662
 7170SOL    HW233984   1.713   7.267   1.346  0.1060 -0.3286 -0.6824
 7171SOL     OW33985   3.889   1.655   6.420 -0.0961 -0.5660 -0.1348
 7171SOL    HW133986   3.973   1.702   6.447 -1.7818  2.2662  0.3770
 7171SOL    HW233987   3.887   1.646   6.320 -0.5902  2.1581 -0.3973
 7172SOL     OW33988   7.882   8.467   6.490  0.0867 -0.5776 -0.5260
 7172SOL    HW133989   7.819   8.397   6.523  1.5123 -1.5733  0.1376
 7172SOL    HW233990   7.972   8.453   6.531  0.5560  1.2854 -0.8632
 7173SOL     OW33991   6.332   1.908   2.766  0.3938 -0.2860  0.0340
 7173SOL    HW133992   6.298   1.851   2.692  1.5331 -0.5831 -0.2726
 7173SOL    HW233993   6.278   1.992   2.771  1.1257  0.3303 -1.9671
 7174SOL     OW33994   2.028   4.481   5.131  0.0843  0.3257 -0.0833
 7174SOL    HW133995   2.078   4.564   5.155 -0.6771  0.8417 -0.2544
 7174SOL    HW233996   1.932   4.503   5.116 -0.2909 -0.7194  0.6710
 7175SOL     OW33997   2.456   3.997   6.693  0.0851 -0.0272 -0.4457
 7175SOL    HW133998   2.531   3.931   6.686  0.0581 -0.1632  0.5119
 7175SOL    HW233999   2.370   3.948   6.707  0.3797  0.2754  2.7904
 7176SOL     OW34000   4.152   5.586   0.976 -0.1342  0.5359  0.5145
 7176SOL    HW134001   4.069   5.539   0.947  0.2899  0.7129 -1.0077
 7176SOL    HW234002   4.219   5.518   1.008  0.3427  0.0967 -1.3395
 7177SOL     OW34003   4.626   3.428   5.925  0.0336 -0.0859 -0.0794
 7177SOL    HW134004   4.529   3.407   5.936 -0.3617 -0.3100 -3.5186
 7177SOL    HW234005   4.642   3.525   5.947 -0.7915 -0.2481  1.3016
 7178SOL     OW34006   2.655   1.962   2.741 -0.0281 -0.1645 -0.1194
 7178SOL    HW134007   2.740   1.927   2.702  0.6051 -0.3188  1.3602
 7178SOL    HW234008   2.637   1.917   2.829 -2.0323 -0.6872 -0.7504
 7179SOL     OW34009   4.386   2.315   5.347 -0.8660  0.3150 -0.1919
 7179SOL    HW134010   4.434   2.262   5.277 -1.8292 -0.8309 -0.0020
 7179SOL    HW234011   4.410   2.412   5.338  2.2787 -0.3337  0.5216
 7180SOL     OW34012   1.076   3.106   6.696  0.4676  0.0681 -0.0979
 7180SOL    HW134013   1.148   3.131   6.761 -1.1949  0.0453  1.7906
 7180SOL    HW234014   1.048   3.011   6.713 -0.4144  0.2680 -0.4218
 7181SOL     OW34015   3.044   1.542   5.943  0.4678 -0.0476 -0.5527
 7181SOL    HW134016   3.104   1.622   5.946 -0.4770  0.6279  0.6112
 7181SOL    HW234017   3.006   1.525   6.034 -0.1873 -1.1706 -1.0261
 7182SOL     OW34018   4.398   6.172   0.060 -0.0237 -0.0170 -0.4647
 7182SOL    HW134019   4.472   6.240   0.060 -1.9331  2.1327 -0.6876
 7182SOL    HW234020   4.421   6.098  -0.003  1.1125  1.5811 -1.9912
 7183SOL     OW34021   2.593   1.705   2.509  0.0028  0.6706 -0.5884
 7183SOL    HW134022   2.683   1.730   2.473  0.5674  1.3552  1.2316
 7183SOL    HW234023   2.522   1.744   2.451  0.8555 -0.8350 -2.7032
 7184SOL     OW34024   5.258   4.658   4.240 -0.2307  0.3450 -0.1604
 7184SOL    HW134025   5.325   4.729   4.260  0.9752 -0.9510  0.4953
 7184SOL    HW234026   5.218   4.674   4.150  0.9621  1.1355 -0.5569
 7185SOL     OW34027   4.784   4.733   6.652 -0.5595  0.3295  0.4864
 7185SOL    HW134028   4.741   4.822   6.638 -0.1625  0.7599  1.9331
 7185SOL    HW234029   4.717   4.661   6.632 -1.3157  0.9654  0.6986
 7186SOL     OW34030   8.546   7.657   1.932  0.2774  0.1469 -0.9851
 7186SOL    HW134031   8.483   7.593   1.976 -0.2954  0.7206 -0.9654
 7186SOL    HW234032   8.494   7.728   1.886  0.9208  0.7512 -0.7805
 7187SOL     OW34033   4.854   4.280   2.994  0.7308 -0.0496  0.7881
 7187SOL    HW134034   4.919   4.230   3.051  1.7373 -0.4677 -0.6863
 7187SOL    HW234035   4.800   4.215   2.940  0.4493  0.3749  0.5572
 7188SOL     OW34036   1.148   2.949   2.050 -0.0238  0.5827  0.3821
 7188SOL    HW134037   1.193   2.875   2.101 -0.3505 -1.4948 -2.2551
 7188SOL    HW234038   1.055   2.962   2.087 -0.5371 -1.4248 -0.1312
 7189SOL     OW34039   2.857   8.395   0.774  0.6293  0.3185 -0.5300
 7189SOL    HW134040   2.798   8.389   0.694  0.8187 -0.0518 -0.6422
 7189SOL    HW234041   2.868   8.303   0.814  1.5188  0.3137 -0.7906
 7190SOL     OW34042   8.525   3.187   1.713 -0.1184  0.0498 -0.1834
 7190SOL    HW134043   8.520   3.244   1.796  0.5359 -0.9334  0.5280
 7190SOL    HW234044   8.521   3.091   1.738 -0.3362 -0.2511 -1.3381
 7191SOL     OW34045   4.567   0.135   1.945 -0.3039  0.3901  0.3870
 7191SOL    HW134046   4.559   0.058   1.881  2.7145  2.1006 -2.2341
 7191SOL    HW234047   4.483   0.144   1.997 -2.0517 -2.4915 -1.7745
 7192SOL     OW34048   0.458   4.542   7.745  0.2532  0.3082 -0.3259
 7192SOL    HW134049   0.451   4.468   7.813  1.6217  0.8679  0.4492
 7192SOL    HW234050   0.418   4.512   7.659 -1.2319 -0.5348  0.6273
 7193SOL     OW34051   8.633   7.965   7.111  0.4915 -0.2230 -0.2912
 7193SOL    HW134052   8.627   7.895   7.182 -0.7851 -0.2587 -0.4113
 7193SOL    HW234053   8.677   8.047   7.148  0.4390 -0.4811  0.3425
 7194SOL     OW34054   7.236   1.225   0.893 -0.4555  0.2438 -0.0576
 7194SOL    HW134055   7.263   1.132   0.918  0.6669 -0.0960 -2.3602
 7194SOL    HW234056   7.241   1.284   0.973 -0.3786 -1.4955  1.2493
 7195SOL     OW34057   7.474   7.020   5.707 -0.3969 -0.0443  0.1375
 7195SOL    HW134058   7.386   7.034   5.662 -1.2650 -0.4345  1.6834
 7195SOL    HW234059   7.475   7.070   5.794  0.0853 -1.7722  1.1474
 7196SOL     OW34060   4.561   2.021   8.093 -0.1353  0.4491  0.4471
 7196SOL    HW134061   4.562   2.086   8.168 -0.7148  0.3173  0.5671
 7196SOL    HW234062   4.594   1.932   8.125  0.2911  0.5782  0.3733
 7197SOL     OW34063   0.339   8.013   4.057 -0.2098 -0.1132  0.2748
 7197SOL    HW134064   0.425   7.962   4.048 -0.9193 -1.2972  0.1484
 7197SOL    HW234065   0.307   8.008   4.151  0.2666  0.9953  0.4985
 7198SOL     OW34066   7.967   6.988   6.772  1.0235 -0.2406  0.2976
 7198SOL    HW134067   7.970   6.888   6.776 -0.8563 -0.2498  2.0256
 7198SOL    HW234068   7.898   7.017   6.706  2.4191 -0.0617 -1.1092
 7199SOL     OW34069   1.004   6.101   7.419 -0.1054 -0.4534 -0.1324
 7199SOL    HW134070   1.047   6.107   7.509  0.1507 -1.5924 -0.1610
 7199SOL    HW234071   0.928   6.165   7.413  0.5982  0.4415  0.4875
 7200SOL     OW34072   5.019   8.930   4.792  0.4421 -0.2609  0.1015
 7200SOL    HW134073   5.108   8.946   4.749 -0.7398  0.0231 -2.3040
 7200SOL    HW234074   4.980   8.845   4.758  0.3102 -1.0220  2.0912
 7201SOL     OW34075   1.804   2.568   1.422  0.3834 -0.3163 -0.0662
 7201SOL    HW134076   1.715   2.529   1.443  0.2196 -0.8788 -1.7777
 7201SOL    HW234077   1.871   2.495   1.408  0.9406  0.0886  0.4336
 7202SOL     OW34078   2.025   1.429   1.214  0.1734  0.1587 -0.0257
 7202SOL    HW134079   2.115   1.410   1.253  0.9206  0.9380 -1.3491
 7202SOL    HW234080   2.034   1.457   1.119 -1.7933 -3.4392 -1.3510
 7203SOL     OW34081   4.114   6.823   5.693  0.3230 -0.2038 -0.2408
 7203SOL    HW134082   4.082   6.829   5.599 -0.3658 -3.0818 -0.2247
 7203SOL    HW234083   4.048   6.773   5.748  1.5299 -0.0422  1.4116
 7204SOL     OW34084   7.137   0.608   8.594 -0.3046  0.2572  0.0098
 7204SOL    HW134085   7.077   0.575   8.667 -1.8998 -0.2777 -1.5000
 7204SOL    HW234086   7.137   0.708   8.593  0.3857  0.2792  1.2548
 7205SOL     OW34087   8.240   4.562   5.636  0.2208  0.0430 -0.1971
 7205SOL    HW134088   8.152   4.594   5.672 -0.6994 -2.8532  0.3007
 7205SOL    HW234089   8.259   4.607   5.549 -1.3217  1.3539  0.1189
 7206SOL     OW34090   4.836   6.695   7.533 -0.0232  0.2021  0.3389
 7206SOL    HW134091   4.914   6.747   7.497  0.1839 -0.3421  0.0039
 7206SOL    HW234092   4.794   6.642   7.459 -0.0024 -0.4085  0.7600
 7207SOL     OW34093   8.616   0.705   5.122 -1.0784 -0.9635  0.1525
 7207SOL    HW134094   8.645   0.801   5.115 -1.4905 -0.7827  0.9506
 7207SOL    HW234095   8.532   0.692   5.069 -1.7808 -0.5706  1.1590
 7208SOL     OW34096   8.095   2.653   4.232  0.6329  0.1173  0.1636
 7208SOL    HW134097   8.041   2.714   4.290  0.0774 -0.3843  0.1757
 7208SOL    HW234098   8.067   2.665   4.136 -2.1382 -2.7917  0.5326
 7209SOL     OW34099   4.037   4.342   5.224  0.2054  0.1324 -0.1888
 7209SOL    HW134100   4.006   4.315   5.315  1.6833  0.0480  0.3021
 7209SOL    HW234101   4.084   4.431   5.230 -1.2976  1.0094 -1.1694
 7210SOL     OW34102   3.016   6.629   2.366 -0.3919  0.0224  0.2736
 7210SOL    HW134103   3.039   6.553   2.305 -0.1751  0.2865  0.0211
 7210SOL    HW234104   2.920   6.623   2.392 -0.9484  0.8249 -1.4535
 7211SOL     OW34105   7.421   6.582   8.212 -0.1265  0.4237 -0.0555
 7211SOL    HW134106   7.435   6.651   8.141  1.3116  0.8928  0.6573
 7211SOL    HW234107   7.464   6.613   8.297 -1.1653 -0.4780  0.8072
 7212SOL     OW34108   3.533   2.038   0.803  0.0386 -0.1923  0.0840
 7212SOL    HW134109   3.455   1.975   0.807  1.4417 -1.8489  2.3581
 7212SOL    HW234110   3.617   1.988   0.824  1.2758  2.2638  1.1526
 7213SOL     OW34111   2.034   3.693   3.064 -0.3341  0.2135 -0.4079
 7213SOL    HW134112   1.936   3.682   3.082 -0.0440 -0.7834  0.6626
 7213SOL    HW234113   2.047   3.734   2.974 -1.7160 -0.8708 -1.1257
 7214SOL     OW34114   3.568   4.463   6.920 -0.1968 -0.2456 -0.2414
 7214SOL    HW134115   3.659   4.475   6.880  0.2649 -1.5153  0.3770
 7214SOL    HW234116   3.498   4.480   6.851  0.5289 -0.0319 -0.9302
 7215SOL     OW34117   8.596   6.039   4.356 -0.5388  0.3514  0.0366
 7215SOL    HW134118   8.535   6.101   4.404 -1.5554 -0.1973 -0.5297
 7215SOL    HW234119   8.594   6.059   4.258 -0.9556 -0.6304 -0.1644
 7216SOL     OW34120   3.877   2.404   3.361  0.1680 -0.5233 -0.2727
 7216SOL    HW134121   3.969   2.426   3.391  0.5492 -1.5555 -0.6579
 7216SOL    HW234122   3.811   2.434   3.430  0.7077  1.0509 -0.4092
 7217SOL     OW34123   7.572   5.949   3.634 -0.2049 -0.0523  0.2470
 7217SOL    HW134124   7.577   6.048   3.621 -0.6395 -0.2553 -1.5887
 7217SOL    HW234125   7.664   5.912   3.642 -0.0577  0.5934  1.8987
 7218SOL     OW34126   4.170   7.958   6.448 -0.0747  0.0086 -0.0377
 7218SOL    HW134127   4.203   8.045   6.486 -1.1487  0.5288 -0.2806
 7218SOL    HW234128   4.071   7.951   6.462 -0.2573 -0.4201 -1.4911
 7219SOL     OW34129   7.064   4.691   7.563 -0.6532 -0.2800 -0.1796
 7219SOL    HW134130   6.996   4.730   7.624 -0.9457 -1.8533  0.5139
 7219SOL    HW234131   7.100   4.762   7.503 -1.5576  0.9328  0.7083
 7220SOL     OW34132   8.163   2.675   1.221 -0.3637  0.1246 -0.1859
 7220SOL    HW134133   8.236   2.677   1.152 -0.1804 -0.7519 -0.0257
 7220SOL    HW234134   8.134   2.768   1.241  0.8373  0.5009 -0.1293
 7221SOL     OW34135   7.294   0.851   4.347  0.1379 -0.2410 -0.5042
 7221SOL    HW134136   7.282   0.945   4.379  0.9717 -0.2720 -0.0608
 7221SOL    HW234137   7.268   0.788   4.420 -0.5125 -0.3548 -0.8365
 7222SOL     OW34138   2.842   3.661   7.824  0.0447  0.6258  0.3437
 7222SOL    HW134139   2.914   3.720   7.859 -0.5221  1.2043  0.5334
 7222SOL    HW234140   2.754   3.709   7.827 -0.0519  0.6142 -1.6572
 7223SOL     OW34141   1.069   8.303   0.716  0.4466  0.2671 -0.4097
 7223SOL    HW134142   0.975   8.291   0.683  0.5873  0.6674 -0.9414
 7223SOL    HW234143   1.077   8.391   0.763  0.3077 -0.1931  0.4982
 7224SOL     OW34144   1.809   7.118   1.810  0.4174  0.2552  0.2983
 7224SOL    HW134145   1.750   7.196   1.791  1.1742  0.8280  0.3275
 7224SOL    HW234146   1.876   7.107   1.737 -0.4975 -1.1348 -0.3477
 7225SOL     OW34147   2.998   7.143   4.922 -0.7330 -0.0357  0.6379
 7225SOL    HW134148   2.952   7.133   5.010  0.6847 -0.6157  1.3485
 7225SOL    HW234149   3.059   7.064   4.908 -0.5210  0.3360 -0.6040
 7226SOL     OW34150   3.318   2.944   6.424  0.5687 -0.7186  0.2605
 7226SOL    HW134151   3.323   2.879   6.348  0.3176 -1.2102  0.6562
 7226SOL    HW234152   3.254   2.909   6.493  2.3101 -1.2819  1.6354
 7227SOL     OW34153   7.304   3.753   1.979 -0.1620 -0.2851  0.2952
 7227SOL    HW134154   7.382   3.705   2.020  1.0409 -1.2840 -3.0294
 7227SOL    HW234155   7.226   3.690   1.973  0.4696 -0.9360 -1.2769
 7228SOL     OW34156   2.693   4.786   5.896  0.1784 -0.6031  0.4953
 7228SOL    HW134157   2.709   4.876   5.936 -0.3571 -0.5845  0.6620
 7228SOL    HW234158   2.685   4.795   5.796 -0.4880 -0.3799  0.5636
 7229SOL     OW34159   7.876   0.246   2.898  0.2117  0.0256  0.0578
 7229SOL    HW134160   7.825   0.303   2.962  0.2242 -0.7509  0.7620
 7229SOL    HW234161   7.974   0.258   2.913  0.2126 -0.3612  0.3690
 7230SOL     OW34162   5.160   5.839   0.692  0.1623  0.2650 -0.3574
 7230SOL    HW134163   5.178   5.810   0.598  2.1334 -0.4461  0.2001
 7230SOL    HW234164   5.112   5.927   0.692  1.0389  0.7636 -2.0208
 7231SOL     OW34165   5.656   4.437   4.179  0.0140 -0.2944  0.7502
 7231SOL    HW134166   5.567   4.409   4.215 -0.7155  0.4742 -0.4103
 7231SOL    HW234167   5.649   4.531   4.144  1.3361 -0.1551  0.8608
 7232SOL     OW34168   8.210   7.451   6.752 -0.1569 -0.0122 -0.0246
 7232SOL    HW134169   8.221   7.402   6.839  0.5076  0.2169  0.0175
 7232SOL    HW234170   8.126   7.419   6.707 -0.7804  0.2377  0.9410
 7233SOL     OW34171   6.670   2.235   8.716 -0.6121 -0.1825 -0.2147
 7233SOL    HW134172   6.652   2.300   8.643  0.5992  0.9649  0.5020
 7233SOL    HW234173   6.673   2.283   8.804  0.1822 -1.2207  0.3352
 7234SOL     OW34174   5.660   4.613   0.988 -0.0939  0.1047  0.4563
 7234SOL    HW134175   5.691   4.525   0.951 -0.1551 -0.3737  1.5176
 7234SOL    HW234176   5.617   4.666   0.915  0.3802 -0.5444 -0.3048
 7235SOL     OW34177   8.442   5.551   7.428 -0.1140  0.0781  0.2282
 7235SOL    HW134178   8.424   5.514   7.519  0.2122 -1.5858 -0.3660
 7235SOL    HW234179   8.367   5.526   7.367  0.7039 -0.6921 -0.4789
 7236SOL     OW34180   4.348   6.456   7.982 -0.6804  0.0312 -0.0301
 7236SOL    HW134181   4.299   6.494   8.060 -2.4736  0.8489 -1.5058
 7236SOL    HW234182   4.445   6.448   8.004 -0.9851  1.3153  1.8669
 7237SOL     OW34183   1.564   3.882   8.203  0.3108 -0.6152 -0.0147
 7237SOL    HW134184   1.537   3.978   8.200 -2.6628 -1.4174 -1.9735
 7237SOL    HW234185   1.663   3.874   8.207  0.5406  2.5264  1.4047
 7238SOL     OW34186   8.527   3.951   8.242  0.3419  0.1039  0.4155
 7238SOL    HW134187   8.602   3.957   8.176 -0.5395  0.6263 -0.5528
 7238SOL    HW234188   8.439   3.960   8.194 -0.3258 -0.0402  1.5910
 7239SOL     OW34189   7.221   3.482   8.559 -0.1196  0.0046  0.2553
 7239SOL    HW134190   7.188   3.539   8.484 -0.0035 -0.7930 -0.4082
 7239SOL    HW234191   7.154   3.483   8.633 -1.9712 -2.0941 -1.3221
 7240SOL     OW34192   3.004   4.118   6.868  0.5051 -0.6169 -0.0334
 7240SOL    HW134193   2.973   4.180   6.796 -2.7936 -2.0584  0.0266
 7240SOL    HW234194   3.070   4.164   6.926 -0.6971  2.3144 -0.9122
 7241SOL     OW34195   0.331   2.808   3.161 -0.2560 -0.4363 -0.1852
 7241SOL    HW134196   0.371   2.719   3.184 -1.1128 -0.2891  2.0182
 7241SOL    HW234197   0.248   2.794   3.108  1.0370 -0.8449 -2.1455
 7242SOL     OW34198   5.858   8.294   8.826 -0.3586  0.5598  0.3612
 7242SOL    HW134199   5.932   8.334   8.880 -0.4862  1.0647  0.1587
 7242SOL    HW234200   5.785   8.361   8.814 -0.6051  0.2431  0.0893
 7243SOL     OW34201   4.935   6.261   3.261 -0.1888  0.6409  0.4307
 7243SOL    HW134202   4.842   6.230   3.281 -0.2618  1.3067  1.1236
 7243SOL    HW234203   4.990   6.183   3.232 -0.9239  0.2164  0.1530
 7244SOL     OW34204   7.937   1.087   0.804 -0.3617  0.0319  0.5239
 7244SOL    HW134205   7.984   1.122   0.885 -1.1161  0.7664  0.6455
 7244SOL    HW234206   7.886   1.005   0.828 -0.9429  0.4987  0.9009
 7245SOL     OW34207   8.904   4.651   3.762  0.6375 -0.5201 -0.2749
 7245SOL    HW134208   8.947   4.634   3.673  0.4753 -0.1824 -0.4188
 7245SOL    HW234209   8.809   4.679   3.748  0.9386  0.6511 -0.0506
 7246SOL     OW34210   8.795   5.179   1.595 -0.4740 -0.1797  0.0431
 7246SOL    HW134211   8.774   5.275   1.614 -0.6810 -0.5300  1.6221
 7246SOL    HW234212   8.876   5.174   1.535 -0.9310  0.9851 -0.6920
 7247SOL     OW34213   3.776   5.115   2.892 -0.2914 -0.0670  0.1047
 7247SOL    HW134214   3.868   5.143   2.919 -0.2048 -0.2844  0.0298
 7247SOL    HW234215   3.763   5.132   2.794 -1.0440  1.9427  0.5157
 7248SOL     OW34216   3.338   5.575   6.024  0.6661  0.5030 -0.0976
 7248SOL    HW134217   3.305   5.568   5.931  0.0499 -0.5923  0.1984
 7248SOL    HW234218   3.435   5.601   6.024  0.4556  1.2687 -1.0140
 7249SOL     OW34219   5.133   4.996   8.741 -0.3142  0.2804  0.3783
 7249SOL    HW134220   5.209   5.029   8.798  0.9368  1.5901 -1.9704
 7249SOL    HW234221   5.135   4.897   8.738 -0.3819  0.1852  2.5768
 7250SOL     OW34222   3.106   1.146   0.587  0.1446  0.1095 -0.4481
 7250SOL    HW134223   3.187   1.204   0.595  0.6644 -0.5920 -0.6000
 7250SOL    HW234224   3.036   1.179   0.650 -0.7020  2.7788 -2.6770
 7251SOL     OW34225   3.077   5.017   1.543 -0.5882 -0.4179  0.1306
 7251SOL    HW134226   3.177   5.017   1.539 -0.5668 -0.8868  0.6670
 7251SOL    HW234227   3.044   5.111   1.554 -0.1145 -0.4970  2.2738
 7252SOL     OW34228   2.097   4.431   8.940 -0.5168 -0.2260 -0.1686
 7252SOL    HW134229   2.075   4.436   9.038 -1.7154 -0.3038 -0.4269
 7252SOL    HW234230   2.015   4.449   8.886  0.0658 -0.5102 -1.1703
 7253SOL     OW34231   7.948   5.247   6.017 -1.0713 -0.0721 -0.5929
 7253SOL    HW134232   7.977   5.283   6.106  0.4881  0.0755 -1.1511
 7253SOL    HW234233   7.849   5.259   6.007 -0.9964  1.4775  0.3894
 7254SOL     OW34234   7.940   2.317   2.955 -0.1559  0.2791 -0.4018
 7254SOL    HW134235   7.863   2.262   2.922 -0.6951  0.6178  0.2893
 7254SOL    HW234236   7.910   2.412   2.967  0.8715  0.8287 -1.9925
 7255SOL     OW34237   4.310   0.390   8.671  0.2702 -0.3565 -0.4641
 7255SOL    HW134238   4.340   0.432   8.757  1.8021  1.9724 -2.0700
 7255SOL    HW234239   4.213   0.408   8.657  0.2493  0.1390  0.2877
 7256SOL     OW34240   6.353   4.536   3.310  0.0899 -0.8266 -0.0768
 7256SOL    HW134241   6.274   4.542   3.371 -0.6559  2.3828 -1.2830
 7256SOL    HW234242   6.422   4.476   3.350 -0.5003  0.9313  3.7590
 7257SOL     OW34243   3.702   7.924   1.895 -0.1583 -0.0209 -0.1245
 7257SOL    HW134244   3.616   7.887   1.930  0.2026 -1.0153 -0.2944
 7257SOL    HW234245   3.685   8.015   1.857 -0.8745  0.3609  1.0681
 7258SOL     OW34246   5.712   4.333   8.892 -0.4363 -0.6337  0.5366
 7258SOL    HW134247   5.709   4.426   8.857  0.0402 -0.8756 -0.1657
 7258SOL    HW234248   5.684   4.269   8.821 -2.3667 -0.9117  1.5199
 7259SOL     OW34249   4.700   6.914   0.803  0.6214 -0.5705  0.3686
 7259SOL    HW134250   4.656   6.840   0.853  1.0499 -2.1946 -1.6095
 7259SOL    HW234251   4.798   6.912   0.819  0.7251 -0.9150 -0.3057
 7260SOL     OW34252   2.874   2.434   7.119  0.3942  0.3453 -0.2207
 7260SOL    HW134253   2.805   2.361   7.120  1.6503 -0.8835  1.8532
 7260SOL    HW234254   2.833   2.520   7.146 -0.5298 -0.1930  0.1004
 7261SOL     OW34255   7.656   2.900   3.935 -0.4897  0.0229 -0.2676
 7261SOL    HW134256   7.616   2.867   4.021 -1.3531  1.0342 -0.2712
 7261SOL    HW234257   7.687   2.994   3.946  1.0815 -0.4460 -0.5432
 7262SOL     OW34258   3.988   0.032   2.342  0.3769  0.5775 -0.3302
 7262SOL    HW134259   3.981  -0.055   2.392 -1.5831  1.4307  0.9310
 7262SOL    HW234260   3.917   0.036   2.272  0.2842  1.2662 -0.1994
 7263SOL     OW34261   8.441   0.650   8.065  0.1093  0.2884  0.0979
 7263SOL    HW134262   8.341   0.657   8.061  0.3020  2.4328 -1.9682
 7263SOL    HW234263   8.473   0.682   8.154 -1.1440 -2.3558  1.5518
 7264SOL     OW34264   1.790   2.716   1.203  0.4053  0.3855  0.7259
 7264SOL    HW134265   1.874   2.684   1.159  0.2031  0.1912  0.4804
 7264SOL    HW234266   1.788   2.683   1.298 -1.0122 -2.5414 -0.2635
 7265SOL     OW34267   8.674   0.599   6.411  0.1463 -0.4175 -0.1241
 7265SOL    HW134268   8.639   0.619   6.503 -0.5250  1.6263 -0.7865
 7265SOL    HW234269   8.648   0.506   6.385  2.6250 -2.0103  2.7866
 7266SOL     OW34270   8.518   5.034   2.486  0.3678  0.9444  0.8303
 7266SOL    HW134271   8.449   5.041   2.413 -0.4214  1.0754  1.5882
 7266SOL    HW234272   8.603   5.076   2.454 -0.4890  2.5701  0.6046
 7267SOL     OW34273   6.713   6.286   2.990 -0.6197 -0.0505 -0.3144
 7267SOL    HW134274   6.667   6.207   2.949  0.7226 -0.7257 -0.5543
 7267SOL    HW234275   6.644   6.352   3.021 -1.8122 -1.8886  1.0895
 7268SOL     OW34276   8.143   0.174   8.291  0.7540  0.5380  0.2902
 7268SOL    HW134277   8.200   0.094   8.306 -1.2876 -1.4623 -2.0758
 7268SOL    HW234278   8.168   0.218   8.205  2.0904  2.7113  1.7316
 7269SOL     OW34279   6.385   5.992   6.517  0.0209  0.0721 -0.0528
 7269SOL    HW134280   6.410   5.976   6.422 -2.8587 -3.3647 -0.3049
 7269SOL    HW234281   6.334   5.914   6.553 -0.2518  1.9099  3.8892
 7270SOL     OW34282   3.104   6.675   7.926  0.0342  0.4730  0.1370
 7270SOL    HW134283   3.076   6.581   7.907 -2.4013  1.3010 -0.4912
 7270SOL    HW234284   3.069   6.703   8.016 -0.4707  1.2672 -0.3085
 7271SOL     OW34285   1.208   7.388   7.008  0.2424 -0.8079  0.0236
 7271SOL    HW134286   1.144   7.320   6.972  1.0768 -1.6737  0.1424
 7271SOL    HW234287   1.292   7.342   7.037  0.3061  0.1145  1.3379
 7272SOL     OW34288   3.227   5.689   2.082  0.5826 -0.1510  0.0586
 7272SOL    HW134289   3.288   5.651   2.012  0.1720 -2.6498  0.9767
 7272SOL    HW234290   3.134   5.690   2.047  0.9766  2.8301 -1.0196
 7273SOL     OW34291   0.542   7.521   1.320 -0.5447  0.1891  0.1427
 7273SOL    HW134292   0.638   7.530   1.292 -0.8329  0.5733 -0.7373
 7273SOL    HW234293   0.483   7.554   1.246 -1.3820 -0.9147  0.3091
 7274SOL     OW34294   7.409   8.615   2.741 -0.1584  0.6457  1.1988
 7274SOL    HW134295   7.505   8.623   2.768  0.1033  0.4581  0.3310
 7274SOL    HW234296   7.367   8.706   2.742  0.1697  0.8017  1.0840
 7275SOL     OW34297   5.029   2.678   5.238  0.5275  0.1801 -0.1788
 7275SOL    HW134298   5.091   2.756   5.233 -0.2689  1.0000  2.2881
 7275SOL    HW234299   5.051   2.622   5.317 -0.8385 -0.4368 -0.2148
 7276SOL     OW34300   8.156   0.396   2.560  0.5205 -0.4618  0.4710
 7276SOL    HW134301   8.077   0.347   2.598  1.3616 -0.9897  1.5387
 7276SOL    HW234302   8.224   0.412   2.631  0.5139  1.7887  0.0085
 7277SOL     OW34303   3.919   0.268   3.254 -0.4443  0.7712  0.0758
 7277SOL    HW134304   4.008   0.225   3.273  0.0993  1.5908 -0.5739
 7277SOL    HW234305   3.933   0.350   3.200 -1.7094  0.2546 -1.0604
 7278SOL     OW34306   6.821   6.930   1.930 -0.9494 -0.3124  0.4246
 7278SOL    HW134307   6.773   6.881   2.003 -1.4095 -0.0153  0.3171
 7278SOL    HW234308   6.873   6.864   1.876 -0.5877 -0.5327  1.0299
 7279SOL     OW34309   3.193   0.092   8.419  0.4143 -0.3307  0.4392
 7279SOL    HW134310   3.280   0.140   8.435  0.9177 -1.1248  0.1210
 7279SOL    HW234311   3.211  -0.006   8.410 -0.5704 -0.5393  0.7543
 7280SOL     OW34312   7.656   0.501   3.731 -0.1414  0.3085 -0.3139
 7280SOL    HW134313   7.655   0.408   3.765 -0.5022  0.5611  0.3781
 7280SOL    HW234314   7.592   0.557   3.784  0.9924  1.2460  0.1004
 7281SOL     OW34315   5.461   4.784   5.115  0.3218  0.1528 -0.0133
 7281SOL    HW134316   5.442   4.688   5.138 -2.1967  0.4051 -0.8997
 7281SOL    HW234317   5.518   4.788   5.033  0.3187 -0.5736 -0.0544
 7282SOL     OW34318   3.402   1.031   7.717 -0.4810 -0.5227  0.0700
 7282SOL    HW134319   3.376   1.085   7.797 -0.6348 -0.5065  0.0089
 7282SOL    HW234320   3.323   0.980   7.684 -0.4991 -0.2795 -0.2667
 7283SOL     OW34321   0.440   5.740   4.646  0.2872 -0.7621  0.3482
 7283SOL    HW134322   0.508   5.813   4.652  0.2460 -0.5694 -1.1264
 7283SOL    HW234323   0.376   5.746   4.722  0.6070  0.4091  0.5264
 7284SOL     OW34324   3.185   4.980   2.410  0.2986 -0.0263 -0.1297
 7284SOL    HW134325   3.164   5.053   2.476  1.4241  1.3770 -1.2720
 7284SOL    HW234326   3.282   4.955   2.419  0.6584  0.7339 -1.7682
 7285SOL     OW34327   1.161   3.672   3.440 -0.3801 -0.1296 -0.5294
 7285SOL    HW134328   1.170   3.664   3.540 -1.0658  0.8812 -0.3796
 7285SOL    HW234329   1.113   3.591   3.405 -0.2351 -0.4353 -0.0338
 7286SOL     OW34330   0.127   6.903   1.872  0.7864 -0.0014  0.0709
 7286SOL    HW134331   0.063   6.865   1.805 -0.7707 -1.4512  2.2950
 7286SOL    HW234332   0.127   7.003   1.867  0.0539 -0.0753 -1.4860
 7287SOL     OW34333   0.206   2.990   4.932  0.2756  0.0814  0.1739
 7287SOL    HW134334   0.287   3.024   4.884  0.0745  0.2853 -0.0202
 7287SOL    HW234335   0.224   2.898   4.967  0.8472  0.4141  0.7645
 7288SOL     OW34336   6.662   7.671   7.047  0.2549  0.3548 -0.1586
 7288SOL    HW134337   6.688   7.607   6.975  1.0667 -0.1054  0.5297
 7288SOL    HW234338   6.728   7.747   7.049  0.2291  0.3701  0.0916
 7289SOL     OW34339   6.986   7.500   1.166 -0.0106 -0.0450 -0.0219
 7289SOL    HW134340   6.906   7.447   1.194  0.0884  0.1158  0.5864
 7289SOL    HW234341   6.972   7.597   1.188  0.9957 -0.2384  1.5910
 7290SOL     OW34342   5.693   0.893   7.995  0.4062 -0.6474 -0.9549
 7290SOL    HW134343   5.703   0.854   7.903  0.7574  1.2518 -1.7464
 7290SOL    HW234344   5.649   0.826   8.055  3.9123 -3.5480 -1.3827
 7291SOL     OW34345   1.925   8.662   8.529  0.0128  0.4329 -0.2788
 7291SOL    HW134346   1.855   8.730   8.505  0.0656  0.9266  0.9662
 7291SOL    HW234347   1.949   8.671   8.625  0.7428 -0.7049 -0.3475
 7292SOL     OW34348   7.874   2.760   2.579  0.0207 -0.6157 -0.1208
 7292SOL    HW134349   7.830   2.736   2.492 -0.8052 -0.6256  0.2960
 7292SOL    HW234350   7.953   2.818   2.561  0.1302 -1.0007 -0.9135
 7293SOL     OW34351   7.652   5.910   2.056  0.4624 -0.5132  0.2417
 7293SOL    HW134352   7.629   5.996   2.010  1.0625  0.4163  1.6680
 7293SOL    HW234353   7.582   5.842   2.033  0.0664  0.2820 -1.0427
 7294SOL     OW34354   1.721   6.666   6.989 -0.2254 -0.1019  0.0386
 7294SOL    HW134355   1.801   6.712   6.950 -0.9751  2.0174  0.9093
 7294SOL    HW234356   1.751   6.606   7.063  0.7179 -0.5509 -0.6898
 7295SOL     OW34357   2.797   5.343   4.268  0.1192 -0.1475  0.6984
 7295SOL    HW134358   2.864   5.417   4.263 -1.2742  1.1998  1.3452
 7295SOL    HW234359   2.790   5.298   4.179  0.8060  0.6607  0.2285
 7296SOL     OW34360   7.952   8.945   8.285  0.0518 -0.1304  0.3475
 7296SOL    HW134361   7.950   8.849   8.312 -0.0213 -0.5210 -1.0222
 7296SOL    HW234362   8.046   8.975   8.270 -0.0902 -0.7550 -1.8826
 7297SOL     OW34363   4.485   5.917   2.251  0.4327  0.3511  0.0945
 7297SOL    HW134364   4.418   5.844   2.260  0.0174  0.7374  0.1257
 7297SOL    HW234365   4.577   5.879   2.265  0.3166 -0.3868 -1.0334
 7298SOL     OW34366   2.821   4.957   8.781 -0.3256  0.5315  0.2598
 7298SOL    HW134367   2.831   5.056   8.778  0.5724  0.4521  0.3175
 7298SOL    HW234368   2.845   4.919   8.691  1.7578  0.1832  0.9175
 7299SOL     OW34369   2.857   6.504   8.821 -0.2202 -0.0441  0.2869
 7299SOL    HW134370   2.920   6.447   8.873  0.4643  1.5672  1.2394
 7299SOL    HW234371   2.767   6.504   8.865  0.4826  1.6906  1.7502
 7300SOL     OW34372   2.167   3.786   7.230  0.0405 -0.1390 -0.2474
 7300SOL    HW134373   2.146   3.815   7.136 -0.2614 -0.1276 -0.1761
 7300SOL    HW234374   2.202   3.692   7.229  1.0361  0.2217 -0.4834
 7301SOL     OW34375   7.087   3.793   7.125 -0.0845  0.0611  0.3846
 7301SOL    HW134376   7.051   3.885   7.138  0.5194  0.4565 -0.7184
 7301SOL    HW234377   7.034   3.729   7.181 -0.9260  0.9827  0.6637
 7302SOL     OW34378   8.022   6.195   6.863  0.3641 -0.1153 -0.1359
 7302SOL    HW134379   7.991   6.137   6.788 -1.5135  1.0876 -0.3041
 7302SOL    HW234380   8.074   6.139   6.928  0.2409 -1.5849 -1.2736
 7303SOL     OW34381   2.504   8.499   8.124  0.1320  0.5525  0.3974
 7303SOL    HW134382   2.432   8.434   8.148  0.8664 -0.2860  0.3206
 7303SOL    HW234383   2.462   8.586   8.098 -0.8630  0.0410  0.2634
 7304SOL     OW34384   5.559   4.077   7.267 -0.9392  0.3358  0.3657
 7304SOL    HW134385   5.653   4.075   7.301 -1.0281  1.3322  0.6889
 7304SOL    HW234386   5.558   4.051   7.171 -0.2001  1.2354  0.0999
 7305SOL     OW34387   8.481   7.901   0.031 -0.1820 -0.0796 -0.0229
 7305SOL    HW134388   8.485   7.955  -0.053 -0.3934  0.6961  0.4551
 7305SOL    HW234389   8.519   7.955   0.107  0.1134 -0.8121  0.3546
 7306SOL     OW34390   1.585   5.999   2.059 -0.0940  0.3509  0.2513
 7306SOL    HW134391   1.502   5.949   2.081  2.0867 -3.5067  0.1093
 7306SOL    HW234392   1.578   6.037   1.966 -1.4564 -0.4397  0.0215
 7307SOL     OW34393   4.651   3.035   5.805  0.1569 -0.4498  0.1615
 7307SOL    HW134394   4.689   2.981   5.730  2.0459 -1.3100  1.6759
 7307SOL    HW234395   4.615   2.973   5.875  2.3267  0.1941  1.9052
 7308SOL     OW34396   2.145   1.922   0.709 -0.1008 -0.2778  0.1671
 7308SOL    HW134397   2.194   2.009   0.704  0.5230 -0.6597 -0.5307
 7308SOL    HW234398   2.057   1.930   0.663  1.2934 -0.8962 -2.6715
 7309SOL     OW34399   1.341   5.623   2.960 -0.5432 -0.4425 -0.4772
 7309SOL    HW134400   1.344   5.537   2.909 -0.1658 -1.2055  0.8107
 7309SOL    HW234401   1.254   5.669   2.943 -1.0719 -1.4630 -0.5813
 7310SOL     OW34402   7.622   6.513   4.477  0.0492 -0.4972  0.3891
 7310SOL    HW134403   7.693   6.539   4.542 -0.8873  1.7871  0.5660
 7310SOL    HW234404   7.571   6.434   4.513  0.5865 -0.2746  1.6641
 7311SOL     OW34405   7.509   3.829   8.357 -0.2113  0.6037  0.6160
 7311SOL    HW134406   7.606   3.808   8.362  0.3057  2.4916 -1.0701
 7311SOL    HW234407   7.456   3.744   8.364  1.4320 -0.2361  3.7889
 7312SOL     OW34408   7.100   7.642   1.567 -0.0487 -0.3222  0.6209
 7312SOL    HW134409   7.110   7.687   1.478  1.4376  0.3524  1.1103
 7312SOL    HW234410   7.173   7.575   1.579  0.9978  1.0348  2.1521
 7313SOL     OW34411   6.155   5.011   3.530 -0.4146 -0.4665  0.0883
 7313SOL    HW134412   6.203   5.084   3.482 -1.1534 -0.8060 -1.1679
 7313SOL    HW234413   6.071   4.987   3.481 -0.5322 -1.6755  0.8563
 7314SOL     OW34414   1.275   6.507   1.170 -0.1560  0.3863  0.4517
 7314SOL    HW134415   1.213   6.504   1.249 -0.5304  1.3031  0.1993
 7314SOL    HW234416   1.370   6.514   1.202 -0.2250 -0.3585  0.8309
 7315SOL     OW34417   4.435   4.781   2.782 -0.2015 -0.3576 -0.5066
 7315SOL    HW134418   4.458   4.762   2.877 -2.0654 -0.2281 -0.0073
 7315SOL    HW234419   4.492   4.855   2.747  0.8987 -0.8130  0.3232
 7316SOL     OW34420   2.619   3.251   8.255  0.7966  0.1596  0.0118
 7316SOL    HW134421   2.545   3.185   8.248  0.3106  0.5055  1.6533
 7316SOL    HW234422   2.707   3.204   8.248  0.4520 -0.6701  1.1575
 7317SOL     OW34423   8.425   2.896   6.612  0.0149  0.6004  0.3861
 7317SOL    HW134424   8.448   2.992   6.596 -0.7596  0.4925 -1.6277
 7317SOL    HW234425   8.326   2.887   6.623 -0.3489 -0.3241 -2.8951
 7318SOL     OW34426   4.949   1.409   8.672  0.3780  0.2149 -0.4699
 7318SOL    HW134427   4.880   1.482   8.667 -0.2851 -0.3889 -0.2268
 7318SOL    HW234428   4.909   1.324   8.639  1.4922  0.1954 -1.8129
 7319SOL     OW34429   4.436   8.693   7.987 -0.2733 -0.4365  0.1360
 7319SOL    HW134430   4.399   8.747   8.063  2.5267  0.4732  0.9200
 7319SOL    HW234431   4.443   8.597   8.015 -2.3021 -0.6974 -0.1558
 7320SOL     OW34432   8.158   0.783   1.841 -0.4289  0.2999  0.0776
 7320SOL    HW134433   8.151   0.843   1.920  0.3636  0.7405 -0.1827
 7320SOL    HW234434   8.159   0.687   1.871 -0.3499  0.4622  0.5874
 7321SOL     OW34435   4.754   4.800   4.960 -0.2431 -0.0407 -0.2501
 7321SOL    HW134436   4.750   4.706   4.924  0.1139  0.5911 -1.9759
 7321SOL    HW234437   4.713   4.802   5.052  0.6044 -2.0597  0.2018
 7322SOL     OW34438   2.091   4.969   1.498  0.0398  0.0458  0.0142
 7322SOL    HW134439   2.117   4.943   1.591 -0.5999 -0.5912  0.0248
 7322SOL    HW234440   2.068   5.066   1.495  1.8063  0.4843  0.1325
 7323SOL     OW34441   3.326   8.469   3.133 -0.2835  0.9879  0.3681
 7323SOL    HW134442   3.300   8.488   3.227 -0.4241 -2.1999  1.0347
 7323SOL    HW234443   3.252   8.420   3.087  0.3856  1.1795 -0.9501
 7324SOL     OW34444   3.449   3.025   2.226 -0.3366  0.1388 -0.5968
 7324SOL    HW134445   3.464   3.111   2.275 -0.0472  0.6536 -1.5836
 7324SOL    HW234446   3.535   2.975   2.220 -0.5075 -0.2309 -0.0131
 7325SOL     OW34447   1.664   7.310   5.696 -0.0935  0.6711  0.1095
 7325SOL    HW134448   1.718   7.340   5.617 -0.2433  0.1562 -0.1900
 7325SOL    HW234449   1.720   7.317   5.779 -0.2356  2.1050  0.1048
 7326SOL     OW34450   3.569   2.699   4.688 -0.7634 -0.0900  0.1233
 7326SOL    HW134451   3.491   2.673   4.745 -0.3622 -1.3492  0.1318
 7326SOL    HW234452   3.549   2.676   4.592 -1.2120  1.4910 -0.1660
 7327SOL     OW34453   3.614   3.741   6.447  0.4788  0.3519  0.4914
 7327SOL    HW134454   3.517   3.741   6.470 -0.0720  2.3648 -1.6573
 7327SOL    HW234455   3.643   3.649   6.423 -0.6542 -0.4305  2.0364
 7328SOL     OW34456   7.193   1.555   1.017 -0.0759 -0.3703  0.3523
 7328SOL    HW134457   7.098   1.527   1.005  0.2864 -1.0743 -0.8869
 7328SOL    HW234458   7.205   1.590   1.110 -1.3590 -0.9738  0.7604
 7329SOL     OW34459   7.075   8.103   0.385  0.2658  0.0231 -0.3630
 7329SOL    HW134460   7.089   8.006   0.362 -1.0516  0.0926 -1.5513
 7329SOL    HW234461   7.047   8.111   0.481  0.7952 -0.7380 -0.1417
 7330SOL     OW34462   3.822   3.607   2.345 -0.2763  0.0656  0.0077
 7330SOL    HW134463   3.723   3.616   2.333 -0.1947  0.0431 -0.7073
 7330SOL    HW234464   3.864   3.582   2.258  0.5922  1.9586 -0.1489
 7331SOL     OW34465   7.510   3.851   8.659 -0.4802 -0.1182  0.8285
 7331SOL    HW134466   7.564   3.924   8.617 -0.7081  0.0587  0.8417
 7331SOL    HW234467   7.454   3.807   8.589 -0.5260 -0.1170  0.8652
 7332SOL     OW34468   1.767   7.428   5.471  0.1913  0.1324  0.7459
 7332SOL    HW134469   1.722   7.455   5.386 -0.0851 -0.0733  0.8287
 7332SOL    HW234470   1.859   7.467   5.473  0.7292 -1.0486 -0.3045
 7333SOL     OW34471   8.938   0.445   1.090 -0.2062  0.2424 -0.4510
 7333SOL    HW134472   9.008   0.496   1.140 -0.8214  1.5301 -0.9021
 7333SOL    HW234473   8.879   0.397   1.155  1.3734 -1.2661 -0.0728
 7334SOL     OW34474   6.860   5.876   5.927 -0.0704  0.2033  0.4339
 7334SOL    HW134475   6.795   5.871   5.851  0.6086 -2.0867 -0.0298
 7334SOL    HW234476   6.901   5.967   5.930 -0.5432  0.5033 -1.5939
 7335SOL     OW34477   1.401   6.420   6.394  0.0584 -0.7223 -0.0136
 7335SOL    HW134478   1.324   6.388   6.339 -0.8110 -0.3591  0.9697
 7335SOL    HW234479   1.459   6.479   6.338  0.0027 -1.5489 -0.9566
 7336SOL     OW34480   1.823   5.366   4.807 -0.5397 -0.3855 -0.9425
 7336SOL    HW134481   1.738   5.318   4.828 -0.0910 -0.9688 -0.4808
 7336SOL    HW234482   1.826   5.453   4.856  0.4146 -1.6403  1.2837
 7337SOL     OW34483   2.345   3.846   0.019 -0.1176 -0.1590 -0.2827
 7337SOL    HW134484   2.284   3.866  -0.058 -0.4702  0.3852  0.1322
 7337SOL    HW234485   2.417   3.915   0.023 -0.4968  0.2087  0.2821
 7338SOL     OW34486   3.205   1.444   7.570 -0.6220  0.8395  0.3292
 7338SOL    HW134487   3.169   1.462   7.661 -0.4348 -0.0990  0.5949
 7338SOL    HW234488   3.145   1.486   7.502 -3.2864 -2.2042  0.6676
 7339SOL     OW34489   0.347   4.052   4.370  0.4687  0.0167  0.0174
 7339SOL    HW134490   0.330   3.996   4.452  0.9879  0.6224  0.5492
 7339SOL    HW234491   0.260   4.074   4.326  0.2695 -1.3322 -0.2877
 7340SOL     OW34492   4.428   0.986   0.305 -0.2974 -0.3711 -0.2139
 7340SOL    HW134493   4.416   1.025   0.213  0.2495 -1.4772 -0.7592
 7340SOL    HW234494   4.365   0.910   0.318  0.6746 -1.1991 -0.2418
 7341SOL     OW34495   5.911   6.704   1.085  0.3530  0.2195 -0.4698
 7341SOL    HW134496   5.995   6.673   1.130  0.2756  2.1574  1.0667
 7341SOL    HW234497   5.920   6.801   1.062 -0.8872  0.0514 -1.7098
 7342SOL     OW34498   8.237   4.907   8.734 -0.1818  0.2442 -0.0367
 7342SOL    HW134499   8.204   4.818   8.767 -0.2607 -0.1325 -1.0926
 7342SOL    HW234500   8.337   4.906   8.730 -0.2065 -0.0219 -0.6455
 7343SOL     OW34501   0.293   4.176   1.831 -0.7893  0.0802 -0.0816
 7343SOL    HW134502   0.265   4.271   1.824 -0.7291 -0.0251 -1.9146
 7343SOL    HW234503   0.365   4.156   1.764 -2.6828 -1.9025 -1.6065
 7344SOL     OW34504   5.481   1.480   2.242  0.6995  0.4691 -0.2629
 7344SOL    HW134505   5.447   1.386   2.250 -1.8958  1.4043  0.5185
 7344SOL    HW234506   5.513   1.511   2.332  0.4562  0.7198 -0.2636
 7345SOL     OW34507   6.148   5.214   4.393  0.5056 -0.0118 -0.5669
 7345SOL    HW134508   6.100   5.140   4.346 -1.6549  0.6534  0.5404
 7345SOL    HW234509   6.181   5.281   4.326 -0.5521 -0.2314 -1.3103
 7346SOL     OW34510   8.036   0.406   7.115 -0.2742 -0.3401  0.2235
 7346SOL    HW134511   8.076   0.494   7.140  0.6951 -1.1079  1.4367
 7346SOL    HW234512   7.942   0.401   7.148 -0.0722 -0.0575  0.8495
 7347SOL     OW34513   2.809   6.654   5.501  0.4286 -0.3930  1.0451
 7347SOL    HW134514   2.760   6.734   5.469  2.0183  1.0442  2.1375
 7347SOL    HW234515   2.865   6.617   5.426  1.7062  1.0886  1.2485
 7348SOL     OW34516   1.131   3.549   6.656 -1.4675 -0.2255  1.1115
 7348SOL    HW134517   1.132   3.562   6.556 -3.2060  2.1514  1.3490
 7348SOL    HW234518   1.137   3.452   6.677  1.3943 -0.6466 -1.2305
 7349SOL     OW34519   0.772   5.691   8.895  0.8019  0.1794  0.1279
 7349SOL    HW134520   0.769   5.598   8.930  1.3134  0.2795  0.4555
 7349SOL    HW234521   0.863   5.730   8.911  0.1735  1.2258  1.2999
 7350SOL     OW34522   3.197   6.550   4.144  0.5158 -0.9112 -0.1672
 7350SOL    HW134523   3.203   6.554   4.044 -0.7803  1.4229 -0.1963
 7350SOL    HW234524   3.281   6.586   4.184  0.5132 -0.6194 -0.4222
 7351SOL     OW34525   7.911   8.141   1.284 -0.1791  0.0113 -0.8891
 7351SOL    HW134526   7.858   8.064   1.249 -0.9189  0.2277 -0.2713
 7351SOL    HW234527   7.852   8.199   1.341  0.9410 -0.2129  0.5393
 7352SOL     OW34528   5.224   6.018   6.349  0.2256  0.0888  0.0683
 7352SOL    HW134529   5.274   6.058   6.272 -0.1293 -0.7826 -0.6195
 7352SOL    HW234530   5.236   5.919   6.348  0.9290  0.1485  1.6372
 7353SOL     OW34531   7.501   2.864   2.483 -0.5726  0.3390  0.2626
 7353SOL    HW134532   7.503   2.916   2.569  0.2452  0.6422  0.0641
 7353SOL    HW234533   7.574   2.896   2.423 -0.0119 -1.0959  0.1601
 7354SOL     OW34534   5.832   6.778   0.615  0.7036  0.4890 -0.1751
 7354SOL    HW134535   5.786   6.860   0.582  1.7055  1.8820  1.7607
 7354SOL    HW234536   5.813   6.702   0.554 -4.0329  1.0228  0.5036
 7355SOL     OW34537   0.535   5.467   4.955  0.8393 -0.3816  0.7033
 7355SOL    HW134538   0.574   5.453   5.046  1.3377  2.2525  0.9425
 7355SOL    HW234539   0.541   5.564   4.932 -1.3298 -0.6897 -1.2201
 7356SOL     OW34540   4.476   7.933   4.185 -0.0059  0.0024  0.3772
 7356SOL    HW134541   4.496   8.017   4.236  0.8365 -0.1379  0.2769
 7356SOL    HW234542   4.440   7.863   4.247  0.5959 -0.0185  0.6979
 7357SOL     OW34543   7.858   5.582   0.774 -0.3178 -0.8993  0.4121
 7357SOL    HW134544   7.900   5.542   0.692 -0.8101 -2.2743  0.8200
 7357SOL    HW234545   7.769   5.619   0.751  0.0124 -0.3050  0.0915
 7358SOL     OW34546   6.618   2.063   6.745  0.2401  0.0951  0.6694
 7358SOL    HW134547   6.528   2.029   6.773  0.5323 -0.9064  0.4119
 7358SOL    HW234548   6.607   2.135   6.676 -0.3439 -0.8692 -0.2680
 7359SOL     OW34549   3.807   7.186   4.244 -0.6512 -0.0863  0.5885
 7359SOL    HW134550   3.724   7.214   4.197 -0.2799  0.8640  0.4789
 7359SOL    HW234551   3.885   7.197   4.183 -0.5768 -2.0735  0.2999
 7360SOL     OW34552   1.613   8.478   8.029 -0.0135  0.2473 -0.2800
 7360SOL    HW134553   1.550   8.459   7.954 -0.6669  3.8847 -0.7250
 7360SOL    HW234554   1.576   8.438   8.113 -0.6382 -1.5090 -1.3529
 7361SOL     OW34555   2.265   5.853   4.519  0.4337 -0.2821  0.3191
 7361SOL    HW134556   2.269   5.803   4.606 -0.7432 -0.5515  0.2388
 7361SOL    HW234557   2.338   5.821   4.458 -0.0496 -1.6286  0.4252
 7362SOL     OW34558   2.430   5.775   2.696  0.1579  0.5201  0.2353
 7362SOL    HW134559   2.518   5.821   2.689 -0.5111  1.7509 -0.2989
 7362SOL    HW234560   2.375   5.796   2.615 -0.7578  0.0530  0.7290
 7363SOL     OW34561   5.532   8.707   4.526  0.1105  0.1824 -0.3304
 7363SOL    HW134562   5.618   8.738   4.567 -0.1762  0.7317 -0.1373
 7363SOL    HW234563   5.502   8.773   4.458  0.5193 -0.6671 -1.3411
 7364SOL     OW34564   1.969   6.772   6.871 -0.3656 -0.3526 -0.5668
 7364SOL    HW134565   1.986   6.694   6.811  1.0651 -1.3636  1.1055
 7364SOL    HW234566   1.893   6.826   6.835 -0.3749 -1.6634 -2.5614
 7365SOL     OW34567   8.590   3.139   4.306 -0.4185 -0.0727  0.1201
 7365SOL    HW134568   8.614   3.063   4.246 -2.4779 -0.6039 -0.0693
 7365SOL    HW234569   8.582   3.222   4.252  1.9849  0.3469  0.3503
 7366SOL     OW34570   0.740   3.003   3.840  0.4641 -0.1442  0.3790
 7366SOL    HW134571   0.704   3.059   3.914  1.7596  1.7091 -0.3556
 7366SOL    HW234572   0.836   2.982   3.858 -0.1980 -2.7913  1.0081
 7367SOL     OW34573   1.719   0.173   1.465  0.3649 -0.4791 -0.1718
 7367SOL    HW134574   1.664   0.090   1.452  0.6715 -1.0431  1.9804
 7367SOL    HW234575   1.806   0.149   1.508  0.7057  0.9055 -0.0546
 7368SOL     OW34576   8.951   5.222   2.213  0.4172 -0.0576  0.4327
 7368SOL    HW134577   8.935   5.318   2.189  1.2236 -0.3331 -1.2506
 7368SOL    HW234578   9.028   5.217   2.277  0.9565  0.3490 -0.1733
 7369SOL     OW34579   4.351   7.541   0.180 -0.1102  0.1381 -0.0689
 7369SOL    HW134580   4.336   7.616   0.116 -0.5009  0.0612 -0.0702
 7369SOL    HW234581   4.440   7.498   0.162 -1.6066 -1.9537 -2.6846
 7370SOL     OW34582   6.765   0.194   8.211 -0.1122  0.1657  0.1086
 7370SOL    HW134583   6.770   0.150   8.121 -0.3642  0.1169  0.1177
 7370SOL    HW234584   6.850   0.245   8.228  0.4672 -0.9025  0.4103
 7371SOL     OW34585   4.776   8.070   7.684  0.2404 -0.0893 -0.1938
 7371SOL    HW134586   4.846   8.138   7.702 -0.4064  1.2344 -2.5825
 7371SOL    HW234587   4.688   8.103   7.718  0.6496 -1.5926  2.4746
 7372SOL     OW34588   2.387   0.680   7.124  0.2544  0.2738 -0.1747
 7372SOL    HW134589   2.363   0.602   7.182 -0.9235 -0.4889 -1.6709
 7372SOL    HW234590   2.332   0.679   7.041  0.9385  2.1467 -0.6848
 7373SOL     OW34591   3.534   0.769   6.070 -0.3500 -0.2010 -0.0917
 7373SOL    HW134592   3.561   0.836   6.139  3.6087 -1.6034 -0.1690
 7373SOL    HW234593   3.507   0.816   5.986  1.0355  1.3202  0.3069
 7374SOL     OW34594   4.993   4.451   1.364  0.4803  0.5240 -0.5477
 7374SOL    HW134595   5.003   4.351   1.366  1.5105  0.6531  1.3168
 7374SOL    HW234596   4.974   4.480   1.270 -1.0793 -1.5360 -0.9253
 7375SOL     OW34597   1.429   2.059   7.217 -0.4255  0.1022  0.8765
 7375SOL    HW134598   1.453   2.089   7.310  1.6813  0.5496  0.2334
 7375SOL    HW234599   1.423   2.139   7.158 -0.8696 -0.2541  0.4462
 7376SOL     OW34600   8.177   3.838   7.158 -0.5662  0.2419  0.1909
 7376SOL    HW134601   8.234   3.825   7.239  1.6973 -0.2276 -1.4242
 7376SOL    HW234602   8.217   3.910   7.100 -0.6247 -1.3182 -1.8302
 7377SOL     OW34603   0.052   3.843   3.596 -0.6945  0.5815  0.2163
 7377SOL    HW134604   0.071   3.918   3.533 -0.2130 -0.5826 -1.0539
 7377SOL    HW234605  -0.037   3.857   3.640 -1.6933  0.6842 -1.8005
 7378SOL     OW34606   1.497   2.999   2.106  0.1162 -0.2021  0.3761
 7378SOL    HW134607   1.596   3.013   2.099  0.1469  0.1382  1.3926
 7378SOL    HW234608   1.479   2.929   2.175 -0.3115 -0.9352 -0.4780
 7379SOL     OW34609   3.055   1.897   1.829  0.3644  0.2346 -0.2740
 7379SOL    HW134610   2.968   1.850   1.846  1.0612 -1.7994 -2.1073
 7379SOL    HW234611   3.116   1.884   1.907 -0.1387 -0.3595  0.0237
 7380SOL     OW34612   1.334   2.451   0.707  0.0386 -0.4613 -0.3693
 7380SOL    HW134613   1.343   2.548   0.681 -1.4835  0.5942  2.7837
 7380SOL    HW234614   1.425   2.414   0.727  0.4834  0.9039  0.2577
 7381SOL     OW34615   4.245   7.189   2.662 -0.3448 -0.0820 -0.5654
 7381SOL    HW134616   4.202   7.279   2.669 -1.1482 -0.3665 -1.6697
 7381SOL    HW234617   4.289   7.166   2.749  0.7685  1.8296 -0.5969
 7382SOL     OW34618   1.914   2.749   4.205 -0.0630  0.0712  0.1004
 7382SOL    HW134619   1.953   2.711   4.121  0.0220 -2.0013  1.0421
 7382SOL    HW234620   1.983   2.804   4.252  0.8027 -1.1524  0.2780
 7383SOL     OW34621   4.210   4.479   6.492  0.4913 -0.1239 -0.1828
 7383SOL    HW134622   4.270   4.401   6.506  0.5473  0.0639  0.6723
 7383SOL    HW234623   4.115   4.452   6.507  0.4841 -0.1019 -0.1842
 7384SOL     OW34624   1.808   2.407   7.793  0.0309  0.2524  0.2663
 7384SOL    HW134625   1.760   2.347   7.729 -1.5506  0.7947  0.9398
 7384SOL    HW234626   1.811   2.500   7.755  1.6044 -0.0140 -0.3161
 7385SOL     OW34627   4.890   5.939   3.119  0.1569  0.4810  0.0476
 7385SOL    HW134628   4.953   5.970   3.189  0.0602 -0.1935  0.4365
 7385SOL    HW234629   4.801   5.982   3.133 -0.2179 -0.5970  1.0954
 7386SOL     OW34630   1.708   2.948   6.837  0.3055 -0.3472  0.2130
 7386SOL    HW134631   1.615   2.915   6.856 -0.0614  1.0642  0.9688
 7386SOL    HW234632   1.770   2.918   6.909  0.3753 -0.9793 -0.1016
 7387SOL     OW34633   2.668   3.154   4.815 -0.5042 -0.1006 -0.1591
 7387SOL    HW134634   2.719   3.125   4.734 -1.3461  1.1485 -1.1531
 7387SOL    HW234635   2.579   3.107   4.818 -1.1625  1.0769 -0.8622
 7388SOL     OW34636   8.710   3.892   7.210 -0.0378 -0.1513 -0.0204
 7388SOL    HW134637   8.664   3.854   7.291  0.5373 -2.2742 -0.6608
 7388SOL    HW234638   8.805   3.911   7.232 -0.5310  1.7446  0.5398
 7389SOL     OW34639   1.975   2.725   5.173  0.3325 -0.1581  0.3649
 7389SOL    HW134640   2.041   2.729   5.098  0.3490  0.2137  0.4001
 7389SOL    HW234641   1.953   2.629   5.193 -1.6769 -0.2273 -1.8950
 7390SOL     OW34642   3.989   1.549   1.325  0.2844 -0.0600  0.3053
 7390SOL    HW134643   3.966   1.607   1.403  1.3397 -0.0290  0.5918
 7390SOL    HW234644   4.079   1.509   1.338 -0.2492 -1.4304 -0.0906
 7391SOL     OW34645   3.409   8.105   5.373 -0.2742 -0.0848 -0.4017
 7391SOL    HW134646   3.353   8.119   5.291  0.3242  0.2564 -0.7635
 7391SOL    HW234647   3.476   8.032   5.354 -0.8592 -0.7680  0.1596
 7392SOL     OW34648   8.567   8.837   7.031  0.4406 -0.2521  0.2314
 7392SOL    HW134649   8.637   8.766   7.037  0.5022 -0.3145 -1.1413
 7392SOL    HW234650   8.479   8.800   7.060  0.6666 -0.5954  0.4830
 7393SOL     OW34651   5.516   1.137   6.936  0.0774 -0.7348  0.3667
 7393SOL    HW134652   5.465   1.060   6.899  1.8459 -2.2038  0.8954
 7393SOL    HW234653   5.574   1.176   6.865  0.4833 -1.0226  0.5324
 7394SOL     OW34654   1.589   1.770   2.422 -0.6222  0.0044 -0.7464
 7394SOL    HW134655   1.557   1.851   2.373 -1.1105  0.2606  0.0034
 7394SOL    HW234656   1.534   1.691   2.395 -0.6575  0.0726 -0.8761
 7395SOL     OW34657   4.246   6.394   3.618 -0.1521  1.2693  0.0250
 7395SOL    HW134658   4.310   6.325   3.650  0.6107  2.7504  1.8112
 7395SOL    HW234659   4.277   6.430   3.530 -0.0861 -0.0220 -0.4892
 7396SOL     OW34660   7.483   5.619   6.478  0.7020  0.0188  0.4639
 7396SOL    HW134661   7.529   5.536   6.507  0.9324 -0.0450 -0.0827
 7396SOL    HW234662   7.416   5.646   6.547  0.1861 -0.9595  0.3501
 7397SOL     OW34663   6.509   1.373   2.690  0.1590 -0.3061  0.7235
 7397SOL    HW134664   6.424   1.386   2.640 -0.0677 -2.4313  0.4841
 7397SOL    HW234665   6.488   1.345   2.784  0.5780 -0.5313  0.7516
 7398SOL     OW34666   4.350   1.824   4.201  0.0104  0.1037  0.1496
 7398SOL    HW134667   4.415   1.805   4.274 -0.3433 -1.4399  0.0823
 7398SOL    HW234668   4.264   1.855   4.240  0.6331  1.7163  0.2592
 7399SOL     OW34669   7.058   5.785   8.128  0.0515  0.2897 -0.7112
 7399SOL    HW134670   6.974   5.740   8.097 -0.0815  0.2365 -0.2757
 7399SOL    HW234671   7.124   5.716   8.157 -0.1140  0.3778 -0.1384
 7400SOL     OW34672   2.829   8.236   5.232 -0.1028 -0.2594  0.5642
 7400SOL    HW134673   2.796   8.142   5.226  2.1037 -1.0691  0.5444
 7400SOL    HW234674   2.907   8.247   5.170  0.8188  1.0629  1.9262
 7401SOL     OW34675   7.389   1.738   3.757 -0.1078  0.2911  0.2632
 7401SOL    HW134676   7.360   1.684   3.678  0.5863 -1.1188  0.9473
 7401SOL    HW234677   7.391   1.835   3.732  0.7211 -0.1836 -1.6523
 7402SOL     OW34678   3.630   2.148   8.484  0.3431  0.0290  0.6135
 7402SOL    HW134679   3.702   2.121   8.420 -0.0604  0.3914  0.0063
 7402SOL    HW234680   3.549   2.176   8.433  0.5978  1.9697  1.2433
 7403SOL     OW34681   2.064   4.891   0.663  0.4764  0.0262  0.2964
 7403SOL    HW134682   2.043   4.847   0.750 -0.2692 -1.0076 -0.3971
 7403SOL    HW234683   1.985   4.885   0.602  0.9485  0.8513 -0.4034
 7404SOL     OW34684   3.775   4.937   5.185 -0.0901 -0.2535  0.5421
 7404SOL    HW134685   3.840   4.982   5.247 -0.9611 -1.7779  2.6467
 7404SOL    HW234686   3.821   4.913   5.100  1.7544 -0.0773  1.4674
 7405SOL     OW34687   3.565   8.899   1.037  0.2540  0.1234  0.5431
 7405SOL    HW134688   3.656   8.900   0.997  1.3317  0.8058  2.8873
 7405SOL    HW234689   3.510   8.972   0.996  0.6638 -0.4516 -1.0624
 7406SOL     OW34690   2.256   4.615   2.272  0.1103 -0.1821 -0.7804
 7406SOL    HW134691   2.183   4.684   2.265  0.7249  0.4101 -1.3413
 7406SOL    HW234692   2.274   4.576   2.182  1.2808  0.4933 -0.8430
 7407SOL     OW34693   8.898   1.427   8.779  0.1570  0.2923 -0.5926
 7407SOL    HW134694   8.926   1.468   8.866  0.3123 -0.6656 -0.1834
 7407SOL    HW234695   8.869   1.333   8.795 -0.2015  0.2466 -1.5203
 7408SOL     OW34696   4.883   3.372   5.550 -0.2296  0.3268 -0.0412
 7408SOL    HW134697   4.797   3.343   5.594 -0.2366  0.3372 -0.0474
 7408SOL    HW234698   4.877   3.468   5.525 -1.6895 -0.5897 -3.5601
 7409SOL     OW34699   6.163   6.151   6.541 -0.0154  0.4220  0.1972
 7409SOL    HW134700   6.169   6.222   6.472 -2.1710 -1.1002 -1.6185
 7409SOL    HW234701   6.248   6.098   6.542  0.5332  1.2856 -0.3501
 7410SOL     OW34702   4.373   6.193   3.797  0.4134 -0.1918 -0.2660
 7410SOL    HW134703   4.336   6.234   3.880 -1.1205 -1.0245 -0.5185
 7410SOL    HW234704   4.465   6.158   3.815  0.0538 -0.4644  1.1265
 7411SOL     OW34705   5.436   4.532   5.104  0.2822  0.2302  0.2885
 7411SOL    HW134706   5.352   4.477   5.095 -0.0691  0.7962  0.1031
 7411SOL    HW234707   5.479   4.541   5.014  0.4221  0.1366  0.3450
 7412SOL     OW34708   7.110   6.320   2.907 -0.7086  0.4589  0.1120
 7412SOL    HW134709   7.103   6.282   2.815 -0.7163  0.7419 -0.0043
 7412SOL    HW234710   7.172   6.399   2.906  0.4356 -0.4142  0.6273
 7413SOL     OW34711   4.396   1.073   3.991  0.0604 -0.1411  0.0694
 7413SOL    HW134712   4.401   1.028   4.080  0.9567  1.4369  0.8336
 7413SOL    HW234713   4.483   1.063   3.943  0.2407  0.7071  0.2130
 7414SOL     OW34714   0.050   7.710   6.504  0.6638  0.1906  0.0398
 7414SOL    HW134715   0.039   7.770   6.583 -0.3844  0.8775 -0.6140
 7414SOL    HW234716   0.131   7.652   6.517 -0.2490 -0.6712  2.2389
 7415SOL     OW34717   1.410   8.842   3.730  0.1701 -0.4039  0.0655
 7415SOL    HW134718   1.411   8.882   3.638 -0.5693 -0.2230  0.1321
 7415SOL    HW234719   1.369   8.906   3.794 -0.2866 -0.9440  0.3190
 7416SOL     OW34720   3.043   1.434   1.303 -0.0313  0.7015  0.3695
 7416SOL    HW134721   3.024   1.354   1.359 -0.3404  0.8736  0.5082
 7416SOL    HW234722   3.044   1.407   1.206  0.1411  0.4793  0.4309
 7417SOL     OW34723   2.522   5.090   3.384  0.0716 -0.0833  0.0715
 7417SOL    HW134724   2.587   5.091   3.460  0.3073 -0.8675 -0.1094
 7417SOL    HW234725   2.491   4.996   3.369 -0.1160  0.0973 -0.6770
 7418SOL     OW34726   8.702   8.695   1.527 -0.1569 -0.6521 -0.2093
 7418SOL    HW134727   8.627   8.753   1.494  0.2518  1.2705  2.1032
 7418SOL    HW234728   8.665   8.618   1.578 -0.5921  0.0969  0.6191
 7419SOL     OW34729   4.136   3.936   0.841  0.0985  0.0113  0.0026
 7419SOL    HW134730   4.160   3.933   0.938  1.7553  0.1631 -0.3928
 7419SOL    HW234731   4.185   3.864   0.792 -0.6978 -0.0384 -0.7416
 7420SOL     OW34732   4.996   3.877   1.222  0.3387  0.2793 -0.1633
 7420SOL    HW134733   5.059   3.876   1.300 -1.7890 -0.2887  1.5917
 7420SOL    HW234734   5.006   3.964   1.173  0.7053  1.2500  1.5863
 7421SOL     OW34735   2.748   0.059   3.263  0.1957  0.0562  0.2680
 7421SOL    HW134736   2.750  -0.035   3.295 -1.2347 -0.6666 -1.6761
 7421SOL    HW234737   2.656   0.096   3.275  0.4471  0.8061 -0.0926
 7422SOL     OW34738   4.351   0.212   3.569  0.2036 -0.4217 -0.4684
 7422SOL    HW134739   4.335   0.239   3.474 -1.4764  3.5519  0.7957
 7422SOL    HW234740   4.270   0.165   3.605 -0.4084  0.8376 -0.1594
 7423SOL     OW34741   3.654   4.002   6.004 -0.3976  0.3082  0.0598
 7423SOL    HW134742   3.697   3.917   5.973  1.1606  0.8925  0.5738
 7423SOL    HW234743   3.669   4.012   6.102 -1.3444  0.7353  0.1552
 7424SOL     OW34744   1.134   3.539   8.767  0.1910  0.1103 -0.2836
 7424SOL    HW134745   1.211   3.591   8.805 -0.5795  0.5148  0.7744
 7424SOL    HW234746   1.100   3.475   8.836  0.6009 -1.2228 -1.3016
 7425SOL     OW34747   2.049   2.375   4.992  0.3452  0.0752  0.6795
 7425SOL    HW134748   2.091   2.466   4.985 -0.8954  0.6118  0.1364
 7425SOL    HW234749   1.986   2.374   5.070 -0.2793 -0.0495  0.1813
 7426SOL     OW34750   3.274   7.750   3.425  0.3597 -0.1519  0.7243
 7426SOL    HW134751   3.286   7.846   3.449 -0.8852  0.0307  0.6713
 7426SOL    HW234752   3.211   7.707   3.491  0.8954 -0.9200  0.7374
 7427SOL     OW34753   2.582   8.098   7.747 -0.5147  0.3453 -0.2960
 7427SOL    HW134754   2.608   8.017   7.799  0.4830 -0.0209 -1.3424
 7427SOL    HW234755   2.563   8.174   7.810  0.9884  0.0035  0.5873
 7428SOL     OW34756   0.348   1.685   7.867 -0.3175  0.1382 -0.5930
 7428SOL    HW134757   0.437   1.640   7.859 -0.1400  0.6687 -1.7035
 7428SOL    HW234758   0.282   1.640   7.808 -0.5071  0.4178 -0.5958
 7429SOL     OW34759   6.569   6.110   2.841  0.2128 -0.4662  0.6346
 7429SOL    HW134760   6.505   6.182   2.813  0.5220  0.6127  2.6230
 7429SOL    HW234761   6.543   6.024   2.797 -0.4848  0.7225 -1.3575
 7430SOL     OW34762   7.474   8.287   6.441 -0.0867 -0.0654  0.0189
 7430SOL    HW134763   7.375   8.302   6.446 -0.1198  0.5333 -2.1627
 7430SOL    HW234764   7.495   8.224   6.367  1.1500 -0.5311  0.7561
 7431SOL     OW34765   3.849   2.247   7.187  0.2664 -0.1786  0.2242
 7431SOL    HW134766   3.847   2.246   7.087  0.2600  0.0637  0.2209
 7431SOL    HW234767   3.782   2.313   7.222 -0.7946 -1.3462  0.4329
 7432SOL     OW34768   1.552   7.904   2.288 -0.7120 -0.0640 -0.0561
 7432SOL    HW134769   1.634   7.958   2.270  0.0851 -1.7110 -1.5353
 7432SOL    HW234770   1.473   7.948   2.245  0.1075 -0.5789 -2.1548
 7433SOL     OW34771   5.332   0.518   0.072  0.0479 -0.5131 -0.4251
 7433SOL    HW134772   5.404   0.565   0.124 -0.1541 -0.0166 -0.5909
 7433SOL    HW234773   5.326   0.559  -0.019  0.3844 -1.3666 -0.8306
 7434SOL     OW34774   2.686   1.731   0.667  0.1086  0.3743 -0.2898
 7434SOL    HW134775   2.656   1.806   0.725  1.4930  0.9765 -0.3384
 7434SOL    HW234776   2.785   1.732   0.659  0.0296 -0.4722 -1.6359
 7435SOL     OW34777   4.564   8.995   1.151 -0.1187  0.1187  0.0625
 7435SOL    HW134778   4.517   9.024   1.068 -0.9789  1.8877  1.1188
 7435SOL    HW234779   4.508   8.929   1.200 -0.5606  0.6299  0.2540
 7436SOL     OW34780   1.104   1.048   7.957 -0.2263 -0.2063  0.4359
 7436SOL    HW134781   1.151   1.035   7.869  1.5886 -2.0190  1.6281
 7436SOL    HW234782   1.080   1.145   7.968  0.1699  0.1620 -1.7328
 7437SOL     OW34783   1.506   7.533   4.087  0.2199 -0.4301  0.1158
 7437SOL    HW134784   1.423   7.495   4.129  0.2996 -1.6442 -0.7992
 7437SOL    HW234785   1.581   7.529   4.153  0.6079 -3.2975 -0.4304
 7438SOL     OW34786   3.668   4.049   8.323  0.6836  0.3787  0.9417
 7438SOL    HW134787   3.726   3.986   8.374  0.3628 -0.1141  0.7010
 7438SOL    HW234788   3.579   4.057   8.369 -0.6379 -2.2208 -0.9944
 7439SOL     OW34789   7.639   4.151   3.091 -0.3365 -0.3820 -0.6613
 7439SOL    HW134790   7.555   4.204   3.093  0.9239  1.6247  1.7922
 7439SOL    HW234791   7.709   4.197   3.145  1.8625 -2.8306 -1.3074
 7440SOL     OW34792   4.611   0.577   3.280  0.1777 -0.2486  0.5856
 7440SOL    HW134793   4.514   0.577   3.305  0.5058  0.5445  1.9108
 7440SOL    HW234794   4.622   0.617   3.189 -0.5914  1.0185  1.0476
 7441SOL     OW34795   3.442   2.476   5.825  0.0575  0.2677  0.2622
 7441SOL    HW134796   3.474   2.550   5.884 -1.4837  1.0015  0.2069
 7441SOL    HW234797   3.442   2.507   5.730  0.7294 -0.2820  0.0745
 7442SOL     OW34798   0.765   1.948   2.377  0.2213  0.4792  0.4376
 7442SOL    HW134799   0.681   1.962   2.429 -1.0974  1.6449 -1.8853
 7442SOL    HW234800   0.755   1.868   2.318  0.5211  0.9506 -0.2611
 7443SOL     OW34801   3.102   3.435   7.256 -0.0666  0.2045  0.3452
 7443SOL    HW134802   3.167   3.432   7.180 -0.9781 -2.8422 -0.4023
 7443SOL    HW234803   3.026   3.496   7.233  1.3611  1.9928  0.2783
 7444SOL     OW34804   7.141   4.855   1.086  0.0360  0.2158  0.2270
 7444SOL    HW134805   7.091   4.929   1.040  0.0335  0.0231 -0.0851
 7444SOL    HW234806   7.098   4.835   1.174  1.0651  1.7664  1.1108
 7445SOL     OW34807   7.382   7.312   5.660 -0.3114 -0.4409 -0.1717
 7445SOL    HW134808   7.447   7.363   5.603 -0.8422 -0.0608 -0.4381
 7445SOL    HW234809   7.301   7.291   5.607 -0.5824 -0.5579  0.2874
 7446SOL     OW34810   4.918   0.542   3.295  0.0872 -0.0783  0.0127
 7446SOL    HW134811   4.826   0.565   3.263 -0.7229 -2.1876  0.7282
 7446SOL    HW234812   4.917   0.535   3.395  1.2915  0.9796  0.1023
 7447SOL     OW34813   3.671   7.094   1.454 -0.1535  0.4666  0.2635
 7447SOL    HW134814   3.672   7.141   1.543  0.7355  2.3709 -0.7236
 7447SOL    HW234815   3.604   7.020   1.456 -0.5450  0.8453  2.3377
 7448SOL     OW34816   0.918   4.369   5.830 -0.5483 -0.1938 -0.4144
 7448SOL    HW134817   0.922   4.443   5.897  0.0403  1.0264 -1.7745
 7448SOL    HW234818   0.999   4.372   5.772 -1.7337 -0.3371 -2.1197
 7449SOL     OW34819   2.612   8.589   4.394  0.8272 -0.3786 -0.3065
 7449SOL    HW134820   2.607   8.685   4.420  0.4061  0.2778 -2.6973
 7449SOL    HW234821   2.708   8.562   4.384  0.9574 -0.3403  0.7884
 7450SOL     OW34822   8.769   0.116   1.400  0.0060 -0.5437  0.2833
 7450SOL    HW134823   8.738   0.088   1.491 -2.2299  1.9110  0.3334
 7450SOL    HW234824   8.735   0.050   1.332  0.8422 -1.8268  1.0724
 7451SOL     OW34825   3.442   5.774   5.669  0.2061  0.0870  0.0876
 7451SOL    HW134826   3.529   5.730   5.648  0.2330  0.6074 -0.8677
 7451SOL    HW234827   3.382   5.707   5.714  0.6072 -0.6564 -0.4670
 7452SOL     OW34828   0.347   2.308   1.388  0.4139  0.6946  0.5497
 7452SOL    HW134829   0.306   2.348   1.305 -2.7529 -2.5097  0.4430
 7452SOL    HW234830   0.440   2.277   1.367 -0.7836 -1.2848 -2.2991
 7453SOL     OW34831   0.145   0.099   0.726  0.2586  0.0094  0.6134
 7453SOL    HW134832   0.147   0.144   0.815 -2.2408  0.1709  0.6008
 7453SOL    HW234833   0.065   0.039   0.720 -0.0296  0.5983 -1.7966
 7454SOL     OW34834   5.465   3.930   0.760  0.0533  0.3363  0.1849
 7454SOL    HW134835   5.517   3.846   0.768  0.0427  0.2100 -0.9653
 7454SOL    HW234836   5.374   3.918   0.799 -0.0326 -0.2683 -0.2017
 7455SOL     OW34837   8.639   2.278   6.925 -0.2932 -0.2637  0.2584
 7455SOL    HW134838   8.718   2.327   6.963 -0.7671 -0.3583  1.3859
 7455SOL    HW234839   8.559   2.294   6.983 -0.8345 -1.0897 -0.2512
 7456SOL     OW34840   5.340   3.650   8.422  0.5945  0.1690 -0.1075
 7456SOL    HW134841   5.350   3.627   8.325 -0.8706  0.3554 -0.3077
 7456SOL    HW234842   5.280   3.729   8.431 -0.5361 -0.8020  1.0379
 7457SOL     OW34843   5.069   4.598   4.792 -0.0533 -0.2011  0.2198
 7457SOL    HW134844   4.997   4.538   4.758  1.4524 -1.7847 -0.2388
 7457SOL    HW234845   5.142   4.603   4.725 -0.6290  3.0384 -0.2295
 7458SOL     OW34846   7.589   4.662   4.496  0.2371  0.3539  0.4273
 7458SOL    HW134847   7.622   4.701   4.582 -1.4129  0.7435  0.9081
 7458SOL    HW234848   7.550   4.735   4.440 -1.4256 -0.3424  0.6466
 7459SOL     OW34849   8.255   0.341   6.952 -0.4457  0.2370  0.0597
 7459SOL    HW134850   8.179   0.307   7.008  0.2190  0.0812  0.8757
 7459SOL    HW234851   8.246   0.440   6.941 -0.1685  0.3777  1.0712
 7460SOL     OW34852   7.352   5.135   2.254  0.0318  0.0746 -0.1001
 7460SOL    HW134853   7.384   5.227   2.274 -0.3256 -0.1347  1.5874
 7460SOL    HW234854   7.428   5.079   2.221  0.3350  0.8542 -0.7406
 7461SOL     OW34855   7.080   2.426   3.855 -0.2594 -0.1274 -0.1467
 7461SOL    HW134856   7.099   2.436   3.952  0.7214 -0.2880 -0.3115
 7461SOL    HW234857   7.027   2.505   3.823  0.3210  0.4556  0.2977
 7462SOL     OW34858   3.764   4.549   4.217  0.0098 -0.0699  0.7540
 7462SOL    HW134859   3.825   4.627   4.235  0.1024 -0.4343  2.1200
 7462SOL    HW234860   3.819   4.466   4.204 -0.1575 -0.2258  1.0351
 7463SOL     OW34861   3.860   6.688   5.059 -0.5644  0.4615  0.1282
 7463SOL    HW134862   3.772   6.717   5.097 -1.0709 -1.2774  0.3082
 7463SOL    HW234863   3.857   6.590   5.038 -0.0270  1.1607 -3.6068
 7464SOL     OW34864   4.368   1.982   4.703 -0.1979 -0.1232  0.3231
 7464SOL    HW134865   4.455   1.952   4.663 -0.1752  0.6035 -0.1803
 7464SOL    HW234866   4.376   2.077   4.733 -0.5950 -0.2851  0.9477
 7465SOL     OW34867   2.583   6.165   7.598  0.4489  0.2405 -0.1463
 7465SOL    HW134868   2.524   6.226   7.544  0.2082  1.0102  0.9652
 7465SOL    HW234869   2.647   6.118   7.537  0.1518  1.0670 -1.1094
 7466SOL     OW34870   5.019   3.158   1.590 -0.3495 -0.2052  0.0592
 7466SOL    HW134871   4.925   3.142   1.618 -0.4152  0.4237  0.1988
 7466SOL    HW234872   5.021   3.219   1.511 -0.0411  0.0300  0.2477
 7467SOL     OW34873   6.090   3.974   6.249 -0.2913  0.0552 -0.2926
 7467SOL    HW134874   6.161   3.955   6.180 -1.8829 -0.5738 -1.7805
 7467SOL    HW234875   6.067   4.072   6.246 -1.4668 -0.2458 -1.7710
 7468SOL     OW34876   6.959   8.437   0.440  0.1722  0.0227  0.0850
 7468SOL    HW134877   7.055   8.423   0.465 -0.1806 -3.3437 -0.1798
 7468SOL    HW234878   6.953   8.469   0.346  1.0383  0.5950  0.2218
 7469SOL     OW34879   6.483   5.522   6.859 -0.3230 -0.2888  0.2423
 7469SOL    HW134880   6.414   5.519   6.787  1.7337  1.7220 -1.8814
 7469SOL    HW234881   6.491   5.431   6.901 -1.5760 -1.5102 -2.0547
 7470SOL     OW34882   0.721   7.423   7.806  0.8296 -0.4865 -0.4970
 7470SOL    HW134883   0.705   7.503   7.747  0.0570 -0.9827 -0.9726
 7470SOL    HW234884   0.781   7.449   7.882  1.9263  0.1282 -1.5627
 7471SOL     OW34885   7.771   8.214   4.407 -0.5852  0.8173 -0.3575
 7471SOL    HW134886   7.837   8.180   4.473 -2.0287  0.9957  1.2124
 7471SOL    HW234887   7.785   8.312   4.392 -2.2818  1.4812  2.1581
 7472SOL     OW34888   8.428   3.847   3.470  0.2556 -0.2251  0.5526
 7472SOL    HW134889   8.466   3.880   3.384  1.3983 -2.8093 -0.0087
 7472SOL    HW234890   8.496   3.858   3.543  0.2029 -0.2453  0.6037
 7473SOL     OW34891   0.348   3.565   3.363 -0.4997  0.5077  0.0565
 7473SOL    HW134892   0.292   3.602   3.437 -0.7603 -0.2423  0.2442
 7473SOL    HW234893   0.416   3.633   3.335  0.5594  0.2889  1.9896
 7474SOL     OW34894   8.071   3.458   4.451  0.0150  0.2447  0.4323
 7474SOL    HW134895   8.079   3.359   4.443 -0.3188  0.0513  2.1999
 7474SOL    HW234896   7.976   3.485   4.441 -0.3027  0.0714  2.7759
 7475SOL     OW34897   8.966   0.978   6.313  0.2039 -0.0616  0.2173
 7475SOL    HW134898   9.005   1.021   6.394  0.5941  0.0197 -0.0146
 7475SOL    HW234899   8.912   1.045   6.262 -0.1606 -0.1498  0.4867
 7476SOL     OW34900   0.649   1.641   4.021  0.5784 -0.3372 -0.0663
 7476SOL    HW134901   0.620   1.669   3.930 -0.7478 -0.5276  0.2896
 7476SOL    HW234902   0.669   1.543   4.022 -1.7772 -0.8358  0.4204
 7477SOL     OW34903   2.567   2.734   8.260  0.0148  0.2661  0.3263
 7477SOL    HW134904   2.589   2.741   8.357  0.4775  0.0624  0.2401
 7477SOL    HW234905   2.648   2.755   8.206 -0.5538  1.5654 -0.0445
 7478SOL     OW34906   1.487   0.294   4.990 -0.3298 -0.1940 -0.5048
 7478SOL    HW134907   1.551   0.365   4.962  0.5233 -0.4558  0.7504
 7478SOL    HW234908   1.438   0.260   4.910  0.3812  0.6966 -1.3339
 7479SOL     OW34909   3.726   7.651   2.088  0.3962  0.0860 -0.7132
 7479SOL    HW134910   3.734   7.721   2.159  2.5955 -1.9235  1.1201
 7479SOL    HW234911   3.813   7.644   2.039  0.2777 -1.5604 -0.6975
 7480SOL     OW34912   5.550   5.527   6.366 -0.2640  0.2310  0.2074
 7480SOL    HW134913   5.589   5.435   6.375 -0.7016 -0.0762 -0.9867
 7480SOL    HW234914   5.502   5.551   6.450  0.3195 -0.4088  0.7313
 7481SOL     OW34915   6.642   6.766   6.023 -0.2022  0.0111  0.3474
 7481SOL    HW134916   6.635   6.687   6.083 -0.4106  0.2209  0.6024
 7481SOL    HW234917   6.677   6.845   6.075 -1.1481  0.4078  0.3944
 7482SOL     OW34918   4.139   0.676   6.512 -0.2322  0.4864 -0.2990
 7482SOL    HW134919   4.052   0.723   6.498 -0.3089 -0.1590 -2.1410
 7482SOL    HW234920   4.186   0.668   6.424  0.7475 -0.9830  0.3608
 7483SOL     OW34921   4.936   3.216   2.779  0.3047  0.1581 -0.2636
 7483SOL    HW134922   4.884   3.212   2.693 -1.3682  3.1296  0.5373
 7483SOL    HW234923   5.008   3.285   2.771  1.0879 -0.6003  0.2320
 7484SOL     OW34924   5.531   8.607   5.181 -0.0439  0.0774  0.6834
 7484SOL    HW134925   5.501   8.549   5.106  1.2156 -0.5079  0.6166
 7484SOL    HW234926   5.608   8.663   5.152  0.0760  0.2737  1.3537
 7485SOL     OW34927   0.156   3.981   5.115 -0.7769  0.2043 -0.4191
 7485SOL    HW134928   0.252   3.986   5.090 -0.3282 -2.6075  0.5576
 7485SOL    HW234929   0.139   4.039   5.195  1.1581 -2.7365  2.2475
 7486SOL     OW34930   8.877   2.913   1.684  0.1158  0.3526 -0.2810
 7486SOL    HW134931   8.971   2.921   1.652 -0.4419  0.8243 -1.8241
 7486SOL    HW234932   8.844   2.819   1.669  1.3900 -0.7524  3.2743
 7487SOL     OW34933   2.200   1.352   7.871 -0.4473  0.4749  0.2509
 7487SOL    HW134934   2.167   1.411   7.797  0.6325  2.1671  1.0994
 7487SOL    HW234935   2.220   1.407   7.952  1.4404 -0.9334  0.7705
 7488SOL     OW34936   1.212   1.734   4.556  0.3196  0.3527 -0.1298
 7488SOL    HW134937   1.162   1.771   4.478  0.7554  0.4500 -0.3627
 7488SOL    HW234938   1.247   1.643   4.534 -1.0384 -0.3539  0.5579
 7489SOL     OW34939   2.675   0.515   0.975  0.3468  0.8974 -0.8520
 7489SOL    HW134940   2.618   0.593   0.950 -1.3708  0.0466  0.2747
 7489SOL    HW234941   2.768   0.546   0.993 -0.7190  3.0116  1.3407
 7490SOL     OW34942   0.965   1.221   0.543  0.0597 -0.1336 -0.0126
 7490SOL    HW134943   0.978   1.155   0.469  0.9852 -0.3001  0.2934
 7490SOL    HW234944   1.053   1.241   0.587 -0.8797 -2.5988  3.2406
 7491SOL     OW34945   1.535   8.767   2.933  0.1581  0.5416  0.3860
 7491SOL    HW134946   1.596   8.801   2.862 -0.0800 -2.4357 -1.3095
 7491SOL    HW234947   1.448   8.816   2.928  0.3308  0.7216 -1.0498
 7492SOL     OW34948   1.395   6.268   2.977  0.5693  0.4470  0.2591
 7492SOL    HW134949   1.398   6.178   3.022 -0.5769 -0.3137 -1.1428
 7492SOL    HW234950   1.417   6.257   2.880  0.9924  1.7852  0.1940
 7493SOL     OW34951   6.334   8.391   7.516  0.2886 -0.3793  0.0760
 7493SOL    HW134952   6.287   8.409   7.429  0.0995 -1.8316 -0.1325
 7493SOL    HW234953   6.331   8.293   7.536  1.7103 -0.2615  0.9378
 7494SOL     OW34954   0.730   8.300   8.779  0.0654  0.0094  0.1880
 7494SOL    HW134955   0.810   8.359   8.769  0.6090 -0.5363  1.1786
 7494SOL    HW234956   0.722   8.271   8.874 -0.1653 -1.5509 -0.2906
 7495SOL     OW34957   3.999   5.932   6.699 -0.2003  0.8371  0.4783
 7495SOL    HW134958   3.905   5.900   6.712 -0.3692  1.5248  0.9358
 7495SOL    HW234959   3.999   6.026   6.667  0.3256  0.6628 -0.0482
 7496SOL     OW34960   2.880   8.556   6.431 -0.4391  0.0076  0.1352
 7496SOL    HW134961   2.945   8.538   6.357  0.9636  1.7986  0.8844
 7496SOL    HW234962   2.840   8.647   6.419 -0.7161  0.0290  1.2000
 7497SOL     OW34963   2.241   3.457   4.761  0.2086  0.8569  0.8198
 7497SOL    HW134964   2.177   3.496   4.826  0.0695  0.7728  0.7331
 7497SOL    HW234965   2.214   3.482   4.668 -0.2222  0.0596  0.7277
 7498SOL     OW34966   1.676   0.415   7.113  0.1334  0.0009  0.2670
 7498SOL    HW134967   1.756   0.361   7.087  0.9221  1.2136  0.1072
 7498SOL    HW234968   1.636   0.378   7.197 -0.5903 -2.0764 -0.9709
 7499SOL     OW34969   2.143   2.517   0.858 -0.3376  0.3077 -0.1679
 7499SOL    HW134970   2.098   2.464   0.786  2.1529 -0.3484 -1.3125
 7499SOL    HW234971   2.075   2.570   0.909 -2.5280 -1.7360 -0.8919
 7500SOL     OW34972   8.713   7.866   6.843 -0.3731  0.0346  0.4329
 7500SOL    HW134973   8.679   7.773   6.830  0.3910 -0.5172  2.3598
 7500SOL    HW234974   8.714   7.889   6.940 -0.4283  2.0197 -0.0015
 7501SOL     OW34975   5.315   5.873   8.133 -0.2396  0.1944 -0.3661
 7501SOL    HW134976   5.245   5.853   8.065 -2.1365  0.8271  1.3182
 7501SOL    HW234977   5.330   5.972   8.136 -0.2128  0.1747  0.1656
 7502SOL     OW34978   1.977   7.934   1.143 -0.1214 -0.5818  0.1865
 7502SOL    HW134979   2.035   7.987   1.205  2.5791 -2.0237 -0.9652
 7502SOL    HW234980   1.945   7.852   1.191 -0.8973  0.0345  0.7233
 7503SOL     OW34981   3.458   8.801   6.932  0.8338 -0.0262  0.4336
 7503SOL    HW134982   3.516   8.836   7.006 -1.4163 -0.1164  2.3019
 7503SOL    HW234983   3.384   8.747   6.972 -1.0053  0.7728 -1.8723
 7504SOL     OW34984   4.022   7.914   1.604 -0.0637  0.4313 -0.1218
 7504SOL    HW134985   3.946   7.851   1.618  0.2850 -0.0303 -0.2839
 7504SOL    HW234986   4.107   7.863   1.601  0.2930  0.9939  0.4566
 7505SOL     OW34987   7.289   4.886   6.478 -0.2744 -0.3515 -0.1100
 7505SOL    HW134988   7.371   4.831   6.492  0.2887  0.6806  0.7447
 7505SOL    HW234989   7.245   4.861   6.392  2.0123  0.4297 -1.5540
 7506SOL     OW34990   2.069   0.655   7.449  0.3609  0.4188  0.4202
 7506SOL    HW134991   2.139   0.587   7.426  1.3647  1.8427 -0.7980
 7506SOL    HW234992   2.096   0.744   7.414 -1.3320  1.3073  1.3097
 7507SOL     OW34993   7.403   5.708   2.869 -0.0546 -0.4703  0.3015
 7507SOL    HW134994   7.371   5.677   2.958  0.0285  1.2178  0.9532
 7507SOL    HW234995   7.494   5.671   2.851  0.1553 -0.3761  1.1628
 7508SOL     OW34996   5.054   6.096   8.152  0.1140  0.4336 -0.0777
 7508SOL    HW134997   5.031   6.168   8.217  0.2826  0.2403  0.1985
 7508SOL    HW234998   5.125   6.129   8.089 -0.6895  0.9246 -0.7336
 7509SOL     OW34999   3.587   5.625   8.773 -0.3720 -0.3655  0.2724
 7509SOL    HW135000   3.580   5.607   8.871  2.6542  0.7759  0.7696
 7509SOL    HW235001   3.516   5.690   8.746 -0.5485  0.1835  1.9645
 7510SOL     OW35002   7.995   2.987   8.600 -0.2743  0.4852  0.2953
 7510SOL    HW135003   8.001   3.079   8.637 -0.8368  0.2532  0.9656
 7510SOL    HW235004   7.912   2.942   8.633  0.5644 -0.6701  0.9087
 7511SOL     OW35005   3.847   1.101   5.569 -0.0109 -0.1109 -0.3151
 7511SOL    HW135006   3.838   1.171   5.498 -1.0769  0.7346  0.6383
 7511SOL    HW235007   3.826   1.012   5.530  0.5088  0.2025 -1.3348
 7512SOL     OW35008   8.496   5.580   5.764  0.8941 -0.4219  0.5886
 7512SOL    HW135009   8.528   5.675   5.771  2.4297 -0.9212  0.7246
 7512SOL    HW235010   8.562   5.527   5.710 -0.4020 -1.2183 -0.2384
 7513SOL     OW35011   3.842   2.147   2.980  0.8561 -0.0083 -0.4840
 7513SOL    HW135012   3.830   2.172   2.884 -1.8066  0.2170 -0.1238
 7513SOL    HW235013   3.765   2.090   3.010  2.1900 -0.9856  1.2401
 7514SOL     OW35014   4.601   5.548   3.519 -0.8462 -0.7059 -0.4060
 7514SOL    HW135015   4.560   5.472   3.468 -1.9573 -1.9122  2.2052
 7514SOL    HW235016   4.536   5.625   3.522 -0.4673 -0.3378 -1.4465
 7515SOL     OW35017   7.961   6.047   5.295  0.1429 -0.8629  0.0345
 7515SOL    HW135018   7.870   6.042   5.255 -0.5338 -1.9792  1.6601
 7515SOL    HW235019   8.018   5.973   5.260  0.0543 -0.8907 -0.0479
 7516SOL     OW35020   7.226   5.676   3.703 -0.4809  0.4404  0.6432
 7516SOL    HW135021   7.271   5.758   3.736 -0.3872  0.3116  0.8391
 7516SOL    HW235022   7.137   5.666   3.749  0.1801 -0.3968  1.7922
 7517SOL     OW35023   3.546   6.752   6.868  0.3097  0.0247  0.2784
 7517SOL    HW135024   3.554   6.659   6.833  0.1225  0.4631 -0.9391
 7517SOL    HW235025   3.476   6.755   6.940 -1.1123 -0.3953 -1.0529
 7518SOL     OW35026   3.192   6.763   8.256  0.9140 -0.1222  0.3814
 7518SOL    HW135027   3.209   6.814   8.341  1.7189 -0.9894  0.7468
 7518SOL    HW235028   3.195   6.827   8.179  1.0081  0.5407  0.9230
 7519SOL     OW35029   3.456   5.196   6.228 -0.0903 -0.0645 -0.7322
 7519SOL    HW135030   3.400   5.279   6.225  1.7409  1.1556 -2.7702
 7519SOL    HW235031   3.492   5.183   6.320 -0.7464  1.1645 -0.2956
 7520SOL     OW35032   8.525   3.210   6.014  0.2763 -0.6853  0.3745
 7520SOL    HW135033   8.534   3.243   5.920 -1.0569 -0.3997  0.3310
 7520SOL    HW235034   8.613   3.175   6.046  0.5777 -1.4283 -1.2240
 7521SOL     OW35035   3.750   7.642   5.073  0.0768  0.3261  0.0489
 7521SOL    HW135036   3.800   7.721   5.110 -0.5290  0.7213  0.0260
 7521SOL    HW235037   3.774   7.630   4.977  1.3490 -0.4599  0.4437
 7522SOL     OW35038   3.733   3.656   6.794  0.6119 -0.2448  0.2268
 7522SOL    HW135039   3.691   3.597   6.726  1.6496  1.6156 -2.1169
 7522SOL    HW235040   3.733   3.611   6.883 -2.9693 -1.7609 -0.4672
 7523SOL     OW35041   3.916   5.682   2.803  0.1173  0.4410  0.7036
 7523SOL    HW135042   3.820   5.680   2.832 -0.4444  1.5581 -0.9857
 7523SOL    HW235043   3.953   5.774   2.814  1.1543 -0.1050  1.8136
 7524SOL     OW35044   6.338   7.360   1.972  0.6618  0.6623  0.0291
 7524SOL    HW135045   6.289   7.447   1.981 -2.2283 -0.8458 -0.3769
 7524SOL    HW235046   6.422   7.374   1.920  0.1726  3.1839 -0.1494
 7525SOL     OW35047   8.872   7.006   6.992 -0.2091 -0.7688 -0.3726
 7525SOL    HW135048   8.881   7.101   7.021 -1.2888 -0.5047 -0.8614
 7525SOL    HW235049   8.835   6.950   7.067 -0.3983 -0.6263 -0.3601
 7526SOL     OW35050   0.680   4.344   8.907 -0.0896  0.3867 -0.5920
 7526SOL    HW135051   0.718   4.431   8.938  2.1325 -0.5382 -0.6493
 7526SOL    HW235052   0.662   4.286   8.986 -0.1357  0.3158 -0.6550
 7527SOL     OW35053   3.417   2.994   4.840 -0.3400 -0.1891  0.6202
 7527SOL    HW135054   3.414   2.907   4.792  1.8527  0.3772 -0.6199
 7527SOL    HW235055   3.482   3.055   4.794 -3.6812  3.0209 -0.0709
 7528SOL     OW35056   3.843   3.576   2.632  0.5716  0.6971 -0.4963
 7528SOL    HW135057   3.922   3.636   2.637  1.7797 -0.8906 -0.1868
 7528SOL    HW235058   3.814   3.566   2.537  1.1214  0.7893 -0.6716
 7529SOL     OW35059   0.602   0.493   2.992  0.3524 -0.6356 -0.2952
 7529SOL    HW135060   0.622   0.478   2.895 -1.7797 -1.4326 -0.6539
 7529SOL    HW235061   0.540   0.571   3.001 -0.3295 -1.2361  0.3164
 7530SOL     OW35062   5.810   6.622   0.825 -0.1030  0.2873 -0.1897
 7530SOL    HW135063   5.813   6.687   0.749 -0.5595 -0.8274 -1.1723
 7530SOL    HW235064   5.835   6.669   0.910  2.0705  1.1493 -1.2763
 7531SOL     OW35065   8.282   3.045   5.460 -0.5076 -0.1046  0.1710
 7531SOL    HW135066   8.201   3.016   5.511 -0.5623  1.9495  1.2944
 7531SOL    HW235067   8.253   3.089   5.375 -0.5238 -0.4164  0.0133
 7532SOL     OW35068   0.752   5.037   5.593  0.3154 -0.7942  0.0018
 7532SOL    HW135069   0.763   5.026   5.692 -0.5343  1.3703  0.3747
 7532SOL    HW235070   0.840   5.028   5.548  1.2096  1.1143  1.2989
 7533SOL     OW35071   7.970   6.028   2.398 -0.5599 -0.5810 -0.1684
 7533SOL    HW135072   8.058   6.010   2.355 -0.0495  0.5577  0.3781
 7533SOL    HW235073   7.952   5.959   2.468 -0.2048 -0.9474 -0.4391
 7534SOL     OW35074   7.707   3.951   2.893  0.1992 -0.2175 -0.3350
 7534SOL    HW135075   7.768   3.895   2.948 -1.6706  0.1148  2.1702
 7534SOL    HW235076   7.686   4.036   2.942 -2.2927 -0.3603 -1.0855
 7535SOL     OW35077   7.817   3.984   7.868  0.6376 -0.4311 -0.6733
 7535SOL    HW135078   7.792   3.890   7.843  0.0498 -0.2857 -0.6406
 7535SOL    HW235079   7.890   4.017   7.808  2.0107 -1.5000  0.3669
 7536SOL     OW35080   6.761   4.283   4.716  0.3318  0.4344  0.1700
 7536SOL    HW135081   6.736   4.351   4.786  2.3510  2.3019 -0.8489
 7536SOL    HW235082   6.844   4.313   4.669 -0.6391 -1.0957 -2.6336
 7537SOL     OW35083   0.267   8.306   4.109 -0.3076  0.5704  0.1706
 7537SOL    HW135084   0.287   8.209   4.096 -1.8461  0.6203 -3.0191
 7537SOL    HW235085   0.183   8.316   4.162  0.2562  0.2157  1.1606
 7538SOL     OW35086   5.719   4.683   2.295  0.3374 -0.3345  0.5274
 7538SOL    HW135087   5.730   4.746   2.218  1.5619 -1.2490 -0.0491
 7538SOL    HW235088   5.803   4.681   2.349  0.7157 -2.3057 -0.0893
 7539SOL     OW35089   3.695   1.504   5.955 -0.5397  0.0534 -0.4330
 7539SOL    HW135090   3.777   1.485   6.010  0.1311  1.3877 -0.9531
 7539SOL    HW235091   3.707   1.464   5.864 -0.6692 -0.1607 -0.3566
 7540SOL     OW35092   2.108   8.880   3.870  0.1447  0.4846 -0.9169
 7540SOL    HW135093   2.072   8.799   3.823  1.6621  0.2378 -1.6912
 7540SOL    HW235094   2.144   8.945   3.803  1.5121  0.5410 -0.1603
 7541SOL     OW35095   6.009   5.762   4.800  0.0538 -0.6790 -0.2883
 7541SOL    HW135096   5.996   5.725   4.892 -0.4001 -1.0874 -0.5138
 7541SOL    HW235097   5.935   5.730   4.740  1.0405 -1.4429 -1.1103
 7542SOL     OW35098   6.601   8.610   0.701 -0.0583 -0.1220  0.0174
 7542SOL    HW135099   6.545   8.541   0.654 -0.0088 -0.3379  0.2729
 7542SOL    HW235100   6.578   8.701   0.666 -0.1738 -0.2622 -0.2730
 7543SOL     OW35101   0.390   2.269   2.096  0.1995 -0.1016 -1.1687
 7543SOL    HW135102   0.332   2.337   2.141  1.9357  0.5651  0.0876
 7543SOL    HW235103   0.400   2.190   2.155  0.7166 -0.1482 -1.3231
 7544SOL     OW35104   1.827   7.988   2.314  0.0742  0.4081  0.4227
 7544SOL    HW135105   1.853   8.008   2.408  1.5878 -2.0960  0.5917
 7544SOL    HW235106   1.909   7.987   2.256 -0.6529  0.3501 -0.6279
 7545SOL     OW35107   3.052   0.437   7.131 -0.0694 -0.2645  0.0780
 7545SOL    HW135108   3.057   0.537   7.122 -2.0521 -0.2222 -0.8577
 7545SOL    HW235109   3.085   0.410   7.221 -0.6532  1.3332  0.7878
 7546SOL     OW35110   4.909   7.566   3.781 -0.4435  1.1714  0.4143
 7546SOL    HW135111   4.977   7.561   3.707 -1.7196  0.9176 -0.7647
 7546SOL    HW235112   4.951   7.536   3.866  0.0403 -2.2406 -0.9324
 7547SOL     OW35113   0.786   6.427   6.385 -0.0894 -0.0692  0.0601
 7547SOL    HW135114   0.848   6.348   6.385  0.1214  0.0911  1.1099
 7547SOL    HW235115   0.763   6.451   6.479 -2.5939 -0.7687 -0.3361
 7548SOL     OW35116   5.594   3.287   8.582 -0.0115 -0.4845  0.3386
 7548SOL    HW135117   5.498   3.264   8.599 -0.1550 -1.0462 -1.1639
 7548SOL    HW235118   5.599   3.368   8.524  0.4476  0.4698  1.6936
 7549SOL     OW35119   1.405   1.235   6.225 -0.6290  0.3906 -0.3258
 7549SOL    HW135120   1.381   1.249   6.321 -0.4859  1.0835 -0.3858
 7549SOL    HW235121   1.501   1.208   6.219  0.0069  2.5347 -0.4008
 7550SOL     OW35122   2.208   2.726   7.385  0.2137  0.0184 -0.1255
 7550SOL    HW135123   2.252   2.715   7.474 -0.6963 -0.7593  0.2419
 7550SOL    HW235124   2.181   2.821   7.372 -0.6855 -0.0832  0.9331
 7551SOL     OW35125   7.987   5.618   1.012 -0.3045 -0.0659  0.4191
 7551SOL    HW135126   7.922   5.601   0.938 -2.1380  0.3482  1.8620
 7551SOL    HW235127   8.035   5.704   0.996 -0.9680  0.2153 -0.0957
 7552SOL     OW35128   5.530   2.506   3.500  0.5124  0.4592 -0.6441
 7552SOL    HW135129   5.480   2.468   3.578 -0.0022  1.0954 -0.6536
 7552SOL    HW235130   5.576   2.433   3.451 -2.3221 -0.5028 -2.0198
 7553SOL     OW35131   4.651   8.872   2.285 -0.1088 -0.0520  0.4651
 7553SOL    HW135132   4.689   8.949   2.233 -1.2758 -0.6578 -1.3502
 7553SOL    HW235133   4.644   8.897   2.381 -0.9272  2.3050 -0.1681
 7554SOL     OW35134   8.825   3.490   3.476  0.4223  0.4414 -0.1467
 7554SOL    HW135135   8.910   3.437   3.473  1.3188  1.7969  0.8441
 7554SOL    HW235136   8.833   3.570   3.417  0.2664  1.1593  0.7786
 7555SOL     OW35137   5.911   3.020   5.001  0.2360  0.1805  0.3978
 7555SOL    HW135138   5.937   3.036   4.905 -1.1515 -2.0487 -0.3997
 7555SOL    HW235139   5.980   2.960   5.043 -0.2976 -0.6330  0.1276
 7556SOL     OW35140   4.238   0.597   6.757  0.1795 -0.2804  0.0816
 7556SOL    HW135141   4.215   0.653   6.677 -1.6340 -1.2698 -0.1021
 7556SOL    HW235142   4.322   0.632   6.798  0.9047  0.5295 -1.9897
 7557SOL     OW35143   1.986   5.770   2.764  0.0534  0.0332 -0.1753
 7557SOL    HW135144   1.936   5.734   2.843  0.2112 -0.5894 -0.3533
 7557SOL    HW235145   1.953   5.725   2.681  0.7930 -0.2637 -0.3124
 7558SOL     OW35146   1.786   4.417   1.870 -0.0462  0.2929  0.3141
 7558SOL    HW135147   1.838   4.374   1.797 -0.6286  0.8559 -0.4355
 7558SOL    HW235148   1.848   4.468   1.929  0.4388 -0.2517  0.2806
 7559SOL     OW35149   0.087   8.678   7.968 -0.3851 -0.3719 -0.4600
 7559SOL    HW135150   0.022   8.676   8.044 -1.9656 -0.1594 -1.7678
 7559SOL    HW235151   0.100   8.773   7.938  0.0134 -0.4831 -0.6446
 7560SOL     OW35152   5.268   6.166   8.003 -0.5269 -0.0174  0.4613
 7560SOL    HW135153   5.340   6.230   8.028  0.6097 -1.1563  0.1454
 7560SOL    HW235154   5.210   6.206   7.932  3.0655 -1.1454 -3.2899
 7561SOL     OW35155   7.784   2.268   2.467  0.3155  0.2405 -0.1680
 7561SOL    HW135156   7.839   2.308   2.393  0.2655  0.2177 -0.2174
 7561SOL    HW235157   7.841   2.256   2.548  0.6034 -0.5690 -0.4866
 7562SOL     OW35158   1.884   7.549   6.471 -0.5718 -0.4497 -0.0491
 7562SOL    HW135159   1.963   7.497   6.504 -1.0674 -2.6420 -2.2249
 7562SOL    HW235160   1.801   7.494   6.482 -1.4702  0.8931 -0.0140
 7563SOL     OW35161   2.432   5.624   1.237  0.2464 -0.3867 -0.0194
 7563SOL    HW135162   2.529   5.632   1.256  0.2216 -1.0438  0.4216
 7563SOL    HW235163   2.391   5.556   1.298 -0.4103 -0.4078 -0.4661
 7564SOL     OW35164   6.484   5.956   4.010 -0.1467 -0.8495  0.1391
 7564SOL    HW135165   6.385   5.960   3.992  0.4397  1.9305 -2.8048
 7564SOL    HW235166   6.509   6.029   4.073  0.0158 -1.8808  1.3059
 7565SOL     OW35167   1.986   0.333   7.340  0.0457 -0.4018  0.2154
 7565SOL    HW135168   1.923   0.330   7.417  0.5584 -0.1827  0.6503
 7565SOL    HW235169   1.996   0.427   7.307  0.0987 -0.4447  0.1066
 7566SOL     OW35170   8.829   1.980   3.872 -0.3675 -0.0815  0.5698
 7566SOL    HW135171   8.922   1.946   3.884 -0.7174 -1.2288  0.0827
 7566SOL    HW235172   8.813   2.055   3.936  1.6719  1.7302 -0.9385
 7567SOL     OW35173   0.800   3.730   7.985  0.0529  0.0613  0.2380
 7567SOL    HW135174   0.765   3.757   8.075  0.8206 -2.3667  1.3032
 7567SOL    HW235175   0.855   3.804   7.947 -1.1835  1.5332  1.2589
 7568SOL     OW35176   2.741   2.974   1.742  0.2181  0.1667 -0.3061
 7568SOL    HW135177   2.683   3.031   1.800 -2.0212 -1.2149 -1.0860
 7568SOL    HW235178   2.698   2.884   1.732  1.7201 -0.3505 -2.2558
 7569SOL     OW35179   4.664   3.279   8.278 -0.5136 -0.3305  0.5230
 7569SOL    HW135180   4.574   3.242   8.301 -1.3425  0.3663 -1.4706
 7569SOL    HW235181   4.669   3.375   8.306 -0.8259 -0.0340 -0.4205
 7570SOL     OW35182   4.558   3.555   4.204 -0.6488  0.0147 -0.5803
 7570SOL    HW135183   4.483   3.567   4.140  0.6170  0.8899 -1.9226
 7570SOL    HW235184   4.621   3.486   4.168 -0.3641 -0.0907  0.1196
 7571SOL     OW35185   1.835   1.685   8.297  0.7425  0.1601 -0.6558
 7571SOL    HW135186   1.905   1.725   8.355  1.1970  0.3611 -1.3328
 7571SOL    HW235187   1.774   1.756   8.263 -1.1641 -0.2663  1.7093
 7572SOL     OW35188   6.468   0.030   7.702  0.3069 -0.1034 -0.4591
 7572SOL    HW135189   6.442   0.017   7.798 -0.6117 -0.8149 -0.8030
 7572SOL    HW235190   6.467   0.128   7.681  0.2547  0.0389  0.1905
 7573SOL     OW35191   3.168   0.007   1.844  0.8259 -0.3725  0.5768
 7573SOL    HW135192   3.126  -0.044   1.770 -0.0108 -0.1637  0.9014
 7573SOL    HW235193   3.136  -0.029   1.932  2.1281 -0.8878  0.8445
 7574SOL     OW35194   2.151   5.497   5.891 -0.4114  0.0041  0.3623
 7574SOL    HW135195   2.164   5.398   5.889 -1.4719 -0.1662  1.1998
 7574SOL    HW235196   2.140   5.527   5.986 -1.8244  0.6717  0.0032
 7575SOL     OW35197   2.156   0.837   5.444 -0.1062  0.3139  0.1773
 7575SOL    HW135198   2.165   0.928   5.405 -1.5296 -0.8617 -3.0404
 7575SOL    HW235199   2.118   0.843   5.536 -0.3081  2.9291 -0.0604
 7576SOL     OW35200   5.056   5.466   5.521  0.2222 -0.2066  0.3317
 7576SOL    HW135201   5.011   5.424   5.600  0.0531 -1.1045 -0.2324
 7576SOL    HW235202   4.993   5.465   5.443  0.0412  1.5360  0.4265
 7577SOL     OW35203   5.551   6.791   0.772 -0.6824  0.1899  0.3208
 7577SOL    HW135204   5.608   6.843   0.836 -1.2627 -0.5227  1.4382
 7577SOL    HW235205   5.543   6.842   0.686  1.7697  0.2142  0.0617
 7578SOL     OW35206   0.307   6.760   5.646 -0.0126 -0.7269  0.5088
 7578SOL    HW135207   0.371   6.698   5.691 -1.4635 -2.8824 -0.3585
 7578SOL    HW235208   0.262   6.713   5.570 -2.3046  0.8851  0.8260
 7579SOL     OW35209   8.643   6.615   5.438  0.0401 -0.0122 -0.1298
 7579SOL    HW135210   8.590   6.686   5.392 -0.4730 -1.4577 -1.8358
 7579SOL    HW235211   8.715   6.583   5.376 -0.1062 -1.3782  0.3901
 7580SOL     OW35212   7.733   5.544   5.806 -0.4557  0.9869 -0.3630
 7580SOL    HW135213   7.733   5.527   5.905 -0.1067 -0.2388 -0.5619
 7580SOL    HW235214   7.697   5.635   5.788 -1.4312  0.8534  0.8357
 7581SOL     OW35215   3.671   5.774   0.999  0.2984 -0.2407  0.4873
 7581SOL    HW135216   3.709   5.686   1.028  2.5396  0.7135  0.5982
 7581SOL    HW235217   3.648   5.770   0.902  1.2552 -0.6791  0.2705
 7582SOL     OW35218   7.298   3.693   7.266  0.3751 -0.0022  0.2719
 7582SOL    HW135219   7.251   3.662   7.349  0.8168 -1.7590 -0.1020
 7582SOL    HW235220   7.231   3.727   7.200 -0.1232 -0.0500  0.7496
 7583SOL     OW35221   4.437   7.872   3.247 -0.4697 -0.1527 -0.8193
 7583SOL    HW135222   4.389   7.800   3.298  1.9643 -1.6339 -0.5368
 7583SOL    HW235223   4.507   7.913   3.306 -0.4130  0.9827 -1.6659
 7584SOL     OW35224   7.081   4.891   1.799 -0.1963  0.5497 -0.1657
 7584SOL    HW135225   7.026   4.817   1.760  0.1545 -0.1013  0.5601
 7584SOL    HW235226   7.178   4.866   1.793 -0.1744 -0.0040  1.9804
 7585SOL     OW35227   7.378   3.758   3.007 -0.1741 -0.4073  0.0387
 7585SOL    HW135228   7.296   3.813   2.994  0.3472  0.5904  0.9064
 7585SOL    HW235229   7.410   3.766   3.102 -0.3576 -2.5905  0.3125
 7586SOL     OW35230   5.639   3.735   4.094 -0.5695  0.4662  0.1576
 7586SOL    HW135231   5.642   3.641   4.061 -1.1457  0.5464 -0.1218
 7586SOL    HW235232   5.549   3.754   4.133  0.3987  0.0418  2.7285
 7587SOL     OW35233   5.757   5.696   1.864 -0.5268 -0.1942 -0.0609
 7587SOL    HW135234   5.831   5.758   1.840 -0.9578  0.3990  0.1248
 7587SOL    HW235235   5.774   5.655   1.953 -1.6313  1.8673  1.1457
 7588SOL     OW35236   8.296   3.553   4.569 -0.1260  0.3283  0.4471
 7588SOL    HW135237   8.323   3.601   4.485 -0.0139 -0.6390 -0.0731
 7588SOL    HW235238   8.223   3.489   4.549  0.0486 -0.0617  1.0507
 7589SOL     OW35239   1.040   4.220   5.130 -0.0133 -0.0005  0.0822
 7589SOL    HW135240   0.987   4.299   5.098 -0.4088  0.3804  1.6151
 7589SOL    HW235241   1.014   4.139   5.079 -0.6791  0.5705 -0.4928
 7590SOL     OW35242   8.697   1.903   5.474 -0.2027  1.0427 -0.1289
 7590SOL    HW135243   8.710   1.987   5.420 -1.8248  2.2552  1.2995
 7590SOL    HW235244   8.601   1.895   5.499  0.1767 -0.5952  0.8365
 7591SOL     OW35245   7.822   4.769   1.504  0.0162 -0.1126 -0.0946
 7591SOL    HW135246   7.843   4.685   1.555  0.3703 -0.3948 -0.6924
 7591SOL    HW235247   7.726   4.767   1.476  0.0874 -0.4504 -0.3307
 7592SOL     OW35248   6.179   4.421   0.092  0.0312 -0.0170 -0.0223
 7592SOL    HW135249   6.084   4.447   0.111  0.2444  1.3482 -0.7071
 7592SOL    HW235250   6.185   4.322   0.082 -1.8551  0.0913 -2.8658
 7593SOL     OW35251   0.224   6.119   1.025 -0.3879 -0.2175 -0.1136
 7593SOL    HW135252   0.238   6.022   1.006 -1.0294 -0.1152 -1.1447
 7593SOL    HW235253   0.310   6.168   1.016 -0.0112 -0.7226  0.6505
 7594SOL     OW35254   6.078   4.384   7.616 -0.1426  0.1308 -0.2859
 7594SOL    HW135255   6.161   4.439   7.623 -0.3322  0.1127  2.4745
 7594SOL    HW235256   6.089   4.299   7.668 -1.2783 -0.6568 -1.2992
 7595SOL     OW35257   0.228   3.118   3.117 -0.2449  0.0577  0.2023
 7595SOL    HW135258   0.327   3.131   3.124 -0.0499 -1.4568  0.3467
 7595SOL    HW235259   0.207   3.057   3.040 -0.8909 -1.4247  1.5173
 7596SOL     OW35260   3.361   6.679   8.677 -0.2469  0.4533 -0.0076
 7596SOL    HW135261   3.374   6.732   8.761  3.2812 -0.1752 -0.0799
 7596SOL    HW235262   3.357   6.582   8.700 -0.7104  0.3688 -0.4453
 7597SOL     OW35263   5.732   7.951   1.955 -0.5623 -0.0054  0.5678
 7597SOL    HW135264   5.808   7.982   2.013 -0.0189  0.2672 -0.2594
 7597SOL    HW235265   5.770   7.907   1.873 -1.3123 -0.2730  0.3656
 7598SOL     OW35266   2.299   0.458   7.993 -0.2597 -0.0820  0.1698
 7598SOL    HW135267   2.211   0.505   7.988 -0.9311 -1.4565 -1.3077
 7598SOL    HW235268   2.286   0.360   7.979  1.1139 -0.7756  3.1595
 7599SOL     OW35269   1.016   5.836   6.008  0.5965  0.3643 -0.8479
 7599SOL    HW135270   0.929   5.797   6.039  2.1688 -2.5919  0.0515
 7599SOL    HW235271   1.008   5.861   5.912 -1.6117  1.3073 -0.4656
 7600SOL     OW35272   1.576   7.211   2.171  0.0594  0.2219  0.1663
 7600SOL    HW135273   1.478   7.188   2.170  0.5601 -2.1032 -2.4618
 7600SOL    HW235274   1.629   7.127   2.172  2.0449  1.4294 -1.4018
 7601SOL     OW35275   8.747   2.883   1.977 -0.1437  0.9250 -0.3485
 7601SOL    HW135276   8.804   2.950   1.929  1.3665  1.1359  1.6596
 7601SOL    HW235277   8.651   2.895   1.951  0.4458  2.1210 -2.0030
 7602SOL     OW35278   6.381   1.100   4.142  0.4812  0.1710 -0.4883
 7602SOL    HW135279   6.400   1.139   4.232  1.2712  0.2330 -0.6853
 7602SOL    HW235280   6.466   1.083   4.093  0.0806 -0.3850 -1.0089
 7603SOL     OW35281   3.210   3.603   1.501  0.2475  0.1743 -0.3134
 7603SOL    HW135282   3.144   3.658   1.553  1.9651  1.3568  0.6289
 7603SOL    HW235283   3.298   3.650   1.498  0.7187 -0.8078 -2.6514
 7604SOL     OW35284   5.472   2.823   3.048 -0.3417 -0.3340 -0.4593
 7604SOL    HW135285   5.379   2.859   3.053 -0.2680  0.0512 -1.7326
 7604SOL    HW235286   5.469   2.725   3.026 -0.4388 -0.2826 -0.6739
 7605SOL     OW35287   6.594   7.681   2.862  0.1296  0.2664 -0.4717
 7605SOL    HW135288   6.580   7.775   2.895  1.4933  0.6140 -0.8566
 7605SOL    HW235289   6.541   7.618   2.919  0.6374  1.0816  0.9400
 7606SOL     OW35290   8.496   7.263   6.839 -0.4964  0.0116 -0.1298
 7606SOL    HW135291   8.549   7.232   6.918 -0.4646  0.5930  0.0828
 7606SOL    HW235292   8.399   7.246   6.854 -0.3217 -1.6123 -0.7780
 7607SOL     OW35293   4.004   8.906   1.856 -0.2360  1.3723  0.6551
 7607SOL    HW135294   4.028   8.855   1.938  0.0741  1.5599  0.6820
 7607SOL    HW235295   4.041   8.999   1.862 -1.0750  1.7035  0.7560
 7608SOL     OW35296   8.871   3.729   3.342  0.4229  0.4126  0.2920
 7608SOL    HW135297   8.908   3.791   3.273  1.9817 -0.1644  0.5846
 7608SOL    HW235298   8.876   3.773   3.432  0.5960  0.2408  0.3648
 7609SOL     OW35299   1.012   0.489   0.572  0.4099 -0.1939  0.1084
 7609SOL    HW135300   1.052   0.578   0.550  3.2744 -1.0853  1.5250
 7609SOL    HW235301   0.964   0.495   0.660 -1.4412  0.4979 -0.9059
 7610SOL     OW35302   8.804   7.735   6.476  0.2020 -0.2867  0.2547
 7610SOL    HW135303   8.820   7.805   6.546 -0.0764 -0.4019  0.4346
 7610SOL    HW235304   8.890   7.687   6.458  0.5576  0.5855 -0.3979
 7611SOL     OW35305   7.462   1.152   2.138 -0.6756  0.0838 -0.0736
 7611SOL    HW135306   7.492   1.098   2.216 -1.4063 -0.2342 -0.0034
 7611SOL    HW235307   7.481   1.103   2.053  0.1783  0.4586 -0.1010
 7612SOL     OW35308   6.343   1.959   6.749 -0.3318 -0.0188 -0.1662
 7612SOL    HW135309   6.327   1.952   6.650  2.1803 -0.4932 -0.5714
 7612SOL    HW235310   6.357   1.868   6.787 -0.0622  0.2634  0.4084
 7613SOL     OW35311   3.043   1.420   5.174  0.3684  0.5765  0.0165
 7613SOL    HW135312   2.971   1.486   5.196  0.2301  0.4126  0.0542
 7613SOL    HW235313   3.096   1.399   5.256  1.2292  1.6197 -0.2547
 7614SOL     OW35314   1.498   0.463   7.770 -0.4516  0.3594 -0.4661
 7614SOL    HW135315   1.580   0.432   7.817 -0.0079  0.5067 -1.1265
 7614SOL    HW235316   1.457   0.539   7.820 -1.2852 -0.9755  0.9050
 7615SOL     OW35317   2.377   0.610   1.183 -0.1754 -0.2513 -0.0757
 7615SOL    HW135318   2.393   0.664   1.266  3.6328  1.3803 -1.7985
 7615SOL    HW235319   2.425   0.523   1.190  0.7839  0.2099 -0.8864
 7616SOL     OW35320   2.198   4.729   3.547  0.0421 -1.1166 -0.2080
 7616SOL    HW135321   2.260   4.801   3.518  0.1953 -1.1065  0.1357
 7616SOL    HW235322   2.201   4.721   3.647 -2.3614  0.5968  0.0407
 7617SOL     OW35323   0.953   0.958   3.190  0.4277 -0.2198  0.2880
 7617SOL    HW135324   0.897   0.917   3.117  1.1764 -0.9735  0.1284
 7617SOL    HW235325   0.931   0.915   3.277  1.1811 -0.9563  0.1277
 7618SOL     OW35326   3.653   3.076   8.854  0.7633 -0.2795 -0.1383
 7618SOL    HW135327   3.639   3.092   8.951  1.6264  1.2259 -0.2495
 7618SOL    HW235328   3.566   3.088   8.805  0.0858 -2.1285  0.5584
 7619SOL     OW35329   3.811   4.493   3.764  0.1309 -0.5967 -0.1532
 7619SOL    HW135330   3.799   4.496   3.665 -0.5935 -0.9925 -0.0812
 7619SOL    HW235331   3.727   4.458   3.807  0.2913 -0.0446  0.6265
 7620SOL     OW35332   7.285   7.126   5.895 -0.7189 -0.2173  0.0478
 7620SOL    HW135333   7.328   7.215   5.878  0.7683 -0.7301  1.0497
 7620SOL    HW235334   7.300   7.099   5.990  2.0305 -3.1916 -1.1657
 7621SOL     OW35335   3.492   0.274   1.818 -0.4235 -0.5744 -0.0239
 7621SOL    HW135336   3.588   0.298   1.807 -0.6221  0.3463  0.2488
 7621SOL    HW235337   3.443   0.287   1.732 -0.3670 -0.7785 -0.0881
 7622SOL     OW35338   7.709   1.927   2.985 -0.0563 -0.4535 -0.1492
 7622SOL    HW135339   7.692   2.006   3.045  0.2165 -1.2353  0.9655
 7622SOL    HW235340   7.732   1.960   2.893  0.3706  0.7745  0.3849
 7623SOL     OW35341   3.451   5.318   7.278  0.0530  0.7049 -0.0202
 7623SOL    HW135342   3.386   5.296   7.205  1.7916 -0.1545 -1.3309
 7623SOL    HW235343   3.430   5.263   7.359 -1.4437  1.1378 -0.0933
 7624SOL     OW35344   4.902   4.416   4.699 -0.6596  0.4931  0.2264
 7624SOL    HW135345   4.902   4.319   4.724  0.8183  0.2801 -0.5398
 7624SOL    HW235346   4.822   4.461   4.739 -1.2723 -1.0059  0.7104
 7625SOL     OW35347   1.115   3.270   6.454 -0.3362  0.2094 -0.0237
 7625SOL    HW135348   1.084   3.194   6.511 -2.0224 -0.1387 -1.3582
 7625SOL    HW235349   1.150   3.235   6.367  0.1371  0.8769 -0.1104
 7626SOL     OW35350   4.820   2.574   2.522 -0.1463 -0.1009 -0.3125
 7626SOL    HW135351   4.864   2.485   2.506 -1.7228 -0.5160 -2.4718
 7626SOL    HW235352   4.760   2.567   2.601  0.7247 -0.5895  0.3226
 7627SOL     OW35353   2.654   8.058   4.282 -0.1717  0.3332 -0.1964
 7627SOL    HW135354   2.582   8.127   4.286  0.6791  1.1498  1.0603
 7627SOL    HW235355   2.741   8.101   4.260  0.0986 -0.5427 -0.8662
 7628SOL     OW35356   0.526   2.449   5.435  0.0362 -0.0131 -0.0971
 7628SOL    HW135357   0.589   2.458   5.357 -0.2897 -1.4705 -0.5610
 7628SOL    HW235358   0.448   2.393   5.408 -0.5989  0.3439  0.9807
 7629SOL     OW35359   2.324   3.772   0.519  0.0775 -0.1100 -0.3050
 7629SOL    HW135360   2.306   3.700   0.587  2.0729  0.0330  0.3804
 7629SOL    HW235361   2.312   3.734   0.428 -1.2271 -0.6715  0.0738
 7630SOL     OW35362   4.893   3.238   3.979 -0.0445 -0.2703 -0.1955
 7630SOL    HW135363   4.866   3.247   3.883 -0.3696 -0.6312 -0.1436
 7630SOL    HW235364   4.933   3.147   3.994  0.9973  0.1838 -0.2190
 7631SOL     OW35365   6.566   4.301   1.037  0.0371 -0.4729 -0.2499
 7631SOL    HW135366   6.495   4.253   1.089  0.6998 -2.8885 -1.5031
 7631SOL    HW235367   6.537   4.310   0.942  1.2345 -1.1531 -0.6905
 7632SOL     OW35368   0.436   8.787   4.458  0.4780  0.3049  0.4876
 7632SOL    HW135369   0.448   8.795   4.557 -0.3470  2.4096  0.4441
 7632SOL    HW235370   0.377   8.709   4.437  2.5368 -1.5820  1.4923
 7633SOL     OW35371   5.249   7.480   5.655 -0.0731 -0.5110  0.0547
 7633SOL    HW135372   5.286   7.513   5.742  1.7176 -0.1681 -0.8172
 7633SOL    HW235373   5.297   7.397   5.628 -0.3066 -0.3574 -0.8347
 7634SOL     OW35374   1.692   5.696   6.096  0.2517  0.0167 -0.4571
 7634SOL    HW135375   1.749   5.684   6.177 -1.6293  0.3300  0.9438
 7634SOL    HW235376   1.612   5.636   6.102 -0.5859  1.0133 -1.4424
 7635SOL     OW35377   8.086   5.119   3.079 -0.2600 -0.0970 -0.8097
 7635SOL    HW135378   8.088   5.097   3.177 -0.5908 -0.8189 -0.9637
 7635SOL    HW235379   8.072   5.035   3.026 -1.1016  0.4184 -1.4232
 7636SOL     OW35380   3.427   1.805   8.574 -0.6477  1.2818 -0.2526
 7636SOL    HW135381   3.514   1.788   8.528 -0.4102  1.6381  0.0637
 7636SOL    HW235382   3.399   1.722   8.623  0.9980  2.0639  2.0873
 7637SOL     OW35383   7.370   5.429   0.775 -0.2489 -0.1765 -0.5822
 7637SOL    HW135384   7.375   5.336   0.814  0.7995  0.2153  0.2459
 7637SOL    HW235385   7.290   5.436   0.716  0.1908 -1.9148 -1.4198
 7638SOL     OW35386   3.523   2.566   8.639 -0.3941  0.6926  0.4944
 7638SOL    HW135387   3.599   2.538   8.699 -0.6570  0.8028  0.8773
 7638SOL    HW235388   3.557   2.576   8.546 -0.5347 -2.0884  0.1008
 7639SOL     OW35389   5.941   6.346   7.147  0.6918  0.1725 -0.1242
 7639SOL    HW135390   5.981   6.366   7.058  1.5100  1.8700  0.6137
 7639SOL    HW235391   5.980   6.407   7.216 -0.4644 -0.6354  1.2700
 7640SOL     OW35392   3.316   4.284   0.301 -0.0963 -0.2621 -0.1123
 7640SOL    HW135393   3.234   4.236   0.334  0.8378 -1.8121  0.0392
 7640SOL    HW235394   3.398   4.235   0.332  0.8932  1.1520 -0.4299
 7641SOL     OW35395   5.956   3.955   0.411 -0.0530  0.2581 -0.2735
 7641SOL    HW135396   5.960   4.048   0.446  1.2735  0.8457 -1.9432
 7641SOL    HW235397   6.009   3.948   0.327  0.8257 -2.2865  0.4387
 7642SOL     OW35398   4.517   7.445   2.631  0.5127 -0.1941  0.3570
 7642SOL    HW135399   4.505   7.387   2.711  0.4888 -0.2241  0.3321
 7642SOL    HW235400   4.497   7.540   2.654 -1.8976 -0.5282 -0.2147
 7643SOL     OW35401   4.363   7.934   2.222 -0.1122  0.0327 -0.2338
 7643SOL    HW135402   4.394   8.019   2.264  1.5868 -1.0354  0.7445
 7643SOL    HW235403   4.327   7.873   2.292 -2.3287  0.3185 -1.0644
 7644SOL     OW35404   2.759   8.180   6.880  0.0177 -0.7385  0.3319
 7644SOL    HW135405   2.789   8.269   6.916 -0.7839 -0.2495 -0.1924
 7644SOL    HW235406   2.838   8.121   6.868  0.8681  0.6741 -1.4116
 7645SOL     OW35407   0.344   4.373   8.984  0.2826  0.0511 -0.1326
 7645SOL    HW135408   0.439   4.346   8.967 -0.0565 -0.8038 -0.6758
 7645SOL    HW235409   0.290   4.292   9.007 -0.3155  0.5395  0.1854
 7646SOL     OW35410   6.447   3.770   8.465 -0.1426 -0.1317 -0.0921
 7646SOL    HW135411   6.457   3.849   8.525  0.5411 -0.2848 -0.0003
 7646SOL    HW235412   6.350   3.745   8.458 -0.3043  0.3901  0.2929
 7647SOL     OW35413   8.857   4.369   1.195  0.2564  0.4298  0.4127
 7647SOL    HW135414   8.762   4.397   1.187  0.5177  1.0696 -0.4732
 7647SOL    HW235415   8.885   4.374   1.292 -1.2165 -1.8251  0.9818
 7648SOL     OW35416   3.903   1.695   4.356  0.0049 -0.2916 -0.5804
 7648SOL    HW135417   3.854   1.624   4.406 -0.6384 -0.7088 -1.7886
 7648SOL    HW235418   3.944   1.656   4.274  3.2637 -0.1694  0.9451
 7649SOL     OW35419   4.488   5.555   0.025 -1.3108 -0.4810 -0.5681
 7649SOL    HW135420   4.492   5.528   0.121  0.2903  1.3491 -0.0856
 7649SOL    HW235421   4.456   5.649   0.018  0.0206 -0.0953 -1.7257
 7650SOL     OW35422   6.394   1.186   1.589  0.3444 -0.2419  0.8282
 7650SOL    HW135423   6.296   1.206   1.581  0.2139 -0.6811  1.2971
 7650SOL    HW235424   6.443   1.230   1.514 -0.2744 -0.4362  0.3006
 7651SOL     OW35425   3.229   8.917   3.400  0.2112  0.0172 -0.1001
 7651SOL    HW135426   3.196   8.999   3.354  1.5461  0.4286 -0.3445
 7651SOL    HW235427   3.307   8.879   3.350 -0.3280 -1.3472  0.0648
 7652SOL     OW35428   7.494   7.692   1.691  0.2597  0.4019 -0.2829
 7652SOL    HW135429   7.586   7.655   1.709  0.9166  1.6451 -1.0198
 7652SOL    HW235430   7.454   7.646   1.612  1.6325  2.1627 -2.0535
 7653SOL     OW35431   2.891   0.776   5.408  0.3717  0.0612 -0.3346
 7653SOL    HW135432   2.865   0.757   5.503 -1.4847 -1.2046 -1.0958
 7653SOL    HW235433   2.829   0.730   5.346 -0.3492  3.4067 -2.2074
 7654SOL     OW35434   3.943   1.581   8.182 -0.0065 -0.0455 -0.4845
 7654SOL    HW135435   3.903   1.614   8.097  0.0695 -2.0593 -1.3481
 7654SOL    HW235436   3.888   1.505   8.217  0.0345  0.6834  1.2102
 7655SOL     OW35437   2.490   5.511   7.980  0.0145 -0.1663  0.3288
 7655SOL    HW135438   2.435   5.443   8.029 -0.5717  0.3454  0.3896
 7655SOL    HW235439   2.585   5.504   8.009  0.4047 -2.5946 -1.4499
 7656SOL     OW35440   3.839   8.374   1.496  0.1137 -0.0499  0.1992
 7656SOL    HW135441   3.740   8.375   1.484 -0.0730 -0.3200  1.5801
 7656SOL    HW235442   3.882   8.419   1.419 -1.0211 -0.9054 -0.9580
 7657SOL     OW35443   8.984   1.962   3.320  0.2383 -0.1750  0.2046
 7657SOL    HW135444   8.918   1.935   3.391 -0.4319 -1.9343 -1.0467
 7657SOL    HW235445   9.059   1.897   3.319 -0.1826 -0.6437 -1.2584
 7658SOL     OW35446   2.858   4.434   0.047  0.0360 -0.0384  0.1196
 7658SOL    HW135447   2.806   4.519   0.061 -0.8037 -0.6941  1.0847
 7658SOL    HW235448   2.943   4.455  -0.001  0.0231  1.4084  0.6871
 7659SOL     OW35449   4.451   5.171   7.730  0.6448 -0.4354 -0.3938
 7659SOL    HW135450   4.483   5.077   7.729  0.1722 -0.6191  0.9163
 7659SOL    HW235451   4.511   5.226   7.790  0.1710 -0.1810 -0.1534
 7660SOL     OW35452   2.087   3.723   6.022  0.8908  0.4693 -0.5132
 7660SOL    HW135453   2.078   3.631   5.983 -0.9078  0.4799 -0.1420
 7660SOL    HW235454   2.144   3.720   6.104 -1.6261 -0.8197  1.2177
 7661SOL     OW35455   4.655   1.510   8.408  0.8127 -0.2688  0.3255
 7661SOL    HW135456   4.646   1.414   8.380  1.1714 -0.1541 -0.1936
 7661SOL    HW235457   4.565   1.547   8.430  0.4828 -0.2607 -1.0204
 7662SOL     OW35458   1.385   1.951   3.451  0.1323  0.2534 -0.2040
 7662SOL    HW135459   1.287   1.933   3.463 -0.1836  0.3993 -2.4295
 7662SOL    HW235460   1.437   1.877   3.493 -0.9294 -0.0757  0.5721
 7663SOL     OW35461   8.646   2.927   7.820  0.4546  0.0810 -0.2029
 7663SOL    HW135462   8.680   2.837   7.791  1.0773  0.5064 -0.7816
 7663SOL    HW235463   8.566   2.914   7.879 -0.4878 -0.8056 -1.6482
 7664SOL     OW35464   0.481   6.626   5.813  0.1358 -0.3329  0.0776
 7664SOL    HW135465   0.571   6.584   5.819  0.3568  0.4263  2.7845
 7664SOL    HW235466   0.413   6.566   5.854 -0.2022  0.1235  0.1958
 7665SOL     OW35467   6.155   5.005   5.477  0.2484  0.6246 -0.1045
 7665SOL    HW135468   6.079   5.036   5.420 -0.6755 -1.5825 -0.1450
 7665SOL    HW235469   6.119   4.964   5.561  1.5125  1.6956  0.9846
 7666SOL     OW35470   0.594   8.494   8.084  0.0690 -0.1380 -0.7652
 7666SOL    HW135471   0.538   8.461   8.008 -1.1847 -1.3157  0.6368
 7666SOL    HW235472   0.606   8.421   8.151  3.2450  0.1202 -0.9731
 7667SOL     OW35473   2.966   3.338   0.500 -0.2716 -0.6519  0.0427
 7667SOL    HW135474   3.011   3.409   0.447 -0.8558 -0.4751 -0.2223
 7667SOL    HW235475   2.867   3.351   0.497 -0.3693 -1.2847  0.2643
 7668SOL     OW35476   0.470   5.052   7.699 -0.1405 -0.6780 -0.2818
 7668SOL    HW135477   0.421   5.139   7.711  0.6357 -0.1722 -0.7259
 7668SOL    HW235478   0.516   5.028   7.784 -1.5001 -1.3796  0.2768
 7669SOL     OW35479   7.705   8.263   6.551  0.4956 -0.1663  0.1852
 7669SOL    HW135480   7.617   8.277   6.506  0.0955 -1.6706  0.4703
 7669SOL    HW235481   7.733   8.168   6.541  1.7498  0.1333  0.7133
 7670SOL     OW35482   5.269   5.715   1.424  0.4571  0.3691 -0.4248
 7670SOL    HW135483   5.352   5.671   1.459  1.1205  0.7702 -1.4764
 7670SOL    HW235484   5.263   5.701   1.326 -1.9342 -1.6298 -0.0404
 7671SOL     OW35485   3.774   5.494   0.867  0.0182 -0.2215  1.1199
 7671SOL    HW135486   3.680   5.461   0.876 -0.3022 -0.3727 -2.0330
 7671SOL    HW235487   3.838   5.417   0.877 -0.3973 -0.7318 -0.0657
 7672SOL     OW35488   3.637   0.136   0.622  0.3787  0.0173  0.1912
 7672SOL    HW135489   3.576   0.214   0.604 -1.5407 -1.1933  1.2604
 7672SOL    HW235490   3.685   0.150   0.708  0.9074  0.5212 -0.1757
 7673SOL     OW35491   2.154   3.746   6.470  0.2378 -0.0636 -1.1315
 7673SOL    HW135492   2.152   3.834   6.423  0.9152  0.9940  0.7820
 7673SOL    HW235493   2.075   3.738   6.530  0.6504 -0.3675 -0.6185
 7674SOL     OW35494   2.203   7.040   3.049  0.4121 -0.2634  0.0916
 7674SOL    HW135495   2.252   6.959   3.017  0.8251 -0.4507  1.1796
 7674SOL    HW235496   2.120   7.051   2.996  1.2633 -0.3676 -1.2809
 7675SOL     OW35497   3.634   1.620   0.636  0.2163  0.0812 -0.0908
 7675SOL    HW135498   3.612   1.558   0.560 -0.7818  0.7667 -0.3703
 7675SOL    HW235499   3.731   1.614   0.656  0.9197  1.3551 -2.7741
 7676SOL     OW35500   0.526   2.644   6.084  0.1318  0.2632 -0.1528
 7676SOL    HW135501   0.589   2.589   6.139 -0.8107 -0.5235  0.1372
 7676SOL    HW235502   0.523   2.737   6.122  0.9465  0.2499 -0.0326
 7677SOL     OW35503   4.552   0.044   0.841 -0.4727  0.0273  0.2596
 7677SOL    HW135504   4.603   0.100   0.777 -0.0062  0.9072  1.3872
 7677SOL    HW235505   4.457   0.075   0.846 -0.8670 -0.9447 -1.0556
 7678SOL     OW35506   5.527   4.994   0.291  0.0757  0.6105  0.5368
 7678SOL    HW135507   5.495   4.972   0.199  1.6930  0.0525  0.1040
 7678SOL    HW235508   5.453   5.038   0.342 -1.1780 -0.0833 -0.6611
 7679SOL     OW35509   6.550   5.358   0.419  0.6839  0.3645  0.3439
 7679SOL    HW135510   6.588   5.448   0.438  0.4520  0.3536  0.8833
 7679SOL    HW235511   6.452   5.366   0.401  0.9411  0.3971 -1.0648
 7680SOL     OW35512   5.280   4.063   3.697 -0.1275 -0.3000  0.3074
 7680SOL    HW135513   5.364   4.009   3.706  0.6825  1.0687  1.1491
 7680SOL    HW235514   5.245   4.085   3.787 -1.4214 -0.8630 -0.0430
 7681SOL     OW35515   7.784   8.435   1.622 -0.0343 -0.0212 -0.3902
 7681SOL    HW135516   7.867   8.491   1.613  0.6811 -1.0667 -0.4502
 7681SOL    HW235517   7.717   8.483   1.679  0.6655  0.7774 -0.2263
 7682SOL     OW35518   4.432   8.766   0.836  0.3691  0.0628  0.5801
 7682SOL    HW135519   4.359   8.810   0.887 -0.8636 -0.5126 -0.6384
 7682SOL    HW235520   4.512   8.826   0.832 -2.1046  3.4132 -3.1940
 7683SOL     OW35521   0.353   3.803   7.328  0.0165 -0.3083 -0.3561
 7683SOL    HW135522   0.437   3.766   7.368  0.8052  0.7567 -0.9862
 7683SOL    HW235523   0.306   3.858   7.397  1.1369  1.1498 -0.7348
 7684SOL     OW35524   3.454   4.867   7.118 -0.1671 -0.6556 -0.1931
 7684SOL    HW135525   3.549   4.883   7.143 -0.0927 -0.2660 -0.7170
 7684SOL    HW235526   3.415   4.797   7.178  0.8981 -1.9224 -0.9358
 7685SOL     OW35527   4.438   2.630   6.665 -0.4180  0.9985 -0.2289
 7685SOL    HW135528   4.367   2.589   6.722 -0.1057  1.7229  0.6745
 7685SOL    HW235529   4.414   2.617   6.568 -1.8239  1.3067  0.0642
 7686SOL     OW35530   6.214   3.880   4.771  0.6936  0.8458  0.3868
 7686SOL    HW135531   6.212   3.781   4.784  0.5161  0.8083  0.0912
 7686SOL    HW235532   6.152   3.905   4.696  0.6630  1.1890  0.5252
 7687SOL     OW35533   5.080   3.431   8.099 -0.5546  0.6763  0.1778
 7687SOL    HW135534   5.114   3.388   8.183  1.9077 -0.5887 -1.4003
 7687SOL    HW235535   4.992   3.391   8.074 -0.2903 -0.4567  1.0285
 7688SOL     OW35536   7.456   0.413   6.826 -0.3481  0.0245  0.3269
 7688SOL    HW135537   7.431   0.329   6.874 -0.0708  0.6417  1.5566
 7688SOL    HW235538   7.518   0.392   6.751  0.6651 -0.7341  1.3720
 7689SOL     OW35539   1.117   1.869   1.300  0.4112  0.0823 -0.4870
 7689SOL    HW135540   1.137   1.952   1.247 -0.7711  0.5511 -0.2273
 7689SOL    HW235541   1.200   1.839   1.347  0.7704  1.3429 -0.2771
 7690SOL     OW35542   5.947   4.050   0.985  0.1045  0.0860  0.1032
 7690SOL    HW135543   5.897   4.031   0.900 -0.0035  1.2203 -0.0970
 7690SOL    HW235544   6.026   4.108   0.965 -0.2996  0.9108  0.8594
 7691SOL     OW35545   0.781   0.854   2.999  0.4026  0.3512  0.6733
 7691SOL    HW135546   0.805   0.774   2.944 -2.4851 -1.7459  2.3112
 7691SOL    HW235547   0.754   0.929   2.939  0.3468 -0.8455 -0.8306
 7692SOL     OW35548   4.683   1.425   4.788 -0.2192  0.2115  0.9682
 7692SOL    HW135549   4.615   1.498   4.780 -0.3768 -0.0519 -0.2187
 7692SOL    HW235550   4.774   1.463   4.772 -0.3974 -0.0355 -0.6830
 7693SOL     OW35551   2.557   8.689   0.725  0.5807 -0.7159 -0.1249
 7693SOL    HW135552   2.624   8.658   0.793 -1.5206 -2.4957  1.2161
 7693SOL    HW235553   2.529   8.612   0.668 -1.2186 -0.2951  0.1529
 7694SOL     OW35554   3.495   3.866   8.468  0.3315 -0.1031  0.0094
 7694SOL    HW135555   3.419   3.831   8.413 -1.6634  1.7976  1.4434
 7694SOL    HW235556   3.478   3.962   8.491  1.6894 -0.4945  2.9000
 7695SOL     OW35557   8.816   2.749   3.675  0.0868 -0.1092  0.1326
 7695SOL    HW135558   8.802   2.782   3.582 -1.3493 -0.5169  0.1881
 7695SOL    HW235559   8.852   2.824   3.732  1.2704  0.0470 -0.8125
 7696SOL     OW35560   8.460   5.944   2.074  0.2185 -0.0155  0.6602
 7696SOL    HW135561   8.360   5.934   2.072 -0.0956  2.5799  1.0530
 7696SOL    HW235562   8.486   6.024   2.019  2.0755 -0.5956  0.6758
 7697SOL     OW35563   6.756   3.395   0.498  0.7305  0.2277 -0.3024
 7697SOL    HW135564   6.665   3.381   0.538 -0.3534  1.0997 -2.3818
 7697SOL    HW235565   6.797   3.478   0.537 -0.5363  1.3616 -1.3372
 7698SOL     OW35566   1.606   8.081   0.095 -0.0898  0.2867 -0.2582
 7698SOL    HW135567   1.604   8.055  -0.002  1.1326 -1.2631  0.1075
 7698SOL    HW235568   1.701   8.085   0.126 -0.4231  1.9070  0.5960
 7699SOL     OW35569   2.500   5.677   0.405 -0.2093 -0.3420 -0.0594
 7699SOL    HW135570   2.503   5.596   0.346  0.0630 -0.3630 -0.0173
 7699SOL    HW235571   2.592   5.714   0.415 -0.6303  1.2716 -1.8958
 7700SOL     OW35572   1.223   2.653   6.955  0.0929 -0.2889  0.0306
 7700SOL    HW135573   1.194   2.722   7.022  1.0346  0.9727 -0.8594
 7700SOL    HW235574   1.142   2.616   6.909 -0.2735  1.8980 -1.1318
 7701SOL     OW35575   7.860   4.337   5.769 -0.9578 -0.0733  0.4572
 7701SOL    HW135576   7.820   4.318   5.680  0.7848 -2.2363  0.1092
 7701SOL    HW235577   7.907   4.425   5.767  1.2416 -1.2660 -1.5107
 7702SOL     OW35578   6.428   8.830   0.224 -0.4731  0.5825  0.3020
 7702SOL    HW135579   6.395   8.818   0.131 -2.5783  2.4804  0.7750
 7702SOL    HW235580   6.477   8.748   0.253 -0.9648 -0.5457 -1.9791
 7703SOL     OW35581   7.669   2.312   0.802 -0.0407  0.4287 -0.4784
 7703SOL    HW135582   7.630   2.404   0.802  0.1724  0.5361  0.9702
 7703SOL    HW235583   7.742   2.306   0.734  1.3110  1.9441  0.7965
 7704SOL     OW35584   6.914   3.661   7.540 -0.1323 -0.6856  0.0810
 7704SOL    HW135585   6.817   3.654   7.561 -0.0218 -0.0336  0.8452
 7704SOL    HW235586   6.952   3.741   7.587  1.0561 -1.6853  0.8483
 7705SOL     OW35587   6.535   6.604   5.567  0.5361  0.3634 -0.5293
 7705SOL    HW135588   6.563   6.512   5.595 -1.0077 -0.6372 -2.1429
 7705SOL    HW235589   6.499   6.653   5.646 -0.3601 -1.1086  0.0112
 7706SOL     OW35590   5.259   8.167   8.952  0.6534  0.3615 -0.0127
 7706SOL    HW135591   5.286   8.140   9.045  0.9801 -0.0801 -0.2358
 7706SOL    HW235592   5.180   8.228   8.957  0.1938 -0.2695  0.5149
 7707SOL     OW35593   4.508   0.379   2.601  0.0433  0.1599  0.3234
 7707SOL    HW135594   4.606   0.373   2.582 -0.6243  1.0436 -3.7372
 7707SOL    HW235595   4.483   0.474   2.615 -0.7468  0.2654 -1.7390
 7708SOL     OW35596   8.362   2.240   3.282  0.1279  0.3120 -0.0087
 7708SOL    HW135597   8.314   2.183   3.349  1.3876  1.1569  1.6382
 7708SOL    HW235598   8.297   2.302   3.238 -1.0040 -1.4152 -0.8123
 7709SOL     OW35599   1.444   6.674   4.329 -0.3714 -0.4727  0.2231
 7709SOL    HW135600   1.450   6.761   4.378  0.0262 -0.7721  0.7192
 7709SOL    HW235601   1.370   6.678   4.262 -0.5688  0.1344  0.4737
 7710SOL     OW35602   7.254   8.440   6.089  0.0247  0.3457  0.2129
 7710SOL    HW135603   7.284   8.400   6.003  0.6948  2.1123 -0.3968
 7710SOL    HW235604   7.333   8.474   6.140 -0.4360 -0.0012  1.1654
 7711SOL     OW35605   3.968   0.952   2.137  0.2236 -0.0048 -0.0447
 7711SOL    HW135606   4.002   0.927   2.228  1.4437  0.8321 -0.2619
 7711SOL    HW235607   3.910   0.878   2.102  1.3935 -1.2393  0.5577
 7712SOL     OW35608   4.034   8.681   5.158 -0.3748 -0.5985 -0.3980
 7712SOL    HW135609   3.992   8.603   5.206 -2.2008 -1.3491 -3.1222
 7712SOL    HW235610   3.968   8.755   5.150  0.2323 -0.1138 -0.9745
 7713SOL     OW35611   3.987   4.341   1.180 -0.4626  0.3174 -0.0249
 7713SOL    HW135612   4.084   4.358   1.168 -0.5152  0.0446 -0.8663
 7713SOL    HW235613   3.964   4.251   1.142 -0.7977 -0.1974  1.3610
 7714SOL     OW35614   4.394   2.241   2.583 -0.0996 -0.1387 -0.0631
 7714SOL    HW135615   4.393   2.220   2.680  1.9855  0.5540  0.1315
 7714SOL    HW235616   4.368   2.337   2.569  0.2357 -0.0615 -0.1492
 7715SOL     OW35617   2.177   5.303   0.315 -0.6724  0.0740 -0.1328
 7715SOL    HW135618   2.195   5.206   0.328  0.0354  0.1286 -0.6775
 7715SOL    HW235619   2.180   5.349   0.404 -0.5796 -0.3320  0.0770
 7716SOL     OW35620   1.572   7.563   8.670 -0.1063 -0.6245  0.3327
 7716SOL    HW135621   1.547   7.474   8.634 -0.4440  0.2114 -1.5260
 7716SOL    HW235622   1.667   7.561   8.702 -0.1495 -1.6651  0.3966
 7717SOL     OW35623   8.663   2.335   6.023 -0.6115 -0.0159  0.7337
 7717SOL    HW135624   8.721   2.264   6.064 -0.3097  0.2775  0.8166
 7717SOL    HW235625   8.586   2.291   5.976  0.2020 -0.4697 -0.2172
 7718SOL     OW35626   5.345   6.249   4.234  0.5771  0.1709 -0.0687
 7718SOL    HW135627   5.371   6.167   4.181 -0.2141  0.1404 -0.4112
 7718SOL    HW235628   5.287   6.307   4.178 -2.1135 -0.9171  1.5098
 7719SOL     OW35629   8.620   7.331   5.581 -0.0621  0.0121 -0.1324
 7719SOL    HW135630   8.551   7.271   5.540 -0.7684  0.7191 -0.0059
 7719SOL    HW235631   8.698   7.277   5.612 -1.4024 -1.0435  1.4509
 7720SOL     OW35632   5.305   0.808   8.601  0.3051 -0.2676  0.0818
 7720SOL    HW135633   5.285   0.766   8.513 -1.7167  0.1081  0.3433
 7720SOL    HW235634   5.398   0.844   8.600 -0.0902  0.7591 -2.2964
 7721SOL     OW35635   4.663   2.271   4.867  0.6898  0.2775  0.0927
 7721SOL    HW135636   4.589   2.338   4.864  1.2281  0.8040 -3.4122
 7721SOL    HW235637   4.744   2.308   4.824  2.0693 -1.4307  1.1421
 7722SOL     OW35638   7.290   8.253   2.149  0.1045  0.5010  0.3260
 7722SOL    HW135639   7.342   8.171   2.126  1.3866  1.7980 -1.5590
 7722SOL    HW235640   7.329   8.296   2.231  0.9563  0.5405 -0.0939
 7723SOL     OW35641   3.278   1.456   5.350  0.0437 -0.6863 -0.1733
 7723SOL    HW135642   3.308   1.424   5.260 -3.5681 -1.7305 -1.0853
 7723SOL    HW235643   3.250   1.551   5.344  3.5085  0.4760  0.8150
 7724SOL     OW35644   0.671   5.106   4.554  0.1864  0.1020  0.3925
 7724SOL    HW135645   0.700   5.011   4.538  0.2928  0.4251 -1.4239
 7724SOL    HW235646   0.726   5.145   4.628  2.1648 -0.3611 -0.7799
 7725SOL     OW35647   2.545   4.656   7.268  0.3080 -0.5838  0.7756
 7725SOL    HW135648   2.599   4.697   7.194 -0.2587 -2.1245 -0.5408
 7725SOL    HW235649   2.497   4.727   7.318 -1.2544  0.3556 -1.9419
 7726SOL     OW35650   7.388   3.799   0.158 -0.0972 -0.4433  0.1524
 7726SOL    HW135651   7.458   3.728   0.168 -1.7388 -1.9033  1.5091
 7726SOL    HW235652   7.430   3.889   0.171  1.5138 -1.3030  1.0403
 7727SOL     OW35653   1.138   2.723   3.292 -0.9364 -0.1523  0.3230
 7727SOL    HW135654   1.174   2.815   3.275  1.2056 -0.7853  1.1494
 7727SOL    HW235655   1.046   2.730   3.330 -2.7513  1.4799 -4.0874
 7728SOL     OW35656   2.932   2.671   3.958 -0.3216 -0.0994 -0.1993
 7728SOL    HW135657   2.859   2.678   4.026 -0.5461  1.4944 -0.5913
 7728SOL    HW235658   2.895   2.637   3.872 -0.1396 -1.5739  0.2737
 7729SOL     OW35659   5.717   6.195   0.979  0.2099  0.0456 -0.3156
 7729SOL    HW135660   5.707   6.096   0.965  0.3822  0.3266 -2.7180
 7729SOL    HW235661   5.745   6.213   1.073  0.8926 -2.2430 -0.0464
 7730SOL     OW35662   8.042   2.833   4.438  0.0971 -0.4455 -0.4219
 7730SOL    HW135663   8.091   2.913   4.472 -1.7038  1.5503 -2.3292
 7730SOL    HW235664   8.003   2.783   4.515 -0.9802  2.0283  0.7159
 7731SOL     OW35665   3.834   7.736   1.718 -0.2805  0.1329  0.0266
 7731SOL    HW135666   3.771   7.803   1.759  0.1746  0.3191  0.4213
 7731SOL    HW235667   3.891   7.696   1.789  0.5532  0.4953 -0.4299
 7732SOL     OW35668   2.655   2.458   2.805 -0.1418  0.3495 -0.5442
 7732SOL    HW135669   2.637   2.413   2.717 -2.2828 -1.4194  0.7239
 7732SOL    HW235670   2.721   2.405   2.857 -0.6495  0.1236 -0.1298
 7733SOL     OW35671   3.123   5.164   4.658  0.2023  0.0610 -0.0202
 7733SOL    HW135672   3.094   5.147   4.752 -0.8426  2.3298  0.1107
 7733SOL    HW235673   3.223   5.173   4.655  0.2816 -0.5084  0.7872
 7734SOL     OW35674   0.670   2.891   2.301  0.4406 -0.2688 -0.1552
 7734SOL    HW135675   0.693   2.813   2.359  1.8620 -0.1216 -0.5121
 7734SOL    HW235676   0.585   2.871   2.252 -0.5587 -0.5595  1.6375
 7735SOL     OW35677   3.739   2.712   1.713 -0.1707 -0.2663  1.1596
 7735SOL    HW135678   3.823   2.687   1.663 -1.8832  0.7112 -2.3365
 7735SOL    HW235679   3.700   2.629   1.754 -0.1332 -1.6135 -1.4075
 7736SOL     OW35680   0.935   2.463   1.321  0.4016 -0.0313  0.0091
 7736SOL    HW135681   1.001   2.480   1.395 -1.4616  1.5177  1.3520
 7736SOL    HW235682   0.854   2.519   1.335 -0.8284 -1.2084 -2.1545
 7737SOL     OW35683   2.327   2.290   0.607 -0.0798 -0.0604 -0.4149
 7737SOL    HW135684   2.388   2.304   0.529  0.0539 -2.2241 -0.7311
 7737SOL    HW235685   2.350   2.204   0.652 -0.1319  1.1617  2.0616
 7738SOL     OW35686   8.978   4.627   0.375  0.3830  0.2508 -0.4726
 7738SOL    HW135687   9.026   4.710   0.345 -0.8340  0.8770 -0.7368
 7738SOL    HW235688   9.015   4.547   0.328  1.0146  0.7488 -0.8276
 7739SOL     OW35689   1.072   2.633   8.784 -0.1537 -0.0299 -0.1501
 7739SOL    HW135690   1.132   2.653   8.862 -1.9757 -0.1948  1.3451
 7739SOL    HW235691   1.005   2.564   8.811 -3.5051  2.9521 -0.4860
 7740SOL     OW35692   6.911   0.440   1.953 -0.2968  0.2069 -0.2483
 7740SOL    HW135693   6.970   0.481   2.022  0.4902  1.5030 -1.6810
 7740SOL    HW235694   6.964   0.419   1.871 -1.4195 -0.4418 -0.8252
 7741SOL     OW35695   2.373   0.333   8.291 -0.0171 -0.1549 -0.0820
 7741SOL    HW135696   2.315   0.259   8.256  0.1341 -0.2889 -0.0455
 7741SOL    HW235697   2.430   0.368   8.217  0.3528 -0.4849  0.0496
 7742SOL     OW35698   4.679   2.009   0.524  0.4727 -0.0457 -0.0431
 7742SOL    HW135699   4.778   2.016   0.507 -0.0173  3.3276 -1.7900
 7742SOL    HW235700   4.639   1.949   0.455  1.1043 -0.4554 -0.0655
 7743SOL     OW35701   7.417   8.821   7.287  0.1498 -0.8898 -0.3917
 7743SOL    HW135702   7.498   8.790   7.238  0.0023 -0.3421 -0.9996
 7743SOL    HW235703   7.365   8.742   7.320  0.8265 -1.2408 -0.1727
 7744SOL     OW35704   4.951   5.850   5.172  0.6410  0.4690 -0.4225
 7744SOL    HW135705   5.025   5.788   5.198  0.7268  0.0086 -1.7174
 7744SOL    HW235706   4.863   5.808   5.194  0.7760  1.8369  2.9199
 7745SOL     OW35707   5.890   1.993   8.834 -0.3485  0.3128 -0.3929
 7745SOL    HW135708   5.823   2.014   8.762 -0.6003  1.5745  0.1951
 7745SOL    HW235709   5.875   2.054   8.912  1.6910  0.8415 -0.3757
 7746SOL     OW35710   3.490   3.371   6.922  0.0964 -0.1892 -0.5756
 7746SOL    HW135711   3.571   3.422   6.949 -0.6939  1.3842 -1.0974
 7746SOL    HW235712   3.479   3.377   6.822 -0.2268 -1.0459 -0.5925
 7747SOL     OW35713   5.730   8.252   1.515 -0.4464  0.1664 -0.3697
 7747SOL    HW135714   5.684   8.174   1.559  1.6800 -0.7624  0.2394
 7747SOL    HW235715   5.666   8.328   1.508 -2.6931 -1.7136 -1.2540
 7748SOL     OW35716   5.193   1.141   3.034 -0.3483 -0.1667  0.3030
 7748SOL    HW135717   5.219   1.184   2.947  0.0964 -1.0739 -0.0232
 7748SOL    HW235718   5.275   1.105   3.078 -0.5569  0.3926  1.1688
 7749SOL     OW35719   7.492   6.351   5.006  0.1365  1.2027  0.0787
 7749SOL    HW135720   7.527   6.395   5.089 -0.0805  0.8561  0.3562
 7749SOL    HW235721   7.420   6.408   4.967 -1.3213  0.2991  1.3701
 7750SOL     OW35722   6.384   0.455   0.067  0.4835  0.7812  0.6404
 7750SOL    HW135723   6.371   0.450   0.166 -0.6726 -1.3813  0.4146
 7750SOL    HW235724   6.321   0.522   0.028  1.3890  2.1151  1.4185
 7751SOL     OW35725   7.643   1.206   3.670  0.2407 -0.2650  0.5105
 7751SOL    HW135726   7.623   1.133   3.735 -1.0275 -0.7011 -0.3534
 7751SOL    HW235727   7.609   1.293   3.705  1.3876 -0.1403  1.3529
 7752SOL     OW35728   3.480   7.602   5.287  0.4059 -0.2211  0.0677
 7752SOL    HW135729   3.483   7.595   5.188 -0.0374 -0.3463  0.0631
 7752SOL    HW235730   3.413   7.538   5.324  1.4977 -1.1143  0.5489
 7753SOL     OW35731   6.799   4.595   0.293  0.0821  0.4315  0.0285
 7753SOL    HW135732   6.773   4.541   0.213  1.2354 -0.3904  0.1987
 7753SOL    HW235733   6.822   4.534   0.369  1.0709  1.1499  0.3238
 7754SOL     OW35734   4.253   3.233   3.134  0.2814  0.0296 -0.2857
 7754SOL    HW135735   4.220   3.306   3.075 -0.1008  0.1265  0.0459
 7754SOL    HW235736   4.269   3.269   3.226  2.2600  0.2031 -0.6924
 7755SOL     OW35737   7.015   6.955   2.555  0.2459 -0.1248 -0.5494
 7755SOL    HW135738   6.998   7.053   2.544  0.0347  0.1070  1.7764
 7755SOL    HW235739   7.108   6.941   2.590  0.7319 -0.8358 -2.0676
 7756SOL     OW35740   2.575   4.387   7.003 -0.1445  0.3000 -0.0641
 7756SOL    HW135741   2.517   4.467   6.993  1.0564  1.2277  0.2462
 7756SOL    HW235742   2.611   4.360   6.914 -0.6181  0.0503 -0.1805
 7757SOL     OW35743   8.696   8.010   6.306 -0.3984 -0.3067 -0.2302
 7757SOL    HW135744   8.636   8.017   6.386  1.6834  2.2002  1.1870
 7757SOL    HW235745   8.755   7.930   6.316  0.8934  0.8233  1.5390
 7758SOL     OW35746   2.546   7.380   0.353 -0.0810  0.2160 -0.6546
 7758SOL    HW135747   2.518   7.458   0.408  0.7071  0.5396 -0.7038
 7758SOL    HW235748   2.566   7.303   0.413  0.9355  0.6175 -0.4740
 7759SOL     OW35749   5.515   6.121   8.382  0.0355 -0.8775  0.3183
 7759SOL    HW135750   5.512   6.115   8.482 -1.4661 -0.4224  0.3185
 7759SOL    HW235751   5.557   6.207   8.355  1.7181 -1.6085  0.5307
 7760SOL     OW35752   8.099   5.182   1.151  0.1359  0.5782  0.4193
 7760SOL    HW135753   8.159   5.102   1.161  0.7999  1.1900  1.4351
 7760SOL    HW235754   8.007   5.158   1.180  0.3742  0.2287  0.9033
 7761SOL     OW35755   4.421   5.670   1.322 -0.0404  0.4773 -0.6937
 7761SOL    HW135756   4.337   5.713   1.289 -0.2275  0.0055 -0.8334
 7761SOL    HW235757   4.493   5.738   1.328 -1.2012  1.5683  2.2217
 7762SOL     OW35758   7.469   5.907   0.372 -0.2984 -0.5441  0.4479
 7762SOL    HW135759   7.441   5.999   0.345 -0.0757 -0.9856 -1.3334
 7762SOL    HW235760   7.392   5.860   0.415 -0.9927 -0.2010 -0.4106
 7763SOL     OW35761   6.591   6.508   8.426 -0.3673 -0.5097  0.1102
 7763SOL    HW135762   6.680   6.518   8.382 -1.1299  0.8204 -1.1507
 7763SOL    HW235763   6.567   6.411   8.430  1.2069 -0.9070  0.6378
 7764SOL     OW35764   5.808   4.710   6.132  0.2460 -0.1981  0.8306
 7764SOL    HW135765   5.813   4.794   6.186  0.1553  0.7688 -0.6384
 7764SOL    HW235766   5.717   4.669   6.143 -0.1336  0.5676  0.5798
 7765SOL     OW35767   3.136   7.731   0.109  0.6816  0.3427 -0.3433
 7765SOL    HW135768   3.093   7.711   0.197  0.3849 -1.7999 -0.9524
 7765SOL    HW235769   3.223   7.777   0.123  1.1205 -0.9166  1.1083
 7766SOL     OW35770   2.011   7.685   7.280  0.1079  0.8576  0.1165
 7766SOL    HW135771   2.055   7.625   7.346 -0.4515 -0.2347 -0.4829
 7766SOL    HW235772   2.080   7.739   7.232  0.6957  0.0627  0.0553
 7767SOL     OW35773   5.655   7.681   5.694  0.1458 -0.1343 -0.1735
 7767SOL    HW135774   5.692   7.711   5.606 -1.2507 -0.2600 -0.8120
 7767SOL    HW235775   5.716   7.612   5.734  0.0916 -1.0638 -1.6734
 7768SOL     OW35776   8.848   4.703   5.552  0.3622 -0.1922 -0.1052
 7768SOL    HW135777   8.768   4.706   5.491  1.4478 -0.5411 -1.5916
 7768SOL    HW235778   8.855   4.790   5.602  0.0406  0.5247 -1.2733
 7769SOL     OW35779   8.900   5.967   4.059  0.0508  0.4242 -0.0949
 7769SOL    HW135780   8.906   5.984   4.158  0.6457  0.4663 -0.1351
 7769SOL    HW235781   8.819   5.912   4.040 -0.6719  1.3537  0.2853
 7770SOL     OW35782   5.274   6.532   2.409  0.1905  0.5878 -0.6770
 7770SOL    HW135783   5.181   6.556   2.436 -0.3000 -1.6467 -0.2350
 7770SOL    HW235784   5.289   6.434   2.426  2.5768  0.8921 -0.8618
 7771SOL     OW35785   0.314   7.919   6.102  0.7035 -0.4243 -0.1377
 7771SOL    HW135786   0.359   7.832   6.122 -0.5265 -0.9601  0.3062
 7771SOL    HW235787   0.358   7.992   6.155 -0.1432 -1.2447  1.7415
 7772SOL     OW35788   1.148   8.534   0.940  0.1883 -0.1644 -0.1282
 7772SOL    HW135789   1.093   8.570   1.015 -1.2700 -2.9727  0.2211
 7772SOL    HW235790   1.206   8.460   0.974  0.1045 -0.9204 -1.5948
 7773SOL     OW35791   0.670   1.034   5.075 -0.2509  0.6792 -0.0388
 7773SOL    HW135792   0.713   0.976   5.005 -1.6589  0.8327 -1.0342
 7773SOL    HW235793   0.673   1.129   5.045 -1.3309  0.6834 -0.1409
 7774SOL     OW35794   3.131   1.002   7.667 -0.2866 -0.1873  0.1962
 7774SOL    HW135795   3.106   1.064   7.742 -1.7743 -2.0063  1.2656
 7774SOL    HW235796   3.047   0.972   7.621  0.5457 -0.0798 -1.3979
 7775SOL     OW35797   3.056   0.062   6.778 -0.2929  0.0962  0.0081
 7775SOL    HW135798   3.085   0.132   6.844 -1.4703 -0.5524  1.2359
 7775SOL    HW235799   3.111  -0.021   6.792 -0.7448 -0.1418  0.3739
 7776SOL     OW35800   2.642   1.853   7.389  0.3075  0.5463 -0.7742
 7776SOL    HW135801   2.731   1.882   7.422  0.4521 -0.3895 -0.3310
 7776SOL    HW235802   2.600   1.791   7.455 -0.7469  1.1130 -0.9002
 7777SOL     OW35803   4.343   4.617   6.204  0.5071  0.2041 -0.0763
 7777SOL    HW135804   4.378   4.580   6.118 -2.9130  0.4280 -1.6595
 7777SOL    HW235805   4.268   4.559   6.237  1.1457  0.6661  2.2803
 7778SOL     OW35806   0.908   2.785   1.618  0.5809 -0.6931  0.1572
 7778SOL    HW135807   0.958   2.852   1.673 -0.9602  0.4344  0.1986
 7778SOL    HW235808   0.969   2.746   1.549  0.9904  2.2095 -1.1891
 7779SOL     OW35809   2.664   4.768   7.001 -0.6813 -0.0411 -0.1784
 7779SOL    HW135810   2.654   4.858   7.043 -2.1602  0.2240 -1.0697
 7779SOL    HW235811   2.758   4.756   6.970 -0.6604  1.5040 -0.7319
 7780SOL     OW35812   8.800   0.843   8.121  0.1520  0.4822 -0.5115
 7780SOL    HW135813   8.824   0.814   8.213  0.3878  0.8469 -0.4611
 7780SOL    HW235814   8.883   0.851   8.065  0.0670  0.8491 -0.5881
 7781SOL     OW35815   0.761   5.119   7.417 -0.0075  0.4981 -0.1802
 7781SOL    HW135816   0.757   5.038   7.474 -2.6852  1.2849  0.8215
 7781SOL    HW235817   0.837   5.111   7.352 -1.6193 -3.8287 -1.6927
 7782SOL     OW35818   0.838   7.199   0.710 -0.2004 -0.5247  0.2151
 7782SOL    HW135819   0.822   7.261   0.788 -2.1507  0.7602 -1.1659
 7782SOL    HW235820   0.751   7.179   0.666  0.6098 -3.1287 -0.2538
 7783SOL     OW35821   3.946   7.510   6.557  0.2912 -0.4307 -0.0357
 7783SOL    HW135822   4.018   7.515   6.488 -0.4767 -1.2619 -0.9058
 7783SOL    HW235823   3.986   7.482   6.645  0.7760 -2.5126 -0.9052
 7784SOL     OW35824   2.847   5.056   3.085  1.2433  0.0299 -0.4002
 7784SOL    HW135825   2.874   5.023   2.995 -1.2846 -1.8325 -0.5285
 7784SOL    HW235826   2.817   5.152   3.078  1.2569 -0.0494 -1.5093
 7785SOL     OW35827   0.708   7.963   1.839  0.3770  0.1930 -0.2742
 7785SOL    HW135828   0.785   7.973   1.902  0.8443  0.1045 -0.8309
 7785SOL    HW235829   0.690   7.866   1.823 -0.2219  0.2065  0.3072
 7786SOL     OW35830   6.831   3.795   6.989 -0.0424  0.0122 -0.1028
 7786SOL    HW135831   6.863   3.880   7.031  1.7054 -0.1749 -1.0346
 7786SOL    HW235832   6.878   3.717   7.031  1.7762 -0.1702 -2.4035
 7787SOL     OW35833   6.185   1.069   8.457  0.0933  0.5235 -0.0673
 7787SOL    HW135834   6.102   1.125   8.462 -0.0588  0.2964 -0.0506
 7787SOL    HW235835   6.170   0.983   8.506  0.8122  1.0802  1.1557
 7788SOL     OW35836   2.747   3.009   3.708 -0.0483 -0.5984 -0.6546
 7788SOL    HW135837   2.750   3.066   3.625 -0.8549 -1.7172 -1.4703
 7788SOL    HW235838   2.651   2.997   3.736  0.1339 -1.3427 -0.3489
 7789SOL     OW35839   6.462   3.708   0.323 -0.3294 -0.1539  0.1555
 7789SOL    HW135840   6.429   3.649   0.249 -1.9357 -0.5509  1.1659
 7789SOL    HW235841   6.448   3.663   0.411 -1.4493  1.6365  0.9312
 7790SOL     OW35842   4.699   3.011   5.135 -0.0738 -0.4907  0.1288
 7790SOL    HW135843   4.666   2.919   5.114 -0.2894  0.3408 -3.6308
 7790SOL    HW235844   4.798   3.014   5.127 -0.0491 -0.4663  0.4635
 7791SOL     OW35845   3.677   0.687   1.192  0.1778  0.6455 -0.4200
 7791SOL    HW135846   3.758   0.735   1.226 -1.4298  1.4016  2.5287
 7791SOL    HW235847   3.599   0.749   1.191 -0.9140 -0.6954 -0.9000
 7792SOL     OW35848   5.116   7.205   0.504  0.6335  0.0222  0.0422
 7792SOL    HW135849   5.132   7.282   0.442  0.9489 -0.7246 -0.8209
 7792SOL    HW235850   5.028   7.217   0.550  0.8704  1.0985  0.2261
 7793SOL     OW35851   1.699   7.096   1.068 -0.3065 -0.0159 -0.0704
 7793SOL    HW135852   1.735   7.168   1.009 -0.8074  1.0111  0.8578
 7793SOL    HW235853   1.599   7.098   1.066 -0.3762  1.5729  2.6043
 7794SOL     OW35854   2.256   5.759   1.105 -0.4404 -0.6758  0.4748
 7794SOL    HW135855   2.244   5.704   1.022  4.8283  0.6754 -1.3820
 7794SOL    HW235856   2.323   5.716   1.164 -1.3638  0.3166  2.3049
 7795SOL     OW35857   5.808   4.479   2.104 -0.0387  0.1231 -0.0322
 7795SOL    HW135858   5.724   4.466   2.052 -0.6453  1.3856  0.5972
 7795SOL    HW235859   5.787   4.528   2.189  1.5138  1.5378 -0.4370
 7796SOL     OW35860   0.208   2.100   0.542 -0.3593 -0.1877  0.1198
 7796SOL    HW135861   0.122   2.137   0.505 -0.6377 -1.7855 -0.8501
 7796SOL    HW235862   0.282   2.166   0.525 -1.1093  0.5512 -0.3307
 7797SOL     OW35863   0.862   1.153   5.783  0.1154  0.1671 -0.0134
 7797SOL    HW135864   0.785   1.095   5.811  0.7594 -0.1459  1.1439
 7797SOL    HW235865   0.835   1.208   5.703 -1.3173  0.0831  0.3927
 7798SOL     OW35866   3.067   8.831   1.665  0.2327  0.3487  0.1862
 7798SOL    HW135867   3.031   8.745   1.630  1.5611 -0.8187  1.6055
 7798SOL    HW235868   3.167   8.832   1.654  0.0645  2.5216 -1.5316
 7799SOL     OW35869   3.165   3.031   5.550 -0.0501  0.2545  0.3388
 7799SOL    HW135870   3.092   3.058   5.613 -1.3887  1.5201 -1.6961
 7799SOL    HW235871   3.125   3.003   5.462  1.9310  1.7568 -1.0926
 7800SOL     OW35872   6.514   4.757   8.874 -0.0628 -0.9803 -0.3434
 7800SOL    HW135873   6.548   4.711   8.791 -1.2963 -1.3950 -0.6291
 7800SOL    HW235874   6.449   4.698   8.921  0.5159 -0.6806  0.8574
 7801SOL     OW35875   5.730   0.860   2.357  0.1042 -0.2322 -0.4277
 7801SOL    HW135876   5.814   0.891   2.400 -1.0264 -0.3403  1.8974
 7801SOL    HW235877   5.753   0.814   2.271  2.1824  2.2196 -1.2509
 7802SOL     OW35878   2.613   7.913   3.951 -0.4142  0.3852  0.2020
 7802SOL    HW135879   2.616   7.939   4.048 -0.3163  1.1981 -0.0222
 7802SOL    HW235880   2.688   7.957   3.902 -1.1842  0.9311 -0.4912
 7803SOL     OW35881   4.894   0.887   5.662  0.0775  0.4073  0.0445
 7803SOL    HW135882   4.854   0.814   5.607  0.0523 -0.0597  0.6752
 7803SOL    HW235883   4.993   0.889   5.648  0.0949  0.1605  0.1357
 7804SOL     OW35884   6.552   8.824   7.251 -0.1447 -0.1112 -0.3477
 7804SOL    HW135885   6.601   8.738   7.236  1.3040  0.8348 -1.0873
 7804SOL    HW235886   6.610   8.888   7.300 -1.8085 -0.0999  1.7292
 7805SOL     OW35887   0.239   3.293   8.225 -0.0799 -0.1955  0.3131
 7805SOL    HW135888   0.297   3.241   8.162 -0.7195  0.0384 -0.4706
 7805SOL    HW235889   0.162   3.237   8.254 -0.5734  0.1898 -0.2480
 7806SOL     OW35890   4.541   4.460   2.118  0.4052  0.0962  0.1083
 7806SOL    HW135891   4.613   4.472   2.186  0.0703 -0.1273  0.5043
 7806SOL    HW235892   4.452   4.479   2.160  0.0163 -1.9290  0.2591
 7807SOL     OW35893   0.761   6.298   8.033 -0.1462  0.1938  0.2384
 7807SOL    HW135894   0.794   6.304   8.127 -0.2365  2.2443  0.1493
 7807SOL    HW235895   0.682   6.236   8.029  0.7566 -1.0478  1.2417
 7808SOL     OW35896   1.270   0.472   1.796 -0.3002 -0.4162 -0.9436
 7808SOL    HW135897   1.358   0.426   1.794  0.1443  0.2013  2.0675
 7808SOL    HW235898   1.274   0.555   1.741  1.4558  0.3552  0.3228
 7809SOL     OW35899   8.628   5.748   7.359  0.2431 -0.1498  0.2786
 7809SOL    HW135900   8.683   5.767   7.440  0.9233 -0.4964 -0.1046
 7809SOL    HW235901   8.554   5.686   7.383  0.4910 -0.3140  0.6165
 7810SOL     OW35902   0.114   7.705   5.813 -0.2116 -0.1079 -0.1644
 7810SOL    HW135903   0.117   7.632   5.882  1.3849  0.8275  0.8065
 7810SOL    HW235904   0.186   7.689   5.745  0.3405  0.7045  0.2213
 7811SOL     OW35905   8.254   8.673   6.781  0.0477  0.0207 -0.1262
 7811SOL    HW135906   8.163   8.652   6.815 -0.5598  2.1227 -0.3994
 7811SOL    HW235907   8.310   8.590   6.783 -0.6039 -0.4313  3.9438
 7812SOL     OW35908   8.084   6.027   3.101 -0.3798  0.0161  0.5966
 7812SOL    HW135909   8.156   6.033   3.170  0.3127 -1.2996 -0.0109
 7812SOL    HW235910   8.067   5.931   3.078 -1.3780  0.3869 -0.2656
 7813SOL     OW35911   4.523   6.506   3.844 -0.2979  0.4819 -0.0534
 7813SOL    HW135912   4.585   6.528   3.919  1.5443 -0.4451 -1.2700
 7813SOL    HW235913   4.507   6.587   3.788  0.5637  0.5067 -0.2650
 7814SOL     OW35914   2.491   0.276   1.725 -0.3725  0.2306  0.0348
 7814SOL    HW135915   2.463   0.195   1.675 -0.8591  2.1014 -2.8135
 7814SOL    HW235916   2.417   0.306   1.786  0.4323 -2.3691  2.3974
 7815SOL     OW35917   3.403   5.348   1.629 -0.6663 -0.6967  0.3796
 7815SOL    HW135918   3.317   5.354   1.681 -2.0523  4.0905 -2.1476
 7815SOL    HW235919   3.387   5.297   1.545 -0.5270 -1.3463  0.7396
 7816SOL     OW35920   3.950   2.139   3.438 -0.3785 -0.0959 -0.2845
 7816SOL    HW135921   3.980   2.091   3.355  0.9563  0.0071  0.1304
 7816SOL    HW235922   3.909   2.227   3.411  2.2950  1.0726 -0.7308
 7817SOL     OW35923   4.072   2.556   2.990 -0.3808 -0.2268  0.2264
 7817SOL    HW135924   3.975   2.575   3.003 -0.5204 -1.8674  1.8486
 7817SOL    HW235925   4.095   2.470   3.036  1.4371 -0.8284 -1.7199
 7818SOL     OW35926   3.958   0.995   0.237  0.2015 -1.0053 -0.0940
 7818SOL    HW135927   4.053   0.964   0.240  0.5057 -0.4209 -2.6954
 7818SOL    HW235928   3.897   0.917   0.224  0.4746 -1.1801 -0.3150
 7819SOL     OW35929   5.815   0.295   7.812 -0.2171  0.0024 -0.7079
 7819SOL    HW135930   5.834   0.216   7.754 -0.1920  0.4727 -1.3553
 7819SOL    HW235931   5.891   0.360   7.805 -1.2428  1.1039 -1.9524
 7820SOL     OW35932   0.243   3.367   4.192  0.5644  0.1176 -0.5619
 7820SOL    HW135933   0.301   3.374   4.111  0.6342  0.8836 -0.4581
 7820SOL    HW235934   0.162   3.313   4.171  0.3886  0.6391 -1.2669
 7821SOL     OW35935   2.657   0.789   6.436 -0.1685  0.1559  0.0111
 7821SOL    HW135936   2.590   0.780   6.363 -0.2647 -0.3628  0.1608
 7821SOL    HW235937   2.616   0.836   6.514  0.2166  1.5600 -0.6217
 7822SOL     OW35938   8.126   1.827   0.036  0.1085  1.0643 -0.0685
 7822SOL    HW135939   8.153   1.767   0.112 -1.0211  1.5314  0.7148
 7822SOL    HW235940   8.172   1.797  -0.048  1.2619  0.4575  0.7702
 7823SOL     OW35941   4.324   0.155   2.089  0.2625 -0.5841 -0.3110
 7823SOL    HW135942   4.313   0.132   2.186  1.7930  2.1890  0.5873
 7823SOL    HW235943   4.238   0.140   2.041 -1.4064  0.8557  2.1182
 7824SOL     OW35944   4.799   5.200   1.084  0.2292  0.4737  0.9362
 7824SOL    HW135945   4.818   5.272   1.017  0.9211  0.8633  1.5470
 7824SOL    HW235946   4.886   5.164   1.119 -0.1387  0.5891  1.9631
 7825SOL     OW35947   6.274   7.309   0.791 -0.0834 -0.3926 -0.2294
 7825SOL    HW135948   6.290   7.300   0.890 -0.4695 -0.1733 -0.1444
 7825SOL    HW235949   6.351   7.269   0.741  0.6232  0.4512  0.1647
 7826SOL     OW35950   1.505   2.890   5.245  0.0994 -0.9895  0.8707
 7826SOL    HW135951   1.599   2.922   5.256  0.4008 -0.9673 -1.4639
 7826SOL    HW235952   1.506   2.796   5.213 -0.6128 -0.2939 -1.2638
 7827SOL     OW35953   2.013   1.073   7.547  0.1227 -0.0579  0.3875
 7827SOL    HW135954   2.065   1.156   7.529 -1.4447  1.0010  0.6928
 7827SOL    HW235955   2.036   1.004   7.479 -0.1190  1.3290 -1.1290
 7828SOL     OW35956   2.718   3.693   6.075  0.2742  0.3063 -0.6228
 7828SOL    HW135957   2.672   3.758   6.135 -0.1443  0.1522 -0.7807
 7828SOL    HW235958   2.770   3.743   6.005  0.2230  0.4725 -0.5410
 7829SOL     OW35959   2.932   7.033   1.916 -0.1139  0.2893  0.2266
 7829SOL    HW135960   2.977   7.023   1.827 -1.8871  0.3839 -0.7075
 7829SOL    HW235961   2.861   7.102   1.909 -3.5446 -3.0493  0.3711
 7830SOL     OW35962   2.186   2.610   5.776  0.5743  0.3086  0.2330
 7830SOL    HW135963   2.234   2.635   5.860 -1.5321  2.0558  0.9685
 7830SOL    HW235964   2.210   2.673   5.703  1.3510 -0.3751 -0.1065
 7831SOL     OW35965   2.191   2.766   3.841 -0.3425 -0.0652  0.0283
 7831SOL    HW135966   2.207   2.855   3.883 -3.8970  0.9127 -0.4919
 7831SOL    HW235967   2.268   2.743   3.781  2.7335  0.5341  3.5562
 7832SOL     OW35968   3.226   0.539   6.774 -0.4238 -0.2144 -0.4781
 7832SOL    HW135969   3.278   0.576   6.697  1.5490  0.0390  0.9287
 7832SOL    HW235970   3.256   0.445   6.792 -0.9408 -0.3040 -0.0814
 7833SOL     OW35971   6.336   3.847   7.559 -1.0433 -0.4159  0.0372
 7833SOL    HW135972   6.388   3.778   7.509 -2.3234 -1.1073 -0.3620
 7833SOL    HW235973   6.398   3.903   7.613  0.1352 -1.0577 -0.6431
 7834SOL     OW35974   5.934   8.262   3.256 -0.1467 -0.1522 -0.0785
 7834SOL    HW135975   5.922   8.337   3.320  0.7206 -1.7728  2.0502
 7834SOL    HW235976   5.855   8.258   3.194 -1.1438  1.2448  1.0835
 7835SOL     OW35977   8.159   4.844   5.080  0.2859 -0.5709  0.2177
 7835SOL    HW135978   8.226   4.770   5.093  0.5520 -0.7113 -1.7372
 7835SOL    HW235979   8.072   4.804   5.049 -0.2683 -0.2462  1.3183
 7836SOL     OW35980   1.877   1.490   5.751 -0.0775 -0.0773  0.4195
 7836SOL    HW135981   1.878   1.585   5.722  0.9347  0.0219  0.7672
 7836SOL    HW235982   1.792   1.471   5.800 -0.6719  0.4083 -0.4160
 7837SOL     OW35983   0.715   4.330   8.199 -0.6473  0.3141 -0.5430
 7837SOL    HW135984   0.734   4.336   8.297  1.3308  1.4572 -0.9692
 7837SOL    HW235985   0.717   4.421   8.159  0.4954 -0.3211 -1.9673
 7838SOL     OW35986   3.667   0.582   5.316  0.0715 -0.1203  0.2834
 7838SOL    HW135987   3.567   0.593   5.316  0.2498  1.6904 -0.0800
 7838SOL    HW235988   3.691   0.489   5.288 -1.5691 -1.1902  2.2441
 7839SOL     OW35989   6.773   1.120   2.781  0.3284 -0.0849 -0.0626
 7839SOL    HW135990   6.788   1.021   2.769 -0.7413 -0.1916 -0.6096
 7839SOL    HW235991   6.723   1.155   2.702  0.0509  0.7591  0.4892
 7840SOL     OW35992   7.198   7.979   7.523  0.2456 -0.0225 -0.7232
 7840SOL    HW135993   7.199   7.923   7.606  0.8855  0.2342 -0.5535
 7840SOL    HW235994   7.142   8.060   7.538  0.1456 -0.1116 -0.6253
 7841SOL     OW35995   6.990   0.033   7.340 -0.0172  0.1741  0.0176
 7841SOL    HW135996   6.973   0.087   7.423 -0.5192 -0.1415  0.1268
 7841SOL    HW235997   7.065   0.073   7.289 -1.0161  1.5640 -0.4083
 7842SOL     OW35998   5.721   7.280   4.614 -0.2249 -0.5125 -0.2299
 7842SOL    HW135999   5.696   7.189   4.647 -0.6958  0.0209  0.8892
 7842SOL    HW236000   5.776   7.327   4.683 -2.6215  1.2521  0.5361
 7843SOL     OW36001   4.899   0.316   7.160 -0.2896 -0.1108 -0.3699
 7843SOL    HW136002   4.973   0.380   7.182  2.2930 -3.4114  1.1132
 7843SOL    HW236003   4.880   0.320   7.062 -0.1859  2.8458 -0.3227
 7844SOL     OW36004   5.925   4.278   5.452  0.0809  0.5229 -0.0271
 7844SOL    HW136005   5.853   4.308   5.515  1.7643 -0.5562  2.4882
 7844SOL    HW236006   5.883   4.236   5.371 -2.1333  2.3705  0.1182
 7845SOL     OW36007   7.369   5.532   6.003 -0.0407 -0.1420 -0.3467
 7845SOL    HW136008   7.332   5.624   6.019  1.4454  0.1781  1.3828
 7845SOL    HW236009   7.371   5.514   5.904 -1.3358  1.2517 -0.6544
 7846SOL     OW36010   0.734   4.513   1.510  0.2046 -0.2712  0.1643
 7846SOL    HW136011   0.822   4.466   1.495  0.2910  0.3058 -1.3196
 7846SOL    HW236012   0.697   4.488   1.599  1.8910 -0.5180  0.8136
 7847SOL     OW36013   7.362   5.126   8.115 -0.4885  0.2144 -0.0522
 7847SOL    HW136014   7.443   5.130   8.174  0.9096  0.1893 -1.9228
 7847SOL    HW236015   7.319   5.037   8.123 -0.9148  0.5564  1.6889
 7848SOL     OW36016   3.089   4.634   5.155 -0.0379  0.1906 -0.1908
 7848SOL    HW136017   3.153   4.704   5.123  0.6034 -0.5620 -0.5612
 7848SOL    HW236018   3.028   4.674   5.224  1.2282  0.7471  0.6175
 7849SOL     OW36019   6.659   6.451   3.421  0.2302 -0.4524  0.0623
 7849SOL    HW136020   6.739   6.475   3.476  0.2873 -0.0404 -0.2062
 7849SOL    HW236021   6.675   6.476   3.326 -0.4577  0.1931  0.1117
 7850SOL     OW36022   3.965   6.662   3.482  0.8678  0.4127 -0.1529
 7850SOL    HW136023   4.019   6.644   3.564  0.2682 -1.2949 -0.1166
 7850SOL    HW236024   3.984   6.592   3.414 -3.4891 -1.9972  0.9610
 7851SOL     OW36025   3.229   8.839   8.359 -0.2891  0.7847  0.5065
 7851SOL    HW136026   3.236   8.790   8.272 -1.4485  1.1290  0.2120
 7851SOL    HW236027   3.151   8.804   8.410  2.0581 -1.4563  2.7226
 7852SOL     OW36028   6.857   5.882   5.070 -0.3090 -0.0882 -0.0884
 7852SOL    HW136029   6.879   5.975   5.098  0.4786  0.0558 -1.1527
 7852SOL    HW236030   6.759   5.865   5.084 -1.0612  1.8680 -2.4975
 7853SOL     OW36031   6.592   5.787   3.545 -0.5489 -0.2620 -0.2775
 7853SOL    HW136032   6.623   5.862   3.603 -2.3777  0.0790  0.2896
 7853SOL    HW236033   6.669   5.727   3.523  0.6873  1.1085  0.2516
 7854SOL     OW36034   6.314   1.610   6.647  0.2096  0.0637  0.7954
 7854SOL    HW136035   6.244   1.541   6.669 -1.0994  1.2900  0.5651
 7854SOL    HW236036   6.344   1.654   6.731  2.7385 -2.3357  1.2192
 7855SOL     OW36037   4.044   3.905   3.901 -0.4599 -0.1891  0.0898
 7855SOL    HW136038   3.944   3.897   3.901 -0.4456 -0.3794  0.3392
 7855SOL    HW236039   4.069   4.001   3.890 -0.6545 -0.2828 -1.2465
 7856SOL     OW36040   3.965   5.223   3.451 -0.7146  0.2725  0.2719
 7856SOL    HW136041   3.955   5.243   3.354  1.2258 -0.9916 -0.2169
 7856SOL    HW236042   4.016   5.296   3.496 -1.9001  1.0182  0.4198
 7857SOL     OW36043   3.810   3.785   4.015  0.2587 -0.1055  0.2918
 7857SOL    HW136044   3.833   3.737   4.099  1.3817 -1.0895 -0.5563
 7857SOL    HW236045   3.824   3.725   3.937  1.1624  1.3986 -0.7511
 7858SOL     OW36046   5.544   1.114   1.455 -0.0929  0.3937 -0.0344
 7858SOL    HW136047   5.561   1.035   1.514  0.7791  0.4028 -0.2707
 7858SOL    HW236048   5.463   1.095   1.398  0.1237 -0.3452 -0.1092
 7859SOL     OW36049   5.909   8.611   1.230 -0.4489 -0.4274 -0.8436
 7859SOL    HW136050   5.863   8.698   1.209 -0.7081 -0.3907 -0.1208
 7859SOL    HW236051   5.997   8.629   1.272 -0.7318 -0.5206 -0.2112
 7860SOL     OW36052   4.871   4.719   0.944  0.5560  0.0069  0.0759
 7860SOL    HW136053   4.871   4.649   0.872  0.5865  0.3115 -0.2248
 7860SOL    HW236054   4.776   4.739   0.971  0.6133 -1.2137  1.2157
 7861SOL     OW36055   4.083   1.889   0.808  0.1770 -0.8333 -0.5582
 7861SOL    HW136056   3.986   1.915   0.809  0.6124  0.8714 -0.1461
 7861SOL    HW236057   4.103   1.839   0.724 -0.5584  0.9352 -1.8305
 7862SOL     OW36058   1.533   2.077   3.267  0.5226 -0.1103  0.5124
 7862SOL    HW136059   1.492   2.167   3.282 -0.8115 -0.6598  0.2660
 7862SOL    HW236060   1.492   2.011   3.330  1.0698 -0.6635  0.2892
 7863SOL     OW36061   1.605   2.740   3.096  0.0276  0.0194  0.3068
 7863SOL    HW136062   1.542   2.662   3.098 -0.0691  0.1098  0.7052
 7863SOL    HW236063   1.699   2.706   3.100 -0.0222 -0.0608  0.8728
 7864SOL     OW36064   1.303   7.241   6.604 -0.3144  0.3347  0.4840
 7864SOL    HW136065   1.239   7.196   6.666  0.5762 -1.3746  0.1934
 7864SOL    HW236066   1.342   7.321   6.648 -0.6790 -0.1146  1.6349
 7865SOL     OW36067   0.743   8.814   7.137  0.2540 -0.0222  0.7335
 7865SOL    HW136068   0.768   8.887   7.073 -0.6562 -0.8885 -0.6454
 7865SOL    HW236069   0.806   8.737   7.126 -0.2430 -0.3968  0.4617
 7866SOL     OW36070   2.866   3.883   5.956 -0.3753 -0.5810  0.3399
 7866SOL    HW136071   2.925   3.913   6.031 -1.1651  0.7750  0.4366
 7866SOL    HW236072   2.868   3.951   5.883 -0.0825 -1.6071 -0.6259
 7867SOL     OW36073   6.122   5.851   1.123 -0.0290 -0.2226 -0.2282
 7867SOL    HW136074   6.107   5.806   1.211 -1.1131  1.8776  0.7213
 7867SOL    HW236075   6.154   5.945   1.139  1.9475 -0.5332 -2.1273
 7868SOL     OW36076   2.056   5.416   5.361 -0.5854  0.4131  0.2911
 7868SOL    HW136077   2.142   5.397   5.410 -0.6386  0.8159  0.5465
 7868SOL    HW236078   2.023   5.333   5.317  0.5901  0.5195 -0.8373
 7869SOL     OW36079   6.547   7.190   4.315 -0.0713  0.0162  0.1517
 7869SOL    HW136080   6.639   7.152   4.319 -0.1381 -0.1282  0.3286
 7869SOL    HW236081   6.545   7.278   4.362  0.2031  0.4898 -0.7142
 7870SOL     OW36082   6.379   7.611   7.120 -0.1210  0.3534  0.2850
 7870SOL    HW136083   6.468   7.617   7.074  0.2310 -0.0107  0.9135
 7870SOL    HW236084   6.340   7.703   7.127 -0.5840  0.3182 -1.5174
 7871SOL     OW36085   5.115   3.611   6.241  0.7674  0.3937 -0.0227
 7871SOL    HW136086   5.074   3.702   6.235 -2.4399 -0.7314  3.2923
 7871SOL    HW236087   5.069   3.549   6.177  0.5711  0.2720  0.2361
 7872SOL     OW36088   7.975   7.372   6.630 -0.1731 -0.4053 -0.2632
 7872SOL    HW136089   7.963   7.306   6.555 -1.9804  0.6142 -0.9262
 7872SOL    HW236090   7.988   7.463   6.591  2.4912 -0.3686  0.6424
 7873SOL     OW36091   6.211   3.743   6.899  0.0826 -0.5993  0.1985
 7873SOL    HW136092   6.140   3.740   6.970 -2.9162  0.9121 -2.5878
 7873SOL    HW236093   6.252   3.834   6.897 -3.0751  0.8980 -2.8519
 7874SOL     OW36094   6.887   6.862   6.410 -0.4518  0.3919  0.1221
 7874SOL    HW136095   6.844   6.778   6.444  0.0587 -0.2076 -0.6875
 7874SOL    HW236096   6.979   6.870   6.449 -0.4353  0.4844  0.0629
 7875SOL     OW36097   2.764   8.994   1.323  0.1756 -0.1799 -0.3935
 7875SOL    HW136098   2.845   8.936   1.331 -0.9108 -1.5901  0.6393
 7875SOL    HW236099   2.704   8.978   1.401 -1.0343  0.9648 -1.0758
 7876SOL     OW36100   3.823   8.878   0.941  0.1663 -0.3040  0.1590
 7876SOL    HW136101   3.825   8.972   0.907  0.5329 -0.0126  0.9634
 7876SOL    HW236102   3.915   8.838   0.935 -0.0916 -0.7785 -0.6359
 7877SOL     OW36103   2.419   6.415   1.288  0.2630 -0.2123  0.0936
 7877SOL    HW136104   2.419   6.324   1.247  1.9520 -0.4761  0.6419
 7877SOL    HW236105   2.386   6.482   1.221 -0.5765 -1.1592 -0.4520
 7878SOL     OW36106   1.029   0.742   7.505  0.5955 -0.0757  0.8406
 7878SOL    HW136107   0.997   0.676   7.437 -1.4404  1.5495  0.1881
 7878SOL    HW236108   1.127   0.759   7.490  0.6594 -1.3242 -0.3356
 7879SOL     OW36109   5.293   6.288   8.451 -0.2628 -0.5528  0.4474
 7879SOL    HW136110   5.312   6.278   8.549 -1.2156 -1.1359  0.5836
 7879SOL    HW236111   5.330   6.210   8.401  1.2611  0.3221  0.1801
 7880SOL     OW36112   2.769   6.788   0.714  0.6750 -0.2384 -0.0138
 7880SOL    HW136113   2.773   6.699   0.760 -0.6321  0.3143  1.1913
 7880SOL    HW236114   2.856   6.837   0.728  0.6455 -0.4800  1.0339
 7881SOL     OW36115   3.072   2.725   2.983 -0.5032 -0.5877 -0.0030
 7881SOL    HW136116   3.169   2.702   2.992 -0.7020 -0.6844  2.1801
 7881SOL    HW236117   3.047   2.726   2.886  0.9299 -3.6419 -0.4577
 7882SOL     OW36118   7.451   4.481   1.809  0.0350  0.3816  0.0606
 7882SOL    HW136119   7.417   4.448   1.897  0.8493 -0.5565  0.0327
 7882SOL    HW236120   7.529   4.542   1.825 -0.1167  0.5794  0.0234
 7883SOL     OW36121   1.356   8.574   3.645  0.1786 -1.2954 -0.1073
 7883SOL    HW136122   1.414   8.508   3.693  0.7106 -0.4423  0.4204
 7883SOL    HW236123   1.385   8.667   3.668 -2.4836 -0.8277  1.5234
 7884SOL     OW36124   2.388   4.817   6.264  0.3474 -0.0456  0.1874
 7884SOL    HW136125   2.411   4.782   6.355 -2.9677 -3.3754 -0.1592
 7884SOL    HW236126   2.439   4.765   6.195  1.4020  1.2051 -0.0049
 7885SOL     OW36127   8.597   7.963   0.284 -0.3782 -0.2135  0.2562
 7885SOL    HW136128   8.576   8.038   0.347  1.2991 -0.0030  0.5849
 7885SOL    HW236129   8.639   7.888   0.335  1.9436  0.3694 -0.7534
 7886SOL     OW36130   5.806   2.832   6.646  0.2650 -0.3674  0.3856
 7886SOL    HW136131   5.739   2.762   6.619 -0.5961  0.2310  0.9676
 7886SOL    HW236132   5.894   2.810   6.605 -0.6788 -0.2476 -1.7882
 7887SOL     OW36133   1.295   1.185   0.351 -0.2873  0.1529  0.2324
 7887SOL    HW136134   1.275   1.110   0.287 -2.3522  0.3074  0.6695
 7887SOL    HW236135   1.297   1.272   0.301  0.3101  0.0144  0.0160
 7888SOL     OW36136   5.453   1.554   2.860 -0.2854 -0.0151  0.2520
 7888SOL    HW136137   5.484   1.566   2.954 -0.2624  0.7260  0.1484
 7888SOL    HW236138   5.528   1.518   2.805  0.1712  1.0665  0.1636
 7889SOL     OW36139   1.240   6.297   0.494  0.1223  0.2360 -0.0079
 7889SOL    HW136140   1.186   6.213   0.482  0.0190  0.6422 -2.7224
 7889SOL    HW236141   1.183   6.377   0.473 -0.1643  1.1417  3.8214
 7890SOL     OW36142   4.743   0.926   4.139  0.1154 -0.5483 -0.1459
 7890SOL    HW136143   4.766   0.962   4.049 -0.1674  0.6495  0.2612
 7890SOL    HW236144   4.818   0.867   4.171 -0.0289 -1.4390 -1.3958
 7891SOL     OW36145   1.200   0.015   3.148 -0.3509 -0.2678  0.1311
 7891SOL    HW136146   1.165  -0.066   3.195  0.9114 -0.9090 -0.0047
 7891SOL    HW236147   1.252   0.071   3.212  1.6271 -1.2959 -0.5323
 7892SOL     OW36148   6.035   1.284   1.066 -0.1806 -0.1142  0.0400
 7892SOL    HW136149   6.045   1.369   1.117 -1.6698  0.5686 -0.7866
 7892SOL    HW236150   6.126   1.244   1.050  0.2477 -0.8101  3.9391
 7893SOL     OW36151   6.430   7.449   6.079 -0.3615  0.3922  0.0196
 7893SOL    HW136152   6.455   7.374   6.018  1.7103  1.6638 -0.7270
 7893SOL    HW236153   6.358   7.504   6.037 -0.7129 -0.1891 -0.1505
 7894SOL     OW36154   5.786   7.106   2.329 -0.4879 -1.0036 -0.1928
 7894SOL    HW136155   5.803   7.061   2.241  1.5347 -0.1508 -0.2724
 7894SOL    HW236156   5.805   7.041   2.403 -0.5496 -1.2107 -0.3554
 7895SOL     OW36157   7.435   5.281   6.115 -0.2949  0.1221 -0.2083
 7895SOL    HW136158   7.359   5.285   6.178  0.1471  0.7240  0.2914
 7895SOL    HW236159   7.414   5.335   6.033 -0.3966  0.2928 -0.0678
 7896SOL     OW36160   6.799   1.369   0.522  0.0909  0.3091 -0.1699
 7896SOL    HW136161   6.872   1.429   0.554 -1.2400  1.5983  0.5418
 7896SOL    HW236162   6.759   1.406   0.438  0.2360 -0.3830 -0.5507
 7897SOL     OW36163   1.917   5.068   0.406  0.0244  0.7043  0.1501
 7897SOL    HW136164   1.965   5.011   0.339 -1.3033 -0.3314  0.0608
 7897SOL    HW236165   1.938   5.164   0.389  2.3387  0.2580  0.3325
 7898SOL     OW36166   2.296   1.185   0.767  0.1612  0.7391 -0.4454
 7898SOL    HW136167   2.276   1.229   0.855  1.4110  0.7362 -0.1399
 7898SOL    HW236168   2.229   1.114   0.749  0.5238 -0.0107  1.0578
 7899SOL     OW36169   6.679   1.329   2.952 -0.3817  0.1373  0.2281
 7899SOL    HW136170   6.737   1.378   3.018  0.0605 -2.1407  1.6090
 7899SOL    HW236171   6.735   1.264   2.901 -1.1862  0.0635 -0.5676
 7900SOL     OW36172   1.002   4.520   2.406 -0.0018 -0.2439 -0.3364
 7900SOL    HW136173   1.005   4.562   2.496 -1.0042 -1.7991  0.4374
 7900SOL    HW236174   1.021   4.589   2.336  1.6724  0.7939  1.0980
 7901SOL     OW36175   5.475   6.128   3.335 -0.2660 -0.3225 -0.3663
 7901SOL    HW136176   5.574   6.138   3.335 -0.2767  0.1533 -2.9665
 7901SOL    HW236177   5.435   6.188   3.404  1.1134  1.4267 -1.0624
 7902SOL     OW36178   4.055   4.567   0.757 -0.2396 -0.2829  0.3384
 7902SOL    HW136179   3.968   4.531   0.724  0.2477 -0.1313 -1.1440
 7902SOL    HW236180   4.071   4.657   0.718  0.7930 -0.5040  0.2266
 7903SOL     OW36181   5.067   7.777   5.856  0.0536  0.1023  0.2842
 7903SOL    HW136182   5.003   7.760   5.781 -0.3222 -0.5486  0.7554
 7903SOL    HW236183   5.019   7.819   5.933  1.0066  3.7452 -0.9766
 7904SOL     OW36184   8.402   3.234   3.664  0.3383 -0.2236 -0.0465
 7904SOL    HW136185   8.461   3.305   3.625 -2.2366  0.9988 -1.8068
 7904SOL    HW236186   8.400   3.155   3.603 -0.3992  0.0325 -0.3616
 7905SOL     OW36187   5.890   5.094   8.611  0.3359 -0.2968  0.0332
 7905SOL    HW136188   5.866   5.190   8.627  0.4492 -0.2836  0.1254
 7905SOL    HW236189   5.840   5.060   8.531 -2.3933 -1.1349  2.0135
 7906SOL     OW36190   3.373   3.975   3.654 -0.2712  0.5898  0.0529
 7906SOL    HW136191   3.345   4.069   3.674 -0.2734  1.5646 -4.0445
 7906SOL    HW236192   3.471   3.966   3.670 -0.2237  1.3804  0.2437
 7907SOL     OW36193   0.320   5.324   6.328 -0.6122  0.2078 -0.1855
 7907SOL    HW136194   0.264   5.242   6.319 -0.2440 -0.1010  0.2313
 7907SOL    HW236195   0.405   5.300   6.377 -1.1787  1.1424  1.2909
 7908SOL     OW36196   1.838   0.140   0.621 -0.0892  0.2807  0.3098
 7908SOL    HW136197   1.779   0.105   0.548 -0.4598 -0.1922  0.8380
 7908SOL    HW236198   1.925   0.171   0.581  0.5176 -1.8573 -0.1103
 7909SOL     OW36199   2.878   2.970   3.939  0.0527  0.6604  0.2396
 7909SOL    HW136200   2.893   2.872   3.951 -0.4619  0.7105  1.4074
 7909SOL    HW236201   2.836   2.987   3.850 -2.8842 -0.5177  1.3361
 7910SOL     OW36202   6.603   6.420   5.821 -0.0380 -0.0828  0.0171
 7910SOL    HW136203   6.673   6.351   5.801 -0.3230 -0.3441 -0.0936
 7910SOL    HW236204   6.642   6.511   5.809 -0.5411 -0.2200 -3.0352
 7911SOL     OW36205   8.892   5.159   3.505  0.1022 -0.5255  0.0062
 7911SOL    HW136206   8.872   5.171   3.603  1.8126  1.7193  0.1051
 7911SOL    HW236207   8.909   5.062   3.487 -2.6796 -1.3573  1.4270
 7912SOL     OW36208   7.830   7.569   2.003  0.1432  0.5164  0.7567
 7912SOL    HW136209   7.822   7.508   2.081  1.2380 -0.6129  0.0157
 7912SOL    HW236210   7.845   7.662   2.034  0.0510  0.1536  1.8933
 7913SOL     OW36211   3.433   4.078   5.724 -0.3617 -0.1186  0.0243
 7913SOL    HW136212   3.528   4.059   5.751 -0.8468 -0.8856  1.2161
 7913SOL    HW236213   3.426   4.173   5.692  0.1555  0.9500  2.9366
 7914SOL     OW36214   4.659   2.833   7.032 -0.0159 -0.2920 -0.1790
 7914SOL    HW136215   4.559   2.823   7.034 -0.1189  0.7350 -0.2031
 7914SOL    HW236216   4.687   2.869   6.943  0.5037 -1.8326 -0.6588
 7915SOL     OW36217   6.063   7.807   7.450 -0.0720 -0.5136 -0.3643
 7915SOL    HW136218   6.138   7.794   7.385  1.4618 -0.3167  1.3287
 7915SOL    HW236219   6.015   7.892   7.429  0.0304 -0.7430 -1.5866
 7916SOL     OW36220   3.768   8.257   2.170  0.2075  0.3549  0.0625
 7916SOL    HW136221   3.721   8.298   2.091 -1.0001  0.3933  0.7948
 7916SOL    HW236222   3.825   8.181   2.138 -0.4069  0.2567 -0.8257
 7917SOL     OW36223   0.423   7.663   4.273 -0.3313  0.5322 -0.5091
 7917SOL    HW136224   0.401   7.753   4.236 -0.2115  0.7924  0.0542
 7917SOL    HW236225   0.484   7.673   4.352 -1.6022  0.0493  0.5424
 7918SOL     OW36226   8.606   5.329   2.617  0.0082 -0.0146 -0.3351
 7918SOL    HW136227   8.677   5.390   2.653 -0.1984 -0.9722  1.8177
 7918SOL    HW236228   8.649   5.243   2.588 -0.0507  0.0609 -0.6428
 7919SOL     OW36229   3.753   4.180   3.986  0.4607 -0.2971 -0.4583
 7919SOL    HW136230   3.731   4.241   3.909  2.3003 -0.3163 -1.0293
 7919SOL    HW236231   3.704   4.094   3.975  0.0646  0.0115 -1.1642
 7920SOL     OW36232   7.135   1.031   8.303 -0.4801  0.7803  0.2582
 7920SOL    HW136233   7.118   1.074   8.392  0.3632  0.4342  0.5896
 7920SOL    HW236234   7.233   1.017   8.291 -0.5980  0.7590 -0.7011
 7921SOL     OW36235   4.621   3.868   8.128  0.1544 -0.3572  0.0412
 7921SOL    HW136236   4.679   3.787   8.117 -1.3537 -1.4936  0.1136
 7921SOL    HW236237   4.601   3.882   8.225  0.2963  0.0095  0.0167
 7922SOL     OW36238   5.042   5.622   6.923 -0.4569  0.5786 -0.4291
 7922SOL    HW136239   5.002   5.539   6.884 -1.1687  1.0854 -0.7875
 7922SOL    HW236240   5.018   5.628   7.020  1.6296 -0.8757  0.2143
 7923SOL     OW36241   2.820   5.435   4.526 -0.6523  0.5105 -0.6917
 7923SOL    HW136242   2.787   5.425   4.432 -0.8000 -2.3235 -0.3769
 7923SOL    HW236243   2.918   5.415   4.529 -0.7003  0.3363 -0.2125
 7924SOL     OW36244   1.752   7.353   0.954 -0.0906  0.3280  0.5114
 7924SOL    HW136245   1.770   7.450   0.942  3.4333 -0.1609  1.3249
 7924SOL    HW236246   1.669   7.340   1.009 -1.4526  2.8066 -0.8844
 7925SOL     OW36247   1.415   6.162   6.702  0.0395 -0.6333  0.7722
 7925SOL    HW136248   1.383   6.256   6.690 -1.4530 -1.3124 -0.8499
 7925SOL    HW236249   1.498   6.147   6.648 -0.0354 -0.3960  0.5907
 7926SOL     OW36250   4.831   7.916   6.424 -0.1109  0.3844 -0.6467
 7926SOL    HW136251   4.815   7.832   6.475  1.8919  0.3079 -0.1122
 7926SOL    HW236252   4.852   7.894   6.328  1.4286  0.1916 -0.2776
 7927SOL     OW36253   4.260   8.307   5.299 -0.4667  0.4543  0.4915
 7927SOL    HW136254   4.295   8.400   5.298 -0.9337  0.6165 -0.4897
 7927SOL    HW236255   4.203   8.291   5.219 -0.7694 -0.5305  0.8903
 7928SOL     OW36256   3.492   3.639   3.009  0.0514  0.7572  0.0500
 7928SOL    HW136257   3.412   3.641   2.949  0.4540  0.1563 -0.5187
 7928SOL    HW236258   3.492   3.555   3.063 -0.0508  1.0671  0.5344
 7929SOL     OW36259   2.637   0.860   5.971  0.3744  0.2964 -0.3185
 7929SOL    HW136260   2.595   0.873   6.061  0.3482  1.0693 -0.4354
 7929SOL    HW236261   2.575   0.807   5.913  0.4909 -0.4031  0.1924
 7930SOL     OW36262   5.164   7.101   5.316  0.7395  0.2587  0.0945
 7930SOL    HW136263   5.137   7.006   5.305 -1.9100  1.0455 -0.4248
 7930SOL    HW236264   5.232   7.124   5.246  0.4400 -0.9050 -0.5919
 7931SOL     OW36265   4.267   4.631   5.747 -0.3718 -0.2213 -0.1182
 7931SOL    HW136266   4.174   4.605   5.771 -0.8726  0.5784 -1.1877
 7931SOL    HW236267   4.278   4.632   5.648  0.5176  0.5704 -0.0208
 7932SOL     OW36268   7.196   7.383   6.823  0.5201 -0.3861  0.4639
 7932SOL    HW136269   7.272   7.440   6.791 -0.9547  1.0283 -0.6229
 7932SOL    HW236270   7.203   7.292   6.782  1.5483 -0.2289  0.2762
 7933SOL     OW36271   5.320   3.174   1.522 -0.0712  0.3469 -0.1586
 7933SOL    HW136272   5.388   3.125   1.577  0.5060  1.2360 -0.0573
 7933SOL    HW236273   5.230   3.133   1.534  0.0510  0.5281  1.4577
 7934SOL     OW36274   3.347   2.583   4.846  0.3327 -0.4158  0.8041
 7934SOL    HW136275   3.264   2.526   4.849 -0.9715  1.4494  0.7846
 7934SOL    HW236276   3.385   2.591   4.938  1.8220 -3.1545  0.4706
 7935SOL     OW36277   7.582   3.376   8.673 -0.3494  0.9732  0.0532
 7935SOL    HW136278   7.578   3.282   8.706  1.3908  0.5398 -0.8828
 7935SOL    HW236279   7.505   3.428   8.710 -1.8083 -1.0257 -0.1130
 7936SOL     OW36280   6.805   6.286   5.632 -0.1551  0.5926  0.0684
 7936SOL    HW136281   6.884   6.225   5.638  0.2029  1.1234  0.8138
 7936SOL    HW236282   6.837   6.380   5.618 -0.6595  0.7985  0.2983
 7937SOL     OW36283   6.158   1.056   3.971 -0.1877 -0.6420 -0.1175
 7937SOL    HW136284   6.226   1.049   4.044  1.6359  0.5938 -1.6629
 7937SOL    HW236285   6.097   1.133   3.991 -0.0559 -0.6654  0.3876
 7938SOL     OW36286   4.160   4.887   2.779  0.1872  0.2492  0.4886
 7938SOL    HW136287   4.175   4.937   2.863  0.4337  0.8322  0.0961
 7938SOL    HW236288   4.235   4.823   2.764 -0.3349 -0.5478  1.2025
 7939SOL     OW36289   3.653   1.828   2.664  0.2363  0.3213 -0.2013
 7939SOL    HW136290   3.695   1.914   2.635  1.5849 -0.2799 -0.0917
 7939SOL    HW236291   3.624   1.775   2.584  0.3599  0.4119 -0.3054
 7940SOL     OW36292   3.758   3.583   8.259 -0.3634  0.0268  0.2184
 7940SOL    HW136293   3.784   3.588   8.356 -1.4526 -1.6641  0.6127
 7940SOL    HW236294   3.826   3.632   8.204  0.8161  0.1415  1.7390
 7941SOL     OW36295   5.649   1.764   8.669 -0.6533 -0.0863  0.5259
 7941SOL    HW136296   5.560   1.739   8.706 -0.5586  0.0429  0.8466
 7941SOL    HW236297   5.720   1.712   8.715 -0.5899 -0.4278  0.0402
 7942SOL     OW36298   6.079   4.105   4.286 -0.4309  0.0678  0.5349
 7942SOL    HW136299   6.151   4.151   4.233 -1.5604  1.0233 -0.2022
 7942SOL    HW236300   5.989   4.133   4.251 -1.1759 -0.3223  2.1131
 7943SOL     OW36301   8.960   1.634   0.221  0.1609  0.4784 -1.0462
 7943SOL    HW136302   9.012   1.715   0.246 -0.6733  1.0571 -1.1559
 7943SOL    HW236303   8.914   1.649   0.133 -0.5899  0.1736 -0.7184
 7944SOL     OW36304   4.087   2.221   2.617  0.2118  0.4325 -0.3745
 7944SOL    HW136305   4.143   2.139   2.627  0.7217  0.7044 -0.9546
 7944SOL    HW236306   4.126   2.294   2.674  0.5332  0.6656 -0.8930
 7945SOL     OW36307   4.447   1.074   2.328  0.7100 -0.2717 -0.6169
 7945SOL    HW136308   4.534   1.122   2.332  1.3577 -1.2723 -2.1136
 7945SOL    HW236309   4.374   1.133   2.363  1.9462  0.6508  0.4351
 7946SOL     OW36310   0.439   3.724   5.315 -0.1530  0.3145 -0.2550
 7946SOL    HW136311   0.467   3.638   5.358 -0.7320  0.1996 -0.1053
 7946SOL    HW236312   0.352   3.755   5.354  0.0985  1.0158 -0.2466
 7947SOL     OW36313   5.300   5.737   5.644 -0.2702 -0.4405 -0.6177
 7947SOL    HW136314   5.255   5.807   5.589  0.0598 -0.1775 -0.5543
 7947SOL    HW236315   5.347   5.781   5.721  0.7395 -0.6386 -1.1089
 7948SOL     OW36316   3.180   8.046   7.898 -0.1132  0.6671  0.2941
 7948SOL    HW136317   3.181   8.015   7.803 -1.2349 -1.7759  1.0258
 7948SOL    HW236318   3.258   8.007   7.946  1.3594  3.2081  0.0066
 7949SOL     OW36319   0.962   3.803   3.271 -0.2020 -0.1628  0.7489
 7949SOL    HW136320   0.898   3.878   3.290 -0.9255 -0.6614  0.3123
 7949SOL    HW236321   1.022   3.790   3.350 -0.7591  0.1965  1.2388
 7950SOL     OW36322   5.986   1.164   8.159 -0.6584  0.3628  0.1348
 7950SOL    HW136323   5.916   1.129   8.095  1.2339  0.2304 -1.9311
 7950SOL    HW236324   6.008   1.258   8.135  1.5430 -0.3515 -0.7396
 7951SOL     OW36325   2.880   1.343   3.454 -0.2854 -0.0399  0.1908
 7951SOL    HW136326   2.978   1.337   3.472 -0.4443 -0.8408  0.7947
 7951SOL    HW236327   2.831   1.366   3.538 -0.5872  0.6829 -0.1786
 7952SOL     OW36328   2.556   0.498   5.001 -0.2325 -0.3693 -0.8588
 7952SOL    HW136329   2.495   0.531   5.072  0.4847  0.0655 -0.4412
 7952SOL    HW236330   2.515   0.417   4.957  0.5780 -2.3689  1.9326
 7953SOL     OW36331   3.728   3.242   4.389 -0.9340 -0.5162 -0.1069
 7953SOL    HW136332   3.694   3.323   4.438 -0.6251  0.8608 -2.0870
 7953SOL    HW236333   3.815   3.214   4.427 -0.3030  1.0407 -0.3748
 7954SOL     OW36334   7.508   4.247   1.623  0.4230  0.3949 -0.0901
 7954SOL    HW136335   7.473   4.273   1.713 -1.7879 -1.1903 -0.4689
 7954SOL    HW236336   7.591   4.192   1.634  0.0148 -0.0117  0.9924
 7955SOL     OW36337   6.208   5.978   8.662  0.0764  0.3493  0.3368
 7955SOL    HW136338   6.240   6.072   8.675  0.5725  0.5761 -2.1542
 7955SOL    HW236339   6.265   5.916   8.715 -0.1963  1.4436  1.9288
 7956SOL     OW36340   2.674   0.306   7.318 -0.4271  0.2635 -0.2804
 7956SOL    HW136341   2.738   0.286   7.244 -1.1575  1.5680 -1.2823
 7956SOL    HW236342   2.603   0.236   7.320 -0.0939 -0.0829 -0.4397
 7957SOL     OW36343   2.046   8.669   5.279 -0.5025 -0.0435  0.6700
 7957SOL    HW136344   1.970   8.645   5.338 -1.5288  1.6211  0.0602
 7957SOL    HW236345   2.084   8.586   5.238 -0.9674 -1.0241  2.1992
 7958SOL     OW36346   3.394   2.916   5.108 -0.3872  0.2979 -0.3661
 7958SOL    HW136347   3.440   2.991   5.156 -0.3081  0.7893 -1.2091
 7958SOL    HW236348   3.401   2.930   5.009 -0.2008 -0.9288 -0.5292
 7959SOL     OW36349   7.005   2.291   7.918  0.2504  0.4056  0.1419
 7959SOL    HW136350   6.999   2.389   7.934  1.5017  0.8344 -1.7542
 7959SOL    HW236351   7.099   2.260   7.932  0.3840 -0.0443 -1.6065
 7960SOL     OW36352   1.406   6.070   4.907  0.0075  0.5380 -0.3972
 7960SOL    HW136353   1.367   5.982   4.882  0.6799  0.6032 -1.6924
 7960SOL    HW236354   1.412   6.129   4.827  5.0381 -0.3410 -0.7923
 7961SOL     OW36355   8.519   4.262   4.551 -0.0685 -0.0146  0.5189
 7961SOL    HW136356   8.584   4.211   4.495  0.8950  1.1611  0.5143
 7961SOL    HW236357   8.474   4.332   4.495  0.9438  1.2042  1.1849
 7962SOL     OW36358   4.751   5.161   8.606 -0.2692  0.3966 -0.1658
 7962SOL    HW136359   4.674   5.223   8.622  0.3026  0.7553  1.3313
 7962SOL    HW236360   4.781   5.122   8.693  1.3389  0.3841 -0.7012
 7963SOL     OW36361   5.247   4.388   6.230  0.3588  0.0171 -0.2983
 7963SOL    HW136362   5.296   4.409   6.314  0.7853 -0.0278 -0.5349
 7963SOL    HW236363   5.292   4.313   6.182  1.4211  1.4668 -1.6648
 7964SOL     OW36364   5.413   1.844   1.891  0.5516  0.1826 -0.6506
 7964SOL    HW136365   5.394   1.791   1.808  0.0735  1.3357 -1.2864
 7964SOL    HW236366   5.504   1.885   1.884 -0.0237  1.3883 -1.2088
 7965SOL     OW36367   8.891   4.052   2.603 -0.3804 -0.1496  0.6574
 7965SOL    HW136368   8.794   4.039   2.587  0.0888 -1.4588 -1.3989
 7965SOL    HW236369   8.925   4.128   2.546  0.2307 -1.2421 -0.4732
 7966SOL     OW36370   0.751   8.243   5.937  0.2542 -0.5080  0.7122
 7966SOL    HW136371   0.705   8.173   5.882 -1.8116  1.5722 -0.3358
 7966SOL    HW236372   0.786   8.314   5.876 -0.5366  0.9658  1.9485
 7967SOL     OW36373   4.874   0.298   5.475 -1.0390 -0.2173  0.3300
 7967SOL    HW136374   4.912   0.226   5.417 -0.9110 -1.5102  1.9788
 7967SOL    HW236375   4.794   0.263   5.523 -0.2139  0.3212  2.1313
 7968SOL     OW36376   5.481   3.366   1.036  0.4937 -0.0309  0.2105
 7968SOL    HW136377   5.497   3.334   0.943  1.2739  1.4513 -0.1902
 7968SOL    HW236378   5.388   3.403   1.043  0.6619  0.4709 -0.1699
 7969SOL     OW36379   6.939   4.825   0.340 -0.1608 -1.0959 -0.0691
 7969SOL    HW136380   6.914   4.733   0.310  1.5047 -2.1009  1.5829
 7969SOL    HW236381   6.889   4.848   0.424 -1.0767 -0.2053 -0.8344
 7970SOL     OW36382   2.871   2.250   6.880 -0.2501  0.9711  0.2271
 7970SOL    HW136383   2.936   2.181   6.846  0.5664  1.8448 -0.0167
 7970SOL    HW236384   2.812   2.209   6.949 -0.0880 -0.0999 -0.2525
 7971SOL     OW36385   5.634   3.050   6.639  0.2286 -0.0239 -0.4560
 7971SOL    HW136386   5.706   2.988   6.606  0.8216 -0.2239  1.1230
 7971SOL    HW236387   5.552   3.039   6.583  1.7428  0.9881 -2.9773
 7972SOL     OW36388   3.482   6.412   7.827 -0.4164  0.1644 -0.7312
 7972SOL    HW136389   3.533   6.327   7.820 -3.3023 -1.6776 -0.0452
 7972SOL    HW236390   3.393   6.402   7.781 -1.2048  2.4842  0.1966
 7973SOL     OW36391   2.295   6.733   5.203  0.2358 -0.0172 -0.7375
 7973SOL    HW136392   2.295   6.645   5.251  1.3342  1.2193  1.5967
 7973SOL    HW236393   2.385   6.749   5.163 -1.0024 -1.5937 -4.3879
 7974SOL     OW36394   7.629   1.731   8.940 -0.2367 -0.1586 -0.6140
 7974SOL    HW136395   7.566   1.771   8.874 -1.2144 -0.9809 -0.1924
 7974SOL    HW236396   7.711   1.788   8.946 -0.5783  0.4808 -1.7664
 7975SOL     OW36397   3.256   1.708   6.215 -0.1465 -0.5626  0.1699
 7975SOL    HW136398   3.346   1.664   6.223 -0.8198 -1.7663  1.4192
 7975SOL    HW236399   3.261   1.782   6.149  1.9022 -0.2878  0.5923
 7976SOL     OW36400   8.135   6.041   4.881 -0.5349  0.2634 -0.1236
 7976SOL    HW136401   8.086   6.120   4.842 -3.7542 -1.3388  0.5077
 7976SOL    HW236402   8.175   6.067   4.969 -0.8873  1.3876 -0.2826
 7977SOL     OW36403   8.521   1.346   1.013 -0.2395  0.0836  0.2612
 7977SOL    HW136404   8.577   1.407   1.070  0.7790  1.1671 -1.8655
 7977SOL    HW236405   8.428   1.383   1.007  0.2606  1.2452 -0.6642
 7978SOL     OW36406   6.792   1.775   2.504 -0.4669 -0.0491  0.1860
 7978SOL    HW136407   6.750   1.685   2.507 -0.3128 -0.1032  0.8268
 7978SOL    HW236408   6.746   1.831   2.435 -0.2657 -0.7580 -0.5376
 7979SOL     OW36409   6.193   2.330   1.551  0.4774 -0.6176  0.0547
 7979SOL    HW136410   6.136   2.394   1.499  0.8482 -0.2627  0.0884
 7979SOL    HW236411   6.135   2.257   1.588 -0.0219 -0.0153  0.4646
 7980SOL     OW36412   7.204   2.933   6.547 -0.2694 -0.2516 -0.0006
 7980SOL    HW136413   7.114   2.960   6.582 -0.4622 -0.2391 -0.5058
 7980SOL    HW236414   7.266   2.916   6.624 -0.1847  1.4906  0.3294
 7981SOL     OW36415   4.593   1.276   3.202  0.0121 -0.2416  0.4957
 7981SOL    HW136416   4.608   1.271   3.104 -0.6625  1.8425  0.2556
 7981SOL    HW236417   4.581   1.184   3.239 -0.1380 -1.0132 -1.4267
 7982SOL     OW36418   0.863   5.073   5.863 -0.7930 -0.0397  0.1374
 7982SOL    HW136419   0.954   5.113   5.854 -0.7036 -0.3821 -0.5312
 7982SOL    HW236420   0.819   5.108   5.945  0.4568 -0.8658  1.1710
 7983SOL     OW36421   2.501   5.844   3.925  0.9223 -0.6066 -0.4486
 7983SOL    HW136422   2.458   5.869   4.012 -0.4314  0.9287 -1.5034
 7983SOL    HW236423   2.600   5.841   3.936  0.8946  1.5223  0.6943
 7984SOL     OW36424   2.784   0.075   6.683  0.1121  0.5079  1.3386
 7984SOL    HW136425   2.773  -0.021   6.706 -0.4396  0.3140  0.2971
 7984SOL    HW236426   2.879   0.103   6.697  0.2530 -0.1636  1.7075
 7985SOL     OW36427   6.103   4.760   7.025 -0.0545  0.2795 -0.8080
 7985SOL    HW136428   6.088   4.790   7.119 -0.6297  2.9463 -1.7124
 7985SOL    HW236429   6.106   4.660   7.022 -2.4471  0.0787  1.6750
 7986SOL     OW36430   2.390   5.375   4.594 -0.3773  0.5503 -0.2476
 7986SOL    HW136431   2.370   5.418   4.682  0.0297 -0.0514  0.1375
 7986SOL    HW236432   2.363   5.278   4.597 -0.9214  0.6739 -0.9800
 7987SOL     OW36433   6.005   7.305   7.361  0.7140 -0.0168  0.2485
 7987SOL    HW136434   5.914   7.343   7.373  1.0801  0.6126  1.0447
 7987SOL    HW236435   6.003   7.235   7.290 -0.5213 -0.4651  0.7240
 7988SOL     OW36436   4.721   2.872   2.612 -0.6113 -0.0876  0.1306
 7988SOL    HW136437   4.737   2.818   2.694  1.1301  1.3412  0.7616
 7988SOL    HW236438   4.776   2.837   2.536 -2.1826 -1.3767 -0.4350
 7989SOL     OW36439   5.858   4.495   4.907  0.4183 -0.0096 -0.2027
 7989SOL    HW136440   5.925   4.491   4.981  0.7416 -0.5557 -0.5251
 7989SOL    HW236441   5.904   4.494   4.819  0.0736  1.5178 -0.4174
 7990SOL     OW36442   4.547   3.455   3.299  0.6188 -0.6015 -0.7944
 7990SOL    HW136443   4.579   3.417   3.212  1.1371 -0.4488 -0.6763
 7990SOL    HW236444   4.581   3.549   3.309 -1.2251  0.1567 -1.3964
 7991SOL     OW36445   4.168   0.193   1.146 -0.1497 -0.3608  0.1688
 7991SOL    HW136446   4.241   0.252   1.180  0.7965 -1.4454  0.0340
 7991SOL    HW236447   4.186   0.098   1.171  1.1640 -1.4093 -4.2172
 7992SOL     OW36448   7.060   1.814   0.585  0.0263  0.2254 -0.0320
 7992SOL    HW136449   7.116   1.795   0.504  0.7373 -0.0442  0.5136
 7992SOL    HW236450   7.118   1.810   0.667 -0.6227  0.8193  0.4561
 7993SOL     OW36451   0.770   1.298   5.554 -0.0301 -0.5367  0.6287
 7993SOL    HW136452   0.672   1.315   5.547  0.2057  0.5621 -0.2409
 7993SOL    HW236453   0.820   1.379   5.521  1.1574 -1.3700  0.3567
 7994SOL     OW36454   7.245   2.806   7.768 -0.5308 -0.4309  0.3905
 7994SOL    HW136455   7.204   2.866   7.838 -0.7641 -1.4021  1.0923
 7994SOL    HW236456   7.228   2.845   7.678 -0.1100  0.9190  0.8667
 7995SOL     OW36457   0.228   3.834   3.071  0.1993  0.8415  0.2242
 7995SOL    HW136458   0.197   3.844   2.976 -3.4443 -1.7153  1.0233
 7995SOL    HW236459   0.261   3.740   3.085  0.9644  1.2825  1.4425
 7996SOL     OW36460   1.218   4.788   8.946  0.8154  0.1469  0.7821
 7996SOL    HW136461   1.206   4.757   9.041 -0.3902 -1.5190  0.1070
 7996SOL    HW236462   1.190   4.883   8.938 -2.5019 -0.7430  1.3759
 7997SOL     OW36463   3.295   2.307   7.510 -0.4179 -0.2245 -0.3307
 7997SOL    HW136464   3.249   2.350   7.432  0.3043 -0.0111 -0.6448
 7997SOL    HW236465   3.316   2.377   7.579 -0.0128 -0.2156 -0.4615
 7998SOL     OW36466   1.311   5.584   7.095  0.1540  0.2011 -0.2314
 7998SOL    HW136467   1.276   5.676   7.080 -0.4437  0.1158  0.5953
 7998SOL    HW236468   1.248   5.517   7.055 -0.2351  0.0828  0.5716
 7999SOL     OW36469   0.062   8.045   6.070  0.5625  0.3224  0.2029
 7999SOL    HW136470   0.028   8.010   6.158 -0.3837 -1.2388 -0.7577
 7999SOL    HW236471   0.152   8.005   6.051 -0.2585 -1.2123 -0.6135
 8000SOL     OW36472   2.014   7.939   5.837  0.2224 -0.7778  0.1327
 8000SOL    HW136473   1.977   7.906   5.750  1.2676 -0.5664 -0.4094
 8000SOL    HW236474   2.105   7.900   5.850  1.1282  1.2071 -0.1108
 8001SOL     OW36475   8.013   3.230   8.750  0.0842 -0.4183 -0.1214
 8001SOL    HW136476   7.942   3.301   8.750 -1.0377 -1.5138 -1.6608
 8001SOL    HW236477   8.103   3.273   8.745 -0.6505  0.8689 -3.2717
 8002SOL     OW36478   1.020   8.308   0.189  0.1557  0.1357  0.2883
 8002SOL    HW136479   0.984   8.271   0.104 -0.2760  1.2002 -0.0045
 8002SOL    HW236480   0.972   8.267   0.266 -0.9652  0.7579 -0.0670
 8003SOL     OW36481   5.438   1.020   3.095 -0.1017  0.0559 -0.7712
 8003SOL    HW136482   5.510   1.032   3.163 -1.9932  0.0067  1.3257
 8003SOL    HW236483   5.405   0.925   3.098 -0.7040  0.2449 -1.2261
 8004SOL     OW36484   3.993   7.964   4.941  0.0615 -0.2908 -0.3622
 8004SOL    HW136485   4.033   7.915   4.863  1.5700 -0.2636  0.3742
 8004SOL    HW236486   3.995   7.905   5.022 -0.0497  0.2436  0.0326
 8005SOL     OW36487   3.197   4.099   3.244 -0.2194 -0.2797 -0.2420
 8005SOL    HW136488   3.118   4.092   3.184  1.2224  0.0632 -2.2343
 8005SOL    HW236489   3.233   4.007   3.262 -0.8491 -0.4082  0.3745
 8006SOL     OW36490   0.280   6.216   0.398  0.5134  0.3427  0.2424
 8006SOL    HW136491   0.292   6.117   0.398  1.1978  0.4190  0.6249
 8006SOL    HW236492   0.191   6.239   0.437  1.0451 -0.0566  1.7298
 8007SOL     OW36493   3.813   8.841   6.756  0.6320  0.3082 -0.4062
 8007SOL    HW136494   3.743   8.795   6.703 -0.3637  0.0533  1.0987
 8007SOL    HW236495   3.839   8.926   6.710 -0.7456  0.4680 -0.9196
 8008SOL     OW36496   4.680   7.082   3.374  0.2694 -0.1052 -0.1481
 8008SOL    HW136497   4.641   7.111   3.286 -0.4674 -0.4646  0.0568
 8008SOL    HW236498   4.721   7.160   3.420  0.3464  0.1530 -0.6511
 8009SOL     OW36499   4.272   4.854   6.834 -0.1961 -0.2842  0.2936
 8009SOL    HW136500   4.344   4.822   6.895 -1.1162 -0.0985  1.4990
 8009SOL    HW236501   4.288   4.819   6.741  1.2951 -0.4365  0.6025
 8010SOL     OW36502   4.384   6.429   0.279 -0.1400 -0.8015 -0.4871
 8010SOL    HW136503   4.347   6.340   0.253  2.5660 -2.1932  0.2137
 8010SOL    HW236504   4.424   6.423   0.370 -2.0843  1.8111  0.6088
 8011SOL     OW36505   7.670   0.578   1.042  0.4622  0.0861 -0.4447
 8011SOL    HW136506   7.695   0.674   1.031  1.1053 -0.0126  0.0556
 8011SOL    HW236507   7.656   0.536   0.953  0.5863  0.5417 -0.6795
 8012SOL     OW36508   7.881   8.029   7.147  0.1556 -0.0438  0.1542
 8012SOL    HW136509   7.829   8.114   7.154 -0.2708 -0.2206 -0.7026
 8012SOL    HW236510   7.972   8.042   7.186 -0.1772  0.5722  0.7391
 8013SOL     OW36511   8.194   5.184   2.450  0.2950  0.1323  0.3542
 8013SOL    HW136512   8.115   5.222   2.499 -1.6422 -0.7435 -1.9490
 8013SOL    HW236513   8.278   5.210   2.496 -1.2547  2.4872  1.9581
 8014SOL     OW36514   6.700   3.006   2.231 -0.1824 -0.1593  0.6564
 8014SOL    HW136515   6.646   2.955   2.298  0.5681  0.9818  2.1546
 8014SOL    HW236516   6.655   3.092   2.209 -0.1135 -0.2450  0.1608
 8015SOL     OW36517   8.783   3.280   8.466 -0.1036 -0.0395 -0.1732
 8015SOL    HW136518   8.813   3.339   8.390  0.0733 -0.6616 -0.5860
 8015SOL    HW236519   8.860   3.224   8.497 -0.4760 -0.6142 -0.2904
 8016SOL     OW36520   8.651   8.772   1.041  0.2339 -0.0321 -0.2846
 8016SOL    HW136521   8.640   8.778   0.941  0.3026  2.4745 -0.1512
 8016SOL    HW236522   8.567   8.735   1.081 -1.1364  2.2278 -0.9596
 8017SOL     OW36523   1.804   5.461   7.652  0.3871  0.7130 -0.5161
 8017SOL    HW136524   1.733   5.528   7.630 -0.1019  0.4434  0.2392
 8017SOL    HW236525   1.855   5.491   7.732 -0.8895 -0.5970  0.8163
 8018SOL     OW36526   2.834   2.233   1.376  0.0291 -0.4632  0.5842
 8018SOL    HW136527   2.923   2.215   1.335 -0.2028 -0.5572  0.1159
 8018SOL    HW236528   2.825   2.181   1.461 -0.2815 -1.8411 -0.2863
 8019SOL     OW36529   5.661   6.172   5.201 -0.3354  0.2528  0.3602
 8019SOL    HW136530   5.736   6.118   5.240 -0.4929  0.9619  1.6828
 8019SOL    HW236531   5.575   6.143   5.242 -0.7912 -0.5451 -1.1410
 8020SOL     OW36532   3.145   8.913   1.328 -0.3891  0.5759 -0.0420
 8020SOL    HW136533   3.132   8.821   1.367  1.2363  0.0341 -0.7608
 8020SOL    HW236534   3.133   8.909   1.229  2.4452  0.5877 -0.4103
 8021SOL     OW36535   1.916   0.253   7.084 -0.3278  0.5864 -0.2811
 8021SOL    HW136536   1.956   0.293   7.166  2.0129 -2.5520  0.1845
 8021SOL    HW236537   1.976   0.270   7.006  0.0199 -0.8113 -0.3311
 8022SOL     OW36538   4.697   6.524   7.854 -0.0318 -0.2752  0.1860
 8022SOL    HW136539   4.674   6.610   7.808 -1.2841 -0.7351 -0.0699
 8022SOL    HW236540   4.676   6.447   7.794  0.4951 -0.7971  0.6555
 8023SOL     OW36541   8.661   2.484   1.690  0.0365  0.1632 -0.1034
 8023SOL    HW136542   8.715   2.526   1.763  0.1571 -1.1722  0.6067
 8023SOL    HW236543   8.679   2.386   1.688 -2.3608 -0.3315  0.1798
 8024SOL     OW36544   5.005   8.635   7.110 -0.2488  0.6868 -0.2727
 8024SOL    HW136545   5.012   8.537   7.129 -0.6552  0.8433  0.7237
 8024SOL    HW236546   4.925   8.672   7.157  0.1120  1.5698 -0.3507
 8025SOL     OW36547   1.051   4.187   4.725  0.1369  0.5535  0.8815
 8025SOL    HW136548   1.100   4.271   4.749  0.4325  0.6552 -0.0550
 8025SOL    HW236549   0.978   4.209   4.660 -1.5164  0.4891  2.6888
 8026SOL     OW36550   7.716   8.279   1.402  0.4249 -0.8097  0.7829
 8026SOL    HW136551   7.717   8.342   1.479 -2.2234  0.0533  0.1571
 8026SOL    HW236552   7.632   8.292   1.349  1.0270 -3.1091 -0.8186
 8027SOL     OW36553   3.702   5.401   8.061  0.5755  0.5801 -0.1770
 8027SOL    HW136554   3.797   5.433   8.065  0.4314  0.9866 -0.0141
 8027SOL    HW236555   3.691   5.321   8.119  0.7055  0.8166  0.1698
 8028SOL     OW36556   1.850   4.406   2.884 -0.3724 -0.0422 -0.0241
 8028SOL    HW136557   1.847   4.483   2.819  0.9328  0.1903  0.1818
 8028SOL    HW236558   1.852   4.441   2.977 -0.3715 -0.3436  0.0893
 8029SOL     OW36559   4.304   4.185   4.864  0.2117 -0.5202  0.1972
 8029SOL    HW136560   4.222   4.174   4.807  0.3669 -2.0632  0.2411
 8029SOL    HW236561   4.345   4.095   4.880  2.2499  0.3013 -0.3214
 8030SOL     OW36562   2.005   0.846   6.810  0.0806  0.9896 -0.4541
 8030SOL    HW136563   1.921   0.794   6.795  0.6061 -1.1265  3.2985
 8030SOL    HW236564   2.084   0.784   6.805  1.0873  2.2416 -0.3015
 8031SOL     OW36565   7.353   3.302   1.452  0.7102  0.3167  0.1599
 8031SOL    HW136566   7.431   3.242   1.438  1.3744  0.8723  1.4891
 8031SOL    HW236567   7.370   3.364   1.528 -0.6088  1.1384 -0.1798
 8032SOL     OW36568   1.011   5.645   0.832  0.0044  0.0736 -0.0707
 8032SOL    HW136569   1.106   5.665   0.856  0.3959 -0.5490 -1.0877
 8032SOL    HW236570   0.956   5.639   0.916  0.9789 -0.1647  0.5536
 8033SOL     OW36571   8.350   7.071   1.683  0.2016  0.5182  0.0334
 8033SOL    HW136572   8.447   7.082   1.663 -0.2404  1.2677 -1.8646
 8033SOL    HW236573   8.320   7.145   1.743  0.5858  0.8399 -0.1680
 8034SOL     OW36574   8.678   7.695   7.261 -0.2180  0.1142 -0.1624
 8034SOL    HW136575   8.671   7.759   7.337  1.0989 -1.3498  1.2269
 8034SOL    HW236576   8.760   7.717   7.207 -0.6407  0.5746 -0.6191
 8035SOL     OW36577   2.392   7.848   8.762 -0.0802  0.0310 -0.0821
 8035SOL    HW136578   2.359   7.754   8.765  1.2819 -0.4931 -1.3053
 8035SOL    HW236579   2.457   7.859   8.687 -0.2775  1.9685 -0.0050
 8036SOL     OW36580   7.987   3.424   3.293 -0.4251 -0.4728  0.1190
 8036SOL    HW136581   7.980   3.393   3.198  0.0211  1.9309 -0.7389
 8036SOL    HW236582   7.987   3.524   3.295 -0.4945 -0.5019  2.6721
 8037SOL     OW36583   4.333   8.808   0.097  0.1515  0.4174 -0.4685
 8037SOL    HW136584   4.256   8.774   0.152 -0.0416  0.2465 -0.8341
 8037SOL    HW236585   4.316   8.786   0.001 -0.1142  1.8095 -0.7523
 8038SOL     OW36586   0.723   4.201   1.610 -0.3632 -0.4033 -1.0506
 8038SOL    HW136587   0.798   4.173   1.550  0.5788 -1.1184  0.4185
 8038SOL    HW236588   0.761   4.252   1.687 -1.5203  0.2012 -0.8780
 8039SOL     OW36589   2.623   2.844   3.426  0.0807  0.3237  0.2618
 8039SOL    HW136590   2.575   2.915   3.375 -0.2392  1.1140  1.6474
 8039SOL    HW236591   2.695   2.804   3.368 -0.6035  0.8433 -0.9693
 8040SOL     OW36592   6.209   6.044   5.630  0.1220  0.7400 -0.2462
 8040SOL    HW136593   6.299   6.010   5.659  0.2632  0.0578 -1.4676
 8040SOL    HW236594   6.188   6.128   5.680  1.2738  0.6960  0.3311
 8041SOL     OW36595   5.639   1.543   1.696 -0.5283 -0.0080  0.2684
 8041SOL    HW136596   5.639   1.488   1.779 -2.9294 -1.3197 -0.5488
 8041SOL    HW236597   5.729   1.585   1.683  0.1025 -0.4025  3.0957
 8042SOL     OW36598   2.569   3.387   7.472 -0.1136  0.0167  0.0099
 8042SOL    HW136599   2.621   3.470   7.452 -0.8246  0.4419 -0.1091
 8042SOL    HW236600   2.626   3.322   7.521  0.1259  1.0074  1.0439
 8043SOL     OW36601   5.036   6.315   6.025  0.2206 -0.2880 -0.1267
 8043SOL    HW136602   4.947   6.342   5.988  0.1461 -1.0479 -0.5167
 8043SOL    HW236603   5.104   6.383   6.000 -0.5667  1.1608  1.6019
 8044SOL     OW36604   7.634   1.113   1.639 -0.0518  0.1468  0.5692
 8044SOL    HW136605   7.558   1.088   1.578  0.0040  0.8462  0.2093
 8044SOL    HW236606   7.716   1.064   1.610  0.3955  1.8052 -1.0076
 8045SOL     OW36607   7.928   1.494   3.887  0.5414 -0.7161 -0.0472
 8045SOL    HW136608   8.008   1.476   3.829 -0.1724 -2.0917 -0.6204
 8045SOL    HW236609   7.906   1.413   3.940 -0.1542 -0.1700  0.5056
 8046SOL     OW36610   3.273   1.871   2.428  0.1082  0.1083 -0.1580
 8046SOL    HW136611   3.341   1.872   2.355 -0.4895 -0.9029 -0.7397
 8046SOL    HW236612   3.242   1.965   2.446 -1.1186  0.1921 -2.5182
 8047SOL     OW36613   1.523   8.511   4.019 -0.3191  0.0513  0.8806
 8047SOL    HW136614   1.449   8.509   3.952  0.2551 -0.6647  0.2524
 8047SOL    HW236615   1.591   8.580   3.991  0.5143 -1.0797  0.0650
 8048SOL     OW36616   1.965   3.714   0.240 -0.2339 -0.4489 -0.5965
 8048SOL    HW136617   1.954   3.615   0.228  1.1576 -0.5868 -0.8855
 8048SOL    HW236618   1.898   3.747   0.306 -0.2241 -1.7130  0.0756
 8049SOL     OW36619   3.023   2.053   3.887  0.1410 -0.4649  0.0250
 8049SOL    HW136620   2.936   2.044   3.838  0.4181 -2.4743 -0.1210
 8049SOL    HW236621   3.032   2.146   3.923 -1.1913  0.3177 -1.6242
 8050SOL     OW36622   4.864   3.712   6.827  0.0505 -0.2080 -0.1724
 8050SOL    HW136623   4.829   3.619   6.823 -0.2915 -0.2208  2.2307
 8050SOL    HW236624   4.789   3.776   6.843  0.5108  0.2663  0.1300
 8051SOL     OW36625   6.694   2.431   8.950 -0.1660 -0.0206  0.1328
 8051SOL    HW136626   6.660   2.387   9.033 -1.0541 -0.9632 -0.7348
 8051SOL    HW236627   6.775   2.486   8.973  0.4207 -1.3737  1.3765
 8052SOL     OW36628   7.543   1.259   3.416 -0.1492  0.5902 -0.0602
 8052SOL    HW136629   7.587   1.249   3.505  0.6713 -0.0279 -0.5275
 8052SOL    HW236630   7.444   1.252   3.427 -0.0181 -0.1409  0.7117
 8053SOL     OW36631   3.726   8.592   6.980 -0.3840 -0.4507 -0.1764
 8053SOL    HW136632   3.746   8.670   6.921  0.1759  1.5634  2.6116
 8053SOL    HW236633   3.812   8.548   7.008 -0.5006  0.1823  1.2048
 8054SOL     OW36634   4.374   0.677   5.988 -0.2515  0.0255  0.0088
 8054SOL    HW136635   4.315   0.677   5.907  0.0505  2.4227 -0.2311
 8054SOL    HW236636   4.323   0.640   6.066 -1.2889 -0.1623 -0.7481
 8055SOL     OW36637   7.721   3.943   4.989  0.9494 -0.0155 -0.9179
 8055SOL    HW136638   7.796   3.882   4.964  1.7695  0.8256 -0.5468
 8055SOL    HW236639   7.754   4.038   4.990  0.4489  0.1655  1.3524
 8056SOL     OW36640   2.934   0.984   6.816  0.5852 -0.2524 -0.0281
 8056SOL    HW136641   2.870   1.012   6.745  0.4300  1.3541  0.7241
 8056SOL    HW236642   3.025   0.973   6.776  0.4875  0.5711 -0.4839
 8057SOL     OW36643   8.028   0.237   0.679 -0.2788  0.1127 -0.2294
 8057SOL    HW136644   8.080   0.299   0.620 -0.0094 -0.5710 -0.7192
 8057SOL    HW236645   8.022   0.147   0.636 -1.4138  0.0332  0.0694
 8058SOL     OW36646   8.247   3.892   5.250  0.0073 -0.6345  0.3416
 8058SOL    HW136647   8.297   3.876   5.165 -0.5842 -2.0473  0.2490
 8058SOL    HW236648   8.308   3.876   5.328  0.2696 -0.2976  0.2105
 8059SOL     OW36649   4.488   2.734   8.600  0.6480 -0.0570  0.2989
 8059SOL    HW136650   4.548   2.809   8.573 -0.7129  0.6238 -0.8869
 8059SOL    HW236651   4.438   2.759   8.682  1.6355 -0.4564  1.0402
 8060SOL     OW36652   2.137   0.267   5.468  0.0256  0.3122 -0.4038
 8060SOL    HW136653   2.073   0.197   5.498 -0.3984  0.8432 -0.0640
 8060SOL    HW236654   2.130   0.347   5.528  0.6791  0.5479 -0.6401
 8061SOL     OW36655   0.272   8.462   5.301 -0.4909 -0.2300  0.3285
 8061SOL    HW136656   0.302   8.492   5.392  1.1347 -0.2545 -0.1898
 8061SOL    HW236657   0.283   8.363   5.293 -2.6026 -0.5331  0.8163
 8062SOL     OW36658   3.056   2.988   7.779 -0.1498 -0.2869 -0.1353
 8062SOL    HW136659   2.989   2.914   7.784  1.1566 -1.3589  2.1742
 8062SOL    HW236660   3.125   2.967   7.710 -0.5792 -0.5224 -0.4983
 8063SOL     OW36661   0.778   4.031   3.324  0.5336 -0.2032  0.0687
 8063SOL    HW136662   0.688   4.053   3.362  1.0636 -0.6320  1.5787
 8063SOL    HW236663   0.827   4.115   3.303  0.2718  0.0318  0.3922
 8064SOL     OW36664   2.186   5.988   7.432  0.4189 -0.2163  0.2374
 8064SOL    HW136665   2.191   5.899   7.386  0.4695 -0.6910  1.1550
 8064SOL    HW236666   2.170   6.059   7.364  0.1114 -0.9566 -0.4762
 8065SOL     OW36667   6.484   5.706   2.497 -0.2898 -0.3773 -0.3090
 8065SOL    HW136668   6.431   5.657   2.567  0.4229 -0.6392  0.0458
 8065SOL    HW236669   6.531   5.640   2.439  1.1081 -0.1049  0.5076
 8066SOL     OW36670   1.697   2.549   0.011 -0.4963 -0.3096 -0.4704
 8066SOL    HW136671   1.725   2.579  -0.080 -0.7281 -0.4252 -0.5813
 8066SOL    HW236672   1.598   2.562   0.022 -0.1621  1.5381  0.4783
 8067SOL     OW36673   8.118   6.547   1.624  0.3304 -0.1253  0.0039
 8067SOL    HW136674   8.026   6.556   1.661 -0.0240 -0.3292 -0.8223
 8067SOL    HW236675   8.157   6.638   1.611  0.8821 -0.0710  1.9076
 8068SOL     OW36676   4.891   1.846   0.519 -0.0724 -0.3772  0.1376
 8068SOL    HW136677   4.850   1.765   0.477 -0.9858 -0.3523  0.9669
 8068SOL    HW236678   4.893   1.835   0.619  0.6435  0.2276  0.1948
 8069SOL     OW36679   5.853   6.070   6.867  0.0887  0.1584 -0.1403
 8069SOL    HW136680   5.833   6.095   6.962 -0.5565  1.0036 -0.4922
 8069SOL    HW236681   5.782   6.009   6.833 -0.7786  1.4671 -0.7144
 8070SOL     OW36682   1.178   6.005   7.242  0.3490 -0.2937 -0.1895
 8070SOL    HW136683   1.118   6.029   7.318  0.7067 -0.1532  0.0522
 8070SOL    HW236684   1.148   5.919   7.201  2.0286 -2.0378  2.1345
 8071SOL     OW36685   1.870   2.314   1.189 -0.1680 -0.6918 -0.1188
 8071SOL    HW136686   1.950   2.371   1.208 -1.2144  0.7410  0.0515
 8071SOL    HW236687   1.821   2.351   1.111 -0.9424 -1.2777  0.0909
 8072SOL     OW36688   8.520   3.536   7.695 -0.1828  0.1742 -0.2246
 8072SOL    HW136689   8.614   3.561   7.673  0.4378  0.2945  2.3378
 8072SOL    HW236690   8.514   3.511   7.792 -2.1030 -3.2618 -1.1381
 8073SOL     OW36691   1.903   7.231   8.558 -0.2940 -0.2296 -0.0433
 8073SOL    HW136692   1.945   7.321   8.572 -0.2033 -0.0284 -1.6049
 8073SOL    HW236693   1.804   7.242   8.543 -0.6827 -0.5834  2.0787
 8074SOL     OW36694   3.217   1.726   7.107 -0.2233 -0.2309  0.4782
 8074SOL    HW136695   3.162   1.730   7.024  1.6340 -1.3576 -0.8445
 8074SOL    HW236696   3.292   1.792   7.100  0.4636 -0.9661  0.8597
 8075SOL     OW36697   5.209   8.156   4.105 -0.0284  0.1839 -0.6152
 8075SOL    HW136698   5.181   8.072   4.150  1.1447  0.3385  0.4164
 8075SOL    HW236699   5.130   8.195   4.056 -0.5708 -1.4887 -1.1047
 8076SOL     OW36700   0.773   4.605   3.709  0.1706  0.6712  0.0938
 8076SOL    HW136701   0.869   4.636   3.706  0.8680 -1.5543 -1.2473
 8076SOL    HW236702   0.768   4.520   3.760 -1.2694  1.2543  0.9496
 8077SOL     OW36703   5.001   8.352   1.016  0.1989 -0.1105  0.5993
 8077SOL    HW136704   5.061   8.422   1.052  0.8565 -0.2566 -0.2090
 8077SOL    HW236705   5.039   8.261   1.036 -0.7107 -0.2601  1.7591
 8078SOL     OW36706   3.818   4.876   4.928  0.4017 -0.7193  0.5692
 8078SOL    HW136707   3.889   4.814   4.894  0.8094  2.0802 -4.1269
 8078SOL    HW236708   3.728   4.842   4.901  0.4295 -0.7138  0.4701
 8079SOL     OW36709   6.841   0.108   3.461  0.1349 -0.5751 -0.1800
 8079SOL    HW136710   6.782   0.027   3.453 -0.1914 -0.4516  0.9689
 8079SOL    HW236711   6.786   0.188   3.485  1.0474 -0.9239  3.3091
 8080SOL     OW36712   5.167   0.006   7.668 -0.2815  0.1155 -0.1485
 8080SOL    HW136713   5.192  -0.049   7.588  2.4162  1.4938 -0.3124
 8080SOL    HW236714   5.070   0.031   7.663 -1.1375 -3.0985 -0.9576
 8081SOL     OW36715   4.445   5.426   2.111  0.3636  0.0364  0.2914
 8081SOL    HW136716   4.379   5.500   2.124  1.2523  1.5580 -3.2622
 8081SOL    HW236717   4.536   5.457   2.138  0.8853  0.5860 -2.0122
 8082SOL     OW36718   2.002   0.511   6.818  0.2243  0.6087  0.3391
 8082SOL    HW136719   1.953   0.430   6.850 -0.6216  0.2772 -1.7050
 8082SOL    HW236720   2.062   0.485   6.743  1.5133  1.5246  1.0433
 8083SOL     OW36721   5.051   4.381   6.808  0.3483 -0.1817  0.1138
 8083SOL    HW136722   4.954   4.358   6.819 -0.0217  1.6987  0.8262
 8083SOL    HW236723   5.095   4.384   6.897  0.5564  1.1355 -0.0256
 8084SOL     OW36724   1.669   5.842   0.625  0.2582 -0.3494 -0.0438
 8084SOL    HW136725   1.688   5.831   0.527  2.1582  0.5785  0.1979
 8084SOL    HW236726   1.737   5.792   0.678  1.6475  2.3971  0.8410
 8085SOL     OW36727   1.729   1.244   6.442 -0.2602  0.9184 -0.5079
 8085SOL    HW136728   1.785   1.314   6.485 -2.2175  3.2414 -1.6003
 8085SOL    HW236729   1.633   1.260   6.466 -0.8273 -0.7881 -1.6064
 8086SOL     OW36730   5.430   8.315   1.595  0.2361  0.0968 -0.1492
 8086SOL    HW136731   5.431   8.399   1.540  2.9333  0.8039  0.8825
 8086SOL    HW236732   5.425   8.236   1.534 -4.8549  0.9729 -1.0571
 8087SOL     OW36733   0.993   0.563   8.676 -0.6256  0.0274  0.3097
 8087SOL    HW136734   1.019   0.649   8.633  1.4115 -1.4806 -1.6067
 8087SOL    HW236735   1.074   0.506   8.689 -1.9614 -1.7280  1.2672
 8088SOL     OW36736   7.960   8.177   6.155 -0.0306 -0.2625  0.2127
 8088SOL    HW136737   8.004   8.161   6.066  0.6301  0.0623  0.4811
 8088SOL    HW236738   7.995   8.111   6.221 -0.2174 -0.2330  0.3392
 8089SOL     OW36739   3.663   7.077   6.331  0.1360 -0.2288  0.4954
 8089SOL    HW136740   3.626   7.160   6.372  1.2059  0.5310 -0.0404
 8089SOL    HW236741   3.659   7.002   6.397 -1.0394  0.1918  0.9085
 8090SOL     OW36742   7.601   3.606   1.401  0.1849 -0.6621 -0.1131
 8090SOL    HW136743   7.575   3.598   1.304  0.1246 -2.8309  0.0609
 8090SOL    HW236744   7.567   3.526   1.451  1.1539 -0.0803  1.4993
 8091SOL     OW36745   5.647   7.220   0.742 -0.7001  0.0915 -0.2365
 8091SOL    HW136746   5.615   7.180   0.656 -1.8549 -2.1876  1.1825
 8091SOL    HW236747   5.590   7.298   0.767 -0.2122  0.9075 -1.6306
 8092SOL     OW36748   5.945   5.278   0.709  0.0445  0.1195 -0.0620
 8092SOL    HW136749   5.876   5.232   0.653 -1.6415 -0.0556  2.0764
 8092SOL    HW236750   6.036   5.250   0.680 -0.8019 -0.4921 -2.2341
 8093SOL     OW36751   7.878   4.523   1.621 -0.0303 -0.1454  0.1706
 8093SOL    HW136752   7.794   4.491   1.577 -0.0947  1.5774 -1.0466
 8093SOL    HW236753   7.955   4.468   1.590 -0.2424  0.3636 -1.3266
 8094SOL     OW36754   2.552   0.793   7.311 -0.1033 -0.0845  0.3361
 8094SOL    HW136755   2.619   0.723   7.333  0.1713  0.6349  1.8368
 8094SOL    HW236756   2.511   0.773   7.222  2.1673 -0.4633 -0.6617
 8095SOL     OW36757   4.760   6.399   6.040 -0.0275  0.2064  0.1013
 8095SOL    HW136758   4.779   6.426   6.135 -1.6249  1.9929 -0.0754
 8095SOL    HW236759   4.677   6.344   6.038 -0.1790  0.4588 -0.3315
 8096SOL     OW36760   2.878   2.748   7.392 -0.1111  0.5151 -0.4086
 8096SOL    HW136761   2.853   2.691   7.470 -1.0219  2.4308  0.7211
 8096SOL    HW236762   2.977   2.742   7.378 -0.1200 -0.9143  0.0208
 8097SOL     OW36763   3.441   4.651   5.089 -0.4716  0.5174 -0.1778
 8097SOL    HW136764   3.505   4.668   5.163  0.2740 -2.3736 -0.0777
 8097SOL    HW236765   3.489   4.654   5.002 -0.7034  0.7720 -0.2972
 8098SOL     OW36766   7.633   5.927   4.928  0.1959  0.3161  0.0691
 8098SOL    HW136767   7.697   5.856   4.958 -0.9083  0.3378  2.6434
 8098SOL    HW236768   7.546   5.885   4.904 -0.1011  0.6928  0.4932
 8099SOL     OW36769   2.280   0.370   6.635  0.2407 -0.5936 -0.9407
 8099SOL    HW136770   2.241   0.283   6.606  0.4803 -0.4077 -1.8407
 8099SOL    HW236771   2.372   0.354   6.672 -0.2975 -0.9075  0.3069
 8100SOL     OW36772   3.951   2.960   6.087  0.1425  0.0733 -0.1150
 8100SOL    HW136773   4.020   2.984   6.018 -0.6472  1.6044 -0.4069
 8100SOL    HW236774   3.923   2.865   6.074  0.9351 -0.0394 -1.1006
 8101SOL     OW36775   3.051   4.126   1.270 -0.3193 -0.1181  0.0413
 8101SOL    HW136776   3.098   4.184   1.204  0.9813  0.8744  1.7827
 8101SOL    HW236777   3.097   4.038   1.276 -0.4051 -0.1878 -0.3418
 8102SOL     OW36778   0.493   3.302   0.037  0.6866  0.3499  0.7505
 8102SOL    HW136779   0.483   3.345  -0.052 -0.2236 -1.5611 -0.1145
 8102SOL    HW236780   0.413   3.321   0.093  0.0359 -0.6288  0.1705
 8103SOL     OW36781   8.432   2.681   2.589  0.4238 -0.0923 -0.3832
 8103SOL    HW136782   8.356   2.625   2.559 -0.7950  0.8396  0.8863
 8103SOL    HW236783   8.424   2.772   2.548 -0.3094  0.6499  1.3799
 8104SOL     OW36784   3.353   0.677   6.249 -0.1170 -0.2700  0.2662
 8104SOL    HW136785   3.425   0.683   6.180 -0.2545  0.0603  0.1523
 8104SOL    HW236786   3.312   0.767   6.263 -0.6748 -0.5053  0.1478
 8105SOL     OW36787   5.162   7.203   8.876 -0.9493  0.0705 -0.8886
 8105SOL    HW136788   5.169   7.282   8.938  1.1205 -1.7799  1.3843
 8105SOL    HW236789   5.254   7.174   8.850 -1.5665 -2.7486 -0.1042
 8106SOL     OW36790   6.003   5.363   4.874 -0.1654 -0.2613  0.3925
 8106SOL    HW136791   5.976   5.378   4.779  0.8979  1.2750  0.3242
 8106SOL    HW236792   6.071   5.290   4.878  0.4822  0.3120 -0.1198
 8107SOL     OW36793   0.673   1.092   2.881  0.0853 -0.6712 -0.2674
 8107SOL    HW136794   0.714   1.166   2.934 -1.2824  0.6763 -1.0900
 8107SOL    HW236795   0.629   1.128   2.799 -0.7813 -2.3576 -0.5792
 8108SOL     OW36796   5.876   5.536   7.494 -0.0616 -0.1942 -0.0818
 8108SOL    HW136797   5.903   5.627   7.462 -2.8230  0.1075 -1.7009
 8108SOL    HW236798   5.943   5.503   7.560  0.7475  3.2476  0.9415
 8109SOL     OW36799   8.853   2.456   4.223  0.4069 -0.2043 -0.4605
 8109SOL    HW136800   8.825   2.545   4.258 -0.1066 -1.0785  1.4112
 8109SOL    HW236801   8.919   2.414   4.286  0.1680 -1.4180 -0.9940
 8110SOL     OW36802   8.583   6.912   8.400  0.4346 -0.1551 -0.5779
 8110SOL    HW136803   8.548   6.871   8.316  3.7823 -3.4861 -0.4705
 8110SOL    HW236804   8.670   6.958   8.380  0.6505  0.0517  0.8368
 8111SOL     OW36805   3.037   5.673   5.726 -0.8963  0.1452 -0.3913
 8111SOL    HW136806   3.072   5.747   5.783 -0.0941 -0.7312  0.2771
 8111SOL    HW236807   2.999   5.711   5.641 -3.3642  1.5724  1.2905
 8112SOL     OW36808   0.082   5.978   8.037  0.2457 -0.1221 -0.0670
 8112SOL    HW136809   0.054   6.020   7.950  1.4743 -0.9144 -0.8534
 8112SOL    HW236810   0.029   6.019   8.112  0.1123  1.5153 -1.0310
 8113SOL     OW36811   6.924   1.107   3.276  0.5071  0.0227  0.3088
 8113SOL    HW136812   6.890   1.028   3.226 -0.1685  0.9594 -0.7350
 8113SOL    HW236813   7.023   1.098   3.289  0.3631 -1.2104  0.6257
 8114SOL     OW36814   4.351   3.991   6.599  0.1093  0.4273  0.0631
 8114SOL    HW136815   4.348   4.021   6.695  1.1334 -1.1514  0.6076
 8114SOL    HW236816   4.302   3.904   6.590 -0.9680  1.1338 -1.0849
 8115SOL     OW36817   5.551   6.583   0.993  0.0758 -0.2452 -0.1048
 8115SOL    HW136818   5.479   6.517   0.977 -1.0704  1.1860 -0.9624
 8115SOL    HW236819   5.596   6.605   0.906  1.3705 -0.9223  0.3790
 8116SOL     OW36820   2.916   1.358   1.058 -0.2636 -0.1225 -0.0187
 8116SOL    HW136821   2.866   1.279   1.095 -1.4874 -0.0082 -1.3710
 8116SOL    HW236822   2.850   1.426   1.024  0.7853  1.1772  0.4737
 8117SOL     OW36823   8.930   5.339   3.032 -0.6504  0.2988 -0.2564
 8117SOL    HW136824   9.006   5.274   3.033  0.1293  1.1299 -2.6006
 8117SOL    HW236825   8.962   5.428   3.062 -0.3816  0.9348 -2.3264
 8118SOL     OW36826   2.379   4.029   3.520  0.3750 -0.1275  0.1401
 8118SOL    HW136827   2.315   4.106   3.519  0.5027 -0.0327 -1.2852
 8118SOL    HW236828   2.339   3.953   3.570 -0.9617 -0.1640 -0.9663
 8119SOL     OW36829   3.256   3.069   0.914  0.1559 -0.0562 -0.4321
 8119SOL    HW136830   3.192   3.002   0.876 -0.1665 -0.6788  1.1760
 8119SOL    HW236831   3.233   3.088   1.009  1.8939  0.3055 -0.0546
 8120SOL     OW36832   7.058   7.850   0.329  0.0655  0.6322 -0.5299
 8120SOL    HW136833   7.074   7.795   0.246  2.1270  1.0494 -0.4282
 8120SOL    HW236834   7.071   7.792   0.410  2.7907  1.3721 -0.4100
 8121SOL     OW36835   0.375   1.818   3.212 -0.2099 -0.2509  0.3412
 8121SOL    HW136836   0.440   1.742   3.218 -2.1380 -2.0425 -0.8219
 8121SOL    HW236837   0.419   1.896   3.167  1.8629 -0.5682  1.7480
 8122SOL     OW36838   2.199   8.552   8.113  0.4932  0.0376  0.6018
 8122SOL    HW136839   2.104   8.573   8.134  0.0479  0.0253 -1.2639
 8122SOL    HW236840   2.257   8.631   8.134 -0.3766  1.1634 -1.1567
 8123SOL     OW36841   6.432   2.962   1.861 -0.5215 -0.3171  0.2854
 8123SOL    HW136842   6.502   2.898   1.827 -1.0855 -0.4669 -0.6190
 8123SOL    HW236843   6.453   3.054   1.828 -2.0100 -0.7406 -1.9681
 8124SOL     OW36844   2.650   3.814   6.674  0.3063 -0.2068  0.3812
 8124SOL    HW136845   2.601   3.731   6.645  0.7613 -0.0369 -0.9350
 8124SOL    HW236846   2.710   3.792   6.751  0.2052 -1.0337  0.2316
 8125SOL     OW36847   0.570   3.740   4.623  0.4151  0.0975 -0.1604
 8125SOL    HW136848   0.496   3.716   4.686  0.4911 -2.5700 -1.0388
 8125SOL    HW236849   0.617   3.822   4.657 -1.5386  0.5591  1.5568
 8126SOL     OW36850   3.817   8.397   0.701  0.3843  0.0555 -0.0837
 8126SOL    HW136851   3.794   8.303   0.724  2.7291 -0.6481 -0.5024
 8126SOL    HW236852   3.915   8.412   0.714  0.2159  2.1749 -0.9441
 8127SOL     OW36853   1.766   4.600   1.625  0.1561 -0.3699  0.4207
 8127SOL    HW136854   1.841   4.610   1.691  1.6658 -1.1003 -1.1239
 8127SOL    HW236855   1.749   4.688   1.581  1.1950 -0.5241 -0.3271
 8128SOL     OW36856   8.510   2.592   5.332  0.2054 -0.4213  0.4256
 8128SOL    HW136857   8.449   2.659   5.374 -2.4794 -2.1166 -0.6356
 8128SOL    HW236858   8.518   2.511   5.390  1.8848 -0.0301  0.7852
 8129SOL     OW36859   7.500   8.492   6.242  0.1950 -0.0073 -0.2615
 8129SOL    HW136860   7.477   8.588   6.261 -1.6371 -0.2227 -1.2234
 8129SOL    HW236861   7.487   8.438   6.325 -1.5717  0.1259 -0.4166
 8130SOL     OW36862   2.054   6.297   7.533  0.1823 -0.3507 -0.3515
 8130SOL    HW136863   2.029   6.206   7.567 -1.0329  0.0659 -0.1151
 8130SOL    HW236864   2.151   6.312   7.549 -0.3560 -0.0738  3.2185
 8131SOL     OW36865   5.426   1.561   4.210  0.0866 -0.2923 -0.3530
 8131SOL    HW136866   5.403   1.486   4.272  0.6278 -2.7794 -3.0560
 8131SOL    HW236867   5.360   1.563   4.134 -1.1878  3.3512  0.7164
 8132SOL     OW36868   1.664   4.184   2.044 -0.3277 -0.0494 -0.2381
 8132SOL    HW136869   1.707   4.229   1.966 -1.5274 -0.1770 -0.9973
 8132SOL    HW236870   1.604   4.249   2.092 -0.6377 -0.3295 -0.2407
 8133SOL     OW36871   3.718   1.066   7.304 -0.0048 -0.1052  0.0169
 8133SOL    HW136872   3.665   1.066   7.389  0.9799 -0.5335  0.6389
 8133SOL    HW236873   3.782   0.989   7.304  0.0745 -0.0503 -1.0707
 8134SOL     OW36874   7.637   3.722   7.500 -0.3631 -0.0725 -0.0915
 8134SOL    HW136875   7.655   3.661   7.423  1.2151 -0.1173  0.2928
 8134SOL    HW236876   7.603   3.809   7.466  2.0532  0.5596 -1.0043
 8135SOL     OW36877   2.482   5.063   5.887 -0.3913  0.0608 -0.2404
 8135SOL    HW136878   2.407   5.032   5.946  0.2161 -0.0862  0.4542
 8135SOL    HW236879   2.563   5.008   5.903  0.0128  0.5206 -0.6648
 8136SOL     OW36880   1.134   2.548   4.325  0.1413 -0.0886  0.3196
 8136SOL    HW136881   1.230   2.574   4.319  0.2126 -0.2844  0.6440
 8136SOL    HW236882   1.077   2.629   4.308  0.3655  0.3607  1.6423
 8137SOL     OW36883   3.367   1.395   5.102  0.1967 -0.3191  0.4569
 8137SOL    HW136884   3.315   1.344   5.035  0.0340  0.0391  0.3111
 8137SOL    HW236885   3.358   1.493   5.085  0.7632 -0.2462  0.5398
 8138SOL     OW36886   4.500   5.964   3.542  0.8647  0.1554 -0.7496
 8138SOL    HW136887   4.523   5.957   3.639  1.3590 -0.5614 -0.9102
 8138SOL    HW236888   4.465   5.875   3.510  1.7393  0.0719 -1.4834
 8139SOL     OW36889   1.352   1.322   5.038 -0.0770  0.1689 -0.1153
 8139SOL    HW136890   1.429   1.354   4.982  0.3665  0.2982  0.5618
 8139SOL    HW236891   1.387   1.274   5.119 -0.6800  1.3954  0.8954
 8140SOL     OW36892   1.453   3.330   7.858  0.1682 -0.4652  0.3438
 8140SOL    HW136893   1.407   3.412   7.826  0.4415  0.1885  1.5972
 8140SOL    HW236894   1.456   3.329   7.958 -0.0246 -2.1101  0.3589
 8141SOL     OW36895   4.495   5.017   6.136  0.0975 -0.0657 -0.5905
 8141SOL    HW136896   4.530   4.933   6.096 -0.4409 -0.4720 -0.2152
 8141SOL    HW236897   4.496   5.090   6.067  1.1916 -0.2026 -0.7166
 8142SOL     OW36898   2.877   4.030   3.791 -0.3453 -0.4740  0.1271
 8142SOL    HW136899   2.906   3.935   3.780 -0.4676 -0.4844 -0.1295
 8142SOL    HW236900   2.900   4.063   3.882  0.2685 -0.5530  0.0009
 8143SOL     OW36901   4.827   6.088   7.719 -0.2007 -0.7169  0.4717
 8143SOL    HW136902   4.758   6.149   7.680 -0.3821  0.3006  2.3442
 8143SOL    HW236903   4.917   6.131   7.714 -0.1592 -0.7645  0.8121
 8144SOL     OW36904   1.931   4.958   3.239 -0.3800 -0.9337 -0.2146
 8144SOL    HW136905   2.023   4.996   3.239 -0.3537 -0.9775  0.8607
 8144SOL    HW236906   1.864   5.032   3.245 -0.3396 -1.0215  1.4928
 8145SOL     OW36907   6.696   3.668   2.709 -0.1441  0.6975 -0.3644
 8145SOL    HW136908   6.715   3.662   2.611 -1.3165  0.2711 -0.5715
 8145SOL    HW236909   6.750   3.599   2.758  0.7514  1.1825 -0.6528
 8146SOL     OW36910   6.489   8.832   0.568 -0.2413 -0.4241 -0.2331
 8146SOL    HW136911   6.394   8.851   0.592 -0.5247 -0.1436 -1.5276
 8146SOL    HW236912   6.545   8.912   0.591 -0.0792 -1.0799  1.7532
 8147SOL     OW36913   2.754   7.344   2.034 -0.7613  0.5266 -0.1957
 8147SOL    HW136914   2.717   7.283   1.965 -0.5654 -0.9229  0.9493
 8147SOL    HW236915   2.854   7.336   2.036 -0.7043  1.1672 -0.2924
 8148SOL     OW36916   6.556   7.136   7.956 -0.1797  0.6582  0.5528
 8148SOL    HW136917   6.487   7.124   7.885  0.5160  2.8537 -0.5617
 8148SOL    HW236918   6.513   7.171   8.039 -0.6334  0.4933  0.3888
 8149SOL     OW36919   3.025   5.438   2.452  0.5971 -0.6047  0.4763
 8149SOL    HW136920   3.106   5.475   2.406  0.6962 -0.5238  0.7092
 8149SOL    HW236921   2.965   5.395   2.385  0.5224 -0.0904  0.2108
 8150SOL     OW36922   6.131   0.715   0.018  0.0466  0.1232  0.0967
 8150SOL    HW136923   6.169   0.680  -0.068 -0.7255  1.9548 -1.0194
 8150SOL    HW236924   6.079   0.643   0.063  0.3371 -0.8207 -1.0455
 8151SOL     OW36925   4.169   1.559   8.743 -0.1162  0.5075 -0.3776
 8151SOL    HW136926   4.132   1.518   8.827  1.2728  0.1978  0.0948
 8151SOL    HW236927   4.215   1.645   8.765  1.1467 -0.0867 -0.6703
 8152SOL     OW36928   0.612   0.783   7.398  0.6908  0.1074  0.2416
 8152SOL    HW136929   0.528   0.732   7.381  0.6137  0.0710  0.7208
 8152SOL    HW236930   0.676   0.769   7.322  1.0771 -1.5311  0.8544
 8153SOL     OW36931   7.497   3.550   2.412 -0.2302 -0.0624  0.3538
 8153SOL    HW136932   7.404   3.520   2.389  0.3399 -0.0298 -2.0979
 8153SOL    HW236933   7.499   3.580   2.507 -2.6860 -0.2816  0.5175
 8154SOL     OW36934   6.193   6.662   0.833 -0.5498 -0.1758  0.4598
 8154SOL    HW136935   6.228   6.699   0.919 -1.2276  0.5885  0.4143
 8154SOL    HW236936   6.157   6.570   0.849  2.4348 -1.4424  0.2918
 8155SOL     OW36937   0.310   1.012   3.656 -0.2563  0.1889 -0.2824
 8155SOL    HW136938   0.304   1.099   3.607 -0.6350  0.5837  0.4433
 8155SOL    HW236939   0.218   0.975   3.671 -0.3613  1.3209  2.2584
 8156SOL     OW36940   2.128   0.753   6.580  0.5157 -0.5873  0.4140
 8156SOL    HW136941   2.217   0.711   6.594  1.3414  0.5534 -1.2241
 8156SOL    HW236942   2.067   0.689   6.533  0.5697 -1.2428  1.2309
 8157SOL     OW36943   7.611   1.476   6.597 -0.3085 -1.0089 -0.2443
 8157SOL    HW136944   7.697   1.430   6.575  1.6064  2.1145  0.4816
 8157SOL    HW236945   7.604   1.561   6.544 -2.5882 -0.8238  0.2904
 8158SOL     OW36946   2.990   7.386   2.344  0.4076 -0.1974 -0.4346
 8158SOL    HW136947   3.057   7.353   2.411  2.4329  1.6697 -1.4580
 8158SOL    HW236948   2.994   7.330   2.261 -0.1658 -0.8236 -0.0451
 8159SOL     OW36949   4.158   3.453   8.802  0.2190 -0.2461  0.7482
 8159SOL    HW136950   4.078   3.416   8.755 -0.7133  0.1782  1.9896
 8159SOL    HW236951   4.238   3.444   8.742 -0.6355 -1.1743 -0.2862
 8160SOL     OW36952   6.495   6.494   1.607 -0.5574 -0.3527 -0.1663
 8160SOL    HW136953   6.400   6.465   1.618 -1.0606 -0.2104 -3.6837
 8160SOL    HW236954   6.499   6.577   1.552  1.5780  0.2658  0.8373
 8161SOL     OW36955   8.101   7.052   1.244  0.0993 -0.0946  0.0838
 8161SOL    HW136956   8.133   7.117   1.312 -0.6208 -0.0696  0.4013
 8161SOL    HW236957   8.167   6.978   1.235  1.0917  0.8657 -0.5424
 8162SOL     OW36958   6.910   6.030   6.661  0.1224  0.4034  0.8035
 8162SOL    HW136959   6.868   6.116   6.688 -0.9558  0.3508 -0.6419
 8162SOL    HW236960   6.864   5.954   6.708 -1.3768  0.3509 -0.7317
 8163SOL     OW36961   3.780   3.742   4.646 -0.6454 -0.5013 -0.1147
 8163SOL    HW136962   3.791   3.808   4.720 -0.8600 -0.4940 -0.0883
 8163SOL    HW236963   3.869   3.701   4.624 -0.3939  0.2578 -0.5592
 8164SOL     OW36964   8.604   8.100   6.803 -0.5294  0.0487 -0.1619
 8164SOL    HW136965   8.577   8.137   6.892  1.6169  0.9949  0.1138
 8164SOL    HW236966   8.632   8.004   6.813 -2.9672 -0.7212 -0.3283
 8165SOL     OW36967   1.555   3.405   4.452 -0.4032  0.1015 -0.2236
 8165SOL    HW136968   1.601   3.382   4.538 -0.4460 -1.7755 -0.6644
 8165SOL    HW236969   1.622   3.434   4.385 -0.4718  2.4919  0.7113
 8166SOL     OW36970   3.754   1.822   0.335  0.0251  0.4279 -0.0076
 8166SOL    HW136971   3.665   1.837   0.378  0.2364 -0.2079  0.6648
 8166SOL    HW236972   3.742   1.808   0.237 -0.3900  2.7312 -0.3237
 8167SOL     OW36973   1.500   6.682   7.882  0.7736  0.0100 -0.4722
 8167SOL    HW136974   1.554   6.739   7.821  0.2274  1.9054  0.7767
 8167SOL    HW236975   1.421   6.646   7.834  0.4495  1.3338 -0.9448
 8168SOL     OW36976   6.333   3.744   7.236 -0.1628  0.3361  0.0334
 8168SOL    HW136977   6.422   3.766   7.196  0.6857 -1.5098  0.8370
 8168SOL    HW236978   6.341   3.660   7.290 -1.6990  1.7354  2.5352
 8169SOL     OW36979   7.102   8.112   0.671  0.0641  0.4017 -0.9951
 8169SOL    HW136980   7.092   8.026   0.721  1.6056 -0.7404 -2.5558
 8169SOL    HW236981   7.145   8.181   0.730  0.0670 -0.3339 -0.1430
 8170SOL     OW36982   2.940   1.837   6.144  0.3983 -0.4346  0.1524
 8170SOL    HW136983   2.860   1.778   6.135  0.3955 -0.2921 -0.7551
 8170SOL    HW236984   2.921   1.909   6.211 -0.3440 -0.2207 -0.2842
 8171SOL     OW36985   8.209   3.052   7.329 -0.1893 -0.0448 -0.1599
 8171SOL    HW136986   8.127   3.012   7.288 -0.6232 -0.8210  1.4129
 8171SOL    HW236987   8.188   3.083   7.422  1.4954 -0.9777  0.5457
 8172SOL     OW36988   1.082   7.122   6.712  0.2705 -0.2762  0.0026
 8172SOL    HW136989   1.070   7.119   6.811  0.2569  1.6094  0.0796
 8172SOL    HW236990   0.994   7.143   6.668  0.7505  1.3313 -0.2283
 8173SOL     OW36991   4.229   6.185   8.067  0.2037 -0.1661  0.3678
 8173SOL    HW136992   4.244   6.282   8.045  0.6161 -0.0537  1.1488
 8173SOL    HW236993   4.315   6.135   8.057 -0.6143 -1.0345 -2.9713
 8174SOL     OW36994   7.530   4.730   6.518 -0.3417 -0.0290 -0.5767
 8174SOL    HW136995   7.592   4.681   6.457  0.0042  0.2472 -0.4507
 8174SOL    HW236996   7.560   4.826   6.526  0.7978 -0.5320  1.5816
 8175SOL     OW36997   5.331   4.798   7.037  0.0622  0.4419 -0.5134
 8175SOL    HW136998   5.255   4.768   7.096 -0.2011  0.3870 -0.8787
 8175SOL    HW236999   5.346   4.730   6.966  1.0559  0.0135  0.0970
 8176SOL     OW37000   0.559   7.395   5.845 -0.4077 -0.1796  0.2154
 8176SOL    HW137001   0.567   7.473   5.782 -1.4043  0.4756  0.8877
 8176SOL    HW237002   0.634   7.399   5.912 -0.7876  0.5450  0.6109
 8177SOL     OW37003   1.429   6.527   4.740 -0.4064  0.6358 -0.1018
 8177SOL    HW137004   1.516   6.548   4.785  0.1154  0.3086 -0.9465
 8177SOL    HW237005   1.379   6.612   4.722 -0.2372  0.8281  0.3487
 8178SOL     OW37006   1.831   7.650   7.962 -0.1014 -0.1049  0.7728
 8178SOL    HW137007   1.915   7.675   8.011 -1.6306  2.3653  2.2618
 8178SOL    HW237008   1.790   7.732   7.922 -2.0404 -1.2016  0.4470
 8179SOL     OW37009   2.699   8.457   1.763 -0.0239  0.7042 -0.0966
 8179SOL    HW137010   2.651   8.444   1.676 -1.2072  0.1865  0.6316
 8179SOL    HW237011   2.777   8.519   1.749  0.5064 -0.3161 -1.7754
 8180SOL     OW37012   4.676   5.338   3.245 -0.0293 -0.1832  0.1765
 8180SOL    HW137013   4.625   5.268   3.196 -0.8916  1.3142 -1.1137
 8180SOL    HW237014   4.653   5.428   3.208  0.2346  0.8821  2.5363
 8181SOL     OW37015   8.670   1.993   7.389  0.4227 -0.4407  0.2384
 8181SOL    HW137016   8.713   1.972   7.301  1.0094 -2.4362  0.9692
 8181SOL    HW237017   8.731   2.051   7.442  0.3083  0.3199 -0.4493
 8182SOL     OW37018   4.297   4.209   4.125 -0.0022  0.1551  0.3600
 8182SOL    HW137019   4.248   4.294   4.106 -1.8591 -1.1748 -0.9743
 8182SOL    HW237020   4.340   4.176   4.041  0.8966 -0.1254  0.9243
 8183SOL     OW37021   1.615   8.515   4.565  0.8932 -0.0314 -0.1490
 8183SOL    HW137022   1.529   8.477   4.600  0.3780 -0.0699 -1.4409
 8183SOL    HW237023   1.679   8.441   4.545  0.3336 -0.1529 -1.5087
 8184SOL     OW37024   1.956   6.534   8.837  0.6923 -0.0144  0.3247
 8184SOL    HW137025   2.022   6.525   8.763  0.6430 -1.2937  0.4288
 8184SOL    HW237026   1.903   6.618   8.825  1.2423  0.1975 -0.6292
 8185SOL     OW37027   6.794   5.230   1.983  0.7212  0.3689 -0.3379
 8185SOL    HW137028   6.744   5.255   1.900  0.5549  0.5411 -0.1840
 8185SOL    HW237029   6.822   5.134   1.976 -1.4829 -0.3472  0.5035
 8186SOL     OW37030   0.673   5.119   2.569 -0.0078  0.2032  0.0896
 8186SOL    HW137031   0.674   5.026   2.606 -0.4371  0.6246  1.1675
 8186SOL    HW237032   0.701   5.116   2.473  2.9156 -0.6961  0.9003
 8187SOL     OW37033   2.785   1.521   1.362 -0.2413 -0.1138 -0.5689
 8187SOL    HW137034   2.764   1.613   1.329 -0.9489  0.5122  1.5125
 8187SOL    HW237035   2.884   1.506   1.361 -0.3051 -0.6178 -4.1386
 8188SOL     OW37036   4.899   8.265   4.749  0.4716 -0.4043  0.2199
 8188SOL    HW137037   4.903   8.352   4.799 -3.2460  0.2415 -0.4590
 8188SOL    HW237038   4.888   8.190   4.814  0.9144 -0.1122  0.6414
 8189SOL     OW37039   1.182   0.983   0.181  0.6846  0.3915 -0.3695
 8189SOL    HW137040   1.083   0.983   0.176  0.7337  2.0645 -1.6533
 8189SOL    HW237041   1.219   0.918   0.115  0.4306 -1.0286  0.8629
 8190SOL     OW37042   5.188   8.747   8.361  0.5409  0.0119 -0.3472
 8190SOL    HW137043   5.268   8.783   8.410  1.2081 -1.3498 -0.4142
 8190SOL    HW237044   5.218   8.697   8.280 -0.2781 -1.8608  0.4799
 8191SOL     OW37045   5.747   5.260   1.010  0.3911  0.7674  0.0029
 8191SOL    HW137046   5.828   5.317   0.998 -0.6898  2.4986  0.5740
 8191SOL    HW237047   5.667   5.310   0.977 -0.2869 -1.4303 -1.7437
 8192SOL     OW37048   8.768   8.089   5.411 -0.1311  0.1810  0.4136
 8192SOL    HW137049   8.845   8.109   5.351  1.0276 -1.4111  1.3245
 8192SOL    HW237050   8.800   8.086   5.506 -1.6803  1.3286  0.9939
 8193SOL     OW37051   8.034   0.531   6.866 -0.2929 -0.2243  0.1264
 8193SOL    HW137052   8.018   0.466   6.941  3.4721 -0.3880  0.9015
 8193SOL    HW237053   8.010   0.623   6.896 -0.7853 -0.5746  0.8248
 8194SOL     OW37054   7.014   6.164   0.815 -0.3709 -0.1010 -0.5050
 8194SOL    HW137055   7.017   6.064   0.813 -2.0566 -0.1832  0.1381
 8194SOL    HW237056   6.977   6.194   0.903 -1.2162  1.0587 -1.2513
 8195SOL     OW37057   4.583   0.138   7.342  1.2365 -0.1200 -0.3792
 8195SOL    HW137058   4.586   0.097   7.433  2.0761 -0.0517 -0.3736
 8195SOL    HW237059   4.649   0.214   7.338  0.2116  0.7688 -0.6101
 8196SOL     OW37060   3.576   4.352   3.795 -0.4128 -0.1540  0.2520
 8196SOL    HW137061   3.526   4.410   3.859 -1.4397 -0.1241 -0.5642
 8196SOL    HW237062   3.513   4.314   3.728  0.8107  0.7960 -1.4936
 8197SOL     OW37063   6.828   6.617   7.323  0.2105 -0.5069  0.4541
 8197SOL    HW137064   6.835   6.521   7.295 -0.1744 -0.4052 -0.0094
 8197SOL    HW237065   6.812   6.622   7.421  2.7135 -0.8397  0.9190
 8198SOL     OW37066   8.993   3.092   6.097  0.6614 -0.2938 -0.1676
 8198SOL    HW137067   9.049   3.171   6.123  0.8221 -0.7507  0.8969
 8198SOL    HW237068   8.917   3.122   6.040  0.6861  0.6418  0.2842
 8199SOL     OW37069   3.422   1.889   7.004  0.4485  0.3289  0.0313
 8199SOL    HW137070   3.392   1.979   6.974  1.2477  1.1549  1.6767
 8199SOL    HW237071   3.522   1.887   7.008  0.3895 -0.0537  1.6949
 8200SOL     OW37072   2.831   4.846   5.232  0.3275  0.2263 -0.4887
 8200SOL    HW137073   2.742   4.814   5.265  0.6286 -1.2637 -1.0640
 8200SOL    HW237074   2.831   4.847   5.132  0.9820  0.1176 -0.4913
 8201SOL     OW37075   4.201   8.911   7.449  0.7180 -0.5696  0.0540
 8201SOL    HW137076   4.242   8.864   7.371 -0.0500 -1.5648  0.2395
 8201SOL    HW237077   4.243   8.879   7.534  0.4803 -0.6048  0.1572
 8202SOL     OW37078   3.781   1.992   3.610 -0.3362 -0.2274  0.4198
 8202SOL    HW137079   3.860   2.022   3.556 -1.5654 -2.6239 -2.8588
 8202SOL    HW237080   3.793   1.897   3.636 -1.2421  0.0019  1.7154
 8203SOL     OW37081   6.533   7.331   2.320  0.0072  0.3680  0.0413
 8203SOL    HW137082   6.553   7.248   2.268  1.0735  1.2494 -1.0043
 8203SOL    HW237083   6.446   7.321   2.368 -0.6632 -0.7452 -1.3649
 8204SOL     OW37084   6.545   6.251   8.158  0.0782  0.2879  0.0690
 8204SOL    HW137085   6.503   6.304   8.232  0.0580  0.5403 -0.1204
 8204SOL    HW237086   6.473   6.216   8.097  0.2575  2.7964 -1.6574
 8205SOL     OW37087   3.748   1.536   5.450 -0.6018 -0.0220 -0.0832
 8205SOL    HW137088   3.683   1.465   5.421 -1.0178  0.3750 -0.1220
 8205SOL    HW237089   3.700   1.604   5.506 -0.3420  0.5843 -0.5955
 8206SOL     OW37090   6.719   2.606   2.545 -0.2385  0.3934 -0.7153
 8206SOL    HW137091   6.816   2.585   2.543  0.2068  2.2632  0.5350
 8206SOL    HW237092   6.703   2.696   2.505 -1.3058  0.6387  0.2239
 8207SOL     OW37093   3.241   1.220   1.731 -0.3149  0.6278  0.1987
 8207SOL    HW137094   3.177   1.234   1.807 -0.2584 -0.3947  0.4403
 8207SOL    HW237095   3.263   1.308   1.690 -1.4553  1.0437  0.4630
 8208SOL     OW37096   6.215   3.461   6.847 -0.1248  0.1617  0.0613
 8208SOL    HW137097   6.226   3.551   6.889  0.6110  0.3461 -0.5062
 8208SOL    HW237098   6.286   3.449   6.776 -0.4980 -0.6788 -0.1703
 8209SOL     OW37099   2.082   4.911   6.752 -0.2086 -0.0637 -0.1481
 8209SOL    HW137100   2.007   4.960   6.707  0.8312  1.4576 -0.2618
 8209SOL    HW237101   2.161   4.972   6.761  1.2607 -1.8675 -0.6604
 8210SOL     OW37102   3.775   5.771   8.325 -0.3793 -0.1536 -0.5397
 8210SOL    HW137103   3.837   5.839   8.287 -3.1079  1.3767 -2.4863
 8210SOL    HW237104   3.723   5.728   8.251 -3.1974  0.2207  1.1495
 8211SOL     OW37105   8.015   4.429   5.387  0.2459  0.0303 -0.2596
 8211SOL    HW137106   8.037   4.335   5.411  0.3110  0.0732 -0.1534
 8211SOL    HW237107   8.075   4.491   5.436  0.1578  0.1307 -0.2794
 8212SOL     OW37108   0.963   5.060   3.865  0.1666  0.0428  0.4600
 8212SOL    HW137109   0.906   5.140   3.850 -1.4021 -0.7008  2.1849
 8212SOL    HW237110   1.017   5.072   3.949  0.7561 -0.2429  0.1281
 8213SOL     OW37111   1.720   3.459   4.949 -0.2301 -0.2839 -0.1442
 8213SOL    HW137112   1.766   3.534   4.995 -0.5453 -0.2925  0.1851
 8213SOL    HW237113   1.746   3.372   4.992  0.2695 -0.3794 -0.6347
 8214SOL     OW37114   3.222   5.489   7.823 -0.2254 -0.1630  0.6322
 8214SOL    HW137115   3.317   5.469   7.795  0.5192 -1.8396  4.1074
 8214SOL    HW237116   3.208   5.588   7.825  1.9997  0.1616  1.7350
 8215SOL     OW37117   5.589   4.784   1.892  0.0624 -0.7582  0.0122
 8215SOL    HW137118   5.608   4.864   1.835 -0.6287  0.0394  0.8719
 8215SOL    HW237119   5.492   4.784   1.916  0.8580  0.5161  3.5318
 8216SOL     OW37120   2.453   4.624   6.938  0.2717  0.4172  0.2735
 8216SOL    HW137121   2.435   4.646   6.842 -1.3052  1.5869  0.8081
 8216SOL    HW237122   2.523   4.686   6.974  2.9173 -1.8316 -0.8504
 8217SOL     OW37123   4.768   2.599   5.202  0.0127  0.2283  0.2387
 8217SOL    HW137124   4.744   2.511   5.243  1.4511 -0.2831  0.0135
 8217SOL    HW237125   4.866   2.617   5.216 -0.0627  1.3296 -0.5732
 8218SOL     OW37126   2.022   3.380   2.633 -0.7369  0.6551 -0.7730
 8218SOL    HW137127   1.955   3.448   2.603 -1.8121 -1.2039 -2.7571
 8218SOL    HW237128   1.974   3.302   2.675  0.1176 -0.7297 -2.2873
 8219SOL     OW37129   8.982   2.409   6.507 -0.3605 -0.6818  0.5633
 8219SOL    HW137130   8.942   2.497   6.483  0.5867 -0.0125  1.3819
 8219SOL    HW237131   8.917   2.335   6.487 -0.6548  0.0895 -1.3426
 8220SOL     OW37132   6.523   4.018   1.163  0.1251  0.9574 -0.1244
 8220SOL    HW137133   6.474   3.949   1.216  1.8493 -0.1508  0.0383
 8220SOL    HW237134   6.548   4.094   1.223 -0.5276  1.0724  0.0027
 8221SOL     OW37135   5.841   7.567   0.081 -0.1529  0.2433  0.0215
 8221SOL    HW137136   5.909   7.590   0.151 -1.3761  0.9789  0.9796
 8221SOL    HW237137   5.869   7.606  -0.007 -0.1030  1.8780  0.7451
 8222SOL     OW37138   6.053   6.400   8.399  0.4478  0.4533  0.0040
 8222SOL    HW137139   6.149   6.385   8.422  0.3172 -0.8112 -0.2672
 8222SOL    HW237140   6.021   6.483   8.444  1.3854  0.3261  0.9185
 8223SOL     OW37141   5.979   3.193   5.221 -0.2136 -0.6089 -0.2352
 8223SOL    HW137142   5.983   3.144   5.134 -2.7374 -0.4077 -0.4995
 8223SOL    HW237143   5.948   3.131   5.293  3.9030 -1.3592  1.0467
 8224SOL     OW37144   6.351   3.521   4.409 -0.0486  0.0437 -0.1104
 8224SOL    HW137145   6.372   3.567   4.495 -0.1820 -2.6567  1.4293
 8224SOL    HW237146   6.436   3.508   4.358 -0.1471  2.9393 -1.1280
 8225SOL     OW37147   5.749   0.892   7.018  0.3709 -0.8244  0.2753
 8225SOL    HW137148   5.744   0.795   7.040 -0.3938 -0.7396  0.5067
 8225SOL    HW237149   5.764   0.903   6.919 -0.3161 -1.1767  0.1236
 8226SOL     OW37150   7.079   4.993   6.606 -0.1090  0.8604  0.0590
 8226SOL    HW137151   7.152   4.935   6.572 -0.4944  1.0970 -1.1966
 8226SOL    HW237152   7.093   5.011   6.703  0.8316 -0.0879  0.1062
 8227SOL     OW37153   5.718   8.867   0.381 -0.3058 -0.3014 -0.0938
 8227SOL    HW137154   5.729   8.883   0.283 -0.4512  3.4461  0.4448
 8227SOL    HW237155   5.801   8.823   0.417 -0.2154 -1.6214 -1.8680
 8228SOL     OW37156   3.000   7.554   8.520  0.5448  0.0751 -0.1432
 8228SOL    HW137157   3.045   7.503   8.593 -0.1550 -0.3562  0.0002
 8228SOL    HW237158   2.974   7.490   8.447  0.6516  0.4028 -0.4692
 8229SOL     OW37159   3.866   3.962   4.846 -0.2945  0.1156 -0.3016
 8229SOL    HW137160   3.796   3.898   4.876  0.4155 -0.5802 -0.1173
 8229SOL    HW237161   3.874   4.036   4.913  0.2388 -0.6414  0.4834
 8230SOL     OW37162   4.075   1.338   7.562 -0.2186 -0.1309  0.0356
 8230SOL    HW137163   4.158   1.285   7.547  0.3675  0.1750  2.0038
 8230SOL    HW237164   4.082   1.425   7.513  0.1289 -0.5957 -0.7385
 8231SOL     OW37165   0.675   3.200   3.657 -0.3595 -0.7554 -0.3446
 8231SOL    HW137166   0.624   3.168   3.578  2.3230 -1.5191 -1.8358
 8231SOL    HW237167   0.683   3.126   3.725  0.9225 -1.4870 -1.2596
 8232SOL     OW37168   7.143   5.249   3.276 -0.4923 -0.2400 -0.1483
 8232SOL    HW137169   7.135   5.176   3.344  1.0585  1.2025  1.6256
 8232SOL    HW237170   7.147   5.209   3.185  1.4482 -2.4340  0.8608
 8233SOL     OW37171   7.743   3.398   4.204 -0.2451  0.0470 -0.0503
 8233SOL    HW137172   7.681   3.459   4.254 -0.8852 -0.2621 -0.4702
 8233SOL    HW237173   7.732   3.413   4.106 -0.6013 -0.9396 -0.1659
 8234SOL     OW37174   4.666   4.386   5.403  0.2769 -0.5663  0.0604
 8234SOL    HW137175   4.753   4.336   5.404  0.4339 -0.2742  1.0699
 8234SOL    HW237176   4.611   4.353   5.326  0.4971 -2.1051  0.5273
 8235SOL     OW37177   1.157   5.331   4.131  0.3239  0.1805  0.6446
 8235SOL    HW137178   1.192   5.424   4.143  0.4747  0.1138  0.7219
 8235SOL    HW237179   1.218   5.281   4.071 -0.1673  0.3626 -0.0089
 8236SOL     OW37180   2.564   3.879   1.521  0.1781 -0.1131  0.2449
 8236SOL    HW137181   2.487   3.842   1.470  0.1084  0.6630 -0.2212
 8236SOL    HW237182   2.545   3.875   1.619  0.5360 -2.1064  0.2493
 8237SOL     OW37183   7.171   5.796   4.689  0.2082  0.4297  0.1432
 8237SOL    HW137184   7.097   5.761   4.747  0.8862  2.1108  2.0566
 8237SOL    HW237185   7.131   5.835   4.606 -0.7618 -2.0234 -0.5980
 8238SOL     OW37186   8.247   3.185   2.208 -0.1248 -0.2494  0.3469
 8238SOL    HW137187   8.220   3.281   2.213 -0.7821 -0.3505 -1.1737
 8238SOL    HW237188   8.266   3.151   2.300 -0.8583  1.0620  0.9903
 8239SOL     OW37189   7.132   8.017   5.777 -0.6048 -0.1234  0.0067
 8239SOL    HW137190   7.040   7.978   5.780 -1.4289  1.7559 -0.3110
 8239SOL    HW237191   7.197   7.952   5.815 -1.7152 -2.4587 -1.9216
 8240SOL     OW37192   2.170   3.889   5.791  0.2670  0.9900  0.2502
 8240SOL    HW137193   2.070   3.890   5.792  0.2669  1.2597  1.0494
 8240SOL    HW237194   2.203   3.893   5.697 -0.4771  0.6727 -0.0272
 8241SOL     OW37195   5.210   4.157   1.310 -0.0162  0.4013  0.0467
 8241SOL    HW137196   5.185   4.227   1.242  0.2660  1.7432  1.2936
 8241SOL    HW237197   5.269   4.198   1.380  1.4874 -1.4948 -0.0668
 8242SOL     OW37198   0.107   6.642   0.037  0.3412  0.0324 -0.2887
 8242SOL    HW137199   0.062   6.570  -0.016 -0.4525 -0.4865  1.0430
 8242SOL    HW237200   0.190   6.672  -0.010  0.1281 -1.0393 -1.3688
 8243SOL     OW37201   0.743   0.570   8.264 -0.5962  0.2485 -0.2520
 8243SOL    HW137202   0.668   0.593   8.325  1.1025  1.1678  1.5759
 8243SOL    HW237203   0.737   0.474   8.238 -0.6431 -0.5187  2.4552
 8244SOL     OW37204   4.051   7.706   8.013  0.1864  0.8322  0.3207
 8244SOL    HW137205   4.099   7.707   8.101 -0.7693  1.3462  0.8429
 8244SOL    HW237206   3.983   7.632   8.013  1.8599 -0.7801 -0.9194
 8245SOL     OW37207   5.572   0.399   2.409  0.6142 -0.3170 -0.1059
 8245SOL    HW137208   5.555   0.331   2.337  1.0521 -0.2925 -0.2327
 8245SOL    HW237209   5.641   0.364   2.472  1.5563  0.4081 -0.7225
 8246SOL     OW37210   1.756   3.669   3.133  0.1570 -0.1156  0.3930
 8246SOL    HW137211   1.711   3.706   3.052  0.8390 -1.1140 -0.4604
 8246SOL    HW237212   1.690   3.664   3.209 -0.4002  1.0996 -0.0013
 8247SOL     OW37213   4.480   8.559   5.204  0.4496  0.6561  0.1864
 8247SOL    HW137214   4.444   8.536   5.113 -0.7605  2.3112  0.2314
 8247SOL    HW237215   4.430   8.636   5.241  3.8874  2.8997  0.3627
 8248SOL     OW37216   7.998   0.909   4.464 -0.2266 -0.6209  0.9970
 8248SOL    HW137217   8.037   0.983   4.519  0.2489 -0.5685  0.5846
 8248SOL    HW237218   7.933   0.947   4.399  0.4635 -0.4984  0.3772
 8249SOL     OW37219   2.557   2.203   0.124  0.5374  0.3437  0.0951
 8249SOL    HW137220   2.471   2.178   0.169 -0.0582  1.0207 -0.6536
 8249SOL    HW237221   2.554   2.175   0.028  0.5698  1.6628 -0.3064
 8250SOL     OW37222   0.533   4.920   3.092  0.0341 -0.2519  0.3058
 8250SOL    HW137223   0.514   5.018   3.082  0.0431 -0.3100 -0.2460
 8250SOL    HW237224   0.462   4.867   3.046 -0.4569 -0.5231  1.3498
 8251SOL     OW37225   4.732   8.703   6.882  0.1188 -0.4613 -0.1372
 8251SOL    HW137226   4.814   8.677   6.830 -0.3925 -1.3583 -0.5124
 8251SOL    HW237227   4.746   8.682   6.979 -0.8949 -3.8424 -0.6270
 8252SOL     OW37228   0.362   2.784   3.459 -0.4060 -0.2328  0.5230
 8252SOL    HW137229   0.385   2.711   3.396 -1.4136 -0.7324  0.7258
 8252SOL    HW237230   0.359   2.748   3.552  0.9962  0.4818  0.8683
 8253SOL     OW37231   6.141   6.779   0.303  0.0623  0.2926 -0.0948
 8253SOL    HW137232   6.116   6.798   0.398 -0.7278 -0.9737 -0.0312
 8253SOL    HW237233   6.239   6.788   0.291  0.2657 -0.3283  1.0434
 8254SOL     OW37234   8.170   4.575   8.124 -0.5685  0.2595  0.0235
 8254SOL    HW137235   8.078   4.610   8.109 -0.2013  0.7709 -1.0537
 8254SOL    HW237236   8.236   4.649   8.113  0.1176 -0.5051 -1.0815
 8255SOL     OW37237   7.223   3.601   3.659 -0.0442 -0.0365 -0.1725
 8255SOL    HW137238   7.206   3.630   3.565  0.2860  0.9317  0.0580
 8255SOL    HW237239   7.224   3.501   3.664  0.6182 -0.0960 -1.3228
 8256SOL     OW37240   8.440   1.813   5.176  0.1300  0.1979  0.0905
 8256SOL    HW137241   8.428   1.794   5.274  2.1212 -1.0481  0.1253
 8256SOL    HW237242   8.499   1.892   5.165  1.0269 -0.4792 -0.0788
 8257SOL     OW37243   7.276   4.021   7.266 -0.3263  0.3092  0.5080
 8257SOL    HW137244   7.238   3.931   7.288  0.2616 -0.0737 -0.0125
 8257SOL    HW237245   7.255   4.085   7.339  0.3814 -0.5917  1.5196
 8258SOL     OW37246   6.888   5.593   4.170 -0.6146  0.1987  0.0726
 8258SOL    HW137247   6.886   5.671   4.231  1.3986 -0.8522  1.5464
 8258SOL    HW237248   6.833   5.612   4.089 -0.2271  3.0890  0.4437
 8259SOL     OW37249   3.107   4.518   0.402 -0.6380  0.3200 -0.0771
 8259SOL    HW137250   3.009   4.499   0.398 -0.6544  0.6960 -3.1253
 8259SOL    HW237251   3.158   4.431   0.405 -1.0244  0.0125 -1.6757
 8260SOL     OW37252   5.029   0.595   2.850 -0.2925  0.2418 -0.3345
 8260SOL    HW137253   5.033   0.605   2.751  0.4784 -1.9783 -0.5459
 8260SOL    HW237254   4.941   0.555   2.876 -0.3517  0.4966 -0.1379
 8261SOL     OW37255   8.167   2.697   0.594  0.3711  0.1791 -0.6695
 8261SOL    HW137256   8.119   2.692   0.506  0.5782  0.7206 -0.8153
 8261SOL    HW237257   8.105   2.670   0.667 -0.7611  2.6501 -0.6449
 8262SOL     OW37258   3.937   2.897   4.919  0.2709 -0.0956 -0.2208
 8262SOL    HW137259   4.031   2.929   4.911  0.7120 -1.7981 -2.3626
 8262SOL    HW237260   3.913   2.885   5.016  1.8338  1.4789  0.3824
 8263SOL     OW37261   3.728   1.789   0.089 -0.7254 -0.3424 -0.6222
 8263SOL    HW137262   3.760   1.701   0.054 -2.0025 -0.5136 -1.3953
 8263SOL    HW237263   3.654   1.823   0.030 -1.0922  0.6394  0.3985
 8264SOL     OW37264   8.070   1.411   3.315 -0.8500  0.2903  0.6547
 8264SOL    HW137265   8.147   1.375   3.367  1.4283 -1.1310 -3.5063
 8264SOL    HW237266   8.079   1.510   3.306  0.1468  0.2170  0.7833
 8265SOL     OW37267   5.965   8.760   0.824  0.3292 -0.6448 -0.4876
 8265SOL    HW137268   6.007   8.738   0.911  1.0952 -0.0624 -0.6966
 8265SOL    HW237269   5.903   8.687   0.796  1.7118 -1.8475 -0.4876
 8266SOL     OW37270   3.095   7.911   6.817  0.0899 -0.6763  0.2108
 8266SOL    HW137271   3.112   8.009   6.821 -0.8810 -0.4767 -0.4312
 8266SOL    HW237272   3.030   7.891   6.744 -1.0180 -1.6101  1.4159
 8267SOL     OW37273   3.395   8.553   0.821 -0.0383  0.1846 -0.5875
 8267SOL    HW137274   3.388   8.458   0.851 -0.0593 -0.9629 -4.0050
 8267SOL    HW237275   3.489   8.572   0.790  0.1710  1.5290  0.7998
 8268SOL     OW37276   4.670   3.242   4.144  0.2803 -0.0827 -0.2981
 8268SOL    HW137277   4.672   3.156   4.194  0.5773 -0.5637 -1.1372
 8268SOL    HW237278   4.763   3.272   4.123  0.1648  0.2142 -0.3996
 8269SOL     OW37279   4.462   7.570   3.788  0.6397  0.2736 -0.4733
 8269SOL    HW137280   4.388   7.513   3.754  1.4350 -0.5125 -0.9095
 8269SOL    HW237281   4.548   7.518   3.785  0.6384 -0.0910  3.3809
 8270SOL     OW37282   4.386   5.350   5.671  0.2340 -0.3410  0.5185
 8270SOL    HW137283   4.320   5.292   5.624 -0.0528 -0.1057  0.6269
 8270SOL    HW237284   4.342   5.395   5.748  0.6270 -0.4950  0.8357
 8271SOL     OW37285   0.345   4.863   0.512  0.7940 -0.0707  0.5285
 8271SOL    HW137286   0.312   4.795   0.446  1.2468  0.3830 -0.1717
 8271SOL    HW237287   0.322   4.834   0.605  0.7410 -1.0437  0.2105
 8272SOL     OW37288   7.041   8.980   7.770  0.0911  0.0040 -0.1135
 8272SOL    HW137289   6.988   9.042   7.713 -2.2638 -1.0215  0.9102
 8272SOL    HW237290   7.132   9.019   7.786 -0.6164  2.1729 -1.2096
 8273SOL     OW37291   3.217   1.265   2.706  0.2442  0.2459 -0.1794
 8273SOL    HW137292   3.164   1.270   2.790 -0.2092 -1.6796 -0.3512
 8273SOL    HW237293   3.314   1.276   2.728  0.0236  1.0413  0.4353
 8274SOL     OW37294   7.471   2.213   2.802 -0.0062 -0.5679  0.3942
 8274SOL    HW137295   7.404   2.229   2.729 -0.1606 -1.6100  0.2943
 8274SOL    HW237296   7.532   2.292   2.809 -0.4906 -0.1170 -0.3245
 8275SOL     OW37297   3.139   0.853   0.010  0.5541 -0.1939  0.0291
 8275SOL    HW137298   3.040   0.859  -0.001  0.5364 -1.2297 -0.4510
 8275SOL    HW237299   3.166   0.897   0.095 -0.1524  1.4200 -0.5676
 8276SOL     OW37300   0.663   5.679   6.215 -0.5662 -0.5278  0.2539
 8276SOL    HW137301   0.576   5.729   6.216 -1.6976 -2.4110 -0.1613
 8276SOL    HW237302   0.727   5.722   6.279 -2.1917  0.2538  1.4080
 8277SOL     OW37303   3.373   0.312   6.892 -0.2142  0.3735 -0.2339
 8277SOL    HW137304   3.433   0.381   6.933 -0.2235  0.2825 -0.0688
 8277SOL    HW237305   3.428   0.235   6.859 -0.4488 -0.7059  1.8798
 8278SOL     OW37306   7.050   4.273   1.919 -0.1572  0.1215  0.0756
 8278SOL    HW137307   7.147   4.268   1.895 -0.2731 -0.6347 -0.2389
 8278SOL    HW237308   7.004   4.190   1.889 -0.6930  0.0142  1.1749
 8279SOL     OW37309   1.000   3.034   4.168 -0.3727 -0.2187  0.0662
 8279SOL    HW137310   0.978   3.089   4.087  1.7937  0.2859 -0.2018
 8279SOL    HW237311   1.040   3.092   4.239  1.1877 -1.2805  0.0819
 8280SOL     OW37312   4.668   3.308   4.719 -0.2581 -0.3759 -0.9529
 8280SOL    HW137313   4.728   3.343   4.647  1.5427 -1.1791  0.1126
 8280SOL    HW237314   4.636   3.217   4.694 -1.5376  0.2881 -1.7914
 8281SOL     OW37315   1.784   3.175   5.478  0.1075 -0.3533  0.0708
 8281SOL    HW137316   1.788   3.128   5.566 -0.2083  0.5702  0.5909
 8281SOL    HW237317   1.701   3.232   5.475  0.6961  0.4961 -0.3714
 8282SOL     OW37318   0.442   2.556   6.418 -0.0210 -0.7094  0.9273
 8282SOL    HW137319   0.359   2.504   6.396 -1.1311  0.8153  1.3934
 8282SOL    HW237320   0.418   2.652   6.433  1.5658 -0.5602  2.7947
 8283SOL     OW37321   2.509   3.297   5.281 -0.3905 -0.1081  0.1483
 8283SOL    HW137322   2.440   3.305   5.209 -0.3123 -0.8079 -0.0110
 8283SOL    HW237323   2.600   3.291   5.239 -0.3456 -0.5357  0.3016
 8284SOL     OW37324   1.267   8.440   5.525  0.0798 -0.0817 -0.5698
 8284SOL    HW137325   1.206   8.366   5.500  0.1094  0.1477 -1.3302
 8284SOL    HW237326   1.362   8.410   5.519  0.1275  0.3000 -1.8258
 8285SOL     OW37327   0.443   3.049   4.113  0.2010  0.1580  0.2367
 8285SOL    HW137328   0.414   2.979   4.048  1.2271 -0.1017  0.0465
 8285SOL    HW237329   0.372   3.062   4.183  0.0491 -1.1527  0.3355
 8286SOL     OW37330   3.486   5.307   4.411  0.0187  0.7006  0.4708
 8286SOL    HW137331   3.554   5.365   4.364 -0.0336 -0.9964 -1.7691
 8286SOL    HW237332   3.442   5.247   4.345 -1.1676 -0.7078  2.4844
 8287SOL     OW37333   8.269   7.145   6.042 -0.0216 -0.0204 -0.6728
 8287SOL    HW137334   8.332   7.127   5.966 -1.1571  0.7531 -1.8371
 8287SOL    HW237335   8.288   7.235   6.081  0.6212 -0.4566  0.0265
 8288SOL     OW37336   6.336   7.311   1.081 -0.5825  0.1466 -0.2775
 8288SOL    HW137337   6.341   7.270   1.172 -0.6756  0.1779 -0.2576
 8288SOL    HW237338   6.257   7.372   1.077 -1.0749 -0.5150 -0.6530
 8289SOL     OW37339   5.066   4.749   7.157  0.0452  0.4370  0.3332
 8289SOL    HW137340   4.997   4.783   7.093  1.2205  0.0118 -1.1795
 8289SOL    HW237341   5.041   4.657   7.188 -1.0118  1.0169  1.2470
 8290SOL     OW37342   5.046   0.546   7.206 -0.8991 -0.1217 -0.2437
 8290SOL    HW137343   5.093   0.578   7.123  0.6064 -0.4370  0.4707
 8290SOL    HW237344   5.081   0.595   7.285  0.1222 -2.1778  0.6316
 8291SOL     OW37345   8.603   0.806   2.860 -0.4484  0.0185  0.0203
 8291SOL    HW137346   8.563   0.734   2.803 -0.3977  0.3714 -0.4625
 8291SOL    HW237347   8.680   0.847   2.812 -1.4263  1.4381 -0.3653
 8292SOL     OW37348   3.030   3.635   5.992  0.4591 -0.4290  0.2055
 8292SOL    HW137349   2.986   3.547   5.970 -1.2083  0.5401 -0.4524
 8292SOL    HW237350   2.970   3.710   5.963  1.1942  0.9343  2.1272
 8293SOL     OW37351   0.639   1.320   8.850  0.6010  0.1764  0.1421
 8293SOL    HW137352   0.704   1.325   8.925  0.9017  1.5696 -0.1964
 8293SOL    HW237353   0.628   1.224   8.821  0.3034 -0.3868  2.0975
 8294SOL     OW37354   5.978   3.674   1.637 -0.2456  0.1946 -0.0522
 8294SOL    HW137355   5.938   3.646   1.725  1.1446  0.5732  0.7229
 8294SOL    HW237356   5.945   3.614   1.565 -0.9627 -0.4813  0.8220
 8295SOL     OW37357   8.948   2.303   7.960  0.0464  0.0095 -0.8622
 8295SOL    HW137358   9.004   2.228   7.993 -0.0267  0.1095 -0.5166
 8295SOL    HW237359   8.858   2.300   8.004  0.2933  0.7240 -0.3104
 8296SOL     OW37360   4.434   1.718   8.548  0.3825  0.5211 -0.3628
 8296SOL    HW137361   4.336   1.737   8.549  0.2039 -0.4478  0.2504
 8296SOL    HW237362   4.477   1.760   8.628  0.1615 -0.6806  0.3982
 8297SOL     OW37363   3.921   5.655   3.701  0.3923 -0.1901  0.1313
 8297SOL    HW137364   3.962   5.713   3.772  2.0817 -0.2851 -0.7322
 8297SOL    HW237365   3.909   5.707   3.617  1.0054 -0.8087 -0.3516
 8298SOL     OW37366   2.572   2.341   4.187 -0.2416 -0.0657 -0.1001
 8298SOL    HW137367   2.554   2.289   4.270 -1.5426  2.1480  1.0417
 8298SOL    HW237368   2.557   2.282   4.107 -2.1858 -1.3038  1.1367
 8299SOL     OW37369   7.563   7.017   3.848  0.2068  0.2235 -0.0969
 8299SOL    HW137370   7.540   6.939   3.790 -1.2368  0.7488 -0.2544
 8299SOL    HW237371   7.619   6.986   3.925 -0.0691 -0.9088 -0.3391
 8300SOL     OW37372   4.169   5.359   7.303  0.3874  0.4751 -0.2307
 8300SOL    HW137373   4.204   5.307   7.381  0.8133  1.6172  0.3498
 8300SOL    HW237374   4.164   5.300   7.222  0.7955 -0.4754  0.4413
 8301SOL     OW37375   3.176   9.000   4.888  0.8092  0.2686 -0.4012
 8301SOL    HW137376   3.110   9.045   4.829 -2.2834 -0.7015  2.1751
 8301SOL    HW237377   3.191   9.056   4.970  1.1772 -0.7311  0.2266
 8302SOL     OW37378   3.471   5.023   5.131 -0.1341 -0.1230 -1.3766
 8302SOL    HW137379   3.477   4.968   5.214 -2.5381 -0.9552 -1.7390
 8302SOL    HW237380   3.564   5.047   5.101  0.7626  0.9292  1.9994
 8303SOL     OW37381   1.306   4.211   6.867 -0.4227 -0.5750  0.5729
 8303SOL    HW137382   1.300   4.119   6.828 -2.4060 -1.0397  1.8633
 8303SOL    HW237383   1.401   4.232   6.890  0.4227 -1.2703 -2.1010
 8304SOL     OW37384   3.762   8.257   5.397 -0.4634  0.3596  0.5655
 8304SOL    HW137385   3.743   8.316   5.319  1.1964 -0.0490 -0.1531
 8304SOL    HW237386   3.860   8.249   5.411 -0.7117 -0.6017  1.9094
 8305SOL     OW37387   8.104   3.455   0.484 -0.1942 -0.6488  0.0588
 8305SOL    HW137388   8.185   3.420   0.533  1.5957 -1.2848 -3.2098
 8305SOL    HW237389   8.064   3.381   0.430 -0.5521  0.6613 -1.4833
 8306SOL     OW37390   2.068   7.521   6.253  0.3127  0.4722  0.3783
 8306SOL    HW137391   2.003   7.596   6.259  0.2386  0.3458  1.1700
 8306SOL    HW237392   2.141   7.534   6.319  0.1419 -0.3019  0.7267
 8307SOL     OW37393   7.291   7.003   7.469 -0.0881  0.9179  0.1929
 8307SOL    HW137394   7.197   6.970   7.479  0.1538 -0.0302 -0.5239
 8307SOL    HW237395   7.334   6.957   7.391  1.2324  0.7485  1.0113
 8308SOL     OW37396   3.673   2.949   7.595  0.3020 -0.6034  0.1810
 8308SOL    HW137397   3.734   3.016   7.638 -0.0635 -0.8535  1.0915
 8308SOL    HW237398   3.618   2.995   7.525  2.3212 -0.5972 -1.4608
 8309SOL     OW37399   5.023   0.540   1.717  0.0639 -0.0570  0.4006
 8309SOL    HW137400   4.976   0.625   1.692  0.1107 -0.8522 -2.6733
 8309SOL    HW237401   5.122   0.551   1.701  0.3865  0.0720  2.3432
 8310SOL     OW37402   5.509   4.115   1.410 -0.1960  0.4283 -0.3355
 8310SOL    HW137403   5.568   4.181   1.456  2.3140 -2.2841  0.4789
 8310SOL    HW237404   5.455   4.065   1.478 -1.1977  0.7862 -0.8561
 8311SOL     OW37405   2.283   3.598   0.208 -0.3718 -0.2574 -0.1495
 8311SOL    HW137406   2.307   3.528   0.141 -0.3772 -1.1974  0.8143
 8311SOL    HW237407   2.271   3.686   0.162  0.4932 -0.7067 -1.2493
 8312SOL     OW37408   7.891   0.881   0.390  0.4997  0.8575 -0.0196
 8312SOL    HW137409   7.860   0.949   0.323  0.5835  2.8227  1.8454
 8312SOL    HW237410   7.820   0.867   0.458  0.4722 -1.0150 -0.4089
 8313SOL     OW37411   6.711   1.261   7.064  0.2920 -0.0971  0.2706
 8313SOL    HW137412   6.724   1.357   7.036 -3.0928  0.8810  1.8622
 8313SOL    HW237413   6.783   1.236   7.128  1.7139  1.0911 -0.8076
 8314SOL     OW37414   6.080   3.742   1.228 -0.9659  0.2892 -0.2686
 8314SOL    HW137415   6.093   3.643   1.226 -1.3427  0.2078  1.2432
 8314SOL    HW237416   5.983   3.764   1.228 -0.9719  0.5328  3.5259
 8315SOL     OW37417   3.982   3.954   5.808  0.0663 -0.0612  0.1691
 8315SOL    HW137418   4.046   3.956   5.885  1.6739 -1.8311 -1.0710
 8315SOL    HW237419   3.917   3.879   5.821 -0.3646  0.3474  0.3568
 8316SOL     OW37420   0.227   5.146   4.057  0.2414 -0.1807 -0.7432
 8316SOL    HW137421   0.160   5.127   3.985 -1.5562  1.0607  0.5448
 8316SOL    HW237422   0.207   5.235   4.097  1.1696 -0.9029  1.3597
 8317SOL     OW37423   6.019   2.144   0.857  0.2882 -0.8585  0.0214
 8317SOL    HW137424   5.975   2.230   0.884  0.0203 -1.6092  2.1360
 8317SOL    HW237425   6.118   2.155   0.857  0.2007 -0.0698 -1.4565
 8318SOL     OW37426   6.006   4.045   5.625 -0.1255 -0.1454  0.2119
 8318SOL    HW137427   6.069   4.039   5.702  0.0270  0.1385  0.1095
 8318SOL    HW237428   6.019   4.132   5.577  1.2272 -1.1791 -1.3822
 8319SOL     OW37429   1.632   3.728   2.888 -0.2566 -0.2483  0.6208
 8319SOL    HW137430   1.631   3.661   2.813 -1.3560 -1.2057  1.4831
 8319SOL    HW237431   1.588   3.813   2.857  2.0939  0.4895 -0.8209
 8320SOL     OW37432   3.434   8.929   6.623  0.4407 -0.3625  0.2431
 8320SOL    HW137433   3.474   8.973   6.704 -1.2672  0.3718  0.7340
 8320SOL    HW237434   3.445   8.988   6.544  0.4473 -0.2129  0.3541
 8321SOL     OW37435   4.390   5.426   1.808 -0.4109 -0.0485 -0.2148
 8321SOL    HW137436   4.440   5.379   1.881 -3.0221  0.7512  2.1759
 8321SOL    HW237437   4.445   5.503   1.774  0.3253  0.3378  1.7791
 8322SOL     OW37438   7.883   4.912   7.768  0.1425 -0.5872  0.0201
 8322SOL    HW137439   7.906   4.902   7.864 -3.1572 -0.6007  0.8649
 8322SOL    HW237440   7.896   5.007   7.739  1.0242 -0.5619  0.4999
 8323SOL     OW37441   6.240   5.095   8.746 -0.3170  0.2122 -0.3749
 8323SOL    HW137442   6.155   5.046   8.729  0.1092 -1.0284  0.9811
 8323SOL    HW237443   6.222   5.194   8.746 -1.4249  0.0412 -1.7615
 8324SOL     OW37444   5.445   3.401   0.291  0.3737 -0.5152  0.2237
 8324SOL    HW137445   5.400   3.454   0.219  0.4535 -2.2935 -1.1871
 8324SOL    HW237446   5.526   3.356   0.253  0.3195 -1.6044  1.3893
 8325SOL     OW37447   1.243   6.595   8.905 -0.0590 -0.4721 -0.5553
 8325SOL    HW137448   1.173   6.656   8.868 -1.7492  0.0427  3.2878
 8325SOL    HW237449   1.220   6.500   8.882 -0.5745 -0.1296 -1.5044
 8326SOL     OW37450   8.029   8.335   1.091 -0.1562  0.1732  0.2574
 8326SOL    HW137451   7.992   8.267   1.154  2.8203  0.1347  2.0360
 8326SOL    HW237452   8.054   8.290   1.005 -1.3487 -0.3548  0.1851
 8327SOL     OW37453   0.071   2.125   3.714 -0.0896 -0.1187 -0.4577
 8327SOL    HW137454  -0.010   2.090   3.667  0.3084 -0.6516 -0.7502
 8327SOL    HW237455   0.091   2.068   3.794 -0.6543  0.6743  0.2499
 8328SOL     OW37456   4.480   6.289   3.244  0.0227  0.1825  0.0053
 8328SOL    HW137457   4.559   6.272   3.303  0.1788  0.8874  0.0085
 8328SOL    HW237458   4.500   6.256   3.152 -0.5170 -1.6297  0.5178
 8329SOL     OW37459   4.730   8.859   5.997 -0.2502 -0.4488  0.4624
 8329SOL    HW137460   4.772   8.868   6.088  0.4209  1.4040 -0.0100
 8329SOL    HW237461   4.788   8.801   5.940 -0.4936 -1.3351  1.0949
 8330SOL     OW37462   1.361   4.318   8.715  0.1576  0.4065 -0.0857
 8330SOL    HW137463   1.431   4.274   8.660  1.7554  0.9862  1.4365
 8330SOL    HW237464   1.337   4.259   8.792 -1.7563 -0.2159 -1.1122
 8331SOL     OW37465   1.072   4.938   8.310 -0.1540 -0.0625 -0.0159
 8331SOL    HW137466   1.069   4.861   8.247 -1.5794 -0.0176 -0.0178
 8331SOL    HW237467   1.064   5.024   8.259  0.6160  0.0611  0.0604
 8332SOL     OW37468   1.867   7.261   6.773  0.0022 -0.2344  0.1020
 8332SOL    HW137469   1.787   7.321   6.776  1.5687  1.9380  0.4034
 8332SOL    HW237470   1.882   7.219   6.862 -1.6327 -1.8308 -0.3538
 8333SOL     OW37471   2.795   4.443   0.343 -0.1154  0.2118 -0.1177
 8333SOL    HW137472   2.783   4.353   0.300  0.4911  0.8750 -1.6993
 8333SOL    HW237473   2.779   4.515   0.275  2.5704  1.2460  0.3026
 8334SOL     OW37474   8.453   2.375   2.915  0.4551 -0.7205  0.1639
 8334SOL    HW137475   8.372   2.316   2.907  0.3636 -0.6214  0.3595
 8334SOL    HW237476   8.518   2.353   2.842 -0.0516 -0.3372 -0.4132
 8335SOL     OW37477   5.089   3.153   7.723 -0.2660 -0.2697 -0.2460
 8335SOL    HW137478   5.084   3.147   7.623  2.2141  0.2493 -0.4316
 8335SOL    HW237479   5.185   3.159   7.752 -0.7462 -3.8205  2.4015
 8336SOL     OW37480   0.277   1.268   8.119 -0.2334  0.2063  0.4960
 8336SOL    HW137481   0.285   1.265   8.219  2.4910 -0.1852  0.3235
 8336SOL    HW237482   0.354   1.319   8.082  0.6670 -2.5106 -1.5651
 8337SOL     OW37483   6.666   3.201   8.675  0.3260  0.2782  0.0284
 8337SOL    HW137484   6.690   3.112   8.713 -1.5083 -0.3884 -0.3151
 8337SOL    HW237485   6.580   3.193   8.623  1.0511  1.8678 -1.4732
 8338SOL     OW37486   2.897   1.039   0.436 -0.6587  0.1164  0.3042
 8338SOL    HW137487   2.946   1.076   0.515  0.0560  0.5888 -0.3589
 8338SOL    HW237488   2.835   1.108   0.400  1.9044  1.3320 -1.9771
 8339SOL     OW37489   3.999   0.476   5.380 -0.9192  0.4628  0.3120
 8339SOL    HW137490   4.025   0.413   5.453  0.7492  1.0168  0.2080
 8339SOL    HW237491   3.927   0.434   5.325  0.8665 -1.8162 -0.3656
 8340SOL     OW37492   3.846   2.462   0.771  0.1023 -0.0397 -0.4558
 8340SOL    HW137493   3.790   2.384   0.742  1.3425 -0.7848 -0.8852
 8340SOL    HW237494   3.834   2.476   0.870 -0.0670 -0.8327 -0.3601
 8341SOL     OW37495   1.444   7.609   0.870 -0.3042 -0.1985  0.1092
 8341SOL    HW137496   1.420   7.669   0.793  0.3047 -2.1846 -1.6915
 8341SOL    HW237497   1.502   7.660   0.934 -1.2700  1.6690 -0.4491
 8342SOL     OW37498   6.449   6.276   8.423  0.2996  0.1404  0.4256
 8342SOL    HW137499   6.447   6.178   8.404  1.3653  0.4075 -1.1326
 8342SOL    HW237500   6.398   6.294   8.507 -0.4442 -1.6676  0.3966
 8343SOL     OW37501   8.847   6.235   3.443  0.3774  0.3531 -0.3418
 8343SOL    HW137502   8.836   6.190   3.354  0.4049  2.5279 -1.4693
 8343SOL    HW237503   8.782   6.310   3.451  0.1677 -0.0136  1.6322
 8344SOL     OW37504   4.548   8.783   4.808  0.0908  0.4392  0.4429
 8344SOL    HW137505   4.544   8.876   4.770  0.2160  0.4048  0.3447
 8344SOL    HW237506   4.516   8.784   4.902 -0.7952  0.4253  0.1429
 8345SOL     OW37507   8.249   6.415   4.110 -0.6369  0.8603 -0.7243
 8345SOL    HW137508   8.273   6.318   4.104  0.5447  1.0328  0.8388
 8345SOL    HW237509   8.326   6.466   4.148 -2.5265  1.8589  1.9219
 8346SOL     OW37510   4.628   7.943   1.614  0.4874 -0.2085 -0.5504
 8346SOL    HW137511   4.576   7.862   1.587 -0.0265  0.8297 -2.7815
 8346SOL    HW237512   4.721   7.937   1.577  0.2382  0.5194 -1.3197
 8347SOL     OW37513   6.881   5.296   7.410 -0.0534 -0.3999  0.3085
 8347SOL    HW137514   6.970   5.341   7.401 -0.1462  0.0034  1.3592
 8347SOL    HW237515   6.837   5.291   7.320  0.2154  1.0524  0.0831
 8348SOL     OW37516   6.478   4.442   8.374  0.7559 -0.0485  0.3338
 8348SOL    HW137517   6.519   4.351   8.368  1.8627  0.5082 -0.8256
 8348SOL    HW237518   6.383   4.438   8.344  0.6288 -0.9240  0.8363
 8349SOL     OW37519   5.705   7.048   6.880  0.6028 -0.2168 -0.1592
 8349SOL    HW137520   5.791   7.100   6.883  1.5958 -1.7825 -0.7226
 8349SOL    HW237521   5.724   6.955   6.847 -1.1378 -0.9254  0.7812
 8350SOL     OW37522   3.361   2.637   3.011  0.6852  0.3161  0.1215
 8350SOL    HW137523   3.435   2.686   3.058  1.4263  0.7049 -1.4240
 8350SOL    HW237524   3.374   2.539   3.020  1.5295  0.3834 -0.3582
 8351SOL     OW37525   3.979   2.696   7.579 -0.3711  0.1575  0.5862
 8351SOL    HW137526   3.985   2.781   7.526 -0.7047  1.0207  1.8998
 8351SOL    HW237527   3.921   2.630   7.530  0.1477  0.5625 -0.5931
 8352SOL     OW37528   2.102   1.102   8.735  0.3105 -0.2700 -0.1443
 8352SOL    HW137529   2.179   1.108   8.671  2.0426 -1.3174  1.7693
 8352SOL    HW237530   2.095   1.009   8.771 -0.0871  0.4817  1.8154
 8353SOL     OW37531   0.379   5.588   2.037 -0.1630  0.5063 -0.2139
 8353SOL    HW137532   0.469   5.630   2.032 -0.4109  0.9360 -1.1669
 8353SOL    HW237533   0.309   5.656   2.015 -0.8119  0.4973  1.7715
 8354SOL     OW37534   0.840   7.683   7.550 -0.4260  0.1043  0.5440
 8354SOL    HW137535   0.902   7.609   7.575 -1.1457 -0.5143  0.5050
 8354SOL    HW237536   0.865   7.720   7.461  0.6137  0.6532  1.0476
 8355SOL     OW37537   4.285   0.011   6.057  0.6702  0.6291  0.1390
 8355SOL    HW137538   4.319  -0.076   6.091 -0.0516  0.3079  0.0505
 8355SOL    HW237539   4.311   0.023   5.961  1.8562  1.0873  0.5161
 8356SOL     OW37540   8.512   7.566   0.511  0.3905 -0.3202  0.0288
 8356SOL    HW137541   8.525   7.658   0.475 -0.8414  0.2097  0.9384
 8356SOL    HW237542   8.587   7.544   0.574  1.1760 -0.3013 -0.8783
 8357SOL     OW37543   1.101   1.387   4.965  0.2938 -0.1395 -0.2851
 8357SOL    HW137544   1.096   1.485   4.983 -1.8262 -0.5054  1.3196
 8357SOL    HW237545   1.188   1.351   4.998  1.3669  1.3033 -1.4876
 8358SOL     OW37546   1.233   2.938   7.578 -0.1078  0.4284  0.7930
 8358SOL    HW137547   1.171   2.880   7.525  0.7263  0.9392 -0.7863
 8358SOL    HW237548   1.212   2.929   7.675 -1.4893 -0.7531  0.4106
 8359SOL     OW37549   5.676   6.131   3.702 -1.2426 -0.2902  0.1120
 8359SOL    HW137550   5.596   6.072   3.698 -2.1751  0.9209  0.8251
 8359SOL    HW237551   5.650   6.226   3.685 -0.0429  0.1845  0.8217
 8360SOL     OW37552   5.293   8.890   1.982  0.4743  0.1011  0.3853
 8360SOL    HW137553   5.212   8.889   2.040  0.8289 -0.8891  0.8798
 8360SOL    HW237554   5.276   8.837   1.899 -0.0477  1.5534 -0.4371
 8361SOL     OW37555   0.389   2.573   3.314 -0.3036 -0.0955  0.5299
 8361SOL    HW137556   0.469   2.519   3.287 -0.0878  1.3311 -1.7491
 8361SOL    HW237557   0.314   2.511   3.339  0.8722 -1.4329  0.7945
 8362SOL     OW37558   4.659   7.504   5.038 -0.1317  0.3800 -0.1164
 8362SOL    HW137559   4.581   7.557   5.073  0.8379  2.2656 -0.7737
 8362SOL    HW237560   4.666   7.418   5.090 -1.6243  0.9521  1.0825
 8363SOL     OW37561   7.137   5.685   1.763  0.3705 -0.0429  0.2052
 8363SOL    HW137562   7.067   5.627   1.805  0.5041  0.8614  1.7295
 8363SOL    HW237563   7.207   5.628   1.721  0.4509 -0.9911  1.5887
 8364SOL     OW37564   4.216   4.225   8.866  0.1122 -0.1597 -0.1602
 8364SOL    HW137565   4.285   4.221   8.937  0.3475 -1.2773 -0.4413
 8364SOL    HW237566   4.139   4.167   8.891 -0.0229 -0.1638 -0.5829
 8365SOL     OW37567   0.766   4.180   7.977 -0.0860  0.2695 -0.0150
 8365SOL    HW137568   0.672   4.150   7.958 -0.0974  0.4087 -0.1760
 8365SOL    HW237569   0.767   4.229   8.064 -0.5414  2.0584 -0.9808
 8366SOL     OW37570   6.234   8.900   3.117  0.2180 -0.2830  0.3626
 8366SOL    HW137571   6.332   8.918   3.113  0.4183 -0.9985  1.6717
 8366SOL    HW237572   6.194   8.908   3.026  1.4884  0.0015 -0.1713
 8367SOL     OW37573   6.779   7.212   7.804  0.2489 -0.3506  0.3472
 8367SOL    HW137574   6.702   7.161   7.842  0.9230 -1.1152  0.6843
 8367SOL    HW237575   6.813   7.166   7.722 -1.5106  1.5396 -1.5232
 8368SOL     OW37576   7.545   6.697   6.577 -0.3938 -0.0519  0.1695
 8368SOL    HW137577   7.490   6.625   6.619 -0.1881  0.0189  0.5683
 8368SOL    HW237578   7.642   6.680   6.595 -0.2359 -0.5695 -1.1630
 8369SOL     OW37579   6.610   3.611   8.073 -0.7041 -0.5008 -0.5854
 8369SOL    HW137580   6.577   3.621   8.166 -0.2635 -1.1931 -0.3536
 8369SOL    HW237581   6.685   3.544   8.070 -1.1438 -0.9784 -1.5255
 8370SOL     OW37582   4.686   3.554   5.160  0.5687  0.3877 -0.3367
 8370SOL    HW137583   4.734   3.640   5.173  0.0400  0.4394  1.4102
 8370SOL    HW237584   4.736   3.481   5.207 -0.9933  0.4354  1.4685
 8371SOL     OW37585   6.466   6.502   1.186 -0.0964  0.1371  0.8279
 8371SOL    HW137586   6.562   6.507   1.158 -0.4137 -1.9836 -0.7560
 8371SOL    HW237587   6.408   6.535   1.111 -0.7912 -2.8188 -0.0287
 8372SOL     OW37588   2.576   6.582   8.435 -0.0238  0.0096 -0.0163
 8372SOL    HW137589   2.576   6.486   8.462  1.3231 -0.7303 -2.4556
 8372SOL    HW237590   2.521   6.593   8.352  0.4075  1.1976 -0.1540
 8373SOL     OW37591   7.534   4.039   3.779 -0.1647 -0.0250 -0.1353
 8373SOL    HW137592   7.485   3.980   3.715 -0.9211  0.5753 -0.1170
 8373SOL    HW237593   7.525   4.134   3.750  2.9960 -0.0641 -1.4837
 8374SOL     OW37594   0.528   5.301   6.587 -0.4584  0.7179  0.3296
 8374SOL    HW137595   0.453   5.240   6.612  0.2083 -0.5967 -0.7931
 8374SOL    HW237596   0.508   5.393   6.620 -0.8881 -0.3425  3.1812
 8375SOL     OW37597   6.969   5.829   0.767 -0.2664 -0.1366 -0.1937
 8375SOL    HW137598   6.905   5.863   0.836 -1.1452  0.3277 -1.2102
 8375SOL    HW237599   6.918   5.804   0.685  0.9234  0.7096 -1.2029
 8376SOL     OW37600   2.942   6.202   8.728 -0.4412 -0.3788 -0.4655
 8376SOL    HW137601   2.846   6.176   8.715  0.4745 -4.2182 -0.0228
 8376SOL    HW237602   2.966   6.193   8.824  0.8069 -1.0981 -0.8331
 8377SOL     OW37603   8.963   7.194   7.898 -0.1613  0.0251 -0.3780
 8377SOL    HW137604   8.950   7.277   7.844  1.3034  0.6699  0.2309
 8377SOL    HW237605   9.032   7.137   7.853 -0.0572 -0.1541  0.0098
 8378SOL     OW37606   3.273   6.781   6.724  0.0527 -0.2689  0.0478
 8378SOL    HW137607   3.298   6.727   6.804 -0.6178 -0.3896  0.1797
 8378SOL    HW237608   3.341   6.853   6.709 -0.0259  0.0033  0.9664
 8379SOL     OW37609   6.020   8.181   6.353 -0.1313  0.6250 -0.5786
 8379SOL    HW137610   5.936   8.197   6.302  0.9932  0.6477 -2.4671
 8379SOL    HW237611   6.099   8.211   6.299  1.3389 -2.1298 -0.0816
 8380SOL     OW37612   8.759   8.483   0.672  0.0190  0.7067  0.3792
 8380SOL    HW137613   8.671   8.445   0.644  0.1049  1.0395 -0.3441
 8380SOL    HW237614   8.801   8.422   0.739 -0.7587  0.5470  0.7290
 8381SOL     OW37615   2.779   1.721   2.113  0.4683 -0.2089  0.0550
 8381SOL    HW137616   2.696   1.666   2.105  0.6472 -0.0893 -3.2061
 8381SOL    HW237617   2.755   1.816   2.131 -0.1476 -0.0268 -1.6870
 8382SOL     OW37618   7.174   8.827   1.203 -0.1429  0.2187  0.1620
 8382SOL    HW137619   7.217   8.741   1.174  0.4669  0.2399  0.9629
 8382SOL    HW237620   7.099   8.807   1.265  1.3329  0.3171  2.0305
 8383SOL     OW37621   6.682   2.104   0.500  0.6748 -0.2074  0.1052
 8383SOL    HW137622   6.708   2.093   0.404 -0.0975  2.6530 -0.4889
 8383SOL    HW237623   6.588   2.139   0.505  1.3110  1.3349  1.8328
 8384SOL     OW37624   4.296   2.069   0.354  0.7316 -0.5501 -0.2148
 8384SOL    HW137625   4.309   1.977   0.392  2.5741 -0.1912  0.0415
 8384SOL    HW237626   4.370   2.091   0.291  1.2555  1.4320  1.0395
 8385SOL     OW37627   3.656   8.009   4.109 -0.1537  0.0149  0.1426
 8385SOL    HW137628   3.572   8.063   4.119  0.8160  1.4533  0.6747
 8385SOL    HW237629   3.730   8.068   4.079  0.0730 -1.7733 -3.0073
 8386SOL     OW37630   8.434   8.513   7.057  0.1868  0.0215 -0.2692
 8386SOL    HW137631   8.382   8.596   7.076 -3.6402 -2.1258 -0.9657
 8386SOL    HW237632   8.420   8.486   6.961  1.4698 -1.3782 -0.0790
 8387SOL     OW37633   0.001   2.943   5.798  0.6407 -0.4648  0.4613
 8387SOL    HW137634   0.006   2.963   5.896 -0.8206  0.9747  0.2732
 8387SOL    HW237635   0.074   2.991   5.750 -0.8528  1.8332  0.4216
 8388SOL     OW37636   4.113   3.550   6.321  0.0454 -0.1209 -0.3777
 8388SOL    HW137637   4.206   3.553   6.284 -0.2610 -0.0470 -1.1648
 8388SOL    HW237638   4.067   3.637   6.302 -0.4357 -0.4365 -0.6781
 8389SOL     OW37639   7.472   3.261   7.792  0.6786  0.5361  0.2287
 8389SOL    HW137640   7.516   3.173   7.809  4.2371  2.5728  2.2635
 8389SOL    HW237641   7.491   3.291   7.699  0.5502 -0.2766 -0.0574
 8390SOL     OW37642   1.195   8.720   7.496  0.0196  0.6516 -0.4058
 8390SOL    HW137643   1.285   8.697   7.459  0.0495  0.5770 -0.2895
 8390SOL    HW237644   1.206   8.785   7.572 -0.0885  1.3127 -0.9485
 8391SOL     OW37645   7.633   0.424   1.866  0.1019 -0.7937  0.3869
 8391SOL    HW137646   7.645   0.379   1.778  0.0240 -0.5994  0.2783
 8391SOL    HW237647   7.718   0.415   1.919  0.9407  1.0407 -0.5932
 8392SOL     OW37648   2.242   7.299   8.771 -0.1795  0.4144 -0.6659
 8392SOL    HW137649   2.171   7.354   8.728  0.5539  1.4488 -0.5576
 8392SOL    HW237650   2.204   7.251   8.851 -1.2215 -0.5379 -1.7222
 8393SOL     OW37651   5.048   5.478   5.878  0.3985  0.1630  0.2008
 8393SOL    HW137652   4.985   5.419   5.828 -1.1094  0.8440  1.2789
 8393SOL    HW237653   5.118   5.422   5.922  1.6065 -0.4746 -2.4274
 8394SOL     OW37654   4.320   2.866   0.276  0.3786  0.2307 -0.2451
 8394SOL    HW137655   4.303   2.797   0.205 -1.4867  1.7008 -1.2721
 8394SOL    HW237656   4.372   2.942   0.237  0.1485  0.6136  0.1841
 8395SOL     OW37657   3.484   0.949   3.674  0.5351  0.1607  0.0093
 8395SOL    HW137658   3.556   0.881   3.691  1.4413  1.0974 -0.0134
 8395SOL    HW237659   3.396   0.903   3.665  0.9898 -0.9238  0.9794
 8396SOL     OW37660   1.816   3.893   6.825  0.4945 -0.0454 -0.6311
 8396SOL    HW137661   1.817   3.980   6.775  0.1336  0.3204 -0.0095
 8396SOL    HW237662   1.908   3.874   6.859  0.5918  0.0610 -0.8338
 8397SOL     OW37663   6.117   4.839   7.285 -0.5683 -0.1228  0.0506
 8397SOL    HW137664   6.179   4.910   7.251  0.0646 -0.2966  0.8270
 8397SOL    HW237665   6.023   4.871   7.279 -0.4546 -0.0543 -1.6456
 8398SOL     OW37666   3.629   2.395   8.075  0.3501  0.5475  0.3044
 8398SOL    HW137667   3.702   2.416   8.011  0.5318  1.0728  0.6787
 8398SOL    HW237668   3.633   2.298   8.100  0.1946  0.3161 -0.5757
 8399SOL     OW37669   4.788   3.474   2.063 -0.6275 -0.5181  0.1236
 8399SOL    HW137670   4.773   3.562   2.108 -1.4471 -1.1971  1.2059
 8399SOL    HW237671   4.878   3.439   2.087 -1.2873 -1.1475  1.7190
 8400SOL     OW37672   1.197   3.239   4.906 -0.5398  0.0541  0.1726
 8400SOL    HW137673   1.116   3.284   4.945 -0.0619  0.9667  0.1105
 8400SOL    HW237674   1.273   3.303   4.904  0.2987 -0.9162  0.5731
 8401SOL     OW37675   2.171   5.387   3.595  0.2222  0.8186 -0.2247
 8401SOL    HW137676   2.251   5.331   3.617  0.6541  0.5389 -2.3452
 8401SOL    HW237677   2.153   5.451   3.670  2.3163  0.7553  0.3716
 8402SOL     OW37678   7.771   6.065   7.804  0.4607 -0.0891  0.3507
 8402SOL    HW137679   7.762   5.965   7.812  2.2826 -0.3100 -0.0865
 8402SOL    HW237680   7.741   6.094   7.714  0.7665 -0.3510  0.1648
 8403SOL     OW37681   6.635   4.555   2.101 -0.2306 -0.8423 -0.3424
 8403SOL    HW137682   6.648   4.640   2.050 -0.2630  0.6251  1.9986
 8403SOL    HW237683   6.724   4.514   2.120 -0.1009 -0.4280 -0.0342
 8404SOL     OW37684   2.033   8.506   1.822  0.7723  0.2819  0.2593
 8404SOL    HW137685   2.029   8.425   1.763 -0.9203 -0.9202  1.9932
 8404SOL    HW237686   2.026   8.588   1.765  1.8648 -0.7588 -1.4593
 8405SOL     OW37687   5.473   2.469   3.210 -0.3025 -0.4152  0.0550
 8405SOL    HW137688   5.509   2.549   3.162  2.0045 -1.1982  0.4227
 8405SOL    HW237689   5.433   2.498   3.297 -0.3039  0.4404 -0.2286
 8406SOL     OW37690   3.066   2.168   0.228 -0.2526  0.1291 -0.1993
 8406SOL    HW137691   2.972   2.136   0.244 -0.2291  0.1628  0.0053
 8406SOL    HW237692   3.125   2.089   0.208 -0.3072  0.1005 -0.2490
 8407SOL     OW37693   2.044   0.870   0.307  0.1288 -0.0926  0.3509
 8407SOL    HW137694   2.052   0.866   0.406  0.3456 -0.1535  0.3309
 8407SOL    HW237695   2.056   0.964   0.275 -0.1888 -0.0344  0.4044
 8408SOL     OW37696   2.039   3.238   6.326  0.7577  0.3537 -0.2521
 8408SOL    HW137697   2.003   3.148   6.350 -0.3696  0.7624 -0.3364
 8408SOL    HW237698   1.965   3.306   6.333  1.6407  1.3047  0.0222
 8409SOL     OW37699   0.775   2.477   4.278  0.7233 -0.3148  0.0460
 8409SOL    HW137700   0.853   2.419   4.303  1.5125  1.1450  1.0496
 8409SOL    HW237701   0.693   2.421   4.273  1.4622 -1.5208  1.0753
 8410SOL     OW37702   3.382   2.543   2.093 -0.3770  0.1328  0.5708
 8410SOL    HW137703   3.383   2.575   1.998 -1.0709 -1.1516  0.1075
 8410SOL    HW237704   3.459   2.582   2.143 -0.0684  0.9039 -0.4916
 8411SOL     OW37705   3.348   2.138   3.162  0.3496 -0.8801 -0.2741
 8411SOL    HW137706   3.418   2.097   3.104 -1.6200 -0.0511 -3.3646
 8411SOL    HW237707   3.269   2.076   3.167  1.0711 -1.6412  2.8687
 8412SOL     OW37708   3.508   2.944   5.467 -0.0072  0.4715  0.3972
 8412SOL    HW137709   3.540   2.996   5.388  4.0817 -0.5532  1.3013
 8412SOL    HW237710   3.480   2.852   5.437  2.0529 -0.0996  0.1832
 8413SOL     OW37711   4.800   0.387   2.541  0.2907 -0.5187 -1.0645
 8413SOL    HW137712   4.800   0.426   2.449  1.2021  0.1805 -0.7698
 8413SOL    HW237713   4.852   0.302   2.542  0.2724 -0.5307 -1.1991
 8414SOL     OW37714   4.732   8.224   0.978 -0.6045  0.1214  0.1715
 8414SOL    HW137715   4.673   8.218   1.058 -0.2723  1.4228  0.5362
 8414SOL    HW237716   4.820   8.262   1.005  0.3154 -1.5428 -0.4224
 8415SOL     OW37717   6.161   6.758   5.745  0.0841  0.5339 -0.0359
 8415SOL    HW137718   6.200   6.769   5.653  0.2521 -0.4012 -0.0793
 8415SOL    HW237719   6.233   6.771   5.813  0.8969 -2.9096 -0.1611
 8416SOL     OW37720   8.157   4.340   4.253  0.5126  0.4249  0.2927
 8416SOL    HW137721   8.216   4.284   4.311  0.9718  0.0452 -0.5332
 8416SOL    HW237722   8.140   4.428   4.299 -1.0464 -0.7382  2.0476
 8417SOL     OW37723   5.790   3.757   6.369  0.1098  0.1843  0.1766
 8417SOL    HW137724   5.742   3.709   6.442 -2.0874  1.1447 -0.5907
 8417SOL    HW237725   5.808   3.852   6.396 -1.8342  0.9069 -0.9658
 8418SOL     OW37726   5.748   7.533   7.939 -0.9528  0.2116  0.0590
 8418SOL    HW137727   5.843   7.526   7.969 -0.8362 -1.6882 -0.6516
 8418SOL    HW237728   5.745   7.571   7.847 -0.7167 -1.4202 -0.6497
 8419SOL     OW37729   0.028   4.220   3.627 -0.4357  0.5070  1.0358
 8419SOL    HW137730   0.095   4.149   3.604 -0.3072  0.6163  1.0746
 8419SOL    HW237731   0.051   4.261   3.715  0.3628  1.6466  0.3098
 8420SOL     OW37732   3.445   7.180   4.475 -0.0372 -0.3708  0.1617
 8420SOL    HW137733   3.384   7.257   4.455  1.8547  1.1136 -0.0909
 8420SOL    HW237734   3.537   7.215   4.493  0.6595 -2.5300  0.9331
 8421SOL     OW37735   7.125   6.950   5.758  0.1664 -0.7840  0.1915
 8421SOL    HW137736   7.180   6.894   5.696  0.0765 -0.2089 -0.4102
 8421SOL    HW237737   7.183   7.020   5.800 -0.1530 -0.0244 -0.6253
 8422SOL     OW37738   8.123   3.857   1.758  0.3790  0.4361  0.4572
 8422SOL    HW137739   8.107   3.935   1.698  1.5503  0.5309  0.2552
 8422SOL    HW237740   8.100   3.882   1.852 -0.0029  0.7692  0.2765
 8423SOL     OW37741   8.229   4.878   7.582  0.5215  0.2862 -0.6032
 8423SOL    HW137742   8.162   4.810   7.614 -0.1568  0.4045 -1.7234
 8423SOL    HW237743   8.317   4.832   7.566  0.5805  0.0312  0.3887
 8424SOL     OW37744   6.540   7.226   5.365  0.0997  0.2181 -0.0943
 8424SOL    HW137745   6.489   7.259   5.285  0.3864  3.5484  1.0265
 8424SOL    HW237746   6.636   7.256   5.357  0.6086 -1.2305  0.5049
 8425SOL     OW37747   5.750   2.625   0.257  0.2865  0.0172 -0.4536
 8425SOL    HW137748   5.745   2.580   0.168  1.4906 -0.5463 -0.2527
 8425SOL    HW237749   5.821   2.696   0.255  2.4009 -1.9774  0.8831
 8426SOL     OW37750   4.711   8.525   8.187 -0.1260 -0.0692  0.4307
 8426SOL    HW137751   4.624   8.517   8.140 -0.0496 -1.1000  0.4624
 8426SOL    HW237752   4.786   8.512   8.122  0.0129  1.1038  0.3460
 8427SOL     OW37753   5.150   8.398   6.707 -0.2592 -0.1400  0.1474
 8427SOL    HW137754   5.083   8.340   6.660 -0.4459  0.8091 -0.7933
 8427SOL    HW237755   5.236   8.398   6.655 -0.7469  1.6144 -0.7237
 8428SOL     OW37756   5.999   0.089   0.256 -0.4283  0.2552 -0.2693
 8428SOL    HW137757   6.012   0.117   0.161 -0.3645 -1.3804 -0.7681
 8428SOL    HW237758   5.932   0.149   0.300  0.4915  1.8074 -0.9729
 8429SOL     OW37759   6.744   0.763   0.126 -0.5980 -0.0334 -0.6503
 8429SOL    HW137760   6.804   0.835   0.160  0.4601 -0.7670 -0.9698
 8429SOL    HW237761   6.767   0.742   0.031 -0.8357 -0.8632 -0.5258
 8430SOL     OW37762   7.570   7.280   4.874 -0.3290  0.0723 -0.1251
 8430SOL    HW137763   7.630   7.223   4.930 -0.0118  1.8866  1.4698
 8430SOL    HW237764   7.474   7.260   4.896 -0.2466 -0.7225 -0.4874
 8431SOL     OW37765   3.126   0.384   6.548  0.0403 -0.4856  0.3511
 8431SOL    HW137766   3.063   0.384   6.470 -0.1341  1.3272  0.4853
 8431SOL    HW237767   3.074   0.364   6.632 -0.1645 -0.1296  0.3107
 8432SOL     OW37768   1.612   1.663   1.428 -0.1427  0.2015  0.3546
 8432SOL    HW137769   1.624   1.759   1.450 -1.4242  0.6144 -0.6926
 8432SOL    HW237770   1.697   1.613   1.446  0.0911  1.2545  2.2407
 8433SOL     OW37771   1.243   4.566   3.911  0.1566 -0.0766  0.3568
 8433SOL    HW137772   1.202   4.480   3.943  0.1539 -0.3861 -0.4452
 8433SOL    HW237773   1.189   4.643   3.944 -0.2736 -0.4200  0.4639
 8434SOL     OW37774   6.263   3.342   1.068 -0.3295  0.3431 -0.1241
 8434SOL    HW137775   6.225   3.253   1.040  0.3928 -0.0117  0.0174
 8434SOL    HW237776   6.360   3.332   1.090 -0.2288  1.1808 -0.1537
 8435SOL     OW37777   4.708   4.719   3.831 -0.4401  0.4798  0.4283
 8435SOL    HW137778   4.749   4.796   3.781 -0.4684  1.1524  1.4240
 8435SOL    HW237779   4.661   4.754   3.912 -0.7216 -0.5655  0.7172
 8436SOL     OW37780   8.862   2.678   5.783 -0.1994  0.6135  0.0325
 8436SOL    HW137781   8.944   2.628   5.755 -0.8524  0.2221 -1.1863
 8436SOL    HW237782   8.882   2.776   5.784  0.3546  0.5057 -0.0148
 8437SOL     OW37783   3.557   0.980   8.750 -0.6288 -0.5966 -0.3494
 8437SOL    HW137784   3.465   0.949   8.773 -1.4939 -0.2918 -3.2696
 8437SOL    HW237785   3.587   0.937   8.666  1.0014  1.0113 -0.6184
 8438SOL     OW37786   0.107   8.036   0.016 -0.0379 -0.3124 -0.4867
 8438SOL    HW137787   0.191   8.022  -0.037  1.0682  1.5165  0.7345
 8438SOL    HW237788   0.084   7.952   0.065  0.3217 -1.2413 -1.8806
 8439SOL     OW37789   6.624   8.384   1.457 -0.1504  0.0144  0.0275
 8439SOL    HW137790   6.709   8.362   1.504  0.4117  1.6571 -0.1893
 8439SOL    HW237791   6.598   8.307   1.398 -0.6161 -1.8681  2.5921
 8440SOL     OW37792   1.281   8.962   1.572  0.1863 -0.0582 -0.9416
 8440SOL    HW137793   1.254   9.057   1.554  0.0406  0.0108 -0.3672
 8440SOL    HW237794   1.381   8.957   1.576  0.1572  0.4759  1.1406
 8441SOL     OW37795   6.378   6.964   6.488  0.0348  0.5383 -0.0796
 8441SOL    HW137796   6.339   6.967   6.580 -0.5434  0.4899 -0.3153
 8441SOL    HW237797   6.474   6.992   6.490  0.2738 -0.3153  0.6734
 8442SOL     OW37798   5.246   7.865   0.260 -0.6197  0.4303 -0.5669
 8442SOL    HW137799   5.257   7.963   0.247 -0.6593  0.3694 -1.0934
 8442SOL    HW237800   5.152   7.838   0.236 -0.3371  0.1221 -1.3800
 8443SOL     OW37801   2.436   2.433   3.649  0.0480 -0.8432  0.5071
 8443SOL    HW137802   2.345   2.455   3.684  0.9022  0.3267  2.0740
 8443SOL    HW237803   2.436   2.439   3.549 -0.9258  1.9030  0.6120
 8444SOL     OW37804   7.832   5.034   2.871  0.1592  0.2631  0.2122
 8444SOL    HW137805   7.834   5.128   2.905  1.3333  0.0118  0.8594
 8444SOL    HW237806   7.925   4.998   2.866 -0.1116 -0.2200 -1.8783
 8445SOL     OW37807   2.839   2.535   4.822 -0.1237 -0.6277  0.0725
 8445SOL    HW137808   2.849   2.627   4.786 -1.4235 -0.1439  0.9276
 8445SOL    HW237809   2.783   2.537   4.905  1.7987 -1.8731  1.4592
 8446SOL     OW37810   6.116   2.549   2.976 -0.4427  0.3303  0.4243
 8446SOL    HW137811   6.033   2.495   2.959 -0.4237  0.4345 -0.0131
 8446SOL    HW237812   6.120   2.576   3.072 -0.9212  0.3296  0.4430
 8447SOL     OW37813   8.130   5.201   1.799 -0.0994 -0.3975  0.2249
 8447SOL    HW137814   8.048   5.144   1.799 -0.3718 -0.0278  1.1825
 8447SOL    HW237815   8.181   5.188   1.714 -0.5337 -1.5173  0.1306
 8448SOL     OW37816   8.459   7.796   1.137 -0.8840  0.0886  0.2293
 8448SOL    HW137817   8.389   7.867   1.126 -1.5600 -0.5343  0.4469
 8448SOL    HW237818   8.500   7.805   1.228 -1.2849 -0.0746  0.4282
 8449SOL     OW37819   0.546   5.439   0.214  0.1409  0.3365 -0.3563
 8449SOL    HW137820   0.507   5.372   0.151  0.9300 -0.0890 -0.3928
 8449SOL    HW237821   0.506   5.426   0.305  2.0015 -1.7444  0.2123
 8450SOL     OW37822   3.565   4.331   7.468  0.1322 -0.1482  0.4538
 8450SOL    HW137823   3.545   4.315   7.372 -1.3568 -1.9200  1.0332
 8450SOL    HW237824   3.567   4.244   7.517  1.8608  0.6406  1.8569
 8451SOL     OW37825   0.367   1.784   5.565  0.2783  1.1102 -0.6260
 8451SOL    HW137826   0.465   1.801   5.558  0.1342  2.5264  0.4374
 8451SOL    HW237827   0.348   1.728   5.646  0.2680  0.2788 -1.2008
 8452SOL     OW37828   8.296   5.201   5.974 -0.0638  0.1481 -0.2117
 8452SOL    HW137829   8.243   5.117   5.986 -0.5807 -0.2290 -4.3358
 8452SOL    HW237830   8.370   5.204   6.042 -0.0058 -3.6820  0.0087
 8453SOL     OW37831   7.120   0.510   6.850  0.4957  0.9310  0.1289
 8453SOL    HW137832   7.070   0.596   6.836  0.9982  0.9396 -1.7772
 8453SOL    HW237833   7.157   0.479   6.763  3.9834  1.0218  1.5194
 8454SOL     OW37834   8.637   3.220   2.149  0.2830 -0.3781 -0.1227
 8454SOL    HW137835   8.675   3.252   2.062 -0.6601 -2.1981 -1.2453
 8454SOL    HW237836   8.612   3.123   2.140  0.4276 -0.6576  2.2707
 8455SOL     OW37837   5.848   7.337   5.221  0.0804  0.0676  0.5441
 8455SOL    HW137838   5.779   7.398   5.184 -0.4661  0.5918  2.3556
 8455SOL    HW237839   5.857   7.256   5.163 -1.4727  0.3739 -0.1314
 8456SOL     OW37840   4.689   5.826   2.563  0.0610 -0.2091 -0.0124
 8456SOL    HW137841   4.781   5.828   2.602  0.7147 -0.1503 -1.5232
 8456SOL    HW237842   4.648   5.916   2.570  0.2176 -0.1739  0.4442
 8457SOL     OW37843   5.592   0.318   8.337 -0.7206  0.0641  0.1240
 8457SOL    HW137844   5.526   0.378   8.381 -2.2068 -1.3427 -0.1160
 8457SOL    HW237845   5.544   0.242   8.292  1.0466 -0.9435 -0.1389
 8458SOL     OW37846   3.581   3.868   8.085 -0.3649  0.2077  0.5742
 8458SOL    HW137847   3.544   3.809   8.156 -0.7684  0.9304  0.9692
 8458SOL    HW237848   3.587   3.962   8.120  0.9326  0.2735  0.1984
 8459SOL     OW37849   1.622   4.638   7.380 -0.2654 -0.3177 -0.0497
 8459SOL    HW137850   1.703   4.690   7.351 -0.5099 -0.3261 -0.7665
 8459SOL    HW237851   1.649   4.545   7.405  0.1859  0.1728  1.3191
 8460SOL     OW37852   7.200   1.670   3.014  0.1125  0.1197 -0.2346
 8460SOL    HW137853   7.291   1.710   3.003 -0.1232  0.4788 -0.9449
 8460SOL    HW237854   7.131   1.741   3.007 -0.3108 -0.3912 -1.6002
 8461SOL     OW37855   7.482   3.292   0.557  0.0516 -0.1460  0.1705
 8461SOL    HW137856   7.388   3.304   0.524 -0.2990  2.6657  2.0461
 8461SOL    HW237857   7.481   3.253   0.649  0.8095 -1.9732 -0.5806
 8462SOL     OW37858   3.829   4.395   8.855  0.4225 -0.1654 -0.6239
 8462SOL    HW137859   3.768   4.433   8.925  0.6485  0.4994 -0.7841
 8462SOL    HW237860   3.792   4.308   8.823 -2.3650  1.8684 -3.2508
 8463SOL     OW37861   4.116   5.901   5.612  0.0772  0.3042 -0.0815
 8463SOL    HW137862   4.129   5.945   5.701 -1.4752  0.6937 -0.0370
 8463SOL    HW237863   4.194   5.922   5.553  0.4928  1.1389  0.7557
 8464SOL     OW37864   3.531   1.693   7.311  0.5372  0.3293  0.0803
 8464SOL    HW137865   3.439   1.684   7.348  0.7928  0.4357  0.7375
 8464SOL    HW237866   3.538   1.638   7.227 -0.4766  1.2702 -0.6296
 8465SOL     OW37867   0.726   7.688   6.761  0.3135  0.1666 -0.1002
 8465SOL    HW137868   0.740   7.596   6.724  0.5168 -0.4190  1.4045
 8465SOL    HW237869   0.636   7.721   6.734 -0.2397 -0.9558  0.3034
 8466SOL     OW37870   6.878   3.426   8.095 -0.2739 -0.2245  0.3049
 8466SOL    HW137871   6.965   3.456   8.055 -1.2889 -0.1408 -1.8725
 8466SOL    HW237872   6.894   3.397   8.190  1.9468  0.7054  0.2467
 8467SOL     OW37873   7.217   4.195   4.696  0.2289  0.3244 -0.0022
 8467SOL    HW137874   7.168   4.207   4.610 -1.7993  0.2320  1.1161
 8467SOL    HW237875   7.204   4.276   4.753  0.1601 -0.3219  0.8989
 8468SOL     OW37876   4.949   0.396   4.612 -0.8372  0.9097  0.1291
 8468SOL    HW137877   4.960   0.378   4.514  0.0989 -0.5817  0.4806
 8468SOL    HW237878   4.939   0.309   4.661  0.0183  1.5497  1.4963
 8469SOL     OW37879   4.631   6.082   3.830  0.0853  0.2849 -0.0531
 8469SOL    HW137880   4.723   6.082   3.791 -0.2781 -0.7093 -0.9598
 8469SOL    HW237881   4.636   6.057   3.927  0.5131 -3.4458 -0.9220
 8470SOL     OW37882   7.778   8.201   1.749 -0.6439 -0.7439 -0.0997
 8470SOL    HW137883   7.720   8.275   1.714 -0.7234 -0.8630 -0.2169
 8470SOL    HW237884   7.816   8.149   1.673 -2.1802 -2.0670  0.0119
 8471SOL     OW37885   3.168   8.237   3.655  0.3974 -0.0179  0.3029
 8471SOL    HW137886   3.265   8.238   3.677  0.0728  0.8751  1.7572
 8471SOL    HW237887   3.156   8.212   3.559  1.8858 -3.4206  0.9137
 8472SOL     OW37888   8.802   3.182   5.929 -0.0290  0.1427  0.2395
 8472SOL    HW137889   8.785   3.278   5.908  0.3400  0.3801  0.9890
 8472SOL    HW237890   8.784   3.126   5.848  0.1531  0.8879 -0.3226
 8473SOL     OW37891   3.086   4.279   1.035 -0.1340  0.3010 -0.1177
 8473SOL    HW137892   2.998   4.326   1.048 -0.3719  0.2418 -1.4835
 8473SOL    HW237893   3.116   4.291   0.941  0.0852 -1.8004 -0.3267
 8474SOL     OW37894   2.242   5.819   3.887  0.0525 -0.4642  0.0288
 8474SOL    HW137895   2.247   5.784   3.980  1.9998  1.9445  0.8918
 8474SOL    HW237896   2.334   5.847   3.857 -0.5672 -1.0394 -2.5659
 8475SOL     OW37897   3.933   5.282   5.565  0.8588  0.4271 -0.1299
 8475SOL    HW137898   4.028   5.251   5.568  0.6818 -0.0873  0.1965
 8475SOL    HW237899   3.917   5.348   5.638  0.3698 -1.2115  1.2856
 8476SOL     OW37900   6.060   1.871   7.061  0.7364  0.5024  0.2197
 8476SOL    HW137901   6.024   1.831   6.977 -0.4721  0.7924  0.5902
 8476SOL    HW237902   6.143   1.922   7.041  1.4613 -0.9273 -0.5005
 8477SOL     OW37903   1.125   3.337   7.245  0.7098  0.8127  0.3584
 8477SOL    HW137904   1.043   3.328   7.189  2.5205 -0.0305 -2.2058
 8477SOL    HW237905   1.150   3.434   7.252  0.8606  0.8634 -0.8478
 8478SOL     OW37906   8.150   4.646   8.760  0.3459  0.5091 -0.3001
 8478SOL    HW137907   8.211   4.573   8.791 -0.8398  0.1357  1.1838
 8478SOL    HW237908   8.121   4.628   8.666  2.8077  0.8950 -1.1866
 8479SOL     OW37909   6.133   2.414   7.452  0.0628 -0.0094  0.2252
 8479SOL    HW137910   6.096   2.338   7.506  1.1247 -0.9196 -0.2855
 8479SOL    HW237911   6.231   2.421   7.468  0.1155  0.7025 -0.4015
 8480SOL     OW37912   4.682   7.246   8.977 -0.0413 -0.1831 -0.1761
 8480SOL    HW137913   4.679   7.345   8.991 -1.8210 -0.6692  3.5083
 8480SOL    HW237914   4.770   7.211   9.008  0.0287  0.0476 -0.1130
 8481SOL     OW37915   6.312   5.726   5.368 -0.3145 -0.4156 -0.5638
 8481SOL    HW137916   6.229   5.699   5.416  0.3307  0.3233  0.9801
 8481SOL    HW237917   6.304   5.699   5.271 -2.3298 -0.3607 -0.4418
 8482SOL     OW37918   0.989   4.289   3.546 -0.2107  0.1560 -0.0848
 8482SOL    HW137919   0.945   4.211   3.592 -0.1323 -0.4318 -0.9912
 8482SOL    HW237920   0.999   4.269   3.449  1.5757  0.4989  0.0063
 8483SOL     OW37921   0.676   7.579   8.279 -0.2590  0.4048  0.2241
 8483SOL    HW137922   0.666   7.678   8.288  1.6149  0.3958  2.5886
 8483SOL    HW237923   0.631   7.533   8.356  1.3707 -0.4488  0.6813
 8484SOL     OW37924   2.973   2.832   4.530  0.2571  0.0454 -0.2815
 8484SOL    HW137925   3.050   2.784   4.573 -1.5120 -1.0296  1.7546
 8484SOL    HW237926   2.938   2.777   4.455  0.2190 -0.3898  0.0510
 8485SOL     OW37927   2.628   1.943   0.829 -0.3873 -0.2916 -0.1885
 8485SOL    HW137928   2.623   1.954   0.929 -1.4978 -0.2715 -0.2499
 8485SOL    HW237929   2.715   1.980   0.797  0.9268 -2.1698  1.0361
 8486SOL     OW37930   5.645   5.666   7.153 -0.0139  0.3120  0.9054
 8486SOL    HW137931   5.700   5.585   7.134  0.0447  0.4909  0.2959
 8486SOL    HW237932   5.704   5.737   7.192 -0.0412  0.1052  1.3237
 8487SOL     OW37933   4.791   3.756   1.522 -0.1558  0.1375  0.3363
 8487SOL    HW137934   4.877   3.807   1.523  0.3555 -0.6216 -2.3277
 8487SOL    HW237935   4.788   3.697   1.442 -2.7034 -0.6758  0.9912
 8488SOL     OW37936   1.762   2.292   4.426  0.2991  0.3713  0.2980
 8488SOL    HW137937   1.792   2.348   4.349  0.2498 -0.3557 -0.2499
 8488SOL    HW237938   1.701   2.346   4.484 -2.1819 -0.0323 -1.8479
 8489SOL     OW37939   2.574   8.449   2.062 -0.1691  0.4782  0.0627
 8489SOL    HW137940   2.625   8.423   1.980  1.8968 -0.0842  1.4943
 8489SOL    HW237941   2.561   8.369   2.120  1.2910  1.4642  1.8248
 8490SOL     OW37942   7.779   0.320   7.171  0.2347 -0.1260  0.4428
 8490SOL    HW137943   7.747   0.409   7.140  0.4145 -0.4953 -0.8196
 8490SOL    HW237944   7.724   0.248   7.128  0.3817 -0.6431  1.1125
 8491SOL     OW37945   7.093   3.722   2.440  0.1815  0.0070 -0.1144
 8491SOL    HW137946   7.090   3.669   2.525  1.4621 -0.5065 -0.3821
 8491SOL    HW237947   7.077   3.661   2.362 -1.0374  0.4855 -0.2558
 8492SOL     OW37948   4.797   0.702   2.356  0.5809  0.1663  0.2586
 8492SOL    HW137949   4.716   0.759   2.368  0.4502  0.0076  0.1459
 8492SOL    HW237950   4.856   0.710   2.436  0.3489  0.1156  0.4360
 8493SOL     OW37951   7.652   5.191   6.828 -0.0049  0.4365 -0.0497
 8493SOL    HW137952   7.576   5.198   6.892  0.0234 -0.3736  0.0832
 8493SOL    HW237953   7.737   5.178   6.880  0.1767  0.9790 -0.2086
 8494SOL     OW37954   8.152   5.725   4.211  0.5279 -0.3284 -0.1631
 8494SOL    HW137955   8.227   5.667   4.181  0.9139  0.1463 -0.1012
 8494SOL    HW237956   8.080   5.667   4.251  2.2636 -0.5412  2.8087
 8495SOL     OW37957   1.413   5.179   2.646 -0.0921 -0.1175  0.3424
 8495SOL    HW137958   1.369   5.173   2.556  0.4560 -1.1491  0.1424
 8495SOL    HW237959   1.437   5.088   2.678  0.5523  0.3202  1.1262
 8496SOL     OW37960   2.127   3.089   4.921 -0.0312 -0.0539  0.1882
 8496SOL    HW137961   2.056   3.039   4.872  0.1062 -2.2735  2.1654
 8496SOL    HW237962   2.086   3.143   4.994  0.3103 -1.5335  1.4940
 8497SOL     OW37963   3.001   1.895   7.795 -0.2681  0.3481  0.1929
 8497SOL    HW137964   2.985   1.867   7.890 -1.2065 -1.1395 -0.3902
 8497SOL    HW237965   3.085   1.853   7.762 -2.4500 -3.1002 -1.1616
 8498SOL     OW37966   4.157   8.363   1.187  0.3942  0.1130 -0.4107
 8498SOL    HW137967   4.190   8.335   1.096 -0.0781 -1.0093 -0.2429
 8498SOL    HW237968   4.131   8.282   1.239 -1.1536  0.8902  0.0394
 8499SOL     OW37969   5.591   0.457   7.562 -0.0915 -0.3969 -0.0292
 8499SOL    HW137970   5.551   0.535   7.514  1.1704  0.7513  0.7632
 8499SOL    HW237971   5.520   0.388   7.578 -0.9122 -0.0462 -1.9896
 8500SOL     OW37972   1.166   0.263   0.427 -0.1455 -0.0440 -0.2261
 8500SOL    HW137973   1.109   0.329   0.476 -0.2038 -0.5802  0.4366
 8500SOL    HW237974   1.108   0.200   0.375 -0.4773 -3.1528  3.6213
 8501SOL     OW37975   8.216   8.777   1.967  0.2848  0.6109  0.2643
 8501SOL    HW137976   8.180   8.686   1.984  1.7451 -0.0178  0.0603
 8501SOL    HW237977   8.268   8.808   2.047  0.0996  1.1124  0.1935
 8502SOL     OW37978   7.080   3.488   6.703  0.1382 -0.1799  0.5706
 8502SOL    HW137979   7.106   3.564   6.643  1.6636 -1.2907 -0.2062
 8502SOL    HW237980   7.110   3.508   6.796  2.0113 -0.5350  0.0642
 8503SOL     OW37981   0.961   1.604   2.009 -0.4002  0.6819 -0.1093
 8503SOL    HW137982   0.956   1.536   2.083 -0.0641 -0.0440 -0.7352
 8503SOL    HW237983   0.872   1.614   1.967 -0.8432  1.9041  1.0945
 8504SOL     OW37984   5.043   4.608   2.716 -0.2913  0.3349  0.4020
 8504SOL    HW137985   4.956   4.658   2.712 -0.7642 -0.5245 -0.2549
 8504SOL    HW237986   5.024   4.510   2.720  0.6404  0.1857  1.1392
 8505SOL     OW37987   3.057   3.463   6.823 -0.1175 -0.6895  0.4151
 8505SOL    HW137988   3.092   3.513   6.744 -0.6689  0.7588  1.0597
 8505SOL    HW237989   3.000   3.387   6.792  0.2285 -0.5513 -0.5800
 8506SOL     OW37990   0.096   1.254   4.250 -0.4036 -0.2187 -0.7088
 8506SOL    HW137991   0.105   1.166   4.203 -1.0690 -0.4242 -0.4581
 8506SOL    HW237992   0.024   1.307   4.207 -0.1255  0.1345 -0.7415
 8507SOL     OW37993   5.244   7.269   2.106 -0.3812 -0.0312  0.6092
 8507SOL    HW137994   5.243   7.297   2.010 -2.5507  0.9273  0.8740
 8507SOL    HW237995   5.257   7.349   2.164 -1.7534 -0.2137  1.1992
 8508SOL     OW37996   6.899   6.368   5.945 -0.2471  0.2389 -0.6770
 8508SOL    HW137997   6.818   6.426   5.931 -1.2644 -1.2857 -1.2791
 8508SOL    HW237998   6.969   6.420   5.994 -0.6654  2.3391 -2.2441
 8509SOL     OW37999   7.932   4.968   1.677  0.0606 -0.0689  0.2709
 8509SOL    HW138000   8.013   4.938   1.626  0.6746 -0.1184  1.2585
 8509SOL    HW238001   7.850   4.952   1.622  0.8013  1.0151 -1.2136
 8510SOL     OW38002   1.151   0.080   5.587 -0.2687  0.1468 -0.4571
 8510SOL    HW138003   1.176   0.161   5.641  1.2740  0.5029 -1.6733
 8510SOL    HW238004   1.085   0.106   5.517 -2.3946 -0.3458  1.2953
 8511SOL     OW38005   3.559   2.319   2.354  0.0781  0.0632 -0.2296
 8511SOL    HW138006   3.601   2.363   2.275  0.0095  0.8337  0.1640
 8511SOL    HW238007   3.465   2.352   2.365  0.1226  0.0318  0.2396
 8512SOL     OW38008   8.494   6.031   1.348 -0.5062  0.1488  0.2001
 8512SOL    HW138009   8.557   5.955   1.362 -0.8256 -0.0373  0.6238
 8512SOL    HW238010   8.452   6.057   1.435 -0.8275  0.4351 -0.0361
 8513SOL     OW38011   6.443   5.997   8.492 -0.0804  0.5434 -0.3034
 8513SOL    HW138012   6.499   5.939   8.550  0.4158 -0.2522 -1.5455
 8513SOL    HW238013   6.357   5.951   8.471  0.7142 -0.1881 -2.0749
 8514SOL     OW38014   2.292   8.600   2.322 -0.4905 -0.1056  0.6058
 8514SOL    HW138015   2.250   8.689   2.341  0.0534  0.2565  0.1148
 8514SOL    HW238016   2.243   8.556   2.247  2.0481  1.7961 -2.2860
 8515SOL     OW38017   6.414   1.679   6.881 -0.2454  0.5479  0.0520
 8515SOL    HW138018   6.467   1.722   6.954  0.0311  0.0363  0.1513
 8515SOL    HW238019   6.362   1.602   6.918 -0.4018  0.5250 -0.2131
 8516SOL     OW38020   0.172   1.142   8.952 -0.1621 -0.1415  0.1307
 8516SOL    HW138021   0.243   1.192   8.901 -1.2856  1.6903  0.3110
 8516SOL    HW238022   0.211   1.103   9.035  0.7787  0.3026 -0.0981
 8517SOL     OW38023   3.247   6.975   4.904  0.3379  0.0439  0.0431
 8517SOL    HW138024   3.323   6.941   4.959 -0.6807 -0.4918  1.1375
 8517SOL    HW238025   3.279   7.050   4.846  1.9800 -0.9731 -0.4049
 8518SOL     OW38026   6.362   0.136   6.477 -0.2472  0.1379 -0.4942
 8518SOL    HW138027   6.284   0.156   6.537 -0.1088 -0.8695  0.0319
 8518SOL    HW238028   6.447   0.151   6.527 -0.1357 -1.3831 -0.1994
 8519SOL     OW38029   0.887   1.417   4.799 -0.0527  0.3771 -0.3630
 8519SOL    HW138030   0.835   1.335   4.821  0.6170  0.0687  0.0764
 8519SOL    HW238031   0.968   1.423   4.858 -0.4825  1.7306  0.1106
 8520SOL     OW38032   1.191   6.754   2.282  0.4551  0.1075  0.1144
 8520SOL    HW138033   1.260   6.686   2.307 -0.1643 -1.2309 -1.7095
 8520SOL    HW238034   1.105   6.732   2.328  0.5764  0.3449  0.4542
 8521SOL     OW38035   2.606   2.729   2.913 -1.0984 -0.8554  0.0435
 8521SOL    HW138036   2.644   2.649   2.867 -0.2483 -0.6742  0.4250
 8521SOL    HW238037   2.537   2.772   2.854  2.2970  1.3084 -2.5796
 8522SOL     OW38038   4.690   6.167   3.406 -0.2444  0.0984 -0.0442
 8522SOL    HW138039   4.626   6.091   3.397  0.2594 -0.2037 -1.1207
 8522SOL    HW238040   4.667   6.220   3.487 -1.4072 -0.4390 -0.0108
 8523SOL     OW38041   0.225   5.185   1.780  0.4212  0.0144 -0.0526
 8523SOL    HW138042   0.185   5.263   1.829  0.3592  0.3889 -0.6906
 8523SOL    HW238043   0.206   5.101   1.830 -0.2717  0.3079  0.1892
 8524SOL     OW38044   0.451   1.423   7.481 -0.0089 -0.3545  0.4007
 8524SOL    HW138045   0.544   1.387   7.488 -0.6368 -2.0298  0.4008
 8524SOL    HW238046   0.433   1.453   7.387  0.5664  0.0962  0.4324
 8525SOL     OW38047   1.723   8.587   6.609  0.3309  0.2835 -0.2228
 8525SOL    HW138048   1.742   8.540   6.523 -0.3155  1.1130 -0.8243
 8525SOL    HW238049   1.787   8.663   6.620 -1.6013  2.1379 -1.5155
 8526SOL     OW38050   7.910   5.636   2.119  0.2660 -0.4463  0.4801
 8526SOL    HW138051   7.920   5.561   2.054 -1.6055  0.0456 -0.4048
 8526SOL    HW238052   7.927   5.724   2.073  0.0842 -0.1706  0.9306
 8527SOL     OW38053   3.375   2.520   7.684  0.4932 -0.0419 -0.4769
 8527SOL    HW138054   3.291   2.575   7.679 -0.3417 -1.0998  1.5857
 8527SOL    HW238055   3.449   2.570   7.639 -1.1816  0.9599 -2.2428
 8528SOL     OW38056   8.996   0.424   4.753 -0.3448 -0.3980  0.0490
 8528SOL    HW138057   8.898   0.429   4.772 -0.5375  0.2362 -1.1082
 8528SOL    HW238058   9.011   0.399   4.657  0.6273  1.0646 -0.1930
 8529SOL     OW38059   4.753   3.063   7.128  0.2332 -0.2908  0.1848
 8529SOL    HW138060   4.852   3.062   7.114 -0.0938 -0.8818 -2.3298
 8529SOL    HW238061   4.717   2.970   7.123 -0.7246  0.1376 -1.1923
 8530SOL     OW38062   4.717   7.943   0.908  0.3243 -0.3284  0.2109
 8530SOL    HW138063   4.731   8.041   0.917 -0.6416 -0.1743  0.0016
 8530SOL    HW238064   4.692   7.904   0.996  0.0826 -0.2888  0.1594
 8531SOL     OW38065   1.654   6.405   8.821 -0.6095 -0.3617 -0.2120
 8531SOL    HW138066   1.741   6.355   8.824 -1.6545 -2.1514  1.1526
 8531SOL    HW238067   1.666   6.496   8.860  0.0964 -1.5128  2.3773
 8532SOL     OW38068   0.010   5.559   6.243 -0.4144 -0.0741 -0.0330
 8532SOL    HW138069   0.102   5.543   6.208 -1.0239 -0.1160 -1.6442
 8532SOL    HW238070   0.014   5.573   6.342  1.0149 -2.5795  0.3008
 8533SOL     OW38071   8.916   7.104   1.555  0.2289 -0.1334 -0.2807
 8533SOL    HW138072   9.010   7.115   1.586  0.1900  1.2086 -0.5948
 8533SOL    HW238073   8.878   7.193   1.531 -1.6522 -0.4670  1.3393
 8534SOL     OW38074   6.330   0.675   7.755 -0.2265  0.0108 -0.5068
 8534SOL    HW138075   6.319   0.578   7.777 -1.6188  0.1673 -0.5031
 8534SOL    HW238076   6.428   0.696   7.744  0.0694 -1.4079 -0.6100
 8535SOL     OW38077   0.851   3.387   1.901  0.1852 -0.2482  0.4416
 8535SOL    HW138078   0.942   3.410   1.936  0.2476  1.2936 -0.7057
 8535SOL    HW238079   0.794   3.469   1.900 -0.5292 -0.7522 -0.8948
 8536SOL     OW38080   4.657   2.259   0.371  0.3892 -0.6292 -0.6008
 8536SOL    HW138081   4.608   2.228   0.289 -1.8962  0.4635  0.3047
 8536SOL    HW238082   4.646   2.191   0.444  0.3643 -0.4475 -0.4365
 8537SOL     OW38083   8.228   2.989   2.433  0.4114  0.0025  0.0397
 8537SOL    HW138084   8.145   2.946   2.397  1.9632 -1.7395 -1.6077
 8537SOL    HW238085   8.225   2.991   2.532 -1.3483 -0.5714  0.0027
 8538SOL     OW38086   5.387   8.649   0.277 -0.6416 -0.2104 -0.0622
 8538SOL    HW138087   5.466   8.654   0.338 -0.0389  0.8036 -0.9102
 8538SOL    HW238088   5.335   8.734   0.283  0.3152  0.5819 -2.1091
 8539SOL     OW38089   8.448   1.115   6.892 -0.6239  0.3408  0.0633
 8539SOL    HW138090   8.379   1.060   6.845 -0.5234  0.5374 -0.3139
 8539SOL    HW238091   8.405   1.198   6.928 -0.1519  1.5258 -2.0532
 8540SOL     OW38092   6.893   7.254   7.354  0.0564  0.1255  0.5347
 8540SOL    HW138093   6.826   7.197   7.306  0.7317 -2.1032  2.1518
 8540SOL    HW238094   6.915   7.334   7.299 -0.9920 -1.1353 -1.7551
 8541SOL     OW38095   2.288   0.765   6.862  0.0830 -0.1665 -0.2936
 8541SOL    HW138096   2.302   0.845   6.804 -0.2942 -0.5257 -0.8878
 8541SOL    HW238097   2.319   0.683   6.814 -1.6213 -0.6512 -0.5914
 8542SOL     OW38098   1.270   3.972   6.702  0.0310 -0.1650  0.2036
 8542SOL    HW138099   1.193   3.992   6.641  0.8016 -0.7865 -0.9820
 8542SOL    HW238100   1.265   3.877   6.732 -0.6643  0.2953  1.5888
 8543SOL     OW38101   0.702   5.549   2.240 -0.1445  0.1322  0.1537
 8543SOL    HW138102   0.681   5.487   2.164  0.2783 -1.9121  1.6609
 8543SOL    HW238103   0.800   5.562   2.246 -0.1245 -0.3578  0.8548
 8544SOL     OW38104   8.725   7.217   8.049 -0.6394  0.2757 -0.3791
 8544SOL    HW138105   8.644   7.254   8.003 -1.1452  0.2619  0.5003
 8544SOL    HW238106   8.800   7.211   7.983 -0.8780  1.8040 -0.8165
 8545SOL     OW38107   3.079   5.129   4.033  0.3923 -0.1788 -0.0656
 8545SOL    HW138108   3.112   5.218   4.064 -0.7881  0.0739  0.4765
 8545SOL    HW238109   3.155   5.064   4.033  0.9998  0.5183  0.6689
 8546SOL     OW38110   4.740   6.994   3.007 -0.0808 -0.1376 -0.7572
 8546SOL    HW138111   4.783   7.064   2.950  0.5605 -0.4892 -0.7083
 8546SOL    HW238112   4.811   6.934   3.045 -0.8242 -2.5389 -3.0502
 8547SOL     OW38113   5.225   3.620   4.645  0.2583  0.4610  0.3662
 8547SOL    HW138114   5.196   3.657   4.557 -1.5741 -0.7793  0.4464
 8547SOL    HW238115   5.147   3.613   4.706  0.6119 -3.2529  0.4678
 8548SOL     OW38116   6.414   6.743   7.223  0.6666 -0.1200 -0.3671
 8548SOL    HW138117   6.342   6.799   7.183  1.1292  1.5940  1.1139
 8548SOL    HW238118   6.470   6.704   7.150 -2.2296 -2.2041 -1.5729
 8549SOL     OW38119   8.538   3.440   2.744 -0.9809  0.3755  0.4127
 8549SOL    HW138120   8.443   3.412   2.760 -0.5668 -0.7563  0.9803
 8549SOL    HW238121   8.541   3.504   2.668 -2.1940  0.3528  0.3239
 8550SOL     OW38122   1.869   8.354   8.065 -0.6682 -0.4034 -0.4488
 8550SOL    HW138123   1.791   8.412   8.044  1.0312  2.1607 -0.0129
 8550SOL    HW238124   1.866   8.328   8.162 -1.3302 -0.8337 -0.5900
 8551SOL     OW38125   3.487   6.934   3.904  0.5098 -0.1052  0.2386
 8551SOL    HW138126   3.565   6.902   3.957 -0.5265 -2.6881  0.2746
 8551SOL    HW238127   3.482   6.884   3.818 -0.3025  1.0319 -0.3985
 8552SOL     OW38128   5.995   4.657   2.013 -0.0228  0.0895  0.1456
 8552SOL    HW138129   5.966   4.747   2.047 -0.7485 -0.2125  0.3195
 8552SOL    HW238130   5.921   4.592   2.023  1.3830 -1.2217  2.6045
 8553SOL     OW38131   7.245   5.403   2.141 -0.3059  0.7007  0.3586
 8553SOL    HW138132   7.227   5.501   2.145 -0.6882  0.6702 -0.5367
 8553SOL    HW238133   7.172   5.353   2.187 -0.6517  0.7819 -0.0986
 8554SOL     OW38134   6.012   3.887   8.423 -0.1576 -0.2718  0.0784
 8554SOL    HW138135   6.039   3.980   8.399  0.8537 -0.5582  0.0842
 8554SOL    HW238136   6.045   3.865   8.515 -0.5083 -0.5872  0.1306
 8555SOL     OW38137   8.451   4.470   8.225  0.7834 -0.2588 -0.5884
 8555SOL    HW138138   8.447   4.471   8.125  1.3673 -1.3443 -0.6373
 8555SOL    HW238139   8.448   4.375   8.257 -2.6480  0.1888  0.5767
 8556SOL     OW38140   1.780   3.309   0.002 -0.6995 -0.2736  0.5499
 8556SOL    HW138141   1.695   3.259  -0.015  0.1155 -0.9603 -1.7477
 8556SOL    HW238142   1.836   3.257   0.066 -2.2678  0.5087  2.6018
 8557SOL     OW38143   1.828   8.450   7.329 -0.2074  0.2657  0.1080
 8557SOL    HW138144   1.780   8.537   7.323 -0.7235  0.0234  0.6095
 8557SOL    HW238145   1.767   8.381   7.370 -1.2905 -1.4126 -4.0335
 8558SOL     OW38146   7.896   3.498   7.051  0.3909 -0.0077 -0.2978
 8558SOL    HW138147   7.871   3.404   7.075 -0.9179 -0.0560 -1.7445
 8558SOL    HW238148   7.826   3.560   7.087  1.7506  0.5078  1.4760
 8559SOL     OW38149   2.355   2.253   2.273  0.0625  0.6164  0.4040
 8559SOL    HW138150   2.324   2.247   2.368 -1.1570 -1.0180 -0.0800
 8559SOL    HW238151   2.351   2.163   2.231 -0.3471  1.4879 -1.4870
 8560SOL     OW38152   4.735   3.811   5.153 -0.1063 -0.4767 -0.4762
 8560SOL    HW138153   4.686   3.879   5.209  0.3570 -0.7603  0.2840
 8560SOL    HW238154   4.720   3.831   5.056 -0.3014  0.4757 -0.2591
 8561SOL     OW38155   6.520   6.097   6.719  0.5154  0.9172 -0.6590
 8561SOL    HW138156   6.461   6.173   6.744  2.3407  2.0320  0.3811
 8561SOL    HW238157   6.482   6.049   6.640 -1.7299  1.6259 -0.0352
 8562SOL     OW38158   2.861   1.789   2.675 -0.1468  0.9016  0.2604
 8562SOL    HW138159   2.859   1.814   2.579 -1.8607 -0.6224 -0.1364
 8562SOL    HW238160   2.948   1.743   2.696  0.2762  1.3390 -0.5128
 8563SOL     OW38161   7.280   1.079   1.145  0.5539 -0.0858 -0.5241
 8563SOL    HW138162   7.376   1.105   1.154  0.6389 -0.6066  0.0567
 8563SOL    HW238163   7.273   0.981   1.127  0.1425 -0.0124 -0.7657
 8564SOL     OW38164   2.756   3.579   1.798 -0.2787 -0.3615  0.0125
 8564SOL    HW138165   2.817   3.591   1.720 -0.6465  1.1728 -0.0415
 8564SOL    HW238166   2.757   3.483   1.826 -0.9261 -1.1570 -2.5368
 8565SOL     OW38167   6.528   3.459   8.880  0.5794 -0.0174  0.4712
 8565SOL    HW138168   6.619   3.499   8.865  0.2233  1.0802  1.2525
 8565SOL    HW238169   6.464   3.496   8.813  0.4327  0.1205  0.6865
 8566SOL     OW38170   1.916   7.332   7.617  0.5455 -0.1851 -0.5235
 8566SOL    HW138171   1.848   7.383   7.563  0.3856 -0.7168 -0.8236
 8566SOL    HW238172   1.883   7.323   7.711  0.0363 -0.7328 -0.7478
 8567SOL     OW38173   4.895   8.497   4.885 -0.5511 -0.3202 -0.0080
 8567SOL    HW138174   4.835   8.541   4.951 -0.0050  2.6435 -1.4081
 8567SOL    HW238175   4.984   8.480   4.927 -0.8501 -0.3472  0.6222
 8568SOL     OW38176   0.518   8.595   5.867  0.0986 -0.4482 -0.3988
 8568SOL    HW138177   0.450   8.571   5.797 -1.2769  0.3470  0.6219
 8568SOL    HW238178   0.488   8.678   5.915  1.7415 -0.1588  0.1700
 8569SOL     OW38179   2.454   3.407   4.308  0.4059  0.4441  0.1100
 8569SOL    HW138180   2.361   3.399   4.344  0.3868  0.9879  0.1889
 8569SOL    HW238181   2.459   3.485   4.245 -0.0586 -1.7068 -2.6626
 8570SOL     OW38182   8.644   2.009   5.166 -0.3057 -0.0437 -0.7560
 8570SOL    HW138183   8.709   1.992   5.091  0.0234 -0.5243 -0.3629
 8570SOL    HW238184   8.690   2.060   5.238  0.5677 -3.0473  0.9101
 8571SOL     OW38185   8.168   8.119   3.988  0.0533 -0.0630 -0.4938
 8571SOL    HW138186   8.164   8.118   4.088  1.5609 -0.6634 -0.4327
 8571SOL    HW238187   8.260   8.094   3.958 -0.6948 -0.9835 -2.0564
 8572SOL     OW38188   4.881   6.896   8.584 -0.1585 -0.5305 -0.1084
 8572SOL    HW138189   4.835   6.811   8.612  0.1940 -0.7545 -0.2074
 8572SOL    HW238190   4.935   6.932   8.659  1.0524 -1.3117 -0.5896
 8573SOL     OW38191   5.939   8.770   8.617  0.0101 -0.1834 -0.3394
 8573SOL    HW138192   5.840   8.779   8.629 -0.1430 -1.0987 -0.8418
 8573SOL    HW238193   5.971   8.690   8.670  0.5261  0.2774  0.0511
 8574SOL     OW38194   0.734   7.561   0.504  0.7984 -0.1631 -0.4426
 8574SOL    HW138195   0.670   7.518   0.567  1.2214 -0.7382 -0.4032
 8574SOL    HW238196   0.703   7.547   0.410 -0.3107  1.4604 -0.3398
 8575SOL     OW38197   4.433   6.045   7.067  0.6991  0.8453 -0.2849
 8575SOL    HW138198   4.417   6.143   7.054  0.8079  0.9258  0.2077
 8575SOL    HW238199   4.496   6.013   6.996  0.9164  1.1946 -0.2519
 8576SOL     OW38200   8.009   0.854   7.357 -0.1366  0.3855 -0.1267
 8576SOL    HW138201   8.061   0.791   7.416  0.9468  0.1111 -1.3447
 8576SOL    HW238202   7.918   0.816   7.341  0.9455 -1.6092 -1.9331
 8577SOL     OW38203   5.792   0.983   8.604  0.0727 -0.3303 -0.0483
 8577SOL    HW138204   5.810   0.955   8.698 -0.9970  1.7295  0.8184
 8577SOL    HW238205   5.708   0.941   8.571  0.1331 -0.5910  0.1377
 8578SOL     OW38206   7.949   2.519   6.954 -0.4788 -0.0969  0.5091
 8578SOL    HW138207   8.041   2.537   6.920 -0.8027 -1.7708 -1.3411
 8578SOL    HW238208   7.954   2.461   7.036  0.0936 -1.1298 -0.2406
 8579SOL     OW38209   3.126   0.079   6.516 -0.5407  0.0902 -0.5110
 8579SOL    HW138210   3.192   0.154   6.526 -0.7216  0.4304 -1.7695
 8579SOL    HW238211   3.110   0.036   6.605  0.3690  0.8645  0.0325
 8580SOL     OW38212   3.043   1.676   7.427  0.4297 -0.5806  0.9707
 8580SOL    HW138213   3.069   1.760   7.379 -3.1820 -0.2220 -0.5072
 8580SOL    HW238214   3.057   1.598   7.367 -1.7261 -0.3843  0.1614
 8581SOL     OW38215   0.953   3.302   3.575 -0.0948  0.4944  0.2010
 8581SOL    HW138216   0.860   3.275   3.600  0.5772 -0.7858  1.4029
 8581SOL    HW238217   0.951   3.359   3.493 -1.9301  0.4226  0.1883
 8582SOL     OW38218   3.864   6.385   4.979 -0.0544  0.0516 -0.2301
 8582SOL    HW138219   3.849   6.296   5.023 -1.3044  0.0471 -0.6653
 8582SOL    HW238220   3.892   6.372   4.884 -0.1985  0.1234 -0.2822
 8583SOL     OW38221   7.633   1.481   1.853  0.5831  0.3177  0.2259
 8583SOL    HW138222   7.707   1.542   1.882 -0.7804  2.2265 -0.2109
 8583SOL    HW238223   7.554   1.535   1.826 -0.7878 -1.6769  0.1223
 8584SOL     OW38224   1.847   0.897   5.437 -0.0683 -0.2063 -0.3050
 8584SOL    HW138225   1.857   0.967   5.365 -0.6431 -2.1050 -2.2947
 8584SOL    HW238226   1.936   0.854   5.454  0.5486  1.8156  1.8210
 8585SOL     OW38227   0.012   0.034   0.395 -0.3766 -0.3150 -0.1574
 8585SOL    HW138228  -0.018   0.036   0.491  0.2971  0.0548  0.0524
 8585SOL    HW238229   0.107   0.066   0.390 -0.6623  0.4107 -1.0447
 8586SOL     OW38230   4.402   2.847   8.349  0.3459 -0.4603 -0.9125
 8586SOL    HW138231   4.366   2.791   8.275 -0.6626  0.5831 -1.2081
 8586SOL    HW238232   4.392   2.798   8.436 -2.3561  0.0505 -0.8940
 8587SOL     OW38233   3.365   6.382   0.873 -0.2106  0.0159  0.3449
 8587SOL    HW138234   3.281   6.391   0.818 -1.0553 -1.8380  1.2885
 8587SOL    HW238235   3.344   6.404   0.968  0.9105  1.7569  0.1970
 8588SOL     OW38236   0.995   6.079   5.520 -0.3131  0.7623  0.1628
 8588SOL    HW138237   0.960   6.002   5.465 -0.5221  1.6229 -0.9315
 8588SOL    HW238238   1.031   6.044   5.606  1.0252 -0.7683 -0.9743
 8589SOL     OW38239   0.888   4.147   2.462 -0.3609  0.4398 -0.1731
 8589SOL    HW138240   0.862   4.171   2.368 -1.8016  2.8459  0.7829
 8589SOL    HW238241   0.810   4.107   2.509 -0.0628  0.5354  0.4065
 8590SOL     OW38242   5.889   6.659   8.061  0.2226  0.0697  0.5205
 8590SOL    HW138243   5.826   6.724   8.020 -0.8848 -0.6852  0.9867
 8590SOL    HW238244   5.908   6.685   8.155 -1.0258 -0.8139  1.0350
 8591SOL     OW38245   3.750   0.231   1.479 -0.3743 -0.4540  0.4757
 8591SOL    HW138246   3.827   0.279   1.522 -1.5688  1.9834 -0.0363
 8591SOL    HW238247   3.665   0.274   1.507 -1.4648 -1.9338 -0.4976
 8592SOL     OW38248   7.188   3.546   6.952 -0.0523 -0.0716 -0.1740
 8592SOL    HW138249   7.230   3.473   7.005 -1.5103 -1.1488 -0.4734
 8592SOL    HW238250   7.176   3.626   7.011 -0.3505 -0.7714  0.7340
 8593SOL     OW38251   8.724   8.236   6.105 -0.2235  0.0599  0.0786
 8593SOL    HW138252   8.646   8.251   6.044  0.4281 -0.3556 -0.8547
 8593SOL    HW238253   8.719   8.145   6.144  0.4925 -0.4544 -1.0065
 8594SOL     OW38254   2.821   8.887   0.667  0.4633 -0.2969 -0.2538
 8594SOL    HW138255   2.858   8.831   0.593  0.6401  2.1215 -2.0602
 8594SOL    HW238256   2.737   8.932   0.636  0.1387  0.1776  1.2811
 8595SOL     OW38257   8.044   0.731   0.205  0.1463 -0.0589 -0.0899
 8595SOL    HW138258   8.115   0.778   0.153 -1.2172  0.3357 -1.6268
 8595SOL    HW238259   8.023   0.783   0.288  0.5319  0.6572 -0.4370
 8596SOL     OW38260   1.482   8.641   5.979 -0.3512 -0.1831  0.2332
 8596SOL    HW138261   1.554   8.573   5.995  1.5454  1.3013 -1.6711
 8596SOL    HW238262   1.433   8.617   5.896  0.5520  0.9300 -0.6359
 8597SOL     OW38263   6.384   7.191   3.098  0.0837 -0.3222  0.5578
 8597SOL    HW138264   6.403   7.193   3.196 -1.1658 -1.0344  0.8221
 8597SOL    HW238265   6.405   7.281   3.058  0.7817 -0.0905  1.4291
 8598SOL     OW38266   1.744   0.468   1.035 -0.0753 -0.1865  0.0314
 8598SOL    HW138267   1.782   0.405   1.103  2.0790 -0.4510 -1.3950
 8598SOL    HW238268   1.732   0.421   0.948 -1.0773  0.6511 -0.3005
 8599SOL     OW38269   4.886   8.326   8.015  0.7383  0.2842 -0.5644
 8599SOL    HW138270   4.922   8.253   8.073 -1.0990  1.8356  2.6706
 8599SOL    HW238271   4.945   8.407   8.023  0.7964  0.3324 -1.3803
 8600SOL     OW38272   0.411   3.596   2.826  0.3728 -0.3001 -0.1202
 8600SOL    HW138273   0.376   3.572   2.916 -2.2380  2.4968 -0.3270
 8600SOL    HW238274   0.426   3.512   2.773  1.4173 -1.9437  2.6691
 8601SOL     OW38275   2.382   6.635   1.467 -0.2084  0.1130 -0.1088
 8601SOL    HW138276   2.406   6.554   1.413  0.0299  0.2333 -0.1834
 8601SOL    HW238277   2.465   6.676   1.504 -0.2274  0.9403 -0.9539
 8602SOL     OW38278   1.466   5.750   1.480 -0.6193 -0.2476  0.0301
 8602SOL    HW138279   1.505   5.795   1.399  0.0058 -0.9275 -0.0566
 8602SOL    HW238280   1.539   5.738   1.548 -0.7775 -1.1570  0.0358
 8603SOL     OW38281   7.903   6.252   4.116  0.3377  0.3366 -0.0556
 8603SOL    HW138282   7.929   6.293   4.204 -1.5489 -0.5581  0.9580
 8603SOL    HW238283   7.926   6.155   4.116 -1.2520 -0.0480  0.1382
 8604SOL     OW38284   2.493   8.446   1.042  0.6439  0.0430  0.4823
 8604SOL    HW138285   2.573   8.482   0.995  2.6903 -0.2720  3.5960
 8604SOL    HW238286   2.457   8.516   1.104 -1.4933  0.1637 -0.8463
 8605SOL     OW38287   7.153   6.192   4.482 -0.4001  0.6408  0.5274
 8605SOL    HW138288   7.169   6.240   4.568 -0.3503  0.7214  0.4725
 8605SOL    HW238289   7.136   6.258   4.409 -0.6014  0.5675  0.5072
 8606SOL     OW38290   3.638   1.402   4.425  0.1073  0.6146  0.2284
 8606SOL    HW138291   3.725   1.414   4.472 -0.3707  2.3519  0.7196
 8606SOL    HW238292   3.579   1.482   4.442 -0.5777  0.6913 -2.2030
 8607SOL     OW38293   1.110   6.926   5.324 -0.0845  0.1831 -0.2885
 8607SOL    HW138294   1.061   7.001   5.368 -0.9676  0.4153 -1.6433
 8607SOL    HW238295   1.196   6.960   5.285  0.1760  0.2017  0.3027
 8608SOL     OW38296   3.527   7.877   4.331 -0.6501 -0.1206 -0.0968
 8608SOL    HW138297   3.534   7.860   4.232  2.9084  2.0436 -0.2962
 8608SOL    HW238298   3.477   7.962   4.347  3.1036  2.2336 -0.3674
 8609SOL     OW38299   6.552   2.419   3.306 -0.1641  0.0980 -0.1046
 8609SOL    HW138300   6.454   2.406   3.290 -0.3009  0.4428  0.4725
 8609SOL    HW238301   6.596   2.329   3.316 -0.7538 -0.0190  1.6613
 8610SOL     OW38302   4.608   4.401   0.917 -0.2388  0.2128  0.0090
 8610SOL    HW138303   4.607   4.323   0.980 -1.6923 -0.4885 -0.8753
 8610SOL    HW238304   4.595   4.486   0.969  1.1634 -0.1249  0.9460
 8611SOL     OW38305   5.564   5.394   1.484  0.3520 -0.5016 -0.6778
 8611SOL    HW138306   5.553   5.488   1.454  0.0592 -0.7395 -1.3369
 8611SOL    HW238307   5.619   5.344   1.417  0.0275 -0.9406 -0.6176
 8612SOL     OW38308   3.691   6.365   8.632  0.1229  0.1284  0.1635
 8612SOL    HW138309   3.661   6.304   8.705 -1.2744  1.5184  0.7993
 8612SOL    HW238310   3.633   6.351   8.551  0.9595 -0.6378 -0.3095
 8613SOL     OW38311   1.507   3.809   2.060  0.7940 -0.3123  0.0939
 8613SOL    HW138312   1.478   3.744   1.991  1.1464 -0.3894  0.0181
 8613SOL    HW238313   1.443   3.886   2.063 -0.0186 -0.9937  0.6684
 8614SOL     OW38314   3.354   6.076   7.068 -0.1028 -0.0032 -0.0241
 8614SOL    HW138315   3.353   6.023   7.152 -1.3231  0.8360  0.5132
 8614SOL    HW238316   3.409   6.158   7.081  1.5129 -0.9546 -0.7487
 8615SOL     OW38317   2.527   7.307   4.707 -0.2192 -0.0632 -0.1552
 8615SOL    HW138318   2.532   7.258   4.620 -0.2058 -3.4519  1.6478
 8615SOL    HW238319   2.619   7.333   4.737 -0.1621  0.5005 -0.8141
 8616SOL     OW38320   8.160   5.878   5.198 -0.6532 -0.0293 -0.6481
 8616SOL    HW138321   8.244   5.928   5.221 -0.6286 -0.2482 -0.2564
 8616SOL    HW238322   8.183   5.796   5.146 -0.7852  0.9838 -2.3470
 8617SOL     OW38323   7.207   8.694   7.393  0.1849 -0.1980 -0.2394
 8617SOL    HW138324   7.183   8.739   7.479  1.8276 -1.4540  0.9392
 8617SOL    HW238325   7.187   8.596   7.400 -1.9003  0.0481 -2.1899
 8618SOL     OW38326   4.215   1.860   4.899 -0.8643  0.2990  0.3933
 8618SOL    HW138327   4.145   1.803   4.857  0.7594 -1.2732 -0.2784
 8618SOL    HW238328   4.287   1.879   4.832 -0.9454  2.4213  0.8768
 8619SOL     OW38329   8.845   3.629   6.700 -0.4126  0.1995 -0.0187
 8619SOL    HW138330   8.935   3.622   6.657  0.2394  1.4752  1.1343
 8619SOL    HW238331   8.780   3.670   6.635  0.0977  0.3428 -0.4420
 8620SOL     OW38332   8.520   8.034   6.550 -0.1371 -0.2227  0.7164
 8620SOL    HW138333   8.528   8.104   6.621 -0.6974  0.5803  0.0066
 8620SOL    HW238334   8.480   7.951   6.588 -2.1429  0.8226  0.9397
 8621SOL     OW38335   7.175   8.860   5.967 -0.0019 -0.6257 -0.4425
 8621SOL    HW138336   7.099   8.796   5.976 -0.1938 -0.3321  0.0609
 8621SOL    HW238337   7.177   8.896   5.874 -1.6707  0.8333  0.0523
 8622SOL     OW38338   8.917   3.411   2.434  0.4038  0.4924 -1.0063
 8622SOL    HW138339   8.821   3.423   2.411 -0.2725  0.1680  1.4746
 8622SOL    HW238340   8.954   3.498   2.469  0.6977  0.3285 -0.9079
 8623SOL     OW38341   8.992   4.552   0.664 -0.9664  0.3910  0.3485
 8623SOL    HW138342   9.077   4.503   0.644 -0.7026  0.9622  0.0552
 8623SOL    HW238343   8.952   4.585   0.578 -0.9726  0.9629  0.5656
 8624SOL     OW38344   6.476   0.310   7.689 -0.6552  0.0637 -0.2948
 8624SOL    HW138345   6.409   0.380   7.666 -1.5469 -0.1980  1.4860
 8624SOL    HW238346   6.532   0.341   7.766  0.2634 -0.3652 -0.7752
 8625SOL     OW38347   2.308   1.080   7.723  0.1543  0.2666  0.0622
 8625SOL    HW138348   2.238   1.010   7.733  0.4924  0.0447  0.9264
 8625SOL    HW238349   2.270   1.169   7.751 -0.0352  0.2940 -0.2788
 8626SOL     OW38350   0.422   5.512   8.661  0.5985 -0.2300 -0.1664
 8626SOL    HW138351   0.521   5.526   8.672  0.1466  2.2014  1.1294
 8626SOL    HW238352   0.376   5.600   8.653 -1.4302 -1.3556 -1.4824
 8627SOL     OW38353   0.103   4.422   1.525 -0.5969 -0.4544  0.0264
 8627SOL    HW138354   0.078   4.331   1.493  0.0927 -0.4850 -0.4263
 8627SOL    HW238355   0.185   4.454   1.477  0.8332 -0.7493  2.1618
 8628SOL     OW38356   3.540   2.489   3.832 -0.2862  0.2556  0.4560
 8628SOL    HW138357   3.471   2.430   3.873 -0.9263 -0.3713 -1.4780
 8628SOL    HW238358   3.517   2.505   3.736  1.6449  0.9728  0.1021
 8629SOL     OW38359   6.089   7.746   8.048 -0.4800 -0.1845 -0.6079
 8629SOL    HW138360   6.182   7.778   8.028 -1.4303  1.5229 -2.4757
 8629SOL    HW238361   6.069   7.666   7.991 -0.9548  0.8694 -1.9571
 8630SOL     OW38362   3.178   7.381   6.731 -0.1032  0.2394  0.3335
 8630SOL    HW138363   3.271   7.409   6.755 -0.4227  0.8119  0.8958
 8630SOL    HW238364   3.145   7.314   6.798 -0.3049  0.4577  0.4533
 8631SOL     OW38365   5.310   0.094   4.747 -0.3291  0.0615 -0.0360
 8631SOL    HW138366   5.258   0.125   4.668  0.9656  0.0474 -0.8903
 8631SOL    HW238367   5.383   0.159   4.768  1.9803 -2.0148 -1.4399
 8632SOL     OW38368   5.262   6.027   6.737  0.1129 -0.1828  0.0994
 8632SOL    HW138369   5.317   6.094   6.786  1.6802 -0.6469 -0.9913
 8632SOL    HW238370   5.237   6.063   6.647 -1.5315  0.0905  0.6375
 8633SOL     OW38371   8.229   5.415   1.130  0.0408 -0.1733 -0.6013
 8633SOL    HW138372   8.147   5.472   1.119  0.4458  0.1570 -2.0271
 8633SOL    HW238373   8.201   5.322   1.155 -0.6665  0.4033  0.8422
 8634SOL     OW38374   7.807   4.093   1.908  0.0939  0.4486  0.3665
 8634SOL    HW138375   7.763   4.035   1.977 -2.0635  0.9167 -0.5682
 8634SOL    HW238376   7.903   4.067   1.898 -0.0015 -0.7453  2.3253
 8635SOL     OW38377   0.753   1.278   5.005 -0.5830  0.1659 -0.2466
 8635SOL    HW138378   0.824   1.331   5.052 -0.1531 -1.9455  1.5813
 8635SOL    HW238379   0.663   1.307   5.038 -0.3345 -0.4643  0.9996
 8636SOL     OW38380   1.385   5.219   1.574  0.1659 -0.5771  0.3953
 8636SOL    HW138381   1.309   5.280   1.597 -0.2897 -1.8106  2.1728
 8636SOL    HW238382   1.355   5.153   1.505  0.2929  0.3671 -0.5796
 8637SOL     OW38383   1.874   1.334   5.065  0.1822 -0.1945  0.0373
 8637SOL    HW138384   1.886   1.241   5.031 -2.0137  0.0602 -1.5724
 8637SOL    HW238385   1.955   1.388   5.043 -0.6779 -0.3651 -3.8076
 8638SOL     OW38386   4.037   2.101   1.406 -0.4640  0.3907 -0.0862
 8638SOL    HW138387   3.953   2.151   1.426 -0.3578  0.9702 -1.0871
 8638SOL    HW238388   4.098   2.159   1.351 -0.1625 -0.6867 -0.8928
 8639SOL     OW38389   5.866   5.276   7.763 -0.3233  0.1081  0.0529
 8639SOL    HW138390   5.822   5.297   7.851 -0.5269 -0.4089  0.0785
 8639SOL    HW238391   5.861   5.178   7.747  0.0132  0.1636 -0.3829
 8640SOL     OW38392   2.808   3.069   8.202  0.1039 -0.1029  0.1002
 8640SOL    HW138393   2.862   3.115   8.132  0.2666  0.3991  0.5469
 8640SOL    HW238394   2.789   2.976   8.174  0.3856  0.0183 -0.4961
 8641SOL     OW38395   1.195   2.076   7.357 -0.3867 -0.1051  0.4310
 8641SOL    HW138396   1.257   2.144   7.396 -0.0368  0.2760 -0.7901
 8641SOL    HW238397   1.247   1.994   7.332 -0.7602 -0.7156  1.6156
 8642SOL     OW38398   0.244   6.649   1.715  0.2938  0.3213 -0.1952
 8642SOL    HW138399   0.234   6.749   1.723  0.3325  0.2821  0.3278
 8642SOL    HW238400   0.329   6.620   1.759  0.9260  0.2109 -1.4739
 8643SOL     OW38401   0.465   0.819   3.472  0.7539  0.1622  0.5763
 8643SOL    HW138402   0.426   0.883   3.539  2.8111  2.5668 -0.4154
 8643SOL    HW238403   0.534   0.763   3.517  0.7177  0.3961  0.9315
 8644SOL     OW38404   4.341   5.467   8.805 -0.3803 -0.5131  0.1308
 8644SOL    HW138405   4.413   5.430   8.863  0.1051 -0.4771 -0.4507
 8644SOL    HW238406   4.327   5.563   8.826  0.2916 -0.3156 -0.3057
 8645SOL     OW38407   1.688   0.491   6.504  0.5448  0.2462 -0.4640
 8645SOL    HW138408   1.617   0.466   6.437  0.3192 -0.0943 -0.1011
 8645SOL    HW238409   1.663   0.575   6.550  0.2331 -0.0283 -0.1300
 8646SOL     OW38410   6.457   4.574   7.731 -0.1754 -0.6277 -0.3170
 8646SOL    HW138411   6.520   4.651   7.739 -1.3592  0.0804  2.6985
 8646SOL    HW238412   6.457   4.540   7.637  2.9070  0.8648 -0.8873
 8647SOL     OW38413   4.405   0.137   8.600  0.0886  0.0848 -0.0607
 8647SOL    HW138414   4.397   0.222   8.652 -0.0766 -1.0500  1.8507
 8647SOL    HW238415   4.363   0.063   8.653  2.2975 -1.6053 -0.6351
 8648SOL     OW38416   8.380   7.408   1.560 -0.1285  0.0930 -0.3438
 8648SOL    HW138417   8.408   7.355   1.480 -0.1852 -0.0388 -0.2761
 8648SOL    HW238418   8.433   7.379   1.640 -1.0494 -0.7555 -0.0280
 8649SOL     OW38419   2.261   3.540   6.658 -0.1063  0.7232  0.0219
 8649SOL    HW138420   2.189   3.483   6.699 -0.7780  3.0382  2.1935
 8649SOL    HW238421   2.222   3.597   6.586 -0.0752  0.5978 -0.0922
 8650SOL     OW38422   1.211   0.938   1.102 -0.1405 -0.4527  0.1920
 8650SOL    HW138423   1.158   0.932   1.018  1.6603 -0.0643 -1.0127
 8650SOL    HW238424   1.280   1.011   1.093 -1.2907  1.0199  2.7940
 8651SOL     OW38425   8.766   5.885   8.029 -0.1159  0.5370  0.6063
 8651SOL    HW138426   8.715   5.952   8.083  0.5907  0.1228  1.8022
 8651SOL    HW238427   8.721   5.796   8.035 -2.5386  1.3970 -3.0765
 8652SOL     OW38428   3.538   7.093   7.528  0.4512  0.1997  0.6005
 8652SOL    HW138429   3.471   7.163   7.552 -0.1547  0.1271 -0.8275
 8652SOL    HW238430   3.626   7.115   7.571  0.6230  2.5536 -0.8589
 8653SOL     OW38431   4.373   4.419   7.516  0.5693 -0.0731 -0.2680
 8653SOL    HW138432   4.276   4.409   7.492 -0.7012  2.9135  3.0860
 8653SOL    HW238433   4.414   4.328   7.526 -1.3522 -1.3825 -3.5308
 8654SOL     OW38434   4.304   5.189   7.505  0.3266  0.5543  0.5152
 8654SOL    HW138435   4.349   5.180   7.594  0.8712 -2.3759 -0.0073
 8654SOL    HW238436   4.373   5.202   7.434  0.0426  0.5332  0.2378
 8655SOL     OW38437   1.183   5.127   0.673 -0.2328 -0.2835 -0.0412
 8655SOL    HW138438   1.242   5.050   0.700 -1.4920 -0.6331  1.8328
 8655SOL    HW238439   1.239   5.207   0.654  1.1426 -1.7634 -2.4374
 8656SOL     OW38440   3.195   3.911   8.759  0.3776 -0.4927  0.6381
 8656SOL    HW138441   3.290   3.901   8.790  0.0367 -0.1856  1.8111
 8656SOL    HW238442   3.169   4.007   8.761  0.4023 -0.4540 -0.7922
 8657SOL     OW38443   2.004   1.873   2.087  0.2548  0.3441 -0.5229
 8657SOL    HW138444   2.033   1.939   2.018 -0.2168  0.7185 -0.3673
 8657SOL    HW238445   1.923   1.908   2.135 -1.5222 -1.4282 -2.1296
 8658SOL     OW38446   2.729   1.195   3.240 -0.5344 -0.3925  0.0653
 8658SOL    HW138447   2.778   1.246   3.311 -0.2446 -1.4359  0.6114
 8658SOL    HW238448   2.786   1.189   3.159 -0.0597 -0.9623  0.4435
 8659SOL     OW38449   4.107   4.070   5.605 -0.7753  0.4185 -0.6569
 8659SOL    HW138450   4.195   4.027   5.587 -0.8295  0.2388 -0.4988
 8659SOL    HW238451   4.067   4.031   5.689 -0.8869  0.6792 -0.5881
 8660SOL     OW38452   0.094   5.971   3.062  0.4350  0.2515  0.1139
 8660SOL    HW138453   0.128   6.049   3.009  2.5059 -0.8154 -0.1818
 8660SOL    HW238454   0.072   5.896   3.000  2.6342 -0.9147  0.6708
 8661SOL     OW38455   3.673   0.728   0.469 -0.0456 -0.0256  0.0773
 8661SOL    HW138456   3.682   0.828   0.473  1.3941 -0.1646  0.8648
 8661SOL    HW238457   3.586   0.701   0.510 -1.4878  1.0400 -2.1942
 8662SOL     OW38458   5.150   0.446   8.819  0.2657  0.2307 -0.1303
 8662SOL    HW138459   5.061   0.488   8.807 -1.2996 -3.1060 -0.7895
 8662SOL    HW238460   5.175   0.447   8.916 -1.5428 -0.7541  0.3771
 8663SOL     OW38461   1.114   2.179   3.606  0.1825  0.0166 -0.1457
 8663SOL    HW138462   1.051   2.255   3.593 -0.0494 -0.6669 -3.4670
 8663SOL    HW238463   1.200   2.212   3.644 -1.4753  1.2264  2.6982
 8664SOL     OW38464   8.522   5.059   1.615  0.4347  0.2970 -0.0541
 8664SOL    HW138465   8.618   5.057   1.585  1.1523 -3.0689  2.2250
 8664SOL    HW238466   8.519   5.072   1.714 -1.4249 -0.8051  0.0485
 8665SOL     OW38467   2.521   0.157   7.851 -0.1254 -0.8781 -0.0355
 8665SOL    HW138468   2.510   0.256   7.840  0.1569 -0.8536 -0.1130
 8665SOL    HW238469   2.515   0.113   7.761  0.0223 -0.9039 -0.0327
 8666SOL     OW38470   2.240   4.942   6.069 -0.0327 -0.0195  0.2045
 8666SOL    HW138471   2.204   4.860   6.026  0.2699  0.7163 -1.4618
 8666SOL    HW238472   2.313   4.916   6.133 -1.8862 -1.2894  1.8675
 8667SOL     OW38473   8.716   1.309   0.360 -0.0777  0.2242  0.4813
 8667SOL    HW138474   8.620   1.282   0.365 -0.0287  0.1655  1.1975
 8667SOL    HW238475   8.774   1.233   0.388  0.1246  0.6018  1.1163
 8668SOL     OW38476   2.536   5.540   8.382 -0.4752  0.1717 -0.2751
 8668SOL    HW138477   2.559   5.502   8.472  0.1568 -1.1656 -0.9813
 8668SOL    HW238478   2.490   5.470   8.327  0.0045  0.6695 -1.3246
 8669SOL     OW38479   6.173   8.169   5.043  0.2906  0.2613  0.0954
 8669SOL    HW138480   6.271   8.189   5.034  0.2569  0.8749  1.0069
 8669SOL    HW238481   6.158   8.071   5.032  0.9322  0.2391 -0.6491
 8670SOL     OW38482   3.080   2.478   6.968 -0.4185 -0.3678  0.0868
 8670SOL    HW138483   3.064   2.460   6.871  1.0182 -1.4522  0.0406
 8670SOL    HW238484   2.995   2.463   7.019 -0.7966 -1.2794 -0.7932
 8671SOL     OW38485   0.837   1.494   3.394  0.3188 -0.4666 -0.3211
 8671SOL    HW138486   0.829   1.395   3.411 -1.4534 -0.1895  0.6108
 8671SOL    HW238487   0.883   1.538   3.471 -2.6609 -0.0086  1.2806
 8672SOL     OW38488   3.724   3.757   4.948  0.3662 -0.3039  0.3415
 8672SOL    HW138489   3.814   3.744   4.989  0.7946  0.8214 -0.2368
 8672SOL    HW238490   3.658   3.696   4.993  0.9463  0.4578  2.3040
 8673SOL     OW38491   3.752   6.079   0.665 -0.4993 -0.7576  0.1536
 8673SOL    HW138492   3.747   6.085   0.764 -0.1623 -0.2798  0.1400
 8673SOL    HW238493   3.825   6.016   0.639  0.6183  0.5137  0.1826
 8674SOL     OW38494   4.259   0.362   3.322  0.3064 -0.1622  0.0462
 8674SOL    HW138495   4.295   0.350   3.229 -0.4889  2.1150 -0.5786
 8674SOL    HW238496   4.284   0.452   3.357  0.2043 -0.8196  1.8893
 8675SOL     OW38497   2.662   1.706   7.160 -0.1517  0.0488  0.0958
 8675SOL    HW138498   2.591   1.635   7.161 -0.6014  0.4753  2.3669
 8675SOL    HW238499   2.645   1.770   7.235  0.3907  2.4358 -1.7621
 8676SOL     OW38500   7.969   2.247   2.650  0.7879 -0.2086  0.0515
 8676SOL    HW138501   7.941   2.334   2.691 -1.1392 -0.9393  0.3429
 8676SOL    HW238502   8.055   2.260   2.601 -0.0621  2.1245 -0.8964
 8677SOL     OW38503   7.724   3.941   3.239 -0.1497  0.2807  0.1529
 8677SOL    HW138504   7.721   3.994   3.154  3.0842 -0.1997 -0.3309
 8677SOL    HW238505   7.675   3.990   3.310  0.0544  2.3998 -1.1186
 8678SOL     OW38506   0.867   3.146   6.351  0.0287  0.6245 -0.1014
 8678SOL    HW138507   0.896   3.056   6.319  0.3175  0.7447 -0.1803
 8678SOL    HW238508   0.795   3.136   6.419  1.9373  0.2367  1.9124
 8679SOL     OW38509   2.234   8.482   2.038  0.1510  0.2995  0.6043
 8679SOL    HW138510   2.160   8.517   1.980 -0.5068  0.9638  1.8007
 8679SOL    HW238511   2.314   8.462   1.982 -0.6816  0.3072 -0.6141
 8680SOL     OW38512   5.040   5.106   5.183 -0.1645 -0.1152  0.0857
 8680SOL    HW138513   5.065   5.027   5.238 -0.5639  0.2380  0.7763
 8680SOL    HW238514   5.050   5.084   5.086 -1.2379 -1.3190  0.2439
 8681SOL     OW38515   5.707   0.783   7.722 -0.6413 -0.4542 -0.1057
 8681SOL    HW138516   5.725   0.697   7.674  0.8626  0.6124 -1.4816
 8681SOL    HW238517   5.711   0.859   7.657 -2.8413  0.5848  0.9307
 8682SOL     OW38518   3.697   6.883   7.749  0.3396 -0.4336  0.1608
 8682SOL    HW138519   3.639   6.948   7.798  2.1198  0.7091  0.8073
 8682SOL    HW238520   3.647   6.798   7.733 -1.6355  0.6859  0.3107
 8683SOL     OW38521   2.298   4.488   2.023 -0.2433 -0.1856 -0.0814
 8683SOL    HW138522   2.298   4.464   1.925 -0.1379  1.7361 -0.5711
 8683SOL    HW238523   2.382   4.539   2.044 -1.8393  2.3586  0.2542
 8684SOL     OW38524   8.720   4.379   0.167 -0.0944 -0.2057  0.2636
 8684SOL    HW138525   8.794   4.409   0.106 -0.3362  0.6857  0.3974
 8684SOL    HW238526   8.720   4.279   0.174  0.4499 -0.2640 -0.5489
 8685SOL     OW38527   4.439   0.416   2.189  0.3002 -0.3055 -0.2046
 8685SOL    HW138528   4.390   0.336   2.155  0.1465 -0.6107  0.7331
 8685SOL    HW238529   4.373   0.486   2.218  0.4209 -0.5407  0.6400
 8686SOL     OW38530   8.074   8.968   0.610 -0.0290  0.0635 -0.0390
 8686SOL    HW138531   8.156   8.925   0.649  0.4300  0.2472 -0.7866
 8686SOL    HW238532   8.050   8.921   0.525 -0.6677  0.0555  0.1426
 8687SOL     OW38533   7.399   3.752   2.736 -0.8559 -0.8708 -0.0887
 8687SOL    HW138534   7.394   3.758   2.836  0.5052 -1.2954  0.0084
 8687SOL    HW238535   7.397   3.656   2.708 -0.0513 -0.7937 -0.4082
 8688SOL     OW38536   8.852   4.190   2.823  0.0098  0.0168 -0.1549
 8688SOL    HW138537   8.787   4.259   2.791 -0.8445 -1.1088 -0.8624
 8688SOL    HW238538   8.892   4.143   2.745  0.0588 -0.7889  0.3519
 8689SOL     OW38539   4.471   6.306   5.460  0.4112 -0.0221  0.3016
 8689SOL    HW138540   4.536   6.381   5.469  0.5551  0.0609 -1.3286
 8689SOL    HW238541   4.519   6.220   5.446  0.1900  0.0477 -0.9651
 8690SOL     OW38542   2.389   3.579   2.553  0.8212  0.1778  0.1250
 8690SOL    HW138543   2.459   3.602   2.620  0.3913 -1.1631  1.0293
 8690SOL    HW238544   2.377   3.480   2.548 -1.2869  0.3959  0.2768
 8691SOL     OW38545   0.618   1.653   3.300 -0.0271 -0.0081 -0.2284
 8691SOL    HW138546   0.675   1.714   3.244  0.8084 -0.6053 -0.0436
 8691SOL    HW238547   0.667   1.567   3.315  0.1132  0.4833  2.1765
 8692SOL     OW38548   6.293   8.094   8.483  0.3452  0.3434  0.3505
 8692SOL    HW138549   6.350   8.023   8.524  0.2212 -1.6253 -2.7350
 8692SOL    HW238550   6.202   8.057   8.463 -1.1726  2.6801  2.7337
 8693SOL     OW38551   5.106   3.198   5.214 -0.3447  0.4755 -0.3374
 8693SOL    HW138552   5.028   3.239   5.262 -0.4937  1.5539 -1.4658
 8693SOL    HW238553   5.139   3.262   5.145  0.1460 -0.8836 -1.3713
 8694SOL     OW38554   5.385   0.928   4.569 -0.0303  0.2683  0.4044
 8694SOL    HW138555   5.462   0.912   4.630 -0.4504 -2.0589  0.3443
 8694SOL    HW238556   5.303   0.948   4.622  0.9255  4.7335  0.4631
 8695SOL     OW38557   5.794   8.836   4.622  0.3314  0.0238  0.0387
 8695SOL    HW138558   5.883   8.825   4.577  0.5521  0.0897  0.4573
 8695SOL    HW238559   5.801   8.809   4.718  0.1349  0.9314  0.3154
 8696SOL     OW38560   1.815   4.577   8.526 -0.1853  0.3018 -0.2573
 8696SOL    HW138561   1.814   4.525   8.611 -1.7994 -0.4372 -0.7154
 8696SOL    HW238562   1.766   4.664   8.539 -2.3965 -0.7810 -0.9935
 8697SOL     OW38563   8.949   1.683   7.884 -0.4861  0.2353 -0.0661
 8697SOL    HW138564   8.918   1.681   7.979 -1.6337 -1.2687 -0.4428
 8697SOL    HW238565   9.022   1.615   7.872 -0.3122  0.4559 -0.2458
 8698SOL     OW38566   5.619   3.911   7.612  0.3520  0.6586 -0.0236
 8698SOL    HW138567   5.596   4.006   7.589 -1.6846 -0.3817 -2.6616
 8698SOL    HW238568   5.577   3.886   7.699 -1.6310  1.3383 -0.7503
 8699SOL     OW38569   8.842   7.623   1.721 -0.4171 -0.5200  0.2423
 8699SOL    HW138570   8.812   7.584   1.808 -1.9700 -0.1671 -0.1165
 8699SOL    HW238571   8.939   7.602   1.707 -0.1312 -0.5421  2.0688
 8700SOL     OW38572   7.370   3.805   4.622  0.0631  0.3780 -0.2569
 8700SOL    HW138573   7.385   3.876   4.554  0.9334  1.6585  1.2318
 8700SOL    HW238574   7.447   3.804   4.686 -0.7752 -0.7520  0.7419
 8701SOL     OW38575   2.757   3.033   3.097 -0.4704 -0.8345 -0.3484
 8701SOL    HW138576   2.825   3.078   3.154 -0.9925  0.1592 -0.5010
 8701SOL    HW238577   2.770   2.934   3.101  1.2699 -0.6315 -0.7410
 8702SOL     OW38578   3.638   8.872   7.137 -0.1902  0.3746  0.2945
 8702SOL    HW138579   3.589   8.787   7.155 -0.1273 -0.0779 -1.5724
 8702SOL    HW238580   3.665   8.914   7.224 -0.3451 -1.4264  1.2309
 8703SOL     OW38581   2.297   2.957   5.067  0.0055 -0.1039  0.5696
 8703SOL    HW138582   2.235   3.007   5.007  1.0328  0.5233  0.0190
 8703SOL    HW238583   2.309   3.007   5.153 -1.4874 -1.0155  1.3318
 8704SOL     OW38584   4.732   7.265   2.869  0.0830 -0.4883 -0.1059
 8704SOL    HW138585   4.790   7.283   2.790  1.1829  0.5956  0.9195
 8704SOL    HW238586   4.788   7.265   2.952 -1.6668  2.7748  1.1646
 8705SOL     OW38587   0.635   0.093   0.188  0.0465  0.2573 -0.1789
 8705SOL    HW138588   0.591   0.117   0.102  0.0565  1.2516  0.0921
 8705SOL    HW238589   0.613  -0.002   0.211 -0.3638  0.1456 -1.0199
 8706SOL     OW38590   4.757   6.220   8.855 -0.1413  0.0296 -0.1066
 8706SOL    HW138591   4.854   6.239   8.873 -0.4177  0.3626  1.1105
 8706SOL    HW238592   4.702   6.252   8.933 -1.2605  0.1216 -0.9190
 8707SOL     OW38593   3.236   5.363   3.291  0.1127  0.2110  0.0835
 8707SOL    HW138594   3.230   5.415   3.206 -1.3681  1.4829  0.9454
 8707SOL    HW238595   3.157   5.302   3.299  0.7546 -0.6368  0.0914
 8708SOL     OW38596   1.170   2.628   0.047 -0.7381  0.3314  0.5889
 8708SOL    HW138597   1.269   2.638   0.038 -0.6788 -0.9161 -0.2026
 8708SOL    HW238598   1.133   2.705   0.100  0.5667  1.1313  0.3443
 8709SOL     OW38599   5.679   5.027   6.145 -0.4431  0.2485 -0.2882
 8709SOL    HW138600   5.618   4.948   6.156 -0.2200  0.4443  2.7467
 8709SOL    HW238601   5.626   5.108   6.122 -1.0195 -0.1094 -0.2225
 8710SOL     OW38602   5.662   2.375   8.813  0.0335  0.0127  0.1786
 8710SOL    HW138603   5.731   2.338   8.751  0.6134  1.4005 -0.0235
 8710SOL    HW238604   5.707   2.412   8.894 -0.7592 -2.1788  1.6277
 8711SOL     OW38605   8.557   6.769   3.608 -0.2902 -0.1695  0.2857
 8711SOL    HW138606   8.600   6.741   3.522 -0.2081 -0.3251  0.3773
 8711SOL    HW238607   8.581   6.864   3.628  1.5097 -0.8112  1.2698
 8712SOL     OW38608   4.701   2.580   6.312  0.1681 -0.5455  0.0978
 8712SOL    HW138609   4.685   2.642   6.235  1.2051 -0.6677 -0.2290
 8712SOL    HW238610   4.661   2.491   6.293 -0.8710 -0.1323  0.3424
 8713SOL     OW38611   1.390   2.564   3.131  0.5375  0.1939 -0.0143
 8713SOL    HW138612   1.368   2.649   3.180  0.5129 -0.9383  1.9968
 8713SOL    HW238613   1.365   2.574   3.035 -1.0491  1.8630  0.5347
 8714SOL     OW38614   2.841   3.958   1.861 -0.5511 -0.3280 -0.0307
 8714SOL    HW138615   2.873   3.987   1.770 -2.1512 -1.5857 -1.0234
 8714SOL    HW238616   2.770   3.888   1.850 -0.4155 -0.8351  2.2160
 8715SOL     OW38617   4.666   6.807   0.502 -0.3062 -0.1128 -0.0912
 8715SOL    HW138618   4.611   6.855   0.434 -0.1239 -0.1965 -0.3007
 8715SOL    HW238619   4.671   6.861   0.586 -0.5881 -0.0395 -0.1215
 8716SOL     OW38620   7.667   5.087   2.317  0.3401 -0.2795 -0.9006
 8716SOL    HW138621   7.751   5.110   2.268  0.4399 -1.7694 -1.4708
 8716SOL    HW238622   7.674   4.994   2.354 -0.4325  0.1778  0.4217
 8717SOL     OW38623   5.008   1.094   4.698  0.2080 -0.7331 -0.1557
 8717SOL    HW138624   5.063   1.031   4.752 -0.3118  0.4234  1.7518
 8717SOL    HW238625   4.915   1.056   4.687 -0.6874  0.5348  2.6383
 8718SOL     OW38626   3.571   1.628   5.674 -0.1323 -0.1719 -0.4351
 8718SOL    HW138627   3.570   1.664   5.768  0.8755 -1.9736  0.2912
 8718SOL    HW238628   3.492   1.569   5.660  1.3730 -2.4201  0.3235
 8719SOL     OW38629   1.466   6.405   0.364  0.1034 -0.3343  0.2914
 8719SOL    HW138630   1.381   6.386   0.412 -0.6282 -2.0381 -1.5927
 8719SOL    HW238631   1.457   6.491   0.312 -0.8042 -0.9847 -0.6381
 8720SOL     OW38632   0.447   7.747   6.763 -0.1564 -0.4806 -0.1298
 8720SOL    HW138633   0.377   7.779   6.827 -0.5981 -2.0709  0.1934
 8720SOL    HW238634   0.442   7.801   6.678  1.0007  2.2212  1.4474
 8721SOL     OW38635   8.573   4.755   1.533  0.5457 -0.0853  0.1823
 8721SOL    HW138636   8.649   4.742   1.596  0.1958 -1.2928  0.3651
 8721SOL    HW238637   8.490   4.779   1.584  0.9447  1.9575 -0.0705
 8722SOL     OW38638   8.592   6.018   1.069 -0.5817  0.0293 -0.3067
 8722SOL    HW138639   8.549   5.942   1.021  0.4683 -0.9361  0.2568
 8722SOL    HW238640   8.568   6.015   1.166 -0.7080  0.5485 -0.3192
 8723SOL     OW38641   3.460   2.156   5.524  0.7305 -0.0257  0.1543
 8723SOL    HW138642   3.534   2.088   5.524 -0.2700 -1.1740 -1.3040
 8723SOL    HW238643   3.431   2.175   5.618  1.8465 -0.7136  0.6446
 8724SOL     OW38644   0.005   1.619   8.279  0.3012 -0.1140 -0.1213
 8724SOL    HW138645  -0.027   1.642   8.371  1.1750  1.9600 -0.3048
 8724SOL    HW238646  -0.060   1.558   8.235 -1.7311  1.3949  0.7105
 8725SOL     OW38647   0.218   6.061   4.418 -0.3222 -0.1749  0.2968
 8725SOL    HW138648   0.223   6.048   4.517  0.3204 -1.1060  0.1510
 8725SOL    HW238649   0.297   6.114   4.387 -0.4438 -0.0130  0.2632
 8726SOL     OW38650   2.752   7.671   8.137  0.2790 -0.1268  0.0241
 8726SOL    HW138651   2.686   7.604   8.104 -1.6077  2.3906 -1.4491
 8726SOL    HW238652   2.822   7.687   8.067  0.3404 -0.0395  0.1034
 8727SOL     OW38653   2.580   2.648   0.744 -0.1534 -0.5601  0.2562
 8727SOL    HW138654   2.619   2.556   0.755  0.3743 -0.3497  0.1762
 8727SOL    HW238655   2.484   2.640   0.719 -0.2967 -1.0852  0.9594
 8728SOL     OW38656   8.216   4.787   8.458 -0.2145  0.1594 -0.3781
 8728SOL    HW138657   8.247   4.848   8.532 -0.3399 -0.2720  0.0323
 8728SOL    HW238658   8.142   4.831   8.408  1.9188  1.8125 -2.2437
 8729SOL     OW38659   2.043   4.050   4.288  0.4965  0.0118 -0.2328
 8729SOL    HW138660   1.978   4.114   4.329  2.4968  0.6608  2.0688
 8729SOL    HW238661   2.054   3.970   4.347 -0.1943 -1.3654 -1.9180
 8730SOL     OW38662   6.473   1.995   7.722 -0.1689 -0.0484 -0.0681
 8730SOL    HW138663   6.436   1.933   7.790 -0.7540  0.0190 -0.3232
 8730SOL    HW238664   6.449   1.962   7.630 -1.3144  1.0667 -0.1810
 8731SOL     OW38665   4.594   3.797   6.014  0.0716 -0.7752 -0.2095
 8731SOL    HW138666   4.687   3.769   6.038  0.4098  0.4556 -0.0308
 8731SOL    HW238667   4.537   3.797   6.096  0.6054  1.0342  0.2033
 8732SOL     OW38668   2.563   4.625   2.019  0.5564  0.0175 -0.3768
 8732SOL    HW138669   2.579   4.542   1.966 -1.8719 -2.3547  2.3525
 8732SOL    HW238670   2.573   4.604   2.117 -0.8093  2.7700  0.4139
 8733SOL     OW38671   1.409   6.496   8.107  0.5144 -0.1012  0.0637
 8733SOL    HW138672   1.501   6.465   8.082  0.5797 -0.2620  0.4958
 8733SOL    HW238673   1.371   6.551   8.033  0.4485 -1.0975 -0.6516
 8734SOL     OW38674   3.897   5.512   3.120 -0.2024  0.4876 -0.3835
 8734SOL    HW138675   3.877   5.602   3.161  2.2450  0.8969  0.0190
 8734SOL    HW238676   3.987   5.515   3.077 -0.4970 -1.5270 -1.1743
 8735SOL     OW38677   8.537   4.213   3.659  0.0541 -0.2466 -1.1015
 8735SOL    HW138678   8.461   4.269   3.627 -0.8401 -0.6761  0.2226
 8735SOL    HW238679   8.620   4.268   3.662 -0.6140  0.7442 -0.7130
 8736SOL     OW38680   3.964   2.787   8.554  0.1191  0.2409  0.1103
 8736SOL    HW138681   3.993   2.861   8.494 -0.1972  0.7153  0.5490
 8736SOL    HW238682   3.931   2.824   8.640 -0.9170 -0.3539 -0.0192
 8737SOL     OW38683   1.247   6.441   5.265 -0.9314 -0.0746 -0.2685
 8737SOL    HW138684   1.231   6.537   5.288  0.9088  0.0526  0.5441
 8737SOL    HW238685   1.306   6.436   5.184 -2.3768 -0.5341 -1.3151
 8738SOL     OW38686   6.968   8.900   0.860 -0.1557 -0.2963 -0.0449
 8738SOL    HW138687   7.014   8.815   0.835 -0.8842 -0.5715 -0.4736
 8738SOL    HW238688   7.031   8.977   0.844  0.1506 -0.6626 -0.6481
 8739SOL     OW38689   7.303   3.156   3.029  0.5295 -0.3249 -0.6794
 8739SOL    HW138690   7.246   3.135   3.108  0.6224 -0.4058 -0.6333
 8739SOL    HW238691   7.372   3.223   3.054 -0.0232  0.3485 -0.9322
 8740SOL     OW38692   0.946   0.146   4.775  0.1898 -0.0812  0.2837
 8740SOL    HW138693   0.907   0.232   4.810  0.1960  0.3405 -0.7170
 8740SOL    HW238694   1.035   0.130   4.817  1.1825  1.5455 -1.1617
 8741SOL     OW38695   8.935   4.232   0.947 -0.7805  0.6384  0.3387
 8741SOL    HW138696   8.894   4.268   0.863 -0.8460 -0.4071 -0.0855
 8741SOL    HW238697   8.910   4.291   1.024 -0.2516  1.9166 -0.4626
 8742SOL     OW38698   1.601   4.204   3.310 -0.6136 -0.0428 -0.7528
 8742SOL    HW138699   1.569   4.271   3.243 -2.2611  0.0308  0.0965
 8742SOL    HW238700   1.667   4.142   3.266 -2.1713 -0.4064 -2.6228
 8743SOL     OW38701   8.682   3.210   0.587  0.2843  0.0183 -0.0169
 8743SOL    HW138702   8.654   3.278   0.520  0.8592 -0.1501 -0.4347
 8743SOL    HW238703   8.752   3.151   0.547 -0.1709 -0.7851  0.3555
 8744SOL     OW38704   2.756   6.632   8.017 -0.4242  0.3677  0.1554
 8744SOL    HW138705   2.828   6.564   8.025  0.9797  1.7075 -0.7521
 8744SOL    HW238706   2.737   6.670   8.107 -1.3052 -1.2905  0.6834
 8745SOL     OW38707   2.790   5.993   7.499 -0.3006  0.0170 -0.0754
 8745SOL    HW138708   2.803   5.895   7.480 -1.9998 -0.2009 -0.2270
 8745SOL    HW238709   2.873   6.043   7.474  1.0913 -1.5533  1.2742
 8746SOL     OW38710   2.895   0.667   6.468  0.0800  0.6386  0.5851
 8746SOL    HW138711   2.900   0.590   6.532  2.4622  1.1906  1.0988
 8746SOL    HW238712   2.809   0.715   6.481 -1.4754 -1.9491  0.2282
 8747SOL     OW38713   7.255   0.459   1.759 -0.1938  0.4536 -0.0557
 8747SOL    HW138714   7.344   0.441   1.718  0.4755  1.7990  0.7426
 8747SOL    HW238715   7.257   0.549   1.803 -1.4815 -0.1436  1.2606
 8748SOL     OW38716   8.881   1.570   4.940  0.4914 -0.6717  0.4907
 8748SOL    HW138717   8.856   1.589   5.034  1.2633  1.2099  0.3291
 8748SOL    HW238718   8.840   1.638   4.879  0.7840 -1.3051 -0.4392
 8749SOL     OW38719   8.133   4.276   4.813  0.1313 -0.1245 -0.5852
 8749SOL    HW138720   8.188   4.358   4.826 -0.4619  0.3670 -1.1603
 8749SOL    HW238721   8.075   4.287   4.732 -1.9956  0.0079  0.9145
 8750SOL     OW38722   2.434   8.026   0.209  0.0339 -0.5986  0.5856
 8750SOL    HW138723   2.387   8.100   0.161 -0.4043  0.1988  2.2112
 8750SOL    HW238724   2.450   7.950   0.145  0.3163  0.7976 -1.0523
 8751SOL     OW38725   5.524   0.319   4.743 -0.3096  0.4701 -0.7270
 8751SOL    HW138726   5.561   0.234   4.780 -1.1809  0.1569 -0.5641
 8751SOL    HW238727   5.600   0.380   4.718  0.3397 -0.6431 -1.5432
 8752SOL     OW38728   4.921   1.236   2.290  0.2407  0.1587  0.3837
 8752SOL    HW138729   4.887   1.246   2.196  0.9402 -0.3876  0.0692
 8752SOL    HW238730   4.934   1.139   2.310  0.0173  0.2721  1.0746
 8753SOL     OW38731   6.639   1.849   2.833 -0.6508  0.0577 -0.1978
 8753SOL    HW138732   6.543   1.869   2.811 -0.8619  1.6428  2.0449
 8753SOL    HW238733   6.698   1.917   2.790 -0.7199  0.5100  0.4214
 8754SOL     OW38734   1.423   0.865   4.127 -0.0903 -0.0899  0.5372
 8754SOL    HW138735   1.326   0.843   4.114  0.0628 -0.5755  0.2099
 8754SOL    HW238736   1.477   0.821   4.056  0.3441  0.4307  0.5400
 8755SOL     OW38737   3.633   3.524   4.735 -0.0531  0.9105 -0.6378
 8755SOL    HW138738   3.674   3.463   4.804 -2.3023  1.9379  1.6822
 8755SOL    HW238739   3.695   3.601   4.718  1.0352  0.0458 -0.6380
 8756SOL     OW38740   1.369   4.710   0.909 -0.2171 -0.2455 -0.0308
 8756SOL    HW138741   1.363   4.625   0.961  1.8737 -1.3170 -1.4688
 8756SOL    HW238742   1.277   4.748   0.898 -1.2205 -2.3873  0.4986
 8757SOL     OW38743   0.067   8.233   7.097  0.3861  0.2018 -0.5535
 8757SOL    HW138744   0.064   8.239   7.196  1.1735 -1.5704 -0.4042
 8757SOL    HW238745   0.022   8.312   7.057  0.9166  1.4040  1.2076
 8758SOL     OW38746   7.634   5.020   3.772 -0.3310 -0.5854  0.0015
 8758SOL    HW138747   7.632   4.921   3.765  1.8575 -0.6129 -0.6737
 8758SOL    HW238748   7.599   5.060   3.687 -1.0713 -0.7758  0.2153
 8759SOL     OW38749   1.225   5.476   5.855 -0.1411 -0.0363 -0.1066
 8759SOL    HW138750   1.231   5.467   5.755  1.1234 -1.1570  0.0525
 8759SOL    HW238751   1.156   5.544   5.878 -0.5875  0.0954 -1.7465
 8760SOL     OW38752   5.281   2.032   2.091  0.0812 -0.1075  0.1098
 8760SOL    HW138753   5.287   2.018   2.190  0.2966  0.5563  0.1945
 8760SOL    HW238754   5.280   1.943   2.045  1.0351 -0.4013  0.6479
 8761SOL     OW38755   2.819   3.254   6.534  0.3061  0.2325  0.1334
 8761SOL    HW138756   2.723   3.228   6.543  0.2633  0.6093  0.8666
 8761SOL    HW238757   2.825   3.343   6.489  0.1766  1.2484  2.0567
 8762SOL     OW38758   8.834   8.037   8.822  0.4853 -0.2377  0.1434
 8762SOL    HW138759   8.898   8.098   8.869  0.3783 -0.5845  0.7480
 8762SOL    HW238760   8.741   8.055   8.854  0.1390  0.9887 -1.5151
 8763SOL     OW38761   3.374   7.251   6.231 -0.2073 -0.0654  0.1645
 8763SOL    HW138762   3.374   7.157   6.198 -0.9999  0.1287 -0.4079
 8763SOL    HW238763   3.465   7.291   6.221  0.5094 -1.2397  1.7846
 8764SOL     OW38764   1.880   0.715   8.662  0.5810 -0.7396  0.1074
 8764SOL    HW138765   1.896   0.632   8.610 -1.8046 -0.9878 -0.3100
 8764SOL    HW238766   1.859   0.791   8.600  3.4918  0.4073  0.4341
 8765SOL     OW38767   2.960   8.007   4.983 -0.3333 -0.4070  0.1653
 8765SOL    HW138768   2.968   7.924   4.928  0.0632 -0.4018  0.2088
 8765SOL    HW238769   3.052   8.046   4.997 -0.6680  0.9185 -1.2029
 8766SOL     OW38770   0.543   8.331   3.987  0.3008 -0.2667  0.5885
 8766SOL    HW138771   0.451   8.294   4.002  0.4924 -0.8903  0.2541
 8766SOL    HW238772   0.598   8.319   4.070 -0.0977  0.6277  0.9777
 8767SOL     OW38773   5.491   3.141   2.872  0.3882 -0.8785  0.0049
 8767SOL    HW138774   5.515   3.186   2.787  2.2538 -0.5942  0.6578
 8767SOL    HW238775   5.575   3.109   2.918 -0.6554 -1.9527  1.2102
 8768SOL     OW38776   1.728   5.721   1.599 -0.3824  0.2666 -0.1657
 8768SOL    HW138777   1.793   5.654   1.565  0.3931  0.3850  1.0642
 8768SOL    HW238778   1.772   5.811   1.606 -0.2548  0.0652  1.9684
 8769SOL     OW38779   1.894   5.275   4.105  0.7495 -0.6805  0.0004
 8769SOL    HW138780   1.992   5.291   4.093  0.4046 -0.3594 -2.7832
 8769SOL    HW238781   1.867   5.196   4.050 -0.9242  0.5435 -0.9884
 8770SOL     OW38782   4.762   5.513   7.641 -0.1856 -0.2260 -0.0725
 8770SOL    HW138783   4.766   5.530   7.739 -1.2386  0.3868 -0.1241
 8770SOL    HW238784   4.670   5.536   7.607  0.1169 -0.5960 -1.1643
 8771SOL     OW38785   4.709   3.824   4.832  0.1619 -0.0892  0.0439
 8771SOL    HW138786   4.713   3.731   4.868  0.4167  0.1370  0.6250
 8771SOL    HW238787   4.788   3.840   4.773  0.2673 -0.1552  0.1654
 8772SOL     OW38788   7.558   6.911   7.312 -0.1874  0.2073  0.0808
 8772SOL    HW138789   7.628   6.862   7.260 -0.4887 -0.4195  0.2602
 8772SOL    HW238790   7.600   6.952   7.393 -0.1545 -0.7772  0.5751
 8773SOL     OW38791   6.445   2.355   1.612 -0.5137 -0.4328  0.0464
 8773SOL    HW138792   6.495   2.338   1.527  0.3197  1.1087  0.1992
 8773SOL    HW238793   6.349   2.372   1.592 -0.1002  1.0486 -0.7126
 8774SOL     OW38794   7.733   2.622   1.185 -0.3406  0.2726  0.3522
 8774SOL    HW138795   7.746   2.690   1.257 -0.9992  1.5099 -0.6999
 8774SOL    HW238796   7.806   2.554   1.191  0.2830  1.0141  1.4439
 8775SOL     OW38797   3.836   0.487   3.049 -0.1618  0.2190  0.3465
 8775SOL    HW138798   3.809   0.457   2.958  0.0755 -1.0311  0.6845
 8775SOL    HW238799   3.838   0.587   3.052  0.6795  0.2520 -1.2533
 8776SOL     OW38800   5.401   4.394   6.474 -0.5824  0.3153 -0.5194
 8776SOL    HW138801   5.329   4.399   6.543 -2.8256  0.8932 -2.8121
 8776SOL    HW238802   5.449   4.307   6.481 -1.0246  0.2108  1.4825
 8777SOL     OW38803   6.298   4.277   4.247 -0.5681 -0.2721  0.3933
 8777SOL    HW138804   6.375   4.332   4.212  0.3807 -1.7374  0.1423
 8777SOL    HW238805   6.318   4.249   4.340 -1.9261  1.4118  1.2212
 8778SOL     OW38806   4.548   8.208   7.786 -0.0496  0.4027  0.3614
 8778SOL    HW138807   4.581   8.200   7.880  1.6027  1.9628 -0.0603
 8778SOL    HW238808   4.500   8.294   7.775 -2.3206 -0.8320  0.3582
 8779SOL     OW38809   0.758   4.602   5.630  0.0330  0.1018  0.3248
 8779SOL    HW138810   0.793   4.671   5.694 -0.7997  0.5484  0.3011
 8779SOL    HW238811   0.688   4.547   5.676 -1.0499  0.8613 -0.4074
 8780SOL     OW38812   6.656   0.255   7.450 -0.0708 -0.0072 -0.6610
 8780SOL    HW138813   6.586   0.263   7.521 -1.5998 -0.1842 -2.1095
 8780SOL    HW238814   6.683   0.346   7.420 -1.3926  0.0505 -1.7208
 8781SOL     OW38815   2.227   7.960   0.522 -0.3126  0.0063 -0.0676
 8781SOL    HW138816   2.253   8.051   0.489 -2.0879  0.4622 -0.2623
 8781SOL    HW238817   2.229   7.960   0.622 -0.3304  0.2665 -0.0667
 8782SOL     OW38818   1.187   2.990   2.696 -0.1189  0.5520 -0.0216
 8782SOL    HW138819   1.161   3.008   2.601  1.6306  1.6088 -0.3190
 8782SOL    HW238820   1.174   3.073   2.750  1.4098  0.7409  0.0819
 8783SOL     OW38821   2.507   1.815   0.478 -0.1880  0.3453  0.3103
 8783SOL    HW138822   2.574   1.849   0.412 -0.5691  0.0201 -0.2440
 8783SOL    HW238823   2.554   1.768   0.553  0.2481  0.7995  0.3228
 8784SOL     OW38824   3.964   0.955   5.282  0.1994  0.6628  0.1568
 8784SOL    HW138825   3.978   1.049   5.312  0.3411  0.8202 -0.4000
 8784SOL    HW238826   3.963   0.951   5.182 -1.9011  0.3712  0.1685
 8785SOL     OW38827   3.231   8.796   7.582  0.3253 -0.1194  0.7176
 8785SOL    HW138828   3.177   8.855   7.523  0.5979  0.1537  0.7431
 8785SOL    HW238829   3.234   8.835   7.674  0.6432 -0.0859  0.6935
 8786SOL     OW38830   1.733   4.152   5.986  0.1669 -0.5528 -0.6790
 8786SOL    HW138831   1.697   4.245   5.991  0.3001 -0.4079 -2.2007
 8786SOL    HW238832   1.705   4.101   6.067 -0.3766  0.6457 -0.1032
 8787SOL     OW38833   4.024   0.189   7.662  0.1699  0.3117 -1.0567
 8787SOL    HW138834   4.005   0.287   7.654  0.8012  0.4028 -1.5436
 8787SOL    HW238835   3.995   0.142   7.579  0.2083  0.1454 -0.9771
 8788SOL     OW38836   1.047   7.765   4.860  0.0401  0.4073  0.0381
 8788SOL    HW138837   0.970   7.755   4.798  0.3252  0.2451 -0.2888
 8788SOL    HW238838   1.035   7.848   4.915  0.8893  1.7489 -1.7921
 8789SOL     OW38839   3.977   2.962   1.368  0.3746 -0.1771 -0.6416
 8789SOL    HW138840   3.943   3.037   1.310 -1.2276 -0.6109 -0.2896
 8789SOL    HW238841   3.919   2.954   1.449  0.0670 -2.2606 -1.0305
 8790SOL     OW38842   5.613   7.013   5.883 -0.2542 -0.6766 -0.0805
 8790SOL    HW138843   5.566   7.064   5.956 -2.1022 -0.3455 -1.4571
 8790SOL    HW238844   5.706   7.049   5.872 -0.1948 -0.2549  1.6142
 8791SOL     OW38845   7.289   1.048   8.969  0.1006  0.0269 -0.1840
 8791SOL    HW138846   7.245   0.982   8.908 -0.5107  1.8124 -1.7025
 8791SOL    HW238847   7.219   1.097   9.021  0.5108  0.0884  0.3126
 8792SOL     OW38848   4.505   2.252   6.530 -0.0068 -0.6802  0.7234
 8792SOL    HW138849   4.523   2.157   6.504  1.9157 -0.1599  0.0974
 8792SOL    HW238850   4.592   2.299   6.548 -0.9322  0.9837  0.9591
 8793SOL     OW38851   0.163   2.284   7.253 -0.3721 -0.0708  0.6817
 8793SOL    HW138852   0.202   2.210   7.198 -2.0481 -0.8147  0.4652
 8793SOL    HW238853   0.087   2.249   7.308 -0.8191  1.3586  1.0089
 8794SOL     OW38854   5.910   4.938   3.379 -0.5249  0.1140  0.5784
 8794SOL    HW138855   5.820   4.895   3.386 -0.3725  0.0945  2.4916
 8794SOL    HW238856   5.960   4.897   3.302 -1.7451 -0.5940  0.1493
 8795SOL     OW38857   8.614   4.816   0.862  0.5020  0.6078  0.8479
 8795SOL    HW138858   8.704   4.779   0.841 -0.8559 -1.3562 -1.7939
 8795SOL    HW238859   8.561   4.823   0.778 -2.1802  0.7482  2.5066
 8796SOL     OW38860   2.686   3.227   5.950 -0.2486 -0.3662  0.1994
 8796SOL    HW138861   2.702   3.313   5.998 -0.6144 -0.0445 -0.2509
 8796SOL    HW238862   2.631   3.167   6.008 -0.7092  0.0323  0.1807
 8797SOL     OW38863   0.853   8.360   2.085 -0.6035 -0.2716  0.3629
 8797SOL    HW138864   0.804   8.388   2.168  0.3392  1.0129  0.5043
 8797SOL    HW238865   0.873   8.262   2.091 -2.2730 -0.6109  0.7411
 8798SOL     OW38866   3.491   8.475   8.576 -0.0981 -0.0430  0.4023
 8798SOL    HW138867   3.447   8.434   8.655 -2.5306  0.8532 -0.4307
 8798SOL    HW238868   3.451   8.437   8.492  0.4545  1.0789 -0.3834
 8799SOL     OW38869   3.610   6.169   7.831 -0.0237 -0.2561  0.4843
 8799SOL    HW138870   3.545   6.135   7.899  0.9562 -1.7378  0.7085
 8799SOL    HW238871   3.703   6.164   7.869  0.6948 -2.3586 -1.3919
 8800SOL     OW38872   2.755   1.574   0.912  0.5018  0.2628 -0.0076
 8800SOL    HW138873   2.692   1.648   0.936  1.1547  1.4902 -2.0104
 8800SOL    HW238874   2.732   1.539   0.821  0.3351 -1.8748  0.8210
 8801SOL     OW38875   1.966   6.691   4.796  0.0052  0.3764  0.0982
 8801SOL    HW138876   1.871   6.717   4.810 -0.5781 -0.6329 -1.8053
 8801SOL    HW238877   1.977   6.594   4.818  0.5137  0.4059 -0.0164
 8802SOL     OW38878   4.902   4.489   8.272 -0.3832 -0.5366 -0.0459
 8802SOL    HW138879   5.001   4.491   8.262 -0.3119 -0.5496  0.6432
 8802SOL    HW238880   4.861   4.453   8.188  0.2171 -0.8794 -0.1973
 8803SOL     OW38881   7.881   2.602   8.456  0.1660  0.0304  0.2093
 8803SOL    HW138882   7.827   2.686   8.463 -1.0223 -0.7050  0.0691
 8803SOL    HW238883   7.973   2.618   8.492  0.1077  1.5262 -0.2812
 8804SOL     OW38884   5.977   0.286   7.548 -0.9320 -0.0894 -0.0716
 8804SOL    HW138885   5.936   0.196   7.563  0.6121 -0.9003 -0.5389
 8804SOL    HW238886   5.968   0.311   7.451 -0.8132 -0.0302 -0.0687
 8805SOL     OW38887   6.369   1.799   6.403  0.5203 -0.0539 -0.2887
 8805SOL    HW138888   6.351   1.724   6.467 -1.0542 -0.0605 -0.7227
 8805SOL    HW238889   6.358   1.765   6.309 -0.0378  0.6821 -0.4879
 8806SOL     OW38890   4.740   3.900   7.149 -0.9355 -0.7390 -0.3284
 8806SOL    HW138891   4.707   3.900   7.054  0.2081  0.5476 -0.7427
 8806SOL    HW238892   4.839   3.890   7.150 -0.7465  1.0292  0.6485
 8807SOL     OW38893   5.875   2.416   2.876  0.1442  0.3320  0.2608
 8807SOL    HW138894   5.839   2.395   2.786 -0.9479 -0.1774  0.8032
 8807SOL    HW238895   5.834   2.354   2.944 -0.1263  1.6203  1.3008
 8808SOL     OW38896   0.959   3.487   3.319 -0.7103 -0.3963  0.6611
 8808SOL    HW138897   0.964   3.401   3.269 -3.2600 -1.7189  2.6273
 8808SOL    HW238898   0.918   3.557   3.261 -0.6354 -1.0597 -0.1951
 8809SOL     OW38899   8.389   3.073   7.988 -0.5246  0.2540  0.3842
 8809SOL    HW138900   8.316   3.006   8.002  0.7480 -1.2465 -0.0315
 8809SOL    HW238901   8.365   3.134   7.912 -1.3300 -0.2564  0.2261
 8810SOL     OW38902   5.287   0.947   1.986  0.1256 -0.3133 -0.1983
 8810SOL    HW138903   5.383   0.974   1.995  0.1821 -0.1489 -1.2272
 8810SOL    HW238904   5.235   0.981   2.064  0.9616 -0.6681  0.5245
 8811SOL     OW38905   3.141   1.233   0.995 -0.3009  0.5421  0.2423
 8811SOL    HW138906   3.175   1.188   1.078  1.6385  1.8574  0.1716
 8811SOL    HW238907   3.067   1.296   1.020 -1.9451 -1.4285  0.5349
 8812SOL     OW38908   4.068   7.595   1.278 -0.1283  0.3235 -0.0705
 8812SOL    HW138909   4.004   7.658   1.234 -2.7021 -0.6225  2.2103
 8812SOL    HW238910   4.069   7.508   1.228 -0.2721  0.4868 -0.3609
 8813SOL     OW38911   4.109   7.322   5.550  0.4550 -0.4636 -0.4713
 8813SOL    HW138912   4.057   7.344   5.632  2.1458 -2.6181  1.2523
 8813SOL    HW238913   4.046   7.305   5.474 -1.1860  0.3642  0.6756
 8814SOL     OW38914   4.304   3.932   1.648  0.2905  0.0028  0.2383
 8814SOL    HW138915   4.229   3.869   1.670 -0.0814  0.2579 -0.2980
 8814SOL    HW238916   4.366   3.887   1.584  0.7151 -0.2855  0.8409
 8815SOL     OW38917   5.698   5.168   0.627 -0.0402 -0.1936 -0.2674
 8815SOL    HW138918   5.674   5.079   0.590  1.5922 -1.4004  1.4464
 8815SOL    HW238919   5.638   5.190   0.703  0.3053 -0.3843  0.0636
 8816SOL     OW38920   4.956   4.351   2.718  0.1092 -0.0577  0.1433
 8816SOL    HW138921   4.905   4.337   2.803  0.7364 -0.8609  0.3991
 8816SOL    HW238922   4.894   4.345   2.640 -0.5016  0.8522  0.5492
 8817SOL     OW38923   1.680   1.171   6.192 -0.4822  0.7019  0.1481
 8817SOL    HW138924   1.693   1.203   6.287  1.2566 -0.7977  0.4523
 8817SOL    HW238925   1.730   1.232   6.130 -0.4785  0.8875  0.3311
 8818SOL     OW38926   0.254   3.430   0.139  0.5291 -0.1800  0.4646
 8818SOL    HW138927   0.227   3.333   0.139 -2.1791  0.5387 -0.0296
 8818SOL    HW238928   0.191   3.482   0.197  0.4269  1.6767 -1.2640
 8819SOL     OW38929   4.545   3.297   6.399 -0.1362  0.3945  0.1575
 8819SOL    HW138930   4.539   3.248   6.312  1.0383  0.5622 -0.0217
 8819SOL    HW238931   4.542   3.231   6.474 -0.5439  0.2042 -0.0242
 8820SOL     OW38932   6.123   1.412   8.107 -0.1214  0.0939 -0.5510
 8820SOL    HW138933   6.172   1.383   8.189 -0.1275 -0.5394 -0.7679
 8820SOL    HW238934   6.102   1.510   8.113 -0.1657  0.0383  0.2152
 8821SOL     OW38935   2.860   2.790   3.586  0.1495  0.4757 -0.5622
 8821SOL    HW138936   2.822   2.846   3.659 -0.4624 -0.1153 -0.4265
 8821SOL    HW238937   2.786   2.743   3.538  0.5324  0.9515 -1.6395
 8822SOL     OW38938   0.003   5.733   7.462  0.1763  0.7049  0.8681
 8822SOL    HW138939   0.007   5.645   7.413  0.0408 -0.1399  2.3369
 8822SOL    HW238940   0.078   5.791   7.431  1.4542 -0.6828  1.2614
 8823SOL     OW38941   8.186   3.116   3.085 -0.9259  0.5631  0.1981
 8823SOL    HW138942   8.221   3.141   2.995 -3.1273  1.5775 -0.4085
 8823SOL    HW238943   8.169   3.018   3.087  0.5589  0.2949  0.0190
 8824SOL     OW38944   7.036   4.826   1.404  0.0593 -0.6233  0.1150
 8824SOL    HW138945   6.952   4.832   1.457  1.2345  1.1101  1.8212
 8824SOL    HW238946   7.080   4.738   1.421  1.5972  0.7800  3.8904
 8825SOL     OW38947   8.115   2.410   0.382  0.2339  0.1845  0.0663
 8825SOL    HW138948   8.086   2.505   0.394 -1.2077 -0.4070  1.4858
 8825SOL    HW238949   8.051   2.350   0.430  0.3496 -1.6017 -1.9586
 8826SOL     OW38950   7.994   4.362   3.642 -0.1837  0.9065 -0.4306
 8826SOL    HW138951   8.085   4.386   3.675  0.0799  0.8452 -1.0990
 8826SOL    HW238952   7.999   4.276   3.592 -0.9324 -0.0234  1.0583
 8827SOL     OW38953   2.204   1.311   6.967 -0.0491  0.4162  0.2400
 8827SOL    HW138954   2.186   1.278   7.059 -2.9066  0.8354 -0.1351
 8827SOL    HW238955   2.144   1.388   6.946  1.1410  0.8649 -1.6825
 8828SOL     OW38956   1.801   5.279   8.952 -0.0565 -0.3314  0.2119
 8828SOL    HW138957   1.852   5.200   8.918 -0.7433 -0.9812  0.6649
 8828SOL    HW238958   1.865   5.346   8.990  0.5650 -0.4616 -0.5880
 8829SOL     OW38959   1.710   6.767   4.633  0.5903 -0.6076 -0.3832
 8829SOL    HW138960   1.679   6.714   4.712 -0.0988  2.1842  1.2847
 8829SOL    HW238961   1.729   6.861   4.661  1.9546  0.0195 -3.2224
 8830SOL     OW38962   5.223   2.631   8.047 -0.0851  0.2410  1.1187
 8830SOL    HW138963   5.127   2.649   8.030 -0.2434 -0.5939  1.1209
 8830SOL    HW238964   5.276   2.651   7.964 -0.3073  0.2811  0.9862
 8831SOL     OW38965   6.769   5.324   7.166  0.2209  0.0994  0.1000
 8831SOL    HW138966   6.835   5.289   7.100 -0.3193 -0.8002  0.0247
 8831SOL    HW238967   6.761   5.423   7.157  2.2125  0.3275  0.7062
 8832SOL     OW38968   3.458   2.912   0.783  0.0007 -0.1520  0.3764
 8832SOL    HW138969   3.470   2.827   0.835  1.8208  0.6087  1.2379
 8832SOL    HW238970   3.401   2.975   0.836 -1.5646 -0.9214 -0.3765
 8833SOL     OW38971   6.485   7.436   3.010 -0.5048  0.4671 -0.2797
 8833SOL    HW138972   6.501   7.478   3.099 -0.7638  0.3051 -0.1548
 8833SOL    HW238973   6.570   7.397   2.975 -0.1667  1.4808 -0.5974
 8834SOL     OW38974   0.903   5.232   6.612  0.7500 -0.5587  0.2966
 8834SOL    HW138975   0.809   5.200   6.602  0.3663  0.6524 -0.1764
 8834SOL    HW238976   0.966   5.162   6.580 -0.0778 -0.6415 -1.1982
 8835SOL     OW38977   3.878   3.179   8.449  0.1367 -0.7379 -0.3753
 8835SOL    HW138978   3.921   3.254   8.499 -0.0420 -1.0785  0.2902
 8835SOL    HW238979   3.782   3.172   8.476  0.0671 -0.9943 -0.6891
 8836SOL     OW38980   8.724   7.754   0.512 -0.3675  0.0938  0.0250
 8836SOL    HW138981   8.805   7.773   0.567 -0.6466  1.5567 -0.0622
 8836SOL    HW238982   8.746   7.685   0.444  1.1095  1.2596 -0.7134
 8837SOL     OW38983   0.743   2.665   5.307 -0.0166 -0.2866  0.3639
 8837SOL    HW138984   0.764   2.716   5.391 -0.8273  0.0481  0.3707
 8837SOL    HW238985   0.827   2.624   5.271  0.2904 -0.6538  1.4765
 8838SOL     OW38986   1.050   2.001   5.342  0.5967 -0.4527 -0.1773
 8838SOL    HW138987   1.025   2.038   5.432 -2.4182  0.5731 -1.3882
 8838SOL    HW238988   1.012   1.910   5.332  0.8668 -0.5334 -0.4702
 8839SOL     OW38989   5.802   7.078   3.793 -0.3923  0.3688  0.2119
 8839SOL    HW138990   5.838   7.151   3.735  1.0582  1.1888  2.0928
 8839SOL    HW238991   5.733   7.115   3.855  0.7638  0.3014  1.5737
 8840SOL     OW38992   5.884   7.802   6.742 -0.0269 -0.0020 -0.2787
 8840SOL    HW138993   5.959   7.736   6.736 -0.0891  0.0501 -1.8818
 8840SOL    HW238994   5.897   7.872   6.672 -0.7569  0.8662  0.4491
 8841SOL     OW38995   7.610   3.727   3.603 -0.4731 -0.6446  0.6937
 8841SOL    HW138996   7.688   3.779   3.639 -0.9636  0.0401  0.7869
 8841SOL    HW238997   7.637   3.678   3.520 -0.1378  0.2075  0.2893
 8842SOL     OW38998   2.269   0.993   7.044 -0.2061 -0.5254  0.2363
 8842SOL    HW138999   2.255   0.902   7.003  4.0146 -0.2835 -1.9777
 8842SOL    HW239000   2.343   0.988   7.111  1.0523  1.5217 -0.9643
 8843SOL     OW39001   7.069   5.554   8.510  0.1915 -0.0763 -0.0766
 8843SOL    HW139002   7.143   5.582   8.572  2.3705  0.1782 -2.6831
 8843SOL    HW239003   7.014   5.634   8.487  1.2713  0.4617 -0.8704
 8844SOL     OW39004   2.813   2.772   4.297 -0.3327 -0.1360  0.1793
 8844SOL    HW139005   2.806   2.871   4.295 -2.2937 -0.2286  1.6174
 8844SOL    HW239006   2.776   2.734   4.212 -0.8686  0.2933  0.2246
 8845SOL     OW39007   7.562   4.351   3.861  0.4822  0.0932 -0.1488
 8845SOL    HW139008   7.661   4.336   3.859  0.1847 -2.1074  0.4726
 8845SOL    HW239009   7.530   4.346   3.956 -0.3903 -0.2380 -0.4611
 8846SOL     OW39010   2.353   3.206   6.948 -0.2927  0.1920 -0.0612
 8846SOL    HW139011   2.397   3.129   6.994 -1.1541 -0.1601  0.1940
 8846SOL    HW239012   2.333   3.279   7.014  1.8609  1.2660 -0.5731
 8847SOL     OW39013   4.267   1.126   4.665  0.3428  0.0413  0.2212
 8847SOL    HW139014   4.344   1.088   4.615  0.8970 -1.8393  2.4276
 8847SOL    HW239015   4.297   1.160   4.754 -1.0525  0.9896  0.3577
 8848SOL     OW39016   1.009   2.583   5.550  0.0978 -0.3252 -0.5276
 8848SOL    HW139017   0.939   2.574   5.621  1.1506 -1.5597  0.3717
 8848SOL    HW239018   0.978   2.536   5.467 -0.2122 -0.7105 -0.1914
 8849SOL     OW39019   7.506   5.447   3.931 -0.2713  0.2348 -0.0207
 8849SOL    HW139020   7.521   5.527   3.989 -0.7226  0.2265  0.1009
 8849SOL    HW239021   7.409   5.434   3.916 -0.1208  1.0416 -1.8903
 8850SOL     OW39022   2.391   1.933   6.733  0.1905 -0.3280 -0.5795
 8850SOL    HW139023   2.305   1.955   6.780  0.5995 -0.6155  0.3096
 8850SOL    HW239024   2.456   2.007   6.746  0.1478 -0.1959 -1.0968
 8851SOL     OW39025   1.303   5.217   3.060 -0.0855 -0.0438  0.0721
 8851SOL    HW139026   1.290   5.263   2.972  0.2118  0.5343  0.3277
 8851SOL    HW239027   1.233   5.247   3.125 -1.9074 -2.4285 -0.7315
 8852SOL     OW39028   1.161   2.399   2.138  1.1011  0.2981 -0.0245
 8852SOL    HW139029   1.203   2.396   2.228  0.2898  2.0774  0.4455
 8852SOL    HW239030   1.111   2.485   2.127 -0.9999 -1.0073 -1.1830
 8853SOL     OW39031   7.413   3.351   8.033 -0.0755 -0.2722  0.3680
 8853SOL    HW139032   7.433   3.305   7.946 -1.8173  0.0404 -0.2154
 8853SOL    HW239033   7.470   3.433   8.040 -0.0785 -0.1805 -0.5719
 8854SOL     OW39034   8.919   2.329   6.995  0.2537 -0.4985 -0.0954
 8854SOL    HW139035   8.953   2.330   6.901  2.1171  0.2599  0.5549
 8854SOL    HW239036   8.968   2.398   7.049 -1.1792 -0.5509  1.2974
 8855SOL     OW39037   3.917   0.391   6.747  0.5527  0.3348  0.0427
 8855SOL    HW139038   3.950   0.387   6.653 -1.9714  0.6843 -0.9182
 8855SOL    HW239039   3.890   0.485   6.768 -0.8993 -0.1405  0.3526
 8856SOL     OW39040   4.672   6.334   7.669  0.5143 -0.4578  0.0621
 8856SOL    HW139041   4.594   6.285   7.708 -0.0348  0.9266  0.7415
 8856SOL    HW239042   4.667   6.332   7.569 -1.0377  0.6164  0.1068
 8857SOL     OW39043   1.814   3.784   0.505 -1.0764 -0.2338  0.1543
 8857SOL    HW139044   1.797   3.708   0.568 -1.6469  0.1129  0.4286
 8857SOL    HW239045   1.786   3.870   0.548 -0.7293  0.0975 -0.2719
 8858SOL     OW39046   6.996   7.126   0.104  0.3271  0.0473  0.0156
 8858SOL    HW139047   6.985   7.047   0.043 -0.6746 -0.4107  0.7818
 8858SOL    HW239048   6.960   7.208   0.060 -0.6927 -0.3444  0.1187
 8859SOL     OW39049   7.658   2.804   8.500  0.0881 -0.0384  0.1891
 8859SOL    HW139050   7.602   2.878   8.462 -2.2330 -1.3274  1.0624
 8859SOL    HW239051   7.629   2.717   8.461  1.0148 -0.8118  1.2054
 8860SOL     OW39052   1.672   5.137   4.923 -0.0441  0.1085  0.0053
 8860SOL    HW139053   1.725   5.103   4.844 -0.1538  0.8674 -0.3996
 8860SOL    HW239054   1.691   5.079   5.002  1.3889  0.3612 -0.1361
 8861SOL     OW39055   0.345   5.294   4.888 -0.1221 -0.8615 -0.3679
 8861SOL    HW139056   0.312   5.315   4.795  0.4857 -0.6533 -0.5364
 8861SOL    HW239057   0.418   5.358   4.912  0.4536 -1.5975 -0.1538
 8862SOL     OW39058   4.347   6.487   8.580  0.1026 -0.2170 -0.1934
 8862SOL    HW139059   4.414   6.543   8.531 -0.9644 -0.4284 -1.9510
 8862SOL    HW239060   4.281   6.450   8.514 -0.3186 -1.9813  1.2014
 8863SOL     OW39061   0.009   3.325   7.005  0.1629  0.1653  0.0138
 8863SOL    HW139062  -0.021   3.406   6.955  2.2623  1.2825  0.4808
 8863SOL    HW239063   0.007   3.344   7.104 -0.5853 -0.8077  0.1914
 8864SOL     OW39064   5.010   6.800   7.355  0.1545 -0.1248 -0.1993
 8864SOL    HW139065   4.996   6.729   7.287  0.8726 -0.6538  0.2018
 8864SOL    HW239066   5.107   6.808   7.377 -0.1967 -0.8981  1.7619
 8865SOL     OW39067   7.129   1.074   0.572  0.1533 -0.2367  0.6293
 8865SOL    HW139068   7.111   1.141   0.644 -1.6633  0.2231 -0.2308
 8865SOL    HW239069   7.223   1.042   0.579  0.2570  0.4684  2.6585
 8866SOL     OW39070   7.571   6.765   6.179 -0.0813 -0.4829 -0.4902
 8866SOL    HW139071   7.478   6.728   6.170  0.5545 -1.8758 -1.5946
 8866SOL    HW239072   7.603   6.797   6.090 -0.0004  1.2567  0.1517
 8867SOL     OW39073   7.173   4.642   6.064 -0.4546 -1.3106  0.3269
 8867SOL    HW139074   7.099   4.621   6.127 -1.1783 -1.2434 -0.4969
 8867SOL    HW239075   7.249   4.578   6.079 -0.8868 -1.7142  0.8094
 8868SOL     OW39076   4.497   0.988   4.577 -0.1404  0.2065  0.4822
 8868SOL    HW139077   4.576   1.030   4.622  1.5535 -2.3070 -0.0481
 8868SOL    HW239078   4.529   0.922   4.508 -2.6798  1.5660 -2.1249
 8869SOL     OW39079   5.965   3.678   3.205  0.7655 -0.2192 -0.4353
 8869SOL    HW139080   5.898   3.750   3.226 -0.2165 -0.8724 -1.2776
 8869SOL    HW239081   6.014   3.654   3.288 -1.1354 -0.8362  0.5493
 8870SOL     OW39082   1.957   3.305   3.622 -0.3120 -0.0471 -0.1211
 8870SOL    HW139083   1.987   3.283   3.714 -2.6678  2.0489  1.1908
 8870SOL    HW239084   1.998   3.391   3.592 -0.3889 -0.1757 -0.6150
 8871SOL     OW39085   7.132   3.418   7.347 -0.1137 -0.1201 -0.2322
 8871SOL    HW139086   7.090   3.342   7.397  0.0773 -0.5903 -0.7924
 8871SOL    HW239087   7.177   3.479   7.413  0.3838 -0.8904  0.1505
 8872SOL     OW39088   2.015   7.443   1.325 -0.2337 -0.4709 -0.2009
 8872SOL    HW139089   1.950   7.381   1.282 -1.0223 -0.3411  0.7635
 8872SOL    HW239090   2.086   7.390   1.371 -0.9462 -0.6778  0.6835
 8873SOL     OW39091   7.402   8.617   1.906  0.1958 -0.5164 -0.2165
 8873SOL    HW139092   7.417   8.535   1.961  0.8994  0.3934  0.9731
 8873SOL    HW239093   7.312   8.613   1.864 -0.5442 -0.9934  1.3928
 8874SOL     OW39094   3.847   1.503   4.572  0.7126 -0.4175 -0.4195
 8874SOL    HW139095   3.914   1.433   4.551 -1.0697 -2.4812  0.5390
 8874SOL    HW239096   3.873   1.551   4.656  1.3832 -0.6677 -0.4854
 8875SOL     OW39097   1.096   7.552   7.254 -0.6200 -0.0596 -0.1791
 8875SOL    HW139098   1.113   7.635   7.200 -3.1653  0.6381  0.0272
 8875SOL    HW239099   1.104   7.472   7.196 -0.0056  0.4529 -0.8114
 8876SOL     OW39100   4.833   6.572   8.388  0.5088  1.1158 -0.3806
 8876SOL    HW139101   4.845   6.635   8.311 -0.0057  0.9768 -0.5818
 8876SOL    HW239102   4.764   6.503   8.363  0.8757  0.6368 -0.0662
 8877SOL     OW39103   5.408   8.447   6.897 -0.6626 -0.1590 -0.0219
 8877SOL    HW139104   5.322   8.427   6.850  0.4809  1.0446 -2.7392
 8877SOL    HW239105   5.482   8.452   6.830  0.9944  1.8628  1.8703
 8878SOL     OW39106   8.156   0.872   5.005  0.2204 -0.5383 -0.1371
 8878SOL    HW139107   8.086   0.812   5.045 -1.6702  2.0211  0.5525
 8878SOL    HW239108   8.131   0.892   4.910 -2.5254  3.9249  1.3849
 8879SOL     OW39109   7.066   8.724   2.567  0.1664  0.0405 -0.3553
 8879SOL    HW139110   7.091   8.760   2.477 -1.1303  1.5691 -0.1423
 8879SOL    HW239111   7.110   8.779   2.638 -2.6688  1.9695 -0.0040
 8880SOL     OW39112   7.690   6.069   5.515 -0.1462  0.5293 -0.7565
 8880SOL    HW139113   7.754   6.140   5.544 -0.4777  0.4435  0.1874
 8880SOL    HW239114   7.737   5.980   5.514 -1.0772 -0.0808  3.1624
 8881SOL     OW39115   7.941   6.250   5.500  0.6143  0.2498 -0.7589
 8881SOL    HW139116   7.905   6.303   5.423 -0.2293 -0.6249 -0.9611
 8881SOL    HW239117   7.979   6.164   5.467  2.0109  0.7274 -0.4277
 8882SOL     OW39118   2.346   6.284   6.560  0.3314  0.8828 -0.4071
 8882SOL    HW139119   2.401   6.244   6.488  0.0751  1.4240 -0.9169
 8882SOL    HW239120   2.404   6.334   6.623  0.6600 -0.3910  0.2975
 8883SOL     OW39121   4.915   1.504   7.173  0.3736 -0.2227  0.4980
 8883SOL    HW139122   4.962   1.522   7.086 -1.9327 -0.1046 -0.7918
 8883SOL    HW239123   4.898   1.406   7.182 -0.2879 -0.1343  0.2946
 8884SOL     OW39124   5.420   7.338   6.079 -0.5818  0.7479 -0.4622
 8884SOL    HW139125   5.489   7.409   6.094 -0.2071 -0.0821  1.8059
 8884SOL    HW239126   5.381   7.309   6.166  1.1861 -3.7478 -1.0531
 8885SOL     OW39127   5.062   8.457   5.790  0.1585 -0.2070 -0.0575
 8885SOL    HW139128   5.074   8.471   5.692  2.0570 -1.4651 -0.0467
 8885SOL    HW239129   4.971   8.421   5.809  0.2099 -1.1163 -1.5044
 8886SOL     OW39130   3.480   2.333   4.748  0.2545 -0.6473 -0.0959
 8886SOL    HW139131   3.431   2.421   4.749 -1.2858 -1.4842  1.9236
 8886SOL    HW239132   3.448   2.278   4.671 -1.0125 -0.6530  0.4313
 8887SOL     OW39133   0.390   1.153   2.820  1.0091  0.5089 -0.1368
 8887SOL    HW139134   0.416   1.205   2.902  1.4249  0.3179 -0.1490
 8887SOL    HW239135   0.390   1.055   2.841 -0.2326  0.5290  0.0169
 8888SOL     OW39136   5.075   5.221   6.976 -0.6101  0.4513 -0.1154
 8888SOL    HW139137   4.982   5.185   6.982 -0.3700 -0.3038 -0.7975
 8888SOL    HW239138   5.125   5.172   6.905  0.4464  0.5438  0.5448
 8889SOL     OW39139   1.157   8.993   5.157 -0.4644  0.1433  0.2490
 8889SOL    HW139140   1.198   8.976   5.067  1.8452 -0.6725  1.4269
 8889SOL    HW239141   1.125   9.087   5.161  0.0402  0.4012 -1.1817
 8890SOL     OW39142   4.780   6.515   7.325 -0.1262  0.3783  0.4317
 8890SOL    HW139143   4.718   6.436   7.327 -0.8750  0.9232 -0.7799
 8890SOL    HW239144   4.872   6.485   7.350 -0.9503 -0.3624  2.7051
 8891SOL     OW39145   3.392   8.689   1.048 -0.5314 -0.1643  0.5041
 8891SOL    HW139146   3.460   8.762   1.051 -0.8694  0.1475  0.6990
 8891SOL    HW239147   3.393   8.646   0.958  0.5170 -0.7343  0.7748
 8892SOL     OW39148   6.791   0.382   3.230  0.0693  0.6107 -0.2662
 8892SOL    HW139149   6.813   0.316   3.302  2.9488  1.7862 -0.0074
 8892SOL    HW239150   6.822   0.347   3.142  0.3390  1.0134 -0.3298
 8893SOL     OW39151   7.431   7.810   4.288 -0.1291  0.3598  0.1510
 8893SOL    HW139152   7.512   7.867   4.307  0.8459 -1.2335  0.8686
 8893SOL    HW239153   7.438   7.774   4.195  0.4440 -0.4872  0.5127
 8894SOL     OW39154   4.153   6.536   6.613 -0.3611 -0.4226  0.0041
 8894SOL    HW139155   4.199   6.457   6.654 -2.2716 -1.0295  1.0420
 8894SOL    HW239156   4.176   6.542   6.516  1.3581 -1.1046  0.3612
 8895SOL     OW39157   1.570   6.651   8.296  0.0997  0.2506 -0.1666
 8895SOL    HW139158   1.592   6.735   8.245 -1.4908  0.7779 -0.0220
 8895SOL    HW239159   1.499   6.600   8.246  2.1675 -1.8407 -1.0810
 8896SOL     OW39160   8.999   8.927   8.976  0.1962 -0.2316  0.4088
 8896SOL    HW139161   9.060   8.961   8.904  1.0598 -0.1279  1.1862
 8896SOL    HW239162   8.944   8.852   8.939 -0.0446  0.4435 -0.6336
 8897SOL     OW39163   3.931   2.679   7.834 -0.0280  0.2849  0.5406
 8897SOL    HW139164   3.871   2.753   7.862  0.5399  0.1683  2.1176
 8897SOL    HW239165   3.953   2.688   7.737 -2.4224  0.4372 -0.0228
 8898SOL     OW39166   5.408   3.178   2.175 -0.1965  0.0311  0.0770
 8898SOL    HW139167   5.357   3.167   2.090 -0.7094 -1.5934  0.5724
 8898SOL    HW239168   5.411   3.090   2.223  0.6258  0.7894  1.4270
 8899SOL     OW39169   8.149   2.769   1.777  0.3887  0.1294  0.3360
 8899SOL    HW139170   8.237   2.728   1.800  0.4974 -0.0693 -0.4041
 8899SOL    HW239171   8.097   2.705   1.720  0.4752  0.9411 -0.6542
 8900SOL     OW39172   6.657   1.911   2.293  0.3815  0.3157 -0.1974
 8900SOL    HW139173   6.678   1.840   2.226  1.0409 -1.0793  1.4319
 8900SOL    HW239174   6.558   1.920   2.302  0.2884 -1.0053  0.1876
 8901SOL     OW39175   3.680   4.970   3.096 -0.2409  0.3524 -0.4010
 8901SOL    HW139176   3.626   5.033   3.152  1.4220  0.6766  0.8606
 8901SOL    HW239177   3.716   5.018   3.016 -0.8852  0.4141 -0.6565
 8902SOL     OW39178   1.893   6.122   6.808 -0.3751  0.2704  0.4223
 8902SOL    HW139179   1.967   6.150   6.747 -0.8153 -0.4072 -0.4295
 8902SOL    HW239180   1.852   6.203   6.851  0.2164  0.7124  0.1523
 8903SOL     OW39181   5.844   6.976   8.969 -0.1791 -0.1467  0.3471
 8903SOL    HW139182   5.916   6.918   8.932  0.9488  1.3971  0.0543
 8903SOL    HW239183   5.868   7.004   9.062  0.3689  1.5882 -0.2837
 8904SOL     OW39184   6.593   2.357   2.026 -0.4856 -0.3987 -0.2177
 8904SOL    HW139185   6.662   2.295   1.989 -0.3681 -0.1864 -0.3562
 8904SOL    HW239186   6.635   2.415   2.097 -1.1767 -2.1681  1.6788
 8905SOL     OW39187   3.487   2.660   5.083 -0.1209  0.2403 -0.1643
 8905SOL    HW139188   3.449   2.739   5.130  0.7944  0.2761  0.5307
 8905SOL    HW239189   3.500   2.585   5.147 -3.2051 -1.3376 -1.2726
 8906SOL     OW39190   6.734   0.032   7.821  0.7673 -0.7412 -0.3914
 8906SOL    HW139191   6.642   0.012   7.788  0.3009  0.9611 -0.1603
 8906SOL    HW239192   6.767  -0.046   7.875 -2.0042  0.0523  2.6421
 8907SOL     OW39193   8.042   2.538   2.308 -0.0631  0.1671 -0.1098
 8907SOL    HW139194   8.057   2.617   2.249 -0.3480  0.1855 -0.1601
 8907SOL    HW239195   7.962   2.554   2.366 -0.4120 -0.2777 -0.4607
 8908SOL     OW39196   7.701   1.348   7.716  0.4154 -0.6221 -0.0805
 8908SOL    HW139197   7.627   1.362   7.650  1.1254  0.7136 -0.6042
 8908SOL    HW239198   7.746   1.435   7.735  0.8366 -1.1512  1.4575
 8909SOL     OW39199   7.864   0.545   1.671  0.1480 -0.4588 -0.5964
 8909SOL    HW139200   7.905   0.460   1.704  3.6703  1.4080  0.0513
 8909SOL    HW239201   7.833   0.600   1.749 -0.0204 -0.1368 -0.8870
 8910SOL     OW39202   1.633   7.425   6.735  0.1475 -0.5266 -0.1430
 8910SOL    HW139203   1.669   7.478   6.812 -0.2137 -1.2980  0.5630
 8910SOL    HW239204   1.533   7.425   6.738  0.1354 -0.5566 -0.6058
 8911SOL     OW39205   8.056   2.213   6.462 -0.4273  0.0402 -0.2876
 8911SOL    HW139206   7.998   2.294   6.464 -0.4961 -0.0192  0.1629
 8911SOL    HW239207   8.082   2.193   6.368  0.4459  1.1998 -0.2985
 8912SOL     OW39208   6.480   6.523   7.595 -0.1486  0.4139 -0.1188
 8912SOL    HW139209   6.515   6.453   7.658 -1.2368  0.4697  0.5570
 8912SOL    HW239210   6.556   6.562   7.543  0.9093  0.9820  1.7941
 8913SOL     OW39211   3.588   8.367   3.610  0.1898  0.4677 -0.7681
 8913SOL    HW139212   3.637   8.448   3.580 -0.7668  1.3519  0.0345
 8913SOL    HW239213   3.580   8.303   3.534  0.7175  1.2405 -1.4784
 8914SOL     OW39214   8.374   6.040   3.967  0.4258  0.3369  0.4258
 8914SOL    HW139215   8.434   6.023   4.045  1.1298 -1.5086 -0.4732
 8914SOL    HW239216   8.427   6.081   3.892  0.3438 -0.3295 -0.0015
 8915SOL     OW39217   5.358   4.390   8.893  0.2386 -0.1442  0.1852
 8915SOL    HW139218   5.356   4.402   8.794 -0.5726  2.1134  0.4409
 8915SOL    HW239219   5.425   4.453   8.932  0.5616 -1.0322  1.0909
 8916SOL     OW39220   8.434   3.617   0.037  0.3943 -0.0413  0.4012
 8916SOL    HW139221   8.423   3.543   0.104  1.5616  0.7071  1.4406
 8916SOL    HW239222   8.372   3.692   0.059  2.2848  1.1195  1.9701
 8917SOL     OW39223   4.093   7.691   6.959  0.1919 -0.0207 -0.4216
 8917SOL    HW139224   4.055   7.753   7.027  0.4788 -0.4608  0.1401
 8917SOL    HW239225   4.076   7.728   6.867  0.6045  1.0217 -0.0877
 8918SOL     OW39226   8.518   0.697   0.944 -0.2747  0.3642 -0.8900
 8918SOL    HW139227   8.453   0.642   0.997  0.8627  0.0787  0.2301
 8918SOL    HW239228   8.532   0.654   0.854  0.0688 -0.7890 -0.2891
 8919SOL     OW39229   3.665   7.447   8.198 -0.9440  0.6478  0.4923
 8919SOL    HW139230   3.722   7.384   8.251 -0.3705 -1.0854 -2.0968
 8919SOL    HW239231   3.571   7.414   8.197 -0.6653 -0.1371 -0.7720
 8920SOL     OW39232   3.842   3.725   1.064 -0.3796 -0.9256 -0.0050
 8920SOL    HW139233   3.843   3.757   0.970 -0.2275  0.9001  0.6027
 8920SOL    HW239234   3.804   3.632   1.068 -1.0548 -0.7268 -1.7558
 8921SOL     OW39235   2.126   6.385   6.916  0.2632 -0.2265  0.0671
 8921SOL    HW139236   2.223   6.365   6.907  0.5070  1.5220 -1.8308
 8921SOL    HW239237   2.109   6.435   7.001  1.0001 -0.6552  0.4661
 8922SOL     OW39238   1.255   8.642   2.157  0.2641  0.3719  0.1424
 8922SOL    HW139239   1.276   8.736   2.128 -3.0492  0.9695 -0.5109
 8922SOL    HW239240   1.240   8.641   2.256  1.5193  0.2715  0.3408
 8923SOL     OW39241   2.936   7.836   6.023  0.5378 -0.5236 -0.0559
 8923SOL    HW139242   2.930   7.738   6.003  1.9423 -0.6478  0.0640
 8923SOL    HW239243   2.955   7.848   6.121  2.9684 -0.2403 -0.5253
 8924SOL     OW39244   8.834   4.688   2.602  0.2452  0.1291  0.0729
 8924SOL    HW139245   8.927   4.652   2.594  0.4548  0.8094 -0.5771
 8924SOL    HW239246   8.774   4.641   2.538  0.1541 -0.2663  0.4481
 8925SOL     OW39247   7.692   5.554   3.726  0.3009 -0.0552  0.1587
 8925SOL    HW139248   7.640   5.532   3.643  1.3853 -2.4082  0.0431
 8925SOL    HW239249   7.638   5.528   3.806 -1.7265  4.3358  0.3806
 8926SOL     OW39250   5.860   5.493   6.308 -0.6780 -0.2439  0.1942
 8926SOL    HW139251   5.865   5.409   6.362 -2.7516 -1.1799 -1.0032
 8926SOL    HW239252   5.783   5.549   6.339 -1.6003 -0.5694 -1.4148
 8927SOL     OW39253   4.081   6.746   8.987 -0.6438 -0.4648 -0.1379
 8927SOL    HW139254   4.160   6.706   8.939  0.1218  0.5437  0.2613
 8927SOL    HW239255   4.004   6.683   8.983 -0.0075 -1.1915 -1.0882
 8928SOL     OW39256   6.395   0.981   3.070 -0.0444  0.3698  0.0925
 8928SOL    HW139257   6.346   1.061   3.035 -0.9416 -0.0959  0.2538
 8928SOL    HW239258   6.482   0.972   3.022  0.4053  1.8657  0.5869
 8929SOL     OW39259   1.792   3.997   3.233 -0.1156 -0.0408 -0.9401
 8929SOL    HW139260   1.838   4.024   3.149 -0.2253  0.9910 -0.6761
 8929SOL    HW239261   1.857   3.953   3.295  0.8044  2.3978 -0.1105
 8930SOL     OW39262   0.280   6.285   3.107  0.3086 -0.0075 -0.0641
 8930SOL    HW139263   0.301   6.383   3.099  0.3076  0.0006  0.0352
 8930SOL    HW239264   0.202   6.273   3.169  0.5288 -0.0942  0.1995
 8931SOL     OW39265   1.250   1.721   8.607 -0.0494  0.0082 -0.5850
 8931SOL    HW139266   1.279   1.691   8.516  2.1451 -3.3429  1.1006
 8931SOL    HW239267   1.159   1.684   8.626 -0.4869  0.6577 -1.3600
 8932SOL     OW39268   3.651   2.049   3.167 -0.0460  0.1931  0.1772
 8932SOL    HW139269   3.597   2.075   3.247 -0.8671 -0.1162 -0.2720
 8932SOL    HW239270   3.595   1.995   3.105  0.8302 -0.2666 -0.2234
 8933SOL     OW39271   8.196   1.774   6.269 -0.1723  0.0911 -0.5421
 8933SOL    HW139272   8.199   1.772   6.169  0.1355  0.4664 -0.5423
 8933SOL    HW239273   8.114   1.726   6.301 -0.6823  0.6487 -1.0006
 8934SOL     OW39274   2.141   5.378   8.871  0.1108 -0.5573 -0.1546
 8934SOL    HW139275   2.083   5.420   8.941  2.1236 -1.2863  2.0113
 8934SOL    HW239276   2.105   5.288   8.847 -0.8031 -0.1426 -0.3609
 8935SOL     OW39277   4.898   5.255   3.347 -0.3921 -0.1481  0.1081
 8935SOL    HW139278   4.805   5.262   3.312  0.1093 -0.3967 -1.3089
 8935SOL    HW239279   4.960   5.307   3.289  0.5852 -1.2615  0.1310
 8936SOL     OW39280   4.547   0.983   3.588  0.4720  0.2518 -0.1957
 8936SOL    HW139281   4.596   0.897   3.604  0.3651  0.1207 -0.5660
 8936SOL    HW239282   4.450   0.971   3.607  0.5983  0.5436  0.6507
 8937SOL     OW39283   6.448   2.848   1.551  0.4787  0.2941  0.3900
 8937SOL    HW139284   6.426   2.758   1.513  0.4291  0.9064 -1.0576
 8937SOL    HW239285   6.545   2.850   1.576 -0.0402 -0.9401  2.6850
 8938SOL     OW39286   5.822   7.261   0.159  0.1499 -0.5643 -0.0494
 8938SOL    HW139287   5.821   7.335   0.092  1.8003  1.2260  1.8106
 8938SOL    HW239288   5.904   7.205   0.148 -0.5259 -1.4277 -0.7273
 8939SOL     OW39289   8.236   1.329   1.522 -0.4854  0.1685  0.2788
 8939SOL    HW139290   8.166   1.382   1.475  0.7566  0.8623 -0.8101
 8939SOL    HW239291   8.250   1.367   1.614  0.4055  1.7470 -0.4977
 8940SOL     OW39292   8.614   3.336   4.680  0.4252  0.3444  0.0912
 8940SOL    HW139293   8.666   3.384   4.609  4.0318 -0.3404  2.1099
 8940SOL    HW239294   8.565   3.402   4.736  1.7931  1.3619  0.1290
 8941SOL     OW39295   5.525   8.834   7.736 -0.7483  0.3132  0.1590
 8941SOL    HW139296   5.488   8.890   7.810  0.9672 -0.8850  1.9689
 8941SOL    HW239297   5.609   8.875   7.702  0.2905 -0.8972  1.2104
 8942SOL     OW39298   1.711   8.102   6.372 -0.8253  0.6945 -0.2922
 8942SOL    HW139299   1.647   8.058   6.308 -1.8078  0.6832  0.6782
 8942SOL    HW239300   1.681   8.197   6.387 -2.4455 -0.2167  2.5647
 8943SOL     OW39301   4.923   0.274   3.257  0.7949  0.1313 -0.1129
 8943SOL    HW139302   4.944   0.216   3.336  0.3740  0.2831  0.1101
 8943SOL    HW239303   4.968   0.363   3.269 -1.9079  1.3313  1.5295
 8944SOL     OW39304   5.804   4.210   4.201 -0.3380 -0.0960 -0.1421
 8944SOL    HW139305   5.760   4.298   4.188 -1.1017 -0.4244  0.1959
 8944SOL    HW239306   5.764   4.143   4.139 -0.8941 -0.5920  0.7360
 8945SOL     OW39307   3.291   3.270   0.494  0.1059  0.3459 -0.0938
 8945SOL    HW139308   3.303   3.172   0.511  3.3109  1.0110  1.9110
 8945SOL    HW239309   3.272   3.316   0.581 -1.1059  1.5768 -0.9858
 8946SOL     OW39310   0.079   6.253   0.596  0.3869  0.2833  0.8356
 8946SOL    HW139311   0.119   6.319   0.660  2.3924 -0.2690  0.1795
 8946SOL    HW239312   0.053   6.170   0.645 -2.3697  1.6214  1.7085
 8947SOL     OW39313   5.676   6.017   4.120 -0.3768  0.5669 -0.1081
 8947SOL    HW139314   5.701   5.951   4.191 -0.9639  0.0878 -0.3429
 8947SOL    HW239315   5.734   6.003   4.040 -0.7532  0.0887 -0.2971
 8948SOL     OW39316   3.252   2.517   4.403 -0.1665 -0.3045  0.9008
 8948SOL    HW139317   3.300   2.432   4.381 -0.7184 -0.5299  0.5427
 8948SOL    HW239318   3.173   2.527   4.342  0.2634  0.7842  0.5145
 8949SOL     OW39319   1.055   7.356   8.092 -0.4466 -0.1635 -0.5316
 8949SOL    HW139320   1.102   7.403   8.167  0.6033  5.5507 -4.4556
 8949SOL    HW239321   1.108   7.276   8.065  3.2667  2.0279 -0.0627
 8950SOL     OW39322   5.050   6.169   3.896  0.2029 -0.1609  0.0449
 8950SOL    HW139323   5.073   6.072   3.902  1.7363  0.0606 -1.7454
 8950SOL    HW239324   4.957   6.180   3.861 -1.0210 -0.9881  2.8472
 8951SOL     OW39325   1.090   4.347   6.149 -0.9812  0.0419  0.2161
 8951SOL    HW139326   1.019   4.279   6.133 -1.2048  0.5303 -0.8559
 8951SOL    HW239327   1.080   4.384   6.242 -0.9719 -1.2373  0.7440
 8952SOL     OW39328   1.850   6.863   1.764 -0.3213  0.4566 -0.2781
 8952SOL    HW139329   1.925   6.850   1.828 -0.7148 -0.7188 -0.0372
 8952SOL    HW239330   1.794   6.941   1.793  0.1356  0.6111  0.1879
 8953SOL     OW39331   1.774   0.994   5.905 -0.2982  0.1639  0.3500
 8953SOL    HW139332   1.818   1.005   5.994  0.0397 -1.0050  0.3396
 8953SOL    HW239333   1.833   1.030   5.834  0.0399 -0.1426  0.4716
 8954SOL     OW39334   3.778   8.773   1.974 -0.0456  0.0342  0.2778
 8954SOL    HW139335   3.836   8.850   1.948  0.3132  0.4380  2.1706
 8954SOL    HW239336   3.792   8.752   2.071 -2.2645 -0.5450  0.5129
 8955SOL     OW39337   1.621   2.731   3.824 -0.2391  0.5143  0.0998
 8955SOL    HW139338   1.531   2.741   3.867  0.5481  0.6327  1.7704
 8955SOL    HW239339   1.655   2.638   3.838  0.9556  1.1463  1.6851
 8956SOL     OW39340   3.883   1.593   0.705 -0.2674  0.3244  0.1966
 8956SOL    HW139341   3.925   1.649   0.634  1.8760 -0.8870  0.4731
 8956SOL    HW239342   3.901   1.496   0.686 -0.4005 -0.0496  1.9119
 8957SOL     OW39343   3.640   1.302   3.942  0.2112 -0.3065  0.3207
 8957SOL    HW139344   3.724   1.356   3.935  1.3031 -2.0806 -0.5505
 8957SOL    HW239345   3.663   1.205   3.952 -1.7398 -0.8643 -0.3145
 8958SOL     OW39346   6.814   0.948   7.048  0.1536 -0.6048  0.1727
 8958SOL    HW139347   6.761   0.966   7.131 -2.3402  1.9034 -1.8535
 8958SOL    HW239348   6.890   1.012   7.042  0.2313 -0.6725  0.4363
 8959SOL     OW39349   4.786   4.917   5.403  0.0241  0.1224 -0.0537
 8959SOL    HW139350   4.808   4.956   5.493  1.3597  0.8232 -0.6792
 8959SOL    HW239351   4.774   4.818   5.413  0.5394  0.1392  0.8347
 8960SOL     OW39352   3.639   5.683   8.091 -0.0906  0.1699 -0.5208
 8960SOL    HW139353   3.552   5.709   8.051  0.0278 -0.3255 -1.1057
 8960SOL    HW239354   3.649   5.583   8.089 -0.3777  0.0850  1.3676
 8961SOL     OW39355   1.974   3.245   3.900 -0.5139 -0.5530  0.2866
 8961SOL    HW139356   1.960   3.167   3.960  0.5676  0.1731  1.5138
 8961SOL    HW239357   1.929   3.326   3.939 -1.6904 -0.5745 -1.0074
 8962SOL     OW39358   6.796   3.404   8.796 -0.0857 -0.3115  0.2899
 8962SOL    HW139359   6.742   3.347   8.734 -0.2817  0.3007 -0.1088
 8962SOL    HW239360   6.795   3.364   8.887 -2.1359  0.2836  0.5443
 8963SOL     OW39361   4.299   0.209   0.880 -0.3685  0.7262 -0.0548
 8963SOL    HW139362   4.320   0.304   0.857 -0.1244  1.2450  2.2143
 8963SOL    HW239363   4.252   0.206   0.969  1.8509 -1.4670  1.0865
 8964SOL     OW39364   4.868   4.264   3.372  0.4258 -0.1512  0.0342
 8964SOL    HW139365   4.872   4.185   3.310  2.5789 -1.0426  1.2874
 8964SOL    HW239366   4.894   4.346   3.322 -0.4432 -0.4272 -0.9091
 8965SOL     OW39367   1.631   7.026   8.688  0.2346 -0.2005  0.0690
 8965SOL    HW139368   1.698   7.027   8.762 -0.1709 -1.5129  0.4602
 8965SOL    HW239369   1.669   6.978   8.609  0.2113  0.1523 -0.1610
 8966SOL     OW39370   2.741   8.402   1.228  0.2121 -0.2572  0.4931
 8966SOL    HW139371   2.649   8.423   1.194  0.1133 -1.2016  0.1587
 8966SOL    HW239372   2.752   8.303   1.236  0.4338 -0.0779  2.7041
 8967SOL     OW39373   8.787   6.529   1.561 -0.1341 -0.2914 -0.1402
 8967SOL    HW139374   8.707   6.532   1.620 -0.1560  3.5054 -0.2121
 8967SOL    HW239375   8.866   6.496   1.613 -1.0290 -0.9347  0.8324
 8968SOL     OW39376   6.142   5.958   0.319 -0.2027 -0.4125  0.0629
 8968SOL    HW139377   6.238   5.980   0.334 -0.2634 -1.2607  1.8684
 8968SOL    HW239378   6.116   5.880   0.377 -1.6133 -1.1119 -1.4502
 8969SOL     OW39379   5.697   8.186   6.938  0.1070 -0.2047 -0.0212
 8969SOL    HW139380   5.772   8.248   6.916 -0.3261  0.1700 -0.4300
 8969SOL    HW239381   5.635   8.230   7.003  2.2400 -1.8801  3.2695
 8970SOL     OW39382   0.104   1.716   3.637  0.0100  0.4820  0.0393
 8970SOL    HW139383   0.071   1.727   3.543 -0.3291 -0.4277  0.0466
 8970SOL    HW239384   0.026   1.699   3.698 -0.0698  3.6621  0.9129
 8971SOL     OW39385   6.754   3.058   0.566  0.3388  0.3495  0.1022
 8971SOL    HW139386   6.658   3.078   0.545 -1.1311 -3.7078  2.4894
 8971SOL    HW239387   6.795   3.136   0.614 -1.6765  2.1634 -1.0537
 8972SOL     OW39388   6.727   3.939   5.298  0.7282 -0.2671 -0.1483
 8972SOL    HW139389   6.705   3.848   5.334 -0.1736  0.4890  1.2220
 8972SOL    HW239390   6.667   3.960   5.221 -0.6607  0.1361  1.0338
 8973SOL     OW39391   7.694   5.384   4.506  0.1735 -0.1771  0.4928
 8973SOL    HW139392   7.757   5.434   4.447 -0.0267  0.3481  0.7201
 8973SOL    HW239393   7.715   5.287   4.504  0.1891 -0.1539 -0.4212
 8974SOL     OW39394   2.328   8.456   2.954 -0.4324 -0.1803 -0.1935
 8974SOL    HW139395   2.364   8.402   2.877  0.3331  0.4031 -0.2519
 8974SOL    HW239396   2.381   8.541   2.962 -0.8507 -0.0013  0.6549
 8975SOL     OW39397   7.758   2.711   3.720  0.3654 -0.1588  0.3007
 8975SOL    HW139398   7.797   2.623   3.745  0.9007  0.0077  0.0647
 8975SOL    HW239399   7.734   2.762   3.802  0.2573 -0.4340  0.4402
 8976SOL     OW39400   5.338   3.944   3.255 -0.0948 -0.0254 -0.0861
 8976SOL    HW139401   5.366   3.880   3.326  1.3053  0.2090 -0.4184
 8976SOL    HW239402   5.287   4.019   3.297 -1.9920 -1.4740  0.2633
 8977SOL     OW39403   6.837   4.131   5.478 -0.1516 -0.8306 -0.0090
 8977SOL    HW139404   6.842   4.076   5.394  0.4454  0.4603 -0.8354
 8977SOL    HW239405   6.758   4.192   5.472  0.4092 -0.0976 -0.0383
 8978SOL     OW39406   7.866   7.324   2.194 -0.2992  0.4864 -0.1973
 8978SOL    HW139407   7.831   7.260   2.126 -0.3147  1.7526 -1.3868
 8978SOL    HW239408   7.966   7.320   2.196 -0.2145  1.6158 -1.4642
 8979SOL     OW39409   0.816   2.965   3.307  0.0403 -0.0960 -0.1901
 8979SOL    HW139410   0.853   2.910   3.382 -0.2931 -0.6260 -0.4112
 8979SOL    HW239411   0.729   3.005   3.335  0.7325  1.0788  0.2990
 8980SOL     OW39412   0.235   6.890   1.488  0.1877  0.5592 -0.2947
 8980SOL    HW139413   0.297   6.906   1.411  3.1267  0.5453  2.0008
 8980SOL    HW239414   0.224   6.975   1.540 -1.8415  0.5825 -0.7244
 8981SOL     OW39415   8.221   4.021   5.675 -0.2852  0.1855  0.6834
 8981SOL    HW139416   8.226   3.922   5.665 -1.9219  0.0107  1.4101
 8981SOL    HW239417   8.149   4.057   5.615 -0.6853  0.7588  1.4946
 8982SOL     OW39418   1.537   8.445   2.842 -0.0148 -0.1573 -0.1075
 8982SOL    HW139419   1.528   8.533   2.796  1.2198 -0.5145 -1.0697
 8982SOL    HW239420   1.547   8.460   2.940 -0.7270  0.7219 -0.1638
 8983SOL     OW39421   5.552   1.396   1.453  0.6446  0.5445 -0.5857
 8983SOL    HW139422   5.553   1.297   1.462 -0.7355  0.5246 -0.5948
 8983SOL    HW239423   5.620   1.436   1.514 -0.2048 -0.2994  0.9405
 8984SOL     OW39424   4.970   0.810   8.061  0.5775 -0.1177 -0.1139
 8984SOL    HW139425   4.958   0.716   8.093  3.7389 -0.4827  0.1215
 8984SOL    HW239426   4.946   0.874   8.135  0.5646 -0.7870  0.4685
 8985SOL     OW39427   4.322   3.365   3.389 -0.0645 -0.3214 -0.4827
 8985SOL    HW139428   4.306   3.382   3.487 -2.0838 -0.3880 -0.7734
 8985SOL    HW239429   4.413   3.396   3.364 -0.3951  1.8955  0.9343
 8986SOL     OW39430   4.442   2.817   6.017 -0.0029  0.6697  0.0974
 8986SOL    HW139431   4.476   2.774   5.934 -2.4832 -0.9013 -0.1638
 8986SOL    HW239432   4.398   2.904   5.994 -1.2064 -0.0422 -0.3348
 8987SOL     OW39433   7.200   2.709   6.872  0.6180 -0.0683 -0.5208
 8987SOL    HW139434   7.226   2.802   6.897  0.2628  0.4545 -2.0279
 8987SOL    HW239435   7.159   2.709   6.781 -0.0978 -1.5941 -0.2203
 8988SOL     OW39436   2.524   4.109   0.401  0.8609  0.5439 -0.1548
 8988SOL    HW139437   2.534   4.034   0.336 -1.0752 -1.5311  1.8331
 8988SOL    HW239438   2.612   4.126   0.446  1.7483  0.7352 -1.9036
 8989SOL     OW39439   3.084   5.223   6.603  0.2530  0.6598 -0.0251
 8989SOL    HW139440   3.124   5.148   6.655 -0.4374 -0.9350 -1.7179
 8989SOL    HW239441   3.153   5.263   6.543 -0.4487 -1.7504 -2.5635
 8990SOL     OW39442   7.418   6.856   3.428 -0.3841  0.4108 -0.1177
 8990SOL    HW139443   7.331   6.822   3.391 -0.6748 -1.3300  2.1176
 8990SOL    HW239444   7.476   6.886   3.352 -2.2956  0.1027 -1.7528
 8991SOL     OW39445   2.953   6.284   2.414  0.3511 -0.0690  0.2994
 8991SOL    HW139446   2.870   6.340   2.418  1.0471  0.8797  2.1528
 8991SOL    HW239447   3.030   6.342   2.388  0.7162 -0.6111  0.1697
 8992SOL     OW39448   7.034   7.563   3.861  0.5683 -0.6492  0.5254
 8992SOL    HW139449   6.948   7.614   3.864 -0.1547 -1.8733  1.0058
 8992SOL    HW239450   7.015   7.465   3.855  1.8675 -1.1234  3.1778
 8993SOL     OW39451   7.115   2.817   1.410  0.2407 -0.3353  0.7714
 8993SOL    HW139452   7.111   2.721   1.439  1.0650  0.1236  2.4713
 8993SOL    HW239453   7.181   2.866   1.466  1.6112  0.7184 -1.6647
 8994SOL     OW39454   6.317   2.744   6.988  0.4678  0.5524  0.1085
 8994SOL    HW139455   6.390   2.779   6.929  0.5227 -2.1113 -1.4508
 8994SOL    HW239456   6.228   2.767   6.948  0.5036 -0.7138 -0.7271
 8995SOL     OW39457   3.725   2.659   6.761  0.4902  0.0823  0.0662
 8995SOL    HW139458   3.803   2.607   6.725 -0.7837 -1.3053 -0.7828
 8995SOL    HW239459   3.716   2.642   6.859  0.0437 -1.4046 -0.2166
 8996SOL     OW39460   7.383   5.052   5.672  0.2281  0.0696  0.0405
 8996SOL    HW139461   7.410   4.956   5.670  1.3167  0.3821 -0.4536
 8996SOL    HW239462   7.435   5.099   5.743 -0.0427  0.3761  0.0345
 8997SOL     OW39463   8.024   8.705   7.247  0.4449  0.9295 -0.1045
 8997SOL    HW139464   8.091   8.700   7.174 -0.5049 -0.3614 -0.9175
 8997SOL    HW239465   7.993   8.799   7.258  1.2986  1.2841 -0.7093
 8998SOL     OW39466   4.391   5.043   4.190 -0.3746 -0.2760  0.7089
 8998SOL    HW139467   4.303   5.084   4.211 -0.2917  0.0521  0.4247
 8998SOL    HW239468   4.383   4.943   4.193 -1.1450 -0.2772 -0.8266
 8999SOL     OW39469   5.109   1.938   7.037  0.1664 -0.1285 -0.0646
 8999SOL    HW139470   5.190   1.977   7.081 -1.6057  0.8410  2.4291
 8999SOL    HW239471   5.049   2.013   7.008 -0.5150 -0.8865 -0.6124
 9000SOL     OW39472   8.231   2.813   8.091 -0.3128  0.5321  0.1128
 9000SOL    HW139473   8.144   2.768   8.076  0.0849 -0.1651 -0.1346
 9000SOL    HW239474   8.304   2.760   8.048  0.0839  1.7558 -0.7741
 9001SOL     OW39475   4.116   4.920   5.194  0.0085  0.6213 -0.1921
 9001SOL    HW139476   4.164   4.897   5.279 -2.7637 -0.8506  1.0568
 9001SOL    HW239477   4.153   4.867   5.118  0.0401 -0.8574  0.8427
 9002SOL     OW39478   3.481   2.436   0.565 -0.1032 -0.3587 -0.4415
 9002SOL    HW139479   3.492   2.472   0.657  1.0411  0.4035 -0.8682
 9002SOL    HW239480   3.472   2.511   0.500  0.3354 -0.8688 -1.1012
 9003SOL     OW39481   0.616   6.253   2.348 -0.2065 -0.5576 -0.4519
 9003SOL    HW139482   0.679   6.206   2.410  0.8373  0.6794 -0.5429
 9003SOL    HW239483   0.551   6.306   2.402 -0.5595 -1.0717 -0.3734
 9004SOL     OW39484   3.519   1.840   0.474  0.4047  0.1824  0.0620
 9004SOL    HW139485   3.422   1.864   0.472  0.6383  1.0347 -1.4068
 9004SOL    HW239486   3.532   1.763   0.537 -1.1518  0.3379  0.6096
 9005SOL     OW39487   8.203   8.795   0.828  0.3359 -0.3012  0.1000
 9005SOL    HW139488   8.182   8.776   0.923 -0.2885 -0.2390 -0.0204
 9005SOL    HW239489   8.265   8.873   0.822  0.9597 -0.7677  0.4835
 9006SOL     OW39490   7.641   5.525   3.398  0.4558  0.0162 -0.0089
 9006SOL    HW139491   7.677   5.435   3.372 -0.7751 -0.4157 -0.2201
 9006SOL    HW239492   7.591   5.564   3.321  0.0276  0.3946  0.4625
 9007SOL     OW39493   6.412   4.718   0.896  0.4559 -0.4073 -0.5344
 9007SOL    HW139494   6.335   4.731   0.832  0.7638 -0.2902 -0.8831
 9007SOL    HW239495   6.377   4.689   0.985 -0.0412  0.2567 -0.5132
 9008SOL     OW39496   0.339   7.693   8.316 -0.5864  0.8059 -0.3566
 9008SOL    HW139497   0.438   7.704   8.315 -0.4440 -0.2443  0.6763
 9008SOL    HW239498   0.299   7.753   8.385 -0.4507 -0.2945  0.6988
 9009SOL     OW39499   6.738   3.533   1.879  0.1810 -0.4139 -0.3882
 9009SOL    HW139500   6.697   3.520   1.789 -0.0436 -0.7938 -0.2319
 9009SOL    HW239501   6.769   3.628   1.888 -0.3968 -0.1987 -0.6226
 9010SOL     OW39502   0.846   4.059   4.093 -0.0554  0.3932 -0.4600
 9010SOL    HW139503   0.755   4.020   4.112 -0.1674  1.0494  0.3710
 9010SOL    HW239504   0.897   4.066   4.178  0.1070  1.7110 -0.6685
 9011SOL     OW39505   6.043   6.337   2.346 -0.3899  0.1653  0.3320
 9011SOL    HW139506   5.985   6.349   2.427 -0.6809  0.6836  0.0479
 9011SOL    HW239507   6.031   6.414   2.284 -0.8194 -0.6404 -0.6164
 9012SOL     OW39508   7.698   4.263   4.725 -0.3954  0.2923 -0.1546
 9012SOL    HW139509   7.782   4.315   4.708 -0.7987  0.1321 -2.8820
 9012SOL    HW239510   7.640   4.313   4.789  1.2268  0.9594  0.8518
 9013SOL     OW39511   3.630   8.291   6.152 -0.5031 -0.5509  0.5164
 9013SOL    HW139512   3.532   8.309   6.154 -0.3868  0.1107  0.5523
 9013SOL    HW239513   3.677   8.370   6.112 -0.0316 -1.0554  0.0813
 9014SOL     OW39514   7.075   7.856   7.805  0.0616 -0.0636 -0.6251
 9014SOL    HW139515   7.020   7.789   7.755  1.0004 -1.9247  0.7587
 9014SOL    HW239516   7.124   7.810   7.879  0.8674  2.1451  0.2581
 9015SOL     OW39517   0.525   2.440   4.405  0.2278 -0.3828  0.3696
 9015SOL    HW139518   0.503   2.534   4.378  1.5178 -0.6813 -1.8611
 9015SOL    HW239519   0.610   2.441   4.459  0.3159 -0.2805  0.2303
 9016SOL     OW39520   3.785   8.430   8.596  0.2651 -0.4688 -0.0060
 9016SOL    HW139521   3.770   8.376   8.513  0.2267  1.0869 -1.0366
 9016SOL    HW239522   3.697   8.464   8.630  0.2820 -1.0913  0.6720
 9017SOL     OW39523   4.665   3.921   2.274 -0.1774 -0.1517 -0.2492
 9017SOL    HW139524   4.653   3.999   2.335 -1.2853 -0.3036 -0.2650
 9017SOL    HW239525   4.625   3.942   2.185 -3.7903 -2.0738  0.8532
 9018SOL     OW39526   2.039   3.401   6.752  0.0906 -0.3134 -0.3233
 9018SOL    HW139527   2.056   3.434   6.845 -0.7190 -0.4179 -0.1391
 9018SOL    HW239528   1.982   3.319   6.756 -1.4104  0.6842 -1.0048
 9019SOL     OW39529   3.372   1.476   7.161  0.2429 -0.7098 -0.0268
 9019SOL    HW139530   3.296   1.539   7.143  0.8528  0.2231  0.6637
 9019SOL    HW239531   3.342   1.382   7.141 -1.2607 -0.4024  0.7038
 9020SOL     OW39532   5.344   6.125   7.207  0.0405  0.1758  0.1656
 9020SOL    HW139533   5.431   6.133   7.255  0.5776 -0.0664 -0.7563
 9020SOL    HW239534   5.325   6.029   7.188 -0.4725  0.2209  0.4277
 9021SOL     OW39535   5.769   8.099   4.905  0.1879 -0.2122 -0.1256
 9021SOL    HW139536   5.766   8.030   4.834  0.4340  0.1555 -0.4963
 9021SOL    HW239537   5.684   8.096   4.958  0.2974 -0.9525  0.0150
 9022SOL     OW39538   4.081   7.304   4.577 -0.0502 -0.1041  0.9358
 9022SOL    HW139539   4.013   7.270   4.642  0.9803  0.2886  2.2392
 9022SOL    HW239540   4.131   7.226   4.538  0.0678 -0.2708  1.4228
 9023SOL     OW39541   3.222   1.470   8.115  0.3654 -0.9454 -0.3062
 9023SOL    HW139542   3.213   1.569   8.126 -0.0795 -1.2056  1.9610
 9023SOL    HW239543   3.319   1.446   8.111  0.4971 -0.4948  0.0502
 9024SOL     OW39544   8.342   3.780   4.301  0.5277  0.1603 -0.2598
 9024SOL    HW139545   8.438   3.760   4.280  0.2489 -0.1268 -1.2470
 9024SOL    HW239546   8.288   3.781   4.217 -0.2922  0.5882  0.2638
 9025SOL     OW39547   2.590   5.380   1.982  0.2585 -0.1126 -0.3516
 9025SOL    HW139548   2.499   5.344   1.960 -0.7407  2.7313 -1.0996
 9025SOL    HW239549   2.591   5.412   2.076 -0.2505  1.9133 -1.0051
 9026SOL     OW39550   6.849   4.385   8.788 -0.1597  0.2133 -0.2905
 9026SOL    HW139551   6.845   4.482   8.763  0.1052  0.0619 -0.9186
 9026SOL    HW239552   6.898   4.376   8.875  1.4432  0.4958 -1.1409
 9027SOL     OW39553   4.606   4.987   2.681  0.0776 -0.1603  0.1151
 9027SOL    HW139554   4.621   4.970   2.583  2.0206 -0.0033  0.3635
 9027SOL    HW239555   4.694   5.007   2.725 -0.3820 -2.7958  2.3838
 9028SOL     OW39556   1.270   5.568   8.024 -0.2573  0.2803  0.3883
 9028SOL    HW139557   1.309   5.606   8.108  2.8432 -2.6598  0.3767
 9028SOL    HW239558   1.296   5.626   7.946  1.1062  0.2821  0.8342
 9029SOL     OW39559   5.215   2.775   0.614  0.2435 -0.8360 -0.6864
 9029SOL    HW139560   5.185   2.684   0.586  0.7018 -1.0897 -0.3641
 9029SOL    HW239561   5.304   2.768   0.659 -0.6924 -0.4972  1.2527
 9030SOL     OW39562   3.618   5.771   2.444  0.3662  0.2981  0.3630
 9030SOL    HW139563   3.671   5.700   2.398  0.8783  0.5330  0.5848
 9030SOL    HW239564   3.639   5.770   2.542 -0.8789 -0.3505  0.6483
 9031SOL     OW39565   1.014   8.562   4.619 -0.4016 -0.1578  0.6085
 9031SOL    HW139566   1.066   8.607   4.547 -1.4514 -1.7480 -1.1729
 9031SOL    HW239567   1.010   8.622   4.699  1.6095  1.2245 -0.2713
 9032SOL     OW39568   7.621   2.141   3.496 -0.1863 -0.1707  0.2926
 9032SOL    HW139569   7.546   2.103   3.442 -0.1858  0.5008 -0.1947
 9032SOL    HW239570   7.618   2.241   3.491  2.0484 -0.1511 -1.5754
 9033SOL     OW39571   0.941   4.365   3.805 -0.3887  0.5756 -0.2398
 9033SOL    HW139572   0.981   4.359   3.713  1.1575  1.3302  0.3631
 9033SOL    HW239573   1.015   4.368   3.873 -1.5164 -0.1756  1.0471
 9034SOL     OW39574   8.206   3.171   4.435  0.6478 -0.2710  0.5142
 9034SOL    HW139575   8.243   3.153   4.344  0.6396 -0.7213  0.5995
 9034SOL    HW239576   8.277   3.158   4.504  0.4815 -0.5683  0.6280
 9035SOL     OW39577   8.856   3.108   2.569  0.5950  0.5201  0.3843
 9035SOL    HW139578   8.847   3.058   2.483  0.6175 -0.4075  0.9081
 9035SOL    HW239579   8.951   3.136   2.581  0.8065 -0.2735  0.6025
 9036SOL     OW39580   2.763   4.510   5.407  0.3436 -0.0837 -0.4704
 9036SOL    HW139581   2.756   4.561   5.321  1.8137 -0.4695 -0.8478
 9036SOL    HW239582   2.837   4.548   5.462 -0.9018  0.4571  0.8527
 9037SOL     OW39583   4.059   7.771   4.345  0.2008  0.1540  0.0672
 9037SOL    HW139584   3.971   7.817   4.357 -0.4649 -1.2285  0.5727
 9037SOL    HW239585   4.130   7.822   4.394 -0.3309  1.1918 -0.2228
 9038SOL     OW39586   7.950   3.819   5.978 -0.6239 -0.4426  0.1521
 9038SOL    HW139587   7.991   3.909   5.960  1.8301 -0.9672  2.7957
 9038SOL    HW239588   7.854   3.820   5.950 -0.0812  2.3213 -1.8296
 9039SOL     OW39589   4.243   8.702   8.846  0.1782  0.9173  0.2733
 9039SOL    HW139590   4.258   8.608   8.813 -0.2356  1.4903 -1.5540
 9039SOL    HW239591   4.150   8.711   8.879  0.4321  0.4929  1.1277
 9040SOL     OW39592   6.440   8.184   4.729  0.2309  0.1010 -0.3522
 9040SOL    HW139593   6.487   8.240   4.798 -1.4582  1.2668 -0.1325
 9040SOL    HW239594   6.429   8.238   4.646 -0.8809 -0.1170 -0.3411
 9041SOL     OW39595   2.992   2.749   6.846  0.0091 -0.6486  1.3436
 9041SOL    HW139596   3.031   2.665   6.886  1.0759 -0.7140  0.1859
 9041SOL    HW239597   2.993   2.742   6.747 -0.8940  0.3094  1.2617
 9042SOL     OW39598   3.440   2.396   3.110  0.3138 -0.1225  0.0045
 9042SOL    HW139599   3.391   2.318   3.148  0.0861 -0.4726 -0.9960
 9042SOL    HW239600   3.538   2.383   3.122  0.2767 -0.5880 -0.2128
 9043SOL     OW39601   6.494   8.028   6.444 -0.7302  0.5351 -0.1495
 9043SOL    HW139602   6.449   8.099   6.498 -0.4578  0.8617 -0.3427
 9043SOL    HW239603   6.427   7.961   6.414 -0.5869 -0.6005  2.0460
 9044SOL     OW39604   3.824   8.093   1.535 -0.4958  0.3468  0.1544
 9044SOL    HW139605   3.850   8.187   1.512  0.2087 -0.7321 -3.7813
 9044SOL    HW239606   3.906   8.040   1.556 -0.7933  0.2757  1.1810
 9045SOL     OW39607   4.638   5.906   0.922  0.4314 -0.4774 -0.1790
 9045SOL    HW139608   4.673   5.913   1.016  0.7802  0.2390 -0.3609
 9045SOL    HW239609   4.542   5.935   0.921  1.2381  2.2517 -0.5362
 9046SOL     OW39610   3.916   7.474   3.948 -0.1457 -0.0227 -0.1833
 9046SOL    HW139611   3.927   7.565   3.907  1.1432 -1.4212 -3.1030
 9046SOL    HW239612   3.832   7.432   3.913  0.1606 -0.6303 -0.1866
 9047SOL     OW39613   3.528   7.022   8.385  0.3771  0.0941 -0.0022
 9047SOL    HW139614   3.590   7.009   8.463  2.3981 -1.1854 -1.7671
 9047SOL    HW239615   3.466   6.944   8.379  0.8413 -0.2709 -0.1858
 9048SOL     OW39616   4.509   7.977   5.055 -0.6352  0.2060 -0.3487
 9048SOL    HW139617   4.496   8.076   5.049 -2.5154  0.0144  0.2947
 9048SOL    HW239618   4.598   7.958   5.097  0.4608  1.5996 -1.9450
 9049SOL     OW39619   1.826   4.678   2.760  0.2880 -0.3962  0.5214
 9049SOL    HW139620   1.850   4.751   2.823  0.3419  2.1983 -2.3790
 9049SOL    HW239621   1.909   4.636   2.723  0.2538 -1.4334  1.5766
 9050SOL     OW39622   2.627   2.162   7.082  0.0630 -0.2613  0.0120
 9050SOL    HW139623   2.615   2.198   7.175  0.1464  0.8051 -0.3851
 9050SOL    HW239624   2.681   2.078   7.086  1.2749  0.5431  0.8028
 9051SOL     OW39625   6.074   6.523   6.468 -0.8470  0.4320 -0.0436
 9051SOL    HW139626   6.076   6.613   6.425 -1.3939  0.0719 -0.8411
 9051SOL    HW239627   6.148   6.467   6.432 -0.3449  0.6418  0.6454
 9052SOL     OW39628   3.974   8.689   8.965  0.0476 -0.1332 -0.1166
 9052SOL    HW139629   3.985   8.589   8.969 -1.7622 -0.3225  0.8054
 9052SOL    HW239630   3.966   8.725   9.058  0.8765  0.9114 -0.4398
 9053SOL     OW39631   0.926   7.966   4.259 -0.5937 -0.9204  0.2648
 9053SOL    HW139632   0.929   8.062   4.287  0.1861 -0.8547 -0.0138
 9053SOL    HW239633   0.873   7.958   4.175  0.6310 -0.4982 -0.5676
 9054SOL     OW39634   0.617   8.424   6.822 -0.2234 -0.1751  0.8848
 9054SOL    HW139635   0.679   8.351   6.849  0.9681 -0.1083 -1.6282
 9054SOL    HW239636   0.526   8.386   6.803  0.0239 -0.7928  0.9486
 9055SOL     OW39637   2.254   5.061   0.402  0.8345 -0.5113  0.1959
 9055SOL    HW139638   2.341   5.024   0.367  1.2187  1.4749 -1.0629
 9055SOL    HW239639   2.260   5.073   0.501  2.5134  0.9200 -0.0632
 9056SOL     OW39640   5.321   8.523   1.456 -0.6127 -0.0388  0.4114
 9056SOL    HW139641   5.324   8.604   1.397  1.0839  0.0927  0.6657
 9056SOL    HW239642   5.251   8.460   1.422 -0.2896  0.4563 -1.2069
 9057SOL     OW39643   4.349   4.145   0.853 -0.3751 -0.2509 -0.4133
 9057SOL    HW139644   4.278   4.084   0.888  0.8699 -0.8069  1.2330
 9057SOL    HW239645   4.307   4.228   0.816 -1.9636 -1.2811 -0.9655
 9058SOL     OW39646   1.466   2.639   7.052  0.0939 -0.8095 -0.4269
 9058SOL    HW139647   1.448   2.630   7.150 -0.7909  1.8612 -0.3243
 9058SOL    HW239648   1.389   2.601   7.000  0.0045 -1.1049 -0.0780
 9059SOL     OW39649   0.450   8.290   0.457 -0.2716 -0.3798 -0.2615
 9059SOL    HW139650   0.402   8.207   0.486 -2.6949  0.9270 -0.3936
 9059SOL    HW239651   0.467   8.348   0.536  3.2329 -1.8134  0.1586
 9060SOL     OW39652   2.187   6.968   8.150 -0.0535 -0.6568 -0.6054
 9060SOL    HW139653   2.189   6.872   8.121  0.9583 -0.9223  0.3386
 9060SOL    HW239654   2.124   6.978   8.227 -0.4892 -0.4752 -0.9806
 9061SOL     OW39655   6.097   0.122   8.953 -0.3459  0.0067 -0.4349
 9061SOL    HW139656   6.094   0.026   8.927  1.1839 -0.7509  1.9789
 9061SOL    HW239657   6.192   0.155   8.950 -0.6439  0.9709  0.2828
 9062SOL     OW39658   3.635   6.045   0.349 -0.3315 -0.1477 -0.1414
 9062SOL    HW139659   3.640   6.125   0.409  0.3546 -1.1401  1.1320
 9062SOL    HW239660   3.559   5.986   0.378 -0.5454 -0.2061 -0.7953
 9063SOL     OW39661   7.142   6.754   1.242  0.0081 -0.1589  0.1246
 9063SOL    HW139662   7.202   6.684   1.204 -0.0350  0.0867 -0.4023
 9063SOL    HW239663   7.061   6.710   1.281  1.9925 -0.7740  3.7627
 9064SOL     OW39664   6.954   6.135   5.154  0.1433  0.4377  0.0328
 9064SOL    HW139665   6.958   6.216   5.095  0.6946  1.0557  0.8970
 9064SOL    HW239666   6.870   6.137   5.208 -0.6150 -0.3964 -1.0902
 9065SOL     OW39667   7.959   6.868   1.070  0.2696  0.5394 -0.4125
 9065SOL    HW139668   7.968   6.833   0.977  0.6399 -0.3353 -0.0564
 9065SOL    HW239669   8.038   6.926   1.091  0.1832  0.7433 -0.6451
 9066SOL     OW39670   2.263   4.966   1.130 -0.2719  0.0893  0.5750
 9066SOL    HW139671   2.355   5.002   1.143  0.0135 -0.3681 -0.2367
 9066SOL    HW239672   2.243   4.899   1.202  0.3649 -0.5037  0.2019
 9067SOL     OW39673   0.837   0.612   2.319  0.7138  0.3063  0.2204
 9067SOL    HW139674   0.812   0.701   2.357 -3.0087 -1.4224  2.0529
 9067SOL    HW239675   0.811   0.609   2.222  1.0626  1.2552  0.0862
 9068SOL     OW39676   7.413   2.066   3.314  0.2002  0.2435 -0.2407
 9068SOL    HW139677   7.377   1.974   3.331  1.0784 -0.0440  0.0710
 9068SOL    HW239678   7.337   2.132   3.314 -0.1120 -0.0676  2.4185
 9069SOL     OW39679   2.898   0.562   0.410 -0.0657 -0.4078 -0.2883
 9069SOL    HW139680   2.939   0.538   0.322 -1.0804 -0.8467 -0.6525
 9069SOL    HW239681   2.878   0.479   0.461  0.6325 -0.1501  0.4193
 9070SOL     OW39682   2.519   2.646   2.586 -0.4992  0.0637  0.7494
 9070SOL    HW139683   2.598   2.689   2.629  0.0861 -1.2549  1.0198
 9070SOL    HW239684   2.547   2.561   2.540 -1.6964 -0.2799  0.6216
 9071SOL     OW39685   7.731   3.423   1.707  0.1864  0.1293  0.4311
 9071SOL    HW139686   7.798   3.468   1.649 -1.7420  1.0417 -1.1688
 9071SOL    HW239687   7.754   3.326   1.716  2.0645  0.5631  0.4893
 9072SOL     OW39688   0.146   3.711   6.098 -0.3020 -0.7421 -0.2948
 9072SOL    HW139689   0.117   3.770   6.022 -1.6277 -1.0637 -0.0534
 9072SOL    HW239690   0.172   3.767   6.176 -1.9395 -0.4623  0.0687
 9073SOL     OW39691   2.615   6.101   1.485  0.0298 -0.0212 -0.2065
 9073SOL    HW139692   2.641   6.179   1.542 -0.7886 -0.1075  0.3006
 9073SOL    HW239693   2.527   6.119   1.441  1.2994  0.6065 -2.5556
 9074SOL     OW39694   3.103   6.082   4.901  0.1814  0.5831  0.1369
 9074SOL    HW139695   3.171   6.064   4.830  0.9022  0.3399  0.8644
 9074SOL    HW239696   3.136   6.155   4.961  1.4682 -1.8788  2.5827
 9075SOL     OW39697   0.967   3.711   4.507 -0.0789 -0.0573 -0.2046
 9075SOL    HW139698   0.876   3.684   4.476 -0.5170  1.1218  0.0283
 9075SOL    HW239699   1.014   3.632   4.546 -1.2489 -0.5258  0.2870
 9076SOL     OW39700   3.680   2.798   0.428 -0.0107 -0.3716 -0.1626
 9076SOL    HW139701   3.754   2.766   0.488 -0.6473 -0.8955  0.3480
 9076SOL    HW239702   3.621   2.721   0.405 -2.9922  0.8592  3.0421
 9077SOL     OW39703   1.215   5.325   8.299 -0.0824  0.5979  0.4972
 9077SOL    HW139704   1.210   5.318   8.200  0.6806  1.0247  0.4260
 9077SOL    HW239705   1.234   5.235   8.338 -0.4224  0.4229  0.2645
 9078SOL     OW39706   1.254   7.643   4.491 -0.0382 -0.0272 -0.0068
 9078SOL    HW139707   1.347   7.662   4.461 -0.1208  1.8547  0.8190
 9078SOL    HW239708   1.190   7.660   4.416  0.2781 -1.4041 -0.5993
 9079SOL     OW39709   8.920   3.148   6.814  0.0130  0.2206 -0.4161
 9079SOL    HW139710   8.967   3.152   6.726 -0.6749  1.0401 -0.7559
 9079SOL    HW239711   8.941   3.231   6.866  0.4025 -0.2521  0.1960
 9080SOL     OW39712   2.533   1.019   7.552 -0.0169  0.2010  0.2220
 9080SOL    HW139713   2.568   0.930   7.582 -0.5477  0.1797  0.7728
 9080SOL    HW239714   2.458   1.048   7.611 -1.0115  0.2031 -1.0176
 9081SOL     OW39715   2.497   8.742   3.601 -0.4122 -0.2413 -0.1521
 9081SOL    HW139716   2.558   8.821   3.611 -1.9498  0.6934  2.3176
 9081SOL    HW239717   2.546   8.659   3.628  0.7654  0.0382 -1.3803
 9082SOL     OW39718   3.335   0.665   0.086 -0.0191  0.2553  0.1053
 9082SOL    HW139719   3.275   0.708   0.019 -0.3061  1.1787  0.9405
 9082SOL    HW239720   3.381   0.587   0.044 -1.3217 -0.0854 -0.7334
 9083SOL     OW39721   1.201   4.006   0.980  0.1948 -0.1358 -0.3358
 9083SOL    HW139722   1.242   3.915   0.980 -1.2543 -0.8055 -0.2698
 9083SOL    HW239723   1.151   4.020   1.066 -0.6547  0.2220 -0.8804
 9084SOL     OW39724   5.571   7.738   8.570 -0.0981 -0.2000  0.4142
 9084SOL    HW139725   5.472   7.737   8.558 -0.1281  2.0434  0.3926
 9084SOL    HW239726   5.594   7.764   8.663  0.4953 -0.1302  0.2538
 9085SOL     OW39727   4.946   5.653   2.612 -0.3661 -0.1535 -0.4139
 9085SOL    HW139728   5.023   5.675   2.672  2.5157 -0.9688 -3.6167
 9085SOL    HW239729   4.884   5.590   2.658  1.2879 -0.1163  1.9545
 9086SOL     OW39730   6.514   2.915   0.480 -0.0890 -0.4457 -0.4136
 9086SOL    HW139731   6.554   2.829   0.449  3.5524  1.3971 -1.0777
 9086SOL    HW239732   6.486   2.969   0.401 -1.2155 -0.4477 -0.0323
 9087SOL     OW39733   6.109   6.136   6.802  0.5725  0.2082 -0.3281
 9087SOL    HW139734   6.123   6.145   6.704 -2.5221  2.7531 -0.6053
 9087SOL    HW239735   6.014   6.113   6.821  0.8753  0.7814  2.1325
 9088SOL     OW39736   4.414   7.422   3.271  0.0617 -0.4386  0.1781
 9088SOL    HW139737   4.448   7.333   3.242  0.8927  0.0120 -0.2637
 9088SOL    HW239738   4.326   7.411   3.317  0.0278 -1.4537 -0.1146
 9089SOL     OW39739   2.542   5.145   7.985  0.1863 -0.8167  0.7754
 9089SOL    HW139740   2.607   5.096   7.926  1.2058  0.6274  0.6673
 9089SOL    HW239741   2.593   5.194   8.056 -0.6823  1.3470 -0.0650
 9090SOL     OW39742   4.463   7.407   6.276 -0.2607  0.0182  0.0565
 9090SOL    HW139743   4.437   7.335   6.340  0.2903  0.0825  0.3539
 9090SOL    HW239744   4.469   7.369   6.184 -3.1117  0.3801 -0.3040
 9091SOL     OW39745   1.072   4.041   1.257 -0.3386  0.1905  0.0560
 9091SOL    HW139746   1.016   3.958   1.264  0.8913 -0.7013 -0.5081
 9091SOL    HW239747   1.041   4.108   1.325 -1.2477 -0.7865  0.6153
 9092SOL     OW39748   5.005   2.826   0.127  0.0270  0.0216 -0.0115
 9092SOL    HW139749   5.027   2.923   0.119  0.0721 -0.0175 -0.3765
 9092SOL    HW239750   4.971   2.792   0.040  2.6515 -0.9276 -0.7218
 9093SOL     OW39751   7.064   1.132   8.529 -0.2331  0.2200 -0.4270
 9093SOL    HW139752   7.011   1.083   8.598  1.7715 -0.6943  0.5008
 9093SOL    HW239753   7.020   1.220   8.509 -0.5093  0.8086  2.5317
 9094SOL     OW39754   1.921   8.476   3.497 -0.4808 -0.2082 -0.3332
 9094SOL    HW139755   1.938   8.377   3.499 -1.6810 -0.4289 -1.0081
 9094SOL    HW239756   1.998   8.522   3.454 -1.4869 -1.2043 -3.3323
 9095SOL     OW39757   0.925   4.224   2.925  0.2262 -0.4627 -0.2368
 9095SOL    HW139758   0.832   4.190   2.937 -0.3767  0.8546 -1.0820
 9095SOL    HW239759   0.980   4.155   2.880 -0.9881 -0.3305 -1.9499
 9096SOL     OW39760   2.510   3.480   1.174 -0.2964 -0.0187 -0.0370
 9096SOL    HW139761   2.425   3.439   1.207 -0.6013  1.9681  1.6849
 9096SOL    HW239762   2.587   3.446   1.228 -0.0650 -1.2847 -1.1452
 9097SOL     OW39763   4.838   1.292   7.557 -0.5373 -0.3929  0.1637
 9097SOL    HW139764   4.818   1.235   7.637  1.0382  0.4637  1.1753
 9097SOL    HW239765   4.839   1.388   7.583 -2.4504  0.0980 -1.3944
 9098SOL     OW39766   4.564   5.598   2.477  0.6074 -0.1476 -0.3654
 9098SOL    HW139767   4.567   5.604   2.377  0.2759 -1.9255 -0.4993
 9098SOL    HW239768   4.588   5.687   2.516 -0.6097  0.9604 -2.0326
 9099SOL     OW39769   1.350   7.273   8.678 -0.5252  0.2796  0.2015
 9099SOL    HW139770   1.345   7.240   8.772 -0.6180 -0.6341 -0.1205
 9099SOL    HW239771   1.278   7.231   8.623 -1.1008  1.5592 -0.0622
 9100SOL     OW39772   0.375   7.771   5.320 -0.1290 -0.2917  0.2970
 9100SOL    HW139773   0.393   7.829   5.241 -0.7840  1.5252  1.4516
 9100SOL    HW239774   0.298   7.808   5.372  2.5573  0.7350  3.8339
 9101SOL     OW39775   1.366   6.730   7.303  0.3807 -0.2091  0.2862
 9101SOL    HW139776   1.338   6.825   7.295 -0.3018 -0.2373  1.9898
 9101SOL    HW239777   1.386   6.693   7.212 -1.4457  0.9381 -0.6270
 9102SOL     OW39778   7.307   0.018   7.141 -0.5160  0.1291 -0.0985
 9102SOL    HW139779   7.224   0.005   7.087  0.4647  0.3850 -1.6782
 9102SOL    HW239780   7.319  -0.060   7.203 -2.3129  0.4407  0.6815
 9103SOL     OW39781   8.279   3.990   8.119 -0.6525  0.4352  0.3101
 9103SOL    HW139782   8.185   4.009   8.147 -0.3577  4.1841 -1.0794
 9103SOL    HW239783   8.279   3.951   8.027 -0.8886 -0.8771  0.8487
 9104SOL     OW39784   6.006   0.876   6.225 -0.2582 -0.1358 -0.3425
 9104SOL    HW139785   6.023   0.842   6.317 -1.5450  0.5655  0.1712
 9104SOL    HW239786   6.093   0.900   6.181  0.3274 -0.0757  0.8409
 9105SOL     OW39787   8.633   2.652   7.757  0.7679  0.3704 -0.1873
 9105SOL    HW139788   8.707   2.606   7.806  2.3006  1.0819 -1.7741
 9105SOL    HW239789   8.641   2.633   7.659 -0.6665  1.1513 -0.4740
 9106SOL     OW39790   7.621   0.063   1.829  0.1966  0.5303 -0.0217
 9106SOL    HW139791   7.656   0.118   1.754 -1.0967 -0.9908 -1.7796
 9106SOL    HW239792   7.592  -0.026   1.795 -0.8711 -0.0189  2.2067
 9107SOL     OW39793   8.081   1.272   1.759  0.0044 -0.2014  0.2246
 9107SOL    HW139794   8.016   1.244   1.830  0.7624  0.5811  1.2596
 9107SOL    HW239795   8.045   1.250   1.669  0.3009 -3.9370  0.9473
 9108SOL     OW39796   6.575   5.480   8.089 -0.1015  0.4932  0.2222
 9108SOL    HW139797   6.658   5.431   8.116 -1.7434 -2.2921  0.3366
 9108SOL    HW239798   6.579   5.500   7.991 -0.1129 -1.3497 -0.1756
 9109SOL     OW39799   3.226   7.528   3.228  0.0492 -0.0300  0.4309
 9109SOL    HW139800   3.272   7.439   3.230  0.1413 -0.0699 -2.0598
 9109SOL    HW239801   3.275   7.593   3.287  1.4247 -0.9378  0.2941
 9110SOL     OW39802   0.449   5.893   2.055 -0.2466 -0.0642  0.4841
 9110SOL    HW139803   0.510   5.923   2.129  0.2613  1.0358 -0.3570
 9110SOL    HW239804   0.489   5.920   1.967 -1.3266 -0.4763 -0.1358
 9111SOL     OW39805   0.594   6.080   5.600 -0.3763 -0.3875  0.3814
 9111SOL    HW139806   0.527   6.008   5.585 -1.8784  1.1737 -0.5896
 9111SOL    HW239807   0.638   6.067   5.689 -0.1696 -2.8271 -0.0357
 9112SOL     OW39808   2.508   7.598   0.544  0.1500  0.3434 -0.1766
 9112SOL    HW139809   2.426   7.564   0.591  0.0708  1.0169  0.1731
 9112SOL    HW239810   2.484   7.676   0.487  0.2810 -0.3635 -1.2133
 9113SOL     OW39811   8.610   6.357   6.824  0.0945 -0.2992 -0.0724
 9113SOL    HW139812   8.512   6.338   6.828 -0.0830  0.6619  0.2455
 9113SOL    HW239813   8.660   6.287   6.874 -0.4836 -0.3767  0.3956
 9114SOL     OW39814   2.655   0.713   4.833 -0.1467 -0.4222  0.1457
 9114SOL    HW139815   2.644   0.722   4.734  1.2874  0.3890  0.0459
 9114SOL    HW239816   2.622   0.623   4.863 -1.0471 -0.4695 -0.9929
 9115SOL     OW39817   0.595   5.522   3.031  0.1450  0.5495  0.1867
 9115SOL    HW139818   0.578   5.498   2.935 -0.5929  0.8702  0.2399
 9115SOL    HW239819   0.685   5.486   3.058 -1.1399 -2.5982  0.4258
 9116SOL     OW39820   2.615   2.742   1.181  0.1101 -0.1237 -0.1424
 9116SOL    HW139821   2.700   2.696   1.153  0.9935  0.7811  0.9675
 9116SOL    HW239822   2.563   2.768   1.100  1.9158  1.1582 -0.9420
 9117SOL     OW39823   0.128   8.650   0.429 -0.6731 -0.5998 -0.2503
 9117SOL    HW139824   0.174   8.570   0.390 -0.4531 -0.4025 -0.3955
 9117SOL    HW239825   0.086   8.703   0.356  2.3829  1.4599 -0.5591
 9118SOL     OW39826   7.445   4.306   4.093 -0.5402  0.3634 -0.0849
 9118SOL    HW139827   7.350   4.296   4.121 -0.8625 -2.9004 -2.1639
 9118SOL    HW239828   7.505   4.297   4.173 -1.9118  2.3794  1.2218
 9119SOL     OW39829   3.296   3.600   6.164  0.6933  0.2685 -0.9582
 9119SOL    HW139830   3.212   3.596   6.110  0.2430  0.0058 -0.2429
 9119SOL    HW239831   3.296   3.682   6.221 -0.1550 -0.9193  0.7819
 9120SOL     OW39832   3.468   6.061   6.278 -0.0972 -0.3322  0.5008
 9120SOL    HW139833   3.442   6.138   6.335  1.7056  0.9844 -0.4047
 9120SOL    HW239834   3.387   6.025   6.232 -1.2148 -0.0583  2.2286
 9121SOL     OW39835   1.805   2.953   3.903  0.7494  0.0889 -0.7818
 9121SOL    HW139836   1.735   2.903   3.852 -0.2146  2.0841 -1.4565
 9121SOL    HW239837   1.797   2.931   4.000  0.5317 -1.2721 -1.0919
 9122SOL     OW39838   4.094   7.820   4.705 -0.1312 -0.6109  0.0942
 9122SOL    HW139839   4.178   7.838   4.654 -0.1593 -1.1373 -0.1433
 9122SOL    HW239840   4.091   7.724   4.732 -0.3565 -0.4491  0.6538
 9123SOL     OW39841   1.762   4.417   0.010  0.4417  0.1109 -0.4689
 9123SOL    HW139842   1.682   4.474   0.028  1.3598  1.0934  0.5210
 9123SOL    HW239843   1.742   4.323   0.038  0.6095  0.9150  2.5684
 9124SOL     OW39844   3.213   5.870   5.817 -0.0878 -0.1438  0.0113
 9124SOL    HW139845   3.226   5.865   5.916  2.2432 -0.6216 -0.2892
 9124SOL    HW239846   3.291   5.916   5.776 -0.7973 -0.4175 -1.6711
 9125SOL     OW39847   2.706   4.831   1.339  0.0350  0.1306 -0.2973
 9125SOL    HW139848   2.637   4.786   1.282  0.1574  1.2674 -1.3694
 9125SOL    HW239849   2.751   4.764   1.398 -1.8498 -0.6545  0.2654
 9126SOL     OW39850   8.571   4.529   4.209  0.1127  0.0667  0.8101
 9126SOL    HW139851   8.670   4.527   4.204  0.0734  1.0690 -0.5884
 9126SOL    HW239852   8.538   4.620   4.183 -1.2508 -0.7789 -0.5016
 9127SOL     OW39853   6.603   0.488   8.797  0.6377 -0.0416 -0.2449
 9127SOL    HW139854   6.636   0.393   8.799  0.9796  0.0788  0.1084
 9127SOL    HW239855   6.505   0.489   8.782  0.4349 -0.5163  0.9427
 9128SOL     OW39856   3.377   2.377   7.927 -0.5596 -0.2135  0.0986
 9128SOL    HW139857   3.471   2.376   7.962 -0.3609  0.2719 -0.4073
 9128SOL    HW239858   3.376   2.419   7.836 -1.3463  0.3193  0.3466
 9129SOL     OW39859   4.316   7.180   6.417  0.4551 -0.3343 -0.0242
 9129SOL    HW139860   4.236   7.184   6.357 -0.1837 -0.9011  0.7832
 9129SOL    HW239861   4.328   7.086   6.450  2.7331 -0.7339 -1.8520
 9130SOL     OW39862   3.632   3.830   5.507  0.2355  0.0233 -0.3257
 9130SOL    HW139863   3.726   3.863   5.494 -0.2118  1.3849 -0.1816
 9130SOL    HW239864   3.571   3.879   5.446 -0.5635  0.0292  0.4672
 9131SOL     OW39865   3.620   1.652   6.415  0.2129  0.4608  0.7983
 9131SOL    HW139866   3.586   1.618   6.327  1.2012  0.0278  0.5787
 9131SOL    HW239867   3.710   1.614   6.433 -0.3310 -0.1216  2.4057
 9132SOL     OW39868   0.569   4.311   6.360  0.3415  0.0395  0.3064
 9132SOL    HW139869   0.512   4.233   6.385 -2.1269  2.7556  3.6401
 9132SOL    HW239870   0.540   4.347   6.272  0.6386 -1.9732 -0.6331
 9133SOL     OW39871   0.192   7.908   5.441  0.1321  0.3088  0.5841
 9133SOL    HW139872   0.178   8.006   5.452 -0.6826  0.0429  1.9843
 9133SOL    HW239873   0.116   7.859   5.483  0.9256 -0.9484  0.5725
 9134SOL     OW39874   1.529   8.926   6.385  0.1020 -0.6368  0.3436
 9134SOL    HW139875   1.501   8.929   6.289  1.7100 -0.9713 -0.1464
 9134SOL    HW239876   1.470   8.986   6.439  0.3941  1.0529 -1.1785
 9135SOL     OW39877   2.857   3.383   2.910 -0.0575  0.0619  0.1937
 9135SOL    HW139878   2.935   3.357   2.967  2.1488 -0.8215 -3.0836
 9135SOL    HW239879   2.890   3.427   2.826 -3.1236  0.3912 -0.9027
 9136SOL     OW39880   1.465   6.122   8.481 -0.0385 -0.1594  0.6891
 9136SOL    HW139881   1.553   6.084   8.452 -0.6707 -0.8416 -0.3642
 9136SOL    HW239882   1.478   6.217   8.510  1.1470 -0.4417  1.1075
 9137SOL     OW39883   1.379   6.229   4.684  0.4577  0.4654  0.5636
 9137SOL    HW139884   1.382   6.187   4.593  1.0417  0.3239  0.6445
 9137SOL    HW239885   1.452   6.297   4.693 -0.4562  1.4735  0.4552
 9138SOL     OW39886   6.074   5.734   8.637  0.0617  0.2414  0.4003
 9138SOL    HW139887   6.109   5.827   8.646 -0.3769  0.4977 -0.4748
 9138SOL    HW239888   6.146   5.674   8.603  0.4199  0.2005  1.2172
 9139SOL     OW39889   7.380   5.561   3.132  0.5226 -0.0843 -0.8006
 9139SOL    HW139890   7.398   5.464   3.116 -0.7205 -0.1198 -2.0941
 9139SOL    HW239891   7.314   5.571   3.207 -0.3529 -0.3147 -1.5260
 9140SOL     OW39892   3.175   1.648   3.733  0.1474  0.2442  0.4015
 9140SOL    HW139893   3.164   1.634   3.831  1.8682 -0.3879  0.5207
 9140SOL    HW239894   3.245   1.586   3.698 -0.7250  0.1918 -1.3004
 9141SOL     OW39895   0.954   6.510   1.014 -0.3933 -0.1146 -0.1578
 9141SOL    HW139896   0.920   6.517   0.920 -0.6507 -1.1608 -0.1445
 9141SOL    HW239897   0.889   6.459   1.070  0.2052 -0.3125  0.3702
 9142SOL     OW39898   3.527   0.859   8.302  0.4153 -0.6157  0.8042
 9142SOL    HW139899   3.554   0.889   8.394 -0.4927  0.4256  0.7489
 9142SOL    HW239900   3.596   0.797   8.266  0.7691 -1.0672  2.2082
 9143SOL     OW39901   6.533   7.848   6.183  0.2218 -0.2125 -0.2123
 9143SOL    HW139902   6.529   7.766   6.240  0.9886 -1.3719 -1.8051
 9143SOL    HW239903   6.625   7.886   6.186 -0.0555  0.4528  0.2779
 9144SOL     OW39904   8.908   3.598   1.842 -0.5602  0.3083 -0.5400
 9144SOL    HW139905   8.830   3.582   1.781  1.5370  2.2650 -3.9245
 9144SOL    HW239906   8.907   3.693   1.873 -0.0892  0.0552  0.2754
 9145SOL     OW39907   3.328   0.987   2.150  0.1942  0.0680  0.2061
 9145SOL    HW139908   3.269   1.054   2.196  0.8599  0.6299  0.2409
 9145SOL    HW239909   3.379   1.031   2.077 -2.0695 -1.1567 -2.1889
 9146SOL     OW39910   6.554   7.964   0.658  0.5339  0.5820  0.1579
 9146SOL    HW139911   6.582   7.943   0.564 -0.9064 -0.8036  0.0246
 9146SOL    HW239912   6.579   8.059   0.679  1.3955  0.7308 -1.4109
 9147SOL     OW39913   6.611   6.605   0.915 -0.0721 -0.1802  0.3052
 9147SOL    HW139914   6.537   6.655   0.869  0.5380 -0.3728 -0.9237
 9147SOL    HW239915   6.648   6.537   0.852  0.5976 -0.6405  1.2016
 9148SOL     OW39916   4.320   6.019   0.260 -0.2053  0.1167 -0.4403
 9148SOL    HW139917   4.358   5.929   0.237  0.9577  0.2831  0.7819
 9148SOL    HW239918   4.340   6.084   0.186 -0.7425 -0.5309 -1.1632
 9149SOL     OW39919   2.575   0.027   7.604 -0.1101 -0.9597  0.4303
 9149SOL    HW139920   2.639  -0.038   7.563 -1.2839 -1.4957 -0.6128
 9149SOL    HW239921   2.619   0.115   7.616  0.5289 -1.0437 -1.2100
 9150SOL     OW39922   4.881   7.448   5.894  0.6665  0.0516 -0.0993
 9150SOL    HW139923   4.958   7.510   5.912 -0.6962  1.1934  2.1489
 9150SOL    HW239924   4.812   7.496   5.840 -0.0076  0.2498  0.9137
 9151SOL     OW39925   8.967   8.283   5.996 -0.1640 -0.4770 -0.3814
 9151SOL    HW139926   8.893   8.294   6.063  0.2894 -1.3100  0.2552
 9151SOL    HW239927   9.007   8.192   6.005  0.4456 -0.2944 -1.2370
 9152SOL     OW39928   4.284   5.001   4.728  0.0727  0.0850 -0.4025
 9152SOL    HW139929   4.264   4.950   4.645 -0.4189  0.3582 -0.4525
 9152SOL    HW239930   4.351   5.073   4.707  1.6216 -1.2462 -0.0940
 9153SOL     OW39931   1.258   0.709   8.278 -0.6515  0.4840 -0.7226
 9153SOL    HW139932   1.264   0.784   8.213 -1.6796 -0.0462 -1.4424
 9153SOL    HW239933   1.236   0.624   8.230  0.7021 -0.3255  0.0517
 9154SOL     OW39934   8.585   1.077   6.323  0.2398 -0.4190 -0.0481
 9154SOL    HW139935   8.644   1.070   6.243 -0.8870 -0.7927 -0.8631
 9154SOL    HW239936   8.639   1.105   6.403  1.2464  0.5859 -1.0727
 9155SOL     OW39937   8.420   6.199   4.493  0.0221 -0.0632 -0.0212
 9155SOL    HW139938   8.382   6.176   4.583 -1.0312  1.7074  0.0115
 9155SOL    HW239939   8.362   6.268   4.449  2.6069  1.9399 -0.4428
 9156SOL     OW39940   3.692   6.494   8.897  0.5964 -0.7536  1.3055
 9156SOL    HW139941   3.705   6.488   8.798 -1.4581 -2.3780  1.1039
 9156SOL    HW239942   3.601   6.531   8.916  2.0797  2.3871  2.6171
 9157SOL     OW39943   6.846   2.633   0.432  0.6639 -0.9866 -0.2107
 9157SOL    HW139944   6.830   2.653   0.528  0.4949  2.7653 -0.9619
 9157SOL    HW239945   6.942   2.649   0.410  0.4290 -0.5876 -0.9624
 9158SOL     OW39946   6.396   8.325   4.471  0.1124 -0.2950 -0.4110
 9158SOL    HW139947   6.474   8.383   4.448 -0.5087 -0.3075 -2.7133
 9158SOL    HW239948   6.387   8.252   4.404 -0.1892 -2.0137  1.4587
 9159SOL     OW39949   1.464   6.534   1.587  0.4019 -0.8132  0.1128
 9159SOL    HW139950   1.511   6.604   1.640 -1.7173  0.5942  0.2071
 9159SOL    HW239951   1.375   6.569   1.557 -0.2563 -3.1018 -0.7245
 9160SOL     OW39952   3.157   3.536   5.503  0.2724  0.1959  0.2809
 9160SOL    HW139953   3.206   3.622   5.488 -0.7195  0.6397 -0.4604
 9160SOL    HW239954   3.213   3.475   5.560  1.5779  0.7940 -0.3334
 9161SOL     OW39955   2.060   7.817   0.358 -0.1504  1.0146  0.4736
 9161SOL    HW139956   2.138   7.861   0.403  1.0228  1.5184 -1.9742
 9161SOL    HW239957   1.975   7.849   0.400  0.8807  1.8863  1.9415
 9162SOL     OW39958   7.840   5.112   7.015  0.2773  0.3599 -0.0346
 9162SOL    HW139959   7.822   5.014   7.007  1.1551  0.3019 -1.3988
 9162SOL    HW239960   7.804   5.145   7.102 -0.4228 -1.0828  0.2393
 9163SOL     OW39961   8.409   4.498   4.434 -0.1509 -0.6673 -0.5343
 9163SOL    HW139962   8.482   4.502   4.366  1.1917  2.3525  0.9952
 9163SOL    HW239963   8.322   4.526   4.393  0.6525  1.1441 -1.0250
 9164SOL     OW39964   5.630   2.848   5.375  0.0087  0.1845 -0.0980
 9164SOL    HW139965   5.661   2.904   5.297 -0.0204 -0.2289 -0.4088
 9164SOL    HW239966   5.659   2.891   5.460 -0.5882  1.0282 -0.3108
 9165SOL     OW39967   3.842   8.370   5.827  0.1264  0.1124  0.4629
 9165SOL    HW139968   3.800   8.279   5.831 -2.9535  1.4947  0.6570
 9165SOL    HW239969   3.800   8.423   5.753  0.4351  2.0571  1.6611
 9166SOL     OW39970   4.994   5.279   4.242  0.3321 -0.2855  0.6136
 9166SOL    HW139971   4.899   5.311   4.236  0.7601  1.0842  0.9819
 9166SOL    HW239972   5.045   5.339   4.304  2.1764  0.7925 -1.8668
 9167SOL     OW39973   3.828   3.623   3.803 -0.7899 -0.2480 -0.1604
 9167SOL    HW139974   3.887   3.626   3.722 -0.9767  0.6556 -0.2690
 9167SOL    HW239975   3.779   3.536   3.806  0.3255 -0.8889 -0.2291
 9168SOL     OW39976   6.742   3.338   6.327 -0.5041  0.2651 -0.0414
 9168SOL    HW139977   6.762   3.416   6.387  1.0202  0.3636 -0.6709
 9168SOL    HW239978   6.648   3.307   6.344 -0.2363  0.5352  2.1207
 9169SOL     OW39979   4.394   3.763   8.683 -0.2826  0.1126 -0.5183
 9169SOL    HW139980   4.479   3.713   8.700 -1.0299 -1.8071 -2.2016
 9169SOL    HW239981   4.410   3.861   8.691  2.0502 -0.2324 -0.6894
 9170SOL     OW39982   6.360   6.127   5.411 -0.1306 -0.0180 -0.2681
 9170SOL    HW139983   6.451   6.135   5.451  0.5598 -0.1374 -1.7603
 9170SOL    HW239984   6.296   6.089   5.479  0.7725  0.6723  0.9831
 9171SOL     OW39985   5.389   0.691   6.866  0.1641  0.4052  0.2139
 9171SOL    HW139986   5.432   0.761   6.809 -1.8984 -0.4313 -2.4637
 9171SOL    HW239987   5.456   0.619   6.886  0.5347 -0.1016 -2.5878
 9172SOL     OW39988   2.954   3.299   4.812 -0.2701 -0.3831  0.7945
 9172SOL    HW139989   2.859   3.269   4.812 -0.2124 -0.5650  0.8651
 9172SOL    HW239990   2.965   3.375   4.877 -0.3192 -0.5107  0.9528
 9173SOL     OW39991   7.039   3.297   1.236  0.4092 -0.1705  0.0761
 9173SOL    HW139992   6.940   3.306   1.230  0.4163  0.6027  0.9582
 9173SOL    HW239993   7.064   3.260   1.325  0.9965  1.1750  0.4848
 9174SOL     OW39994   3.463   0.864   1.187  0.2277 -0.1114 -0.0003
 9174SOL    HW139995   3.401   0.826   1.257  0.4833 -0.8373 -0.1592
 9174SOL    HW239996   3.488   0.957   1.212  0.3217 -0.3689  0.8944
 9175SOL     OW39997   6.635   5.102   0.394  0.3587 -0.0367  0.2865
 9175SOL    HW139998   6.618   5.089   0.297  0.3389 -0.5107  0.3524
 9175SOL    HW239999   6.597   5.190   0.423 -1.2802 -0.7113  0.2485
 9176SOL     OW40000   0.789   7.258   5.555 -0.0253  0.1805  0.3194
 9176SOL    HW140001   0.884   7.252   5.525 -0.1253 -0.0169  0.0458
 9176SOL    HW240002   0.769   7.353   5.580 -0.2356  0.5459 -1.1979
 9177SOL     OW40003   5.940   5.454   0.961 -0.3372  0.0126  0.4162
 9177SOL    HW140004   6.036   5.481   0.961 -0.1411 -0.6854  0.7561
 9177SOL    HW240005   5.913   5.425   0.869 -0.0329 -0.4861  0.4870
 9178SOL     OW40006   0.264   3.080   7.675 -0.3247 -0.3180 -0.0388
 9178SOL    HW140007   0.206   3.127   7.609 -0.6586 -1.6249 -0.6927
 9178SOL    HW240008   0.226   2.990   7.694 -0.6593  0.3235  2.5270
 9179SOL     OW40009   3.042   8.745   3.917 -0.1838 -0.3740  0.3367
 9179SOL    HW140010   3.069   8.750   3.821  1.7611 -1.0883  0.8236
 9179SOL    HW240011   2.964   8.805   3.933 -0.0437  0.3249 -1.5272
 9180SOL     OW40012   6.861   2.299   8.186 -0.1051 -0.0264  0.4188
 9180SOL    HW140013   6.877   2.394   8.215 -0.6752 -0.4694  2.2418
 9180SOL    HW240014   6.914   2.281   8.103  1.5238  1.3096  1.1271
 9181SOL     OW40015   2.412   3.011   4.394 -0.2293 -0.2338  0.0466
 9181SOL    HW140016   2.435   3.082   4.459  0.6437 -0.2044 -0.2848
 9181SOL    HW240017   2.493   2.956   4.374 -0.7260 -0.8827 -0.2356
 9182SOL     OW40018   1.739   3.782   1.606  0.7266 -0.3703  0.1172
 9182SOL    HW140019   1.725   3.684   1.619  2.1261 -0.4999  0.8393
 9182SOL    HW240020   1.717   3.808   1.512  1.2812 -1.5561 -0.3404
 9183SOL     OW40021   5.710   8.729   4.143  0.3427  0.5372  0.0118
 9183SOL    HW140022   5.786   8.751   4.081  1.3198  1.3431  1.4816
 9183SOL    HW240023   5.648   8.807   4.148 -0.5510 -0.0839 -1.1108
 9184SOL     OW40024   2.984   6.604   8.210 -0.1000  0.4190  0.1758
 9184SOL    HW140025   3.057   6.655   8.257  0.1743  1.2825 -1.1573
 9184SOL    HW240026   2.895   6.638   8.241  0.0684  0.5597  0.5159
 9185SOL     OW40027   2.590   3.280   2.085  0.0389  0.1618  0.6539
 9185SOL    HW140028   2.504   3.229   2.094  0.0560 -0.4191 -1.9713
 9185SOL    HW240029   2.570   3.377   2.070 -0.1790  0.0528  0.2193
 9186SOL     OW40030   2.140   1.849   7.712 -0.0870 -0.7234 -0.4316
 9186SOL    HW140031   2.149   1.930   7.770 -1.7748 -1.4020  0.8451
 9186SOL    HW240032   2.151   1.874   7.616  3.2452  0.3573  0.1563
 9187SOL     OW40033   5.927   8.096   0.870 -0.1532 -0.4831 -0.3498
 9187SOL    HW140034   5.999   8.038   0.908 -0.2957 -1.0447 -0.9311
 9187SOL    HW240035   5.947   8.115   0.774 -0.0316  0.5485 -0.1251
 9188SOL     OW40036   8.565   3.776   4.128  0.4094 -0.1784 -0.4104
 9188SOL    HW140037   8.624   3.856   4.116 -1.4802  1.2351 -0.4260
 9188SOL    HW240038   8.521   3.754   4.041 -0.6734  0.0437  0.0807
 9189SOL     OW40039   5.439   2.195   3.176  0.1284 -0.5336 -0.3593
 9189SOL    HW140040   5.439   2.293   3.197 -0.2380 -0.8703  1.3449
 9189SOL    HW240041   5.533   2.160   3.184  0.4225 -0.1362 -1.9573
 9190SOL     OW40042   1.867   7.744   5.697 -0.3310  0.1000 -0.3152
 9190SOL    HW140043   1.771   7.720   5.681 -0.4687  0.2804  0.2159
 9190SOL    HW240044   1.883   7.752   5.795  0.2269  0.0876 -0.4056
 9191SOL     OW40045   3.957   1.055   8.020  0.3228 -0.4822  0.0588
 9191SOL    HW140046   4.040   1.003   8.044 -0.0059 -1.0975 -0.1308
 9191SOL    HW240047   3.884   0.992   7.994 -0.1135  0.0743 -0.0838
 9192SOL     OW40048   0.796   7.452   6.644  0.3460  0.2881  0.7864
 9192SOL    HW140049   0.790   7.434   6.546  0.6365 -0.3241  0.8766
 9192SOL    HW240050   0.776   7.368   6.694 -2.9729  1.3486  1.3246
 9193SOL     OW40051   6.181   4.375   3.964 -0.4816  0.0635  0.0388
 9193SOL    HW140052   6.237   4.447   4.003  1.3836 -1.1469 -0.3387
 9193SOL    HW240053   6.180   4.297   4.026  0.5488 -0.9674 -1.1988
 9194SOL     OW40054   2.499   1.047   5.184 -0.1098 -0.4034 -0.1686
 9194SOL    HW140055   2.574   1.055   5.119 -0.7964 -0.9056 -1.0215
 9194SOL    HW240056   2.532   1.005   5.268  0.6314 -0.3524 -0.4347
 9195SOL     OW40057   3.042   8.201   6.807 -0.9982 -0.3300 -0.1295
 9195SOL    HW140058   3.081   8.261   6.877  0.0406 -1.1836  0.0392
 9195SOL    HW240059   3.012   8.256   6.729 -2.0460  0.6123  0.9206
 9196SOL     OW40060   8.537   4.648   3.730 -0.3795  0.5118  0.2862
 9196SOL    HW140061   8.522   4.727   3.670 -0.5631  1.6048  1.7400
 9196SOL    HW240062   8.511   4.564   3.682 -2.7333  1.5678 -0.3574
 9197SOL     OW40063   6.410   2.186   2.649 -0.6552  0.0427  0.7367
 9197SOL    HW140064   6.442   2.281   2.641 -0.6358  0.0159  0.5085
 9197SOL    HW240065   6.315   2.186   2.680  0.0488  0.0960  3.0576
 9198SOL     OW40066   6.970   7.298   3.816  0.5040 -0.1965  0.2161
 9198SOL    HW140067   6.977   7.229   3.744  0.8377  0.7938 -0.7255
 9198SOL    HW240068   6.891   7.279   3.874 -0.6767 -0.1633 -1.3511
 9199SOL     OW40069   2.161   3.156   1.198  0.3904 -0.1053  0.5206
 9199SOL    HW140070   2.062   3.152   1.180 -0.3465 -1.8124  4.4632
 9199SOL    HW240071   2.187   3.249   1.223 -0.5997 -0.0251  1.2774
 9200SOL     OW40072   4.627   7.829   4.845  0.4457  0.2863 -0.0293
 9200SOL    HW140073   4.711   7.827   4.900  0.9621  0.9548 -0.7884
 9200SOL    HW240074   4.550   7.854   4.903  0.8845  0.3782  0.5207
 9201SOL     OW40075   1.048   2.896   5.304  0.1584  0.3746  0.5168
 9201SOL    HW140076   1.074   2.943   5.220  1.8985 -0.7359  0.4110
 9201SOL    HW240077   1.104   2.931   5.380  0.8367 -0.8576  0.5992
 9202SOL     OW40078   6.859   2.491   2.883 -0.0037 -0.5338  0.2661
 9202SOL    HW140079   6.853   2.399   2.843 -0.2149 -0.6072  0.4676
 9202SOL    HW240080   6.812   2.492   2.971 -2.2457  0.4050 -0.8990
 9203SOL     OW40081   6.470   3.003   8.220 -0.7129  0.6054  0.4838
 9203SOL    HW140082   6.452   2.988   8.123  0.6329  1.1962  0.1293
 9203SOL    HW240083   6.442   2.923   8.272 -1.5557  0.3320 -0.3822
 9204SOL     OW40084   5.408   7.491   6.943  0.2207  0.2799  0.4026
 9204SOL    HW140085   5.354   7.444   7.014 -1.1097  1.7456  0.3836
 9204SOL    HW240086   5.377   7.462   6.853 -0.1188  0.6424  0.3996
 9205SOL     OW40087   6.273   6.413   8.598  0.2821  0.0965  0.1630
 9205SOL    HW140088   6.205   6.361   8.650 -1.6457  1.9831 -0.4345
 9205SOL    HW240089   6.283   6.504   8.638 -1.1559  1.5453 -2.6332
 9206SOL     OW40090   2.939   7.232   8.515 -0.3260 -0.0035  0.1905
 9206SOL    HW140091   2.854   7.239   8.463 -0.2113 -2.7643 -0.3982
 9206SOL    HW240092   3.014   7.272   8.462 -0.8769  0.6425 -0.1179
 9207SOL     OW40093   2.153   4.309   2.500 -0.4020  0.8330  0.9291
 9207SOL    HW140094   2.096   4.235   2.536  0.2777  0.7301  1.8030
 9207SOL    HW240095   2.099   4.364   2.436 -1.0339 -0.1686  0.5783
 9208SOL     OW40096   1.112   2.263   2.899  0.0846 -0.5028 -0.7061
 9208SOL    HW140097   1.093   2.167   2.922 -1.7377 -0.2148 -0.9007
 9208SOL    HW240098   1.026   2.309   2.877  1.1113  0.8388 -1.9581
 9209SOL     OW40099   3.011   7.774   6.283 -0.2884  0.1575  0.0414
 9209SOL    HW140100   3.103   7.734   6.279 -0.9521 -1.3949 -0.1601
 9209SOL    HW240101   3.017   7.869   6.315  1.3955  0.1301 -0.1495
 9210SOL     OW40102   1.981   3.802   0.958 -0.1781 -0.3859  0.1572
 9210SOL    HW140103   2.037   3.788   0.877 -1.9636 -0.1517 -1.1571
 9210SOL    HW240104   1.969   3.715   1.006 -0.3355 -0.8187 -0.6614
 9211SOL     OW40105   7.462   1.605   0.106  0.2086  0.0736 -0.4283
 9211SOL    HW140106   7.416   1.667   0.170 -1.1057  1.2773 -2.4832
 9211SOL    HW240107   7.534   1.654   0.058  1.6833 -1.0245  0.6269
 9212SOL     OW40108   8.866   2.894   0.745 -0.0728  0.1419  0.3818
 9212SOL    HW140109   8.875   2.872   0.842 -0.0149  0.0147  0.3478
 9212SOL    HW240110   8.776   2.935   0.729 -1.2550 -2.5210 -0.0052
 9213SOL     OW40111   1.054   5.726   2.673 -0.7157 -0.8074 -0.1032
 9213SOL    HW140112   1.002   5.781   2.608 -0.5690 -0.4097  0.1158
 9213SOL    HW240113   1.141   5.770   2.693 -0.6054 -1.1088  0.0856
 9214SOL     OW40114   4.420   5.980   8.875 -0.2589 -0.6452  0.0660
 9214SOL    HW140115   4.512   5.945   8.853  0.7988  1.4223  1.0933
 9214SOL    HW240116   4.376   6.012   8.791 -0.6382 -2.9727 -0.6562
 9215SOL     OW40117   0.373   8.682   8.131  0.2849  0.0298  0.0982
 9215SOL    HW140118   0.447   8.615   8.121  1.0592  0.8381  0.3410
 9215SOL    HW240119   0.297   8.657   8.072  1.4747  0.1885 -1.5264
 9216SOL     OW40120   8.668   3.593   3.168  0.3088 -0.6026 -0.2799
 9216SOL    HW140121   8.718   3.604   3.253  0.5507 -1.3555 -0.3162
 9216SOL    HW240122   8.603   3.517   3.177  0.8950 -1.2121 -1.0036
 9217SOL     OW40123   8.089   4.589   6.325 -0.2539  0.4715  0.0554
 9217SOL    HW140124   8.179   4.617   6.292  0.6734 -1.0658  1.1810
 9217SOL    HW240125   8.027   4.667   6.325  0.7925  1.3366 -1.6550
 9218SOL     OW40126   3.929   1.324   8.010 -0.3651  0.1236  0.0462
 9218SOL    HW140127   3.921   1.351   7.914 -0.9184 -0.8678 -0.1958
 9218SOL    HW240128   3.956   1.228   8.015  1.8656  0.7674  0.8897
 9219SOL     OW40129   4.547   6.465   0.610 -0.1225 -0.5671 -0.0829
 9219SOL    HW140130   4.642   6.493   0.598 -0.1187 -0.4886  0.1287
 9219SOL    HW240131   4.540   6.365   0.608  0.0354 -0.5895  0.4223
 9220SOL     OW40132   4.309   6.477   3.352  0.5983 -0.5802  0.4575
 9220SOL    HW140133   4.256   6.516   3.277 -0.9314 -1.0178  1.2960
 9220SOL    HW240134   4.360   6.397   3.318  0.0231 -0.6985 -0.1413
 9221SOL     OW40135   7.415   4.890   5.917 -0.4623 -0.0054  0.2145
 9221SOL    HW140136   7.381   4.910   6.009 -0.7541  1.4521 -0.1857
 9221SOL    HW240137   7.356   4.823   5.874  1.2601 -2.7961  2.0719
 9222SOL     OW40138   1.781   0.305   8.626  0.2769 -0.5576 -0.2259
 9222SOL    HW140139   1.707   0.303   8.693 -0.9929  0.6817 -1.5524
 9222SOL    HW240140   1.865   0.339   8.670 -0.6076  0.4700  0.6987
 9223SOL     OW40141   3.333   2.729   4.063  0.8104 -0.0963  0.2554
 9223SOL    HW140142   3.415   2.691   4.105  0.6398  0.0686  0.7308
 9223SOL    HW240143   3.349   2.825   4.040 -0.0505  0.6040  2.4957
 9224SOL     OW40144   7.671   7.368   6.557 -0.2857  0.5863  0.0033
 9224SOL    HW140145   7.758   7.330   6.525 -0.7961  1.0744 -2.0790
 9224SOL    HW240146   7.668   7.368   6.657  1.9273  0.1864  0.0799
 9225SOL     OW40147   8.379   4.446   1.065  0.2513 -0.0102 -0.0138
 9225SOL    HW140148   8.345   4.361   1.107  0.0116 -0.6075 -1.4050
 9225SOL    HW240149   8.452   4.425   1.000  0.5397  0.9065  0.0004
 9226SOL     OW40150   4.738   2.196   3.478  0.2896  0.4763 -0.1986
 9226SOL    HW140151   4.798   2.232   3.406 -2.1925  3.2076 -1.0086
 9226SOL    HW240152   4.729   2.097   3.468  2.0170  0.4851 -2.0823
 9227SOL     OW40153   8.477   5.822   4.474 -0.3978  0.1422  0.1839
 9227SOL    HW140154   8.528   5.736   4.460 -0.0999  0.0469  1.7564
 9227SOL    HW240155   8.516   5.893   4.416 -0.6352 -0.7684 -1.1319
 9228SOL     OW40156   6.729   8.069   6.909 -0.1188 -0.4225 -0.0941
 9228SOL    HW140157   6.653   8.009   6.884 -1.5595  1.0377  0.6656
 9228SOL    HW240158   6.782   8.028   6.983 -1.4028 -0.5329  0.7753
 9229SOL     OW40159   7.693   6.768   1.082  0.4069  0.0194  0.1428
 9229SOL    HW140160   7.776   6.818   1.106 -0.1307  1.1641 -0.3218
 9229SOL    HW240161   7.638   6.824   1.020  0.0282 -1.3710 -0.7972
 9230SOL     OW40162   8.074   2.994   8.907 -0.0078  0.1208  0.1645
 9230SOL    HW140163   8.004   2.939   8.863 -1.2672  1.2624  0.7058
 9230SOL    HW240164   8.060   3.090   8.885  1.3912  0.3580  0.2821
 9231SOL     OW40165   3.683   6.345   6.397  0.0541 -0.0540 -0.0520
 9231SOL    HW140166   3.747   6.335   6.473  1.2661  3.0076 -0.6135
 9231SOL    HW240167   3.630   6.261   6.387  2.4783 -1.8721  1.7951
 9232SOL     OW40168   8.865   4.116   4.733 -0.2644  0.7166 -0.3909
 9232SOL    HW140169   8.902   4.073   4.651 -1.5553  1.0693 -1.1659
 9232SOL    HW240170   8.903   4.071   4.814 -0.5645 -0.9907 -1.1878
 9233SOL     OW40171   6.384   2.585   3.690  0.5673  0.1719  0.2322
 9233SOL    HW140172   6.291   2.605   3.658  0.4471 -0.2098  0.3408
 9233SOL    HW240173   6.450   2.624   3.626  0.3281 -0.9980 -0.7439
 9234SOL     OW40174   2.107   4.639   6.680  0.1984 -0.4926  0.2805
 9234SOL    HW140175   2.062   4.720   6.718 -1.6858 -0.7914 -1.2672
 9234SOL    HW240176   2.173   4.668   6.610  1.6019 -0.1446  1.6974
 9235SOL     OW40177   3.050   0.185   1.380 -0.2732 -0.1373 -0.2339
 9235SOL    HW140178   3.087   0.094   1.362  0.0435 -0.8018  3.4418
 9235SOL    HW240179   3.123   0.244   1.415 -0.8529  1.0334 -0.9837
 9236SOL     OW40180   5.096   6.050   5.048  0.4466  0.0170  0.1877
 9236SOL    HW140181   5.116   6.042   4.951  2.3685  0.7107  0.4954
 9236SOL    HW240182   5.058   5.964   5.082 -0.1599 -0.2440 -1.1603
 9237SOL     OW40183   1.179   4.509   0.320  0.1835 -0.2431 -0.7557
 9237SOL    HW140184   1.162   4.597   0.276 -0.2611 -0.3565 -0.8053
 9237SOL    HW240185   1.216   4.524   0.412 -3.3146  0.0278  0.6571
 9238SOL     OW40186   4.621   5.579   3.141 -0.2575  0.5554 -0.2300
 9238SOL    HW140187   4.555   5.549   3.072  1.1828 -0.0082 -1.4020
 9238SOL    HW240188   4.682   5.648   3.101  1.3928 -0.6897  0.0659
 9239SOL     OW40189   2.735   6.392   4.739  0.2039 -0.5855  0.8183
 9239SOL    HW140190   2.667   6.465   4.737  0.6934 -0.1388 -1.1816
 9239SOL    HW240191   2.691   6.306   4.765 -1.3626 -0.4965 -1.4133
 9240SOL     OW40192   7.938   2.704   3.506 -0.5265  0.4921 -0.1453
 9240SOL    HW140193   7.981   2.792   3.529 -1.2137  0.9652 -0.6447
 9240SOL    HW240194   7.861   2.688   3.568 -0.2903  0.1469  0.0627
 9241SOL     OW40195   7.727   1.250   3.204  0.2087 -0.3405  0.3799
 9241SOL    HW140196   7.748   1.346   3.186 -3.4308  0.0888 -2.1440
 9241SOL    HW240197   7.678   1.243   3.291  2.6854 -0.2901  1.8308
 9242SOL     OW40198   4.178   2.344   0.876  0.3663  0.0744 -0.2242
 9242SOL    HW140199   4.215   2.398   0.952 -0.3384  1.5745 -0.9353
 9242SOL    HW240200   4.165   2.402   0.796 -0.9062 -1.0217 -0.8458
 9243SOL     OW40201   8.414   0.473   7.235  0.2205  0.2160 -0.0091
 9243SOL    HW140202   8.499   0.521   7.257  0.4802  0.1813 -0.9099
 9243SOL    HW240203   8.421   0.433   7.144 -1.0259  0.7973 -0.3731
 9244SOL     OW40204   0.348   2.454   5.086  0.1354 -0.6004 -1.0883
 9244SOL    HW140205   0.314   2.406   5.167 -1.4646  1.3894 -0.5715
 9244SOL    HW240206   0.447   2.439   5.078  0.3054 -0.8441  1.1940
 9245SOL     OW40207   5.117   1.580   6.728 -0.1092 -0.1375 -0.1089
 9245SOL    HW140208   5.117   1.487   6.766 -1.8822 -0.5896 -1.1471
 9245SOL    HW240209   5.174   1.583   6.646  0.0872 -0.2852  0.0250
 9246SOL     OW40210   4.296   1.135   2.719 -0.2202  0.2500 -0.1763
 9246SOL    HW140211   4.223   1.067   2.730 -1.7119  2.0360  1.4383
 9246SOL    HW240212   4.301   1.163   2.623  0.1540 -1.8096 -0.7894
 9247SOL     OW40213   8.521   7.503   4.158 -0.3997  0.1327 -0.4400
 9247SOL    HW140214   8.421   7.499   4.156 -0.3972 -1.2123  1.0937
 9247SOL    HW240215   8.559   7.420   4.116  0.0346 -0.4148  0.9984
 9248SOL     OW40216   6.026   2.615   2.497  0.0037  0.1859  0.3442
 9248SOL    HW140217   6.048   2.712   2.497  0.4058  0.0945  0.2440
 9248SOL    HW240218   5.945   2.599   2.441  0.3584  0.3675 -0.2287
 9249SOL     OW40219   5.054   7.071   1.199  0.1447 -0.2342 -0.1389
 9249SOL    HW140220   5.088   7.003   1.135 -1.5326 -1.2566  0.0388
 9249SOL    HW240221   5.053   7.033   1.292  1.4928  0.8561  0.3499
 9250SOL     OW40222   0.107   6.035   6.017  0.3574 -0.2066 -0.0323
 9250SOL    HW140223   0.053   6.098   5.961 -0.4489 -1.6153 -0.8650
 9250SOL    HW240224   0.204   6.043   5.993  0.1844  0.2618 -0.5704
 9251SOL     OW40225   3.206   8.028   7.609  0.1802 -0.5368  0.0139
 9251SOL    HW140226   3.228   8.106   7.550 -0.9633  0.7258  1.2241
 9251SOL    HW240227   3.107   8.010   7.606  0.3603 -1.6104  0.1556
 9252SOL     OW40228   3.617   7.436   0.800 -0.4475 -0.1676 -0.0321
 9252SOL    HW140229   3.599   7.357   0.859  1.6026 -0.0121  0.8415
 9252SOL    HW240230   3.632   7.404   0.706  0.4915 -0.8459  0.3407
 9253SOL     OW40231   6.849   3.637   0.545 -0.0052  0.2363  0.4190
 9253SOL    HW140232   6.792   3.691   0.483 -0.6992 -0.3380  0.5547
 9253SOL    HW240233   6.901   3.698   0.604  4.7557  1.1055 -4.2305
 9254SOL     OW40234   3.254   5.144   0.566 -0.1630  0.2608 -0.0234
 9254SOL    HW140235   3.282   5.239   0.583 -0.2960 -0.0720  2.2464
 9254SOL    HW240236   3.185   5.142   0.494 -2.4332  2.2550  2.0111
 9255SOL     OW40237   1.092   2.847   4.969 -0.0022  0.5523 -0.2608
 9255SOL    HW140238   1.174   2.806   4.929  0.4703 -1.6108  2.7397
 9255SOL    HW240239   1.117   2.928   5.020  0.4893 -0.7788  1.6519
 9256SOL     OW40240   8.813   3.912   8.113  0.1557  0.6761  0.2349
 9256SOL    HW140241   8.907   3.944   8.122  0.7025  0.5454 -3.8501
 9256SOL    HW240242   8.814   3.815   8.089 -0.9709  0.9095 -0.7855
 9257SOL     OW40243   8.175   3.444   2.253  0.3796  0.1212  0.0685
 9257SOL    HW140244   8.227   3.525   2.224 -0.2372  0.0931 -1.1525
 9257SOL    HW240245   8.140   3.459   2.345 -0.0785  1.4440 -0.2964
 9258SOL     OW40246   4.341   8.180   2.844  0.3271 -0.5313  0.6352
 9258SOL    HW140247   4.339   8.096   2.897  3.2645 -1.2592 -0.3010
 9258SOL    HW240248   4.433   8.219   2.846 -0.6004  1.8127 -0.2470
 9259SOL     OW40249   7.930   6.193   2.642 -0.5809 -0.1652 -0.2038
 9259SOL    HW140250   7.950   6.174   2.546  1.6917 -1.4850  0.4804
 9259SOL    HW240251   7.857   6.131   2.673 -0.4383 -0.6084 -0.7378
 9260SOL     OW40252   4.064   8.505   0.383  0.6017 -0.2386 -0.2990
 9260SOL    HW140253   4.109   8.500   0.471 -1.1938 -0.1390  0.6506
 9260SOL    HW240254   3.970   8.471   0.391  0.0861  0.7096 -1.9443
 9261SOL     OW40255   1.246   7.467   4.154 -0.4311  0.0255 -0.3880
 9261SOL    HW140256   1.231   7.533   4.227  1.2313 -0.5971  0.5230
 9261SOL    HW240257   1.173   7.399   4.154 -1.0096  0.6508 -0.0008
 9262SOL     OW40258   8.982   3.396   4.969 -0.0134  0.0167 -0.3227
 9262SOL    HW140259   9.012   3.336   5.044  0.4124  2.6356  1.6601
 9262SOL    HW240260   9.058   3.456   4.943 -1.1597  1.2944 -0.7058
 9263SOL     OW40261   5.436   5.409   3.807  0.4222 -0.1143  0.0964
 9263SOL    HW140262   5.449   5.481   3.739 -1.6690 -0.3870 -0.6058
 9263SOL    HW240263   5.483   5.435   3.891 -1.3493  2.7096  0.2925
 9264SOL     OW40264   5.747   6.683   0.153  0.2960  0.4002 -0.1607
 9264SOL    HW140265   5.731   6.632   0.237 -1.3605 -0.8005 -1.1803
 9264SOL    HW240266   5.705   6.774   0.161  0.3205  0.3648  0.3841
 9265SOL     OW40267   3.086   2.923   3.669 -0.2434 -0.1028 -0.3774
 9265SOL    HW140268   3.014   2.862   3.637 -0.6131  0.8585 -1.4001
 9265SOL    HW240269   3.054   3.017   3.667  0.9177  0.3013 -0.4744
 9266SOL     OW40270   0.285   7.122   7.158  0.2515  0.4406  0.1228
 9266SOL    HW140271   0.365   7.139   7.215  0.9189  2.7315 -1.4546
 9266SOL    HW240272   0.217   7.193   7.174 -1.1709 -1.0480  0.8556
 9267SOL     OW40273   0.505   7.240   7.330 -0.2080  0.4188  0.0221
 9267SOL    HW140274   0.560   7.305   7.276 -0.7195  0.7269 -0.1270
 9267SOL    HW240275   0.486   7.280   7.420  0.2743  0.0831  0.2773
 9268SOL     OW40276   7.680   7.541   2.256  0.0463 -0.4368 -0.8276
 9268SOL    HW140277   7.625   7.604   2.311 -0.9702 -0.5480 -1.7063
 9268SOL    HW240278   7.674   7.449   2.294  0.5986 -0.2233 -0.2191
 9269SOL     OW40279   6.061   0.852   8.577  0.3893  0.1828 -0.2620
 9269SOL    HW140280   5.973   0.901   8.573  0.6647  0.7067  0.0085
 9269SOL    HW240281   6.068   0.803   8.663  0.6072  0.6160 -0.0303
 9270SOL     OW40282   3.435   0.126   6.417  0.2321  0.0001 -0.4521
 9270SOL    HW140283   3.383   0.131   6.332 -0.7406 -0.4872  0.1090
 9270SOL    HW240284   3.531   0.145   6.398 -0.1491  0.9587 -1.4921
 9271SOL     OW40285   0.406   6.137   6.327 -0.2870 -0.9616  0.4311
 9271SOL    HW140286   0.453   6.220   6.356  3.0232 -2.6536  0.0815
 9271SOL    HW240287   0.410   6.130   6.227 -0.1473 -1.7586  0.4893
 9272SOL     OW40288   5.805   5.942   3.864  0.3425  0.6127 -0.4561
 9272SOL    HW140289   5.749   5.861   3.846  0.5328  0.1051  1.1536
 9272SOL    HW240290   5.793   6.008   3.790 -1.4905  0.0120 -0.7193
 9273SOL     OW40291   1.247   2.539   0.991  0.5981 -0.3319 -0.3392
 9273SOL    HW140292   1.317   2.608   1.012  0.4677 -0.6725  1.2881
 9273SOL    HW240293   1.281   2.478   0.920  2.7620 -1.6583  1.7388
 9274SOL     OW40294   2.775   1.406   3.690 -0.5993 -0.3874 -0.3714
 9274SOL    HW140295   2.777   1.453   3.778 -0.6620 -1.4367  0.1997
 9274SOL    HW240296   2.737   1.315   3.702  2.5309 -1.8322 -0.8573
 9275SOL     OW40297   0.636   0.499   6.816 -0.1695 -0.1175  0.2718
 9275SOL    HW140298   0.550   0.459   6.847  1.2878 -0.2062  4.4359
 9275SOL    HW240299   0.640   0.595   6.843  1.1386 -0.1703  0.2691
 9276SOL     OW40300   7.949   4.270   7.219  0.5278 -0.0340 -0.1088
 9276SOL    HW140301   7.899   4.236   7.139  0.9804  0.9492 -0.8233
 9276SOL    HW240302   8.047   4.262   7.203  0.6286  0.6785  0.1101
 9277SOL     OW40303   8.850   0.239   4.302  0.3253  0.1317  0.3066
 9277SOL    HW140304   8.842   0.290   4.217 -0.3721 -0.7622 -0.1662
 9277SOL    HW240305   8.864   0.142   4.282  1.8200  0.1428  1.1976
 9278SOL     OW40306   5.947   2.044   1.101 -0.3726  0.6373 -0.1277
 9278SOL    HW140307   5.887   1.967   1.080 -1.3149  0.7111  2.1995
 9278SOL    HW240308   5.969   2.092   1.016  0.4348 -2.3032 -1.6638
 9279SOL     OW40309   3.331   8.539   6.626 -0.2937  0.2445  0.0273
 9279SOL    HW140310   3.297   8.522   6.719  0.2831 -2.9629 -0.2987
 9279SOL    HW240311   3.290   8.473   6.563  0.4821  1.4277 -1.7451
 9280SOL     OW40312   2.168   0.262   7.539 -0.8827 -1.1145 -0.0849
 9280SOL    HW140313   2.124   0.267   7.449 -0.9938 -1.6254 -0.0615
 9280SOL    HW240314   2.130   0.184   7.589  0.4217 -1.8670 -0.2587
 9281SOL     OW40315   0.744   4.926   6.809 -0.4752 -0.5675  0.5030
 9281SOL    HW140316   0.660   4.873   6.802 -0.8457  0.1490 -0.4785
 9281SOL    HW240317   0.722   5.021   6.828 -0.0004  0.1696 -2.5055
 9282SOL     OW40318   2.541   7.800   1.680  0.1838  0.0985 -0.0029
 9282SOL    HW140319   2.623   7.742   1.682  0.6987  0.8405  0.5234
 9282SOL    HW240320   2.464   7.750   1.720  0.5597 -0.3191  0.2023
 9283SOL     OW40321   5.591   4.469   4.561 -0.2608  0.1633 -0.2434
 9283SOL    HW140322   5.497   4.455   4.530 -0.2941 -0.4424  0.1242
 9283SOL    HW240323   5.649   4.395   4.527 -0.5786 -1.3132  2.3176
 9284SOL     OW40324   6.479   3.301   6.379 -0.6830  0.0925 -0.0635
 9284SOL    HW140325   6.435   3.333   6.463  0.1216  0.2756  0.2941
 9284SOL    HW240326   6.410   3.287   6.309 -1.4352 -0.6365  0.8106
 9285SOL     OW40327   0.392   3.929   2.349  0.2006  0.4345 -0.6370
 9285SOL    HW140328   0.308   3.875   2.340 -0.3592  1.5184 -2.3315
 9285SOL    HW240329   0.467   3.882   2.301 -0.1132  0.7932 -1.4931
 9286SOL     OW40330   8.133   8.346   7.703 -0.1394 -0.0088 -0.1308
 9286SOL    HW140331   8.052   8.347   7.762  0.1781  2.3999  0.2896
 9286SOL    HW240332   8.211   8.308   7.754 -0.6242 -0.8998 -0.0420
 9287SOL     OW40333   2.962   8.538   1.650 -0.6635  0.7378 -0.0428
 9287SOL    HW140334   3.002   8.449   1.629 -3.0524 -0.8260  1.8086
 9287SOL    HW240335   2.884   8.555   1.589  1.6639  3.0380 -2.5305
 9288SOL     OW40336   5.435   0.429   3.001  0.2391 -0.1317  0.1978
 9288SOL    HW140337   5.503   0.383   2.944 -0.6427  0.5961 -1.4932
 9288SOL    HW240338   5.478   0.461   3.086  1.9117 -0.0023 -0.6823
 9289SOL     OW40339   2.449   0.166   3.829 -0.4535 -0.1881  0.6123
 9289SOL    HW140340   2.390   0.238   3.791 -0.9612 -0.9719 -0.0996
 9289SOL    HW240341   2.459   0.180   3.927  1.7561  2.5150  0.0583
 9290SOL     OW40342   3.009   2.832   3.348  0.7504 -0.2848 -0.0042
 9290SOL    HW140343   2.995   2.751   3.292  0.5640 -0.0544 -0.2961
 9290SOL    HW240344   2.972   2.817   3.439 -1.2783  0.2590 -0.7165
 9291SOL     OW40345   7.286   6.013   2.562  0.3093  0.2818 -0.1846
 9291SOL    HW140346   7.378   6.022   2.522  0.0064  1.9027 -0.5412
 9291SOL    HW240347   7.293   6.009   2.661  0.7630  0.5724 -0.2015
 9292SOL     OW40348   7.257   4.584   3.807  0.4685  0.4081 -0.0125
 9292SOL    HW140349   7.224   4.676   3.790  0.9312  0.2090 -2.1425
 9292SOL    HW240350   7.331   4.586   3.875 -1.1403  1.2902  1.7772
 9293SOL     OW40351   2.796   1.557   3.242  0.0807 -0.0372  0.1533
 9293SOL    HW140352   2.893   1.574   3.224  0.4303 -1.7755  0.3548
 9293SOL    HW240353   2.778   1.459   3.238 -1.3963  0.1662  1.4602
 9294SOL     OW40354   6.436   2.499   0.436  0.3106 -0.0686 -0.7070
 9294SOL    HW140355   6.525   2.454   0.435  0.6552  0.6137 -0.6188
 9294SOL    HW240356   6.428   2.559   0.356 -0.3018 -0.5718 -1.0332
 9295SOL     OW40357   4.542   3.072   2.702  0.7039 -0.1626 -0.0871
 9295SOL    HW140358   4.564   3.065   2.800  0.4161  3.7238  0.3041
 9295SOL    HW240359   4.620   3.040   2.649  1.3294 -1.1681  1.3873
 9296SOL     OW40360   5.940   1.564   8.679  0.4278 -0.0416 -0.1023
 9296SOL    HW140361   6.030   1.589   8.643 -0.0138  0.4737 -0.8728
 9296SOL    HW240362   5.916   1.623   8.756  0.0173  0.9588 -0.9880
 9297SOL     OW40363   0.728   1.044   5.382 -0.3823 -0.1001  0.0681
 9297SOL    HW140364   0.707   1.139   5.406 -0.7526  0.2261 -1.4452
 9297SOL    HW240365   0.720   1.033   5.283  0.7646 -1.4407  0.1045
 9298SOL     OW40366   1.334   0.748   6.816 -0.7918 -0.5228  0.7630
 9298SOL    HW140367   1.244   0.712   6.792 -1.1894 -0.6952  2.4904
 9298SOL    HW240368   1.341   0.760   6.915  0.2620  1.6889  0.4704
 9299SOL     OW40369   4.937   2.963   4.040  0.0359  0.0524 -0.5331
 9299SOL    HW140370   4.901   2.870   4.051  1.3226 -0.4497 -0.4138
 9299SOL    HW240371   5.020   2.973   4.095  0.3006  1.0523 -1.1047
 9300SOL     OW40372   3.590   5.717   6.032 -0.4592  0.3582  0.6094
 9300SOL    HW140373   3.630   5.647   6.091 -0.7901 -0.3397  0.0102
 9300SOL    HW240374   3.616   5.808   6.066 -0.2299 -0.0455  1.5254
 9301SOL     OW40375   2.289   4.399   5.560 -0.1278 -0.1044  0.3043
 9301SOL    HW140376   2.310   4.378   5.655 -0.8292 -0.9165  0.2815
 9301SOL    HW240377   2.370   4.385   5.503  0.4569  0.9275  0.8530
 9302SOL     OW40378   1.817   8.529   4.266  0.5127  0.3929  0.4184
 9302SOL    HW140379   1.852   8.528   4.172  0.8800 -0.4452  0.5522
 9302SOL    HW240380   1.776   8.440   4.287 -0.7758  1.0247  0.6140
 9303SOL     OW40381   5.470   0.967   2.406 -0.1050 -0.0460  0.0101
 9303SOL    HW140382   5.443   0.941   2.499  0.0882  0.0666  0.0982
 9303SOL    HW240383   5.554   0.919   2.380 -0.2179 -0.1579 -0.1461
 9304SOL     OW40384   5.231   7.226   5.870  0.2172  0.7807  0.2119
 9304SOL    HW140385   5.300   7.259   5.935  1.6209  0.1431 -0.9455
 9304SOL    HW240386   5.274   7.167   5.802 -1.9016 -1.6063  0.9063
 9305SOL     OW40387   8.420   2.029   7.501  0.0286  0.2674 -0.3254
 9305SOL    HW140388   8.511   2.025   7.461  0.8135 -0.5876  1.4878
 9305SOL    HW240389   8.419   1.977   7.586 -2.1049  0.4405 -0.2243
 9306SOL     OW40390   4.277   5.633   7.881 -0.1790  0.1980 -0.5636
 9306SOL    HW140391   4.192   5.618   7.931  0.1567  1.8609  0.5482
 9306SOL    HW240392   4.270   5.590   7.791 -1.7204 -0.7424 -0.0170
 9307SOL     OW40393   0.672   3.103   2.896 -0.0383  0.3083  0.2719
 9307SOL    HW140394   0.712   3.194   2.900  1.2114 -0.2536  1.0766
 9307SOL    HW240395   0.602   3.099   2.824  0.4342  1.6779 -0.2655
 9308SOL     OW40396   7.874   8.142   7.510 -0.0822  0.1901  0.4486
 9308SOL    HW140397   7.875   8.180   7.603 -0.6164  0.1612  0.4683
 9308SOL    HW240398   7.952   8.178   7.459  0.4341 -0.1036  1.0303
 9309SOL     OW40399   5.416   0.036   5.082 -0.3923  0.6206  0.0201
 9309SOL    HW140400   5.351  -0.034   5.051 -1.6238  2.2700 -1.1782
 9309SOL    HW240401   5.504  -0.008   5.103 -0.2147 -0.9086 -3.5502
 9310SOL     OW40402   3.493   8.658   7.238 -0.7033 -0.0490  0.2211
 9310SOL    HW140403   3.480   8.678   7.335 -1.8378 -1.2020  0.3097
 9310SOL    HW240404   3.404   8.648   7.194 -0.2194 -3.8752 -0.0395
 9311SOL     OW40405   7.090   0.284   7.233  0.2978  0.0642 -1.0069
 9311SOL    HW140406   7.014   0.235   7.191 -0.3294  0.4426 -0.3383
 9311SOL    HW240407   7.092   0.378   7.199 -0.0380  0.2882 -0.4236
 9312SOL     OW40408   8.448   4.204   2.303  0.4750 -0.5577  0.3855
 9312SOL    HW140409   8.441   4.249   2.214 -1.2855 -1.9067 -0.1897
 9312SOL    HW240410   8.451   4.272   2.375  3.3082  0.6158 -0.7496
 9313SOL     OW40411   0.856   8.621   6.058  0.3889 -0.2833  0.1431
 9313SOL    HW140412   0.942   8.631   6.109 -0.8456  1.7838  1.8604
 9313SOL    HW240413   0.789   8.574   6.115  0.1538 -1.2778 -0.9486
 9314SOL     OW40414   1.318   4.300   2.759 -0.1616  0.6373  0.1357
 9314SOL    HW140415   1.246   4.317   2.691 -0.3688  0.1498  0.2269
 9314SOL    HW240416   1.321   4.375   2.824 -1.6020 -0.0510  1.0154
 9315SOL     OW40417   2.741   3.249   7.646 -0.3834 -0.4982  0.1242
 9315SOL    HW140418   2.816   3.205   7.596 -0.4668 -1.3004  0.7015
 9315SOL    HW240419   2.701   3.184   7.710 -1.7682 -0.1583 -0.3839
 9316SOL     OW40420   6.375   2.769   8.296 -0.2407  0.1483 -0.3648
 9316SOL    HW140421   6.339   2.715   8.220  1.7781  0.9217 -1.9144
 9316SOL    HW240422   6.426   2.710   8.359 -1.1969 -0.3473 -0.0424
 9317SOL     OW40423   6.059   1.859   4.120  0.1088 -0.6512 -0.2958
 9317SOL    HW140424   6.069   1.775   4.173 -0.3383 -1.5333 -1.5967
 9317SOL    HW240425   6.141   1.915   4.131  0.6111 -1.4781  0.1897
 9318SOL     OW40426   3.699   1.081   2.453  0.2638 -0.6003  0.3913
 9318SOL    HW140427   3.708   1.042   2.361 -1.2449 -0.3109  0.1086
 9318SOL    HW240428   3.665   1.011   2.516  1.5347 -0.8678  0.7989
 9319SOL     OW40429   3.525   8.251   2.312 -0.1213  0.5318  0.0277
 9319SOL    HW140430   3.559   8.257   2.406 -0.3576 -1.0350  0.2198
 9319SOL    HW240431   3.602   8.251   2.248  0.0593  1.1314  0.2433
 9320SOL     OW40432   4.790   4.140   6.457 -0.2334 -0.3542 -0.2339
 9320SOL    HW140433   4.699   4.175   6.437  0.1598  1.0913  0.4443
 9320SOL    HW240434   4.859   4.202   6.419  0.5089  1.2597  3.4930
 9321SOL     OW40435   4.828   6.526   6.889  0.0102  0.1766 -0.2925
 9321SOL    HW140436   4.836   6.482   6.800  0.8638 -0.8100  0.2512
 9321SOL    HW240437   4.746   6.492   6.935  0.5878 -0.7637  0.0642
 9322SOL     OW40438   2.733   7.975   1.922  0.4678  0.6711  0.1082
 9322SOL    HW140439   2.657   7.926   1.965 -0.0647  1.2473 -0.1701
 9322SOL    HW240440   2.719   7.979   1.823  0.4165  1.5357  0.1464
 9323SOL     OW40441   7.828   1.873   8.925  0.3705 -0.5536 -0.3528
 9323SOL    HW140442   7.842   1.953   8.867 -0.0692  0.8422  1.4088
 9323SOL    HW240443   7.913   1.852   8.974 -0.0812  0.1663  0.7793
 9324SOL     OW40444   2.933   2.916   1.499  0.3599 -0.5260  0.1077
 9324SOL    HW140445   3.007   2.881   1.442  0.8839  0.6130  0.0755
 9324SOL    HW240446   2.945   2.883   1.593  0.0474 -1.5927 -0.2236
 9325SOL     OW40447   5.940   8.962   5.113 -0.3671 -0.8275 -0.4409
 9325SOL    HW140448   6.018   8.957   5.174 -0.3214 -0.6846 -0.4850
 9325SOL    HW240449   5.969   8.996   5.023 -0.4592 -0.8824 -0.4920
 9326SOL     OW40450   6.461   5.851   8.057  0.1051 -0.4481 -0.3664
 9326SOL    HW140451   6.446   5.791   8.136  0.4667  1.1804  0.9601
 9326SOL    HW240452   6.542   5.907   8.073 -2.6955  3.5469  0.3869
 9327SOL     OW40453   2.703   3.520   5.363 -1.3040  0.4608 -0.0673
 9327SOL    HW140454   2.727   3.439   5.308 -0.5178  0.7948 -0.2273
 9327SOL    HW240455   2.776   3.538   5.429 -1.9798  0.4113  0.6875
 9328SOL     OW40456   7.850   6.706   8.653 -0.4990  0.0157 -0.1156
 9328SOL    HW140457   7.905   6.625   8.630  1.4860  1.3555 -0.2321
 9328SOL    HW240458   7.859   6.725   8.751  0.7379  1.2982 -0.4627
 9329SOL     OW40459   4.459   7.047   2.190  0.0768  0.4385  0.1444
 9329SOL    HW140460   4.549   7.087   2.172  0.5002  0.2302  1.7403
 9329SOL    HW240461   4.416   7.095   2.266 -1.0002  0.2746 -0.3526
 9330SOL     OW40462   5.517   7.927   0.586  0.0888  0.5882 -0.9342
 9330SOL    HW140463   5.579   7.874   0.528 -0.5501  0.4564 -1.5018
 9330SOL    HW240464   5.466   7.992   0.529 -0.7446  0.2605 -0.5570
 9331SOL     OW40465   7.491   6.094   5.234  0.3080  0.0749 -0.5054
 9331SOL    HW140466   7.394   6.106   5.212  0.4986 -0.4166 -1.6509
 9331SOL    HW240467   7.507   6.120   5.329 -1.0836 -0.5663 -0.0845
 9332SOL     OW40468   6.087   1.301   7.536  0.2459  0.2899 -0.2073
 9332SOL    HW140469   6.012   1.365   7.547 -0.4114  0.1320 -3.3603
 9332SOL    HW240470   6.053   1.217   7.494  1.6578 -0.9580  1.0830
 9333SOL     OW40471   8.866   5.686   0.173  0.3719 -0.3189 -0.3939
 9333SOL    HW140472   8.912   5.774   0.177  0.3411 -0.3663  1.3264
 9333SOL    HW240473   8.769   5.700   0.152  0.1771  0.1343  0.7739
 9334SOL     OW40474   4.590   4.225   5.184  0.4539  0.0198 -0.1617
 9334SOL    HW140475   4.651   4.247   5.108 -2.2654 -0.8683 -2.6817
 9334SOL    HW240476   4.495   4.227   5.152 -0.7686 -0.0914  3.3030
 9335SOL     OW40477   3.149   3.981   6.504  0.1956 -0.6410  0.5391
 9335SOL    HW140478   3.122   3.921   6.579 -0.9333 -2.3406 -1.1822
 9335SOL    HW240479   3.211   3.931   6.443 -1.5641 -0.4114 -1.4638
 9336SOL     OW40480   4.591   3.955   2.005  0.1934  0.0728 -0.8101
 9336SOL    HW140481   4.502   3.990   1.974 -0.8929 -3.3960 -1.8330
 9336SOL    HW240482   4.632   3.901   1.932  1.1254 -1.9758  1.1851
 9337SOL     OW40483   3.226   6.043   6.162 -0.1781 -0.0417  0.5695
 9337SOL    HW140484   3.175   6.119   6.203  1.3422 -0.3099  3.0775
 9337SOL    HW240485   3.166   5.963   6.157 -0.1810 -0.2605  3.1820
 9338SOL     OW40486   2.979   5.185   8.330  0.6347 -0.0420 -0.2808
 9338SOL    HW140487   3.040   5.261   8.310 -0.6049  0.5987 -1.6870
 9338SOL    HW240488   3.017   5.100   8.292  0.7054  0.3361 -1.0577
 9339SOL     OW40489   2.172   6.552   0.089 -0.6439 -0.4209 -0.7665
 9339SOL    HW140490   2.117   6.605   0.153  0.5697 -0.4281  0.3022
 9339SOL    HW240491   2.239   6.612   0.045 -1.7380 -0.3309 -2.3649
 9340SOL     OW40492   7.052   2.543   1.466 -0.8386  0.4244 -0.0966
 9340SOL    HW140493   6.991   2.516   1.540  1.2211  0.3055  1.5799
 9340SOL    HW240494   7.143   2.504   1.481  0.1038  1.9231 -1.7078
 9341SOL     OW40495   0.988   7.726   2.188 -0.2665  0.0510 -0.1699
 9341SOL    HW140496   1.058   7.661   2.219 -0.8729 -0.5479 -0.0420
 9341SOL    HW240497   0.989   7.730   2.088 -0.7798 -0.7871 -0.2159
 9342SOL     OW40498   3.802   2.532   2.778  0.2685 -0.0425  0.9057
 9342SOL    HW140499   3.836   2.438   2.788  0.5460 -0.0578 -0.1120
 9342SOL    HW240500   3.788   2.572   2.868 -0.4342 -1.2729  1.3535
 9343SOL     OW40501   4.265   0.784   2.508 -0.1406  0.0771  0.2537
 9343SOL    HW140502   4.246   0.712   2.442 -0.8909 -0.1255  0.6885
 9343SOL    HW240503   4.346   0.761   2.561  1.8254  1.2805 -2.0993
 9344SOL     OW40504   4.923   3.444   1.651  0.2901 -0.2053 -0.2638
 9344SOL    HW140505   4.974   3.469   1.569 -0.8025  2.8281 -0.0479
 9344SOL    HW240506   4.988   3.418   1.723  1.4068  0.5437 -0.9792
 9345SOL     OW40507   0.876   3.509   5.867  0.3584  0.7450 -0.4612
 9345SOL    HW140508   0.790   3.512   5.918 -0.7787 -1.1942 -2.2026
 9345SOL    HW240509   0.952   3.529   5.929 -1.1982  0.8154  1.4645
 9346SOL     OW40510   0.142   8.927   5.586 -0.0567  0.0144  0.2958
 9346SOL    HW140511   0.065   8.958   5.643 -0.2565 -0.9743  0.5709
 9346SOL    HW240512   0.115   8.929   5.490  0.0676  1.0802  0.2807
 9347SOL     OW40513   8.766   4.621   7.690 -0.4573 -0.4066  0.1287
 9347SOL    HW140514   8.795   4.533   7.728 -0.6045  0.4596  2.3451
 9347SOL    HW240515   8.803   4.695   7.747  0.3689  1.0115 -2.1849
 9348SOL     OW40516   8.565   1.823   6.573  0.0454  0.2435  0.0761
 9348SOL    HW140517   8.496   1.753   6.555  1.1622 -0.8792  0.0997
 9348SOL    HW240518   8.541   1.872   6.657  0.2318 -1.3826  1.1014
 9349SOL     OW40519   3.435   6.703   1.635  0.2202 -0.0224  0.1175
 9349SOL    HW140520   3.511   6.646   1.601  1.0310  0.2188  1.4778
 9349SOL    HW240521   3.434   6.699   1.735 -0.1104  1.8557  0.1929
 9350SOL     OW40522   2.372   6.482   5.253 -0.2563  0.2575  0.7042
 9350SOL    HW140523   2.414   6.463   5.164 -0.6136 -0.2778  0.6475
 9350SOL    HW240524   2.397   6.411   5.318  0.2216  0.7898  1.1108
 9351SOL     OW40525   1.035   5.019   6.470 -0.4848 -0.0504  0.1744
 9351SOL    HW140526   1.044   4.950   6.542 -3.0331 -1.9458 -1.2538
 9351SOL    HW240527   1.066   4.981   6.383 -0.5869  1.0594 -0.3520
 9352SOL     OW40528   2.496   2.103   7.356 -0.1239 -0.0462 -0.3765
 9352SOL    HW140529   2.486   2.152   7.442  0.3296  0.7395 -0.7655
 9352SOL    HW240530   2.555   2.024   7.369  1.0577  0.8359 -0.2558
 9353SOL     OW40531   1.461   2.830   7.852 -0.3306  0.5924 -0.2650
 9353SOL    HW140532   1.456   2.777   7.936 -0.3678  0.3662 -0.4085
 9353SOL    HW240533   1.512   2.914   7.868 -1.3130  1.1035  0.2702
 9354SOL     OW40534   0.269   4.702   1.565 -0.2354  0.2241 -0.2700
 9354SOL    HW140535   0.342   4.685   1.631  0.2788 -2.6399 -1.5312
 9354SOL    HW240536   0.181   4.699   1.612  0.0822 -2.4429  0.2539
 9355SOL     OW40537   7.473   0.729   8.425 -0.2574 -0.0563 -0.8039
 9355SOL    HW140538   7.552   0.699   8.478 -1.7972  1.3659  2.4125
 9355SOL    HW240539   7.416   0.650   8.402  1.8874 -1.0579 -2.9405
 9356SOL     OW40540   8.257   6.690   3.216  0.4543 -0.5560  0.1791
 9356SOL    HW140541   8.299   6.658   3.131  2.1296 -1.0937  1.1922
 9356SOL    HW240542   8.293   6.780   3.239 -0.5456 -0.0872 -0.0443
 9357SOL     OW40543   2.966   4.149   4.731 -0.5923 -0.0722  0.1602
 9357SOL    HW140544   2.956   4.132   4.829 -2.6514  1.8275  0.3174
 9357SOL    HW240545   3.049   4.202   4.715 -0.2610 -0.3712  0.8666
 9358SOL     OW40546   5.345   5.290   7.050 -0.2191  0.2581  0.3445
 9358SOL    HW140547   5.355   5.349   6.970  1.5978  0.6359  0.8367
 9358SOL    HW240548   5.254   5.249   7.050  0.0830 -0.4734 -2.3932
 9359SOL     OW40549   3.190   6.126   0.559  0.6903  0.2105  0.3404
 9359SOL    HW140550   3.167   6.198   0.624  1.8131 -0.3932  1.4186
 9359SOL    HW240551   3.223   6.045   0.608  2.0206 -0.0808 -0.9909
 9360SOL     OW40552   0.966   3.383   7.030  0.6531  0.1721  0.1186
 9360SOL    HW140553   0.962   3.284   7.013 -2.6249  0.1804  0.5426
 9360SOL    HW240554   0.915   3.431   6.958 -0.0649  1.3641  1.4138
 9361SOL     OW40555   8.122   6.319   7.217 -0.4867  0.5818 -0.0163
 9361SOL    HW140556   8.128   6.408   7.263 -0.6139  0.4765  0.2020
 9361SOL    HW240557   8.096   6.249   7.283 -0.2177  0.3527 -0.1571
 9362SOL     OW40558   0.452   3.097   4.862 -0.7908 -0.2370  0.1789
 9362SOL    HW140559   0.416   3.132   4.775  0.5379  1.2344  0.2166
 9362SOL    HW240560   0.531   3.151   4.890  2.6947 -4.5361 -0.8152
 9363SOL     OW40561   1.681   4.198   1.516 -0.3686  0.1441 -0.0322
 9363SOL    HW140562   1.693   4.254   1.434 -0.9512  1.6896  0.9115
 9363SOL    HW240563   1.751   4.221   1.583 -0.4548 -0.4638  0.2707
 9364SOL     OW40564   6.695   2.224   7.410 -0.3395 -0.0169 -0.4591
 9364SOL    HW140565   6.655   2.232   7.501  1.5112  1.9807  0.2387
 9364SOL    HW240566   6.794   2.242   7.416  0.0374 -1.2022 -2.6596
 9365SOL     OW40567   3.764   8.797   5.598  0.7561  0.3860  0.6614
 9365SOL    HW140568   3.684   8.751   5.634  1.8358 -0.4672  2.0139
 9365SOL    HW240569   3.820   8.832   5.674  0.3684  3.2638 -0.2977
 9366SOL     OW40570   4.374   2.211   2.861 -0.0553  0.2009 -0.4998
 9366SOL    HW140571   4.436   2.225   2.939 -0.8163 -0.4346  0.2297
 9366SOL    HW240572   4.349   2.115   2.855 -1.4355  0.5405 -0.4154
 9367SOL     OW40573   3.725   4.484   1.084  0.4745 -0.3961  0.2786
 9367SOL    HW140574   3.723   4.469   0.985  3.1963  0.1918  0.1158
 9367SOL    HW240575   3.799   4.432   1.125  1.7724  2.2938  1.4774
 9368SOL     OW40576   5.028   7.496   7.365 -0.2257  0.5137  0.1724
 9368SOL    HW140577   5.118   7.532   7.340 -0.2409  0.2995 -0.2049
 9368SOL    HW240578   5.004   7.525   7.457  1.0625 -0.9840  0.9879
 9369SOL     OW40579   8.725   7.837   7.499  0.1745 -0.5249 -0.3690
 9369SOL    HW140580   8.780   7.921   7.505  2.1286 -1.7632 -0.5994
 9369SOL    HW240581   8.722   7.793   7.588 -1.1280 -0.0687 -0.1721
 9370SOL     OW40582   0.560   0.459   7.194 -0.0194 -0.4400  0.2459
 9370SOL    HW140583   0.488   0.446   7.126 -0.1172  0.4101  0.1870
 9370SOL    HW240584   0.556   0.385   7.261 -0.2827 -0.9686 -0.3474
 9371SOL     OW40585   2.154   7.121   7.258 -0.3473 -0.7624 -0.0669
 9371SOL    HW140586   2.116   7.192   7.199 -1.8740 -0.9692  0.6496
 9371SOL    HW240587   2.207   7.057   7.202 -0.7855 -0.2927 -1.0380
 9372SOL     OW40588   2.722   0.293   6.863  0.2505  0.2574  0.7882
 9372SOL    HW140589   2.741   0.275   6.959 -2.2363  0.4988  1.3484
 9372SOL    HW240590   2.775   0.230   6.806  0.4040 -1.0683  2.3656
 9373SOL     OW40591   1.063   0.060   0.265 -0.4555  0.0062  0.2886
 9373SOL    HW140592   0.984   0.118   0.243  0.5688  2.0970  1.9202
 9373SOL    HW240593   1.129   0.064   0.190 -0.4501  0.8908  0.3306
 9374SOL     OW40594   5.814   8.030   8.947  0.1764 -0.1452 -0.1773
 9374SOL    HW140595   5.887   8.054   9.010 -0.5405  2.2308 -0.1683
 9374SOL    HW240596   5.787   8.112   8.895 -1.5586 -1.2679 -1.1066
 9375SOL     OW40597   7.576   6.875   3.191  0.0716 -0.1322 -0.1629
 9375SOL    HW140598   7.642   6.941   3.226 -0.6083 -1.3866  3.6466
 9375SOL    HW240599   7.622   6.789   3.168  0.0809 -0.3022  0.4923
 9376SOL     OW40600   5.387   3.607   3.107 -0.0537 -0.0857  0.3964
 9376SOL    HW140601   5.372   3.508   3.111 -0.4289 -0.0788 -0.5438
 9376SOL    HW240602   5.300   3.654   3.115 -0.1612  0.0791 -1.4634
 9377SOL     OW40603   3.953   6.317   4.716 -0.6332 -0.3962  0.2528
 9377SOL    HW140604   4.039   6.333   4.668 -1.2984  0.6896 -0.6008
 9377SOL    HW240605   3.891   6.264   4.658 -1.0250 -0.0388  0.3392
 9378SOL     OW40606   4.517   2.131   0.137 -0.2983  0.0915  0.3515
 9378SOL    HW140607   4.458   2.185   0.077 -1.4995 -2.0058 -0.3938
 9378SOL    HW240608   4.611   2.133   0.102 -0.7917 -0.2479 -1.0149
 9379SOL     OW40609   3.296   1.943   7.900 -0.4080 -0.2994  0.6701
 9379SOL    HW140610   3.286   1.858   7.848  0.3826 -1.7940  2.9088
 9379SOL    HW240611   3.256   2.018   7.848 -1.4388 -2.0809 -1.1946
 9380SOL     OW40612   1.034   6.768   8.815 -0.1859 -0.0573 -0.3005
 9380SOL    HW140613   1.069   6.849   8.768 -3.2709  1.8827  0.5739
 9380SOL    HW240614   1.006   6.700   8.747  1.9897 -0.2294 -1.0576
 9381SOL     OW40615   7.031   0.305   1.732  0.3453  0.6064  0.2647
 9381SOL    HW140616   6.982   0.314   1.645 -0.0383 -1.0950  0.2985
 9381SOL    HW240617   7.120   0.349   1.725  0.0672  1.0184 -0.7933
 9382SOL     OW40618   1.674   3.510   8.234  0.1947  0.1831  0.1725
 9382SOL    HW140619   1.725   3.595   8.245  2.6819 -1.2993  0.4589
 9382SOL    HW240620   1.704   3.443   8.301 -1.7049 -0.9681 -0.0685
 9383SOL     OW40621   5.593   3.763   0.057  0.2575 -0.4610 -0.4340
 9383SOL    HW140622   5.625   3.699  -0.013 -0.6667  0.7588 -2.0045
 9383SOL    HW240623   5.660   3.836   0.067  0.5729 -0.8391  0.2501
 9384SOL     OW40624   2.403   8.052   5.794 -0.6230  0.4593 -0.2021
 9384SOL    HW140625   2.346   8.133   5.806 -1.4241 -0.1415  0.0346
 9384SOL    HW240626   2.351   7.970   5.819  0.2453 -0.1122 -0.2616
 9385SOL     OW40627   7.041   8.370   1.056 -0.7267 -0.2192 -0.2907
 9385SOL    HW140628   7.047   8.465   1.087  0.4833 -0.0492 -1.0175
 9385SOL    HW240629   6.952   8.355   1.013 -0.7792  0.6836 -0.5074
 9386SOL     OW40630   1.016   0.258   2.648 -0.4657  0.3198  0.7284
 9386SOL    HW140631   1.103   0.244   2.695 -0.9588 -2.0673  1.0304
 9386SOL    HW240632   1.033   0.268   2.550  0.1335 -0.4746  0.7450
 9387SOL     OW40633   4.954   6.731   1.968 -0.0016 -0.2527 -0.0468
 9387SOL    HW140634   4.928   6.821   1.934  1.2359 -0.0456 -0.4325
 9387SOL    HW240635   5.014   6.685   1.903  0.5051 -0.7923  0.7799
 9388SOL     OW40636   8.894   1.373   3.442  0.0265  0.1287 -0.4480
 9388SOL    HW140637   8.968   1.389   3.507 -0.1608  0.5595 -0.3402
 9388SOL    HW240638   8.895   1.444   3.372 -0.2161  0.0736 -0.5071
 9389SOL     OW40639   4.235   1.482   1.419  0.4928 -0.0449 -0.4900
 9389SOL    HW140640   4.260   1.498   1.514 -1.4201  0.3724 -0.0289
 9389SOL    HW240641   4.307   1.515   1.359  2.0031 -0.8958  0.8237
 9390SOL     OW40642   5.266   2.204   0.048 -0.1961  0.2199 -0.7342
 9390SOL    HW140643   5.168   2.185   0.036 -0.5585  2.3297 -1.3480
 9390SOL    HW240644   5.277   2.288   0.101  1.2663  0.7174 -1.8058
 9391SOL     OW40645   6.748   4.134   7.419 -0.1147 -0.2392 -0.3987
 9391SOL    HW140646   6.814   4.105   7.489 -1.4647  0.5195  1.2114
 9391SOL    HW240647   6.673   4.183   7.462  0.9900  3.8182 -2.7670
 9392SOL     OW40648   2.421   0.253   2.089 -0.1467 -0.1087 -0.2200
 9392SOL    HW140649   2.387   0.339   2.128 -0.6262 -0.1154 -0.6171
 9392SOL    HW240650   2.356   0.220   2.020 -0.3934 -1.2391  0.5387
 9393SOL     OW40651   7.532   3.711   0.412 -0.2791  0.2104  0.2570
 9393SOL    HW140652   7.577   3.662   0.487 -0.1176 -0.5080 -0.3066
 9393SOL    HW240653   7.576   3.687   0.326 -1.3237  0.0303 -0.2217
 9394SOL     OW40654   5.188   2.291   2.453 -0.2462  0.4558 -0.0380
 9394SOL    HW140655   5.101   2.305   2.406 -0.4792  0.4482  0.3854
 9394SOL    HW240656   5.201   2.193   2.471  0.5894  0.2950 -1.4945
 9395SOL     OW40657   1.823   3.659   1.162  0.1144 -0.2927 -0.4978
 9395SOL    HW140658   1.786   3.612   1.242  1.1679  0.1952  0.2847
 9395SOL    HW240659   1.748   3.692   1.105 -0.7221  2.4653  2.0771
 9396SOL     OW40660   2.307   3.405   5.731 -0.3724 -0.0968 -0.2680
 9396SOL    HW140661   2.217   3.366   5.750 -1.8150  2.2124 -2.1637
 9396SOL    HW240662   2.312   3.497   5.770  0.9752  0.0094 -0.6773
 9397SOL     OW40663   4.081   2.389   0.613 -0.0024  0.2457 -0.0118
 9397SOL    HW140664   4.098   2.447   0.533 -0.7475  0.2775 -0.1549
 9397SOL    HW240665   3.993   2.414   0.654 -1.3023 -2.0824 -1.2466
 9398SOL     OW40666   5.764   0.204   1.657 -0.1816 -0.2234 -0.3803
 9398SOL    HW140667   5.832   0.149   1.705  0.2750  0.1651 -0.5749
 9398SOL    HW240668   5.755   0.170   1.563 -0.2456 -0.2669 -0.3583
 9399SOL     OW40669   7.463   4.009   0.367  0.1126  0.6554  0.1835
 9399SOL    HW140670   7.553   4.050   0.383  0.3628 -0.4979  1.8187
 9399SOL    HW240671   7.465   3.912   0.391 -1.2814  0.3722 -0.7867
 9400SOL     OW40672   4.703   1.908   3.476 -0.0528 -0.0068  0.0377
 9400SOL    HW140673   4.759   1.826   3.492 -1.4604 -1.1336 -0.7134
 9400SOL    HW240674   4.618   1.901   3.528 -0.0183  1.1586  0.2571
 9401SOL     OW40675   4.653   8.688   1.055 -0.2264 -0.2201  0.4548
 9401SOL    HW140676   4.581   8.701   1.123 -0.8872  0.3321 -0.3395
 9401SOL    HW240677   4.614   8.651   0.971 -0.0709  2.6203 -0.9422
 9402SOL     OW40678   8.884   3.909   6.122 -0.0094 -0.2724 -0.4301
 9402SOL    HW140679   8.877   3.813   6.097  1.4383 -0.8065  1.1211
 9402SOL    HW240680   8.849   3.966   6.048 -2.6953 -2.0446 -0.5942
 9403SOL     OW40681   5.972   7.771   0.488  0.1131  0.4674 -0.5258
 9403SOL    HW140682   6.016   7.789   0.576  0.4619  1.2795 -0.8586
 9403SOL    HW240683   5.972   7.672   0.470 -0.6605  0.2254  0.7325
 9404SOL     OW40684   8.782   3.118   3.484  0.0205  0.2230 -0.0587
 9404SOL    HW140685   8.861   3.063   3.456 -0.4615 -0.7980  0.5575
 9404SOL    HW240686   8.713   3.058   3.526 -1.2832  1.0335 -1.0188
 9405SOL     OW40687   7.408   0.187   6.933 -0.6806  0.1337  0.2160
 9405SOL    HW140688   7.405   0.150   7.026 -0.1785  0.9479  0.5560
 9405SOL    HW240689   7.386   0.114   6.868  0.4213 -0.8059  0.8774
 9406SOL     OW40690   6.594   3.319   0.241 -0.2076 -0.2068 -0.0093
 9406SOL    HW140691   6.658   3.354   0.310 -1.1600 -2.0834  1.8919
 9406SOL    HW240692   6.541   3.395   0.203 -0.5843  0.7410  2.3185
 9407SOL     OW40693   3.438   4.590   0.159  0.0014 -0.0838  0.5331
 9407SOL    HW140694   3.350   4.606   0.115 -0.1099 -1.2670  0.3071
 9407SOL    HW240695   3.425   4.543   0.246  0.3862 -0.0377  0.6171
 9408SOL     OW40696   1.528   5.091   1.114 -0.1380 -0.1691 -0.2648
 9408SOL    HW140697   1.456   5.092   1.044  0.1013 -0.4842 -0.5157
 9408SOL    HW240698   1.560   5.184   1.129 -1.5672  0.1633  0.8438
 9409SOL     OW40699   4.149   1.219   2.950 -0.5597  0.3450  0.5303
 9409SOL    HW140700   4.194   1.214   2.860 -1.1511 -0.1117  0.2531
 9409SOL    HW240701   4.078   1.148   2.956 -0.7617  0.5977  1.2274
 9410SOL     OW40702   4.265   7.713   8.707 -0.6463  0.3114  0.2721
 9410SOL    HW140703   4.271   7.672   8.616 -3.5271  0.9503 -0.2236
 9410SOL    HW240704   4.201   7.661   8.763 -0.0216  0.8165  1.4791
 9411SOL     OW40705   2.859   7.781   8.521  0.4080 -0.3425  0.7517
 9411SOL    HW140706   2.926   7.707   8.514  1.5702  0.7046  0.7334
 9411SOL    HW240707   2.902   7.861   8.563 -0.5170  0.7157 -0.2980
 9412SOL     OW40708   1.099   7.958   8.543 -0.0867 -0.3143 -0.3702
 9412SOL    HW140709   1.029   8.012   8.497 -1.6567 -1.5743  0.4706
 9412SOL    HW240710   1.190   7.988   8.513 -1.0154  0.0811 -2.9220
 9413SOL     OW40711   2.945   1.803   0.686  0.0431 -0.9219 -0.1075
 9413SOL    HW140712   2.915   1.896   0.706  0.2184 -0.6303 -1.1928
 9413SOL    HW240713   2.984   1.763   0.769  2.5123  0.9576 -0.2981
 9414SOL     OW40714   3.684   1.834   8.452  0.4590 -0.0618  0.5449
 9414SOL    HW140715   3.659   1.815   8.357  0.9466  0.8463  0.2282
 9414SOL    HW240716   3.740   1.917   8.456 -0.0744  0.2518  1.6961
 9415SOL     OW40717   0.383   5.058   0.302 -0.2357  0.7592  0.1834
 9415SOL    HW140718   0.368   4.991   0.375 -0.3345 -0.4939 -0.9698
 9415SOL    HW240719   0.351   5.020   0.215  1.0464  1.7237 -0.7271
 9416SOL     OW40720   1.571   4.849   1.645  0.3125  0.2649  0.1872
 9416SOL    HW140721   1.492   4.909   1.635  2.1933  2.7983 -0.2434
 9416SOL    HW240722   1.603   4.822   1.554 -0.4699 -1.3572  0.3792
 9417SOL     OW40723   4.522   4.192   7.558 -0.1876 -0.1493  0.2563
 9417SOL    HW140724   4.467   4.112   7.583  0.8230 -1.2339 -0.9405
 9417SOL    HW240725   4.588   4.166   7.488  1.8455  1.1538  1.6594
 9418SOL     OW40726   1.869   3.458   0.478  0.6736 -0.7906  0.1443
 9418SOL    HW140727   1.785   3.472   0.425  2.3654  0.6196 -2.2421
 9418SOL    HW240728   1.884   3.360   0.490 -2.0957 -1.0542  1.9347
 9419SOL     OW40729   0.507   6.402   6.396  0.3292  0.2476  0.2683
 9419SOL    HW140730   0.481   6.472   6.330 -2.2878 -0.8773  0.0192
 9419SOL    HW240731   0.606   6.388   6.394  0.3603  0.6755 -2.9556
 9420SOL     OW40732   4.015   0.312   6.197 -0.0654 -0.1479 -0.2005
 9420SOL    HW140733   3.962   0.264   6.127 -0.1645  1.8709 -1.5584
 9420SOL    HW240734   4.110   0.280   6.195 -0.7669 -2.3951  0.9425
 9421SOL     OW40735   7.993   5.255   3.587 -0.0263 -0.1645  0.1796
 9421SOL    HW140736   8.002   5.355   3.593  1.0422 -0.2107 -0.5790
 9421SOL    HW240737   7.897   5.230   3.598 -0.3979  1.0006 -0.3287
 9422SOL     OW40738   0.979   0.419   4.563  0.1167 -0.0206 -0.4459
 9422SOL    HW140739   0.986   0.321   4.584 -2.4876 -0.0228  0.7079
 9422SOL    HW240740   1.070   0.457   4.549  1.2351 -2.4222  0.0015
 9423SOL     OW40741   3.909   4.576   2.164 -0.1116  0.1156  0.0178
 9423SOL    HW140742   3.985   4.530   2.118  2.7491  2.0623  2.6265
 9423SOL    HW240743   3.867   4.514   2.230  0.1084 -0.5112 -0.4275
 9424SOL     OW40744   2.789   6.762   6.312 -0.4494  0.2413 -0.5851
 9424SOL    HW140745   2.735   6.786   6.393 -0.1102  1.5355 -0.7340
 9424SOL    HW240746   2.764   6.821   6.236  0.3447  0.0799 -0.9825
 9425SOL     OW40747   2.786   2.823   0.867 -0.0882  0.4734 -1.1794
 9425SOL    HW140748   2.731   2.750   0.824 -2.3056  1.0887  0.4805
 9425SOL    HW240749   2.759   2.831   0.963  0.5494  3.0863 -1.1964
 9426SOL     OW40750   1.053   3.039   1.516  0.7173 -0.5919 -0.1992
 9426SOL    HW140751   1.141   3.052   1.563  0.3715  0.1210  0.2593
 9426SOL    HW240752   1.066   2.981   1.436  1.6920 -0.1140 -0.3901
 9427SOL     OW40753   5.340   5.049   7.970  0.0170 -0.3668  0.3178
 9427SOL    HW140754   5.260   5.094   7.930  1.0562  3.0981  2.0488
 9427SOL    HW240755   5.423   5.079   7.922  0.5348 -2.4849 -0.2014
 9428SOL     OW40756   5.312   8.990   1.095  0.0762  0.2918  0.1248
 9428SOL    HW140757   5.286   9.080   1.062  0.9334  0.7757  0.7390
 9428SOL    HW240758   5.251   8.921   1.056 -0.2816  1.0770 -0.7297
 9429SOL     OW40759   2.203   0.706   5.847 -0.1833  0.1531 -0.3197
 9429SOL    HW140760   2.178   0.613   5.822  0.0082  0.4315 -1.5735
 9429SOL    HW240761   2.136   0.770   5.809 -1.7945  0.3712  2.7267
 9430SOL     OW40762   7.532   5.166   2.554  0.0206 -0.2891 -0.5197
 9430SOL    HW140763   7.443   5.120   2.546  0.7115 -1.5818 -0.9875
 9430SOL    HW240764   7.590   5.138   2.477  1.1282 -0.1083  0.2492
 9431SOL     OW40765   4.722   5.351   2.659 -0.3116 -0.4280  0.2854
 9431SOL    HW140766   4.693   5.292   2.734  0.7414  0.8635  1.7576
 9431SOL    HW240767   4.643   5.376   2.603 -1.0579 -1.6372  0.7839
 9432SOL     OW40768   4.578   4.576   6.536 -0.0812  0.4425  0.3346
 9432SOL    HW140769   4.517   4.652   6.555  0.5791  0.9852  0.3164
 9432SOL    HW240770   4.610   4.582   6.441 -1.5589 -0.9571 -0.2773
 9433SOL     OW40771   2.369   3.040   3.022 -0.2726  0.5512 -0.3682
 9433SOL    HW140772   2.336   3.076   2.935 -0.1621  1.3682 -0.0727
 9433SOL    HW240773   2.317   3.080   3.097 -0.5439 -0.3488 -0.0620
 9434SOL     OW40774   6.298   4.530   6.108 -0.5669  0.0067  0.1867
 9434SOL    HW140775   6.396   4.536   6.125 -0.5314 -0.5985  0.2264
 9434SOL    HW240776   6.248   4.543   6.194 -0.6059  2.2664 -0.1581
 9435SOL     OW40777   4.781   5.927   1.677  0.4474  0.0517  0.0260
 9435SOL    HW140778   4.851   5.911   1.746  0.7934 -0.1001 -0.3618
 9435SOL    HW240779   4.820   5.917   1.586  0.0931  0.6770 -0.1999
 9436SOL     OW40780   7.518   3.157   6.997  0.1529  0.1436  0.2124
 9436SOL    HW140781   7.493   3.166   6.900  3.4273  2.0414 -0.5167
 9436SOL    HW240782   7.487   3.238   7.047 -0.3906 -0.2409  0.5021
 9437SOL     OW40783   6.821   2.171   3.936 -0.0182 -0.0225  0.3883
 9437SOL    HW140784   6.867   2.120   3.864 -0.1680 -0.8623  0.8794
 9437SOL    HW240785   6.788   2.107   4.006 -0.5902  0.7071  0.7901
 9438SOL     OW40786   7.327   5.383   8.858 -0.1381 -0.0191 -0.5781
 9438SOL    HW140787   7.293   5.303   8.809  0.5576 -2.0060  2.0455
 9438SOL    HW240788   7.251   5.443   8.881 -0.7904 -0.3606 -1.7934
 9439SOL     OW40789   1.877   0.102   8.915  0.5920  0.3394  0.3095
 9439SOL    HW140790   1.801   0.054   8.958  1.2986 -0.0563  1.1563
 9439SOL    HW240791   1.843   0.175   8.857 -0.6579 -2.7558 -3.0286
 9440SOL     OW40792   7.577   8.984   5.890 -0.3999 -0.1460 -0.0721
 9440SOL    HW140793   7.537   8.933   5.966  0.6045  0.7057  1.0476
 9440SOL    HW240794   7.578   8.927   5.808 -3.1951 -0.4443  0.0510
 9441SOL     OW40795   6.448   3.062   0.253  0.1838 -0.1709 -0.7491
 9441SOL    HW140796   6.492   3.002   0.185  1.8561 -1.3915  1.3404
 9441SOL    HW240797   6.492   3.152   0.250  2.5617 -1.2178  0.9379
 9442SOL     OW40798   2.483   1.939   4.388  0.3639  0.5773 -0.3880
 9442SOL    HW140799   2.507   2.036   4.379 -0.9054  0.8347 -1.1473
 9442SOL    HW240800   2.565   1.886   4.410  0.8307  2.0092  1.5277
 9443SOL     OW40801   7.304   4.975   3.543 -0.2361 -0.2027 -0.5877
 9443SOL    HW140802   7.300   4.913   3.465 -0.0382 -0.0567 -0.7124
 9443SOL    HW240803   7.334   5.065   3.512 -0.3114 -0.1037 -0.3694
 9444SOL     OW40804   5.154   6.824   3.302  0.0589 -0.0062 -0.3388
 9444SOL    HW140805   5.161   6.889   3.378  0.9921 -1.0717  0.5012
 9444SOL    HW240806   5.194   6.737   3.330 -0.2257 -0.6110 -1.8258
 9445SOL     OW40807   7.762   6.170   5.141 -0.4003  0.2111  0.1907
 9445SOL    HW140808   7.792   6.128   5.055  0.0887 -0.2011  0.5577
 9445SOL    HW240809   7.671   6.135   5.165 -0.1383 -0.3967  0.3227
 9446SOL     OW40810   2.427   3.499   7.051 -0.0169  0.4221 -0.2434
 9446SOL    HW140811   2.408   3.580   6.995  1.2543  1.2164  0.4503
 9446SOL    HW240812   2.520   3.467   7.031 -0.4884 -0.8421 -0.4673
 9447SOL     OW40813   2.547   3.525   6.354  0.0448 -0.5895 -0.2213
 9447SOL    HW140814   2.511   3.432   6.359  1.0303 -1.0600 -1.3766
 9447SOL    HW240815   2.517   3.569   6.270  0.9947 -0.4929 -0.5244
 9448SOL     OW40816   4.205   3.180   6.377 -1.0070  0.2099  0.1850
 9448SOL    HW140817   4.108   3.197   6.357 -1.3473 -0.5252  1.1752
 9448SOL    HW240818   4.215   3.089   6.417  0.1627  0.0825 -0.3841
 9449SOL     OW40819   1.563   3.857   3.976 -0.4296 -0.4903  0.3042
 9449SOL    HW140820   1.468   3.885   3.964  0.2584  1.8441 -0.0786
 9449SOL    HW240821   1.587   3.861   4.073 -1.1277 -2.5948  0.5940
 9450SOL     OW40822   6.244   5.247   5.618  0.6520  0.4681  0.2876
 9450SOL    HW140823   6.197   5.172   5.572  1.3276 -0.1541  0.6045
 9450SOL    HW240824   6.180   5.292   5.681 -0.2590  1.2845 -1.1756
 9451SOL     OW40825   6.426   4.462   5.475  0.4943 -0.0233  0.2778
 9451SOL    HW140826   6.448   4.556   5.447  0.6013 -0.0508  0.2712
 9451SOL    HW240827   6.335   4.461   5.516  0.0958 -0.0785 -0.5950
 9452SOL     OW40828   4.894   6.071   5.338 -0.5877 -0.2322 -0.2968
 9452SOL    HW140829   4.908   6.053   5.435  1.7006  0.1127 -0.5291
 9452SOL    HW240830   4.920   5.990   5.285 -1.6274 -0.3478 -0.6373
 9453SOL     OW40831   2.980   4.655   0.939  0.2901 -0.8422  0.0338
 9453SOL    HW140832   2.932   4.692   1.018 -1.2084 -1.6905 -0.4488
 9453SOL    HW240833   2.918   4.593   0.889  1.3826 -0.7176 -1.4936
 9454SOL     OW40834   0.108   4.734   3.034  0.4619 -0.0936  0.0092
 9454SOL    HW140835   0.084   4.828   3.061  0.0561 -1.0769  3.2769
 9454SOL    HW240836   0.202   4.732   3.000  1.5948  1.0297  2.8955
 9455SOL     OW40837   5.375   8.663   1.233  0.1403 -0.1005 -0.0080
 9455SOL    HW140838   5.462   8.617   1.248 -0.6084 -1.2578  0.8744
 9455SOL    HW240839   5.391   8.749   1.183  1.5323 -1.3275 -1.7484
 9456SOL     OW40840   1.683   2.453   1.012 -0.5422 -0.2456 -0.6321
 9456SOL    HW140841   1.662   2.442   0.915  1.5306 -0.6670 -1.0455
 9456SOL    HW240842   1.749   2.527   1.024 -1.1626  0.1346  0.5071
 9457SOL     OW40843   5.801   7.170   4.265 -0.3344  0.1450  0.1166
 9457SOL    HW140844   5.819   7.236   4.338 -2.7310 -0.6562  1.4789
 9457SOL    HW240845   5.824   7.078   4.296  1.3057  0.1000 -1.1577
 9458SOL     OW40846   2.310   2.183   3.908 -0.2359  0.1495 -0.2294
 9458SOL    HW140847   2.274   2.259   3.962  0.2604 -0.6321  1.2051
 9458SOL    HW240848   2.408   2.198   3.892 -0.4183  0.4706 -1.0818
 9459SOL     OW40849   0.844   6.554   7.967 -0.1198 -0.3125 -0.3001
 9459SOL    HW140850   0.832   6.556   7.868  0.9443 -0.0622 -0.4350
 9459SOL    HW240851   0.819   6.463   8.002  1.6928 -1.1588 -1.1104
 9460SOL     OW40852   4.628   2.552   8.457 -0.0911  0.0764  0.0278
 9460SOL    HW140853   4.578   2.610   8.521  0.8395 -0.5473  1.3452
 9460SOL    HW240854   4.563   2.494   8.407 -0.8165  0.4834  0.4896
 9461SOL     OW40855   0.061   6.588   6.539 -0.2844  0.2283  0.1724
 9461SOL    HW140856   0.035   6.634   6.625  1.2102  0.4581  0.5157
 9461SOL    HW240857   0.113   6.651   6.482 -0.7684 -0.1162 -0.6630
 9462SOL     OW40858   5.329   3.842   4.022  0.4422 -0.6656  0.5127
 9462SOL    HW140859   5.270   3.921   4.039  1.4733  0.1802  0.1705
 9462SOL    HW240860   5.334   3.786   4.105  0.6616  0.2613  1.1365
 9463SOL     OW40861   2.941   8.746   0.467  0.1618 -0.5558 -0.0053
 9463SOL    HW140862   3.011   8.812   0.440  1.8339 -1.7363  1.3375
 9463SOL    HW240863   2.967   8.655   0.435 -1.0331 -0.9160  0.0331
 9464SOL     OW40864   5.040   1.093   2.043 -0.2163 -0.5465  0.3505
 9464SOL    HW140865   4.978   1.014   2.039  1.3985 -1.8900  1.4235
 9464SOL    HW240866   5.003   1.167   1.987 -2.3422 -1.6462  0.2615
 9465SOL     OW40867   0.378   4.189   5.271  0.2853  0.8713 -0.1632
 9465SOL    HW140868   0.414   4.147   5.188 -1.1509  0.7580 -0.7418
 9465SOL    HW240869   0.436   4.265   5.299  2.0487 -0.5214  0.0083
 9466SOL     OW40870   1.052   3.619   4.105  0.4427  0.3013 -0.3179
 9466SOL    HW140871   0.962   3.619   4.061  0.2936  0.9344 -0.0243
 9466SOL    HW240872   1.104   3.539   4.075 -0.2036 -0.0505 -0.5182
 9467SOL     OW40873   6.301   6.681   7.463  0.6447  0.3154  0.2800
 9467SOL    HW140874   6.350   6.704   7.380 -0.7201  0.4712 -0.4998
 9467SOL    HW240875   6.363   6.636   7.528  1.9138  0.9619 -0.4694
 9468SOL     OW40876   3.877   0.210   5.479 -0.6610  0.8570  0.1054
 9468SOL    HW140877   3.946   0.204   5.552  0.8840 -1.8435 -1.4757
 9468SOL    HW240878   3.798   0.153   5.503 -0.5177  0.6363  0.0561
 9469SOL     OW40879   5.238   3.380   4.186  0.1391 -0.0811 -1.0500
 9469SOL    HW140880   5.328   3.346   4.214  0.0459  1.4546  1.1928
 9469SOL    HW240881   5.249   3.455   4.121  0.4114 -0.9170 -2.0003
 9470SOL     OW40882   3.145   6.374   0.719 -0.0199  0.4467  0.0284
 9470SOL    HW140883   3.111   6.461   0.684 -2.4326  0.8768  3.1555
 9470SOL    HW240884   3.067   6.319   0.749  1.6213 -1.9788 -0.0523
 9471SOL     OW40885   3.031   7.327   2.083 -0.0099 -0.3510 -0.1294
 9471SOL    HW140886   3.094   7.404   2.072 -0.3116 -0.4783 -3.2096
 9471SOL    HW240887   3.076   7.242   2.057 -0.8879 -0.6848 -0.6092
 9472SOL     OW40888   5.051   3.044   1.823  0.3124  0.0989  0.1927
 9472SOL    HW140889   5.031   3.063   1.727  0.5034 -0.4776  0.0390
 9472SOL    HW240890   4.974   3.071   1.880 -0.4701 -1.1146 -0.2852
 9473SOL     OW40891   0.344   8.368   7.593  0.3601  0.0075  0.1052
 9473SOL    HW140892   0.432   8.320   7.589 -0.1504 -1.0376  1.3981
 9473SOL    HW240893   0.309   8.380   7.500  1.0744 -1.0270 -0.3090
 9474SOL     OW40894   3.482   6.919   5.038  0.3881 -0.1818 -0.6524
 9474SOL    HW140895   3.560   6.978   5.018  0.4648 -0.8159 -2.2771
 9474SOL    HW240896   3.510   6.848   5.103  0.9240  0.1147 -0.5545
 9475SOL     OW40897   2.069   3.458   8.161 -0.1780  0.5750 -0.0113
 9475SOL    HW140898   2.154   3.446   8.212  1.0672  1.6571 -1.8017
 9475SOL    HW240899   2.011   3.378   8.175  1.5852 -0.6643  0.3401
 9476SOL     OW40900   5.806   2.107   7.100 -0.0333 -0.2273 -0.0550
 9476SOL    HW140901   5.807   2.023   7.045  1.0115 -1.5992  2.0083
 9476SOL    HW240902   5.868   2.174   7.059 -0.5847 -0.5828 -1.5103
 9477SOL     OW40903   0.780   8.451   1.082  0.0759 -0.5984 -0.4059
 9477SOL    HW140904   0.778   8.406   1.171  2.0071 -1.8472 -0.9455
 9477SOL    HW240905   0.853   8.520   1.081 -1.4132  1.0066 -0.3093
 9478SOL     OW40906   2.500   4.629   0.455  0.2428  0.0445  0.0732
 9478SOL    HW140907   2.449   4.714   0.437 -0.5544 -0.2317  0.9721
 9478SOL    HW240908   2.505   4.575   0.371 -1.0200  0.0382 -0.0131
 9479SOL     OW40909   3.744   7.170   5.512  0.3192 -0.2914 -0.4072
 9479SOL    HW140910   3.827   7.194   5.461  0.2444  1.9869  0.4912
 9479SOL    HW240911   3.664   7.211   5.468 -0.2347 -1.7006 -0.7348
 9480SOL     OW40912   7.045   1.219   1.149  0.0131  0.9292  0.1466
 9480SOL    HW140913   6.997   1.172   1.223 -2.1383  0.8727 -1.2174
 9480SOL    HW240914   7.119   1.161   1.115 -0.6693 -0.1766  0.5125
 9481SOL     OW40915   1.041   7.292   7.756 -0.8253 -0.4397 -0.3637
 9481SOL    HW140916   1.048   7.372   7.695 -0.9067 -0.7057 -0.7271
 9481SOL    HW240917   0.963   7.303   7.817 -0.4471  0.0594  0.0355
 9482SOL     OW40918   0.373   2.439   4.140  0.2748 -0.0374  0.2318
 9482SOL    HW140919   0.364   2.352   4.091  1.5344  0.6207 -1.1831
 9482SOL    HW240920   0.385   2.421   4.238  1.0809 -1.4802 -0.1187
 9483SOL     OW40921   5.355   1.067   3.812 -0.0739 -0.7280 -0.0183
 9483SOL    HW140922   5.267   1.116   3.812  0.5130  0.4629  2.9791
 9483SOL    HW240923   5.368   1.023   3.901  2.7737 -0.1347 -0.0954
 9484SOL     OW40924   6.334   3.485   6.576 -0.0705 -0.3644  0.7380
 9484SOL    HW140925   6.245   3.532   6.577  0.3637  0.4698  0.9901
 9484SOL    HW240926   6.405   3.549   6.547  0.4573 -1.0182  0.5792
 9485SOL     OW40927   1.316   3.301   8.117  0.2396 -0.1133 -0.1842
 9485SOL    HW140928   1.271   3.296   8.207 -0.8795 -1.3752 -0.7962
 9485SOL    HW240929   1.297   3.390   8.076 -1.7088 -0.6148 -0.4119
 9486SOL     OW40930   4.876   1.592   2.857  0.0323 -0.2085  0.2524
 9486SOL    HW140931   4.824   1.517   2.816 -1.6455  1.3213 -0.5061
 9486SOL    HW240932   4.872   1.585   2.957 -0.7270 -0.7399  0.1941
 9487SOL     OW40933   5.485   4.127   5.199  0.5428  0.3699  0.8201
 9487SOL    HW140934   5.458   4.058   5.267 -0.9769 -0.1046 -0.2282
 9487SOL    HW240935   5.542   4.196   5.242  0.4903 -0.5146  2.3337
 9488SOL     OW40936   0.758   3.009   2.539  0.5511 -0.8484  0.2362
 9488SOL    HW140937   0.720   2.991   2.449 -0.9996  2.0293  0.2258
 9488SOL    HW240938   0.684   3.013   2.606  1.4631 -0.9855  1.2683
 9489SOL     OW40939   5.496   1.058   2.789  0.3356  0.4576 -0.1272
 9489SOL    HW140940   5.486   1.062   2.888 -0.6529 -3.4425 -0.0083
 9489SOL    HW240941   5.449   1.136   2.748 -2.2646  0.2628  2.3022
 9490SOL     OW40942   5.182   8.051   4.969 -0.0407 -1.4912  0.0260
 9490SOL    HW140943   5.086   8.070   4.949  0.5081 -0.6752 -1.9177
 9490SOL    HW240944   5.202   8.079   5.063 -1.7547 -1.8846  0.5306
 9491SOL     OW40945   4.244   2.085   4.454  0.2907 -0.3646  0.2515
 9491SOL    HW140946   4.232   2.088   4.553  2.2211  0.0991  0.4922
 9491SOL    HW240947   4.187   2.156   4.411 -1.5856 -1.4424  0.8878
 9492SOL     OW40948   0.536   6.843   5.461 -0.0371  0.1978 -0.4234
 9492SOL    HW140949   0.553   6.940   5.478  1.3452 -0.1724  0.4086
 9492SOL    HW240950   0.445   6.818   5.496  0.7289  0.5842  1.9570
 9493SOL     OW40951   5.565   3.353   1.666  0.0399 -0.2489 -0.0872
 9493SOL    HW140952   5.579   3.432   1.726  1.1623 -0.5144  0.0137
 9493SOL    HW240953   5.490   3.372   1.603 -2.2518 -0.6003  2.4512
 9494SOL     OW40954   7.941   2.386   7.229  0.2020  0.1181  0.2496
 9494SOL    HW140955   7.954   2.482   7.251 -2.2795  0.3755  0.7722
 9494SOL    HW240956   7.852   2.355   7.265 -0.4098 -1.5665 -2.5181
 9495SOL     OW40957   1.162   4.939   7.547 -0.0270  0.5602  0.0954
 9495SOL    HW140958   1.100   4.872   7.589 -0.8518  1.0664 -0.3108
 9495SOL    HW240959   1.115   4.986   7.472  1.6414 -0.8530 -1.9262
 9496SOL     OW40960   0.059   0.993   8.748  0.0006  0.7193 -0.1873
 9496SOL    HW140961   0.148   0.948   8.732 -1.0782 -2.3290  1.8363
 9496SOL    HW240962   0.065   1.048   8.832 -0.3499 -0.5536  0.6931
 9497SOL     OW40963   3.402   4.120   7.148 -0.0814  0.5459  0.4518
 9497SOL    HW140964   3.303   4.114   7.162  0.1401  0.9046  2.2636
 9497SOL    HW240965   3.433   4.212   7.170  0.5198  0.7270 -1.0892
 9498SOL     OW40966   0.485   3.312   7.902  0.7457  0.6024 -0.4073
 9498SOL    HW140967   0.530   3.281   7.818 -1.0157 -0.6037 -0.9509
 9498SOL    HW240968   0.548   3.369   7.955  3.0362 -1.3397 -0.9347
 9499SOL     OW40969   6.332   5.680   5.089  0.0710 -0.4825 -0.2363
 9499SOL    HW140970   6.402   5.752   5.080 -0.5344  0.3568  1.5474
 9499SOL    HW240971   6.352   5.606   5.025  1.2936  0.8033 -1.3769
 9500SOL     OW40972   5.133   3.952   5.433  0.0589 -0.4080  0.0097
 9500SOL    HW140973   5.133   3.938   5.532  2.7443 -0.2664  0.0455
 9500SOL    HW240974   5.134   3.863   5.387 -1.9328 -0.4916  0.0608
 9501SOL     OW40975   7.882   1.222   6.313 -0.0022  0.3765 -0.2207
 9501SOL    HW140976   7.903   1.303   6.258  1.1268  0.5022  0.3897
 9501SOL    HW240977   7.944   1.147   6.287 -0.6112 -0.1021 -0.3238
 9502SOL     OW40978   7.122   8.621   0.004 -0.0095  0.2741  0.1067
 9502SOL    HW140979   7.221   8.607  -0.002 -0.1684 -0.9079  0.0305
 9502SOL    HW240980   7.098   8.710  -0.035  1.0702  0.7646  0.5392
 9503SOL     OW40981   5.882   1.189   3.310  0.7044  0.2032  0.3634
 9503SOL    HW140982   5.804   1.129   3.291  0.5433  0.0977  1.3240
 9503SOL    HW240983   5.886   1.261   3.242  0.4258 -0.4400 -0.3386
 9504SOL     OW40984   6.696   6.848   2.171  0.5922 -0.0673  0.2988
 9504SOL    HW140985   6.703   6.748   2.168  0.8173 -0.0896  1.3498
 9504SOL    HW240986   6.770   6.885   2.227  0.8674  0.7368 -0.5964
 9505SOL     OW40987   5.995   0.517   7.854 -0.1550 -0.4146 -0.0257
 9505SOL    HW140988   6.010   0.482   7.947  0.0181  1.8850  0.8726
 9505SOL    HW240989   6.042   0.606   7.845 -0.7220 -0.3103 -2.1070
 9506SOL     OW40990   0.049   6.709   4.985  0.1920  0.4434  0.4098
 9506SOL    HW140991   0.134   6.756   5.005  0.8902 -0.7076  0.2086
 9506SOL    HW240992   0.040   6.629   5.045  0.4569 -0.8476 -1.2396
 9507SOL     OW40993   1.044   5.564   5.385  0.6955  0.5189 -0.2856
 9507SOL    HW140994   1.029   5.567   5.484 -0.3806 -0.9453 -0.3794
 9507SOL    HW240995   1.142   5.560   5.366  0.9702  2.4313  0.6519
 9508SOL     OW40996   0.378   5.848   5.601  0.0914  0.3176  0.0779
 9508SOL    HW140997   0.319   5.772   5.627 -0.4590  1.1731  1.3700
 9508SOL    HW240998   0.332   5.935   5.623  1.1443  1.0128 -0.4312
 9509SOL     OW40999   2.857   2.742   8.341 -0.0303 -0.1398 -0.5321
 9509SOL    HW141000   2.890   2.794   8.262  1.4319  1.6004  1.1758
 9509SOL    HW241001   2.787   2.795   8.390  0.7133 -0.2080  0.6249
 9510SOL     OW41002   1.120   0.038   8.028  0.1715 -0.2913 -0.0633
 9510SOL    HW141003   1.035   0.061   8.076 -0.1549  0.2955 -0.8972
 9510SOL    HW241004   1.116  -0.058   7.998  0.7754 -0.9306  1.8659
 9511SOL     OW41005   4.779   1.012   5.871 -0.3516 -0.0440 -0.3275
 9511SOL    HW141006   4.822   0.951   5.804 -1.2433  0.0142 -0.9526
 9511SOL    HW241007   4.769   1.103   5.831  1.4696  0.6775  0.7887
 9512SOL     OW41008   0.650   7.560   7.022 -0.0448  1.3312  0.4355
 9512SOL    HW141009   0.581   7.498   6.983  2.5859 -2.1765  1.0539
 9512SOL    HW241010   0.703   7.601   6.948  1.6345 -1.3479  0.1007
 9513SOL     OW41011   6.707   8.261   6.724 -0.6435 -0.3221 -0.7377
 9513SOL    HW141012   6.722   8.197   6.799 -0.7719  1.5314  0.9188
 9513SOL    HW241013   6.611   8.290   6.724 -0.3640  0.6180 -0.8496
 9514SOL     OW41014   3.486   3.669   1.651  0.3438  0.1977  0.3295
 9514SOL    HW141015   3.490   3.580   1.604  0.4720  0.2899  0.1643
 9514SOL    HW241016   3.481   3.654   1.750  0.5448  0.0065  0.3122
 9515SOL     OW41017   8.123   4.445   1.565 -0.4034  0.2487 -0.5229
 9515SOL    HW141018   8.209   4.404   1.598 -0.2825  0.3112 -0.7607
 9515SOL    HW241019   8.133   4.470   1.469 -1.4644 -1.9214 -1.2271
 9516SOL     OW41020   4.533   8.981   7.591  0.6129 -0.1808 -0.0718
 9516SOL    HW141021   4.461   9.051   7.584  0.4590 -0.3463 -0.1658
 9516SOL    HW241022   4.494   8.898   7.630  0.8446 -0.1446  0.2272
 9517SOL     OW41023   5.136   4.935   5.382  0.2788  0.1936 -0.3234
 9517SOL    HW141024   5.222   4.982   5.363  0.4918 -1.2456 -3.0700
 9517SOL    HW241025   5.112   4.949   5.478  3.2810  1.0927  0.3684
 9518SOL     OW41026   6.754   2.052   2.697 -0.3325  0.3886  0.1276
 9518SOL    HW141027   6.784   2.072   2.603  0.8963 -1.5267  0.0903
 9518SOL    HW241028   6.793   2.119   2.759  0.2624  0.6440 -0.5147
 9519SOL     OW41029   6.461   2.689   2.981 -0.5017  0.2702 -0.3118
 9519SOL    HW141030   6.436   2.611   2.923  0.1907  0.7304 -1.2387
 9519SOL    HW241031   6.561   2.698   2.984 -0.5711  0.9790 -0.0007
 9520SOL     OW41032   4.613   2.178   5.123  0.5529  0.0135 -0.4228
 9520SOL    HW141033   4.648   2.225   5.042 -1.7593  1.6484 -0.5241
 9520SOL    HW241034   4.540   2.115   5.097  3.1560 -3.2378 -0.1941
 9521SOL     OW41035   0.141   2.712   6.605 -0.8729  0.1920 -0.4221
 9521SOL    HW141036   0.103   2.761   6.683 -0.3960 -1.7240  1.0257
 9521SOL    HW241037   0.069   2.699   6.536 -1.3595  1.6503 -0.2101
 9522SOL     OW41038   2.803   2.983   7.081  0.0625  0.2215 -1.1169
 9522SOL    HW141039   2.813   3.026   7.171  0.6190 -0.9861 -0.5812
 9522SOL    HW241040   2.893   2.973   7.039  0.0894 -1.5794 -0.6629
 9523SOL     OW41041   7.641   1.167   2.941 -0.8293  0.2699  0.0649
 9523SOL    HW141042   7.660   1.191   3.037  0.1263 -1.5612  0.3669
 9523SOL    HW241043   7.727   1.166   2.890 -0.8229 -2.3071  0.0494
 9524SOL     OW41044   1.476   8.002   7.912 -0.2297  0.1373 -0.0225
 9524SOL    HW141045   1.509   7.941   7.840 -1.9560 -3.1553  1.8766
 9524SOL    HW241046   1.401   8.057   7.876  0.9998  0.8544 -1.6012
 9525SOL     OW41047   7.247   6.532   0.707  0.1352 -0.6778  0.2436
 9525SOL    HW141048   7.292   6.444   0.721  0.3697 -0.5869  0.0546
 9525SOL    HW241049   7.223   6.543   0.611  0.8693 -0.1647  0.1192
 9526SOL     OW41050   6.477   6.646   6.956  0.1272  0.0980 -0.1785
 9526SOL    HW141051   6.471   6.696   6.870 -1.8432 -1.2686 -0.8695
 9526SOL    HW241052   6.568   6.606   6.966 -0.1117 -1.0603 -2.3987
 9527SOL     OW41053   8.437   0.059   1.584  0.1023 -0.4806  0.1896
 9527SOL    HW141054   8.503  -0.001   1.540  0.2740 -0.4200  0.3627
 9527SOL    HW241055   8.430   0.036   1.681 -0.9827 -1.2568 -0.0567
 9528SOL     OW41056   2.948   4.326   7.266 -0.5070  0.0250 -0.3705
 9528SOL    HW141057   2.849   4.325   7.250 -0.8739  3.9059  1.1686
 9528SOL    HW241058   2.988   4.408   7.225  1.6738 -0.1921  1.2317
 9529SOL     OW41059   5.209   0.178   8.201 -0.5657  0.0477  0.1495
 9529SOL    HW141060   5.206   0.233   8.284 -1.0628 -1.5173  1.1901
 9529SOL    HW241061   5.302   0.180   8.164  0.0550 -0.5124  1.6301
 9530SOL     OW41062   3.423   8.440   6.295 -0.0681 -0.3846 -0.6711
 9530SOL    HW141063   3.506   8.451   6.349  0.6247  2.5396 -2.2143
 9530SOL    HW241064   3.346   8.421   6.356  1.4776 -1.9605  0.8689
 9531SOL     OW41065   8.456   4.118   6.754  0.1162  0.4144 -0.8025
 9531SOL    HW141066   8.396   4.198   6.754 -1.6558 -0.8472  0.8676
 9531SOL    HW241067   8.445   4.069   6.841  2.8954 -0.3746 -0.8556
 9532SOL     OW41068   4.929   3.121   8.675 -0.6064  0.3099  0.1479
 9532SOL    HW141069   4.919   3.143   8.577  0.4309 -1.0697 -0.2771
 9532SOL    HW241070   5.011   3.166   8.710  0.5724 -1.4393 -0.3095
 9533SOL     OW41071   1.457   2.251   4.500  0.0938  0.1745 -0.5446
 9533SOL    HW141072   1.412   2.162   4.509 -0.3745  0.5482  0.9810
 9533SOL    HW241073   1.461   2.295   4.590  0.7344  1.4929 -1.2137
 9534SOL     OW41074   8.548   5.664   5.340  0.3954 -0.3161 -0.0931
 9534SOL    HW141075   8.547   5.656   5.240  0.9278 -2.1671  0.0133
 9534SOL    HW241076   8.642   5.649   5.373  0.1280 -0.2508  0.7042
 9535SOL     OW41077   8.100   0.019   5.525  0.3446 -0.5686 -0.4379
 9535SOL    HW141078   8.134   0.100   5.573  0.2842 -1.0739  0.4539
 9535SOL    HW241079   8.040   0.049   5.450 -0.8077  0.1837  0.7639
 9536SOL     OW41080   1.371   4.020   2.081 -0.3284 -0.5936  0.4027
 9536SOL    HW141081   1.411   4.062   2.162  0.5192 -2.8796  1.2307
 9536SOL    HW241082   1.273   4.010   2.094 -0.5619  1.2494  0.1211
 9537SOL     OW41083   7.202   5.938   0.140  0.0601  0.4493  0.0017
 9537SOL    HW141084   7.127   5.941   0.074  0.8074  0.9181 -0.8456
 9537SOL    HW241085   7.227   5.843   0.157 -0.0160  0.3270 -0.5487
 9538SOL     OW41086   2.253   1.500   1.489  0.4433  0.4258 -0.2292
 9538SOL    HW141087   2.237   1.473   1.584 -0.6075  0.4136 -0.3974
 9538SOL    HW241088   2.346   1.477   1.463  0.3300 -0.7846  0.3905
 9539SOL     OW41089   6.100   6.855   8.944 -0.0925  0.2318 -0.2754
 9539SOL    HW141090   6.082   6.757   8.935 -1.0977  0.3697  0.2212
 9539SOL    HW241091   6.190   6.876   8.905 -0.0146 -0.8324 -0.6798
 9540SOL     OW41092   2.211   8.858   2.467 -0.1817  0.8302 -0.3809
 9540SOL    HW141093   2.197   8.843   2.565 -0.9333  1.6257 -0.3595
 9540SOL    HW241094   2.243   8.951   2.451  0.2627  0.5996 -0.8671
 9541SOL     OW41095   0.329   4.491   5.515 -0.2551 -0.7925 -0.4366
 9541SOL    HW141096   0.414   4.457   5.474 -0.5176 -2.4960  0.3878
 9541SOL    HW241097   0.273   4.413   5.543 -1.9836  0.3310 -0.7558
 9542SOL     OW41098   7.245   0.149   2.422 -0.0404  0.0260 -0.4411
 9542SOL    HW141099   7.343   0.143   2.404  0.5103 -0.4427  2.4063
 9542SOL    HW241100   7.207   0.057   2.433 -0.5560  0.2497 -0.3192
 9543SOL     OW41101   3.208   4.009   4.447  0.7174  0.0195  0.2323
 9543SOL    HW141102   3.195   3.941   4.519 -0.6689  1.4215  1.3532
 9543SOL    HW241103   3.267   3.972   4.376 -2.3791 -3.4694 -0.6704
 9544SOL     OW41104   7.618   8.813   5.677  0.3202  0.5783  0.5108
 9544SOL    HW141105   7.544   8.746   5.671  0.2234  0.5953  1.5633
 9544SOL    HW241106   7.699   8.778   5.629  0.5981 -0.7225  1.9117
 9545SOL     OW41107   0.625   4.838   3.511 -0.0260 -0.1929 -0.4526
 9545SOL    HW141108   0.680   4.889   3.576 -0.3262  1.7657 -1.7030
 9545SOL    HW241109   0.540   4.809   3.556  0.3254  0.0414  0.3832
 9546SOL     OW41110   3.977   5.823   3.949  0.2809  0.2455  0.0437
 9546SOL    HW141111   4.072   5.793   3.952  0.5994  1.3139  1.1775
 9546SOL    HW241112   3.931   5.797   4.034 -0.2335  0.3925 -0.1844
 9547SOL     OW41113   3.580   5.518   7.641  0.1273 -0.2049  0.0998
 9547SOL    HW141114   3.651   5.453   7.614 -1.0350 -1.7954  0.7664
 9547SOL    HW241115   3.554   5.573   7.563  1.7972  0.1262 -0.2532
 9548SOL     OW41116   0.038   2.346   4.445  0.2906  0.5638  0.2273
 9548SOL    HW141117  -0.019   2.368   4.524 -1.0392  0.1868 -0.6100
 9548SOL    HW241118   0.134   2.346   4.472 -0.2186 -0.8453  2.1619
 9549SOL     OW41119   5.557   0.669   0.150  0.0415 -0.6191  0.0324
 9549SOL    HW141120   5.642   0.617   0.158  0.0271 -0.6631 -0.0924
 9549SOL    HW241121   5.564   0.732   0.073 -0.6692 -1.8247 -1.0412
 9550SOL     OW41122   0.567   8.586   0.989  0.6706 -0.3826 -0.3316
 9550SOL    HW141123   0.590   8.654   0.920  1.7401 -0.3937 -0.0022
 9550SOL    HW241124   0.651   8.553   1.033 -0.0538  0.5760  1.8798
 9551SOL     OW41125   2.721   0.300   7.585 -0.4279 -0.5309 -0.8125
 9551SOL    HW141126   2.646   0.348   7.631 -0.7519 -0.1581 -1.7199
 9551SOL    HW241127   2.705   0.300   7.486  0.6744 -0.6162 -0.9986
 9552SOL     OW41128   5.652   3.635   6.579 -0.3641 -0.0889 -0.3372
 9552SOL    HW141129   5.681   3.572   6.650 -0.5177 -0.2873 -0.4481
 9552SOL    HW241130   5.552   3.642   6.580 -0.2475  2.0264  1.2877
 9553SOL     OW41131   2.876   6.027   2.417  0.4935 -0.3426  0.0454
 9553SOL    HW141132   2.848   6.019   2.321 -0.4866 -0.9161  0.3703
 9553SOL    HW241133   2.898   6.122   2.438 -2.9731  0.4811  0.2457
 9554SOL     OW41134   7.800   2.612   3.289 -0.4197  0.1332  0.4417
 9554SOL    HW141135   7.861   2.618   3.369  1.0319 -0.5237 -0.6010
 9554SOL    HW241136   7.783   2.516   3.268 -2.2264  0.3055  0.9997
 9555SOL     OW41137   0.216   0.824   0.600  0.4611 -0.0736 -0.8673
 9555SOL    HW141138   0.295   0.778   0.561  0.9817  0.7232 -0.7758
 9555SOL    HW241139   0.190   0.901   0.541 -0.4052 -0.4891 -1.0317
 9556SOL     OW41140   2.701   8.125   7.482  0.7790 -0.1269 -0.0797
 9556SOL    HW141141   2.634   8.081   7.542  1.1927  0.0480  0.5089
 9556SOL    HW241142   2.658   8.145   7.394  0.4010 -1.1285 -0.1294
 9557SOL     OW41143   3.311   2.209   0.661 -0.4713  0.0927 -0.1913
 9557SOL    HW141144   3.366   2.263   0.725  0.9539 -0.7672 -0.6871
 9557SOL    HW241145   3.324   2.244   0.569  0.6654 -1.2664 -0.5509
 9558SOL     OW41146   3.957   2.580   5.693 -0.1649  0.3939  0.3068
 9558SOL    HW141147   3.884   2.527   5.651  0.1398 -1.7355  2.3118
 9558SOL    HW241148   4.045   2.549   5.657 -0.1226  1.3917 -0.4551
 9559SOL     OW41149   4.371   5.398   3.450 -0.7039  0.3229  0.2256
 9559SOL    HW141150   4.425   5.324   3.491 -1.7348 -0.2320  0.6130
 9559SOL    HW241151   4.346   5.373   3.356 -1.3493  0.0231  0.4765
 9560SOL     OW41152   0.798   2.809   5.536 -0.0892  0.5059 -0.3395
 9560SOL    HW141153   0.884   2.841   5.496  0.4925  1.1178  1.3516
 9560SOL    HW241154   0.751   2.885   5.581 -0.6270 -0.2007  0.3150
 9561SOL     OW41155   8.677   1.101   0.891 -0.1229  0.0743 -0.1369
 9561SOL    HW141156   8.776   1.111   0.879 -0.5024  1.2477 -2.6179
 9561SOL    HW241157   8.639   1.188   0.921 -0.5672 -0.0479 -0.3550
 9562SOL     OW41158   1.883   0.111   6.580  0.4775  0.2488 -0.0146
 9562SOL    HW141159   1.846   0.173   6.650  2.1355  0.2725  0.8433
 9562SOL    HW241160   1.886   0.159   6.492  1.3220  1.2547  0.5516
 9563SOL     OW41161   2.631   1.939   1.134  0.0917  0.0259 -0.3151
 9563SOL    HW141162   2.667   2.033   1.136  0.6793 -0.1597 -1.4550
 9563SOL    HW241163   2.541   1.939   1.092  0.5058 -0.0380 -1.2200
 9564SOL     OW41164   7.983   5.054   4.591 -0.2566  0.0617 -0.1570
 9564SOL    HW141165   7.932   4.975   4.625 -1.9800  0.6099 -1.4530
 9564SOL    HW241166   8.044   5.087   4.663 -0.0517 -1.9841  0.6464
 9565SOL     OW41167   8.859   2.243   4.023  0.3031  0.1527  0.1142
 9565SOL    HW141168   8.870   2.331   4.069  2.5345  0.1283 -0.3107
 9565SOL    HW241169   8.887   2.251   3.928 -1.8353 -0.4374 -0.5864
 9566SOL     OW41170   4.144   8.176   7.709 -0.6080  0.0551 -0.1818
 9566SOL    HW141171   4.103   8.120   7.638 -2.2269  1.4852 -0.4244
 9566SOL    HW241172   4.223   8.129   7.748  0.5200 -0.5897 -3.1645
 9567SOL     OW41173   4.522   5.537   4.097 -0.0749 -0.2736 -0.4943
 9567SOL    HW141174   4.539   5.485   4.013 -0.7092 -0.0117 -0.7834
 9567SOL    HW241175   4.461   5.486   4.157  0.0797 -0.2927 -0.3515
 9568SOL     OW41176   0.689   8.556   7.347 -0.2737  0.2588  0.0070
 9568SOL    HW141177   0.634   8.492   7.402  0.4780  0.2627  0.7660
 9568SOL    HW241178   0.698   8.520   7.254 -0.6738 -0.2633  0.1662
 9569SOL     OW41179   4.820   1.665   3.489 -0.0788  0.2449 -0.2676
 9569SOL    HW141180   4.811   1.568   3.511 -2.1659  0.5151  0.2366
 9569SOL    HW241181   4.913   1.684   3.458  0.3124 -1.9379 -0.5337
 9570SOL     OW41182   5.242   0.215   3.022 -0.6061  0.2406 -0.1948
 9570SOL    HW141183   5.147   0.234   3.000 -0.5616  1.3697  0.5545
 9570SOL    HW241184   5.297   0.297   3.007 -0.1168  0.2286  1.4030
 9571SOL     OW41185   7.872   0.404   2.040 -0.0952 -0.1412  0.6505
 9571SOL    HW141186   7.814   0.340   2.089 -0.6055 -0.1595  0.0393
 9571SOL    HW241187   7.896   0.481   2.100 -0.5836 -0.2389  0.9704
 9572SOL     OW41188   2.548   3.195   3.563  0.5896  0.7303  0.2639
 9572SOL    HW141189   2.502   3.113   3.598 -0.3166  1.1822  0.1442
 9572SOL    HW241190   2.540   3.197   3.464 -0.2051  1.4490  0.3422
 9573SOL     OW41191   5.928   7.758   8.292 -0.0769 -0.5756 -0.5233
 9573SOL    HW141192   5.875   7.822   8.236 -1.2556 -0.1117  1.0530
 9573SOL    HW241193   5.999   7.715   8.237 -0.2262  0.9955 -1.9808
 9574SOL     OW41194   2.957   6.380   5.725 -0.2092  0.4456 -0.0081
 9574SOL    HW141195   3.013   6.462   5.736 -1.1114  0.9910  0.7324
 9574SOL    HW241196   2.995   6.306   5.781 -0.4759  0.9512  0.8652
 9575SOL     OW41197   4.885   7.270   2.302  0.1280 -0.2319 -0.6542
 9575SOL    HW141198   4.892   7.369   2.297 -0.5614 -0.1717 -0.3297
 9575SOL    HW241199   4.802   7.239   2.256  1.1429 -0.7897 -2.1892
 9576SOL     OW41200   3.250   2.186   7.763 -0.4611 -0.3340  0.0773
 9576SOL    HW141201   3.311   2.201   7.685 -2.0922  0.7078 -1.0327
 9576SOL    HW241202   3.260   2.261   7.828 -0.3186 -0.3407  0.0630
 9577SOL     OW41203   8.606   4.312   4.853  0.8134  0.2103 -0.2032
 9577SOL    HW141204   8.569   4.258   4.778  0.3595  0.1494  0.0611
 9577SOL    HW241205   8.535   4.326   4.922  1.4788 -0.4907  0.6378
 9578SOL     OW41206   1.299   8.382   0.188  0.6449 -0.0012  0.0133
 9578SOL    HW141207   1.207   8.349   0.170  0.9850 -1.0294  0.0870
 9578SOL    HW241208   1.303   8.422   0.279 -0.2919  2.2187 -0.8941
 9579SOL     OW41209   4.094   1.666   1.103  0.0607  0.2119 -0.3551
 9579SOL    HW141210   4.039   1.619   1.172 -1.5097 -1.8012 -2.8897
 9579SOL    HW241211   4.092   1.765   1.121 -1.8642 -0.1041  1.3763
 9580SOL     OW41212   5.021   6.905   5.608  0.4502  0.2738  0.2978
 9580SOL    HW141213   5.094   6.872   5.549  1.8513 -1.1410  2.7288
 9580SOL    HW241214   4.971   6.978   5.561  2.0129 -0.2257 -2.2678
 9581SOL     OW41215   3.743   0.235   2.858  0.4504 -0.1672 -0.0211
 9581SOL    HW141216   3.772   0.170   2.928  1.1185 -1.9531 -1.9015
 9581SOL    HW241217   3.656   0.276   2.884  0.6824 -0.8307  1.8360
 9582SOL     OW41218   7.955   6.294   0.714  0.4964  0.1641 -0.3028
 9582SOL    HW141219   7.960   6.283   0.813 -0.7403  1.6667 -0.0552
 9582SOL    HW241220   7.861   6.278   0.684  0.4250  1.7217 -0.9532
 9583SOL     OW41221   3.796   4.337   4.706  0.0206  0.0512 -0.0185
 9583SOL    HW141222   3.740   4.352   4.788 -1.2522 -1.6576 -0.5342
 9583SOL    HW241223   3.815   4.239   4.697  1.4513  0.4111 -0.9273
 9584SOL     OW41224   3.460   4.935   4.745  0.1407 -0.5441 -0.3160
 9584SOL    HW141225   3.416   4.909   4.659 -1.1818 -2.3038  0.8431
 9584SOL    HW241226   3.441   5.031   4.764 -3.2562 -1.2436  0.1188
 9585SOL     OW41227   5.926   6.342   6.606 -0.0187  0.0601  0.0385
 9585SOL    HW141228   5.963   6.394   6.529  1.2183 -0.3181  0.3728
 9585SOL    HW241229   5.940   6.244   6.589  0.6210 -0.0020  0.9337
 9586SOL     OW41230   1.758   6.982   5.723  0.3467 -0.0975  0.6307
 9586SOL    HW141231   1.788   7.007   5.631  1.8208 -0.4550  1.0119
 9586SOL    HW241232   1.685   7.045   5.751 -1.1135 -0.8696 -1.3185
 9587SOL     OW41233   8.561   5.359   4.020  0.3575 -0.2025  0.4935
 9587SOL    HW141234   8.612   5.347   4.105  0.7183  0.6933  0.4105
 9587SOL    HW241235   8.569   5.454   3.990 -0.9559 -0.1730  0.2226
 9588SOL     OW41236   8.672   7.479   6.949 -0.3470  0.0125  0.5016
 9588SOL    HW141237   8.679   7.463   7.047 -1.5068  0.1366  0.6110
 9588SOL    HW241238   8.650   7.393   6.903 -2.9429  0.5419  0.6998
 9589SOL     OW41239   0.232   7.842   6.953  0.2925 -0.0235  0.0934
 9589SOL    HW141240   0.148   7.809   6.909  0.5546 -2.6886  1.5411
 9589SOL    HW241241   0.210   7.884   7.040  0.5631 -2.0442  1.1665
 9590SOL     OW41242   3.927   7.672   2.378 -0.2444 -0.7700  0.1368
 9590SOL    HW141243   3.971   7.613   2.310  2.8683  1.9167 -0.3419
 9590SOL    HW241244   3.884   7.750   2.331  0.2477  0.0922  1.0969
 9591SOL     OW41245   6.868   1.647   1.982  0.1651 -0.3680  0.3297
 9591SOL    HW141246   6.780   1.618   2.019  0.9601 -3.2178  0.0541
 9591SOL    HW241247   6.942   1.611   2.038  1.1968  1.0792 -0.0781
 9592SOL     OW41248   2.033   2.944   2.480 -0.1964 -0.2119  0.4736
 9592SOL    HW141249   2.006   2.878   2.551 -0.6699  0.0905  0.5780
 9592SOL    HW241250   2.104   3.004   2.517  0.0936 -0.5382  0.4446
 9593SOL     OW41251   8.231   0.577   0.860  0.2187  0.3414 -0.2121
 9593SOL    HW141252   8.252   0.500   0.919 -0.0534 -0.3577 -1.0183
 9593SOL    HW241253   8.161   0.634   0.903  0.7488  0.4001  0.5919
 9594SOL     OW41254   4.244   5.054   2.974  0.2742 -0.2091  0.1479
 9594SOL    HW141255   4.248   4.992   3.052  0.1262  0.0280  0.3442
 9594SOL    HW241256   4.336   5.089   2.955  0.5211 -1.2333 -0.5694
 9595SOL     OW41257   2.330   1.140   4.201  0.3827  0.2517  0.4902
 9595SOL    HW141258   2.354   1.211   4.266 -0.5455  0.6138  0.4464
 9595SOL    HW241259   2.285   1.064   4.250 -2.1855  1.4182  0.0263
 9596SOL     OW41260   8.340   2.996   8.946  0.2208  0.0199 -0.0790
 9596SOL    HW141261   8.349   2.959   9.038 -1.1779  0.3336  0.1894
 9596SOL    HW241262   8.245   2.991   8.916  0.3966  1.2880 -0.9301
 9597SOL     OW41263   4.208   3.734   7.489 -0.6863 -0.4127 -0.4138
 9597SOL    HW141264   4.302   3.766   7.501 -0.4256 -1.8126  1.6439
 9597SOL    HW241265   4.166   3.780   7.410  0.6455  2.6631  0.5823
 9598SOL     OW41266   7.308   3.519   5.845  0.4062  0.2567 -0.6610
 9598SOL    HW141267   7.210   3.505   5.829  0.1388 -0.0140  1.0482
 9598SOL    HW241268   7.360   3.450   5.797 -0.5714 -3.1227  2.8332
 9599SOL     OW41269   7.119   5.957   6.885 -0.3832  0.1331  0.1940
 9599SOL    HW141270   7.121   5.970   6.786  0.4216 -2.0013 -0.1055
 9599SOL    HW241271   7.207   5.919   6.915 -1.1884 -0.7450  1.4859
 9600SOL     OW41272   2.104   2.707   1.400 -0.3787  0.0861 -0.2609
 9600SOL    HW141273   2.197   2.744   1.396 -1.0327  1.6777 -1.3049
 9600SOL    HW241274   2.058   2.741   1.482 -1.1620  2.0941 -1.4998
 9601SOL     OW41275   1.361   3.033   4.774  0.0317  0.5988  0.1008
 9601SOL    HW141276   1.373   3.053   4.677  0.9358  4.4771  0.9370
 9601SOL    HW241277   1.281   3.083   4.809 -1.2516 -2.0172  1.0580
 9602SOL     OW41278   3.391   6.616   3.123  0.5366 -0.5935 -0.3587
 9602SOL    HW141279   3.301   6.633   3.163  0.0378 -1.9302 -0.8885
 9602SOL    HW241280   3.390   6.529   3.075  1.8832 -0.2314 -1.0688
 9603SOL     OW41281   3.274   5.272   5.894 -0.0645 -0.8509 -0.0879
 9603SOL    HW141282   3.368   5.239   5.904  0.0738 -0.4784 -0.1691
 9603SOL    HW241283   3.275   5.371   5.879 -0.4667 -0.8543 -0.1331
 9604SOL     OW41284   5.113   8.444   5.073 -0.3341 -0.4872  0.0093
 9604SOL    HW141285   5.172   8.491   5.138 -0.6525  1.4467 -1.0710
 9604SOL    HW241286   5.165   8.420   4.991 -0.6340 -0.2615 -0.2510
 9605SOL     OW41287   7.374   0.065   6.694 -0.2426  0.3819 -0.1812
 9605SOL    HW141288   7.335  -0.023   6.667 -0.3699  0.2727  0.3621
 9605SOL    HW241289   7.331   0.138   6.641 -0.0573  0.1099 -0.7122
 9606SOL     OW41290   6.205   5.537   7.887 -0.7788 -0.1768 -0.1160
 9606SOL    HW141291   6.267   5.474   7.934 -0.0116  0.5926 -0.0773
 9606SOL    HW241292   6.132   5.565   7.949 -0.1352  0.3338  0.4247
 9607SOL     OW41293   4.022   1.267   1.110  0.3857  0.3796  0.1559
 9607SOL    HW141294   3.993   1.339   1.046 -0.3710 -0.9119 -0.9829
 9607SOL    HW241295   3.959   1.190   1.104  1.3646 -0.5078  1.1447
 9608SOL     OW41296   2.314   8.709   4.235  0.2580  0.1937 -0.5961
 9608SOL    HW141297   2.260   8.676   4.313  0.3145  0.9835 -0.2076
 9608SOL    HW241298   2.393   8.760   4.269  0.8982 -0.4064 -1.1719
 9609SOL     OW41299   3.211   3.860   0.738 -0.3858  0.0244 -0.4435
 9609SOL    HW141300   3.267   3.936   0.706 -1.0009  1.0003  0.7742
 9609SOL    HW241301   3.269   3.793   0.785  0.1787 -0.3675 -1.6623
 9610SOL     OW41302   5.844   7.476   0.728  0.2166 -0.0898 -0.3226
 9610SOL    HW141303   5.790   7.491   0.645 -2.1833  0.6678  1.3201
 9610SOL    HW241304   5.794   7.414   0.790  0.3555  2.0656  2.0279
 9611SOL     OW41305   0.676   1.790   7.514  0.6227  0.2987  0.2710
 9611SOL    HW141306   0.657   1.775   7.417  1.4156  0.5293  0.0817
 9611SOL    HW241307   0.658   1.705   7.565 -0.6474  0.4345  0.0530
 9612SOL     OW41308   4.401   4.378   4.352 -0.4605 -0.1692  0.1299
 9612SOL    HW141309   4.376   4.319   4.429  0.0291 -1.3454 -0.6137
 9612SOL    HW241310   4.341   4.359   4.274 -0.4310  0.4624 -0.0523
 9613SOL     OW41311   4.854   8.710   5.380 -0.1486  0.0160 -0.1108
 9613SOL    HW141312   4.831   8.689   5.476  1.4887  0.5321  0.4113
 9613SOL    HW241313   4.927   8.648   5.350 -0.6183 -0.0984 -1.0068
 9614SOL     OW41314   4.616   5.766   0.486 -0.3406  0.2186  0.6154
 9614SOL    HW141315   4.519   5.790   0.482 -0.0899  1.3386  1.0209
 9614SOL    HW241316   4.628   5.669   0.465 -1.2901  0.6318 -1.9786
 9615SOL     OW41317   1.634   8.767   3.979 -0.5672  0.0275 -0.1657
 9615SOL    HW141318   1.542   8.783   4.012 -0.4714 -1.3263  0.7914
 9615SOL    HW241319   1.700   8.781   4.053 -0.2540 -1.7923 -0.0656
 9616SOL     OW41320   8.520   6.228   7.052  0.0784  0.0300  0.0555
 9616SOL    HW141321   8.514   6.265   7.145  1.2390 -0.5237  0.3551
 9616SOL    HW241322   8.428   6.211   7.018 -0.3656  0.3309  1.0663
 9617SOL     OW41323   2.729   5.954   5.779 -0.1731 -0.0338  0.0532
 9617SOL    HW141324   2.785   5.978   5.858  0.3904 -0.5643 -0.1848
 9617SOL    HW241325   2.724   6.032   5.717  0.8184 -0.1951 -0.2248
 9618SOL     OW41326   0.091   4.625   2.586 -0.1754 -0.3756 -0.5237
 9618SOL    HW141327   0.144   4.541   2.598 -0.7368 -0.9057 -1.6404
 9618SOL    HW241328   0.095   4.654   2.490 -0.4012  0.5965 -0.2514
 9619SOL     OW41329   3.850   0.179   5.053  1.1450 -0.2714  0.1350
 9619SOL    HW141330   3.947   0.202   5.047  0.4094  2.8373 -0.5412
 9619SOL    HW241331   3.816   0.153   4.962  0.5085  2.3605 -0.4185
 9620SOL     OW41332   5.540   4.776   3.849 -0.2982  0.6377  0.7962
 9620SOL    HW141333   5.441   4.791   3.854 -0.5910 -0.6434 -0.7705
 9620SOL    HW241334   5.565   4.752   3.756  1.5043  0.9524  1.1936
 9621SOL     OW41335   4.129   5.997   0.836  0.3186  0.4531 -0.6936
 9621SOL    HW141336   4.201   5.929   0.832 -1.4309 -1.5044  0.1909
 9621SOL    HW241337   4.077   5.987   0.921  0.2034  3.0869 -0.3967
 9622SOL     OW41338   2.413   7.028   8.769  0.0558 -0.2752  0.1490
 9622SOL    HW141339   2.390   7.096   8.839 -0.9957  0.5289 -0.9588
 9622SOL    HW241340   2.354   6.949   8.779  1.6766 -1.3116  1.8137
 9623SOL     OW41341   7.890   5.128   1.321 -0.3841  0.5648 -0.0937
 9623SOL    HW141342   7.819   5.199   1.319 -0.3094  0.6526  0.2470
 9623SOL    HW241343   7.884   5.078   1.408 -1.9352 -1.3831 -1.2580
 9624SOL     OW41344   7.067   4.234   5.362  0.4486  0.4720  0.5936
 9624SOL    HW141345   7.075   4.171   5.284 -0.8506  1.4803 -0.3901
 9624SOL    HW241346   6.996   4.202   5.424  1.1646 -0.0839  1.1348
 9625SOL     OW41347   6.876   4.049   8.963 -0.0725 -0.0487  0.5212
 9625SOL    HW141348   6.935   4.098   9.028 -0.0995  0.1567  0.3904
 9625SOL    HW241349   6.859   4.106   8.883  0.9244 -0.7523 -0.2089
 9626SOL     OW41350   2.269   7.395   6.718  0.3245  0.1432  0.9484
 9626SOL    HW141351   2.323   7.409   6.801  2.0379 -0.0356 -0.1043
 9626SOL    HW241352   2.281   7.473   6.656 -0.4529  0.0003  0.6164
 9627SOL     OW41353   3.434   3.426   8.455 -0.2349  0.9423  0.5624
 9627SOL    HW141354   3.430   3.479   8.370  0.1481 -1.1979 -0.8474
 9627SOL    HW241355   3.350   3.439   8.507 -0.1978  2.7912  0.1885
 9628SOL     OW41356   1.023   3.356   0.848 -0.5395 -0.2607  0.1979
 9628SOL    HW141357   0.953   3.303   0.800  1.6170 -2.7929 -0.2765
 9628SOL    HW241358   1.114   3.325   0.820  0.8062 -0.1278  4.0718
 9629SOL     OW41359   3.434   3.128   5.659  0.8121  0.1795 -0.0832
 9629SOL    HW141360   3.351   3.072   5.648 -0.5198  2.2402 -0.8821
 9629SOL    HW241361   3.503   3.097   5.594 -0.5430  0.5712 -1.7595
 9630SOL     OW41362   4.444   8.443   8.089 -0.3401 -0.0915 -0.1620
 9630SOL    HW141363   4.443   8.355   8.041 -1.1020  0.3334 -0.9278
 9630SOL    HW241364   4.414   8.429   8.183  1.7767 -1.0379  0.4120
 9631SOL     OW41365   0.327   2.668   2.556 -0.2009  0.2777  0.1040
 9631SOL    HW141366   0.329   2.742   2.489  1.2215 -1.5373 -1.9140
 9631SOL    HW241367   0.281   2.589   2.517  1.6498 -1.1900  0.8537
 9632SOL     OW41368   8.115   1.631   0.236 -0.4637 -0.5026 -0.3271
 9632SOL    HW141369   8.181   1.628   0.312 -1.4891  0.8299  0.6326
 9632SOL    HW241370   8.043   1.563   0.252 -2.9108  2.5016  2.0274
 9633SOL     OW41371   2.656   3.297   1.390 -0.1577 -0.2726 -0.4535
 9633SOL    HW141372   2.744   3.332   1.420 -0.4023  0.2707 -0.3557
 9633SOL    HW241373   2.652   3.198   1.403 -0.3953 -0.0125  1.6330
 9634SOL     OW41374   0.013   1.940   5.538 -0.9548  0.2161 -0.0403
 9634SOL    HW141375   0.034   2.037   5.554 -2.3243  0.1367  2.4770
 9634SOL    HW241376  -0.085   1.924   5.551 -0.6935 -1.5857 -0.1147
 9635SOL     OW41377   5.096   4.981   0.386 -0.9093  0.4262  0.2799
 9635SOL    HW141378   5.076   4.887   0.358 -1.3049  0.7487 -0.5312
 9635SOL    HW241379   5.187   4.984   0.428 -0.9230 -0.3304  0.3687
 9636SOL     OW41380   7.623   1.007   5.496  0.8217 -0.0672  0.3303
 9636SOL    HW141381   7.568   0.934   5.457  2.9868 -0.9620 -1.1318
 9636SOL    HW241382   7.616   1.005   5.596  1.4647 -2.7788  0.3405
 9637SOL     OW41383   3.189   0.194   5.089 -0.0629  0.4134  0.1043
 9637SOL    HW141384   3.277   0.225   5.125  0.5502 -2.4209  1.1498
 9637SOL    HW241385   3.121   0.266   5.102  2.0575  2.6775 -0.7778
 9638SOL     OW41386   6.340   2.595   2.122 -0.3470 -0.3439 -0.2679
 9638SOL    HW141387   6.349   2.515   2.062  0.1343 -1.0532  0.7215
 9638SOL    HW241388   6.380   2.573   2.211 -0.4416  0.9264  0.0907
 9639SOL     OW41389   7.727   6.246   8.273  0.1150 -0.1794  0.2960
 9639SOL    HW141390   7.677   6.244   8.186  2.3301  3.9293 -1.2025
 9639SOL    HW241391   7.806   6.186   8.267  0.4594  0.3526 -0.6903
 9640SOL     OW41392   6.875   7.136   1.230  0.0849 -0.1205  0.1175
 9640SOL    HW141393   6.913   7.144   1.138 -0.2951 -0.4447 -0.0692
 9640SOL    HW241394   6.852   7.227   1.264  0.9347  0.0690  0.1954
 9641SOL     OW41395   7.393   4.880   7.510  0.0316 -0.2910  0.1370
 9641SOL    HW141396   7.396   4.940   7.430  1.8982  0.3070  0.6188
 9641SOL    HW241397   7.445   4.797   7.490 -0.1742 -0.4905  0.4438
 9642SOL     OW41398   0.392   2.416   3.733 -0.2717 -0.3094  0.0801
 9642SOL    HW141399   0.354   2.344   3.792 -3.1125  0.7766 -0.3711
 9642SOL    HW241400   0.458   2.375   3.670 -0.6555 -2.2646  0.8977
 9643SOL     OW41401   4.827   3.716   8.219  0.6874 -0.3104 -0.0469
 9643SOL    HW141402   4.838   3.748   8.313  0.9860 -0.0112 -0.1842
 9643SOL    HW241403   4.916   3.716   8.173  0.4161  0.3188 -0.5793
 9644SOL     OW41404   7.423   4.324   3.155  0.4017  0.1997  0.7794
 9644SOL    HW141405   7.463   4.395   3.213 -0.9649  0.3045  1.6033
 9644SOL    HW241406   7.362   4.267   3.210 -0.1462 -0.3133 -0.3469
 9645SOL     OW41407   8.484   3.345   0.286 -0.4429 -0.2362 -0.4033
 9645SOL    HW141408   8.580   3.339   0.258 -0.2209 -1.4816  0.5924
 9645SOL    HW241409   8.464   3.440   0.312  0.3852  0.1315 -1.0833
 9646SOL     OW41410   8.743   1.386   6.397  0.1988 -0.3779  0.0613
 9646SOL    HW141411   8.749   1.305   6.456  0.6004 -0.5083 -0.1581
 9646SOL    HW241412   8.790   1.462   6.441 -1.1287  0.0381  0.7714
 9647SOL     OW41413   0.206   0.750   8.729 -0.6058  0.1561 -0.1471
 9647SOL    HW141414   0.288   0.734   8.783 -0.1225  0.8104 -0.6711
 9647SOL    HW241415   0.141   0.676   8.743 -0.5100  0.3488  1.3586
 9648SOL     OW41416   3.184   0.106   0.162 -0.6814  0.2434  0.1152
 9648SOL    HW141417   3.224   0.015   0.147 -0.0756  0.6402 -0.7318
 9648SOL    HW241418   3.209   0.166   0.086 -2.7227  0.5690 -0.3325
 9649SOL     OW41419   6.486   2.813   7.208 -0.0334  0.4294 -0.2252
 9649SOL    HW141420   6.507   2.719   7.236 -2.5684 -0.0421  0.2408
 9649SOL    HW241421   6.408   2.812   7.146 -0.5375  2.2982  0.3671
 9650SOL     OW41422   0.097   4.758   6.740 -0.5642  0.1718  0.4347
 9650SOL    HW141423   0.185   4.747   6.694 -0.0199 -0.2616  1.5901
 9650SOL    HW241424   0.085   4.854   6.766 -0.8814  0.4273 -0.5887
 9651SOL     OW41425   4.221   3.490   7.601  0.6853 -0.0223  0.2000
 9651SOL    HW141426   4.254   3.490   7.696 -0.5695  0.2931  0.6429
 9651SOL    HW241427   4.238   3.579   7.559  0.8467 -0.0199  0.2715
 9652SOL     OW41428   8.369   6.819   1.305  0.4546 -0.0642 -0.5187
 9652SOL    HW141429   8.311   6.794   1.227  0.0561 -0.1598 -0.1890
 9652SOL    HW241430   8.407   6.911   1.290 -2.0322  1.1788  0.5641
 9653SOL     OW41431   8.342   4.393   8.517  0.5154 -0.3908  0.2557
 9653SOL    HW141432   8.270   4.449   8.476  1.3735  0.4416 -0.1197
 9653SOL    HW241433   8.430   4.440   8.509  1.3107 -1.9367 -0.3751
 9654SOL     OW41434   2.022   7.474   8.634 -0.1515 -0.2592 -0.1636
 9654SOL    HW141435   2.075   7.541   8.581  1.9603 -1.0033  0.9163
 9654SOL    HW241436   1.964   7.523   8.700 -0.7519  0.5794 -1.3008
 9655SOL     OW41437   6.079   2.940   7.344  0.2584 -0.2504  0.3202
 9655SOL    HW141438   6.059   2.954   7.441 -0.5557 -0.7296  0.2290
 9655SOL    HW241439   6.176   2.957   7.327 -0.2233  3.1212  0.5948
 9656SOL     OW41440   1.093   4.183   1.715  0.4526  0.4694  0.0782
 9656SOL    HW141441   1.068   4.253   1.782  1.1218  1.3053 -0.5204
 9656SOL    HW241442   1.186   4.152   1.733 -0.2828 -1.1914  1.0987
 9657SOL     OW41443   1.465   7.907   0.470 -0.6322 -0.2113 -0.4766
 9657SOL    HW141444   1.441   7.888   0.375 -0.0415  0.4312 -0.7549
 9657SOL    HW241445   1.476   8.006   0.483 -0.3141 -0.3269  0.1652
 9658SOL     OW41446   8.787   3.721   2.635  0.3489  0.2859  0.0966
 9658SOL    HW141447   8.771   3.744   2.731 -0.3993  0.0895  0.0258
 9658SOL    HW241448   8.712   3.664   2.601  1.6409 -1.3843 -0.0298
 9659SOL     OW41449   5.933   8.614   7.227  0.1625 -0.4639 -0.5192
 9659SOL    HW141450   5.933   8.587   7.131 -1.3087  0.5771 -0.8397
 9659SOL    HW241451   5.895   8.707   7.235 -0.2561 -0.7646  1.1208
 9660SOL     OW41452   4.137   4.595   7.982 -0.3453 -0.3941  0.1368
 9660SOL    HW141453   4.223   4.582   7.934  0.0083 -0.7648  0.8658
 9660SOL    HW241454   4.089   4.675   7.945 -0.1329 -0.7524 -0.9066
 9661SOL     OW41455   0.019   0.321   4.517  0.2797  0.0526 -0.1128
 9661SOL    HW141456   0.069   0.242   4.551 -0.3318  0.0555  0.8106
 9661SOL    HW241457  -0.029   0.297   4.433 -0.1012 -0.6185  0.3025
 9662SOL     OW41458   6.589   8.040   5.803  0.1312  0.4116 -0.5474
 9662SOL    HW141459   6.508   7.987   5.829 -0.5229  0.7985 -1.7509
 9662SOL    HW241460   6.633   8.076   5.886 -1.0681  0.4021  0.1075
 9663SOL     OW41461   3.235   3.663   5.191  1.0133  0.1862  0.0857
 9663SOL    HW141462   3.319   3.647   5.139  0.6073 -1.9125  0.0429
 9663SOL    HW241463   3.257   3.674   5.288  1.0248 -4.7291  0.7587
 9664SOL     OW41464   5.660   6.443   5.284 -0.2417  0.4339 -0.3535
 9664SOL    HW141465   5.648   6.349   5.252 -1.3013 -0.5606  2.7606
 9664SOL    HW241466   5.752   6.454   5.320 -0.1514  0.5495 -0.6228
 9665SOL     OW41467   4.362   4.581   8.438 -0.5654  0.1330  0.3823
 9665SOL    HW141468   4.443   4.537   8.475 -0.7653 -0.6651 -0.1064
 9665SOL    HW241469   4.377   4.680   8.431  0.5647 -0.0665 -0.2111
 9666SOL     OW41470   1.129   8.937   2.309 -0.0018 -0.6698 -0.3106
 9666SOL    HW141471   1.158   9.023   2.267  0.6752 -1.4292 -1.4414
 9666SOL    HW241472   1.093   8.876   2.238 -0.5397 -1.3015  0.4913
 9667SOL     OW41473   8.512   3.384   5.746 -0.0423 -0.0737  0.5849
 9667SOL    HW141474   8.511   3.404   5.648 -1.9555 -0.2255  0.5679
 9667SOL    HW241475   8.595   3.423   5.787  0.6111  0.2541 -1.0326
 9668SOL     OW41476   5.373   5.151   8.361 -0.3438 -0.2846  0.5686
 9668SOL    HW141477   5.288   5.187   8.398  0.3521  2.9118 -0.7704
 9668SOL    HW241478   5.352   5.081   8.292 -1.8965  0.3497  0.3708
 9669SOL     OW41479   1.912   1.550   2.088  0.0531  0.2478 -0.2641
 9669SOL    HW141480   2.000   1.583   2.054 -0.0522  0.0388 -0.7409
 9669SOL    HW241481   1.838   1.599   2.042 -0.0852  0.2888 -0.0006
 9670SOL     OW41482   2.023   6.268   1.992  0.4790 -0.2337 -0.2177
 9670SOL    HW141483   2.028   6.233   2.085  0.3585 -1.1686 -0.5537
 9670SOL    HW241484   1.992   6.363   1.993  0.6464 -0.1890  0.7023
 9671SOL     OW41485   1.715   5.971   2.332  0.1146  0.5430 -0.0047
 9671SOL    HW141486   1.670   5.992   2.245  0.5545  0.1984 -0.3193
 9671SOL    HW241487   1.812   5.995   2.326  0.2724 -0.0448  0.1858
 9672SOL     OW41488   0.842   3.828   8.437 -0.4282  0.2504 -0.1261
 9672SOL    HW141489   0.924   3.872   8.401  0.2376 -2.6523 -2.3874
 9672SOL    HW241490   0.866   3.770   8.515 -0.3855 -0.1775 -0.4512
 9673SOL     OW41491   3.185   7.340   8.383  0.2401 -0.3415 -0.1759
 9673SOL    HW141492   3.280   7.309   8.387  0.8552  1.6245  0.6240
 9673SOL    HW241493   3.182   7.439   8.372 -1.7169 -0.5689 -2.1233
 9674SOL     OW41494   4.475   8.436   4.718 -0.1755  0.0288  0.0187
 9674SOL    HW141495   4.424   8.351   4.704 -0.2133  0.1999 -0.9348
 9674SOL    HW241496   4.554   8.437   4.656  0.8035 -0.0899  1.2524
 9675SOL     OW41497   3.448   6.371   3.013 -0.1402  0.3008 -0.5239
 9675SOL    HW141498   3.540   6.346   2.983  0.2735  0.7054  0.4010
 9675SOL    HW241499   3.385   6.297   2.989  0.1639  0.6646 -2.4685
 9676SOL     OW41500   6.943   8.490   0.166  0.7594  0.2224  0.0249
 9676SOL    HW141501   7.016   8.537   0.116  0.0322  1.4252  0.0963
 9676SOL    HW241502   6.919   8.406   0.116  1.1492  0.5871 -0.7988
 9677SOL     OW41503   3.667   8.674   2.506 -0.0052  0.2837  0.2351
 9677SOL    HW141504   3.677   8.719   2.595  2.2761 -0.0042  0.1733
 9677SOL    HW241505   3.591   8.610   2.509  0.0090  0.3238  1.9731
 9678SOL     OW41506   7.031   4.073   1.277  0.4052  0.5187  0.4350
 9678SOL    HW141507   7.069   4.108   1.191  0.6222  0.0385  0.3322
 9678SOL    HW241508   7.004   4.150   1.335 -0.9474  0.8416 -0.5932
 9679SOL     OW41509   0.552   8.712   4.213 -0.2317  0.6485 -0.2463
 9679SOL    HW141510   0.553   8.783   4.142 -1.1763  1.7791  0.8570
 9679SOL    HW241511   0.524   8.752   4.300  0.0764 -0.9116  0.5913
 9680SOL     OW41512   2.670   2.503   6.550  0.2180 -0.1089  0.3156
 9680SOL    HW141513   2.672   2.540   6.643  1.0253  0.6866 -0.0131
 9680SOL    HW241514   2.753   2.449   6.534  0.6400  0.7140 -0.3257
 9681SOL     OW41515   5.567   3.559   1.843 -0.0790 -0.3866  0.2859
 9681SOL    HW141516   5.538   3.499   1.918 -0.0052  1.2408  1.6647
 9681SOL    HW241517   5.571   3.653   1.876 -0.8493  0.4910 -2.0060
 9682SOL     OW41518   0.116   0.549   5.145  0.1002  0.5068 -0.3397
 9682SOL    HW141519   0.144   0.571   5.239  0.4015  0.7826 -0.4899
 9682SOL    HW241520   0.028   0.503   5.146  1.4200 -2.0579  0.2873
 9683SOL     OW41521   7.103   2.310   2.886  0.2202 -0.3862  0.3813
 9683SOL    HW141522   7.083   2.330   2.982 -2.5685 -1.5508  0.0648
 9683SOL    HW241523   7.100   2.212   2.870  0.2402 -0.1762 -1.0079
 9684SOL     OW41524   0.712   1.930   3.312  0.1366  0.3141  0.2916
 9684SOL    HW141525   0.777   1.927   3.389 -0.9141 -3.7520  1.1347
 9684SOL    HW241526   0.621   1.953   3.346 -0.3033 -1.3664  0.3296
 9685SOL     OW41527   6.267   8.191   6.236  0.0231  0.7032  0.1599
 9685SOL    HW141528   6.345   8.192   6.174  0.2270 -0.6476  0.3789
 9685SOL    HW241529   6.251   8.098   6.268 -0.8007  1.2042  1.2354
 9686SOL     OW41530   3.486   3.450   1.477 -0.1030  0.0083 -0.4114
 9686SOL    HW141531   3.415   3.383   1.455 -1.0498  0.4122  1.3302
 9686SOL    HW241532   3.575   3.415   1.447 -0.8269 -1.2065 -1.1857
 9687SOL     OW41533   2.808   8.917   5.129  0.0695  0.1975 -0.1054
 9687SOL    HW141534   2.720   8.949   5.094 -0.0495  1.1055  1.0007
 9687SOL    HW241535   2.863   8.882   5.053 -0.9943  0.2023 -0.8953
 9688SOL     OW41536   6.646   2.255   6.162 -0.5088  0.4065  0.0257
 9688SOL    HW141537   6.685   2.176   6.209  1.3544 -0.5117 -2.8931
 9688SOL    HW241538   6.720   2.315   6.131 -1.8585  2.7876  1.2903
 9689SOL     OW41539   4.556   8.361   7.398 -0.2771  0.3559  0.3680
 9689SOL    HW141540   4.654   8.378   7.407  0.1446 -1.9380  0.4810
 9689SOL    HW241541   4.525   8.303   7.473 -1.3425 -0.4530 -0.6668
 9690SOL     OW41542   5.108   1.849   3.148  0.2121  0.4214  0.6928
 9690SOL    HW141543   5.013   1.882   3.151  0.0341 -0.0571  0.3243
 9690SOL    HW241544   5.133   1.829   3.053  0.8086  0.9086  0.7451
 9691SOL     OW41545   7.719   5.889   7.520  0.2402 -0.2636  0.2536
 9691SOL    HW141546   7.699   5.984   7.544  0.3280  0.0455 -0.8855
 9691SOL    HW241547   7.685   5.829   7.593 -1.0428  0.5501  0.3424
 9692SOL     OW41548   0.223   4.104   0.152  0.0964  0.7536 -0.3056
 9692SOL    HW141549   0.190   4.085   0.244  1.0015  1.2702  0.1307
 9692SOL    HW241550   0.148   4.094   0.087  0.0338 -2.2109  0.1454
 9693SOL     OW41551   2.484   6.632   8.186 -0.0082  0.2330 -0.2398
 9693SOL    HW141552   2.397   6.586   8.205 -0.1541  0.9294  0.8243
 9693SOL    HW241553   2.474   6.730   8.203  1.0781  0.2733  0.2157
 9694SOL     OW41554   3.638   5.675   3.058 -0.6436 -1.0351  0.3529
 9694SOL    HW141555   3.595   5.672   3.149 -1.0378 -2.6674  0.1151
 9694SOL    HW241556   3.648   5.583   3.022  0.0121 -0.4357 -1.0504
 9695SOL     OW41557   1.125   3.472   1.941  0.5503 -0.9494  0.6569
 9695SOL    HW141558   1.091   3.509   1.854 -1.5527 -1.0196  1.4165
 9695SOL    HW241559   1.161   3.546   1.997  2.8866 -1.0349 -0.6692
 9696SOL     OW41560   4.887   3.276   4.380  0.2993 -0.1402 -0.0597
 9696SOL    HW141561   4.822   3.328   4.436 -0.4615 -1.1740  0.0378
 9696SOL    HW241562   4.917   3.333   4.303  0.7774  1.0199  0.9772
 9697SOL     OW41563   2.900   5.283   5.214  0.1483 -0.0042  0.1690
 9697SOL    HW141564   2.812   5.246   5.248  0.1941  0.2346  0.5511
 9697SOL    HW241565   2.957   5.207   5.182  0.3225 -0.2979  1.1463
 9698SOL     OW41566   5.500   1.483   1.935 -0.0375  0.1971 -0.1837
 9698SOL    HW141567   5.440   1.542   1.881  1.4373  1.4762 -0.4497
 9698SOL    HW241568   5.474   1.488   2.031 -0.8764  0.1161 -0.4075
 9699SOL     OW41569   4.906   0.195   0.970  0.1778  0.6254  0.4891
 9699SOL    HW141570   4.898   0.095   0.973 -2.7015  0.7086 -2.5210
 9699SOL    HW241571   4.845   0.235   1.039  2.6658  0.3499  2.9573
 9700SOL     OW41572   2.376   1.785   4.155 -0.1397 -0.2787  0.1558
 9700SOL    HW141573   2.395   1.834   4.240 -1.9362  0.0445  0.3987
 9700SOL    HW241574   2.303   1.832   4.105 -1.9327 -2.6924  0.4061
 9701SOL     OW41575   0.670   2.746   5.816  0.4485 -0.1062 -0.1864
 9701SOL    HW141576   0.611   2.705   5.887  0.9967 -1.7674 -0.6652
 9701SOL    HW241577   0.639   2.716   5.726  0.3644  1.2130 -0.6022
 9702SOL     OW41578   6.904   3.071   0.956  0.3862 -0.3330 -0.0197
 9702SOL    HW141579   6.836   3.090   1.028 -0.8789 -0.0835 -1.2618
 9702SOL    HW241580   6.977   3.139   0.961 -1.8767  2.3194 -1.6340
 9703SOL     OW41581   5.640   6.312   4.342  0.1186 -0.0109  0.0697
 9703SOL    HW141582   5.543   6.306   4.366  0.4127 -0.4175  1.2214
 9703SOL    HW241583   5.695   6.311   4.426  0.9897  3.3660 -0.3978
 9704SOL     OW41584   8.941   6.370   7.057 -0.8833  0.3588  0.0685
 9704SOL    HW141585   8.986   6.434   6.994 -0.8167  0.9136  0.6777
 9704SOL    HW241586   8.886   6.305   7.004  0.5781 -0.2913 -0.6770
 9705SOL     OW41587   3.951   7.576   7.354  0.0830 -0.0672  0.2320
 9705SOL    HW141588   3.993   7.566   7.264 -0.8560 -4.1966  0.1887
 9705SOL    HW241589   3.862   7.532   7.355 -0.3276  0.7383  2.9625
 9706SOL     OW41590   1.829   1.764   5.715 -0.4064 -0.5338 -0.3883
 9706SOL    HW141591   1.858   1.853   5.751 -0.5609 -1.8185  3.1523
 9706SOL    HW241592   1.750   1.777   5.655 -0.3673  1.7227 -0.0025
 9707SOL     OW41593   5.214   0.271   0.924 -0.4921  0.6198  0.3739
 9707SOL    HW141594   5.119   0.271   0.957 -0.6904  0.4588 -0.2018
 9707SOL    HW241595   5.216   0.246   0.828  0.2084 -0.1640  0.5905
 9708SOL     OW41596   1.797   2.174   0.798  0.0520  0.1403  0.1320
 9708SOL    HW141597   1.883   2.217   0.771  0.4623 -0.8530 -0.1492
 9708SOL    HW241598   1.771   2.106   0.730 -0.6283 -0.0174  0.5445
 9709SOL     OW41599   6.114   2.281   0.382  0.2624  0.4092  0.8610
 9709SOL    HW141600   6.130   2.341   0.304  1.4634 -1.0100 -0.0267
 9709SOL    HW241601   6.055   2.327   0.449 -2.1135  1.0581 -1.6030
 9710SOL     OW41602   7.323   7.588   4.404 -0.1583 -0.4602  0.5370
 9710SOL    HW141603   7.356   7.669   4.356 -0.3927 -1.6642 -1.7059
 9710SOL    HW241604   7.226   7.600   4.426 -0.4026 -0.4710 -0.5214
 9711SOL     OW41605   5.398   6.706   5.730 -0.5899 -0.1454 -0.1183
 9711SOL    HW141606   5.454   6.663   5.801  0.3929  1.5208  0.1334
 9711SOL    HW241607   5.360   6.635   5.670 -0.1932 -1.4546  1.1574
 9712SOL     OW41608   4.977   3.403   4.156  0.5352 -0.2679  0.2274
 9712SOL    HW141609   5.076   3.387   4.155  0.7783  1.0236  1.8924
 9712SOL    HW241610   4.932   3.338   4.094  2.2697 -1.8673  0.6102
 9713SOL     OW41611   3.234   8.366   6.451 -0.3349 -0.5379  0.4365
 9713SOL    HW141612   3.179   8.407   6.379  2.7181 -0.8204 -2.1873
 9713SOL    HW241613   3.237   8.266   6.438 -0.7180 -0.7069  1.6361
 9714SOL     OW41614   1.753   2.862   4.902  0.3328  1.0855 -0.4662
 9714SOL    HW141615   1.731   2.823   4.813 -2.5703 -0.7885  0.9936
 9714SOL    HW241616   1.681   2.927   4.928  0.8966  1.2355  0.7329
 9715SOL     OW41617   0.754   6.261   7.084 -0.1527  0.4213 -0.0760
 9715SOL    HW141618   0.712   6.172   7.099 -1.9477  1.0849 -1.0354
 9715SOL    HW241619   0.758   6.312   7.170 -1.5869  0.4618 -0.0286
 9716SOL     OW41620   7.206   6.677   5.311 -0.0627 -0.2434  0.8491
 9716SOL    HW141621   7.122   6.625   5.295 -0.1569 -0.3875  1.7914
 9716SOL    HW241622   7.283   6.614   5.320  0.2507 -0.0776 -0.6542
 9717SOL     OW41623   4.905   3.686   4.124 -0.7174  0.1583 -0.5471
 9717SOL    HW141624   4.962   3.716   4.048 -1.2492  0.2286 -0.9161
 9717SOL    HW241625   4.925   3.590   4.144 -0.6308  0.1182 -0.8263
 9718SOL     OW41626   1.296   4.947   3.885 -0.2369  0.2423  0.6470
 9718SOL    HW141627   1.204   4.910   3.895 -0.7061  1.2532  0.1473
 9718SOL    HW241628   1.345   4.897   3.814  0.3244 -1.6545  2.3193
 9719SOL     OW41629   3.270   5.293   7.990  0.2262  0.4296  0.4385
 9719SOL    HW141630   3.361   5.268   7.956  0.0767  0.3313  0.1092
 9719SOL    HW241631   3.243   5.381   7.949  0.1069  0.3814  0.4162
 9720SOL     OW41632   6.449   5.569   8.948  0.2943  0.3890 -0.3205
 9720SOL    HW141633   6.525   5.504   8.936  1.5182  1.9616 -1.3485
 9720SOL    HW241634   6.387   5.535   9.018  1.7852 -1.1108  0.3139
 9721SOL     OW41635   1.360   3.025   4.510  0.7145  0.3646  0.1653
 9721SOL    HW141636   1.453   3.062   4.517  0.9799  0.0156 -1.4161
 9721SOL    HW241637   1.362   2.937   4.464 -0.1363 -0.8352  2.3459
 9722SOL     OW41638   5.571   7.076   5.154  0.3609 -0.3889  0.2096
 9722SOL    HW141639   5.635   7.152   5.163 -0.7394  0.9550 -2.7315
 9722SOL    HW241640   5.591   7.026   5.070 -1.1032 -1.2727  0.3812
 9723SOL     OW41641   2.488   5.891   0.854  0.3005 -0.1711  0.2300
 9723SOL    HW141642   2.502   5.986   0.827 -0.4629  0.7002  2.7591
 9723SOL    HW241643   2.487   5.884   0.954  1.2452 -2.9793  0.0967
 9724SOL     OW41644   4.633   3.605   8.732 -0.0088  0.1278 -0.2324
 9724SOL    HW141645   4.684   3.686   8.762 -0.6741  0.8299 -0.9828
 9724SOL    HW241646   4.697   3.537   8.696  0.2797  1.8050 -3.0499
 9725SOL     OW41647   0.160   2.383   0.170 -0.3021 -0.1874 -0.3384
 9725SOL    HW141648   0.067   2.349   0.159 -0.7836  1.1686 -0.6187
 9725SOL    HW241649   0.170   2.469   0.119  0.2941  1.1296  1.9314
 9726SOL     OW41650   5.214   3.207   4.496  0.6068 -0.0598 -0.3981
 9726SOL    HW141651   5.150   3.233   4.425  0.8008 -0.3356 -0.6773
 9726SOL    HW241652   5.172   3.220   4.586  0.6437  1.0359 -0.5368
 9727SOL     OW41653   8.647   5.670   2.429 -0.0472 -0.0747  0.1381
 9727SOL    HW141654   8.717   5.600   2.441 -0.1349 -0.1713  0.1008
 9727SOL    HW241655   8.674   5.733   2.355  0.6718  0.7337  1.0784
 9728SOL     OW41656   4.941   1.441   1.035  0.0217 -0.3575  0.9620
 9728SOL    HW141657   4.897   1.524   1.000  0.1479 -0.7766 -0.2250
 9728SOL    HW241658   5.023   1.466   1.086  0.3786  0.2352  0.1268
 9729SOL     OW41659   7.108   5.015   2.210 -0.3796 -0.0746  0.2892
 9729SOL    HW141660   7.205   5.040   2.211 -0.9191  2.1314  1.7556
 9729SOL    HW241661   7.075   5.004   2.304 -1.6498 -0.3788 -0.1781
 9730SOL     OW41662   1.739   8.253   5.728  0.2548  0.2558 -0.8383
 9730SOL    HW141663   1.715   8.156   5.722  0.2967  0.2501 -0.9335
 9730SOL    HW241664   1.801   8.268   5.804 -1.2671  0.5119  0.3824
 9731SOL     OW41665   0.584   8.288   6.142 -0.5361 -0.6416  0.2081
 9731SOL    HW141666   0.631   8.266   6.056 -2.2530 -0.2679 -0.8512
 9731SOL    HW241667   0.632   8.363   6.188 -0.9164  0.7086 -1.5649
 9732SOL     OW41668   1.448   7.623   5.926 -0.5334 -0.0951 -0.4249
 9732SOL    HW141669   1.464   7.534   5.969  0.6608  0.4896  0.3542
 9732SOL    HW241670   1.388   7.678   5.984  2.0642  1.1593  1.1475
 9733SOL     OW41671   4.937   5.381   8.514  0.7076  0.3707  0.5102
 9733SOL    HW141672   4.931   5.368   8.414  1.6868  0.1814  0.4679
 9733SOL    HW241673   4.867   5.325   8.558  0.2231  0.5014 -0.0750
 9734SOL     OW41674   1.415   7.098   3.097  0.4649 -0.1906  0.4778
 9734SOL    HW141675   1.412   7.002   3.070  1.0457 -0.1903  0.4046
 9734SOL    HW241676   1.322   7.132   3.110  0.1160  0.0019 -2.2259
 9735SOL     OW41677   0.873   5.960   6.590  0.2291  0.0775 -0.2724
 9735SOL    HW141678   0.889   5.890   6.521  0.7046 -0.6158  0.5385
 9735SOL    HW241679   0.778   5.956   6.620 -0.1757  0.8616 -1.4032
 9736SOL     OW41680   1.913   1.527   1.662  0.2442  0.1059  0.4819
 9736SOL    HW141681   1.901   1.553   1.566  1.9435 -1.0025 -0.0594
 9736SOL    HW241682   1.898   1.429   1.672 -0.0321  0.2387  1.3680
 9737SOL     OW41683   7.423   4.687   3.509 -0.0117  0.0733 -0.2162
 9737SOL    HW141684   7.430   4.762   3.444 -1.8704 -0.8448 -1.5235
 9737SOL    HW241685   7.327   4.671   3.531  0.3094 -2.3015 -0.4085
 9738SOL     OW41686   4.865   4.619   4.131  0.0335  0.1129  0.1600
 9738SOL    HW141687   4.772   4.617   4.095 -0.5291 -0.4566  1.6220
 9738SOL    HW241688   4.863   4.641   4.229  1.5107  1.2419 -0.0356
 9739SOL     OW41689   7.850   4.855   4.732 -0.4163 -0.7546  0.4967
 9739SOL    HW141690   7.771   4.904   4.695  0.4656 -1.7667 -2.9431
 9739SOL    HW241691   7.842   4.758   4.710  1.0709 -1.1032  1.4236
 9740SOL     OW41692   6.030   2.586   3.321  0.8088  0.3999  0.3601
 9740SOL    HW141693   5.956   2.644   3.354  1.6610  1.0351  1.1968
 9740SOL    HW241694   5.994   2.497   3.294 -0.1432  0.4604  1.4276
 9741SOL     OW41695   6.076   0.084   1.229  0.1643 -0.5321 -0.2657
 9741SOL    HW141696   6.124   0.123   1.307  1.2120 -1.6872 -0.3116
 9741SOL    HW241697   6.042  -0.008   1.253 -1.7975  0.1452 -0.3237
 9742SOL     OW41698   0.035   4.831   3.493  0.3569  0.5636 -0.4493
 9742SOL    HW141699   0.078   4.768   3.429  0.2577  0.2706 -0.2287
 9742SOL    HW241700  -0.064   4.816   3.493  0.4191  0.1178  0.2503
 9743SOL     OW41701   3.187   6.954   8.054 -0.1027 -0.0456  0.2098
 9743SOL    HW141702   3.230   7.042   8.074 -0.4225 -0.1084  1.2316
 9743SOL    HW241703   3.216   6.922   7.964  1.2723  0.3469  0.5006
 9744SOL     OW41704   8.878   3.832   7.719  0.3630 -0.4669  0.3761
 9744SOL    HW141705   8.814   3.893   7.766  0.9585 -0.3880  1.0799
 9744SOL    HW241706   8.883   3.745   7.767 -0.8281 -1.2531 -0.8771
 9745SOL     OW41707   6.698   4.388   1.267 -0.1684  0.2072  0.7103
 9745SOL    HW141708   6.655   4.475   1.289 -2.3846 -1.2268  2.3068
 9745SOL    HW241709   6.669   4.358   1.176 -0.8585  0.2724  0.9075
 9746SOL     OW41710   7.661   5.562   2.241  0.2270  0.2104 -0.1640
 9746SOL    HW141711   7.743   5.603   2.201  0.5293 -1.3712 -1.1934
 9746SOL    HW241712   7.594   5.544   2.169 -0.1459 -0.5232  0.3551
 9747SOL     OW41713   7.949   3.595   6.159  0.1368 -0.6695  0.3195
 9747SOL    HW141714   7.958   3.669   6.093  2.9264 -0.4589  0.8459
 9747SOL    HW241715   7.936   3.633   6.251 -1.2320 -0.8954  0.2167
 9748SOL     OW41716   5.902   6.899   4.645 -0.3546  0.0253 -0.5261
 9748SOL    HW141717   5.908   6.799   4.645 -0.6865  0.0058 -0.6914
 9748SOL    HW241718   5.974   6.936   4.703 -2.3306 -0.4366  2.3097
 9749SOL     OW41719   0.429   8.063   0.587  0.2538 -0.0285  0.6063
 9749SOL    HW141720   0.333   8.043   0.606  0.3421 -0.7518  0.2819
 9749SOL    HW241721   0.472   7.984   0.544  1.1512  0.0660  1.3068
 9750SOL     OW41722   1.170   8.714   8.343  0.4493  0.1779 -0.7362
 9750SOL    HW141723   1.250   8.773   8.338 -0.4035  1.2931 -1.2219
 9750SOL    HW241724   1.088   8.766   8.320 -0.1451 -1.5246 -2.5700
 9751SOL     OW41725   7.881   0.056   1.956 -0.0532  0.2864 -0.6579
 9751SOL    HW141726   7.790   0.019   1.936 -0.8156  0.8031  1.7949
 9751SOL    HW241727   7.898   0.053   2.054  2.7553 -0.1504 -1.0985
 9752SOL     OW41728   4.221   5.615   5.701 -0.4454  0.5181  0.1751
 9752SOL    HW141729   4.316   5.584   5.696 -0.6010  0.2844 -1.2362
 9752SOL    HW241730   4.220   5.708   5.738  0.3152  0.4837  0.3115
 9753SOL     OW41731   2.537   1.208   3.738 -0.3628 -0.1641  0.9284
 9753SOL    HW141732   2.505   1.189   3.831 -1.2508 -3.4682  0.0181
 9753SOL    HW241733   2.477   1.275   3.695  0.4149  1.8553  2.9085
 9754SOL     OW41734   8.199   6.356   4.598 -0.0780  0.7265  0.7485
 9754SOL    HW141735   8.144   6.273   4.606  0.1223  0.4689 -0.4821
 9754SOL    HW241736   8.200   6.404   4.687 -1.8794  0.4813  0.9303
 9755SOL     OW41737   5.966   2.061   0.327  0.0270  0.1114  0.3482
 9755SOL    HW141738   6.029   2.139   0.327  0.0291  0.1477 -1.9975
 9755SOL    HW241739   5.881   2.087   0.281 -0.1913 -1.0787  0.0696
 9756SOL     OW41740   3.302   2.596   6.575  0.0647  0.0115 -0.3623
 9756SOL    HW141741   3.277   2.500   6.589  0.2095 -0.4688 -3.1430
 9756SOL    HW241742   3.229   2.655   6.610  1.1460 -0.9565  3.8680
 9757SOL     OW41743   3.280   7.247   1.819 -0.0076  0.0064 -0.1870
 9757SOL    HW141744   3.345   7.205   1.757 -0.0231  0.6277 -0.6275
 9757SOL    HW241745   3.273   7.192   1.903  0.4101 -0.5385 -0.5083
 9758SOL     OW41746   4.500   6.064   8.426  0.1330  0.6789  0.0710
 9758SOL    HW141747   4.403   6.056   8.448 -0.0655 -0.5692 -1.2199
 9758SOL    HW241748   4.515   6.041   8.330  2.1025 -2.2578  1.0014
 9759SOL     OW41749   3.417   7.752   7.925  0.0205  0.0992 -0.1253
 9759SOL    HW141750   3.503   7.709   7.952  0.2638  0.1673 -0.7731
 9759SOL    HW241751   3.435   7.831   7.867 -0.4681  0.2453 -0.0830
 9760SOL     OW41752   0.957   2.001   3.788 -0.3925 -0.0716  0.3150
 9760SOL    HW141753   0.983   2.076   3.727  2.1195 -1.7379 -0.7758
 9760SOL    HW241754   0.990   2.020   3.880 -0.9930  0.7801  0.3646
 9761SOL     OW41755   0.340   7.570   7.101  0.0221  0.1136  0.5217
 9761SOL    HW141756   0.408   7.643   7.100  0.9221 -0.6431  2.7003
 9761SOL    HW241757   0.283   7.578   7.183  1.6833 -2.9497  2.0911
 9762SOL     OW41758   0.586   7.475   5.163 -0.3780  0.1906  0.5563
 9762SOL    HW141759   0.538   7.466   5.076  1.4484 -0.1713 -0.4403
 9762SOL    HW241760   0.621   7.568   5.172  0.3245 -0.0613  0.4296
 9763SOL     OW41761   6.823   7.455   7.115 -0.6223  0.1750 -0.0509
 9763SOL    HW141762   6.891   7.511   7.068  0.2432  0.3626  1.3918
 9763SOL    HW241763   6.741   7.510   7.132  0.3951  1.1691  1.7705
 9764SOL     OW41764   2.053   0.945   7.773  0.7276  0.5679  0.2579
 9764SOL    HW141765   2.038   0.982   7.682  1.3551  1.6429  0.5925
 9764SOL    HW241766   2.019   1.009   7.842  0.1119 -0.3079  0.7814
 9765SOL     OW41767   1.598   2.386   2.664  0.5228  0.5862  0.3011
 9765SOL    HW141768   1.504   2.404   2.692 -0.1895 -0.5579 -1.3057
 9765SOL    HW241769   1.654   2.373   2.746 -1.4202 -2.1892  1.2823
 9766SOL     OW41770   1.283   0.158   6.045  0.3067 -0.1554 -0.2314
 9766SOL    HW141771   1.259   0.219   6.121 -0.4969 -1.3970  0.5236
 9766SOL    HW241772   1.360   0.197   5.995  0.3436  1.0700  0.7435
 9767SOL     OW41773   2.158   3.523   3.715  0.2897 -0.1799 -0.8229
 9767SOL    HW141774   2.157   3.563   3.806 -0.8365 -0.8898 -0.5084
 9767SOL    HW241775   2.252   3.513   3.683  0.7913 -1.5664  1.0084
 9768SOL     OW41776   3.387   2.224   5.768 -0.0005  0.2391  0.0802
 9768SOL    HW141777   3.383   2.320   5.796  0.7309  0.1614  0.4710
 9768SOL    HW241778   3.306   2.176   5.801 -0.3055  0.6938 -0.0041
 9769SOL     OW41779   3.994   3.248   4.676  0.0390 -0.2215 -0.6536
 9769SOL    HW141780   3.971   3.184   4.603  2.5167 -0.5456 -1.1975
 9769SOL    HW241781   4.086   3.285   4.660  0.1354  0.6124  1.6416
 9770SOL     OW41782   8.236   6.309   5.345  0.5313  0.1720  0.3760
 9770SOL    HW141783   8.154   6.321   5.401  1.1911  0.1856  1.3462
 9770SOL    HW241784   8.316   6.300   5.404  1.3957  1.3785 -0.5921
 9771SOL     OW41785   5.054   3.353   7.289 -0.3540 -0.0515  0.4383
 9771SOL    HW141786   4.980   3.322   7.349 -1.1439 -0.1636 -0.5939
 9771SOL    HW241787   5.018   3.373   7.198  1.1330 -1.5877 -0.5164
 9772SOL     OW41788   2.180   4.709   5.880  0.2191  0.1555 -0.4004
 9772SOL    HW141789   2.182   4.741   5.785  0.4461 -3.0936 -1.5645
 9772SOL    HW241790   2.237   4.628   5.889  0.4927  0.6266  2.6394
 9773SOL     OW41791   6.275   6.277   0.151 -0.0065 -0.7226 -0.2898
 9773SOL    HW141792   6.284   6.205   0.220 -0.7676  0.3122  0.9095
 9773SOL    HW241793   6.244   6.361   0.194  1.1740  0.4330 -1.6298
 9774SOL     OW41794   1.579   2.326   0.725  0.2826  0.4646 -0.2133
 9774SOL    HW141795   1.607   2.335   0.630  2.2399  0.1836  0.3270
 9774SOL    HW241796   1.623   2.246   0.766 -1.2702  0.0290  0.6821
 9775SOL     OW41797   2.929   1.014   4.633 -0.0345  0.0572 -0.4504
 9775SOL    HW141798   2.883   0.931   4.601  1.5369 -0.2112 -2.0455
 9775SOL    HW241799   2.878   1.094   4.600 -0.4015 -0.2557 -0.6540
 9776SOL     OW41800   2.783   0.952   3.424  0.9418 -0.7168  0.0849
 9776SOL    HW141801   2.791   1.034   3.368 -0.2874 -2.1947 -2.3868
 9776SOL    HW241802   2.694   0.952   3.470  1.4092 -0.1175  0.9782
 9777SOL     OW41803   3.353   1.819   7.564  0.2715 -0.2794 -0.4402
 9777SOL    HW141804   3.435   1.865   7.599 -1.0198  0.9931  0.9978
 9777SOL    HW241805   3.320   1.869   7.484 -0.9138  1.1204  0.8959
 9778SOL     OW41806   7.732   3.468   3.688 -0.1829 -0.1777  0.4258
 9778SOL    HW141807   7.696   3.524   3.762  1.9712  1.0844  0.5410
 9778SOL    HW241808   7.824   3.438   3.711 -0.0839 -1.0566 -1.0811
 9779SOL     OW41809   3.951   5.487   0.383 -0.1653  0.0628 -0.0798
 9779SOL    HW141810   4.006   5.544   0.444 -0.4133 -0.1946  0.3885
 9779SOL    HW241811   4.005   5.461   0.303  0.7299 -1.0364  0.8637
 9780SOL     OW41812   4.390   6.020   5.888  0.5438  0.2483 -0.1097
 9780SOL    HW141813   4.305   6.064   5.860 -0.1935 -0.1523  1.4303
 9780SOL    HW241814   4.371   5.925   5.916  1.9337 -0.7336 -2.3423
 9781SOL     OW41815   6.178   5.663   5.855 -0.2806 -0.0388  0.2873
 9781SOL    HW141816   6.254   5.616   5.900  0.2122 -1.3165 -1.8526
 9781SOL    HW241817   6.139   5.731   5.918  1.9972 -0.0352  1.7327
 9782SOL     OW41818   7.955   5.629   4.819  0.4568 -0.2972  0.4409
 9782SOL    HW141819   7.924   5.632   4.723  1.4240  0.1963  0.1398
 9782SOL    HW241820   8.042   5.677   4.827 -0.3637  0.9701  1.8659
 9783SOL     OW41821   2.439   2.044   0.648 -0.3918 -0.4200  0.2689
 9783SOL    HW141822   2.477   2.018   0.736  1.2713  1.5324  0.1739
 9783SOL    HW241823   2.438   1.965   0.587 -0.8572 -1.6045  1.7794
 9784SOL     OW41824   1.583   7.716   1.087  0.0617 -0.0589 -0.2619
 9784SOL    HW141825   1.563   7.787   1.155  2.4037 -0.8438  1.3198
 9784SOL    HW241826   1.555   7.627   1.122  0.2096 -0.3289 -0.8166
 9785SOL     OW41827   0.141   2.540   6.823  0.2742  0.1296 -0.2023
 9785SOL    HW141828   0.141   2.604   6.746  0.6585  1.6766  1.0557
 9785SOL    HW241829   0.108   2.451   6.792  1.7656  0.3159 -2.4788
 9786SOL     OW41830   3.454   1.266   2.279  1.2378  0.0297 -0.4082
 9786SOL    HW141831   3.516   1.223   2.214  0.3609  0.1084 -1.3165
 9786SOL    HW241832   3.360   1.239   2.258  0.9558 -0.1377  0.9829
 9787SOL     OW41833   7.250   5.018   7.735  0.0284 -0.3706 -0.0239
 9787SOL    HW141834   7.185   4.955   7.777 -0.1218 -0.3094 -0.1665
 9787SOL    HW241835   7.315   4.967   7.680 -1.3706 -0.2190 -1.8549
 9788SOL     OW41836   4.793   2.540   3.099  0.2402 -0.0197  0.1397
 9788SOL    HW141837   4.812   2.620   3.156  0.7911 -1.5304  2.1443
 9788SOL    HW241838   4.879   2.502   3.065  0.3218 -2.1272  2.5689
 9789SOL     OW41839   2.172   0.737   0.008  0.4031  0.3564 -0.2324
 9789SOL    HW141840   2.225   0.812   0.047  0.6745 -0.0107  0.1099
 9789SOL    HW241841   2.222   0.651   0.020 -0.1528  0.0454 -0.1298
 9790SOL     OW41842   7.381   7.534   1.041 -0.0894  0.1692  0.5550
 9790SOL    HW141843   7.456   7.469   1.031 -1.5833 -1.6713  1.0257
 9790SOL    HW241844   7.329   7.511   1.123 -1.3465  1.2481  0.0655
 9791SOL     OW41845   2.929   6.686   5.749 -0.6014  0.1289  0.5732
 9791SOL    HW141846   3.017   6.641   5.735 -0.8017 -0.5582  1.5085
 9791SOL    HW241847   2.879   6.688   5.662 -1.1404 -2.6077  0.8054
 9792SOL     OW41848   5.483   3.774   6.201  0.9656 -0.2433 -0.8339
 9792SOL    HW141849   5.425   3.808   6.126  0.1633  1.8131  0.6599
 9792SOL    HW241850   5.451   3.813   6.287  2.9723 -1.2012  0.3685
 9793SOL     OW41851   2.750   4.114   4.543 -0.3381  0.2211 -0.0306
 9793SOL    HW141852   2.808   4.076   4.472 -0.2246  1.2339 -0.4799
 9793SOL    HW241853   2.807   4.153   4.616 -0.4459  0.5337 -0.1108
 9794SOL     OW41854   8.532   4.654   8.507 -0.4068 -0.0719  0.0114
 9794SOL    HW141855   8.501   4.712   8.432  0.2070  0.8518  0.4656
 9794SOL    HW241856   8.607   4.699   8.555  1.6276 -2.2481 -1.0392
 9795SOL     OW41857   6.171   8.730   1.333 -0.1866 -0.4190  0.0789
 9795SOL    HW141858   6.234   8.680   1.393  0.6745  0.2170 -0.2852
 9795SOL    HW241859   6.114   8.791   1.388 -0.3438 -0.8387  0.3862
 9796SOL     OW41860   5.997   7.099   5.935  0.4960 -0.3445 -0.2293
 9796SOL    HW141861   6.049   7.034   5.990  0.5931 -1.0836 -1.1844
 9796SOL    HW241862   5.975   7.179   5.990  3.3393  0.3583 -0.0371
 9797SOL     OW41863   8.928   7.082   0.859 -0.1553  0.4200  0.4959
 9797SOL    HW141864   8.954   7.001   0.912 -0.6096  1.3508  2.1644
 9797SOL    HW241865   8.838   7.113   0.887 -0.3921  0.9686 -0.8185
 9798SOL     OW41866   2.770   3.725   6.895 -0.1395 -0.9923 -0.3111
 9798SOL    HW141867   2.736   3.632   6.910  0.8764 -1.0778  1.6856
 9798SOL    HW241868   2.753   3.780   6.977 -0.3582  0.4663 -1.3225
 9799SOL     OW41869   4.452   6.310   6.981  0.1322 -0.5728  0.0357
 9799SOL    HW141870   4.473   6.403   6.951  1.2694 -0.5001  1.0094
 9799SOL    HW241871   4.364   6.309   7.028 -0.8183 -0.3623 -1.7078
 9800SOL     OW41872   8.100   8.724   5.477  0.2986  0.1943 -0.1215
 9800SOL    HW141873   8.000   8.714   5.482  0.0713 -0.0816 -3.5386
 9800SOL    HW241874   8.125   8.820   5.491 -0.3936  0.2125  1.0719
 9801SOL     OW41875   7.459   6.045   4.383 -0.2046  0.0484 -0.1701
 9801SOL    HW141876   7.541   6.057   4.327 -0.5422 -1.3462 -0.9929
 9801SOL    HW241877   7.378   6.062   4.327 -0.4898  1.4141  0.6387
 9802SOL     OW41878   1.033   6.887   4.517 -0.3707 -0.2152 -0.8655
 9802SOL    HW141879   0.988   6.921   4.600  0.2114  0.5105 -0.8451
 9802SOL    HW241880   1.037   6.959   4.449  1.5067 -0.0161 -0.5648
 9803SOL     OW41881   2.903   6.916   5.879  0.0349 -0.6161  0.0573
 9803SOL    HW141882   2.905   6.826   5.837 -0.1013 -0.0136 -1.2547
 9803SOL    HW241883   2.971   6.921   5.952  1.1111 -1.2773 -0.8979
 9804SOL     OW41884   4.950   1.055   1.227  0.3422  0.0408  0.0067
 9804SOL    HW141885   5.038   1.070   1.183  0.4029  1.0856  0.4689
 9804SOL    HW241886   4.879   1.046   1.158  1.0014 -2.2079 -0.4232
 9805SOL     OW41887   3.382   7.470   4.169  0.0802  0.6603  0.2622
 9805SOL    HW141888   3.334   7.447   4.254 -1.7646  1.3414 -0.5670
 9805SOL    HW241889   3.326   7.443   4.091  1.6891  0.2018 -0.7486
 9806SOL     OW41890   1.537   4.329   1.777 -0.1309 -0.3253  0.2071
 9806SOL    HW141891   1.621   4.352   1.827  0.0211  0.0575 -0.2310
 9806SOL    HW241892   1.528   4.389   1.698 -1.9582  1.1442  1.4898
 9807SOL     OW41893   8.284   0.894   4.746  0.3167 -0.9422  0.1830
 9807SOL    HW141894   8.379   0.915   4.770 -0.4513  1.0480  1.5529
 9807SOL    HW241895   8.281   0.807   4.696  2.6033 -2.2615  2.2473
 9808SOL     OW41896   7.872   2.434   6.448  0.0664 -0.2512 -0.3095
 9808SOL    HW141897   7.916   2.523   6.433  1.0227 -0.7803 -0.6475
 9808SOL    HW241898   7.784   2.449   6.494  0.3496  0.8512 -0.0918
 9809SOL     OW41899   6.642   8.597   5.982 -0.5645 -0.0154  0.0778
 9809SOL    HW141900   6.605   8.685   6.013 -0.1465  0.1091  0.2232
 9809SOL    HW241901   6.700   8.558   6.054 -1.4904 -0.8527  0.3815
 9810SOL     OW41902   4.695   7.692   1.344  0.1168 -0.6066  0.2004
 9810SOL    HW141903   4.790   7.688   1.375  0.6976  1.4178 -1.2318
 9810SOL    HW241904   4.635   7.709   1.423  0.9987 -1.1197  0.9938
 9811SOL     OW41905   7.376   3.706   1.705 -0.8757  0.8569  0.0837
 9811SOL    HW141906   7.404   3.802   1.705  0.3085  0.5447  2.3096
 9811SOL    HW241907   7.342   3.681   1.795 -0.9758 -0.8862 -0.4174
 9812SOL     OW41908   2.436   0.724   5.438 -0.2718 -0.0501  0.0231
 9812SOL    HW141909   2.345   0.765   5.449 -0.8664 -0.6802 -2.1671
 9812SOL    HW241910   2.497   0.790   5.395  0.3835  0.4420  1.6823
 9813SOL     OW41911   6.053   7.773   0.757  0.7620 -0.1043 -0.6046
 9813SOL    HW141912   6.104   7.831   0.820 -0.0940  1.5007 -1.3645
 9813SOL    HW241913   5.975   7.732   0.804  1.1175 -0.3039 -0.1833
 9814SOL     OW41914   5.274   4.172   0.035 -0.4079 -0.1617 -0.4049
 9814SOL    HW141915   5.289   4.257  -0.016 -1.6671 -0.3925 -1.1631
 9814SOL    HW241916   5.348   4.108   0.015 -0.2800  0.1805 -1.0314
 9815SOL     OW41917   0.190   7.153   1.616 -0.5993 -0.0654  0.0581
 9815SOL    HW141918   0.288   7.173   1.618 -0.5491 -0.4268  1.7780
 9815SOL    HW241919   0.150   7.170   1.706 -2.3413  1.1311 -0.9247
 9816SOL     OW41920   8.790   7.180   4.579 -0.2818  0.4882  0.0659
 9816SOL    HW141921   8.869   7.223   4.623 -1.6199  1.4708  1.5912
 9816SOL    HW241922   8.736   7.250   4.532 -0.7078 -0.0476 -0.2491
 9817SOL     OW41923   2.548   0.980   7.920  0.3144  0.2126 -0.1681
 9817SOL    HW141924   2.535   0.881   7.926  0.8566 -0.0214 -2.5177
 9817SOL    HW241925   2.460   1.025   7.905  0.3705 -0.1559 -1.6905
 9818SOL     OW41926   6.223   2.652   8.125  0.1694 -0.2924 -0.3987
 9818SOL    HW141927   6.145   2.686   8.177  2.1236  1.3603  1.5112
 9818SOL    HW241928   6.196   2.640   8.029 -2.2239  0.8811  0.0914
 9819SOL     OW41929   0.518   6.151   4.437  0.3147  0.2705  0.5249
 9819SOL    HW141930   0.584   6.226   4.437  0.4449  0.1546 -0.1785
 9819SOL    HW241931   0.523   6.101   4.350 -0.6075  0.1829  0.5185
 9820SOL     OW41932   5.288   7.732   5.543  0.7571 -0.2376 -0.2543
 9820SOL    HW141933   5.255   7.648   5.586 -2.1339 -0.5846 -2.9830
 9820SOL    HW241934   5.274   7.809   5.604 -1.2057 -1.0252  0.3104
 9821SOL     OW41935   3.026   5.835   7.274 -0.2272  0.3480  0.2504
 9821SOL    HW141936   3.007   5.926   7.311 -1.9491  0.1277 -0.0762
 9821SOL    HW241937   3.005   5.766   7.343  0.8856  0.1619  0.4232
 9822SOL     OW41938   2.636   1.883   3.512  0.6019  0.1750 -0.0010
 9822SOL    HW141939   2.617   1.972   3.552 -0.1092 -0.1583  0.4189
 9822SOL    HW241940   2.660   1.818   3.585 -0.9782 -0.5066 -0.0578
 9823SOL     OW41941   6.587   6.739   8.187 -0.5909 -0.4342 -0.2007
 9823SOL    HW141942   6.673   6.705   8.225 -0.7270  0.2480  0.7321
 9823SOL    HW241943   6.543   6.666   8.134  0.0967 -1.0779  0.1064
 9824SOL     OW41944   4.565   4.296   6.345  0.8605 -0.4444  0.3786
 9824SOL    HW141945   4.474   4.287   6.385 -0.6728  0.1904 -2.7900
 9824SOL    HW241946   4.589   4.393   6.338  1.2964 -0.5678  0.1446
 9825SOL     OW41947   0.569   0.079   5.238  0.6396 -0.6823 -0.0024
 9825SOL    HW141948   0.634   0.081   5.314  0.8843  0.6750 -0.2326
 9825SOL    HW241949   0.614   0.113   5.155 -0.0253 -0.8448 -0.4345
 9826SOL     OW41950   2.907   3.597   1.576  0.4495 -0.2694 -0.2887
 9826SOL    HW141951   2.881   3.680   1.526  1.0315 -0.8613 -1.5864
 9826SOL    HW241952   2.911   3.519   1.513  0.8753 -1.0916  0.7338
 9827SOL     OW41953   1.457   4.921   2.717  0.0801  0.1786 -0.0093
 9827SOL    HW141954   1.371   4.918   2.768 -0.5489  2.2611 -0.9171
 9827SOL    HW241955   1.456   4.852   2.644 -0.4990 -0.2919  0.4370
 9828SOL     OW41956   0.283   2.307   5.320 -0.0427 -0.4423  0.7563
 9828SOL    HW141957   0.342   2.229   5.299  1.2704  0.7483 -0.0165
 9828SOL    HW241958   0.188   2.281   5.306  0.3663 -1.9659  0.6967
 9829SOL     OW41959   3.543   7.243   8.894  0.1644 -0.1387 -0.6705
 9829SOL    HW141960   3.632   7.207   8.866  1.3195  0.8013  1.6426
 9829SOL    HW241961   3.509   7.306   8.824  2.4320  1.2737 -0.5605
 9830SOL     OW41962   4.094   5.390   0.155 -0.2235  0.1940 -0.0002
 9830SOL    HW141963   4.104   5.476   0.105  1.6975 -0.6946 -1.2245
 9830SOL    HW241964   4.154   5.321   0.114  0.0029 -1.0759  2.4091
 9831SOL     OW41965   3.255   8.694   7.097 -0.7809  0.9752  0.2599
 9831SOL    HW141966   3.239   8.782   7.140 -1.3084  1.9477 -1.8402
 9831SOL    HW241967   3.173   8.666   7.047 -0.5347 -0.5954  0.6948
 9832SOL     OW41968   6.654   0.009   0.712 -0.0123  0.3409 -0.5678
 9832SOL    HW141969   6.741  -0.007   0.759 -1.2861 -0.0440  1.7537
 9832SOL    HW241970   6.624   0.102   0.730 -1.6600 -0.5387  1.3892
 9833SOL     OW41971   1.981   8.705   8.252  0.4597  0.4825 -0.1033
 9833SOL    HW141972   1.892   8.717   8.209  0.1181  2.3639  1.0891
 9833SOL    HW241973   1.969   8.692   8.351  1.4648  0.0750 -0.0270
 9834SOL     OW41974   2.289   8.644   4.519  0.0698 -0.7006  0.3816
 9834SOL    HW141975   2.191   8.627   4.509  0.3404 -1.0154 -2.1787
 9834SOL    HW241976   2.338   8.558   4.503  0.7994 -0.3476  0.7543
 9835SOL     OW41977   0.630   0.450   2.458 -0.0405  0.3100 -1.0206
 9835SOL    HW141978   0.697   0.506   2.408  1.1544  0.2709  0.5059
 9835SOL    HW241979   0.663   0.356   2.464 -0.1877  0.3158 -0.1524
 9836SOL     OW41980   7.865   8.530   0.996 -0.2799  0.2175  0.1054
 9836SOL    HW141981   7.930   8.468   1.040 -0.1778  1.3079  1.5263
 9836SOL    HW241982   7.909   8.574   0.918  0.3608  0.1627  0.4291
 9837SOL     OW41983   8.031   7.847   2.080  0.1139 -0.1844 -0.3687
 9837SOL    HW141984   8.126   7.827   2.058  0.6084  0.1167  1.4125
 9837SOL    HW241985   8.004   7.932   2.035  0.9553  0.1735 -0.2057
 9838SOL     OW41986   6.177   6.959   7.487 -0.2721  0.0167 -0.0832
 9838SOL    HW141987   6.103   6.928   7.428  0.3064  0.1779 -0.9042
 9838SOL    HW241988   6.250   6.890   7.487 -0.5751 -0.3070  1.0010
 9839SOL     OW41989   5.602   5.581   2.103  0.0070 -0.1122 -0.3794
 9839SOL    HW141990   5.598   5.637   2.021 -1.1118 -1.2618 -1.1233
 9839SOL    HW241991   5.514   5.535   2.117  1.2559 -2.6557 -0.5029
 9840SOL     OW41992   0.280   0.644   7.067 -0.4366  0.2566  0.2511
 9840SOL    HW141993   0.226   0.562   7.051  3.1389 -2.0893 -0.3949
 9840SOL    HW241994   0.286   0.697   6.983  1.8139 -1.7639 -0.9255
 9841SOL     OW41995   0.928   0.657   1.670 -0.4188  0.4488  0.0282
 9841SOL    HW141996   0.979   0.669   1.584  0.8707 -0.6880  0.6225
 9841SOL    HW241997   0.831   0.675   1.654 -0.1930  0.2113 -1.6807
 9842SOL     OW41998   4.150   7.831   0.061 -0.0569 -0.2009  0.4821
 9842SOL    HW141999   4.229   7.783   0.021  0.7809  1.3753  0.1863
 9842SOL    HW242000   4.171   7.929   0.066 -2.5525  0.4331 -0.9443
 9843SOL     OW42001   1.465   0.239   0.747 -0.1253  0.0598 -0.4168
 9843SOL    HW142002   1.461   0.283   0.657  2.3698  0.2579 -0.4616
 9843SOL    HW242003   1.435   0.144   0.740 -0.3969  0.2162 -1.3677
 9844SOL     OW42004   3.946   1.727   3.243  0.1394  0.5455 -0.1947
 9844SOL    HW142005   4.030   1.707   3.293 -0.8488 -0.5711  1.0454
 9844SOL    HW242006   3.957   1.699   3.147  1.2654  0.6747 -0.1109
 9845SOL     OW42007   1.995   1.503   3.027  0.1241 -0.1259  0.0394
 9845SOL    HW142008   2.022   1.581   2.971  0.8576 -0.2974  0.1497
 9845SOL    HW242009   1.895   1.503   3.040  0.0680  0.4758 -0.4202
 9846SOL     OW42010   5.344   1.900   3.783  0.2567  0.1931 -0.0506
 9846SOL    HW142011   5.417   1.900   3.851  0.3062 -0.2096 -0.1074
 9846SOL    HW242012   5.342   1.989   3.737  1.7008 -0.3339 -1.1266
 9847SOL     OW42013   2.306   7.374   8.076 -0.1738  0.5962  0.7258
 9847SOL    HW142014   2.323   7.371   8.175  0.7228  2.3130  0.6491
 9847SOL    HW242015   2.228   7.316   8.054  0.2505 -0.6277  2.3031
 9848SOL     OW42016   5.521   0.347   8.968  0.1057  0.1509 -0.0042
 9848SOL    HW142017   5.545   0.280   9.039 -1.4387  0.1280  0.5264
 9848SOL    HW242018   5.431   0.384   8.988  0.5365  1.6671 -0.8501
 9849SOL     OW42019   2.506   5.105   8.849 -0.9118  0.4209 -0.6593
 9849SOL    HW142020   2.517   5.128   8.752  1.4970  1.2842 -0.2141
 9849SOL    HW242021   2.505   5.006   8.861  0.6993  0.2940 -1.4055
 9850SOL     OW42022   4.319   8.216   1.640 -0.2873  0.5087  0.5943
 9850SOL    HW142023   4.337   8.124   1.673 -0.3912  0.5198  0.6829
 9850SOL    HW242024   4.235   8.251   1.683 -1.8175 -0.4185 -1.5567
 9851SOL     OW42025   1.314   3.779   0.944  0.6193 -0.2965  0.0396
 9851SOL    HW142026   1.288   3.693   0.988 -0.4676 -0.5628 -1.0885
 9851SOL    HW242027   1.386   3.761   0.877 -0.5576 -0.5754 -1.1757
 9852SOL     OW42028   7.882   0.254   2.623  0.2531  0.1812  0.3627
 9852SOL    HW142029   7.805   0.317   2.616 -0.2897 -0.4423  0.6565
 9852SOL    HW242030   7.897   0.230   2.719  1.0348  0.5686  0.3448
 9853SOL     OW42031   1.794   5.666   0.826  0.5288  1.0686 -0.1118
 9853SOL    HW142032   1.844   5.724   0.891  0.6292  0.1584  0.6387
 9853SOL    HW242033   1.856   5.598   0.788  0.3440  1.2694 -0.7669
 9854SOL     OW42034   5.561   3.016   4.842 -0.0310  0.0143 -0.0788
 9854SOL    HW142035   5.521   3.093   4.793  2.1078  0.8321 -0.5894
 9854SOL    HW242036   5.495   2.940   4.845 -1.7878  1.4935 -0.4060
 9855SOL     OW42037   2.877   5.965   1.534 -0.3149  0.5435  0.4342
 9855SOL    HW142038   2.925   5.905   1.470  1.1442  3.0600 -0.9017
 9855SOL    HW242039   2.791   5.996   1.493 -0.2780  0.6626  0.4463
 9856SOL     OW42040   1.894   3.190   7.046 -0.3858  0.0013 -0.2709
 9856SOL    HW142041   1.911   3.269   7.105 -0.5289  0.5351 -0.9451
 9856SOL    HW242042   1.804   3.152   7.067 -0.6643  0.5222 -0.5231
 9857SOL     OW42043   6.145   6.516   5.534  0.4446  0.5319 -0.0252
 9857SOL    HW142044   6.171   6.486   5.442  0.5150  2.0105 -0.5102
 9857SOL    HW242045   6.227   6.525   5.591  0.5207  0.7160 -0.1642
 9858SOL     OW42046   0.243   5.481   2.837  0.1971  0.1352  0.5550
 9858SOL    HW142047   0.215   5.470   2.742 -0.8794  1.5457  0.6962
 9858SOL    HW242048   0.198   5.412   2.893  0.0347 -0.0533  0.1971
 9859SOL     OW42049   0.294   3.045   6.651  0.6339  0.4259  0.3996
 9859SOL    HW142050   0.366   3.095   6.603 -0.9315  0.5394 -1.9206
 9859SOL    HW242051   0.205   3.081   6.625 -0.4351 -2.0783  0.4026
 9860SOL     OW42052   7.512   4.905   2.011  0.3154 -0.1009 -0.1953
 9860SOL    HW142053   7.458   4.877   1.932 -2.2028 -0.2257  1.4959
 9860SOL    HW242054   7.575   4.977   1.985  0.0988 -0.7041 -2.4792
 9861SOL     OW42055   7.091   2.059   3.161  0.4176 -0.3588 -0.5365
 9861SOL    HW142056   7.124   2.130   3.223  0.0613  0.4381 -1.2401
 9861SOL    HW242057   7.154   2.052   3.083 -0.0220 -0.1900 -0.9102
 9862SOL     OW42058   3.844   4.678   2.607 -0.2802 -0.4519 -0.4910
 9862SOL    HW142059   3.908   4.752   2.626 -0.5311 -0.6172  1.0265
 9862SOL    HW242060   3.872   4.596   2.657 -1.5404 -0.5994 -0.0189
 9863SOL     OW42061   8.321   6.952   7.101  0.1826 -0.2681  0.4672
 9863SOL    HW142062   8.377   7.035   7.104 -1.1048  0.7000 -1.5016
 9863SOL    HW242063   8.225   6.976   7.084  0.0391 -2.2448 -1.7781
 9864SOL     OW42064   4.838   6.517   5.041 -0.6141 -0.0236 -0.0877
 9864SOL    HW142065   4.858   6.426   5.077  0.9713  0.1589 -0.4620
 9864SOL    HW242066   4.888   6.531   4.955 -0.6939  1.2677  0.0561
 9865SOL     OW42067   7.915   2.252   0.516 -0.1435  0.5269  0.7825
 9865SOL    HW142068   7.817   2.268   0.534 -0.0943 -1.3509  2.9600
 9865SOL    HW242069   7.925   2.173   0.456  0.0091  1.8008 -0.9099
 9866SOL     OW42070   3.649   2.176   7.557  0.3797  0.4390  0.2586
 9866SOL    HW142071   3.676   2.201   7.650 -0.6521 -0.3230  0.7755
 9866SOL    HW242072   3.643   2.077   7.548 -2.0534  0.5451  0.1542
 9867SOL     OW42073   2.422   1.806   2.310 -0.2188 -0.1293 -0.0131
 9867SOL    HW142074   2.448   1.880   2.248 -0.0871 -1.9434 -2.2241
 9867SOL    HW242075   2.323   1.809   2.325 -0.4659 -0.4700 -1.4484
 9868SOL     OW42076   8.225   6.231   1.117 -0.0756 -0.4017  0.2835
 9868SOL    HW142077   8.168   6.306   1.085 -0.2062 -1.0312 -0.9828
 9868SOL    HW242078   8.321   6.254   1.103 -0.1145 -0.4652 -0.0803
 9869SOL     OW42079   3.677   7.923   4.760 -0.0163  1.2045 -0.2057
 9869SOL    HW142080   3.685   8.019   4.785 -0.2980  1.6963 -1.9546
 9869SOL    HW242081   3.669   7.868   4.843  0.1778  2.6781  0.8114
 9870SOL     OW42082   3.700   2.938   2.205 -0.2351  0.1524 -0.1555
 9870SOL    HW142083   3.758   2.962   2.128  1.3563 -0.6486  0.7849
 9870SOL    HW242084   3.742   2.967   2.291 -1.8509  0.7844  0.4585
 9871SOL     OW42085   3.921   1.239   7.307 -0.1254  0.1313 -0.4276
 9871SOL    HW142086   3.855   1.166   7.290 -1.2164  0.5854  1.7071
 9871SOL    HW242087   3.897   1.286   7.392  0.5639  2.9669 -1.7416
 9872SOL     OW42088   8.217   1.104   8.836  0.4675 -0.7793 -0.1751
 9872SOL    HW142089   8.274   1.161   8.777 -0.8552  0.7953  0.0500
 9872SOL    HW242090   8.127   1.145   8.846 -1.1942 -3.8667 -1.5501
 9873SOL     OW42091   5.326   0.970   7.793 -0.2025 -0.2470  0.3385
 9873SOL    HW142092   5.237   0.931   7.769  0.1350  0.2114 -1.8448
 9873SOL    HW242093   5.315   1.040   7.863 -1.7964  1.0249 -1.1527
 9874SOL     OW42094   7.653   5.923   6.900 -0.5904  0.1552  0.3263
 9874SOL    HW142095   7.628   5.827   6.902 -0.4175  0.1140  0.6013
 9874SOL    HW242096   7.660   5.954   6.806  0.0393 -0.2861  0.2247
 9875SOL     OW42097   5.271   1.440   4.414  0.0124  0.3261  0.0370
 9875SOL    HW142098   5.266   1.376   4.490 -0.3450  1.2980  0.8339
 9875SOL    HW242099   5.221   1.524   4.436  1.0592  1.1740 -0.7145
 9876SOL     OW42100   2.018   6.238   2.620  0.2219  0.2243  0.6631
 9876SOL    HW142101   2.052   6.331   2.632 -1.0490  0.5990  1.3998
 9876SOL    HW242102   2.079   6.174   2.666  1.9372  0.5194 -1.0909
 9877SOL     OW42103   1.975   3.314   8.543 -0.9320  0.0293 -0.2165
 9877SOL    HW142104   1.958   3.225   8.584 -1.0561  0.6368  1.0799
 9877SOL    HW242105   1.896   3.342   8.489 -1.3829 -0.1012  0.3746
 9878SOL     OW42106   1.981   6.607   5.154 -0.0810 -0.1046 -0.3269
 9878SOL    HW142107   2.029   6.679   5.203  1.5528  0.5254 -2.7257
 9878SOL    HW242108   1.883   6.626   5.154 -0.0241  0.3224  1.8803
 9879SOL     OW42109   4.466   8.620   0.251  0.8987  0.6317  0.0030
 9879SOL    HW142110   4.478   8.556   0.176 -0.4383  0.1059  0.2335
 9879SOL    HW242111   4.403   8.693   0.224  0.8546  0.7498  0.4194
 9880SOL     OW42112   2.338   4.969   7.870  1.0067 -0.1722 -0.5773
 9880SOL    HW142113   2.345   4.917   7.786  1.6359 -0.7857 -0.1474
 9880SOL    HW242114   2.415   5.032   7.877  0.5015  0.4909 -0.8662
 9881SOL     OW42115   4.540   0.661   5.665 -0.1024 -0.4609 -0.1217
 9881SOL    HW142116   4.577   0.589   5.724  2.3884  1.8509  1.2938
 9881SOL    HW242117   4.526   0.744   5.719 -2.4874  0.2727 -1.7963
 9882SOL     OW42118   3.109   2.806   6.599 -0.2767 -0.2502 -0.1501
 9882SOL    HW142119   3.050   2.771   6.525 -1.9338 -1.4970  1.7189
 9882SOL    HW242120   3.064   2.883   6.644 -0.2662 -0.8907  0.9752
 9883SOL     OW42121   0.224   2.597   6.068 -0.0305  0.1168 -0.4516
 9883SOL    HW142122   0.314   2.563   6.092  0.9150  1.2154 -2.2845
 9883SOL    HW242123   0.177   2.530   6.011 -0.0714 -0.1536 -0.0948
 9884SOL     OW42124   0.544   6.573   1.206  0.2175  0.4638  0.2121
 9884SOL    HW142125   0.467   6.635   1.195 -0.2153 -0.0686  0.2036
 9884SOL    HW242126   0.605   6.608   1.277  0.9630  1.8651 -1.0877
 9885SOL     OW42127   6.347   3.835   1.295 -0.4028 -0.2931 -0.0717
 9885SOL    HW142128   6.253   3.816   1.263 -0.4260 -0.2074 -0.0554
 9885SOL    HW242129   6.344   3.904   1.367 -0.3890 -0.8327  0.4422
 9886SOL     OW42130   3.415   7.737   3.884 -0.3612  0.2112  0.2668
 9886SOL    HW142131   3.515   7.742   3.873 -0.1718  0.1703  1.9087
 9886SOL    HW242132   3.384   7.644   3.862  0.0600  0.0252  0.4396
 9887SOL     OW42133   7.370   8.694   4.021 -0.8215 -0.4027 -0.7496
 9887SOL    HW142134   7.343   8.632   3.947  0.3563 -1.1358 -0.5703
 9887SOL    HW242135   7.416   8.643   4.093 -0.5278  0.5627 -0.2392
 9888SOL     OW42136   6.177   6.633   3.060 -0.6928  0.4943  0.0612
 9888SOL    HW142137   6.091   6.597   3.023 -0.1654  0.0240 -0.7321
 9888SOL    HW242138   6.228   6.678   2.986  0.6301 -0.9344  0.0771
 9889SOL     OW42139   6.248   0.600   8.796 -0.2952  0.0613  0.1308
 9889SOL    HW142140   6.271   0.512   8.755 -0.8063  0.2019 -0.4699
 9889SOL    HW242141   6.296   0.673   8.747  0.0017  0.1315  0.5244
 9890SOL     OW42142   4.952   6.965   1.730 -0.7367  0.2301  0.3520
 9890SOL    HW142143   5.002   7.046   1.762 -1.1364 -0.0949  1.8241
 9890SOL    HW242144   4.968   6.953   1.632  1.9739  0.2243  0.7444
 9891SOL     OW42145   1.205   8.360   8.576  0.0653  0.1074  0.3521
 9891SOL    HW142146   1.133   8.378   8.643 -0.4696 -0.4696 -0.0616
 9891SOL    HW242147   1.284   8.320   8.623  0.2091  0.9398  0.8397
 9892SOL     OW42148   5.311   7.193   5.099  0.2861 -0.5101 -0.1044
 9892SOL    HW142149   5.388   7.130   5.091  0.2532 -0.5961  0.2645
 9892SOL    HW242150   5.342   7.280   5.135  0.5071  0.0238 -1.5519
 9893SOL     OW42151   2.091   3.743   1.723  0.0197  0.4473 -0.2414
 9893SOL    HW142152   2.006   3.692   1.715 -0.1219  0.6554 -0.0660
 9893SOL    HW242153   2.104   3.800   1.641 -0.1364  0.6104 -0.1515
 9894SOL     OW42154   0.979   6.573   7.531 -0.1352 -0.9938  0.7351
 9894SOL    HW142155   1.027   6.523   7.603  0.1602 -1.1390  0.4374
 9894SOL    HW242156   1.005   6.670   7.534  0.3683 -1.1190  0.4151
 9895SOL     OW42157   8.991   2.143   0.358  0.0543  0.3179  0.0257
 9895SOL    HW142158   8.954   2.183   0.275 -0.4728  1.8750  0.9991
 9895SOL    HW242159   8.921   2.086   0.402  0.2215 -0.2223 -0.4011
 9896SOL     OW42160   3.015   0.100   3.325  0.6717  0.3497 -0.5058
 9896SOL    HW142161   2.990   0.047   3.406  0.9080  0.1342 -0.5717
 9896SOL    HW242162   2.937   0.103   3.262  1.1815 -1.3690 -1.2672
 9897SOL     OW42163   0.545   3.828   0.827  0.3686  0.4957 -0.7307
 9897SOL    HW142164   0.485   3.787   0.896  0.2110 -0.4983 -1.4456
 9897SOL    HW242165   0.528   3.926   0.821 -1.5809  0.1264 -1.3363
 9898SOL     OW42166   1.132   3.933   8.973  0.3493 -0.3228  0.0033
 9898SOL    HW142167   1.133   3.875   9.055 -1.8574  2.0817  1.8201
 9898SOL    HW242168   1.065   3.897   8.908 -0.4531 -0.2555  0.7806
 9899SOL     OW42169   3.667   8.194   2.892  0.2861 -0.4113 -0.0968
 9899SOL    HW142170   3.622   8.205   2.981  0.3980 -2.3276  0.2130
 9899SOL    HW242171   3.601   8.162   2.825  0.2361  0.8963 -0.6812
 9900SOL     OW42172   3.289   7.833   4.162  0.3188 -0.0178  0.0215
 9900SOL    HW142173   3.341   7.777   4.097  0.7712 -0.1970  0.5351
 9900SOL    HW242174   3.212   7.780   4.197 -0.0646  0.1590 -0.5424
 9901SOL     OW42175   4.318   1.279   4.192 -0.0511  0.2118 -0.5534
 9901SOL    HW142176   4.306   1.210   4.120 -0.4308 -0.6698  0.3442
 9901SOL    HW242177   4.416   1.293   4.208  0.0310 -1.1924  0.2628
 9902SOL     OW42178   1.866   0.511   0.012 -0.4705 -0.3108 -0.5569
 9902SOL    HW142179   1.848   0.595  -0.040  2.1905 -0.2442 -1.4101
 9902SOL    HW242180   1.916   0.533   0.096  0.2051 -1.0313 -0.7658
 9903SOL     OW42181   0.211   1.522   5.971 -0.1418  0.5512 -0.2218
 9903SOL    HW142182   0.140   1.590   5.989 -0.6595 -0.1454  0.3562
 9903SOL    HW242183   0.243   1.483   6.057  0.0102 -0.0916 -0.5656
 9904SOL     OW42184   7.648   5.621   2.787 -0.3778 -0.1155 -0.2568
 9904SOL    HW142185   7.653   5.521   2.792 -0.0525 -0.0644  0.5225
 9904SOL    HW242186   7.632   5.649   2.692  0.3867 -0.8722 -0.6222
 9905SOL     OW42187   8.080   2.643   7.786  0.4250 -0.2349 -0.5442
 9905SOL    HW142188   8.029   2.586   7.722  1.5940  0.0764 -1.7592
 9905SOL    HW242189   8.172   2.660   7.751  0.2692  1.9950  0.0328
 9906SOL     OW42190   4.102   8.327   7.954 -0.1196  0.2144  0.1834
 9906SOL    HW142191   4.144   8.274   8.028  1.8379  0.4066 -0.7564
 9906SOL    HW242192   4.072   8.264   7.882 -1.1345  0.1128  0.6746
 9907SOL     OW42193   3.430   0.779   8.555  0.3531 -0.1102  0.3279
 9907SOL    HW142194   3.447   0.813   8.462 -0.3039  0.6477  0.4807
 9907SOL    HW242195   3.348   0.823   8.592  0.6841 -0.3156  1.3108
 9908SOL     OW42196   6.774   0.953   1.709 -0.3802  0.5368 -0.6854
 9908SOL    HW142197   6.852   0.891   1.702 -0.1040  1.1180 -3.3560
 9908SOL    HW242198   6.715   0.924   1.784  2.5569  0.2987  1.6335
 9909SOL     OW42199   2.641   4.418   5.823  0.2582  0.2600  0.6976
 9909SOL    HW142200   2.545   4.438   5.805  0.1186 -0.9573  0.0218
 9909SOL    HW242201   2.685   4.386   5.739  0.8952 -0.5506  1.3276
 9910SOL     OW42202   1.445   8.842   4.394 -0.1092  0.2594  0.7640
 9910SOL    HW142203   1.534   8.799   4.406 -0.1544 -0.0185  0.1430
 9910SOL    HW242204   1.421   8.843   4.297 -0.5829  0.7381  0.8785
 9911SOL     OW42205   2.451   7.796   0.047 -0.3140  0.1710  0.1556
 9911SOL    HW142206   2.433   7.812  -0.050  0.3964 -0.6665 -0.1249
 9911SOL    HW242207   2.448   7.698   0.066  2.8175  0.0427  0.2834
 9912SOL     OW42208   4.163   0.882   8.069  0.0764  0.1944  0.3128
 9912SOL    HW142209   4.110   0.803   8.039  0.7903  0.0181 -0.4928
 9912SOL    HW242210   4.256   0.852   8.093  0.4950  0.8535 -0.4512
 9913SOL     OW42211   0.865   8.177   0.377  0.1391 -0.1739  0.3019
 9913SOL    HW142212   0.899   8.084   0.363  0.9947  0.0553  0.8510
 9913SOL    HW242213   0.839   8.189   0.473 -0.1040  0.1132  0.2016
 9914SOL     OW42214   4.441   1.382   3.559 -0.4241 -0.0869 -0.0794
 9914SOL    HW142215   4.414   1.416   3.649 -1.8554  1.0958 -0.9172
 9914SOL    HW242216   4.386   1.302   3.536  1.1338 -1.4231  0.8048
 9915SOL     OW42217   8.862   7.189   3.821  0.1293 -0.0898 -0.8641
 9915SOL    HW142218   8.812   7.133   3.756  1.0073 -1.6200 -0.2590
 9915SOL    HW242219   8.943   7.139   3.853  0.2701  1.0310  0.6129
 9916SOL     OW42220   0.745   7.789   5.620  0.0496  0.6633 -0.0650
 9916SOL    HW142221   0.833   7.792   5.572  0.5618  0.1807  0.8365
 9916SOL    HW242222   0.719   7.882   5.648 -0.0292  0.8871 -0.8671
 9917SOL     OW42223   6.177   2.342   6.290 -0.1767  0.6230 -0.2146
 9917SOL    HW142224   6.132   2.430   6.303 -0.9885  0.2275 -0.3598
 9917SOL    HW242225   6.248   2.351   6.220 -0.5980  1.0371 -0.5862
 9918SOL     OW42226   0.987   5.119   4.541 -0.0855 -0.1377 -0.0110
 9918SOL    HW142227   0.998   5.137   4.639 -0.7992 -0.3576  0.1129
 9918SOL    HW242228   1.008   5.203   4.490 -2.9271  0.9910  0.5408
 9919SOL     OW42229   6.075   2.077   8.585  0.6785  0.2537  0.3140
 9919SOL    HW142230   6.131   2.021   8.524  0.2143 -0.8563  0.8905
 9919SOL    HW242231   6.032   2.019   8.654 -0.5881  1.1815  0.3387
 9920SOL     OW42232   0.683   3.853   8.217 -0.2369 -0.7429  0.5404
 9920SOL    HW142233   0.755   3.834   8.284  0.8209  0.0757 -0.3437
 9920SOL    HW242234   0.607   3.899   8.262 -0.2049 -1.5999  1.4875
 9921SOL     OW42235   2.875   8.685   8.999  0.0017  0.1299 -0.6265
 9921SOL    HW142236   2.861   8.762   9.062 -2.5455 -0.7335 -0.0786
 9921SOL    HW242237   2.898   8.721   8.908  1.2760  1.4463  0.1787
 9922SOL     OW42238   7.723   5.894   3.942  0.4252  0.5675  0.1275
 9922SOL    HW142239   7.644   5.837   3.964  2.5919 -2.1065  1.2361
 9922SOL    HW242240   7.760   5.867   3.854  0.5161  1.3549 -0.0788
 9923SOL     OW42241   4.693   7.230   5.888 -0.4960  0.0705  0.0165
 9923SOL    HW142242   4.708   7.281   5.803 -1.1594  1.5899  0.8046
 9923SOL    HW242243   4.782   7.212   5.931 -0.2361  0.2523 -0.4301
 9924SOL     OW42244   8.022   6.673   2.430 -0.2826  0.2933  0.1615
 9924SOL    HW142245   8.036   6.748   2.494 -0.4643  0.4804 -0.0133
 9924SOL    HW242246   8.090   6.602   2.445 -0.5185  0.1961  0.7652
 9925SOL     OW42247   4.484   4.819   8.332 -0.0801  0.3463  0.2949
 9925SOL    HW142248   4.500   4.730   8.290 -0.6606  0.3159  0.1325
 9925SOL    HW242249   4.552   4.885   8.297 -0.4521  0.2805 -0.5755
 9926SOL     OW42250   3.560   5.940   3.612  0.2609 -0.0155 -0.6141
 9926SOL    HW142251   3.548   6.026   3.563 -0.1565  0.6027  0.5632
 9926SOL    HW242252   3.637   5.948   3.675  1.4756 -1.1594 -1.9066
 9927SOL     OW42253   2.507   2.619   3.164 -0.2335  0.0627 -0.2750
 9927SOL    HW142254   2.518   2.696   3.102 -2.1180 -0.0787 -0.8210
 9927SOL    HW242255   2.594   2.570   3.172  0.9465  2.1255 -0.0394
 9928SOL     OW42256   7.676   4.807   7.314  0.3234 -0.2665  0.3750
 9928SOL    HW142257   7.680   4.764   7.223 -0.4552  0.9700 -0.2595
 9928SOL    HW242258   7.599   4.768   7.365 -1.3073  1.3892 -0.7544
 9929SOL     OW42259   3.859   7.334   1.500 -0.0488  0.1424  0.0502
 9929SOL    HW142260   3.796   7.303   1.428  0.5295 -0.4223 -0.2262
 9929SOL    HW242261   3.858   7.434   1.504 -0.3983  0.1665 -0.4610
 9930SOL     OW42262   6.003   1.934   2.677 -0.2518  0.2099 -0.1644
 9930SOL    HW142263   5.994   2.026   2.640  0.1075  0.1621 -0.3607
 9930SOL    HW242264   6.062   1.879   2.618  0.4373  0.1805  0.5443
 9931SOL     OW42265   5.111   5.117   0.114  0.6005 -0.4810  0.0933
 9931SOL    HW142266   5.032   5.170   0.083  2.4578  2.4048  0.1670
 9931SOL    HW242267   5.114   5.116   0.213 -0.1957 -1.9320  0.1154
 9932SOL     OW42268   2.400   8.604   2.667 -0.1405 -0.5049 -0.2794
 9932SOL    HW142269   2.452   8.632   2.587 -0.0298  1.9236  0.5740
 9932SOL    HW242270   2.420   8.667   2.743 -2.3408 -1.0684  0.8171
 9933SOL     OW42271   7.656   4.483   2.943  0.4429 -0.2043  0.3874
 9933SOL    HW142272   7.675   4.580   2.950 -1.4265  0.0803  1.8454
 9933SOL    HW242273   7.560   4.466   2.965  1.0318 -2.5072  1.3107
 9934SOL     OW42274   4.879   0.035   8.777  0.2822  0.1490  0.0044
 9934SOL    HW142275   4.879   0.042   8.677  0.8730 -0.8686 -0.0725
 9934SOL    HW242276   4.854  -0.058   8.804  0.0926  0.4279  0.8080
 9935SOL     OW42277   3.387   8.824   5.007  0.5286 -0.6486 -0.4830
 9935SOL    HW142278   3.335   8.893   4.957  1.4936  0.7608  0.4310
 9935SOL    HW242279   3.477   8.860   5.031 -0.2055 -0.9692  2.9917
 9936SOL     OW42280   3.440   6.492   2.130  0.4285 -0.5964  0.2646
 9936SOL    HW142281   3.428   6.393   2.135  0.1595 -0.5539  0.4831
 9936SOL    HW242282   3.531   6.516   2.164  0.4499 -0.7571  0.3228
 9937SOL     OW42283   7.059   7.636   0.913  0.4537 -0.0919  0.1822
 9937SOL    HW142284   7.002   7.631   0.995  2.3708  2.0388  1.6969
 9937SOL    HW242285   7.151   7.603   0.935  1.1063  0.9384 -1.0021
 9938SOL     OW42286   6.019   4.242   0.424 -0.5271 -0.1012 -0.2228
 9938SOL    HW142287   6.114   4.272   0.433 -0.4949 -0.2519 -0.0661
 9938SOL    HW242288   5.968   4.309   0.371  0.0291 -0.7730 -1.6522
 9939SOL     OW42289   4.899   3.634   5.495  0.2034  0.5873 -0.1360
 9939SOL    HW142290   4.837   3.700   5.540  0.5711  2.5158 -2.3577
 9939SOL    HW242291   4.915   3.663   5.401 -0.0488 -3.0342 -1.3523
 9940SOL     OW42292   1.499   4.087   4.924 -0.1437 -0.6041 -0.0317
 9940SOL    HW142293   1.598   4.100   4.925 -0.1441 -0.4922 -0.9270
 9940SOL    HW242294   1.455   4.167   4.882 -0.6404 -0.5144  0.6343
 9941SOL     OW42295   5.423   2.383   4.840  0.4932 -0.2101 -0.3095
 9941SOL    HW142296   5.411   2.285   4.823  1.3634 -0.5228  0.8057
 9941SOL    HW242297   5.373   2.409   4.922 -1.1044  0.6367 -1.5260
 9942SOL     OW42298   4.524   5.796   6.410 -0.3529  0.4253  0.1072
 9942SOL    HW142299   4.453   5.856   6.374 -1.2945 -0.4090  0.5719
 9942SOL    HW242300   4.520   5.796   6.510 -0.0470 -0.0510  0.1174
 9943SOL     OW42301   2.492   8.854   6.463  0.1660  0.1932 -0.4002
 9943SOL    HW142302   2.442   8.916   6.402  0.0425  0.8767  0.3955
 9943SOL    HW242303   2.434   8.776   6.485 -0.2441  0.5693 -0.1515
 9944SOL     OW42304   1.967   5.199   8.265  0.4219 -0.0857  0.3529
 9944SOL    HW142305   1.965   5.295   8.236  1.9349 -0.6850 -1.9275
 9944SOL    HW242306   2.060   5.174   8.292  0.3235 -1.2532 -0.3510
 9945SOL     OW42307   1.716   7.450   4.609  0.3230 -0.4023  1.0465
 9945SOL    HW142308   1.631   7.487   4.646  1.1314 -0.5382  3.1011
 9945SOL    HW242309   1.794   7.497   4.650  1.2542 -0.6118 -0.4547
 9946SOL     OW42310   2.934   6.780   7.086 -0.6143 -0.2146 -0.0522
 9946SOL    HW142311   3.016   6.769   7.142 -1.7140 -0.8483  1.4604
 9946SOL    HW242312   2.911   6.877   7.078 -0.7310 -0.1568  0.9949
 9947SOL     OW42313   7.948   3.234   5.435 -0.2641  0.1022  0.0349
 9947SOL    HW142314   8.042   3.252   5.461  0.7378 -1.5650 -2.2791
 9947SOL    HW242315   7.898   3.320   5.427  1.1982  1.0173  0.7562
 9948SOL     OW42316   0.704   0.589   8.882 -0.0272 -0.1401 -0.4202
 9948SOL    HW142317   0.738   0.495   8.882 -0.3495 -0.2732  1.2352
 9948SOL    HW242318   0.775   0.651   8.848  0.9722 -0.7162  0.6011
 9949SOL     OW42319   4.694   6.597   0.869  0.1989 -0.2872  0.0186
 9949SOL    HW142320   4.724   6.505   0.894 -2.9811 -1.7387 -1.1591
 9949SOL    HW242321   4.722   6.617   0.776  0.2083 -0.3981 -0.0027
 9950SOL     OW42322   6.908   5.282   8.925 -0.2654  0.5845 -0.7492
 9950SOL    HW142323   6.974   5.213   8.954 -1.2057 -0.1532 -0.3217
 9950SOL    HW242324   6.944   5.332   8.847  0.8742  0.3150 -0.3980
 9951SOL     OW42325   0.075   3.965   8.168  0.4699 -0.6491 -0.4906
 9951SOL    HW142326   0.144   3.918   8.223 -0.9745 -1.5170  0.5930
 9951SOL    HW242327   0.085   4.064   8.181  0.8573 -0.8059  0.4471
 9952SOL     OW42328   1.657   5.910   0.952  0.2452  0.4067 -0.0729
 9952SOL    HW142329   1.756   5.913   0.954  0.1980  2.5243  0.9031
 9952SOL    HW242330   1.626   5.828   0.903  2.4461 -0.2305 -0.4267
 9953SOL     OW42331   8.598   2.859   5.175  0.0477 -0.1010 -0.5240
 9953SOL    HW142332   8.575   2.802   5.253  0.7248 -1.9652 -1.6729
 9953SOL    HW242333   8.515   2.899   5.137 -0.4357 -0.4217  0.1906
 9954SOL     OW42334   7.964   2.883   2.347  0.3907  0.1324 -0.1174
 9954SOL    HW142335   7.888   2.946   2.334  1.2307  1.2253  0.1921
 9954SOL    HW242336   8.009   2.867   2.259  0.9800  0.9996  0.0228
 9955SOL     OW42337   4.465   3.087   7.467  0.4195 -0.2165  0.1752
 9955SOL    HW142338   4.418   3.040   7.391  0.3089 -1.0641  0.7560
 9955SOL    HW242339   4.402   3.095   7.544  0.6488  0.3141  0.3028
 9956SOL     OW42340   3.596   7.858   6.615  0.1070 -0.0461  0.4610
 9956SOL    HW142341   3.543   7.933   6.577 -0.3042  0.2684  1.6222
 9956SOL    HW242342   3.546   7.772   6.601  1.7162 -0.4774 -3.0652
 9957SOL     OW42343   7.209   0.089   8.081  0.0270  0.6162  0.3986
 9957SOL    HW142344   7.297   0.070   8.037 -0.4025  0.3927 -0.3765
 9957SOL    HW242345   7.224   0.111   8.177  0.9603  0.9062  0.1905
 9958SOL     OW42346   5.501   3.877   3.805  0.1168 -0.0172 -0.0318
 9958SOL    HW142347   5.454   3.837   3.884 -0.3545  0.5512 -0.0164
 9958SOL    HW242348   5.588   3.917   3.834  0.2877 -0.4643  0.0660
 9959SOL     OW42349   1.560   6.177   6.440 -0.0160 -0.6468 -0.4556
 9959SOL    HW142350   1.496   6.112   6.398  0.9052 -0.9064 -1.5086
 9959SOL    HW242351   1.519   6.268   6.443 -1.0939 -1.1623  0.4867
 9960SOL     OW42352   3.881   7.585   2.634 -0.3230  0.6446 -0.0451
 9960SOL    HW142353   3.923   7.604   2.545  0.1764  0.5129  0.1605
 9960SOL    HW242354   3.796   7.637   2.642  0.4308  1.9163  0.0366
 9961SOL     OW42355   3.194   3.193   3.400 -0.0176 -0.4279 -0.0839
 9961SOL    HW142356   3.258   3.180   3.476 -0.6683 -0.6391  0.4315
 9961SOL    HW242357   3.195   3.289   3.373 -1.1574  0.0293  1.4308
 9962SOL     OW42358   8.192   2.295   7.230 -0.1904 -0.1104 -0.8302
 9962SOL    HW142359   8.097   2.324   7.242  0.1155  0.4620  0.2341
 9962SOL    HW242360   8.194   2.197   7.212 -0.9064 -0.3809  0.4865
 9963SOL     OW42361   0.753   6.494   6.657  0.9289  0.3728 -0.1038
 9963SOL    HW142362   0.832   6.450   6.699  0.2464 -1.3009 -0.5340
 9963SOL    HW242363   0.671   6.472   6.709  0.1590 -1.2544 -1.9750
 9964SOL     OW42364   6.490   8.028   5.091 -0.2754  0.2841 -0.3712
 9964SOL    HW142365   6.532   8.109   5.050  0.7181  0.5096  1.0480
 9964SOL    HW242366   6.518   8.021   5.186 -1.9217 -0.6598  0.0685
 9965SOL     OW42367   8.543   3.562   2.509 -0.2280 -0.3221  0.0604
 9965SOL    HW142368   8.557   3.466   2.486  1.6257  0.1308 -0.7592
 9965SOL    HW242369   8.557   3.618   2.428  0.1237  0.7599  0.8533
 9966SOL     OW42370   6.339   8.636   7.660 -0.2696  0.0904 -0.7453
 9966SOL    HW142371   6.395   8.708   7.620  1.5242 -0.4890  0.6562
 9966SOL    HW242372   6.356   8.550   7.612 -0.1554 -0.0245 -0.5029
 9967SOL     OW42373   3.630   1.959   4.803  0.2870  0.6930 -0.6292
 9967SOL    HW142374   3.617   2.043   4.856  0.2195  0.5437 -0.4097
 9967SOL    HW242375   3.714   1.913   4.832  0.0950  0.4569 -0.4442
 9968SOL     OW42376   2.108   6.371   2.898  0.2642  0.3303 -0.2486
 9968SOL    HW142377   2.102   6.471   2.889  2.9865  0.3535 -2.6481
 9968SOL    HW242378   2.201   6.346   2.925 -0.0879 -1.6058 -0.7841
 9969SOL     OW42379   1.176   8.672   6.424  0.5213 -0.1083 -0.2610
 9969SOL    HW142380   1.215   8.601   6.482 -0.5459 -0.1882  0.3640
 9969SOL    HW242381   1.246   8.706   6.361  1.6868  0.0118  1.0945
 9970SOL     OW42382   8.910   6.822   7.795 -0.0782  0.2312 -0.6830
 9970SOL    HW142383   8.928   6.746   7.732  1.7576 -0.5619  0.7385
 9970SOL    HW242384   8.991   6.881   7.800  0.0448 -0.0881  1.4035
 9971SOL     OW42385   4.396   2.538   4.840 -0.1071  0.1027  0.1940
 9971SOL    HW142386   4.334   2.514   4.914 -1.9708 -0.3627 -1.4619
 9971SOL    HW242387   4.410   2.637   4.838  0.8265  0.0256  1.8023
 9972SOL     OW42388   5.697   0.616   7.068 -0.3035  0.3614  0.7370
 9972SOL    HW142389   5.722   0.536   7.013  2.2210  1.2618  0.5097
 9972SOL    HW242390   5.698   0.592   7.165 -0.3662 -0.0973  0.6236
 9973SOL     OW42391   5.449   7.114   6.963  0.1475  0.3735 -0.3694
 9973SOL    HW142392   5.537   7.079   6.930  0.2193 -0.5586  0.7525
 9973SOL    HW242393   5.464   7.170   7.044 -0.4984 -2.1888  1.6142
 9974SOL     OW42394   7.053   1.287   6.816  0.0404  0.8962 -0.6288
 9974SOL    HW142395   7.110   1.364   6.788 -0.1110  2.5208  3.2327
 9974SOL    HW242396   6.962   1.297   6.777  1.2451  0.3372 -3.6758
 9975SOL     OW42397   3.184   7.095   8.638  0.1054  0.2743  0.0284
 9975SOL    HW142398   3.125   7.040   8.698  1.4335 -0.9477  0.2361
 9975SOL    HW242399   3.132   7.124   8.558 -1.4037  1.0843  1.2614
 9976SOL     OW42400   7.691   0.609   8.545  0.1638 -0.0278  0.0868
 9976SOL    HW142401   7.764   0.589   8.479  0.6003  0.9873  0.2516
 9976SOL    HW242402   7.725   0.597   8.638  0.1860  0.6431  0.1706
 9977SOL     OW42403   4.613   7.833   1.135 -0.0720  0.5968 -0.1363
 9977SOL    HW142404   4.541   7.777   1.092  0.0897  0.2823 -0.0009
 9977SOL    HW242405   4.651   7.784   1.214  0.4129  0.6844 -0.3117
 9978SOL     OW42406   5.684   3.024   5.146  0.0385  0.0363 -0.4088
 9978SOL    HW142407   5.767   3.056   5.101  0.3209  0.2887  0.2901
 9978SOL    HW242408   5.613   3.007   5.077  0.2316  1.1245 -0.8826
 9979SOL     OW42409   0.375   2.949   0.577 -0.1454 -0.3681 -0.4160
 9979SOL    HW142410   0.403   3.016   0.645  1.0045 -3.8176  2.6851
 9979SOL    HW242411   0.279   2.964   0.553 -0.2723  1.5645  1.1628
 9980SOL     OW42412   8.714   4.165   4.378 -0.3898 -0.3209 -0.1586
 9980SOL    HW142413   8.747   4.121   4.462 -1.3568  0.0674  0.4287
 9980SOL    HW242414   8.767   4.249   4.362  1.3141 -1.5566 -1.1637
 9981SOL     OW42415   6.697   6.960   0.657 -0.2087  0.7038 -0.3710
 9981SOL    HW142416   6.725   6.886   0.718  0.6807  1.5816  0.3015
 9981SOL    HW242417   6.778   7.013   0.630 -0.5399  0.1149 -2.5964
 9982SOL     OW42418   0.499   7.855   3.172 -0.5130  0.5186  0.2984
 9982SOL    HW142419   0.571   7.814   3.117 -0.2919  2.3018 -0.7798
 9982SOL    HW242420   0.539   7.901   3.252 -0.6909 -0.6675  1.0783
 9983SOL     OW42421   2.657   7.018   8.927  0.1567 -0.2620 -0.5233
 9983SOL    HW142422   2.588   7.043   8.859 -0.0122  0.3005 -0.1478
 9983SOL    HW242423   2.613   7.006   9.017  0.5774  0.2867 -0.2439
 9984SOL     OW42424   6.013   2.859   1.556  0.3276  0.0421  0.0847
 9984SOL    HW142425   5.966   2.774   1.531 -0.1640  0.0908  0.8405
 9984SOL    HW242426   6.063   2.845   1.641 -0.1792  0.6550  0.4900
 9985SOL     OW42427   7.132   2.687   0.737  0.9310 -0.0298  0.4020
 9985SOL    HW142428   7.076   2.739   0.801 -0.9382 -1.8813  0.3147
 9985SOL    HW242429   7.209   2.646   0.785 -0.4258 -1.3571  1.4881
 9986SOL     OW42430   8.441   2.475   5.647 -0.0532  0.3099 -0.1624
 9986SOL    HW142431   8.495   2.485   5.730 -1.4688  0.0734  0.8076
 9986SOL    HW242432   8.372   2.547   5.642 -0.5388 -0.1773 -0.6895
 9987SOL     OW42433   3.580   2.377   6.399  0.3215 -0.2077 -0.1860
 9987SOL    HW142434   3.617   2.311   6.464 -0.4525 -1.1889 -0.7329
 9987SOL    HW242435   3.569   2.466   6.444 -2.4664 -1.4572  1.7564
 9988SOL     OW42436   4.881   4.437   6.066  0.2622 -0.2679 -0.4557
 9988SOL    HW142437   4.804   4.434   6.130  0.4825  0.0138 -0.1754
 9988SOL    HW242438   4.863   4.375   5.989 -0.1715 -0.3209 -0.3126
 9989SOL     OW42439   7.572   6.449   5.843  0.4849  0.2133 -0.1683
 9989SOL    HW142440   7.561   6.547   5.834 -2.6684 -0.2679 -2.1612
 9989SOL    HW242441   7.636   6.416   5.774  0.6908  0.7149 -0.2132
 9990SOL     OW42442   2.870   0.574   3.497 -0.3070  0.0487  0.1986
 9990SOL    HW142443   2.894   0.622   3.412  0.2603 -0.5228  0.0341
 9990SOL    HW242444   2.869   0.639   3.573  1.2351  0.1929  0.1190
 9991SOL     OW42445   1.034   5.949   1.974  0.2000  0.0351  0.3725
 9991SOL    HW142446   1.100   5.891   2.022  1.6015  1.9974  0.9125
 9991SOL    HW242447   0.947   5.949   2.024 -0.0733 -2.1992 -0.0825
 9992SOL     OW42448   7.796   3.843   0.778 -0.0135 -0.4269 -0.3612
 9992SOL    HW142449   7.696   3.844   0.776 -0.1517  0.6871  3.0143
 9992SOL    HW242450   7.831   3.877   0.691 -2.5665 -0.3730 -1.4339
 9993SOL     OW42451   7.962   5.862   8.492 -0.0948 -0.2576 -0.0957
 9993SOL    HW142452   8.045   5.884   8.543 -0.0038  0.4247 -0.5163
 9993SOL    HW242453   7.890   5.833   8.555  0.1070  0.2899  0.3924
 9994SOL     OW42454   5.596   5.290   4.598 -0.5002 -0.4372 -0.3246
 9994SOL    HW142455   5.614   5.192   4.605 -1.3627 -0.6615 -1.1453
 9994SOL    HW242456   5.575   5.327   4.689 -0.1588 -1.0081 -0.0106
 9995SOL     OW42457   1.191   3.306   8.627  0.2984  0.2981  0.8025
 9995SOL    HW142458   1.139   3.223   8.646  1.5163 -0.0977  2.6328
 9995SOL    HW242459   1.171   3.374   8.697  2.5005 -0.0138  1.7904
 9996SOL     OW42460   4.241   0.287   5.618  0.1759 -0.1072 -0.0863
 9996SOL    HW142461   4.314   0.280   5.686  1.8730 -0.3840 -1.8934
 9996SOL    HW242462   4.279   0.273   5.526 -1.9337  1.0415 -1.1743
 9997SOL     OW42463   0.801   4.242   6.758  0.1724 -0.5541 -0.0930
 9997SOL    HW142464   0.888   4.221   6.802  1.7552 -1.0108 -3.3190
 9997SOL    HW242465   0.728   4.192   6.804  1.5741 -0.1966  2.6460
 9998SOL     OW42466   8.008   4.636   4.076 -0.4583 -0.8464 -0.3384
 9998SOL    HW142467   7.948   4.698   4.026 -0.6747 -0.8710 -0.1121
 9998SOL    HW242468   7.980   4.541   4.058  0.5906 -0.9229 -1.5959
 9999SOL     OW42469   5.358   1.299   0.263 -0.6493 -0.0118 -0.0132
 9999SOL    HW142470   5.285   1.316   0.329 -0.5438  1.2276 -0.2006
 9999SOL    HW242471   5.397   1.209   0.279 -2.9632 -1.1581 -0.6143
10000SOL     OW42472   4.735   1.040   1.028 -0.0955  0.2500  0.4624
10000SOL    HW142473   4.724   0.942   1.046 -0.1164  0.1489 -0.0863
10000SOL    HW242474   4.734   1.056   0.929  0.9476  0.6751  0.5099
10001SOL     OW42475   8.659   8.182   4.065 -0.1554  0.1374  0.2189
10001SOL    HW142476   8.719   8.103   4.070 -0.5536 -0.1462  0.5556
10001SOL    HW242477   8.712   8.262   4.037  0.1322 -0.3671 -0.7095
10002SOL     OW42478   1.499   6.006   7.585 -0.5916 -0.2723  0.0864
10002SOL    HW142479   1.455   6.051   7.662  0.1021  4.2145 -1.9902
10002SOL    HW242480   1.593   5.982   7.608 -0.6249  0.3496  0.8582
10003SOL     OW42481   7.835   5.864   7.103 -0.0380  0.2556 -0.8437
10003SOL    HW142482   7.831   5.934   7.175  0.3545 -0.0192 -0.5506
10003SOL    HW242483   7.762   5.880   7.037 -0.9125  0.0351  0.0452
10004SOL     OW42484   2.320   3.451   7.531 -0.0340 -0.2440 -0.0524
10004SOL    HW142485   2.343   3.514   7.606  0.6768 -1.8670  1.1114
10004SOL    HW242486   2.403   3.431   7.479 -0.4638  0.6021 -1.0832
10005SOL     OW42487   0.872   1.888   4.098 -0.6154  1.1961  0.5618
10005SOL    HW142488   0.800   1.855   4.036  0.1688 -0.1108  0.3219
10005SOL    HW242489   0.907   1.975   4.065 -0.4651  0.6901 -0.6434
10006SOL     OW42490   4.921   1.672   0.104  0.4786  0.0796 -0.1901
10006SOL    HW142491   4.920   1.694   0.006 -0.9476  0.8000 -0.0288
10006SOL    HW242492   4.973   1.588   0.118  0.2955 -0.3004 -1.6337
10007SOL     OW42493   5.997   5.347   8.867 -0.7187  0.1984  0.5435
10007SOL    HW142494   6.000   5.445   8.888 -0.3494  0.6062 -1.3823
10007SOL    HW242495   5.917   5.327   8.811  0.0101 -0.3512 -0.3057
10008SOL     OW42496   0.598   3.087   5.142  0.4042  0.0094  0.3510
10008SOL    HW142497   0.634   3.145   5.069  0.4497 -0.3241  0.1096
10008SOL    HW242498   0.556   3.005   5.103  0.1051  0.0038  0.6777
10009SOL     OW42499   5.512   8.098   4.982  0.4773 -0.0757  0.0307
10009SOL    HW142500   5.447   8.109   5.057  0.5511  1.2407 -0.0926
10009SOL    HW242501   5.463   8.074   4.898  0.0919  1.2704 -0.1480
10010SOL     OW42502   4.991   3.722   2.906 -0.2495  0.4034 -0.3212
10010SOL    HW142503   5.045   3.732   2.990  0.7887 -0.1185 -0.9101
10010SOL    HW242504   4.933   3.641   2.913  1.4125 -0.8865 -0.9178
10011SOL     OW42505   0.728   0.462   8.635  0.3155 -0.2761 -0.3859
10011SOL    HW142506   0.722   0.364   8.618  0.4878  0.0179 -2.3282
10011SOL    HW242507   0.825   0.489   8.639  0.2956 -0.4967  2.2276
10012SOL     OW42508   5.116   1.244   7.680  0.1861 -0.5533  0.2296
10012SOL    HW142509   5.043   1.294   7.634  0.9624 -1.7598 -2.3836
10012SOL    HW242510   5.081   1.157   7.713 -0.1903  0.0071  1.3458
10013SOL     OW42511   6.578   3.736   4.893 -0.0758  0.3784 -0.3162
10013SOL    HW142512   6.622   3.672   4.956 -1.2048 -0.1515 -0.0617
10013SOL    HW242513   6.524   3.802   4.944  0.0225  0.7237 -0.6565
10014SOL     OW42514   7.896   0.765   2.660 -0.1387  0.3330 -0.0898
10014SOL    HW142515   7.980   0.717   2.636 -0.2080  0.3802 -0.4269
10014SOL    HW242516   7.852   0.719   2.737 -0.2394 -0.1869 -0.4522
10015SOL     OW42517   7.022   1.399   2.732 -0.4954  0.1203  0.5470
10015SOL    HW142518   6.957   1.328   2.706 -3.3887  2.7082  0.5186
10015SOL    HW242519   6.976   1.487   2.735  2.8009  1.8834  1.5736
10016SOL     OW42520   0.823   3.755   0.514 -0.3203  0.2957  0.5224
10016SOL    HW142521   0.886   3.712   0.449  0.4272 -1.3255  2.2882
10016SOL    HW242522   0.861   3.842   0.544 -0.7001  1.1005 -1.2219
10017SOL     OW42523   2.739   8.458   8.222 -0.5845 -0.1467  0.1721
10017SOL    HW142524   2.658   8.489   8.172 -2.3695 -1.2906  2.2243
10017SOL    HW242525   2.773   8.533   8.279  0.1195  0.4828 -1.0560
10018SOL     OW42526   1.019   3.963   6.597 -0.1269 -0.1854 -0.2499
10018SOL    HW142527   0.938   3.983   6.541 -0.3488 -1.4211 -0.3897
10018SOL    HW242528   0.992   3.954   6.693 -0.1155 -0.2987 -0.2563
10019SOL     OW42529   8.591   5.558   6.154  0.0089 -0.4369 -0.1993
10019SOL    HW142530   8.578   5.657   6.155  2.5869 -0.0430 -1.0165
10019SOL    HW242531   8.593   5.526   6.059  1.6056 -0.8842 -0.0308
10020SOL     OW42532   0.904   0.115   6.761  0.1319 -0.0076 -0.2470
10020SOL    HW142533   0.979   0.099   6.698  1.5431 -0.6840  1.5766
10020SOL    HW242534   0.900   0.042   6.830 -3.1932 -0.8645 -1.2315
10021SOL     OW42535   1.215   3.412   4.034 -0.4014  0.0641  0.1381
10021SOL    HW142536   1.194   3.327   3.986 -0.9542  0.9779 -1.2712
10021SOL    HW242537   1.312   3.431   4.026 -0.1469 -0.7777  1.0541
10022SOL     OW42538   3.237   5.620   6.718  0.1178 -0.1224 -0.1239
10022SOL    HW142539   3.185   5.700   6.689  1.0750  1.4357  2.3974
10022SOL    HW242540   3.334   5.642   6.722  0.3441 -1.2661  1.0294
10023SOL     OW42541   6.980   1.006   3.020 -0.5600  0.1303 -0.3653
10023SOL    HW142542   7.036   1.088   3.018 -0.1295 -0.1400  0.5108
10023SOL    HW242543   6.884   1.031   3.011 -0.7005  0.9976  2.9593
10024SOL     OW42544   6.143   7.857   5.010  0.0070  0.9288  0.3301
10024SOL    HW142545   6.059   7.809   5.033  1.8002 -2.6749 -0.2763
10024SOL    HW242546   6.192   7.806   4.938  2.2236  3.4562 -0.0359
10025SOL     OW42547   1.539   7.798   8.799 -0.2684 -0.0735 -0.0658
10025SOL    HW142548   1.475   7.793   8.876 -0.7518  2.0099 -0.3069
10025SOL    HW242549   1.563   7.705   8.770 -1.7744 -0.8880  1.1923
10026SOL     OW42550   0.403   3.053   0.845  0.7720 -0.3489  0.1196
10026SOL    HW142551   0.321   2.997   0.861  0.9262 -1.0500 -1.4842
10026SOL    HW242552   0.378   3.150   0.851  0.1047 -0.5563  0.9287
10027SOL     OW42553   7.201   1.326   7.678  0.0727 -0.6136  0.4078
10027SOL    HW142554   7.105   1.299   7.692 -0.3748  0.8709  0.2707
10027SOL    HW242555   7.221   1.407   7.732  1.0507 -0.4799 -0.1439
10028SOL     OW42556   6.394   7.843   0.984 -0.0930 -0.0321  0.0951
10028SOL    HW142557   6.391   7.757   1.034 -2.3392 -0.1766 -0.2718
10028SOL    HW242558   6.465   7.838   0.914 -0.1866 -1.5725  0.0978
10029SOL     OW42559   2.165   3.495   0.463  0.1082  0.0101 -0.0852
10029SOL    HW142560   2.187   3.536   0.374  2.4056  0.3977  0.6240
10029SOL    HW242561   2.066   3.491   0.474 -0.2019  0.6115 -2.3625
10030SOL     OW42562   3.159   1.932   3.679 -0.0986  0.9192 -0.3000
10030SOL    HW142563   3.160   1.837   3.708  1.3318  1.0476  0.1104
10030SOL    HW242564   3.107   1.987   3.745 -1.5029  0.3274 -0.8964
10031SOL     OW42565   7.420   8.655   1.457 -0.3226 -0.5232 -0.0289
10031SOL    HW142566   7.375   8.740   1.484 -0.5425 -1.1165  1.5348
10031SOL    HW242567   7.510   8.675   1.417 -0.6375  0.4693 -0.2417
10032SOL     OW42568   8.547   3.970   2.208  0.1914  0.0377  0.3179
10032SOL    HW142569   8.583   4.009   2.124 -0.0023  0.0501  0.2409
10032SOL    HW242570   8.490   4.037   2.255  0.6524  0.1793  0.6816
10033SOL     OW42571   6.543   4.540   8.653  0.0840  0.5137  0.1998
10033SOL    HW142572   6.492   4.496   8.579 -1.6375 -0.0104  1.6518
10033SOL    HW242573   6.571   4.472   8.720  0.7303  1.1262  0.5687
10034SOL     OW42574   2.053   0.239   3.737 -0.1286  1.1092 -0.4811
10034SOL    HW142575   2.004   0.223   3.822 -1.2750 -1.2748 -1.5198
10034SOL    HW242576   2.039   0.161   3.676  1.0501  2.5556 -2.6676
10035SOL     OW42577   2.294   0.365   3.728  0.1804  0.2199  0.0350
10035SOL    HW142578   2.289   0.461   3.754 -0.1227  0.5641 -1.2275
10035SOL    HW242579   2.202   0.328   3.717  0.2824 -0.5245  1.5704
10036SOL     OW42580   2.375   4.132   5.394  0.3349  1.1430 -0.5477
10036SOL    HW142581   2.362   4.049   5.449 -0.1379  0.3456 -1.8315
10036SOL    HW242582   2.297   4.193   5.408  0.3166  1.0411 -0.1785
10037SOL     OW42583   6.225   6.394   3.404  0.6046 -0.3674 -0.2423
10037SOL    HW142584   6.294   6.335   3.447  0.6626  0.2696  0.5300
10037SOL    HW242585   6.179   6.449   3.474 -0.7304 -0.8241 -0.7480
10038SOL     OW42586   4.461   0.012   5.452 -0.1564  0.1107  0.2180
10038SOL    HW142587   4.540  -0.023   5.402  0.2098  0.5761  0.4702
10038SOL    HW242588   4.394  -0.061   5.464 -0.2423 -0.0021 -0.9564
10039SOL     OW42589   0.121   3.260   2.343 -0.8672  0.3846  0.1991
10039SOL    HW142590   0.087   3.173   2.307  2.0054 -0.8052  0.2374
10039SOL    HW242591   0.044   3.315   2.374 -2.8476 -1.5960 -1.0140
10040SOL     OW42592   8.341   4.436   8.807  0.2162 -0.1778 -0.5586
10040SOL    HW142593   8.361   4.364   8.874  1.3771  0.1458 -0.5426
10040SOL    HW242594   8.370   4.405   8.716  1.6888  0.6541 -0.3969
10041SOL     OW42595   6.013   5.205   1.932  0.1167  0.7657 -0.4960
10041SOL    HW142596   6.046   5.297   1.953  2.5998 -0.0886 -0.4509
10041SOL    HW242597   6.073   5.163   1.864 -1.0008 -0.8274 -0.5327
10042SOL     OW42598   5.119   5.168   8.502 -0.4460  0.3785 -0.2649
10042SOL    HW142599   5.141   5.128   8.591 -1.5340 -0.8360 -0.5204
10042SOL    HW242600   5.072   5.256   8.516 -0.4285  0.2943  0.3522
10043SOL     OW42601   3.363   6.986   6.131 -0.3447  0.4853  0.6029
10043SOL    HW142602   3.436   6.969   6.065  0.2411 -0.2192  1.4280
10043SOL    HW242603   3.294   6.914   6.124  0.2563 -0.1830  1.4971
10044SOL     OW42604   2.624   0.789   8.475 -0.2820 -0.5776 -0.8116
10044SOL    HW142605   2.531   0.798   8.441 -0.3135 -3.0939 -1.4597
10044SOL    HW242606   2.687   0.775   8.398  0.5416  0.3014 -0.3197
10045SOL     OW42607   8.337   0.870   2.669 -0.2333  0.1704  0.6584
10045SOL    HW142608   8.269   0.938   2.643 -0.6076  0.1107  1.4647
10045SOL    HW242609   8.423   0.888   2.621 -1.0782 -0.2816 -1.0363
10046SOL     OW42610   8.383   3.114   2.856 -0.4831 -0.1815 -0.2556
10046SOL    HW142611   8.481   3.110   2.835 -0.5735 -1.5899 -0.4332
10046SOL    HW242612   8.331   3.072   2.781 -1.0945 -1.1820  0.7123
10047SOL     OW42613   0.024   5.760   7.826  0.1608 -0.5734  0.8342
10047SOL    HW142614  -0.050   5.817   7.791 -0.2517 -0.6122  1.6221
10047SOL    HW242615   0.051   5.793   7.917  0.6197 -0.9998  0.8549
10048SOL     OW42616   1.088   5.572   4.574  0.1330 -0.0283 -0.0868
10048SOL    HW142617   1.002   5.558   4.624 -0.3090 -2.8725 -1.5395
10048SOL    HW242618   1.165   5.547   4.633 -0.3730 -3.1697 -0.6620
10049SOL     OW42619   7.852   7.196   1.119  0.2698 -0.0648 -0.1998
10049SOL    HW142620   7.910   7.177   1.040 -0.1226  0.3378 -0.5907
10049SOL    HW242621   7.846   7.115   1.176  0.8508 -0.2491 -0.3919
10050SOL     OW42622   7.012   7.231   6.168  0.5705  0.1328  0.0566
10050SOL    HW142623   6.917   7.257   6.184  0.8845  0.3485  1.6398
10050SOL    HW242624   7.058   7.305   6.118 -0.5543 -0.7689 -2.3815
10051SOL     OW42625   7.459   5.727   2.021  0.3940 -0.0600 -0.1132
10051SOL    HW142626   7.371   5.755   1.984  1.9756  1.2553 -3.0344
10051SOL    HW242627   7.468   5.628   2.016 -1.4632 -0.3372  1.5523
10052SOL     OW42628   5.223   7.663   7.288 -0.0090  0.1078  0.0483
10052SOL    HW142629   5.279   7.693   7.366 -0.1633  1.1591 -0.2432
10052SOL    HW242630   5.268   7.689   7.203 -0.7568  0.6207 -0.1920
10053SOL     OW42631   3.450   7.556   6.093  0.5962  0.1414  0.1806
10053SOL    HW142632   3.495   7.472   6.122  1.8605  0.6821 -0.1457
10053SOL    HW242633   3.458   7.625   6.165  1.2052  0.5617 -0.2731
10054SOL     OW42634   0.008   5.632   6.523 -0.3192 -0.1667 -0.4232
10054SOL    HW142635   0.056   5.720   6.531  1.0520 -1.1029  2.6369
10054SOL    HW242636  -0.068   5.630   6.587  0.4253 -1.6491  0.4410
10055SOL     OW42637   1.724   6.674   8.772  0.6046  0.3139  0.7476
10055SOL    HW142638   1.641   6.713   8.811  0.0522 -0.8113  0.7054
10055SOL    HW242639   1.734   6.705   8.677 -0.6015 -0.8150  0.2497
10056SOL     OW42640   8.216   2.372   5.896  0.7812 -0.0536 -0.1363
10056SOL    HW142641   8.125   2.407   5.919  1.5976  2.2457 -0.2217
10056SOL    HW242642   8.212   2.326   5.807 -0.1365  0.7242 -0.5058
10057SOL     OW42643   1.473   5.276   6.015  0.1258 -0.0425  0.0292
10057SOL    HW142644   1.567   5.307   6.002  0.1623  0.1178  0.6580
10057SOL    HW242645   1.439   5.234   5.931  1.2057 -1.2859  0.2046
10058SOL     OW42646   2.460   0.164   7.370 -0.0862  0.3751 -0.1308
10058SOL    HW142647   2.414   0.115   7.444 -0.7869 -0.8801 -1.3678
10058SOL    HW242648   2.423   0.134   7.282  1.1363  1.4203 -1.0272
10059SOL     OW42649   0.354   4.780   4.741 -0.5906  0.0339 -0.1248
10059SOL    HW142650   0.434   4.725   4.718 -0.7012 -0.5976  0.9932
10059SOL    HW242651   0.384   4.868   4.777 -0.3906 -0.3686  0.7007
10060SOL     OW42652   4.655   0.106   2.562 -0.2265 -0.1867  0.0335
10060SOL    HW142653   4.748   0.128   2.531  0.8814 -1.8631  1.9901
10060SOL    HW242654   4.605   0.191   2.579  1.2640  0.7514 -0.1332
10061SOL     OW42655   0.183   2.841   7.850 -0.2714 -0.2000 -0.0576
10061SOL    HW142656   0.137   2.754   7.834 -0.9098  0.1452 -0.1088
10061SOL    HW242657   0.117   2.916   7.839  0.4578  0.3345 -0.7889
10062SOL     OW42658   2.620   7.365   8.860 -0.4834 -0.4001  0.3200
10062SOL    HW142659   2.585   7.315   8.940 -0.0003  0.5814  1.1553
10062SOL    HW242660   2.713   7.336   8.841  0.4290  1.3747  1.8675
10063SOL     OW42661   6.617   4.443   4.200 -0.2046 -0.6176  0.2384
10063SOL    HW142662   6.698   4.478   4.153 -0.2524 -1.8776 -0.8090
10063SOL    HW242663   6.631   4.346   4.222 -0.7118 -0.3746  1.6601
10064SOL     OW42664   1.691   3.212   0.352  0.1545  0.2143 -0.5225
10064SOL    HW142665   1.682   3.129   0.407 -0.1073  0.3009 -0.4342
10064SOL    HW242666   1.786   3.222   0.323  0.3624  0.3280  0.1722
10065SOL     OW42667   6.542   1.365   2.374 -0.0032  0.1259  0.4235
10065SOL    HW142668   6.462   1.424   2.387  0.8818  1.1310  1.4809
10065SOL    HW242669   6.595   1.362   2.459  1.7218  0.4515 -0.6194
10066SOL     OW42670   2.352   3.714   5.341  0.1499  0.6771 -0.4905
10066SOL    HW142671   2.434   3.709   5.283  0.8247 -0.0313  0.4959
10066SOL    HW242672   2.346   3.630   5.396 -1.1624  0.7936 -0.4524
10067SOL     OW42673   6.674   3.922   2.390  0.2425 -0.2698 -0.2722
10067SOL    HW142674   6.596   3.958   2.441  0.8808 -0.7766  1.0906
10067SOL    HW242675   6.666   3.822   2.384  0.3330 -0.2396 -0.8908
10068SOL     OW42676   7.979   0.331   8.486 -0.0482 -0.5536 -0.8502
10068SOL    HW142677   8.027   0.379   8.560 -1.4464 -0.4506  0.0009
10068SOL    HW242678   8.046   0.294   8.421  1.1558 -0.0367  0.0863
10069SOL     OW42679   1.631   6.356   8.029 -0.1221 -0.5186 -0.4236
10069SOL    HW142680   1.671   6.265   8.038 -1.8372 -1.4564 -2.0724
10069SOL    HW242681   1.694   6.415   7.979 -0.0730 -1.5151 -1.5488
10070SOL     OW42682   2.946   3.096   3.284  0.4664  0.7739 -0.5707
10070SOL    HW142683   3.019   3.151   3.323  0.2422  0.9701 -0.4296
10070SOL    HW242684   2.965   2.999   3.300 -0.1752  0.8879  0.9958
10071SOL     OW42685   7.046   8.379   6.284  0.1883  0.1231 -0.0357
10071SOL    HW142686   7.092   8.384   6.195  0.8097 -1.4301  0.1865
10071SOL    HW242687   6.947   8.384   6.269  0.3111  0.6610 -0.7457
10072SOL     OW42688   1.091   2.899   6.017 -0.2754 -0.3038 -0.7589
10072SOL    HW142689   1.003   2.899   5.969 -0.1883 -1.1466 -0.9323
10072SOL    HW242690   1.166   2.900   5.950 -0.1451 -2.5092 -0.7084
10073SOL     OW42691   1.766   4.804   1.447  0.1438 -0.1986 -0.2666
10073SOL    HW142692   1.836   4.875   1.437  0.6116 -0.5690  0.2893
10073SOL    HW242693   1.778   4.735   1.376 -0.3542  0.3149 -0.8487
10074SOL     OW42694   3.700   8.795   4.856 -0.2861  0.3091 -1.2426
10074SOL    HW142695   3.778   8.735   4.837 -0.1503 -0.7653  2.4610
10074SOL    HW242696   3.616   8.746   4.834 -0.0485  0.6491 -3.0470
10075SOL     OW42697   7.002   2.442   7.142 -0.2029  0.2265 -0.2556
10075SOL    HW142698   6.964   2.521   7.095  2.6272  1.6808 -0.1813
10075SOL    HW242699   7.091   2.418   7.102  0.3655 -1.0575  1.6636
10076SOL     OW42700   1.982   1.300   8.892  0.5173 -0.4779  0.5076
10076SOL    HW142701   1.893   1.259   8.913  0.1434 -0.1270 -0.3632
10076SOL    HW242702   2.023   1.253   8.814  0.5306  0.1510  0.1281
10077SOL     OW42703   3.387   0.648   3.489 -0.3686 -0.0822  0.1905
10077SOL    HW142704   3.321   0.708   3.533  0.7743  0.1220  1.6669
10077SOL    HW242705   3.367   0.553   3.513  0.5292  0.0597  1.5843
10078SOL     OW42706   1.284   5.115   1.000 -0.0720 -0.0850 -0.4532
10078SOL    HW142707   1.225   5.063   0.938  0.4120 -0.6979 -0.4003
10078SOL    HW242708   1.265   5.213   0.988 -1.3519 -0.2872 -0.1683
10079SOL     OW42709   4.647   1.353   1.090  0.2821 -0.2342 -0.1067
10079SOL    HW142710   4.648   1.414   1.011  0.4908  1.6378  1.3014
10079SOL    HW242711   4.741   1.326   1.113  0.4141  0.9257  0.7620
10080SOL     OW42712   7.376   2.678   2.992 -0.2705  0.1117  0.3727
10080SOL    HW142713   7.356   2.598   2.936  2.6264 -1.1101  0.9722
10080SOL    HW242714   7.384   2.759   2.933  1.4015 -0.9166 -0.8424
10081SOL     OW42715   3.300   1.162   0.097 -0.1067 -0.1622 -0.0647
10081SOL    HW142716   3.204   1.142   0.077  0.0979 -0.7410 -0.4929
10081SOL    HW242717   3.345   1.079   0.129  0.1177  0.2398  0.6721
10082SOL     OW42718   5.620   4.484   7.021 -0.1205  0.1855 -0.0594
10082SOL    HW142719   5.651   4.579   7.013 -2.0678  1.0468  1.9946
10082SOL    HW242720   5.650   4.447   7.109  1.1975 -1.3525 -1.1279
10083SOL     OW42721   2.670   0.700   8.753 -0.2905 -0.0882 -0.8256
10083SOL    HW142722   2.669   0.714   8.654 -2.7693 -0.8327 -0.9377
10083SOL    HW242723   2.578   0.709   8.789  0.7177  1.0389  1.5666
10084SOL     OW42724   2.298   7.589   8.710 -0.4269  0.0460  0.2511
10084SOL    HW142725   2.276   7.596   8.613 -4.0019 -1.9328  0.8522
10084SOL    HW242726   2.323   7.495   8.733 -0.1373  0.3793  1.3910
10085SOL     OW42727   2.098   6.228   4.385 -0.2199 -0.3134  0.6538
10085SOL    HW142728   2.045   6.268   4.310 -0.7006  1.3401  1.8352
10085SOL    HW242729   2.195   6.229   4.361 -0.0618  2.8413  1.1445
10086SOL     OW42730   3.838   3.561   7.439 -0.3854  0.4382 -0.0431
10086SOL    HW142731   3.899   3.641   7.440 -1.1264  1.0375 -1.4546
10086SOL    HW242732   3.877   3.489   7.497  0.4248  1.7222  1.0429
10087SOL     OW42733   4.531   5.106   8.000 -0.4730 -0.5153  0.8199
10087SOL    HW142734   4.537   5.205   7.985 -1.9739 -0.4124  0.8123
10087SOL    HW242735   4.578   5.058   7.926 -1.9353  0.1450 -0.5568
10088SOL     OW42736   6.211   7.589   8.621  0.3795  0.5194  0.5317
10088SOL    HW142737   6.250   7.571   8.531 -1.6316 -0.8371 -0.1253
10088SOL    HW242738   6.256   7.668   8.662  1.6105  0.9173 -1.4903
10089SOL     OW42739   8.965   4.784   2.297  0.7309  0.2014  0.5160
10089SOL    HW142740   8.873   4.788   2.336  0.3673  0.4333 -0.3498
10089SOL    HW242741   8.972   4.849   2.221  1.3073 -0.4974 -0.0409
10090SOL     OW42742   3.512   6.455   5.733 -0.4055  0.5998 -0.1093
10090SOL    HW142743   3.609   6.436   5.723 -0.8460 -1.7942 -0.2620
10090SOL    HW242744   3.485   6.443   5.828 -0.4286  1.9388  0.0585
10091SOL     OW42745   7.502   4.616   0.735  0.0516  0.0281  0.2943
10091SOL    HW142746   7.469   4.646   0.825 -1.6413  1.6517 -0.8233
10091SOL    HW242747   7.555   4.690   0.693  1.2078 -0.8860  0.1436
10092SOL     OW42748   2.660   0.680   7.894  0.5689  0.1283 -0.0971
10092SOL    HW142749   2.566   0.654   7.875  0.2962  1.3982 -0.5397
10092SOL    HW242750   2.711   0.601   7.928 -0.4576 -0.7419 -0.5775
10093SOL     OW42751   8.191   8.370   1.725 -0.3440 -0.0278 -0.3594
10093SOL    HW142752   8.278   8.325   1.744  0.3240  0.6432 -1.8190
10093SOL    HW242753   8.120   8.300   1.715  0.4151 -0.7031 -1.1806
10094SOL     OW42754   6.042   0.530   0.997 -0.6588  1.1190  0.3662
10094SOL    HW142755   6.023   0.432   0.992  0.9502  0.7437  1.1508
10094SOL    HW242756   6.014   0.574   0.912  0.6447 -0.3818 -0.8587
10095SOL     OW42757   3.110   4.295   5.630 -0.6787  0.1822 -0.4540
10095SOL    HW142758   3.060   4.212   5.603 -1.5347  1.1685 -1.9775
10095SOL    HW242759   3.168   4.325   5.554  1.5927 -0.4302  0.9752
10096SOL     OW42760   4.891   5.417   5.300  0.7492 -0.0065  0.4267
10096SOL    HW142761   4.846   5.328   5.311  2.7295 -1.0010  0.7482
10096SOL    HW242762   4.956   5.412   5.224  0.4918  1.3471  0.1008
10097SOL     OW42763   7.377   5.879   6.920  0.5065 -0.1100 -0.2212
10097SOL    HW142764   7.367   5.782   6.899 -0.3492 -0.1663  0.4149
10097SOL    HW242765   7.429   5.924   6.847  1.6956 -1.2145 -0.0544
10098SOL     OW42766   2.772   0.212   8.986 -0.2703  0.1178  0.1113
10098SOL    HW142767   2.685   0.240   9.026 -1.3379 -0.3809 -1.7653
10098SOL    HW242768   2.824   0.158   9.052 -2.0154 -0.7695  0.7901
10099SOL     OW42769   4.310   5.101   1.222 -0.5393  0.5210 -0.3000
10099SOL    HW142770   4.251   5.050   1.160  1.0739  0.0746 -1.5258
10099SOL    HW242771   4.288   5.078   1.317 -0.3043 -1.9670 -0.8117
10100SOL     OW42772   2.001   6.725   0.233 -0.2085 -0.4922 -0.1164
10100SOL    HW142773   2.061   6.789   0.281  0.3350 -0.7398 -0.4601
10100SOL    HW242774   1.918   6.711   0.287  1.3690 -2.5331  1.8886
10101SOL     OW42775   4.448   8.080   1.075  0.1464 -0.0986  0.1605
10101SOL    HW142776   4.405   8.109   1.160 -1.8595 -0.5902 -0.6555
10101SOL    HW242777   4.518   8.011   1.095  0.1066  0.2157  1.4505
10102SOL     OW42778   1.365   7.741   8.040  0.2585 -0.3321 -0.0345
10102SOL    HW142779   1.379   7.837   8.014  0.6649 -0.1856  0.7098
10102SOL    HW242780   1.325   7.736   8.131  0.9584 -0.8819  0.2518
10103SOL     OW42781   7.389   6.456   5.637  0.0698 -0.1929 -0.5396
10103SOL    HW142782   7.414   6.438   5.732 -3.3398  1.4872  0.7680
10103SOL    HW242783   7.419   6.548   5.612  0.6248 -0.4934 -1.0021
10104SOL     OW42784   0.862   5.362   8.576  0.6133  0.2307  0.9796
10104SOL    HW142785   0.958   5.378   8.595  0.8380 -0.0197  0.0852
10104SOL    HW242786   0.843   5.263   8.578  0.6346  0.2022 -0.0384
10105SOL     OW42787   6.423   7.471   7.965  0.1327  0.2100  0.1248
10105SOL    HW142788   6.468   7.413   8.033  0.2600  0.0076 -0.1309
10105SOL    HW242789   6.369   7.413   7.903  0.5008  0.3381 -0.3148
10106SOL     OW42790   4.501   1.548   0.076 -0.0098  0.3427 -0.2251
10106SOL    HW142791   4.475   1.476   0.139 -0.8742 -0.2977 -1.2968
10106SOL    HW242792   4.524   1.631   0.127 -0.2314 -0.3150  0.9428
10107SOL     OW42793   4.460   8.924   2.500  0.0850 -0.1152 -0.2145
10107SOL    HW142794   4.489   8.829   2.517  0.2124  0.3758  2.5344
10107SOL    HW242795   4.539   8.985   2.507 -0.3791  0.4331  0.2993
10108SOL     OW42796   0.056   1.541   4.739  0.1192 -0.4862 -0.2975
10108SOL    HW142797   0.005   1.564   4.822  1.4619  1.2134  0.0764
10108SOL    HW242798   0.104   1.454   4.753 -1.6373 -1.4777 -0.2146
10109SOL     OW42799   3.073   2.289   1.025 -0.4009 -0.0755  0.1239
10109SOL    HW142800   3.052   2.218   1.092 -0.2031  1.6813  2.1132
10109SOL    HW242801   2.988   2.331   0.994 -0.3294  3.6265  4.3975
10110SOL     OW42802   6.971   2.466   0.672 -0.2854 -0.2289 -0.2565
10110SOL    HW142803   7.020   2.547   0.704 -0.8852  0.6951 -1.6011
10110SOL    HW242804   6.904   2.437   0.741 -0.0298  0.3912  0.2527
10111SOL     OW42805   0.272   6.466   7.785 -0.3482  0.2213  0.3155
10111SOL    HW142806   0.190   6.427   7.826 -0.8043 -1.0219 -1.7256
10111SOL    HW242807   0.350   6.405   7.799 -0.4232 -0.0244 -0.2979
10112SOL     OW42808   8.892   5.193   0.039 -0.2170 -0.6702  0.0058
10112SOL    HW142809   8.880   5.096   0.061  0.6574 -0.6616  0.5750
10112SOL    HW242810   8.910   5.243   0.123 -0.1960 -0.0830 -0.3492
10113SOL     OW42811   8.656   0.860   8.452  0.1477  0.1817 -0.4871
10113SOL    HW142812   8.635   0.945   8.405 -1.5376  0.0059 -0.0868
10113SOL    HW242813   8.716   0.879   8.530  0.5750  0.8553 -0.9718
10114SOL     OW42814   0.759   4.332   2.713 -0.4002  0.0083 -0.4825
10114SOL    HW142815   0.770   4.257   2.648 -0.0159  0.8744 -1.4508
10114SOL    HW242816   0.834   4.330   2.779  0.9837  0.9406 -1.9749
10115SOL     OW42817   6.893   6.507   5.556  0.0807  0.0632 -0.3251
10115SOL    HW142818   6.845   6.587   5.591  0.0383  0.2856 -0.8871
10115SOL    HW242819   6.975   6.536   5.507 -1.2483 -0.0460 -2.7136
10116SOL     OW42820   3.762   1.344   3.499  0.4022  0.4229 -0.2881
10116SOL    HW142821   3.782   1.302   3.587  2.3948  0.0242 -0.9100
10116SOL    HW242822   3.804   1.290   3.425 -2.2608  0.0632 -1.5925
10117SOL     OW42823   2.319   3.282   5.081  0.3803 -0.3511 -0.3350
10117SOL    HW142824   2.335   3.259   4.985 -1.3012 -0.6968 -0.5415
10117SOL    HW242825   2.310   3.381   5.091 -2.0987 -0.4782 -0.9726
10118SOL     OW42826   2.828   3.478   3.827  0.2681  0.4128 -0.1614
10118SOL    HW142827   2.730   3.482   3.845  0.2518  2.9668 -0.6071
10118SOL    HW242828   2.844   3.431   3.740 -0.6204  0.7355 -0.5033
10119SOL     OW42829   3.438   3.469   0.414 -0.1715  0.1184  0.1829
10119SOL    HW142830   3.374   3.394   0.428  0.5629 -0.4796  0.4095
10119SOL    HW242831   3.426   3.507   0.322 -1.6044  0.7541  0.6286
10120SOL     OW42832   0.173   1.948   4.169 -0.7404 -0.1348  0.3503
10120SOL    HW142833   0.228   1.896   4.234  0.2714  0.4472 -0.0224
10120SOL    HW242834   0.084   1.969   4.209  0.2446  1.0953  1.9596
10121SOL     OW42835   3.841   5.591   2.390  0.3050 -0.5699  0.0883
10121SOL    HW142836   3.872   5.548   2.475  1.0412  1.3630  0.8185
10121SOL    HW242837   3.795   5.523   2.333  0.1760 -1.9847  1.8481
10122SOL     OW42838   7.490   7.317   6.314  0.6271 -0.5798  0.2606
10122SOL    HW142839   7.575   7.341   6.361 -0.5265 -0.8768  2.6074
10122SOL    HW242840   7.456   7.395   6.262  0.1333  0.9384  2.7883
10123SOL     OW42841   7.402   6.835   3.698 -0.3742  0.1275  0.2464
10123SOL    HW142842   7.348   6.919   3.712 -0.1119  0.3928 -0.3315
10123SOL    HW242843   7.396   6.807   3.602 -1.8430 -1.4679  0.7837
10124SOL     OW42844   1.911   6.582   1.131 -0.4777  0.0813  0.0637
10124SOL    HW142845   1.914   6.681   1.146 -1.9051  0.4858 -2.0940
10124SOL    HW242846   1.980   6.557   1.062  0.4275 -0.5530  1.1870
10125SOL     OW42847   3.714   8.095   7.719  0.0105 -0.6798  0.0693
10125SOL    HW142848   3.662   8.061   7.797  0.0487 -1.0488 -0.0633
10125SOL    HW242849   3.665   8.075   7.635 -0.1241 -0.1078  0.0073
10126SOL     OW42850   0.077   3.589   0.245 -0.5162  0.0471 -1.2095
10126SOL    HW142851   0.096   3.675   0.293 -1.3181  1.5366 -3.4532
10126SOL    HW242852  -0.021   3.568   0.252 -0.2866 -0.8076 -0.4950
10127SOL     OW42853   8.027   8.790   0.352  0.2324 -0.6245 -0.5885
10127SOL    HW142854   8.021   8.699   0.392 -2.7847  0.2198  0.9809
10127SOL    HW242855   7.941   8.812   0.306 -0.2555  2.6016  1.7019
10128SOL     OW42856   6.601   3.387   7.435  0.3058  0.0948  0.3527
10128SOL    HW142857   6.600   3.400   7.534 -0.1118 -0.8624  0.4762
10128SOL    HW242858   6.528   3.443   7.394  0.1207  0.0620  0.6384
10129SOL     OW42859   5.101   4.852   2.820  0.4379  0.4376  0.2192
10129SOL    HW142860   5.093   4.775   2.757  0.8108 -0.2184  0.9564
10129SOL    HW242861   5.179   4.909   2.793  0.1409  0.5725 -0.3500
10130SOL     OW42862   6.102   6.538   8.884  0.2865  0.3556 -0.1699
10130SOL    HW142863   6.024   6.491   8.843 -1.8037  1.1135  2.7112
10130SOL    HW242864   6.129   6.490   8.968  1.6329  1.2290 -0.0986
10131SOL     OW42865   4.188   7.457   7.505 -0.0356 -0.6632 -0.0191
10131SOL    HW142866   4.251   7.531   7.482 -0.0531 -0.2950  1.0850
10131SOL    HW242867   4.102   7.470   7.455 -0.8092  1.2530  1.7427
10132SOL     OW42868   3.612   7.670   1.295 -1.2802 -0.0527  0.6149
10132SOL    HW142869   3.588   7.767   1.289  1.1027  0.5882  0.5356
10132SOL    HW242870   3.675   7.657   1.372  1.1410 -0.9023 -1.4336
10133SOL     OW42871   2.030   3.491   1.037 -0.3881  0.6097 -0.2495
10133SOL    HW142872   2.007   3.474   0.941 -0.9511 -0.7900  0.1289
10133SOL    HW242873   1.958   3.456   1.096  0.6382  0.1651  0.7548
10134SOL     OW42874   5.760   3.870   8.719  0.6848 -0.7305 -0.0532
10134SOL    HW142875   5.800   3.792   8.767  0.8028  0.0210  1.0955
10134SOL    HW242876   5.818   3.950   8.732  0.9816 -0.6284 -1.8960
10135SOL     OW42877   6.731   8.824   1.321 -0.6021  0.0961 -0.0025
10135SOL    HW142878   6.667   8.747   1.325  0.4306 -0.7626  0.3663
10135SOL    HW242879   6.681   8.908   1.301 -1.6398 -0.7939 -1.2308
10136SOL     OW42880   7.866   0.187   1.263  1.2174 -0.6391 -0.1186
10136SOL    HW142881   7.837   0.281   1.279 -0.6219 -1.2211  0.0807
10136SOL    HW242882   7.966   0.184   1.255  1.4709  1.0464  1.8373
10137SOL     OW42883   2.282   2.521   6.583  0.3217 -0.1244  0.1834
10137SOL    HW142884   2.250   2.461   6.510  1.0799  1.2663 -1.3233
10137SOL    HW242885   2.210   2.587   6.606  1.2201  1.5660 -1.6546
10138SOL     OW42886   0.929   2.711   4.234  0.6941 -0.4651  0.3742
10138SOL    HW142887   0.886   2.801   4.235 -0.1141 -0.8337 -0.3107
10138SOL    HW242888   0.861   2.641   4.256  1.3401 -0.8994  1.0069
10139SOL     OW42889   4.711   8.346   8.909 -0.5044 -0.1091 -0.5190
10139SOL    HW142890   4.619   8.309   8.896 -0.3670 -0.5492 -0.2382
10139SOL    HW242891   4.763   8.286   8.970  0.5979 -0.8670 -2.1961
10140SOL     OW42892   5.593   6.518   1.261 -0.4921 -0.3227 -0.6214
10140SOL    HW142893   5.582   6.583   1.187 -0.5905 -1.5778 -1.7261
10140SOL    HW242894   5.559   6.558   1.346  1.8986  2.0793 -0.7118
10141SOL     OW42895   4.975   0.104   5.294  0.1531 -0.1026 -0.6660
10141SOL    HW142896   5.019   0.159   5.223 -1.5549 -1.5421 -2.8993
10141SOL    HW242897   5.044   0.053   5.344  1.5848  2.5952  0.1798
10142SOL     OW42898   5.107   1.519   5.105  0.0020 -0.2978  0.1176
10142SOL    HW142899   5.124   1.618   5.108 -1.9084  0.0192  1.5428
10142SOL    HW242900   5.010   1.502   5.120  0.3614 -2.4221  0.1424
10143SOL     OW42901   2.144   3.887   5.213  0.3358 -0.6069 -0.6490
10143SOL    HW142902   2.198   3.804   5.217 -1.2545 -1.7197 -1.6448
10143SOL    HW242903   2.129   3.913   5.117  0.2665  0.4424 -0.3620
10144SOL     OW42904   0.308   0.957   7.395  0.0440 -0.2559  0.2188
10144SOL    HW142905   0.372   0.886   7.423 -0.2890 -0.1799  1.2007
10144SOL    HW242906   0.233   0.915   7.342  1.4249 -0.1981 -1.8397
10145SOL     OW42907   5.983   2.938   0.749  0.0076 -0.2908  0.5142
10145SOL    HW142908   6.079   2.949   0.725 -0.6501  0.6293 -1.8370
10145SOL    HW242909   5.945   2.860   0.698 -1.3750  1.5877 -1.4346
10146SOL     OW42910   8.372   6.771   8.488 -0.9973  0.2106 -0.7689
10146SOL    HW142911   8.455   6.824   8.468 -1.3019  1.1476  0.3931
10146SOL    HW242912   8.304   6.831   8.531 -1.7885 -0.8633 -0.5158
10147SOL     OW42913   3.519   0.533   8.609 -0.0554 -0.3437 -0.2749
10147SOL    HW142914   3.560   0.499   8.693 -2.5711 -1.9469  0.3585
10147SOL    HW242915   3.502   0.631   8.618 -1.8870 -0.8061  1.8146
10148SOL     OW42916   7.194   4.858   3.760 -0.3100 -0.3929  0.1528
10148SOL    HW142917   7.210   4.890   3.853  0.5322 -1.2189  0.3058
10148SOL    HW242918   7.241   4.917   3.695 -1.9680  0.9504  0.1487
10149SOL     OW42919   1.565   5.549   2.686 -0.4604  0.1762 -0.5384
10149SOL    HW142920   1.631   5.619   2.714  0.4464 -0.3567 -1.3067
10149SOL    HW242921   1.498   5.535   2.758 -0.6387  1.8367 -0.3768
10150SOL     OW42922   3.697   2.430   0.159 -0.1674 -0.4254 -0.2539
10150SOL    HW142923   3.724   2.353   0.217 -0.8720 -0.4618  0.0378
10150SOL    HW242924   3.775   2.491   0.145 -0.2501  0.1422  1.6233
10151SOL     OW42925   5.055   4.183   5.974  0.1486  0.3619  0.4684
10151SOL    HW142926   4.960   4.151   5.976  0.6991 -1.3688  0.3489
10151SOL    HW242927   5.099   4.161   6.061  0.5609  0.7811  0.3656
10152SOL     OW42928   1.300   8.265   0.563  0.7715 -0.1469  0.5445
10152SOL    HW142929   1.340   8.347   0.521 -0.4700 -0.2829 -0.9206
10152SOL    HW242930   1.226   8.291   0.624  0.9879 -0.1228  0.7995
10153SOL     OW42931   5.152   7.046   7.050 -0.1021 -0.6446 -0.5402
10153SOL    HW142932   5.154   7.094   7.138 -3.2454  1.0053 -1.3056
10153SOL    HW242933   5.229   7.075   6.994 -0.0244  0.9147  0.3475
10154SOL     OW42934   6.688   4.081   0.609  0.4112  0.2795  0.8855
10154SOL    HW142935   6.674   4.050   0.704  1.2154 -3.2009 -0.0681
10154SOL    HW242936   6.774   4.044   0.574 -0.3121  0.7860 -1.4949
10155SOL     OW42937   2.090   6.918   4.423  0.3727  0.1335  0.2607
10155SOL    HW142938   2.105   6.943   4.328  0.3411  0.8139  0.4291
10155SOL    HW242939   2.001   6.874   4.433  1.3971 -2.1562 -0.4269
10156SOL     OW42940   8.241   0.183   8.025  0.1155 -0.3139 -0.1803
10156SOL    HW142941   8.213   0.264   7.974 -0.5371 -0.4579 -0.0517
10156SOL    HW242942   8.341   0.179   8.028  0.1593  0.0304 -0.9117
10157SOL     OW42943   6.738   8.503   1.945  0.5340  0.0654 -0.2110
10157SOL    HW142944   6.714   8.406   1.939 -1.4734  0.4175  1.5244
10157SOL    HW242945   6.654   8.558   1.946  1.6543  1.8608 -1.5352
10158SOL     OW42946   2.152   2.642   4.662 -0.2815  0.1025  0.1408
10158SOL    HW142947   2.111   2.610   4.577 -2.1321  0.1510  0.9790
10158SOL    HW242948   2.237   2.692   4.643 -1.5137  1.5179 -1.8005
10159SOL     OW42949   8.275   2.867   4.161 -0.0343 -0.3280  0.0182
10159SOL    HW142950   8.224   2.783   4.182 -0.8625  0.3861  0.9523
10159SOL    HW242951   8.328   2.854   4.077 -1.1078 -1.3778 -0.5207
10160SOL     OW42952   5.294   4.008   2.540  0.2892  0.0309  0.6041
10160SOL    HW142953   5.226   4.053   2.597 -0.2256 -1.0048  0.8140
10160SOL    HW242954   5.342   3.938   2.593 -0.3285 -1.0720 -0.2719
10161SOL     OW42955   1.928   3.308   2.206 -0.0689  0.3454 -0.3160
10161SOL    HW142956   2.018   3.352   2.202 -0.2672  0.8177  0.1964
10161SOL    HW242957   1.859   3.373   2.174 -0.3026  0.2185 -0.0633
10162SOL     OW42958   2.684   6.727   8.633  0.5466  0.1759 -0.6586
10162SOL    HW142959   2.754   6.677   8.684 -0.5712 -0.0160  0.7124
10162SOL    HW242960   2.650   6.669   8.559  0.5994 -0.3803 -0.2504
10163SOL     OW42961   3.731   0.819   3.737  0.1753  0.2614  0.2605
10163SOL    HW142962   3.763   0.798   3.829  0.8937  0.2447  0.0098
10163SOL    HW242963   3.803   0.799   3.671 -0.9946 -1.5479 -0.5163
10164SOL     OW42964   6.452   6.755   8.438  0.1967 -0.2225  0.1588
10164SOL    HW142965   6.471   6.664   8.475  0.3416 -0.4550 -0.4867
10164SOL    HW242966   6.503   6.768   8.353  0.8123  0.7611  0.6603
10165SOL     OW42967   6.561   1.903   0.862 -0.2394 -0.5746 -0.5107
10165SOL    HW142968   6.479   1.947   0.826 -1.3459 -2.4416 -0.3428
10165SOL    HW242969   6.536   1.816   0.906  1.7514 -0.8888  0.0677
10166SOL     OW42970   8.767   0.389   6.888  0.0223 -0.3318  0.4803
10166SOL    HW142971   8.842   0.331   6.922 -0.9802 -0.0141  3.3893
10166SOL    HW242972   8.680   0.353   6.922 -0.8301  1.2969  0.0272
10167SOL     OW42973   5.083   6.120   0.736 -0.3680  0.0038  0.7222
10167SOL    HW142974   5.118   6.213   0.728 -0.6770  0.2955  2.5848
10167SOL    HW242975   4.991   6.122   0.777  0.0707 -1.1697  1.8102
10168SOL     OW42976   3.823   5.248   4.336 -0.2880 -0.1649  0.3711
10168SOL    HW142977   3.779   5.318   4.279 -1.3147 -1.4759 -0.4569
10168SOL    HW242978   3.768   5.165   4.337  0.7862 -0.8909  1.5777
10169SOL     OW42979   1.044   8.858   4.367 -0.2247  0.3689 -0.1326
10169SOL    HW142980   1.017   8.818   4.279 -1.1973 -0.6071  0.5893
10169SOL    HW242981   1.126   8.812   4.400 -1.0276 -0.6794  0.4328
10170SOL     OW42982   6.398   4.521   4.054  0.1617 -0.1714 -0.0242
10170SOL    HW142983   6.488   4.513   4.097  0.0483  0.6837  0.3942
10170SOL    HW242984   6.350   4.601   4.092 -1.5548 -1.7404  1.1670
10171SOL     OW42985   7.161   6.850   0.995  0.3020 -0.2932  0.2712
10171SOL    HW142986   7.168   6.822   1.091 -0.7295  0.6012  0.6259
10171SOL    HW242987   7.232   6.918   0.975 -1.7596  2.3214  1.4670
10172SOL     OW42988   7.538   2.785   3.501 -0.6739  0.4010 -0.0528
10172SOL    HW142989   7.599   2.773   3.422 -0.1371 -1.3185  0.5903
10172SOL    HW242990   7.585   2.755   3.584 -1.4761  1.5607  0.8460
10173SOL     OW42991   4.041   2.887   4.311  0.0485 -0.4152  0.0027
10173SOL    HW142992   3.958   2.851   4.268 -1.8148 -0.1520  3.2210
10173SOL    HW242993   4.071   2.824   4.383  0.8241  1.0495  0.9759
10174SOL     OW42994   6.118   3.132   8.246 -0.2234 -0.4712  0.6162
10174SOL    HW142995   6.205   3.169   8.213 -0.7638 -1.1245 -1.6143
10174SOL    HW242996   6.129   3.036   8.268 -0.4023 -0.5855  0.2137
10175SOL     OW42997   7.657   5.842   8.639  0.7800  0.2069 -0.2996
10175SOL    HW142998   7.698   5.933   8.632  0.5545  0.1556 -2.8052
10175SOL    HW242999   7.567   5.843   8.594  1.1439 -1.4569 -1.0902
10176SOL     OW43000   3.240   6.572   3.872 -0.4282 -0.0821 -0.6891
10176SOL    HW143001   3.222   6.669   3.855 -2.4822 -0.7143 -2.3194
10176SOL    HW243002   3.272   6.528   3.788  1.1570 -0.7082  0.2075
10177SOL     OW43003   4.064   7.660   6.222  0.7019  0.0536 -0.4123
10177SOL    HW143004   3.994   7.717   6.266  0.3473 -1.0686  0.4806
10177SOL    HW243005   4.057   7.671   6.123 -1.0719 -0.4013 -0.3624
10178SOL     OW43006   8.495   4.813   4.029  0.3384 -0.3124  0.4105
10178SOL    HW143007   8.546   4.894   4.060  1.8589 -0.6702 -1.0762
10178SOL    HW243008   8.524   4.789   3.936 -2.5278 -0.5681 -0.4569
10179SOL     OW43009   1.296   8.873   2.923  0.0006 -0.1364 -0.0595
10179SOL    HW143010   1.229   8.816   2.877  0.3070  0.2857 -1.0297
10179SOL    HW243011   1.252   8.922   2.999 -1.1936  1.5037 -1.7811
10180SOL     OW43012   6.406   4.974   5.423 -0.4864 -0.6300  0.1693
10180SOL    HW143013   6.307   4.965   5.433 -1.0383  1.7463 -2.6049
10180SOL    HW243014   6.431   5.070   5.428  1.5365 -1.1032 -0.5335
10181SOL     OW43015   0.080   6.499   5.371 -0.3966  0.1390  0.3780
10181SOL    HW143016   0.103   6.430   5.303 -1.4692 -0.9533  1.1111
10181SOL    HW243017   0.058   6.454   5.458  3.1928  1.5626  2.1692
10182SOL     OW43018   4.123   2.689   8.869  0.1199 -0.1444  0.1524
10182SOL    HW143019   4.164   2.663   8.781 -0.6388  1.0278 -0.5649
10182SOL    HW243020   4.030   2.722   8.854 -0.0936 -0.1341  1.4327
10183SOL     OW43021   8.769   5.315   3.772  0.7674 -0.1524 -0.1987
10183SOL    HW143022   8.735   5.401   3.733  0.3557 -0.0919  0.2813
10183SOL    HW243023   8.776   5.325   3.871  0.3379 -0.7979 -0.1012
10184SOL     OW43024   3.331   2.056   7.386 -0.5894 -0.0840 -0.2489
10184SOL    HW143025   3.430   2.065   7.375 -0.0248 -4.4407  0.5237
10184SOL    HW243026   3.297   2.132   7.442  2.4126  0.9869  0.2308
10185SOL     OW43027   5.311   7.470   8.102  0.5914 -0.2152  0.6537
10185SOL    HW143028   5.310   7.370   8.098  1.4402 -0.1577 -2.4945
10185SOL    HW243029   5.405   7.503   8.092  0.2967  0.9080  1.4917
10186SOL     OW43030   2.381   3.211   4.823 -0.4371 -0.6162  1.1091
10186SOL    HW143031   2.410   3.238   4.731  0.5202 -0.2944  1.5074
10186SOL    HW243032   2.283   3.191   4.822 -0.1283 -2.2681 -0.3855
10187SOL     OW43033   0.982   3.803   3.758 -0.1088  0.0175 -0.3971
10187SOL    HW143034   1.008   3.861   3.835 -0.2470 -2.1703  1.3304
10187SOL    HW243035   0.974   3.859   3.675  2.4879  1.9935  0.6297
10188SOL     OW43036   6.137   7.776   3.693 -0.6773  0.4168 -0.7999
10188SOL    HW143037   6.059   7.801   3.751  1.3850 -1.4062  2.9297
10188SOL    HW243038   6.180   7.858   3.658 -0.6839  1.7324  2.1036
10189SOL     OW43039   8.148   4.816   0.864 -0.4507 -0.8066 -0.2373
10189SOL    HW143040   8.081   4.836   0.936 -0.4729  0.4369 -0.5904
10189SOL    HW243041   8.224   4.765   0.904  0.5549  1.6782  1.1826
10190SOL     OW43042   4.426   8.759   1.199 -0.1829  0.1944  0.5536
10190SOL    HW143043   4.380   8.682   1.243 -0.6862  0.8315  1.1353
10190SOL    HW243044   4.362   8.836   1.190  0.1420  0.3472 -0.5615
10191SOL     OW43045   8.090   3.567   7.203  0.7085 -0.3906  0.0882
10191SOL    HW143046   8.014   3.523   7.155  0.0317  0.3774  0.4621
10191SOL    HW243047   8.104   3.658   7.165  0.9686 -0.2497  0.5313
10192SOL     OW43048   7.570   5.193   3.571 -0.4985 -0.3391  0.2372
10192SOL    HW143049   7.623   5.220   3.491  0.2442  0.2720  0.9163
10192SOL    HW243050   7.476   5.224   3.562 -0.8537 -1.8003 -1.1760
10193SOL     OW43051   2.741   2.025   3.810  0.3946  0.3126  0.4201
10193SOL    HW143052   2.758   1.930   3.784  1.5727  0.4022  0.8398
10193SOL    HW243053   2.741   2.083   3.728  0.8334  0.1170  0.2814
10194SOL     OW43054   2.328   2.178   0.257 -0.2369 -0.6234  0.5160
10194SOL    HW143055   2.284   2.137   0.337 -0.3098  0.6663  1.1505
10194SOL    HW243056   2.263   2.179   0.180 -0.3883 -1.2458  0.6310
10195SOL     OW43057   3.986   4.729   4.181 -0.4093  0.3365 -1.0434
10195SOL    HW143058   4.043   4.811   4.193  0.0726 -0.0931 -0.3615
10195SOL    HW243059   3.930   4.739   4.099 -0.2957  1.3232 -1.0078
10196SOL     OW43060   3.701   1.953   1.820  0.1270  0.0569 -0.4286
10196SOL    HW143061   3.764   2.030   1.830 -1.5924  1.3044  1.0705
10196SOL    HW243062   3.665   1.952   1.727  0.0098  1.1917 -0.4050
10197SOL     OW43063   8.224   5.382   1.426 -0.5619  0.2809  0.4468
10197SOL    HW143064   8.302   5.430   1.387  0.3386 -0.6439  1.0666
10197SOL    HW243065   8.145   5.390   1.365 -0.0949  1.5382 -0.0056
10198SOL     OW43066   8.392   1.511   5.167  0.6952  0.1612 -0.0550
10198SOL    HW143067   8.401   1.608   5.147  0.0668  0.2790  0.2227
10198SOL    HW243068   8.352   1.499   5.258  1.7824 -0.3586  0.3760
10199SOL     OW43069   1.877   1.890   0.671  0.1467  0.1496  0.7101
10199SOL    HW143070   1.845   1.801   0.704  0.0005 -0.7926 -1.8553
10199SOL    HW243071   1.799   1.952   0.659 -0.2558 -0.6835 -1.2288
10200SOL     OW43072   3.508   6.197   6.791 -0.2049 -0.4135  0.0067
10200SOL    HW143073   3.547   6.250   6.867  1.1225  0.0367 -0.9712
10200SOL    HW243074   3.517   6.099   6.811 -0.8299 -0.2955  0.9065
10201SOL     OW43075   2.357   4.394   2.626  0.1878  0.1313  0.7696
10201SOL    HW143076   2.279   4.346   2.584  2.3636 -2.0517 -0.9592
10201SOL    HW243077   2.394   4.460   2.560  1.7108 -1.1108  0.3329
10202SOL     OW43078   4.390   1.349   0.237  0.2887  0.9868 -0.1233
10202SOL    HW143079   4.416   1.278   0.171  2.8377 -0.5773  2.4931
10202SOL    HW243080   4.320   1.313   0.299 -0.5692  1.7710 -0.6143
10203SOL     OW43081   3.922   0.578   7.269  0.3517 -0.1174 -0.3902
10203SOL    HW143082   3.987   0.540   7.205 -0.7920 -2.2869 -0.3004
10203SOL    HW243083   3.964   0.585   7.360  1.0968  0.4142 -0.7749
10204SOL     OW43084   6.044   3.404   7.901  0.1395 -0.2020  0.2287
10204SOL    HW143085   6.032   3.385   7.803 -2.4237  1.5485  0.1552
10204SOL    HW243086   5.996   3.333   7.954 -0.8716  0.4069  0.1432
10205SOL     OW43087   6.835   5.279   2.801  0.8322 -0.1389 -0.2515
10205SOL    HW143088   6.765   5.298   2.732  1.6863 -0.4749 -1.2169
10205SOL    HW243089   6.841   5.180   2.815 -0.4824 -0.0024  1.5175
10206SOL     OW43090   2.449   3.083   6.008  0.4123  0.3900 -0.2652
10206SOL    HW143091   2.413   3.167   6.048 -3.8438 -1.3149 -0.2025
10206SOL    HW243092   2.422   3.077   5.912  1.2368 -0.5774 -0.4432
10207SOL     OW43093   1.016   4.022   5.449 -0.6215 -0.0057  0.0484
10207SOL    HW143094   1.114   4.040   5.454 -0.5161 -0.6519  0.4604
10207SOL    HW243095   0.994   3.982   5.360 -0.8446  2.0235 -0.8261
10208SOL     OW43096   4.114   0.600   3.040 -0.4988 -0.4944  0.0497
10208SOL    HW143097   4.139   0.599   2.943  1.2931 -0.8109  0.5121
10208SOL    HW243098   4.028   0.549   3.051  0.5120 -2.5081 -1.0516
10209SOL     OW43099   2.796   5.069   1.385  0.3963 -0.1026  0.5494
10209SOL    HW143100   2.892   5.074   1.357  0.3214 -0.5228  0.2067
10209SOL    HW243101   2.763   4.975   1.373 -0.3722  0.2789 -0.3884
10210SOL     OW43102   8.658   3.553   8.626  0.0725  0.1790  0.1456
10210SOL    HW143103   8.726   3.486   8.655 -1.2298 -1.6334 -0.9598
10210SOL    HW243104   8.698   3.613   8.557  0.6979 -0.5601 -0.1416
10211SOL     OW43105   6.113   2.024   2.335  0.2698  0.2123  0.3321
10211SOL    HW143106   6.139   2.120   2.328  0.6505  0.0858  0.0307
10211SOL    HW243107   6.062   1.997   2.253  1.2307 -0.1716 -0.1534
10212SOL     OW43108   3.941   1.947   6.393  0.0798 -0.7696 -0.1630
10212SOL    HW143109   3.878   1.915   6.464 -0.5628 -1.1886 -0.9129
10212SOL    HW243110   3.930   1.890   6.312 -1.3918  1.6072 -1.6688
10213SOL     OW43111   7.309   5.364   2.764  0.1721 -0.9598  0.0660
10213SOL    HW143112   7.229   5.410   2.804  0.7271  2.0407 -2.0738
10213SOL    HW243113   7.384   5.429   2.755  2.2640 -3.2693  0.3071
10214SOL     OW43114   7.264   0.808   1.095  0.1797  0.2042  0.3999
10214SOL    HW143115   7.187   0.774   1.151 -0.7980 -1.0272 -1.6257
10214SOL    HW243116   7.239   0.804   0.999  2.6374  0.2490 -0.2701
10215SOL     OW43117   8.231   6.168   7.041 -0.0895 -0.3208  0.4122
10215SOL    HW143118   8.209   6.082   7.087  0.8638 -1.3085 -0.9339
10215SOL    HW243119   8.181   6.243   7.085  0.6426 -1.2417  2.9104
10216SOL     OW43120   8.357   4.964   3.802  0.2950 -0.5629 -1.0570
10216SOL    HW143121   8.380   4.915   3.886 -2.8024 -1.4667 -0.7060
10216SOL    HW243122   8.368   5.062   3.817 -0.3715 -0.7058  0.4465
10217SOL     OW43123   3.321   0.550   1.116 -0.7012  0.3249 -0.0757
10217SOL    HW143124   3.291   0.505   1.031 -1.1549  0.1422  0.1811
10217SOL    HW243125   3.247   0.607   1.151 -1.3206 -1.3579  1.4100
10218SOL     OW43126   4.928   4.876   1.586  0.0023  0.3386  0.5737
10218SOL    HW143127   4.859   4.839   1.647  2.0850 -0.3338  2.5713
10218SOL    HW243128   4.960   4.964   1.620 -0.0384  0.7750 -0.4829
10219SOL     OW43129   3.940   2.245   8.909 -0.0590  0.8666 -0.1275
10219SOL    HW143130   4.007   2.294   8.965  1.5755 -0.3117 -0.9854
10219SOL    HW243131   3.931   2.151   8.943 -2.0062  1.2903  0.5627
10220SOL     OW43132   3.297   0.951   8.781 -0.2313 -0.2840  0.0718
10220SOL    HW143133   3.234   0.993   8.716 -0.7494 -0.5462  0.4078
10220SOL    HW243134   3.250   0.933   8.867  0.7466  1.1279  0.9293
10221SOL     OW43135   1.712   7.458   1.556  0.5516 -0.3680  0.6027
10221SOL    HW143136   1.726   7.557   1.562 -0.5884 -0.0642 -1.1383
10221SOL    HW243137   1.744   7.426   1.467 -1.7310 -1.0683  0.0128
10222SOL     OW43138   2.643   5.242   3.833 -0.1615  0.8439  0.1045
10222SOL    HW143139   2.720   5.301   3.856  0.2741  0.2847  0.0964
10222SOL    HW243140   2.609   5.199   3.917 -1.3181  2.1101  0.3012
10223SOL     OW43141   7.791   0.981   2.529 -0.1910 -0.7683  0.3534
10223SOL    HW143142   7.824   0.901   2.580 -1.1198 -0.0585  2.0798
10223SOL    HW243143   7.713   1.021   2.576  0.3939  1.3030 -0.3987
10224SOL     OW43144   0.061   4.589   4.751 -0.1253  0.6142 -0.0796
10224SOL    HW143145  -0.022   4.534   4.757  0.0321  0.5435  1.7940
10224SOL    HW243146   0.056   4.663   4.818  0.4180  1.8740 -1.3982
10225SOL     OW43147   4.888   5.730   8.844 -0.0019 -0.1937  0.5137
10225SOL    HW143148   4.987   5.723   8.849  0.1498  1.2357 -0.3405
10225SOL    HW243149   4.861   5.826   8.833 -1.4585 -0.5995  0.4014
10226SOL     OW43150   3.396   3.940   6.072  0.1312 -0.5543  0.2570
10226SOL    HW143151   3.417   3.846   6.046 -1.0764 -0.6431 -0.4618
10226SOL    HW243152   3.474   3.999   6.050  1.4687 -1.6068  2.0782
10227SOL     OW43153   4.483   2.124   3.188  0.1923  0.7718 -0.3098
10227SOL    HW143154   4.542   2.200   3.160  1.6615 -0.0333  0.5793
10227SOL    HW243155   4.413   2.158   3.251  0.8065  1.3871  0.0426
10228SOL     OW43156   5.952   4.938   6.864 -0.3628  0.0530 -0.7291
10228SOL    HW143157   6.037   4.892   6.888 -0.8683 -0.5957 -0.1771
10228SOL    HW243158   5.920   4.992   6.942  0.2438  1.3691 -1.3822
10229SOL     OW43159   2.077   6.365   0.287  0.2657  0.3724  0.1056
10229SOL    HW143160   2.125   6.278   0.277 -0.8090 -0.2806  0.5988
10229SOL    HW243161   2.113   6.430   0.220  2.1318  0.0310  0.7578
10230SOL     OW43162   0.023   7.804   7.436 -0.2516 -0.2040 -0.1836
10230SOL    HW143163  -0.021   7.870   7.497 -1.2644 -0.6332 -0.4377
10230SOL    HW243164  -0.045   7.767   7.373  0.8445  0.4970 -1.8075
10231SOL     OW43165   5.140   2.503   4.388 -0.6803 -0.3339 -0.5408
10231SOL    HW143166   5.057   2.514   4.442 -0.9145 -0.4328 -0.8752
10231SOL    HW243167   5.123   2.438   4.314  0.0175 -1.2205  0.0641
10232SOL     OW43168   4.715   1.111   0.783 -0.5685 -0.2187  0.0311
10232SOL    HW143169   4.709   1.202   0.742  0.4917 -1.0173 -1.9734
10232SOL    HW243170   4.623   1.077   0.803 -1.1395  0.1275 -1.8774
10233SOL     OW43171   8.790   3.152   4.787 -0.1621  0.0097 -0.2445
10233SOL    HW143172   8.781   3.220   4.715  1.5879 -0.3425 -0.8320
10233SOL    HW243173   8.731   3.176   4.864 -0.0241  1.8613 -0.6907
10234SOL     OW43174   5.688   8.736   5.356 -0.0709  0.4402 -0.2419
10234SOL    HW143175   5.702   8.744   5.455 -2.5978 -0.2330  0.2068
10234SOL    HW243176   5.653   8.645   5.334  3.8898 -0.7500 -2.2540
10235SOL     OW43177   6.027   1.089   7.737  0.3260  0.3468 -0.3238
10235SOL    HW143178   6.083   1.027   7.682  0.3527  2.2669 -2.5758
10235SOL    HW243179   6.086   1.157   7.781  0.0798  0.2916  0.0935
10236SOL     OW43180   0.788   8.393   2.899 -0.4108 -0.3447  0.0903
10236SOL    HW143181   0.863   8.339   2.936 -0.5652 -1.4764 -1.1983
10236SOL    HW243182   0.709   8.334   2.883 -0.4093  0.1200 -1.8435
10237SOL     OW43183   4.083   0.669   8.991 -0.2911 -0.4567 -0.1873
10237SOL    HW143184   4.066   0.574   8.966 -1.5989 -1.2154  3.2809
10237SOL    HW243185   3.996   0.717   9.000  0.2803  0.6007 -0.2530
10238SOL     OW43186   6.315   1.188   7.324  0.3137 -0.1414  0.0535
10238SOL    HW143187   6.257   1.256   7.369  0.8401  0.6581 -0.4604
10238SOL    HW243188   6.350   1.124   7.393  0.2901  0.4611  0.6347
10239SOL     OW43189   8.820   2.613   2.785  0.1215 -0.1423  0.1402
10239SOL    HW143190   8.720   2.607   2.787  0.0332  1.3694  0.2557
10239SOL    HW243191   8.858   2.559   2.860 -0.6268 -0.2099  0.4705
10240SOL     OW43192   2.835   8.736   7.726  0.0300  0.3245  0.0356
10240SOL    HW143193   2.913   8.679   7.701 -0.4670  0.5966 -2.2878
10240SOL    HW243194   2.800   8.708   7.815  1.6054 -1.0472  0.2406
10241SOL     OW43195   0.954   1.378   5.984 -0.5640  0.2517  0.4101
10241SOL    HW143196   0.939   1.305   5.918 -0.1955  0.6894 -0.1613
10241SOL    HW243197   1.012   1.345   6.058  0.5606  0.3003 -0.4411
10242SOL     OW43198   6.811   7.484   7.725 -0.0314  0.0396 -0.0382
10242SOL    HW143199   6.726   7.520   7.688  0.0886 -0.9045 -1.2626
10242SOL    HW243200   6.802   7.385   7.739  1.5465 -0.4427 -2.1834
10243SOL     OW43201   3.134   5.630   8.233  0.7721  0.1677 -0.5208
10243SOL    HW143202   3.056   5.679   8.194  0.3716 -0.0625 -0.0151
10243SOL    HW243203   3.119   5.531   8.228  1.4534  0.0974 -1.2814
10244SOL     OW43204   0.608   2.222   1.938 -0.7610 -0.6630 -0.3001
10244SOL    HW143205   0.541   2.256   2.004  1.6489 -0.2878  2.0796
10244SOL    HW243206   0.564   2.161   1.873 -3.6621  0.7651  0.2463
10245SOL     OW43207   8.842   2.668   1.826  0.2320 -0.0330  0.2591
10245SOL    HW143208   8.787   2.751   1.822 -0.1894 -0.3186  0.1428
10245SOL    HW243209   8.919   2.683   1.889 -0.2267  0.2160  0.7685
10246SOL     OW43210   5.084   3.940   6.508  0.1702  0.2070 -0.6261
10246SOL    HW143211   5.095   4.037   6.530  1.3272  0.1402 -0.8882
10246SOL    HW243212   5.167   3.907   6.463  0.0607 -1.0849  0.1188
10247SOL     OW43213   8.093   6.473   1.374 -0.4673  0.2528  0.2510
10247SOL    HW143214   8.172   6.428   1.332 -1.7762  0.0133 -2.0036
10247SOL    HW243215   8.109   6.482   1.472  2.6492  0.8172 -0.2558
10248SOL     OW43216   0.736   7.813   0.270  0.7097  0.3735  0.1553
10248SOL    HW143217   0.821   7.840   0.315  0.6416  1.1716 -0.1765
10248SOL    HW243218   0.712   7.882   0.201  0.6071 -0.6142 -0.8194
10249SOL     OW43219   3.170   8.645   3.668  0.1608 -0.0375 -0.0714
10249SOL    HW143220   3.102   8.705   3.627 -0.5192 -1.2726 -0.7740
10249SOL    HW243221   3.125   8.564   3.706  0.9853  0.2346  1.5207
10250SOL     OW43222   2.287   4.913   7.440  0.1423  0.2132 -0.4311
10250SOL    HW143223   2.187   4.908   7.438  0.0729  1.6614 -0.7384
10250SOL    HW243224   2.323   4.900   7.348  0.1231  1.9455 -0.6883
10251SOL     OW43225   3.486   5.351   3.392  0.1498  0.1567  0.6163
10251SOL    HW143226   3.493   5.291   3.471  2.5649 -0.2590  0.1284
10251SOL    HW243227   3.398   5.336   3.346 -0.7847 -0.4130  2.5339
10252SOL     OW43228   8.123   2.688   2.731  0.2184 -0.1611 -0.2448
10252SOL    HW143229   8.188   2.667   2.658 -1.3025 -2.2421 -1.0512
10252SOL    HW243230   8.071   2.606   2.754 -0.2672  0.8182  2.2502
10253SOL     OW43231   1.951   3.457   4.262  0.1057  0.4056  0.5309
10253SOL    HW143232   1.870   3.402   4.285 -1.2696  1.7537 -0.9250
10253SOL    HW243233   1.939   3.549   4.298  0.9698  0.6273  0.2464
10254SOL     OW43234   4.429   4.029   8.709 -0.1294 -0.0008  0.1557
10254SOL    HW143235   4.398   4.109   8.760  0.4720 -0.0632  0.6215
10254SOL    HW243236   4.528   4.034   8.696  0.0219 -1.0664  0.8686
10255SOL     OW43237   5.343   6.118   4.491  0.5504 -0.0378 -0.1950
10255SOL    HW143238   5.389   6.166   4.566 -0.0803 -0.9002  0.7585
10255SOL    HW243239   5.309   6.185   4.424 -2.5529  1.0907  2.3744
10256SOL     OW43240   1.969   4.208   6.116  0.5656 -0.1624  1.0726
10256SOL    HW143241   1.888   4.172   6.070  0.5111  1.0981  0.1674
10256SOL    HW243242   2.047   4.147   6.098  0.1074 -0.6974  0.8914
10257SOL     OW43243   7.679   4.028   1.675  0.2399  0.1428  0.3802
10257SOL    HW143244   7.720   3.943   1.640  2.0583  0.7440  0.9570
10257SOL    HW243245   7.703   4.038   1.772 -1.2876  0.5388  0.7168
10258SOL     OW43246   4.604   1.276   8.064 -0.4792  0.3784  0.2617
10258SOL    HW143247   4.689   1.308   8.106  0.5829  1.9176 -2.9206
10258SOL    HW243248   4.528   1.334   8.094  0.6263  2.8630 -1.5400
10259SOL     OW43249   0.517   3.061   2.700 -0.8487 -0.1296  0.4320
10259SOL    HW143250   0.484   2.993   2.766 -1.5157  0.3923  0.6354
10259SOL    HW243251   0.457   3.061   2.620 -0.7413  0.0976  0.3514
10260SOL     OW43252   3.983   2.159   7.406 -0.1924  0.0122  0.5099
10260SOL    HW143253   3.924   2.092   7.452  0.0072 -0.8974 -0.5637
10260SOL    HW243254   3.939   2.191   7.323  1.8057 -2.4218 -1.5641
10261SOL     OW43255   3.671   5.039   4.334  0.1743 -0.3713  0.2444
10261SOL    HW143256   3.649   4.979   4.257 -1.1658  0.9261 -0.4121
10261SOL    HW243257   3.592   5.045   4.396  0.1372  1.0059  0.0898
10262SOL     OW43258   3.551   1.642   7.942 -0.2434 -0.0007 -0.1223
10262SOL    HW143259   3.650   1.657   7.942 -0.1170 -0.8019 -0.0971
10262SOL    HW243260   3.507   1.706   7.879  0.1973  0.9496  0.5264
10263SOL     OW43261   3.225   3.057   0.079  0.3933  0.0873  0.2852
10263SOL    HW143262   3.201   3.150   0.105 -2.7221 -0.6491  0.2469
10263SOL    HW243263   3.202   3.041  -0.017  0.9115 -0.7254  0.2827
10264SOL     OW43264   3.739   8.993   0.409  0.0368 -0.1476  0.7307
10264SOL    HW143265   3.726   9.065   0.341 -0.0170  0.0809  0.9761
10264SOL    HW243266   3.701   9.024   0.497 -1.1151 -0.9763  0.5285
10265SOL     OW43267   5.939   4.066   8.757 -0.5127  1.0199  0.3122
10265SOL    HW143268   5.964   4.032   8.848 -0.6803  1.0239  0.3615
10265SOL    HW243269   6.019   4.103   8.712  0.1055 -1.3670 -0.6018
10266SOL     OW43270   3.644   2.533   8.362 -0.3141  0.3030  0.0565
10266SOL    HW143271   3.658   2.497   8.269 -0.1497 -0.4735  0.3793
10266SOL    HW243272   3.724   2.512   8.418  0.2563  2.1477 -0.0447
10267SOL     OW43273   7.331   7.797   5.765  0.1736  0.2772 -0.0081
10267SOL    HW143274   7.399   7.725   5.752 -0.6942 -0.4699 -0.5377
10267SOL    HW243275   7.354   7.876   5.708  2.0426  1.0947  1.8271
10268SOL     OW43276   7.029   6.482   0.040  0.0529 -0.0751  0.5894
10268SOL    HW143277   7.034   6.385   0.017  1.4222 -0.0627  0.7985
10268SOL    HW243278   6.962   6.496   0.113  1.2720 -1.1494  1.9531
10269SOL     OW43279   8.919   3.998   4.481 -0.5854 -0.3822 -0.0655
10269SOL    HW143280   8.897   3.904   4.457 -0.6092 -0.5849  0.7399
10269SOL    HW243281   9.005   4.025   4.437 -0.3795 -0.9037  0.0182
10270SOL     OW43282   5.485   0.263   1.791  0.2357 -0.3185  0.1552
10270SOL    HW143283   5.576   0.233   1.763 -0.4563 -1.0997 -1.3455
10270SOL    HW243284   5.463   0.350   1.746  0.0160 -0.4086  0.0896
10271SOL     OW43285   7.422   6.069   6.737  0.0778 -0.3959 -0.4026
10271SOL    HW143286   7.401   6.077   6.639  0.2211 -0.7137 -0.4618
10271SOL    HW243287   7.443   6.159   6.774 -0.4806 -0.2032 -0.5493
10272SOL     OW43288   0.927   4.040   5.849  0.3574 -0.2109 -0.0342
10272SOL    HW143289   0.968   4.120   5.805 -0.4010  0.5181  0.5631
10272SOL    HW243290   0.902   3.972   5.779 -0.6517  0.8425 -0.7083
10273SOL     OW43291   3.647   3.168   3.387  0.2153  0.8166  0.3441
10273SOL    HW143292   3.592   3.218   3.455 -0.1446  0.1805  0.5221
10273SOL    HW243293   3.587   3.109   3.333  0.5170  1.2504 -0.4688
10274SOL     OW43294   0.617   4.420   0.857  0.0793 -0.1440 -0.0289
10274SOL    HW143295   0.525   4.458   0.843 -1.4406 -3.7135 -0.1405
10274SOL    HW243296   0.684   4.484   0.819 -2.2837  2.7022  0.3438
10275SOL     OW43297   3.891   3.943   5.399  0.1258 -0.1346 -0.0927
10275SOL    HW143298   3.957   3.963   5.471  0.5645  0.7156 -0.7192
10275SOL    HW243299   3.885   4.021   5.336 -2.6921  0.4850  0.8708
10276SOL     OW43300   7.196   0.037   1.758  0.0273  0.0080  0.5155
10276SOL    HW143301   7.250   0.048   1.842  1.0849 -0.7031 -0.0596
10276SOL    HW243302   7.132   0.113   1.750 -0.1105  0.0707  1.9895
10277SOL     OW43303   7.253   3.539   1.322  0.0127  0.2728 -0.2171
10277SOL    HW143304   7.287   3.458   1.369 -2.2304 -0.6494 -0.1527
10277SOL    HW243305   7.287   3.540   1.228 -0.1881 -0.8991 -0.3100
10278SOL     OW43306   3.383   3.254   4.553  0.4445 -0.5327 -0.0306
10278SOL    HW143307   3.433   3.340   4.566 -1.8470  1.3724 -2.9205
10278SOL    HW243308   3.320   3.240   4.629 -0.3511  1.2981 -0.3003
10279SOL     OW43309   7.638   5.745   6.117 -0.0653 -0.0670 -0.1607
10279SOL    HW143310   7.653   5.647   6.104 -0.6892 -0.1048 -0.5874
10279SOL    HW243311   7.554   5.773   6.071  0.9759  1.0019 -1.4586
10280SOL     OW43312   0.937   2.289   0.493 -0.0355  0.6278 -0.0374
10280SOL    HW143313   0.967   2.198   0.523  1.5208  0.5543 -1.7505
10280SOL    HW243314   0.849   2.281   0.446  0.3481 -0.0813 -0.6598
10281SOL     OW43315   7.455   0.068   7.955  0.1613 -0.3388 -0.3195
10281SOL    HW143316   7.387   0.062   7.882  0.2674  2.0910 -0.6351
10281SOL    HW243317   7.544   0.093   7.916 -0.0054  1.9743  0.7490
10282SOL     OW43318   7.309   6.727   6.135 -0.6345  0.6241  0.6091
10282SOL    HW143319   7.329   6.824   6.122 -2.8254  0.8151 -1.7979
10282SOL    HW243320   7.210   6.712   6.131 -0.3064 -1.7733  0.3945
10283SOL     OW43321   6.448   4.050   2.536  0.0539 -0.0120 -0.0124
10283SOL    HW143322   6.432   4.147   2.553  0.3674  0.0838 -0.2579
10283SOL    HW243323   6.478   4.006   2.621  0.8142  0.2985 -0.1110
10284SOL     OW43324   3.561   5.211   6.876 -0.0749 -0.4256 -0.7432
10284SOL    HW143325   3.477   5.209   6.931 -1.2929  0.4483 -2.5072
10284SOL    HW243326   3.621   5.283   6.910  0.9567 -2.4547  1.8848
10285SOL     OW43327   1.535   1.235   7.903 -0.0455 -0.0530 -0.4159
10285SOL    HW143328   1.480   1.267   7.981  0.1158 -0.0157 -0.3163
10285SOL    HW243329   1.485   1.251   7.818  0.2576  0.9836 -0.4170
10286SOL     OW43330   8.579   0.257   8.759  0.5247 -0.2089  0.0486
10286SOL    HW143331   8.633   0.338   8.785  0.4346 -0.0920 -0.1248
10286SOL    HW243332   8.522   0.280   8.680  1.4531 -0.8133 -0.8122
10287SOL     OW43333   3.246   2.867   5.862 -0.3109 -0.4535 -0.3323
10287SOL    HW143334   3.166   2.808   5.851  1.2585 -2.6748 -0.1538
10287SOL    HW243335   3.217   2.958   5.891 -2.7074 -1.3898  0.2945
10288SOL     OW43336   2.539   7.957   6.595 -0.0085  0.4370 -0.2503
10288SOL    HW143337   2.586   7.994   6.516  2.4701  0.0335  0.9916
10288SOL    HW243338   2.479   8.026   6.635 -0.6146  0.8988 -1.9575
10289SOL     OW43339   7.735   7.556   1.303 -0.1450 -0.3272  0.2418
10289SOL    HW143340   7.661   7.547   1.237  0.0374 -1.7148  0.1951
10289SOL    HW243341   7.704   7.524   1.393  0.0313  0.2265  0.5015
10290SOL     OW43342   7.751   2.976   6.961  0.5153 -0.1252 -0.1016
10290SOL    HW143343   7.835   3.008   7.005 -1.2651 -0.8221  4.1005
10290SOL    HW243344   7.675   3.035   6.990 -0.9315 -1.3088 -1.4447
10291SOL     OW43345   8.726   2.019   2.974  0.6454 -0.0645  0.1018
10291SOL    HW143346   8.649   2.019   3.038 -1.2427 -1.9655 -2.0586
10291SOL    HW243347   8.714   2.093   2.908  0.0251 -1.0524 -0.9184
10292SOL     OW43348   7.402   6.499   6.738  0.4846  0.1684 -0.1006
10292SOL    HW143349   7.454   6.437   6.797 -0.1176 -0.2164  0.0284
10292SOL    HW243350   7.358   6.570   6.793  0.9498  0.5507 -0.2199
10293SOL     OW43351   8.681   5.633   0.660 -0.3324 -0.0751 -0.6902
10293SOL    HW143352   8.775   5.639   0.627  0.3414  0.7950  1.3300
10293SOL    HW243353   8.630   5.568   0.603  1.3378 -0.1587 -2.1244
10294SOL     OW43354   2.631   2.172   3.329 -0.0626  0.6591 -0.4862
10294SOL    HW143355   2.566   2.136   3.262 -0.0540 -1.3506  0.5607
10294SOL    HW243356   2.602   2.145   3.421  2.7750 -1.1362 -0.0686
10295SOL     OW43357   0.822   7.711   4.697 -0.1210 -0.1545 -0.3719
10295SOL    HW143358   0.771   7.794   4.718  0.5490 -0.1548  1.3653
10295SOL    HW243359   0.760   7.632   4.697 -0.2530 -0.0746  1.1206
10296SOL     OW43360   6.249   3.036   1.474 -0.9273 -0.0199 -0.3608
10296SOL    HW143361   6.309   2.985   1.536  0.0413  1.8243  0.2722
10296SOL    HW243362   6.154   3.007   1.487 -0.5590 -0.6463  0.9936
10297SOL     OW43363   0.142   1.739   3.322  0.0428  0.1039 -0.8504
10297SOL    HW143364   0.147   1.642   3.345  0.3214  0.2409 -0.3269
10297SOL    HW243365   0.234   1.775   3.307 -0.0178  0.4185 -0.4758
10298SOL     OW43366   8.697   7.394   4.424 -0.0108 -0.2652 -0.0784
10298SOL    HW143367   8.626   7.455   4.389  0.7073 -0.6923 -2.3708
10298SOL    HW243368   8.772   7.389   4.358  1.5036 -0.9601  1.6451
10299SOL     OW43369   4.018   2.308   4.092 -0.1700 -0.2130 -0.3469
10299SOL    HW143370   4.102   2.272   4.051  0.1049  0.3719 -0.2924
10299SOL    HW243371   4.017   2.287   4.190  0.7367  1.3250 -0.0040
10300SOL     OW43372   1.068   1.044   8.606 -0.0421 -0.1525 -0.2839
10300SOL    HW143373   1.087   1.061   8.703 -0.7815 -4.0246  0.6082
10300SOL    HW243374   0.982   1.089   8.581 -0.0630  0.5238  0.9467
10301SOL     OW43375   0.024   3.483   3.798  0.1336  0.1660  0.1319
10301SOL    HW143376  -0.065   3.528   3.784  0.3213  0.6000  0.3445
10301SOL    HW243377   0.013   3.384   3.784 -0.1269  0.3484 -1.0806
10302SOL     OW43378   0.970   5.550   4.932  0.5964  0.5116  0.7548
10302SOL    HW143379   1.064   5.528   4.905  0.5556  1.1833  0.0453
10302SOL    HW243380   0.948   5.503   5.017  0.5536 -2.1270 -0.6579
10303SOL     OW43381   8.668   5.398   0.480 -0.1334 -0.6469 -0.3925
10303SOL    HW143382   8.570   5.420   0.480  0.2739  1.2132 -1.1011
10303SOL    HW243383   8.693   5.358   0.568 -1.4864 -0.9032 -0.1158
10304SOL     OW43384   6.948   4.500   2.070  0.1355 -0.0950  0.7323
10304SOL    HW143385   6.944   4.461   1.978 -1.0100  0.9160  0.3516
10304SOL    HW243386   6.892   4.445   2.132 -0.3007  0.0851  0.5021
10305SOL     OW43387   7.809   2.840   7.744 -0.1633 -0.1089 -0.0993
10305SOL    HW143388   7.865   2.922   7.755 -0.6105  0.2317 -0.3403
10305SOL    HW243389   7.835   2.772   7.812 -1.4528  1.1503  1.6890
10306SOL     OW43390   8.627   3.300   2.410 -0.2557  0.1410  0.2170
10306SOL    HW143391   8.655   3.230   2.476 -0.7390  0.7679  1.1099
10306SOL    HW243392   8.646   3.268   2.317  0.7565 -0.6155  0.6694
10307SOL     OW43393   2.471   1.398   6.884  0.4343  0.2779 -0.3373
10307SOL    HW143394   2.518   1.310   6.891 -1.2251 -0.6601 -0.7351
10307SOL    HW243395   2.391   1.398   6.944 -0.5142  0.8816 -1.5783
10308SOL     OW43396   3.663   0.974   2.188  0.2109  0.0730  0.2572
10308SOL    HW143397   3.678   0.912   2.111 -1.9524 -0.0005 -0.1191
10308SOL    HW243398   3.572   0.959   2.226  0.5310  1.4475  1.6113
10309SOL     OW43399   3.936   3.316   5.825  0.1975  0.4875 -0.2484
10309SOL    HW143400   3.857   3.270   5.787 -0.2638 -0.7673  2.1471
10309SOL    HW243401   3.906   3.396   5.877  0.5595  0.4673 -0.0053
10310SOL     OW43402   1.649   6.524   4.412  0.2834  0.5410 -0.4138
10310SOL    HW143403   1.705   6.582   4.472 -2.0415  1.6478  0.7848
10310SOL    HW243404   1.573   6.578   4.377 -0.1405 -0.9780 -1.8443
10311SOL     OW43405   3.770   8.178   7.342  0.0433 -0.1940 -0.1592
10311SOL    HW143406   3.786   8.258   7.400  0.4160 -0.4850  0.1387
10311SOL    HW243407   3.770   8.206   7.246  1.4005 -0.0445 -0.1115
10312SOL     OW43408   3.247   8.175   6.110 -0.1443 -0.1148 -0.4178
10312SOL    HW143409   3.172   8.171   6.043 -0.6129  0.0302  0.1010
10312SOL    HW243410   3.288   8.267   6.109  0.8300 -0.5454 -1.5735
10313SOL     OW43411   4.653   4.127   7.794 -0.1873 -0.0409 -0.4292
10313SOL    HW143412   4.606   4.149   7.708 -1.4507 -0.9106  0.0293
10313SOL    HW243413   4.586   4.099   7.862  0.8656  0.1772  0.7035
10314SOL     OW43414   0.883   3.244   5.664 -0.7978  0.1211  0.1571
10314SOL    HW143415   0.828   3.321   5.631 -0.1932 -0.1840 -1.6415
10314SOL    HW243416   0.971   3.278   5.697 -0.4494  0.2079 -0.8244
10315SOL     OW43417   8.843   5.521   7.735  0.3157  0.0968 -0.1551
10315SOL    HW143418   8.895   5.435   7.737  0.6613  0.2852 -0.8412
10315SOL    HW243419   8.898   5.594   7.775  0.1073  0.0515  0.2227
10316SOL     OW43420   1.244   4.557   5.776  0.2637 -0.2583 -0.5495
10316SOL    HW143421   1.197   4.536   5.690 -1.3904 -0.1437  0.2947
10316SOL    HW243422   1.181   4.606   5.836  1.2669 -0.7330  0.9029
10317SOL     OW43423   5.990   3.690   5.849  0.3983 -0.4464  0.6661
10317SOL    HW143424   6.085   3.698   5.878  0.2211  0.6564  0.9410
10317SOL    HW243425   5.931   3.678   5.929  0.1920 -0.0373  0.5775
10318SOL     OW43426   5.766   6.765   4.078 -0.2153 -0.0126 -0.9847
10318SOL    HW143427   5.793   6.749   4.173  0.5594 -1.7818 -1.4933
10318SOL    HW243428   5.839   6.812   4.030 -0.5532  0.7595 -0.7577
10319SOL     OW43429   4.662   0.247   8.549 -0.1537  0.7713  0.0422
10319SOL    HW143430   4.575   0.202   8.530  0.8505 -0.7019 -1.2230
10319SOL    HW243431   4.645   0.337   8.589 -2.2185 -0.2950  1.6605
10320SOL     OW43432   5.705   6.371   0.782 -0.1116  0.0589 -0.3374
10320SOL    HW143433   5.755   6.457   0.793 -0.4418  0.1481  0.4898
10320SOL    HW243434   5.714   6.317   0.865 -0.3579 -0.4699 -0.6572
10321SOL     OW43435   3.879   4.926   3.474  0.3590 -0.1156 -0.3403
10321SOL    HW143436   3.911   5.019   3.456  1.0570 -0.1678  0.5824
10321SOL    HW243437   3.954   4.862   3.457 -0.7293 -0.7149 -3.0103
10322SOL     OW43438   6.887   1.829   6.171  0.2975 -0.3855 -0.5441
10322SOL    HW143439   6.984   1.825   6.149  0.4068  1.2901 -0.4775
10322SOL    HW243440   6.864   1.921   6.205 -1.4758 -0.4817 -1.3925
10323SOL     OW43441   3.652   5.309   5.082 -0.0804 -0.5527 -0.0638
10323SOL    HW143442   3.657   5.233   5.146  0.4986 -2.5874 -2.4471
10323SOL    HW243443   3.713   5.382   5.113  1.8480 -2.3778  0.6008
10324SOL     OW43444   0.071   8.427   5.590  0.2217  0.7002 -0.4246
10324SOL    HW143445   0.086   8.515   5.546  1.7849  2.2223  2.9923
10324SOL    HW243446  -0.012   8.431   5.646  0.4754  0.1085 -0.0023
10325SOL     OW43447   2.778   7.816   2.806  0.4876  0.0753 -0.4169
10325SOL    HW143448   2.874   7.820   2.780  0.2494 -0.9987 -1.4619
10325SOL    HW243449   2.771   7.795   2.904  1.3006 -0.0709 -0.3882
10326SOL     OW43450   1.258   1.238   7.027  0.4612 -0.0012 -0.6142
10326SOL    HW143451   1.341   1.202   7.070 -0.1837  0.6600  1.2547
10326SOL    HW243452   1.179   1.183   7.057 -0.2904  1.8004  0.8163
10327SOL     OW43453   6.045   4.716   1.732  0.4860  0.6040 -0.0278
10327SOL    HW143454   6.051   4.692   1.829  0.1080  0.1300 -0.1229
10327SOL    HW243455   6.120   4.673   1.682  0.0086 -0.1029 -0.1403
10328SOL     OW43456   1.500   4.806   1.152  0.4339  0.7640 -0.3625
10328SOL    HW143457   1.520   4.904   1.152 -0.7867  1.0262 -0.5248
10328SOL    HW243458   1.448   4.782   1.070 -2.1124  0.6092  1.2385
10329SOL     OW43459   8.106   6.547   0.646  0.4772 -0.4238  0.5037
10329SOL    HW143460   8.193   6.532   0.599 -0.6346 -0.3436 -1.6622
10329SOL    HW243461   8.069   6.459   0.676  0.6048 -0.6234  0.0935
10330SOL     OW43462   5.637   7.345   5.815  0.5133 -0.3446  0.0985
10330SOL    HW143463   5.610   7.359   5.720  0.7044 -0.2288  0.0609
10330SOL    HW243464   5.566   7.380   5.876  0.4018 -0.3968 -0.0014
10331SOL     OW43465   4.244   5.981   3.667  0.3250 -0.2797 -0.3258
10331SOL    HW143466   4.244   6.064   3.722 -0.5408 -0.5891  0.1492
10331SOL    HW243467   4.331   5.973   3.619  0.8286  0.3362  0.4768
10332SOL     OW43468   7.065   3.621   1.942 -0.3424  0.5889  0.5104
10332SOL    HW143469   6.986   3.677   1.915 -0.9601  0.2167  1.4935
10332SOL    HW243470   7.072   3.541   1.883  1.1893  2.2330 -1.6116
10333SOL     OW43471   7.488   3.651   0.813  0.0953  0.4881 -0.5228
10333SOL    HW143472   7.503   3.749   0.800  1.9914  0.3626  0.5688
10333SOL    HW243473   7.412   3.637   0.876  1.0887  1.2929  0.8733
10334SOL     OW43474   5.297   3.371   6.540  0.5146 -0.6119 -0.4716
10334SOL    HW143475   5.206   3.410   6.555 -0.0508 -1.4936 -1.5188
10334SOL    HW243476   5.289   3.272   6.529  1.5590 -0.6493 -0.9372
10335SOL     OW43477   2.057   6.499   4.458 -0.5404 -0.0528 -0.2096
10335SOL    HW143478   2.108   6.563   4.401 -1.9208  2.1795  0.9829
10335SOL    HW243479   2.110   6.415   4.471  1.3705  0.9023 -1.6494
10336SOL     OW43480   5.617   4.834   8.208  0.3853  0.1455  0.1473
10336SOL    HW143481   5.517   4.834   8.201  0.4550 -0.3117 -0.9809
10336SOL    HW243482   5.645   4.898   8.279 -0.7163  0.2232  0.5239
10337SOL     OW43483   3.116   0.270   6.944  0.3253  0.0222 -0.4708
10337SOL    HW143484   3.077   0.320   7.021  0.7887  1.0136 -0.8781
10337SOL    HW243485   3.216   0.277   6.946  0.3245  0.3252 -1.3459
10338SOL     OW43486   8.596   3.655   1.365  0.0293  0.3322  0.6163
10338SOL    HW143487   8.586   3.726   1.296  0.2181  0.4046  0.6626
10338SOL    HW243488   8.523   3.663   1.432  0.6307  1.1211  1.1860
10339SOL     OW43489   3.812   2.576   3.042 -0.6122  0.2447  0.7949
10339SOL    HW143490   3.768   2.501   3.092 -3.0745 -0.1562 -1.8057
10339SOL    HW243491   3.800   2.662   3.093  0.6427 -0.8106  2.9086
10340SOL     OW43492   1.580   5.684   3.037  0.5524 -0.2229 -0.1946
10340SOL    HW143493   1.591   5.680   3.136  1.0738  1.7167 -0.1510
10340SOL    HW243494   1.487   5.659   3.012  0.3415 -0.4383  0.8059
10341SOL     OW43495   2.127   5.937   4.772  0.3732 -0.4527  0.2530
10341SOL    HW143496   2.154   6.001   4.845 -2.1194  1.3939 -0.3612
10341SOL    HW243497   2.175   5.960   4.688 -0.1334  0.3187  0.1684
10342SOL     OW43498   4.884   0.232   7.678 -0.0563 -0.1888  0.0910
10342SOL    HW143499   4.863   0.273   7.589 -2.0818  0.9463  1.0682
10342SOL    HW243500   4.942   0.295   7.731  0.9773 -0.7764 -0.3155
10343SOL     OW43501   3.026   1.374   0.260 -0.6811  0.5621  0.1217
10343SOL    HW143502   2.975   1.348   0.342 -1.4224  1.8478  0.0750
10343SOL    HW243503   3.004   1.310   0.186 -1.2868  0.3957  0.4443
10344SOL     OW43504   7.205   6.102   2.062  0.3552  0.3921 -0.2655
10344SOL    HW143505   7.150   6.176   2.023 -0.3684 -0.7070 -1.3659
10344SOL    HW243506   7.172   6.082   2.154 -0.3188  0.5420 -0.4683
10345SOL     OW43507   8.297   3.678   1.929 -0.1382  0.1636  0.2733
10345SOL    HW143508   8.199   3.676   1.949 -0.1028 -1.1619  0.3485
10345SOL    HW243509   8.347   3.634   2.003  0.7567  2.9922  1.4497
10346SOL     OW43510   4.273   0.096   2.351 -0.6186  0.1428  0.0772
10346SOL    HW143511   4.332   0.023   2.385 -0.4469 -0.3368 -1.2125
10346SOL    HW243512   4.181   0.058   2.333 -0.6048  0.2949 -0.3323
10347SOL     OW43513   0.656   8.504   7.760  0.5209 -0.3166 -0.1039
10347SOL    HW143514   0.623   8.596   7.738 -1.4268 -0.9999 -0.1230
10347SOL    HW243515   0.587   8.456   7.814  1.1669 -2.0748 -0.8156
10348SOL     OW43516   7.599   6.588   8.513  0.1194 -0.5133  0.3153
10348SOL    HW143517   7.666   6.632   8.572 -0.6807 -1.9584  2.3432
10348SOL    HW243518   7.539   6.657   8.473  2.0192  0.6700 -0.5435
10349SOL     OW43519   3.275   2.276   3.380  0.3194 -0.3266  0.0367
10349SOL    HW143520   3.288   2.214   3.303 -2.2665 -0.2615 -0.5065
10349SOL    HW243521   3.286   2.370   3.348 -1.8075 -0.2445 -0.5396
10350SOL     OW43522   3.723   3.508   7.026  0.3633  0.6874 -0.1615
10350SOL    HW143523   3.702   3.554   7.112  2.0848  0.4604  0.3925
10350SOL    HW243524   3.780   3.428   7.044 -0.5634 -0.2748 -1.3621
10351SOL     OW43525   0.727   1.376   3.936  0.0201  0.4884 -0.5403
10351SOL    HW143526   0.789   1.378   4.015  0.1372  0.3716 -0.6296
10351SOL    HW243527   0.709   1.281   3.910  2.3355  0.5657 -2.5183
10352SOL     OW43528   8.689   0.967   5.141 -0.0554  0.3318 -0.1740
10352SOL    HW143529   8.598   0.971   5.101  0.1043 -0.4765 -0.6157
10352SOL    HW243530   8.707   1.053   5.191 -0.9373  0.6059 -0.3184
10353SOL     OW43531   4.703   7.608   5.742  1.1609 -0.4585  0.0336
10353SOL    HW143532   4.674   7.674   5.810  0.5826 -0.6811  0.0056
10353SOL    HW243533   4.641   7.612   5.663  1.4425 -0.6518 -0.1989
10354SOL     OW43534   1.386   7.698   2.212  0.3070  0.3178  0.4348
10354SOL    HW143535   1.311   7.740   2.163  0.5963  0.1638 -0.1442
10354SOL    HW243536   1.453   7.768   2.238 -0.2465  0.5171  1.3312
10355SOL     OW43537   0.716   6.350   5.382 -0.4852  0.6473  0.2418
10355SOL    HW143538   0.645   6.281   5.386 -0.3513  0.4868 -0.1398
10355SOL    HW243539   0.674   6.441   5.375 -0.6515  0.5722  0.2641
10356SOL     OW43540   8.984   4.504   3.525 -0.0358 -0.6439 -0.3024
10356SOL    HW143541   8.971   4.553   3.439  2.3548 -0.9638 -0.8773
10356SOL    HW243542   9.052   4.432   3.512 -0.2587 -1.2306  1.6592
10357SOL     OW43543   4.691   0.341   3.427 -0.5291 -0.6998 -0.1047
10357SOL    HW143544   4.649   0.420   3.383 -0.7020 -0.8803 -0.2644
10357SOL    HW243545   4.759   0.301   3.365  1.3187  0.7885  0.9312
10358SOL     OW43546   3.169   1.131   6.014  0.3211  0.0120 -0.4646
10358SOL    HW143547   3.211   1.154   5.927 -0.9962  0.1579 -1.0769
10358SOL    HW243548   3.073   1.108   6.000  0.2274 -0.4873  0.8799
10359SOL     OW43549   6.517   4.321   2.544 -0.2650  0.2812  0.4639
10359SOL    HW143550   6.574   4.283   2.471  0.7989  0.0218  1.4182
10359SOL    HW243551   6.575   4.357   2.616 -1.3177  0.4402  1.2381
10360SOL     OW43552   3.395   4.467   3.990  0.2683 -0.0037 -0.6272
10360SOL    HW143553   3.304   4.486   3.954 -0.3750 -0.7835  0.5603
10360SOL    HW243554   3.396   4.378   4.034  1.4720  0.2188 -0.1668
10361SOL     OW43555   2.162   4.861   8.039  0.1250  0.1330 -0.2676
10361SOL    HW143556   2.229   4.911   7.985  1.8165 -0.5467  1.1542
10361SOL    HW243557   2.197   4.848   8.132 -1.7933 -0.6168  0.3715
10362SOL     OW43558   3.404   5.959   8.201  0.3115 -0.2599 -0.1702
10362SOL    HW143559   3.428   6.039   8.147  0.7601 -1.2584 -1.4847
10362SOL    HW243560   3.409   5.877   8.143 -2.4641 -0.9700  0.5103
10363SOL     OW43561   1.576   5.806   5.316  0.5409 -0.1742 -0.0811
10363SOL    HW143562   1.478   5.808   5.334  0.9196  1.8078  2.0673
10363SOL    HW243563   1.608   5.900   5.301  2.1435 -0.7788 -0.5241
10364SOL     OW43564   1.030   3.462   1.308 -0.5719  0.1574  0.0062
10364SOL    HW143565   0.989   3.396   1.371  0.7183  0.6777  1.4203
10364SOL    HW243566   1.023   3.554   1.347 -2.8943  0.9773 -2.2122
10365SOL     OW43567   4.772   7.233   4.179  0.6130  0.6096  0.2814
10365SOL    HW143568   4.696   7.231   4.113  0.0383  2.1947  0.8747
10365SOL    HW243569   4.820   7.320   4.170  1.0400  0.4839  1.3950
10366SOL     OW43570   1.596   5.342   5.691  0.2022  0.1678 -0.0907
10366SOL    HW143571   1.635   5.367   5.779 -0.3219 -1.7459  0.7137
10366SOL    HW243572   1.578   5.424   5.637 -0.9582  1.4569  2.2289
10367SOL     OW43573   8.116   7.655   7.590 -0.0259 -0.6149  0.1435
10367SOL    HW143574   8.151   7.711   7.514 -0.1203 -1.9008 -0.8622
10367SOL    HW243575   8.130   7.704   7.676 -0.7126  1.2413 -0.7794
10368SOL     OW43576   2.177   1.733   5.048 -0.2072 -0.2751  0.4813
10368SOL    HW143577   2.152   1.751   5.144 -0.4020  1.5805  0.1105
10368SOL    HW243578   2.272   1.760   5.033 -1.0065  2.1950 -0.5022
10369SOL     OW43579   6.996   8.864   1.657 -0.1668 -0.1941 -0.1790
10369SOL    HW143580   6.909   8.884   1.702  0.3676  1.2786  0.2105
10369SOL    HW243581   7.065   8.932   1.684  0.7927 -0.6547 -1.3987
10370SOL     OW43582   0.226   6.565   0.428 -0.3039  0.3915  0.4809
10370SOL    HW143583   0.182   6.479   0.400  0.6109 -0.9950  3.0704
10370SOL    HW243584   0.215   6.577   0.527  3.9976  0.5921  1.0361
10371SOL     OW43585   6.837   0.858   2.751  0.3079 -0.4541 -0.1631
10371SOL    HW143586   6.917   0.799   2.760  2.8456  2.9148  0.0357
10371SOL    HW243587   6.813   0.866   2.654  1.1569 -0.2201 -0.3533
10372SOL     OW43588   6.565   8.290   8.759 -0.3696 -0.0433  0.2325
10372SOL    HW143589   6.545   8.196   8.729  3.5119 -1.3094  1.2927
10372SOL    HW243590   6.571   8.349   8.679  0.4040 -1.4012 -0.7404
10373SOL     OW43591   1.308   6.143   1.465 -0.0453 -0.4915 -0.0704
10373SOL    HW143592   1.295   6.047   1.437  0.5034 -0.1205 -1.6282
10373SOL    HW243593   1.251   6.162   1.545 -1.4782 -1.6485 -0.7865
10374SOL     OW43594   8.246   1.846   7.665 -0.1809  0.8403  0.4404
10374SOL    HW143595   8.202   1.934   7.680 -1.3358  0.0655  1.7499
10374SOL    HW243596   8.184   1.786   7.614  0.4220  0.6347 -0.0623
10375SOL     OW43597   4.084   1.788   7.886  0.3471 -0.4869 -0.5136
10375SOL    HW143598   4.110   1.798   7.790  0.8807 -3.8481 -0.7827
10375SOL    HW243599   4.167   1.786   7.942  0.0889  0.3303 -0.0947
10376SOL     OW43600   2.813   7.575   4.873  0.1727 -0.1141 -0.0037
10376SOL    HW143601   2.823   7.478   4.852 -0.7006  0.2329 -2.1310
10376SOL    HW243602   2.735   7.612   4.824 -2.1385  0.7369  4.0987
10377SOL     OW43603   1.736   3.938   5.213 -0.1912 -0.0850  0.0414
10377SOL    HW143604   1.766   3.950   5.119  0.3287  1.7941  0.4272
10377SOL    HW243605   1.816   3.926   5.272 -0.4177  0.3666  0.4482
10378SOL     OW43606   8.137   2.093   2.422 -0.2168 -0.0681  0.5131
10378SOL    HW143607   8.051   2.042   2.416 -0.3700 -0.0107  1.9906
10378SOL    HW243608   8.172   2.110   2.330 -0.8390 -1.6885 -0.0404
10379SOL     OW43609   1.010   0.326   8.321  0.2513  0.0448  0.5769
10379SOL    HW143610   0.971   0.245   8.365  0.6622 -0.7645 -0.5324
10379SOL    HW243611   0.943   0.364   8.257  0.3437  0.1380  0.5369
10380SOL     OW43612   2.771   7.248   1.787 -0.3157 -0.2538 -0.1320
10380SOL    HW143613   2.858   7.287   1.758 -0.6595  0.8774  0.3193
10380SOL    HW243614   2.740   7.179   1.721  0.1040  0.5333 -1.1428
10381SOL     OW43615   3.208   3.544   3.553 -0.3485 -0.0488  0.1053
10381SOL    HW143616   3.230   3.498   3.468 -1.3939 -0.4850  0.0674
10381SOL    HW243617   3.205   3.643   3.538 -0.4983 -0.1246 -0.3500
10382SOL     OW43618   5.386   0.379   7.123  0.3602 -0.6368 -0.3656
10382SOL    HW143619   5.333   0.346   7.202  0.3732 -0.8707 -0.4538
10382SOL    HW243620   5.328   0.378   7.042  0.2331 -0.0379 -0.2882
10383SOL     OW43621   1.846   0.507   0.500  0.1402 -0.0067  0.3428
10383SOL    HW143622   1.884   0.548   0.583  0.8284 -0.0216  0.0443
10383SOL    HW243623   1.747   0.497   0.509 -0.4206  3.8940 -0.4957
10384SOL     OW43624   2.823   2.827   7.740  0.7425 -0.1618 -0.0148
10384SOL    HW143625   2.808   2.735   7.705 -0.1656 -0.8361  2.1162
10384SOL    HW243626   2.761   2.890   7.693  1.4602 -0.5881 -1.5739
10385SOL     OW43627   8.013   0.839   2.355  0.2661  0.3280 -0.0734
10385SOL    HW143628   8.040   0.759   2.407 -1.7780 -0.9064 -0.8858
10385SOL    HW243629   7.997   0.916   2.417 -0.9049 -0.7755  1.0154
10386SOL     OW43630   8.468   1.978   6.358 -0.0881  0.6607  0.0677
10386SOL    HW143631   8.522   1.965   6.441  3.1324 -1.3426 -2.1927
10386SOL    HW243632   8.459   1.891   6.310 -2.7700  1.5835 -1.1926
10387SOL     OW43633   3.060   6.580   0.529  0.1546 -0.6322  0.1864
10387SOL    HW143634   2.968   6.542   0.518 -0.3326  0.3984  0.6398
10387SOL    HW243635   3.119   6.544   0.456  0.0243 -3.1679  1.2564
10388SOL     OW43636   3.507   7.597   3.583  0.1517 -0.3009  0.2155
10388SOL    HW143637   3.436   7.665   3.567 -0.3109 -0.5969  0.9711
10388SOL    HW243638   3.470   7.505   3.566  0.7104 -0.3839 -0.5952
10389SOL     OW43639   3.593   7.868   3.071 -0.2329  0.1621 -0.1680
10389SOL    HW143640   3.585   7.770   3.084 -0.5948  0.1294 -0.6237
10389SOL    HW243641   3.548   7.916   3.146  0.5565 -0.0155  0.4280
10390SOL     OW43642   4.046   4.946   5.933 -0.3700  0.4906 -0.1875
10390SOL    HW143643   4.130   4.900   5.962  0.0355  1.5129  0.2703
10390SOL    HW243644   3.974   4.878   5.919 -0.1323 -0.1851  1.7053
10391SOL     OW43645   0.871   6.697   8.244 -0.3782  0.4944 -0.2097
10391SOL    HW143646   0.810   6.650   8.309 -0.8395 -0.7403 -1.5137
10391SOL    HW243647   0.838   6.682   8.151  0.3235  2.2056 -0.7402
10392SOL     OW43648   3.515   5.222   8.234 -0.0942  0.0697 -0.3366
10392SOL    HW143649   3.426   5.267   8.235 -0.7363 -1.1755  2.2127
10392SOL    HW243650   3.513   5.142   8.294  3.2549  1.0766  1.2539
10393SOL     OW43651   3.092   0.210   8.657  0.0939  0.0505 -0.1156
10393SOL    HW143652   2.993   0.209   8.668  0.2243 -1.2077  0.9891
10393SOL    HW243653   3.122   0.125   8.613  0.6793  0.4487 -0.5019
10394SOL     OW43654   3.362   3.058   6.688  0.6786  0.4349 -0.9032
10394SOL    HW143655   3.367   3.003   6.605  0.6774  0.9079 -1.2250
10394SOL    HW243656   3.455   3.086   6.714  0.7036  0.0587 -0.5907
10395SOL     OW43657   2.334   8.906   3.166  0.0118  0.6875 -0.2962
10395SOL    HW143658   2.359   8.834   3.231  1.1018  1.6800  0.4031
10395SOL    HW243659   2.281   8.866   3.091 -2.4239 -0.2745  1.8672
10396SOL     OW43660   1.006   7.908   7.531 -0.2082 -0.1200  0.4176
10396SOL    HW143661   1.015   7.943   7.438 -1.3460  0.6945  0.6015
10396SOL    HW243662   0.988   7.983   7.594  0.3492 -0.6870  1.2761
10397SOL     OW43663   8.900   7.876   0.713  0.1656 -0.3333 -0.6745
10397SOL    HW143664   8.838   7.949   0.685 -0.9555 -1.6430 -1.6724
10397SOL    HW243665   8.884   7.852   0.808 -0.4848 -0.3136 -0.7822
10398SOL     OW43666   1.557   5.184   6.930 -0.4177  0.3554 -0.0872
10398SOL    HW143667   1.478   5.178   6.870 -0.7830  2.1577  0.1884
10398SOL    HW243668   1.547   5.262   6.992  1.2538  0.2171  0.4006
10399SOL     OW43669   5.327   2.686   2.381 -0.0760  1.0225 -0.0766
10399SOL    HW143670   5.293   2.675   2.474  1.2944 -0.5023  0.2537
10399SOL    HW243671   5.274   2.630   2.318  0.1874  0.6113  0.0660
10400SOL     OW43672   7.291   5.566   6.270  0.2535  0.0963 -0.3624
10400SOL    HW143673   7.344   5.510   6.206  2.4850  1.0547  0.5849
10400SOL    HW243674   7.349   5.591   6.348 -2.5239 -1.4591  2.3156
10401SOL     OW43675   4.974   6.390   6.435  0.1599  0.1077 -0.3639
10401SOL    HW143676   4.934   6.434   6.516 -0.2960  0.9713 -1.0479
10401SOL    HW243677   5.062   6.350   6.459  0.6609  1.5348  0.2409
10402SOL     OW43678   6.992   5.456   5.466  0.6297 -0.0903 -0.3554
10402SOL    HW143679   6.940   5.468   5.381 -0.4569 -1.6960  0.0640
10402SOL    HW243680   6.956   5.378   5.517  2.4186 -0.2380  0.7431
10403SOL     OW43681   6.772   4.917   0.576  0.2356  0.3027 -0.0271
10403SOL    HW143682   6.712   4.853   0.623  0.2692  0.8891  0.8356
10403SOL    HW243683   6.720   4.999   0.552  0.4586  0.4175 -0.1198
10404SOL     OW43684   7.622   5.395   0.623 -0.6452 -0.1624 -0.0691
10404SOL    HW143685   7.692   5.354   0.681 -0.1877 -0.3084 -0.7166
10404SOL    HW243686   7.542   5.421   0.678 -1.1661 -2.4115  0.2553
10405SOL     OW43687   8.214   2.175   2.169 -0.3811  0.3596  0.3470
10405SOL    HW143688   8.197   2.125   2.084  0.7126 -0.3752  0.5421
10405SOL    HW243689   8.296   2.231   2.159  0.3206 -0.4958  1.2285
10406SOL     OW43690   6.784   4.851   8.063  0.5338  0.2245  0.0080
10406SOL    HW143691   6.725   4.932   8.066 -0.7351 -0.7080  0.4610
10406SOL    HW243692   6.748   4.781   8.125  1.9378 -0.4778  0.0392
10407SOL     OW43693   3.672   8.799   6.147  0.3287 -0.1716  0.2936
10407SOL    HW143694   3.573   8.810   6.141  0.5105  0.2867 -3.5152
10407SOL    HW243695   3.694   8.717   6.199 -2.0722 -0.5798  0.7137
10408SOL     OW43696   3.163   2.691   7.678  0.4480  0.2293 -0.0761
10408SOL    HW143697   3.213   2.777   7.665  0.7886  0.0478  0.0225
10408SOL    HW243698   3.068   2.703   7.650  0.4619  0.6795  0.0628
10409SOL     OW43699   0.697   6.096   8.992 -0.5667 -0.2786 -0.0938
10409SOL    HW143700   0.652   6.008   9.006 -0.4232 -0.4095 -0.4530
10409SOL    HW243701   0.792   6.090   9.024 -0.7256 -0.0792  0.4253
10410SOL     OW43702   3.828   3.890   8.482  0.0654 -0.5129  0.3118
10410SOL    HW143703   3.801   3.829   8.557  0.9750  0.9551  1.8529
10410SOL    HW243704   3.925   3.911   8.489 -0.0081  0.2593 -0.8423
10411SOL     OW43705   3.967   3.425   8.552 -0.5547  0.0450  0.0302
10411SOL    HW143706   3.877   3.440   8.594 -0.7949  1.2591 -0.8953
10411SOL    HW243707   3.997   3.508   8.506  1.0156 -0.3852  0.2462
10412SOL     OW43708   4.847   0.692   8.370 -0.4223 -0.2080  0.1377
10412SOL    HW143709   4.883   0.613   8.420 -1.1014  1.3944  3.2966
10412SOL    HW243710   4.922   0.752   8.344 -0.2732  0.1319  1.3475
10413SOL     OW43711   4.049   1.374   2.228  0.2580 -0.6551 -0.1924
10413SOL    HW143712   3.969   1.390   2.286 -0.4930  0.7732 -1.5903
10413SOL    HW243713   4.019   1.340   2.139  0.9748  2.4181 -1.6614
10414SOL     OW43714   2.112   0.760   2.991 -0.3092  0.4607  0.6054
10414SOL    HW143715   2.128   0.829   2.920 -1.4278  2.5071  2.3007
10414SOL    HW243716   2.199   0.738   3.035 -0.0551  1.3804  0.5858
10415SOL     OW43717   6.290   1.195   8.768 -0.4114 -0.0638  0.0186
10415SOL    HW143718   6.346   1.184   8.685 -0.0705 -2.6847  0.5581
10415SOL    HW243719   6.207   1.247   8.745  0.0136 -0.1416 -1.8139
10416SOL     OW43720   7.765   6.726   8.062 -0.4196  0.5262 -0.0287
10416SOL    HW143721   7.740   6.687   8.151 -1.3543 -0.4720 -0.7064
10416SOL    HW243722   7.815   6.811   8.075  0.3729 -0.1636  1.4706
10417SOL     OW43723   8.415   1.279   8.379 -0.3658  0.1219  0.1760
10417SOL    HW143724   8.454   1.332   8.304 -1.2326  1.2777  0.5157
10417SOL    HW243725   8.347   1.216   8.344 -0.0137 -0.0941 -0.1259
10418SOL     OW43726   5.482   3.239   3.967 -0.4072 -0.2112  0.6593
10418SOL    HW143727   5.450   3.220   3.874 -0.3633 -0.4362  0.6898
10418SOL    HW243728   5.473   3.157   4.023 -2.2647  0.4386  1.3817
10419SOL     OW43729   4.590   5.999   5.684  0.6585  0.2825  0.5366
10419SOL    HW143730   4.634   5.911   5.703 -0.8195 -0.2794  1.4811
10419SOL    HW243731   4.501   6.002   5.729 -0.3886  1.2816 -1.5173
10420SOL     OW43732   5.379   8.032   1.774  0.0189 -0.2165 -0.7562
10420SOL    HW143733   5.393   8.131   1.781 -0.0831 -0.3079  0.8263
10420SOL    HW243734   5.282   8.014   1.755  0.3274  0.0462 -2.6325
10421SOL     OW43735   2.429   2.867   2.731 -0.0762  0.5316  0.4455
10421SOL    HW143736   2.437   2.805   2.653 -1.5839  2.4923 -1.3018
10421SOL    HW243737   2.485   2.949   2.715 -1.1015  1.3557  1.0178
10422SOL     OW43738   0.928   8.070   2.196  0.2806  0.3917  0.0797
10422SOL    HW143739   0.981   8.132   2.254  0.6687 -0.1419  0.3017
10422SOL    HW243740   0.873   8.009   2.254  1.0687 -0.4923 -0.0943
10423SOL     OW43741   8.726   1.769   4.030  0.0589 -0.2227 -0.2028
10423SOL    HW143742   8.680   1.813   4.107 -1.1544  0.7016 -1.4149
10423SOL    HW243743   8.788   1.835   3.986 -0.6860 -0.1309 -1.1534
10424SOL     OW43744   4.088   5.008   7.564  0.4467  0.2532  0.3003
10424SOL    HW143745   4.025   5.010   7.486  0.6762  0.4164  0.1187
10424SOL    HW243746   4.160   5.076   7.551  0.5784  0.1714  0.5801
10425SOL     OW43747   0.876   2.105   3.169 -0.6083  0.3575 -0.6091
10425SOL    HW143748   0.809   2.163   3.123 -2.1058  0.6399  1.8224
10425SOL    HW243749   0.829   2.043   3.232  1.3491 -0.1604  0.3810
10426SOL     OW43750   8.383   3.571   3.453  0.1072 -0.1794  0.4596
10426SOL    HW143751   8.402   3.669   3.449 -1.0783  0.1304  1.7688
10426SOL    HW243752   8.284   3.557   3.461  0.1775 -1.5282 -0.8861
10427SOL     OW43753   4.763   1.358   2.761  0.1827  0.3422  0.1260
10427SOL    HW143754   4.859   1.337   2.744 -0.0293 -0.3859 -0.1704
10427SOL    HW243755   4.724   1.405   2.681 -0.0040 -0.3692 -0.2069
10428SOL     OW43756   6.161   4.190   0.952  0.3039  0.2404  0.0838
10428SOL    HW143757   6.155   4.279   0.908 -2.9565  0.7372  1.4172
10428SOL    HW243758   6.206   4.199   1.040 -1.5138  0.8789  0.9565
10429SOL     OW43759   4.498   1.978   0.723  0.1532  0.2117  0.6148
10429SOL    HW143760   4.445   2.062   0.714  1.2610  1.0399  1.7717
10429SOL    HW243761   4.575   1.979   0.659 -0.1535 -0.1868  0.2303
10430SOL     OW43762   4.169   8.425   7.608 -0.1026 -0.3080 -0.4146
10430SOL    HW143763   4.081   8.471   7.621 -0.3937 -0.7767 -0.7264
10430SOL    HW243764   4.180   8.353   7.677  0.5678  0.5463  0.3806
10431SOL     OW43765   8.005   2.641   0.341 -0.2595 -0.3479  0.0225
10431SOL    HW143766   8.008   2.653   0.242  0.4083  0.0771  0.0914
10431SOL    HW243767   7.946   2.711   0.381 -0.1915 -0.2575 -0.0337
10432SOL     OW43768   8.347   5.644   5.538 -0.3472  0.0284 -0.0909
10432SOL    HW143769   8.415   5.632   5.466 -0.0208  0.6416  0.1141
10432SOL    HW243770   8.390   5.626   5.627 -0.0231  1.9743  0.1728
10433SOL     OW43771   2.625   8.340   4.288  0.0090  0.1664 -0.1127
10433SOL    HW143772   2.718   8.337   4.252 -0.5091 -0.6346 -1.3926
10433SOL    HW243773   2.607   8.431   4.326  1.8914 -0.1959  1.7385
10434SOL     OW43774   8.325   6.509   7.082  0.0340 -0.3060  0.1347
10434SOL    HW143775   8.384   6.589   7.072 -0.5712 -0.0191 -1.2539
10434SOL    HW243776   8.346   6.463   7.168  1.4407  0.4754  0.2285
10435SOL     OW43777   8.802   3.405   2.976 -0.3350  0.1041  0.1235
10435SOL    HW143778   8.722   3.394   3.036 -0.5101  3.0022  0.5072
10435SOL    HW243779   8.862   3.476   3.014  2.9144 -2.6236  0.3073
10436SOL     OW43780   1.824   3.189   3.094  0.2640  0.2352 -0.1198
10436SOL    HW143781   1.793   3.104   3.050  0.8121 -0.9268  1.6974
10436SOL    HW243782   1.778   3.267   3.051 -0.1779 -0.9650 -1.8776
10437SOL     OW43783   4.684   4.372   7.137  0.1282 -0.2537 -0.2496
10437SOL    HW143784   4.610   4.422   7.182  0.6234 -0.4802  0.8300
10437SOL    HW243785   4.751   4.344   7.206  0.9780 -0.4518 -1.1603
10438SOL     OW43786   3.909   8.892   8.227 -0.0144 -0.2016 -0.0301
10438SOL    HW143787   3.885   8.839   8.309 -0.5765 -0.5911 -0.4433
10438SOL    HW243788   3.973   8.839   8.171 -0.8322 -0.6011 -0.6082
10439SOL     OW43789   2.138   6.401   8.131 -0.1010 -0.5917  0.0329
10439SOL    HW143790   2.099   6.354   8.052 -1.1265  0.9599 -0.4108
10439SOL    HW243791   2.194   6.337   8.184  0.5054 -1.6725 -1.8763
10440SOL     OW43792   6.833   6.803   0.841 -0.4437  0.5235 -0.1044
10440SOL    HW143793   6.806   6.858   0.920 -0.9770  0.6049 -0.3412
10440SOL    HW243794   6.862   6.712   0.871  0.9655  1.1069  0.3428
10441SOL     OW43795   6.200   0.377   2.882  0.0027  0.2389  0.5702
10441SOL    HW143796   6.128   0.367   2.813  1.2803 -0.7112 -0.6691
10441SOL    HW243797   6.276   0.428   2.843  0.0497  1.1571  1.8401
10442SOL     OW43798   5.173   3.076   4.129  0.2058  0.0814  0.0029
10442SOL    HW143799   5.268   3.046   4.119  0.8934  1.9897  0.4753
10442SOL    HW243800   5.171   3.175   4.144 -1.6709 -0.4094  3.3147
10443SOL     OW43801   4.581   8.418   1.306 -0.3861  0.6569  0.1514
10443SOL    HW143802   4.550   8.324   1.289 -0.3023  1.1160 -2.7129
10443SOL    HW243803   4.504   8.474   1.335 -0.3854 -0.3175  2.1756
10444SOL     OW43804   3.737   0.155   4.076  0.2493 -0.1020  0.0901
10444SOL    HW143805   3.740   0.212   4.158  1.6252  1.6587 -1.1423
10444SOL    HW243806   3.698   0.207   4.001 -0.0461 -1.3762 -0.6578
10445SOL     OW43807   8.561   8.032   0.907  0.4099  0.1015 -0.1117
10445SOL    HW143808   8.615   7.960   0.863 -0.1088  0.0287 -0.6379
10445SOL    HW243809   8.480   7.993   0.949  0.4079  0.3053  0.0774
10446SOL     OW43810   5.200   6.964   0.919  0.4746 -0.5283 -0.2007
10446SOL    HW143811   5.274   6.912   0.962 -0.6674 -0.7327  1.5950
10446SOL    HW243812   5.116   6.909   0.917 -0.3317  0.6573  0.2847
10447SOL     OW43813   1.085   4.920   2.006 -0.3944  0.4897 -0.1005
10447SOL    HW143814   1.184   4.918   1.998 -0.4520  0.7935 -0.8929
10447SOL    HW243815   1.047   4.989   1.945 -1.3337 -1.8262 -2.2061
10448SOL     OW43816   8.526   5.556   4.374 -0.3324 -0.2959  0.1170
10448SOL    HW143817   8.521   5.485   4.444  0.6944  0.2220  0.7457
10448SOL    HW243818   8.450   5.546   4.310 -2.7829  0.6812  2.7228
10449SOL     OW43819   4.782   0.486   2.865  0.0118  0.1937 -0.0130
10449SOL    HW143820   4.719   0.409   2.874  0.5764 -0.1108  1.6140
10449SOL    HW243821   4.734   0.565   2.828 -0.9391 -0.4942 -0.2645
10450SOL     OW43822   7.255   8.277   0.251 -0.4239 -0.3967  0.0160
10450SOL    HW143823   7.229   8.368   0.282  0.5332  0.3662 -1.3882
10450SOL    HW243824   7.188   8.210   0.284 -0.3716  0.6136  2.2230
10451SOL     OW43825   3.641   8.688   4.144  0.0804 -0.0496  0.2680
10451SOL    HW143826   3.589   8.726   4.068 -0.7510 -0.6833  0.5124
10451SOL    HW243827   3.708   8.755   4.175 -0.2069  0.5631 -0.4183
10452SOL     OW43828   8.524   4.114   7.278  0.5173 -0.4160  0.3369
10452SOL    HW143829   8.472   4.029   7.290  1.0727 -0.9412 -0.7905
10452SOL    HW243830   8.620   4.091   7.261  0.5392  0.3978 -0.7093
10453SOL     OW43831   5.409   4.510   8.631 -0.1010  0.3266  0.8272
10453SOL    HW143832   5.417   4.449   8.552 -1.7865 -1.6439  2.1252
10453SOL    HW243833   5.355   4.590   8.606 -0.4485 -0.1847 -0.0727
10454SOL     OW43834   7.418   3.318   4.423 -0.0086  0.2356 -0.0007
10454SOL    HW143835   7.509   3.351   4.449  0.6321 -1.3380 -0.1642
10454SOL    HW243836   7.350   3.389   4.440  1.3639  1.7285 -0.6328
10455SOL     OW43837   7.137   5.563   8.942  0.0876 -0.1055  0.3032
10455SOL    HW143838   7.049   5.600   8.912  0.4026 -0.5340 -1.1788
10455SOL    HW243839   7.135   5.550   9.041 -1.5427 -0.1765  0.2835
10456SOL     OW43840   2.501   4.686   6.056 -0.0697 -0.0416  0.0569
10456SOL    HW143841   2.455   4.604   6.021 -2.0880  0.7505  0.8035
10456SOL    HW243842   2.562   4.721   5.985 -1.2022 -0.6734 -1.2726
10457SOL     OW43843   1.971   8.911   1.819  0.3867  0.3978  0.3959
10457SOL    HW143844   2.071   8.911   1.818  0.4129 -2.4200 -0.8171
10457SOL    HW243845   1.938   8.871   1.905  0.3007 -0.1016  0.1272
10458SOL     OW43846   4.389   3.941   4.865  0.4199  0.2577 -0.0566
10458SOL    HW143847   4.489   3.935   4.855  0.2398 -0.2002 -1.8365
10458SOL    HW243848   4.348   3.856   4.831 -0.6249  0.7102  0.0773
10459SOL     OW43849   2.191   5.619   0.881 -0.6278  0.0241 -0.5024
10459SOL    HW143850   2.119   5.554   0.858  1.9577 -3.2662  0.3039
10459SOL    HW243851   2.259   5.621   0.808  0.8177 -0.4358  0.7936
10460SOL     OW43852   6.021   0.566   3.000 -0.3967 -0.4090 -0.7451
10460SOL    HW143853   6.062   0.657   3.010 -0.5204 -0.4477  0.1780
10460SOL    HW243854   6.093   0.501   2.977  0.1792 -0.5719  1.4257
10461SOL     OW43855   7.046   5.668   3.910 -0.6790  0.0661 -0.3456
10461SOL    HW143856   7.019   5.602   3.980 -0.4991  0.2397 -0.1092
10461SOL    HW243857   7.086   5.749   3.954  2.5018 -1.1951 -0.7642
10462SOL     OW43858   6.622   7.543   2.195 -0.4834  0.1936 -0.1779
10462SOL    HW143859   6.577   7.624   2.234  0.8161  0.7053  0.2902
10462SOL    HW243860   6.598   7.462   2.249  1.0210  0.8411  1.5220
10463SOL     OW43861   6.560   3.931   3.000  0.5157  0.4559 -0.1200
10463SOL    HW143862   6.581   4.028   3.014  0.0116  0.3311  1.5175
10463SOL    HW243863   6.620   3.875   3.056  0.9666 -0.2011 -1.2432
10464SOL     OW43864   6.782   2.916   0.306 -0.3957  0.5331  0.1753
10464SOL    HW143865   6.751   2.970   0.384 -1.0419 -0.7910  0.8616
10464SOL    HW243866   6.787   2.820   0.333  0.8136  0.2584 -0.9949
10465SOL     OW43867   1.291   8.415   2.001 -0.2616  0.0717  0.0857
10465SOL    HW143868   1.255   8.493   2.052 -2.1876 -1.7547  1.6015
10465SOL    HW243869   1.348   8.358   2.061 -1.2766 -1.2514 -0.1739
10466SOL     OW43870   0.630   6.918   0.608  0.7711 -0.1115  0.7692
10466SOL    HW143871   0.617   7.014   0.582 -1.7273 -1.2615 -2.6421
10466SOL    HW243872   0.572   6.860   0.550  2.8270 -3.7570  2.2142
10467SOL     OW43873   6.860   8.243   0.601 -0.4328  0.0456 -0.4554
10467SOL    HW143874   6.952   8.216   0.629 -1.0260  0.9477  2.5256
10467SOL    HW243875   6.866   8.303   0.521  1.7052  1.6235  0.8375
10468SOL     OW43876   6.255   8.010   3.632 -0.2565  0.1316 -0.1810
10468SOL    HW143877   6.271   8.046   3.724 -1.1915 -0.7700  0.3476
10468SOL    HW243878   6.251   8.085   3.567 -0.3160  0.8432  0.6320
10469SOL     OW43879   4.176   2.515   5.015  0.1810 -0.2140 -0.7239
10469SOL    HW143880   4.145   2.439   5.073  1.0796 -0.3107 -0.3645
10469SOL    HW243881   4.102   2.542   4.954 -0.7595 -0.1816  0.4021
10470SOL     OW43882   8.525   8.497   1.642 -0.1481 -0.3710  0.6121
10470SOL    HW143883   8.436   8.541   1.645 -0.1450 -0.4019  1.3584
10470SOL    HW243884   8.536   8.439   1.723  0.5554 -0.3481  0.5339
10471SOL     OW43885   8.726   7.643   3.964 -0.0222 -0.3152 -0.3061
10471SOL    HW143886   8.738   7.558   4.016  1.9604 -0.0352 -0.2371
10471SOL    HW243887   8.673   7.708   4.018 -0.6557 -1.1405  0.0741
10472SOL     OW43888   3.589   4.232   2.007 -0.0705 -0.5178 -0.5560
10472SOL    HW143889   3.679   4.262   1.975  0.5786 -0.4055  1.3313
10472SOL    HW243890   3.596   4.141   2.046 -0.8961 -0.7378 -0.9114
10473SOL     OW43891   3.454   1.530   2.295 -0.2081  1.1963  0.4143
10473SOL    HW143892   3.461   1.433   2.314  0.6124  1.7025  2.8121
10473SOL    HW243893   3.362   1.562   2.316 -0.7702  0.7669 -1.3122
10474SOL     OW43894   4.158   2.481   6.044  0.1259 -0.3027 -0.2467
10474SOL    HW143895   4.132   2.501   5.950 -0.9342 -0.1921  0.0632
10474SOL    HW243896   4.110   2.399   6.076  0.5599 -0.4050  0.1617
10475SOL     OW43897   2.066   2.923   2.200 -0.0704 -0.1405  0.8502
10475SOL    HW143898   2.019   2.835   2.210  1.0054 -0.9305 -0.6300
10475SOL    HW243899   2.065   2.972   2.287  0.7646 -2.3859  2.1868
10476SOL     OW43900   7.830   1.274   4.014  0.4671  0.2024  0.4298
10476SOL    HW143901   7.812   1.178   3.993  1.0558  0.1468  0.1726
10476SOL    HW243902   7.870   1.281   4.105  3.2674 -0.0915 -0.7241
10477SOL     OW43903   6.490   7.367   4.102 -0.7547 -0.1499 -0.2046
10477SOL    HW143904   6.508   7.304   4.027  3.9664 -0.2037  0.8154
10477SOL    HW243905   6.472   7.315   4.186 -1.5573 -0.0856 -0.3286
10478SOL     OW43906   2.383   0.304   4.904  0.3659  0.2834  0.1731
10478SOL    HW143907   2.360   0.254   4.821  0.8119 -0.9281  0.7659
10478SOL    HW243908   2.304   0.304   4.965  0.4153  0.1671  0.2374
10479SOL     OW43909   2.323   7.120   1.331  0.5465 -0.1633  0.1991
10479SOL    HW143910   2.253   7.177   1.373  0.9540  1.0246 -0.7188
10479SOL    HW243911   2.327   7.138   1.233  1.6461 -0.7466  0.1284
10480SOL     OW43912   8.356   4.924   6.067  0.1154 -0.0177 -0.2368
10480SOL    HW143913   8.328   4.829   6.055  1.8097 -0.7018  0.9939
10480SOL    HW243914   8.306   4.964   6.144  0.0279 -0.1803 -0.2082
10481SOL     OW43915   2.990   6.099   6.921 -0.1794 -0.5520 -0.6780
10481SOL    HW143916   3.018   6.180   6.973  0.0001 -0.4441 -0.9459
10481SOL    HW243917   2.922   6.049   6.974 -1.0194  0.2984 -0.9296
10482SOL     OW43918   0.761   0.981   7.798 -0.3051  0.5729 -0.6857
10482SOL    HW143919   0.684   0.992   7.861  0.9911 -0.2216  1.1111
10482SOL    HW243920   0.739   0.910   7.731 -1.7005  1.4074 -1.1282
10483SOL     OW43921   0.054   7.512   0.450  0.2749  0.1831 -0.6327
10483SOL    HW143922  -0.014   7.533   0.380  0.9195 -0.9094 -1.6149
10483SOL    HW243923   0.025   7.548   0.538 -1.6769 -0.4544 -0.9977
10484SOL     OW43924   8.025   4.065   8.188 -0.6746  0.2990 -0.1548
10484SOL    HW143925   8.041   4.155   8.148 -0.5641  0.5612  0.4715
10484SOL    HW243926   7.997   4.075   8.284  0.4356 -0.3825  0.2503
10485SOL     OW43927   3.046   1.587   4.104  0.4092  0.1707 -0.5356
10485SOL    HW143928   3.038   1.542   4.193  1.5345  0.9460 -0.0355
10485SOL    HW243929   3.045   1.686   4.117 -0.9767  0.3115 -1.5349
10486SOL     OW43930   8.822   8.863   7.608  0.0458 -0.5310 -0.0733
10486SOL    HW143931   8.815   8.874   7.707 -0.1777  1.9979 -0.3360
10486SOL    HW243932   8.912   8.828   7.584  0.2728 -0.6737  0.9696
10487SOL     OW43933   1.359   0.212   4.446 -0.2778 -0.0970  0.0935
10487SOL    HW143934   1.386   0.126   4.489 -2.8911 -0.2349  1.5553
10487SOL    HW243935   1.335   0.279   4.516  1.7686  1.8804 -1.0305
10488SOL     OW43936   3.990   4.494   7.289 -1.2183 -0.1865 -0.0646
10488SOL    HW143937   4.055   4.428   7.327 -2.0032 -0.6489  0.4934
10488SOL    HW243938   3.956   4.553   7.363 -2.3633 -0.7544 -0.1378
10489SOL     OW43939   2.094   2.859   3.190 -0.3553 -0.1786 -0.2225
10489SOL    HW143940   2.064   2.928   3.255  2.5230 -0.2818  1.2991
10489SOL    HW243941   2.122   2.903   3.104 -2.8563  0.0802 -0.9318
10490SOL     OW43942   6.443   6.769   5.782  0.1424 -0.3696 -0.2249
10490SOL    HW143943   6.431   6.858   5.737  0.9262  0.4793  1.1981
10490SOL    HW243944   6.518   6.775   5.848 -1.7672 -1.2231  2.1016
10491SOL     OW43945   6.130   3.331   8.475 -0.6624  0.4533 -0.4239
10491SOL    HW143946   6.190   3.402   8.439  0.3704 -0.1089  0.1551
10491SOL    HW243947   6.114   3.262   8.405  0.5456 -0.1358 -0.1326
10492SOL     OW43948   8.305   7.830   5.762  0.2783 -0.0195  0.2687
10492SOL    HW143949   8.229   7.765   5.766 -2.2185  2.6514 -2.1537
10492SOL    HW243950   8.312   7.869   5.670  1.3218  3.5806  1.7862
10493SOL     OW43951   3.635   5.259   0.705 -0.1042  0.4394 -0.3834
10493SOL    HW143952   3.579   5.217   0.776  3.4731 -1.9336  1.2008
10493SOL    HW243953   3.585   5.334   0.663 -4.9928 -2.4924 -0.1484
10494SOL     OW43954   6.685   3.863   0.019  0.4015  0.7555  0.3437
10494SOL    HW143955   6.764   3.924   0.014  0.7242  0.2199 -1.1033
10494SOL    HW243956   6.703   3.780  -0.033  0.0028 -0.6555  2.3674
10495SOL     OW43957   5.967   6.157   8.844 -0.0631 -0.2145  0.1153
10495SOL    HW143958   5.949   6.137   8.747  0.7397  1.7045 -0.4459
10495SOL    HW243959   6.061   6.190   8.854 -1.1767  2.8468  1.0207
10496SOL     OW43960   5.228   0.200   5.848 -0.0479  0.4294  0.1629
10496SOL    HW143961   5.306   0.219   5.908  1.9779  1.9718 -2.8200
10496SOL    HW243962   5.215   0.277   5.785 -3.1140 -0.4492 -0.3592
10497SOL     OW43963   5.002   0.342   1.890 -0.3473 -0.4279 -0.0138
10497SOL    HW143964   5.004   0.410   1.816  1.1537 -0.3317  0.1048
10497SOL    HW243965   4.977   0.253   1.852 -1.1143 -0.0768 -0.3671
10498SOL     OW43966   5.355   5.534   2.254 -0.6893  0.3543  0.1866
10498SOL    HW143967   5.320   5.468   2.320 -1.0760  2.6437  2.3168
10498SOL    HW243968   5.284   5.603   2.235  0.3028  1.1641 -0.6612
10499SOL     OW43969   1.859   2.201   0.323 -0.3941  0.1918  0.1885
10499SOL    HW143970   1.814   2.114   0.304  0.7685 -0.6405  1.1478
10499SOL    HW243971   1.877   2.250   0.238 -0.7623 -0.6560 -0.3712
10500SOL     OW43972   2.245   8.803   1.089  0.2185 -0.2862  0.4026
10500SOL    HW143973   2.149   8.776   1.077 -0.7723  3.7527 -1.9232
10500SOL    HW243974   2.291   8.799   1.001  1.8039 -0.7194  1.2406
10501SOL     OW43975   7.310   1.478   2.809 -0.0336 -0.2490  0.3231
10501SOL    HW143976   7.335   1.393   2.856 -1.5036 -1.3113 -0.7722
10501SOL    HW243977   7.251   1.533   2.867 -1.1305 -1.1480  0.0604
10502SOL     OW43978   6.581   7.051   6.794 -0.0327 -0.0149  0.1472
10502SOL    HW143979   6.635   6.978   6.836 -1.8643 -1.2258  0.4682
10502SOL    HW243980   6.636   7.098   6.726  1.9509 -0.1376  1.6121
10503SOL     OW43981   7.338   3.543   7.769 -0.6920  0.5690  0.1995
10503SOL    HW143982   7.259   3.487   7.792 -0.1013 -0.2645  0.2249
10503SOL    HW243983   7.386   3.569   7.853 -0.6737  0.6818  0.1542
10504SOL     OW43984   6.129   5.662   3.629 -0.8854 -0.0824 -0.3494
10504SOL    HW143985   6.221   5.625   3.612 -1.1961 -0.3734 -1.3793
10504SOL    HW243986   6.122   5.689   3.726 -0.5314 -2.3869  0.3499
10505SOL     OW43987   7.143   3.432   8.140  0.1374  0.2584 -0.1838
10505SOL    HW143988   7.223   3.411   8.084 -0.7760 -1.2246 -0.9379
10505SOL    HW243989   7.167   3.506   8.204  2.4582 -0.9275  0.3956
10506SOL     OW43990   1.625   4.182   7.474 -0.2351  0.2570  0.5967
10506SOL    HW143991   1.566   4.216   7.547 -0.5801 -0.0562  0.4628
10506SOL    HW243992   1.675   4.258   7.433  0.0649  0.4166  1.2552
10507SOL     OW43993   1.182   1.285   7.358  0.3627  0.5034 -0.0823
10507SOL    HW143994   1.280   1.304   7.358  0.6845 -0.9273  3.6652
10507SOL    HW243995   1.166   1.186   7.357 -1.0648  0.7173 -0.2449
10508SOL     OW43996   6.219   5.839   7.927 -0.0669 -0.0142  0.3644
10508SOL    HW143997   6.294   5.817   7.990  0.9522  0.3106 -0.7035
10508SOL    HW243998   6.180   5.755   7.890  1.1740 -0.1593 -0.6637
10509SOL     OW43999   2.979   4.745   6.891 -0.0544  0.3624 -0.1078
10509SOL    HW144000   3.040   4.799   6.948  0.2027 -0.0499  0.0073
10509SOL    HW244001   3.031   4.703   6.817  0.0985 -1.2994  0.9244
10510SOL     OW44002   5.046   6.533   8.084 -0.1530  0.0982  0.1221
10510SOL    HW144003   5.001   6.450   8.117  1.3097 -0.7654 -0.0470
10510SOL    HW244004   5.047   6.533   7.984 -0.9049  0.7375  0.1074
10511SOL     OW44005   3.341   4.211   5.221  0.0486  0.1463 -0.5883
10511SOL    HW144006   3.349   4.310   5.232 -0.6561  0.1813 -0.3518
10511SOL    HW244007   3.244   4.187   5.213  0.1606 -0.6282  0.3607
10512SOL     OW44008   3.003   3.797   2.059 -0.6140 -0.6369  0.9288
10512SOL    HW144009   2.925   3.849   2.023 -0.6885 -0.0153  1.9951
10512SOL    HW244010   2.972   3.740   2.135 -0.3591 -1.6232  0.2951
10513SOL     OW44011   2.470   0.396   6.876 -0.0900  0.5188  0.1870
10513SOL    HW144012   2.525   0.462   6.824 -2.0470  0.7039 -1.6996
10513SOL    HW244013   2.512   0.306   6.870 -0.8078  0.3338 -2.6145
10514SOL     OW44014   8.822   1.974   0.519  0.1070 -0.8068  0.0674
10514SOL    HW144015   8.821   1.907   0.593  0.7865 -0.3187  0.5250
10514SOL    HW244016   8.733   2.019   0.513  0.8169  1.0341  2.3339
10515SOL     OW44017   4.906   8.113   5.508 -0.3319  0.1524 -1.1330
10515SOL    HW144018   4.956   8.188   5.463 -0.3171  0.7607 -0.1309
10515SOL    HW244019   4.847   8.068   5.442 -0.2976  1.0216 -1.7685
10516SOL     OW44020   4.229   1.154   0.756 -0.0676  0.1027  0.1036
10516SOL    HW144021   4.314   1.101   0.761 -0.8873 -1.1413  1.1034
10516SOL    HW244022   4.235   1.232   0.818 -0.0805 -0.6249  1.0328
10517SOL     OW44023   3.721   1.718   2.909  0.3331 -0.2600 -0.3160
10517SOL    HW144024   3.696   1.742   2.815  0.7731  1.5507  0.0111
10517SOL    HW244025   3.638   1.708   2.964  0.0821 -1.1559 -0.8412
10518SOL     OW44026   8.513   8.665   8.753  0.2475  0.0126  0.0160
10518SOL    HW144027   8.484   8.574   8.784  1.0775  0.0982  1.0726
10518SOL    HW244028   8.442   8.731   8.775 -0.6223 -0.4659 -1.2936
10519SOL     OW44029   0.978   0.269   8.930 -0.0358 -0.1925 -0.1426
10519SOL    HW144030   0.922   0.278   9.012 -0.3389 -1.7283 -0.1714
10519SOL    HW244031   1.060   0.326   8.940 -1.4438  1.9078 -0.0116
10520SOL     OW44032   7.623   0.781   6.146  0.0452  0.4518 -0.1026
10520SOL    HW144033   7.661   0.822   6.063  0.2773  0.6989  0.1252
10520SOL    HW244034   7.639   0.841   6.223 -0.1114  0.1888  0.1370
10521SOL     OW44035   8.876   3.058   1.242  0.5473 -0.4723 -0.1018
10521SOL    HW144036   8.856   2.972   1.290 -0.5628 -0.4561 -0.5267
10521SOL    HW244037   8.801   3.122   1.255  0.5142 -0.2403 -1.3464
10522SOL     OW44038   2.586   4.112   3.663 -0.3180  0.2823  0.1177
10522SOL    HW144039   2.520   4.065   3.605 -1.5707 -0.4633  2.1143
10522SOL    HW244040   2.676   4.069   3.653 -0.9421 -1.0689  0.1423
10523SOL     OW44041   4.916   8.106   4.352  0.0115 -0.5437 -0.1809
10523SOL    HW144042   4.939   8.030   4.292  0.3297  0.5028 -1.4155
10523SOL    HW244043   4.931   8.192   4.304 -0.6498  0.2990  1.0799
10524SOL     OW44044   5.268   5.356   2.470  0.4027  0.2524 -0.3230
10524SOL    HW144045   5.337   5.284   2.469  0.8152  0.6332  0.5501
10524SOL    HW244046   5.180   5.318   2.441  0.8825 -0.3208 -1.0513
10525SOL     OW44047   4.159   2.625   6.775 -0.2405 -0.3420  0.2539
10525SOL    HW144048   4.162   2.608   6.873 -1.1485  0.2771  0.3923
10525SOL    HW244049   4.106   2.554   6.729 -2.0177  0.7935  0.5363
10526SOL     OW44050   2.056   4.282   5.357 -0.1526 -0.0684 -0.4497
10526SOL    HW144051   2.037   4.335   5.274 -2.0941 -1.5649 -0.9831
10526SOL    HW244052   2.051   4.343   5.436 -0.1649  1.0031 -1.2586
10527SOL     OW44053   5.736   2.878   7.845  0.6919 -0.4605  0.2006
10527SOL    HW144054   5.717   2.828   7.760 -0.6969 -1.4460  1.0615
10527SOL    HW244055   5.774   2.815   7.913  0.3749 -0.0162  0.7982
10528SOL     OW44056   1.075   4.687   2.147 -0.2173 -0.1205  0.2862
10528SOL    HW144057   1.171   4.689   2.177 -0.3182  0.2449  0.5865
10528SOL    HW244058   1.067   4.735   2.060 -0.6757  2.8295  1.8702
10529SOL     OW44059   4.411   7.749   8.964 -0.3629 -0.0459 -0.5550
10529SOL    HW144060   4.396   7.830   8.909  1.4192  0.6369 -0.0915
10529SOL    HW244061   4.483   7.693   8.922  0.7929  0.3292  0.8913
10530SOL     OW44062   0.229   7.072   8.844 -0.3054  0.3007  0.2431
10530SOL    HW144063   0.294   7.013   8.891  0.3108  1.0954  0.3919
10530SOL    HW244064   0.223   7.046   8.748  0.2136  0.2112  0.2380
10531SOL     OW44065   6.028   6.755   7.127  0.4238  0.5861  0.1348
10531SOL    HW144066   5.970   6.808   7.189 -1.7029 -2.2056  0.6371
10531SOL    HW244067   5.988   6.754   7.036 -0.2633 -1.1755  0.4338
10532SOL     OW44068   2.000   2.003   8.984 -0.0477  0.4157  0.0894
10532SOL    HW144069   1.997   1.932   9.054  1.3847 -1.6893 -1.9502
10532SOL    HW244070   2.071   2.070   9.007  0.2433 -0.1220  0.7582
10533SOL     OW44071   0.585   0.857   6.556  0.2150 -0.5451  0.1955
10533SOL    HW144072   0.684   0.853   6.542  0.1419 -1.3485 -0.0922
10533SOL    HW244073   0.561   0.941   6.605  0.8627  0.5558 -1.3333
10534SOL     OW44074   2.207   2.431   0.369 -0.2130 -0.0084 -0.5242
10534SOL    HW144075   2.184   2.504   0.305  1.7602  0.8663 -0.2532
10534SOL    HW244076   2.261   2.361   0.322 -2.7372 -1.7197 -0.9819
10535SOL     OW44077   7.221   6.192   8.752  0.1462  0.5547 -0.2588
10535SOL    HW144078   7.320   6.208   8.750  0.3549 -0.7088 -1.5494
10535SOL    HW244079   7.202   6.112   8.809 -0.1096  0.7278 -0.1070
10536SOL     OW44080   5.193   3.872   8.526  0.0143 -0.1708 -0.4481
10536SOL    HW144081   5.121   3.888   8.459 -1.9627 -1.7162  1.2400
10536SOL    HW244082   5.264   3.942   8.516 -1.2634  0.8687 -2.7141
10537SOL     OW44083   5.702   8.920   7.525  0.3832 -0.9412 -0.4199
10537SOL    HW144084   5.615   8.953   7.489  1.0409 -0.3351 -1.4798
10537SOL    HW244085   5.756   8.881   7.450  1.3033 -0.6823  0.1002
10538SOL     OW44086   5.583   8.980   4.173 -1.0821 -0.4555 -0.1340
10538SOL    HW144087   5.587   8.979   4.273 -1.0813 -0.1299 -0.1321
10538SOL    HW244088   5.611   9.070   4.139 -1.3465 -0.4798 -0.4168
10539SOL     OW44089   6.726   2.133   2.416 -0.3443 -0.0556  0.3170
10539SOL    HW144090   6.644   2.177   2.452 -1.1769 -1.0803 -0.2985
10539SOL    HW244091   6.701   2.050   2.368  1.3117 -1.7911  2.3648
10540SOL     OW44092   2.259   4.643   8.506 -0.4942  0.2678 -0.6010
10540SOL    HW144093   2.177   4.591   8.483 -0.5994  0.1989 -0.0665
10540SOL    HW244094   2.328   4.580   8.544 -0.6582  0.5343  0.1409
10541SOL     OW44095   2.097   3.279   6.058  0.0768  0.6743 -0.0268
10541SOL    HW144096   2.058   3.235   6.138  0.3936  1.5203  0.6027
10541SOL    HW244097   2.190   3.312   6.080  0.9450 -0.8412 -1.3257
10542SOL     OW44098   3.133   7.138   1.385 -0.3902  0.4455  0.2767
10542SOL    HW144099   3.140   7.101   1.292  0.4522  1.2918 -0.0014
10542SOL    HW244100   3.110   7.235   1.381  0.5598  0.6977  0.9342
10543SOL     OW44101   0.281   3.568   8.269 -0.6166 -0.0144  0.2464
10543SOL    HW144102   0.296   3.609   8.179  4.1918  1.8450  1.7122
10543SOL    HW244103   0.277   3.469   8.259  2.8936 -0.0502 -1.8000
10544SOL     OW44104   1.356   4.924   0.711 -0.3013  0.0740 -0.6916
10544SOL    HW144105   1.380   4.859   0.782  1.7470  2.5884  1.0385
10544SOL    HW244106   1.421   4.916   0.635  0.1015  0.2807 -0.3674
10545SOL     OW44107   7.605   4.312   8.473  0.1785 -0.6339 -0.5117
10545SOL    HW144108   7.674   4.369   8.429  0.2959  0.0334  0.5090
10545SOL    HW244109   7.640   4.219   8.485  0.6790 -0.4453 -0.5237
10546SOL     OW44110   5.736   5.342   1.748 -0.4253  0.2948 -0.6636
10546SOL    HW144111   5.665   5.368   1.682  0.3562  1.5625 -1.0055
10546SOL    HW244112   5.702   5.358   1.841 -0.8293  0.2579 -0.8021
10547SOL     OW44113   6.563   8.568   2.259 -0.1237 -0.2647  0.3707
10547SOL    HW144114   6.647   8.544   2.309 -0.0600  1.5474  1.1923
10547SOL    HW244115   6.489   8.586   2.324 -0.7603 -0.4718 -0.2900
10548SOL     OW44116   3.456   3.612   5.035 -0.0459 -0.1106 -0.0244
10548SOL    HW144117   3.494   3.528   5.072 -1.7591 -1.2213 -0.7498
10548SOL    HW244118   3.413   3.594   4.947 -0.3939  1.5446 -0.2188
10549SOL     OW44119   3.699   5.186   3.897  0.6902 -0.0674 -0.6824
10549SOL    HW144120   3.602   5.204   3.882  0.9729  2.2243 -0.0196
10549SOL    HW244121   3.731   5.118   3.832 -0.9546  0.4479 -2.0593
10550SOL     OW44122   5.311   8.986   5.692 -0.7234  0.0789  0.1287
10550SOL    HW144123   5.276   9.061   5.748  0.3463  0.4236  0.3492
10550SOL    HW244124   5.403   9.008   5.660 -0.2488 -1.2829  0.4990
10551SOL     OW44125   3.136   2.920   4.773  0.0546  0.0011  0.0501
10551SOL    HW144126   3.100   2.973   4.697  1.5470  0.3665 -0.4227
10551SOL    HW244127   3.202   2.853   4.740 -0.1780 -0.6674  0.8939
10552SOL     OW44128   0.285   1.716   3.917 -0.4068 -0.5337  0.0879
10552SOL    HW144129   0.372   1.690   3.875  0.1638  1.3023  0.0960
10552SOL    HW244130   0.281   1.677   4.009  0.5925 -0.3047  0.2438
10553SOL     OW44131   4.695   3.047   0.817  0.1138  0.1149  0.3801
10553SOL    HW144132   4.604   3.047   0.774 -0.3281  1.2198  1.2757
10553SOL    HW244133   4.744   3.130   0.789  1.1647 -0.8575 -0.7212
10554SOL     OW44134   5.178   2.816   3.041 -0.0160  0.5473  0.1686
10554SOL    HW144135   5.165   2.829   3.139 -2.2439  0.5652 -0.0971
10554SOL    HW244136   5.124   2.883   2.991 -1.7586 -1.7046 -1.0785
10555SOL     OW44137   3.707   7.220   1.713  0.5889  0.2304  0.0325
10555SOL    HW144138   3.664   7.268   1.789 -0.7704 -1.4421  0.3558
10555SOL    HW244139   3.779   7.278   1.673  0.5585  1.5743  1.8490
10556SOL     OW44140   2.497   6.365   7.431  0.3785 -1.1446  0.2128
10556SOL    HW144141   2.424   6.417   7.475  0.1970  0.5743 -2.0077
10556SOL    HW244142   2.464   6.329   7.344  2.0276 -0.7404 -0.6019
10557SOL     OW44143   0.736   7.101   6.997  0.0749  0.6089 -0.0724
10557SOL    HW144144   0.644   7.120   6.964  0.4028  4.9199  1.1947
10557SOL    HW244145   0.734   7.091   7.097  0.8782  0.1269 -0.1012
10558SOL     OW44146   4.803   4.376   2.186  0.0335 -0.2400 -0.1628
10558SOL    HW144147   4.740   4.311   2.142  0.8788 -1.8799  1.0450
10558SOL    HW244148   4.861   4.417   2.116  1.0182 -2.4563 -0.6834
10559SOL     OW44149   5.652   3.753   7.083 -0.1496  0.3499  0.2315
10559SOL    HW144150   5.736   3.700   7.076  0.0595  0.7073  0.0493
10559SOL    HW244151   5.627   3.763   7.180 -0.8759 -1.1540  0.2093
10560SOL     OW44152   0.200   5.354   8.696  0.6753  0.5432 -0.6100
10560SOL    HW144153   0.269   5.411   8.653  1.4308 -1.0927 -1.6282
10560SOL    HW244154   0.116   5.356   8.641 -0.1923  2.6817  0.7300
10561SOL     OW44155   7.392   5.139   0.911 -0.0802  0.6911  0.2074
10561SOL    HW144156   7.303   5.156   0.868  0.8029  2.0008 -1.1617
10561SOL    HW244157   7.382   5.070   0.982 -1.9010 -0.3449 -1.0083
10562SOL     OW44158   2.806   8.893   7.506 -1.2107  0.0922  0.0366
10562SOL    HW144159   2.899   8.909   7.475 -1.0159 -2.3790 -0.8062
10562SOL    HW244160   2.808   8.830   7.584 -2.1890 -0.2151 -0.1812
10563SOL     OW44161   2.942   3.394   5.885  0.1382 -0.1586  0.3369
10563SOL    HW144162   2.889   3.353   5.960  1.6234 -2.9257 -0.0613
10563SOL    HW244163   2.898   3.373   5.798  0.3968 -0.0840  0.1878
10564SOL     OW44164   2.766   1.633   8.776 -0.0761  0.1268 -0.4146
10564SOL    HW144165   2.765   1.721   8.728  0.6100 -0.0124 -0.6882
10564SOL    HW244166   2.690   1.630   8.841 -0.1610  0.8837 -0.4706
10565SOL     OW44167   3.176   7.252   6.971  0.6285  0.3059  0.2948
10565SOL    HW144168   3.115   7.322   7.006  1.0090  1.3077 -1.0085
10565SOL    HW244169   3.142   7.162   6.997 -0.4353  0.9272  1.0766
10566SOL     OW44170   8.650   2.581   0.329 -0.0549 -0.3193 -0.5738
10566SOL    HW144171   8.650   2.515   0.404 -2.3439 -0.1373 -0.3787
10566SOL    HW244172   8.557   2.596   0.298  0.4844  2.2741 -1.0895
10567SOL     OW44173   1.840   6.559   8.365  0.0612  0.2852 -0.2024
10567SOL    HW144174   1.865   6.464   8.386 -0.5959  0.1264 -0.1081
10567SOL    HW244175   1.742   6.563   8.343  0.5239  0.5875 -2.3376
10568SOL     OW44176   6.833   3.342   2.046  0.0437 -0.3654  0.3908
10568SOL    HW144177   6.786   3.402   1.981 -1.7564 -0.7967  1.2873
10568SOL    HW244178   6.830   3.247   2.012  0.5384 -0.3557  0.3094
10569SOL     OW44179   4.757   2.340   5.272 -0.3863  0.2682  0.4226
10569SOL    HW144180   4.697   2.283   5.215  1.1590  0.3919 -1.3867
10569SOL    HW244181   4.779   2.291   5.357 -0.9357 -0.8747 -0.0770
10570SOL     OW44182   0.770   3.937   7.394 -0.3031 -0.6239  0.0524
10570SOL    HW144183   0.725   3.951   7.482 -0.9045  2.0768 -0.6409
10570SOL    HW244184   0.702   3.935   7.321  0.4699  0.6320 -0.7139
10571SOL     OW44185   4.303   8.744   5.279  0.0272  0.1816 -0.6819
10571SOL    HW144186   4.224   8.707   5.230 -1.3734 -0.0623  1.6431
10571SOL    HW244187   4.335   8.827   5.234 -2.4146  1.0213 -0.9482
10572SOL     OW44188   0.995   0.922   6.793  0.3105  0.4100  0.1165
10572SOL    HW144189   1.065   0.993   6.795  2.2502 -1.4675  0.1957
10572SOL    HW244190   0.981   0.887   6.886 -0.9237  0.9183  0.1366
10573SOL     OW44191   8.255   1.493   1.746  0.3644  0.3473 -0.3097
10573SOL    HW144192   8.180   1.427   1.751  1.1678 -0.6555 -1.4000
10573SOL    HW244193   8.258   1.546   1.831 -1.4263  0.2414 -0.1587
10574SOL     OW44194   5.037   2.025   4.550 -0.3041 -0.1438 -0.1235
10574SOL    HW144195   5.093   1.996   4.473 -3.6827 -2.1590 -1.9303
10574SOL    HW244196   5.015   1.946   4.608 -2.2904  0.3114 -0.1907
10575SOL     OW44197   2.778   5.763   4.411 -0.0217  0.5076 -0.2753
10575SOL    HW144198   2.811   5.762   4.506  0.0294 -1.1881 -0.2856
10575SOL    HW244199   2.856   5.774   4.349 -0.0459  1.5349 -0.1277
10576SOL     OW44200   5.503   0.728   0.683  0.0754 -0.2473  0.1590
10576SOL    HW144201   5.479   0.739   0.586  0.2792  0.9356  0.2348
10576SOL    HW244202   5.420   0.739   0.739 -0.4190 -2.9711  0.0055
10577SOL     OW44203   3.636   6.319   5.382 -0.2963 -0.6012 -0.5869
10577SOL    HW144204   3.651   6.233   5.332 -1.3856 -0.5989 -0.9279
10577SOL    HW244205   3.575   6.303   5.460  0.1096 -0.2836 -0.1989
10578SOL     OW44206   5.081   4.888   4.532  0.1692 -0.5059  0.8215
10578SOL    HW144207   5.110   4.958   4.467 -1.3870  1.3160  2.0444
10578SOL    HW244208   4.994   4.849   4.503 -0.1474 -0.2336  1.3901
10579SOL     OW44209   2.756   2.087   0.479 -0.2807 -0.2076 -0.0932
10579SOL    HW144210   2.691   2.042   0.418 -0.2683  0.8365 -0.8890
10579SOL    HW244211   2.765   2.183   0.453  0.7865 -0.0912  0.6823
10580SOL     OW44212   8.148   5.908   3.996 -0.1534  0.4779  0.5310
10580SOL    HW144213   8.226   5.963   3.967 -0.3665  0.8423  0.6413
10580SOL    HW244214   8.174   5.852   4.074  1.1752 -2.4098 -1.9046
10581SOL     OW44215   3.855   2.363   5.904  0.6548  0.0868 -0.1945
10581SOL    HW144216   3.785   2.352   5.834  1.0586  0.0761 -0.5999
10581SOL    HW244217   3.812   2.364   5.995 -0.0092  1.4869 -0.5172
10582SOL     OW44218   8.668   5.781   1.429  0.7099 -0.6606  0.1015
10582SOL    HW144219   8.674   5.688   1.396 -0.5470 -0.4827 -0.6753
10582SOL    HW244220   8.660   5.781   1.529  1.1103 -1.3591  0.1291
10583SOL     OW44221   7.036   6.124   7.140  0.1289  0.5230 -0.4675
10583SOL    HW144222   7.078   6.094   7.055  2.7107  1.3274  0.4661
10583SOL    HW244223   6.950   6.075   7.154  0.7109 -1.1482 -2.4782
10584SOL     OW44224   5.860   5.978   4.461  0.1939 -0.0696  0.0879
10584SOL    HW144225   5.760   5.973   4.461  0.1692  0.2178 -1.1767
10584SOL    HW244226   5.888   6.070   4.432  0.8523 -1.3601 -3.5695
10585SOL     OW44227   0.235   6.222   6.547 -0.2823 -0.1574 -0.2633
10585SOL    HW144228   0.295   6.174   6.484  2.0468  2.2079  0.0710
10585SOL    HW244229   0.276   6.310   6.573 -2.5929  0.2865  2.1705
10586SOL     OW44230   2.832   4.175   8.783  0.2700  0.0413 -0.4130
10586SOL    HW144231   2.747   4.208   8.824 -0.2734 -0.1229 -1.3953
10586SOL    HW244232   2.821   4.169   8.684  1.5981  0.5029 -0.5985
10587SOL     OW44233   8.408   4.141   8.472 -0.2722 -0.1857  0.2672
10587SOL    HW144234   8.370   4.231   8.493 -0.0290 -0.0178 -0.0107
10587SOL    HW244235   8.442   4.140   8.378 -0.9355 -0.7972  0.0282
10588SOL     OW44236   5.487   1.163   8.750 -0.6638  0.0748 -0.6218
10588SOL    HW144237   5.451   1.217   8.826 -0.8228 -0.9059  0.0152
10588SOL    HW244238   5.564   1.108   8.782 -1.9671 -1.8349 -0.6423
10589SOL     OW44239   0.917   2.953   2.990  0.3574  0.1167 -0.3800
10589SOL    HW144240   0.925   2.963   3.089  0.5251  1.6849 -0.5359
10589SOL    HW244241   0.831   2.993   2.959  1.1258  1.2761 -1.0668
10590SOL     OW44242   1.682   4.424   6.020  0.5302 -0.2713 -0.8166
10590SOL    HW144243   1.607   4.482   5.988 -0.5314 -1.4585 -0.5298
10590SOL    HW244244   1.762   4.439   5.963  0.6412  2.2957 -0.0581
10591SOL     OW44245   3.810   7.017   0.547 -0.2584 -0.2761 -0.2949
10591SOL    HW144246   3.771   6.936   0.502 -1.4766  0.5068 -0.6860
10591SOL    HW244247   3.885   7.052   0.491 -1.8081  0.7298 -1.8117
10592SOL     OW44248   4.164   5.358   4.836 -0.5706 -0.2653  0.3426
10592SOL    HW144249   4.117   5.300   4.769 -0.9921 -0.3224  0.6872
10592SOL    HW244250   4.106   5.435   4.860 -1.5586 -1.6931  2.6701
10593SOL     OW44251   7.322   4.743   0.411 -0.2724  0.4761  0.0756
10593SOL    HW144252   7.403   4.780   0.366 -0.2166 -0.1065 -0.2982
10593SOL    HW244253   7.329   4.644   0.418 -0.3309  0.5412  1.2628
10594SOL     OW44254   1.724   0.344   7.900 -0.3508 -0.0875  0.4146
10594SOL    HW144255   1.681   0.289   7.972 -2.2102 -3.6374 -3.1908
10594SOL    HW244256   1.821   0.319   7.892 -0.2638 -0.0543  1.3079
10595SOL     OW44257   7.959   5.726   6.309  0.0029  0.1177  0.3635
10595SOL    HW144258   7.932   5.766   6.221 -2.0677 -0.1055  0.8714
10595SOL    HW244259   8.044   5.676   6.298  1.1144  2.2402 -0.9455
10596SOL     OW44260   1.560   0.315   8.804 -0.5988 -0.1266  0.2611
10596SOL    HW144261   1.487   0.364   8.756 -0.0479  0.5428  0.0947
10596SOL    HW244262   1.576   0.357   8.893 -1.4660 -1.2301  0.9381
10597SOL     OW44263   0.514   4.666   3.729  0.4538  0.4747 -0.0203
10597SOL    HW144264   0.488   4.743   3.787  0.9509  1.6231 -1.2955
10597SOL    HW244265   0.614   4.655   3.733  0.4103  0.0754 -0.0695
10598SOL     OW44266   7.935   6.981   7.214  0.5009 -0.0696  0.1840
10598SOL    HW144267   7.962   7.014   7.305 -3.7227  0.3000  1.4115
10598SOL    HW244268   7.905   6.886   7.222  1.0007 -0.3323 -1.0420
10599SOL     OW44269   6.466   3.892   6.852  0.1606  0.4010 -0.0721
10599SOL    HW144270   6.564   3.900   6.837  0.4800 -2.4500  0.1313
10599SOL    HW244271   6.417   3.957   6.795  1.9852 -0.7444 -3.0235
10600SOL     OW44272   7.013   6.493   5.272 -0.2218 -0.1959 -0.7639
10600SOL    HW144273   7.027   6.457   5.180 -1.8584 -0.7115 -0.8237
10600SOL    HW244274   6.967   6.425   5.329  2.6951 -0.7082  1.1119
10601SOL     OW44275   6.521   1.391   8.447 -0.2350  0.0742 -0.4883
10601SOL    HW144276   6.499   1.303   8.491  0.4365 -0.1596 -0.6167
10601SOL    HW244277   6.555   1.374   8.355  0.7389  0.4195 -0.1952
10602SOL     OW44278   5.897   6.064   5.249 -0.0654 -0.7574 -0.2143
10602SOL    HW144279   5.918   6.068   5.347  1.6517 -0.0333 -0.5925
10602SOL    HW244280   5.973   6.103   5.198 -1.4473 -0.1030 -1.7840
10603SOL     OW44281   0.999   5.580   8.192  0.4902  0.0179  0.2521
10603SOL    HW144282   0.930   5.597   8.122 -0.2079 -2.1135  0.4133
10603SOL    HW244283   1.086   5.559   8.148  0.8147  1.6687  0.0541
10604SOL     OW44284   5.337   5.563   8.539  0.0943  0.0251 -0.0034
10604SOL    HW144285   5.390   5.634   8.493  0.0013 -0.0409 -0.2114
10604SOL    HW244286   5.249   5.601   8.567  1.1256  0.7850  2.3574
10605SOL     OW44287   4.344   4.155   7.290 -0.1294 -0.6031  0.2320
10605SOL    HW144288   4.418   4.197   7.236  1.1987 -2.3083  0.6845
10605SOL    HW244289   4.324   4.064   7.253 -3.0985  0.4324 -0.8477
10606SOL     OW44290   5.673   7.455   4.097 -0.0007  0.1977 -0.0819
10606SOL    HW144291   5.768   7.486   4.095  0.1579 -0.2055  0.7498
10606SOL    HW244292   5.659   7.397   4.178  0.5923 -4.7813 -3.3636
10607SOL     OW44293   4.814   1.538   5.110  0.5039  0.3662  0.1720
10607SOL    HW144294   4.726   1.533   5.157  0.2228  0.9027 -0.2996
10607SOL    HW244295   4.805   1.502   5.018  1.1097 -0.8928  0.5892
10608SOL     OW44296   6.125   7.351   8.671  1.0030  0.5226  0.2017
10608SOL    HW144297   6.038   7.332   8.625  0.6321  1.2842  0.5806
10608SOL    HW244298   6.157   7.442   8.645  0.7008  1.0261  1.5758
10609SOL     OW44299   4.772   8.122   2.327  0.2153  0.2644  0.3163
10609SOL    HW144300   4.723   8.132   2.241  0.7036  1.8140  0.1975
10609SOL    HW244301   4.871   8.123   2.309  0.3230 -1.6352  0.6758
10610SOL     OW44302   8.371   7.156   0.990 -0.5111 -0.2382 -0.3112
10610SOL    HW144303   8.377   7.256   0.989 -1.8310 -0.1489 -0.7148
10610SOL    HW244304   8.324   7.125   0.908 -0.3705 -1.1804 -0.0404
10611SOL     OW44305   4.669   2.713   6.536  0.1333  0.3342 -0.0309
10611SOL    HW144306   4.578   2.697   6.575 -0.7357  0.2466 -2.0301
10611SOL    HW244307   4.680   2.658   6.453  3.2545 -2.1236  1.9110
10612SOL     OW44308   5.320   1.153   7.307  0.1157  0.2241 -0.1560
10612SOL    HW144309   5.397   1.098   7.276  0.8450  0.4558  1.2277
10612SOL    HW244310   5.238   1.127   7.255  1.0633 -0.1827 -1.4633
10613SOL     OW44311   6.081   3.917   7.478 -0.3876 -0.0502 -0.1929
10613SOL    HW144312   6.020   3.843   7.507 -0.4941  0.2722  0.4120
10613SOL    HW244313   6.175   3.894   7.505  0.0186 -1.2869 -2.5130
10614SOL     OW44314   5.961   1.794   6.834  0.2926  0.3818  0.2491
10614SOL    HW144315   6.030   1.816   6.765 -0.5382  0.7332 -0.4801
10614SOL    HW244316   5.872   1.780   6.789 -0.1462  0.0981  1.1912
10615SOL     OW44317   3.233   3.885   7.970  0.4496 -0.1216 -0.3378
10615SOL    HW144318   3.265   3.933   8.052 -3.7913  2.8477 -0.2481
10615SOL    HW244319   3.235   3.787   7.986  1.1415  0.3451  2.7604
10616SOL     OW44320   1.258   5.213   2.427 -0.2702 -0.2583 -0.0139
10616SOL    HW144321   1.163   5.216   2.458 -0.7138  0.0708 -1.3584
10616SOL    HW244322   1.260   5.183   2.331  0.9402  0.3761 -0.1857
10617SOL     OW44323   0.632   5.633   1.418  0.5584 -0.3774  0.2684
10617SOL    HW144324   0.663   5.727   1.433  1.8592 -0.8677  0.7132
10617SOL    HW244325   0.586   5.628   1.329 -0.1592  0.8220  0.5541
10618SOL     OW44326   4.351   1.738   5.258 -0.4491  0.0667  0.2053
10618SOL    HW144327   4.367   1.757   5.355 -0.6732  0.0683  0.2424
10618SOL    HW244328   4.258   1.766   5.234 -0.1578  0.7325 -0.1796
10619SOL     OW44329   5.674   7.797   0.438 -0.1355  0.8846 -0.3908
10619SOL    HW144330   5.750   7.774   0.498 -1.5216  0.7611  1.3645
10619SOL    HW244331   5.673   7.735   0.360  1.1586  0.4535 -0.0705
10620SOL     OW44332   7.701   4.315   1.390  0.0598 -0.1708  0.3031
10620SOL    HW144333   7.774   4.341   1.327 -0.5791  0.2833 -0.2622
10620SOL    HW244334   7.673   4.221   1.373 -0.8872  0.3088 -0.8641
10621SOL     OW44335   2.063   8.131   0.770  0.1754 -0.5889  0.2290
10621SOL    HW144336   2.074   8.193   0.692  0.7906 -0.1902  0.6218
10621SOL    HW244337   2.124   8.160   0.844  0.0919 -1.3660  0.6074
10622SOL     OW44338   1.549   4.260   6.942  0.2751  0.2862  0.1199
10622SOL    HW144339   1.586   4.173   6.976 -0.4608  1.2160  3.4325
10622SOL    HW244340   1.614   4.301   6.878  1.1723 -2.0992 -0.5557
10623SOL     OW44341   4.922   5.848   7.784  1.1999 -0.2923 -0.1954
10623SOL    HW144342   4.886   5.941   7.785 -2.5556 -1.6834  1.0574
10623SOL    HW244343   4.948   5.823   7.691 -0.0402  1.1542 -0.9407
10624SOL     OW44344   0.129   3.303   5.555  0.1843 -0.1763 -0.0443
10624SOL    HW144345   0.196   3.229   5.550  1.8195  1.2437  0.3840
10624SOL    HW244346   0.079   3.309   5.468  1.7915 -0.1746 -0.9790
10625SOL     OW44347   5.454   7.921   2.027 -0.3007 -0.0262  0.4192
10625SOL    HW144348   5.551   7.943   2.017  0.4816 -3.1159  0.5367
10625SOL    HW244349   5.406   7.943   1.942  0.3668  2.0850  0.5690
10626SOL     OW44350   6.211   5.810   6.697 -0.2457  0.7159  0.0474
10626SOL    HW144351   6.204   5.873   6.774  1.2368  0.3007  0.5391
10626SOL    HW244352   6.134   5.824   6.635 -0.6328  2.0972  0.8276
10627SOL     OW44353   3.887   4.865   0.940 -0.3597  0.1349  0.2832
10627SOL    HW144354   3.801   4.839   0.985  0.1531 -1.8873  0.1745
10627SOL    HW244355   3.903   4.803   0.863  1.7850 -0.2874  1.0431
10628SOL     OW44356   0.901   7.330   4.484 -0.3943  0.6219  0.0637
10628SOL    HW144357   0.852   7.245   4.503  1.6673 -0.0404  2.7164
10628SOL    HW244358   0.914   7.381   4.569  3.3125  0.8398 -0.5576
10629SOL     OW44359   3.916   1.330   0.652 -0.0664  0.0531 -0.1708
10629SOL    HW144360   3.969   1.337   0.568  2.3369  0.8637  1.3422
10629SOL    HW244361   3.911   1.235   0.681 -1.2830 -0.2865 -1.4210
10630SOL     OW44362   4.640   8.405   8.635  0.1199 -0.0305 -0.5014
10630SOL    HW144363   4.690   8.453   8.563 -0.5154 -0.1350 -1.0214
10630SOL    HW244364   4.700   8.391   8.714  0.4575  1.1547 -0.5403
10631SOL     OW44365   7.201   5.816   1.998  0.1161 -0.6472 -0.0649
10631SOL    HW144366   7.172   5.783   1.908  0.1497 -0.6072 -0.0902
10631SOL    HW244367   7.176   5.912   2.008 -0.8568 -0.9391  0.3784
10632SOL     OW44368   2.304   2.411   5.667  0.0026 -0.1588 -0.7950
10632SOL    HW144369   2.257   2.491   5.704  1.0760  0.6125 -1.0843
10632SOL    HW244370   2.239   2.354   5.617 -0.4448  1.3831 -2.0027
10633SOL     OW44371   8.154   3.213   8.049 -0.2249  0.0997  0.0027
10633SOL    HW144372   8.225   3.175   8.109  0.0660  0.3144 -0.1976
10633SOL    HW244373   8.073   3.155   8.053 -0.7178  0.8615  1.6722
10634SOL     OW44374   4.725   1.133   4.768  0.6595  0.4233  0.3450
10634SOL    HW144375   4.680   1.223   4.768 -1.0798 -0.3914  2.7087
10634SOL    HW244376   4.770   1.118   4.856  0.3550 -1.2916  0.2201
10635SOL     OW44377   3.348   1.072   6.901 -0.0642 -0.1269 -0.2951
10635SOL    HW144378   3.446   1.081   6.919 -0.3777  0.0651  1.4166
10635SOL    HW244379   3.298   1.139   6.957 -1.5313 -3.7148  2.8895
10636SOL     OW44380   7.270   5.589   4.981 -0.3354  0.7292  0.6444
10636SOL    HW144381   7.294   5.532   4.903  1.1530 -0.2259  1.7617
10636SOL    HW244382   7.310   5.680   4.969  2.7808 -0.4102  1.8003
10637SOL     OW44383   8.974   5.677   2.490  0.7503 -0.1125 -0.2497
10637SOL    HW144384   8.998   5.713   2.400 -1.3438  0.0916 -0.7403
10637SOL    HW244385   9.002   5.742   2.561  1.1536  0.3477 -0.8319
10638SOL     OW44386   3.573   8.541   1.215 -0.1072 -0.2748 -0.3566
10638SOL    HW144387   3.503   8.600   1.174 -0.7124 -1.8274 -1.6317
10638SOL    HW244388   3.657   8.548   1.162 -0.1077 -0.3858 -0.3711
10639SOL     OW44389   6.242   4.609   7.387  0.2554  0.1153  0.1451
10639SOL    HW144390   6.244   4.546   7.309  0.6864  0.9272 -0.5101
10639SOL    HW244391   6.194   4.693   7.361 -0.6792 -0.0996  1.1437
10640SOL     OW44392   6.913   3.084   0.068  0.3055  0.8198 -0.0565
10640SOL    HW144393   6.881   3.024   0.141  3.5332  0.9575  1.5626
10640SOL    HW244394   6.883   3.178   0.086  1.4840  0.9363  1.3885
10641SOL     OW44395   4.457   4.277   5.853 -0.4628  0.1466 -0.3306
10641SOL    HW144396   4.484   4.299   5.759  2.0257 -1.3250  0.0014
10641SOL    HW244397   4.407   4.190   5.853  0.2741 -0.2846 -0.2165
10642SOL     OW44398   8.788   0.571   1.629 -0.0872  0.2651  0.1774
10642SOL    HW144399   8.846   0.631   1.684  1.4533 -0.8572 -0.1682
10642SOL    HW244400   8.790   0.478   1.667 -0.0054 -0.2400 -1.0267
10643SOL     OW44401   3.641   0.728   3.418  0.1334  0.4955  0.3385
10643SOL    HW144402   3.621   0.826   3.422 -2.5053  0.0063  0.0020
10643SOL    HW244403   3.558   0.676   3.440  1.8354 -1.6710  1.8433
10644SOL     OW44404   4.046   2.892   2.637 -0.3960  0.0031 -0.5549
10644SOL    HW144405   4.136   2.928   2.663  0.1465 -0.2263 -2.0841
10644SOL    HW244406   4.052   2.794   2.621 -2.1252 -1.1030  4.7201
10645SOL     OW44407   4.798   1.798   2.096 -0.1682 -0.4005  0.2929
10645SOL    HW144408   4.791   1.835   2.189  0.0627 -0.6733  0.4221
10645SOL    HW244409   4.810   1.872   2.031 -0.3615 -0.2048  0.4791
10646SOL     OW44410   7.394   2.211   2.374 -0.3005 -0.3302  0.0373
10646SOL    HW144411   7.355   2.196   2.465 -1.1625  1.1315 -0.0725
10646SOL    HW244412   7.320   2.216   2.307  0.2172  0.1828 -0.5063
10647SOL     OW44413   4.001   8.502   6.298  1.2562  0.2304  0.1815
10647SOL    HW144414   3.959   8.444   6.228  0.4664  1.8339 -0.7104
10647SOL    HW244415   4.080   8.549   6.259  2.0500 -0.4308  0.9738
10648SOL     OW44416   4.055   3.234   0.415 -0.1142 -0.5789  0.1892
10648SOL    HW144417   3.973   3.291   0.410  0.8215  0.6706 -1.1248
10648SOL    HW244418   4.130   3.288   0.453 -0.3796 -2.3111  3.3543
10649SOL     OW44419   4.467   0.828   1.879 -0.1049  0.0909 -0.5284
10649SOL    HW144420   4.491   0.732   1.896  0.0996  0.3564  0.7067
10649SOL    HW244421   4.391   0.854   1.939  0.5409  1.0100 -0.1080
10650SOL     OW44422   6.661   1.162   0.069  0.0011  0.1188 -0.5870
10650SOL    HW144423   6.613   1.238   0.112  0.9244 -0.4722  1.5805
10650SOL    HW244424   6.599   1.112   0.009 -1.9589 -0.3034  1.7337
10651SOL     OW44425   7.364   1.062   1.527  0.0910  0.5584 -0.2328
10651SOL    HW144426   7.294   1.070   1.598 -0.0197 -1.2815 -0.1185
10651SOL    HW244427   7.331   1.102   1.442 -0.0480  2.1395  0.5522
10652SOL     OW44428   5.306   6.064   8.863  0.2819  0.7384 -0.1544
10652SOL    HW144429   5.285   6.026   8.773 -0.1389  1.3352 -0.3180
10652SOL    HW244430   5.384   6.127   8.855  0.5598  0.4130 -0.0065
10653SOL     OW44431   7.876   1.175   2.802 -0.1267 -0.6163 -0.0865
10653SOL    HW144432   7.959   1.210   2.845  0.2057 -1.1887 -0.2534
10653SOL    HW244433   7.901   1.107   2.732 -0.6684  0.1158 -1.0054
10654SOL     OW44434   2.327   7.967   2.372 -0.3974 -0.3318 -0.3897
10654SOL    HW144435   2.266   7.950   2.295  0.1276 -1.0746 -0.6491
10654SOL    HW244436   2.339   8.066   2.383 -0.1860 -0.2165 -1.5046
10655SOL     OW44437   0.679   1.799   8.017  0.0103 -0.0266 -0.4745
10655SOL    HW144438   0.601   1.843   7.972 -1.0141 -1.6172 -0.3116
10655SOL    HW244439   0.652   1.771   8.110  1.0377  0.1639 -0.1198
10656SOL     OW44440   8.706   2.351   5.564 -0.7264 -0.4001  0.3174
10656SOL    HW144441   8.613   2.388   5.564 -0.9923 -1.0568 -0.1950
10656SOL    HW244442   8.738   2.340   5.658 -1.4385 -0.8652  0.5055
10657SOL     OW44443   6.102   3.119   0.470  0.1295 -0.0020  0.0675
10657SOL    HW144444   6.107   3.155   0.377 -0.8261  2.5791  0.9877
10657SOL    HW244445   6.185   3.145   0.520 -0.5926  0.9858  0.7568
10658SOL     OW44446   3.123   2.498   0.478  0.2650  0.3161  0.3128
10658SOL    HW144447   3.115   2.552   0.395  2.2840 -0.7887 -0.6597
10658SOL    HW244448   3.158   2.407   0.455 -0.4386 -0.4641  2.2199
10659SOL     OW44449   8.954   8.970   8.359  0.3161  0.5761 -0.0316
10659SOL    HW144450   8.884   9.034   8.328  0.3360  0.7283  0.2377
10659SOL    HW244451   9.028   9.020   8.404 -0.3841  0.2359  1.5151
10660SOL     OW44452   5.452   6.186   2.107 -0.3250  0.0203  0.1299
10660SOL    HW144453   5.368   6.137   2.134 -0.7545  1.8402  2.2237
10660SOL    HW244454   5.452   6.277   2.148  3.8453 -0.8309  2.2170
10661SOL     OW44455   6.988   4.909   7.894 -0.4051  0.3709  0.4089
10661SOL    HW144456   6.949   4.927   7.804  0.7330  2.1301  0.2456
10661SOL    HW244457   6.914   4.898   7.960 -1.2416 -0.4451 -0.6440
10662SOL     OW44458   1.798   8.666   2.956 -0.2611 -0.8369 -0.0207
10662SOL    HW144459   1.705   8.690   2.984 -0.4666 -1.0889 -0.4867
10662SOL    HW244460   1.796   8.630   2.863  0.7688  2.5841 -1.4540
10663SOL     OW44461   2.176   1.965   4.000 -0.5532  0.0646  0.3484
10663SOL    HW144462   2.240   2.041   3.997 -2.9071  2.0532 -1.0572
10663SOL    HW244463   2.143   1.944   3.908 -1.2289 -1.5621  0.9291
10664SOL     OW44464   8.576   4.344   0.655  0.5942 -0.2013  0.2257
10664SOL    HW144465   8.676   4.345   0.653  0.5956  0.3988  0.4289
10664SOL    HW244466   8.541   4.426   0.609  0.1673 -1.3602 -1.5662
10665SOL     OW44467   6.840   8.540   5.771  0.6026 -0.4576 -0.3413
10665SOL    HW144468   6.765   8.573   5.828 -0.0910  0.2203 -1.6211
10665SOL    HW244469   6.917   8.513   5.829  0.8699  2.5725  0.8242
10666SOL     OW44470   7.098   5.074   0.313 -0.5599 -0.2190  0.4567
10666SOL    HW144471   7.056   4.984   0.322  1.3479 -0.9827  2.2651
10666SOL    HW244472   7.174   5.069   0.249  0.2683 -0.1838  1.4259
10667SOL     OW44473   6.236   0.519   0.719 -0.0051  0.6981  0.8803
10667SOL    HW144474   6.136   0.531   0.717  0.0512  0.9346 -0.6328
10667SOL    HW244475   6.269   0.536   0.812 -1.3681  0.6670  1.3886
10668SOL     OW44476   2.819   4.035   7.298 -0.4079  0.3740  0.3890
10668SOL    HW144477   2.782   4.097   7.367 -0.2896  2.0834 -1.0639
10668SOL    HW244478   2.770   4.048   7.212 -0.3004 -1.4827  0.0317
10669SOL     OW44479   4.904   0.580   8.816 -0.1864 -0.1380 -0.6735
10669SOL    HW144480   4.913   0.676   8.791 -2.3233  0.8611  2.1766
10669SOL    HW244481   4.828   0.540   8.765 -1.4216  0.5871  0.5832
10670SOL     OW44482   2.383   8.620   0.523 -0.0524 -0.5664 -0.3089
10670SOL    HW144483   2.341   8.642   0.611 -0.1272 -0.9653 -0.2413
10670SOL    HW244484   2.378   8.699   0.462  0.8128  0.0116  0.3579
10671SOL     OW44485   5.933   2.341   1.430  0.0304 -0.2561 -0.2834
10671SOL    HW144486   5.913   2.288   1.347 -2.3714  0.6718 -0.3470
10671SOL    HW244487   5.926   2.281   1.510 -2.1034 -0.2122 -0.4030
10672SOL     OW44488   5.052   6.389   2.736 -0.2449 -0.5392  0.3142
10672SOL    HW144489   5.092   6.331   2.806 -1.3849 -1.1451  0.4691
10672SOL    HW244490   5.012   6.333   2.664  1.5327  0.0768 -1.1977
10673SOL     OW44491   2.602   5.736   5.413  0.5120  0.2335 -0.7125
10673SOL    HW144492   2.626   5.756   5.508  0.7015  2.9715 -1.3058
10673SOL    HW244493   2.659   5.661   5.379  1.0679 -0.1634  1.0627
10674SOL     OW44494   0.684   2.011   7.686 -1.0170  0.1774  0.0987
10674SOL    HW144495   0.601   1.994   7.739 -0.8584 -2.5556 -0.4723
10674SOL    HW244496   0.699   1.937   7.621  1.2812  1.1903 -0.6024
10675SOL     OW44497   5.730   2.261   4.125 -0.1564  0.1847  0.7363
10675SOL    HW144498   5.777   2.322   4.062 -0.0435  0.9779  1.5734
10675SOL    HW244499   5.673   2.315   4.187 -1.2080 -0.6729  0.5284
10676SOL     OW44500   4.600   6.957   7.111 -0.1790 -0.0561  0.1226
10676SOL    HW144501   4.594   6.998   7.202  0.6452  0.5974 -0.1051
10676SOL    HW244502   4.641   6.866   7.118 -0.6737 -0.2523  0.4706
10677SOL     OW44503   1.305   1.958   2.363  0.0712  0.0864  0.0145
10677SOL    HW144504   1.209   1.961   2.334  0.1310 -2.3423 -0.5107
10677SOL    HW244505   1.309   1.931   2.459  0.2408 -0.1207 -0.0515
10678SOL     OW44506   5.884   5.127   1.402  0.0691 -0.4423  0.1089
10678SOL    HW144507   5.910   5.188   1.478  2.1681  0.9753 -1.6790
10678SOL    HW244508   5.837   5.047   1.438 -0.3502  0.9395  2.7706
10679SOL     OW44509   4.711   0.580   4.756 -0.4360  0.5278 -0.2300
10679SOL    HW144510   4.698   0.679   4.752 -0.3615  0.5060 -1.2318
10679SOL    HW244511   4.787   0.555   4.696 -0.8062 -0.1974 -0.3971
10680SOL     OW44512   1.134   4.940   2.299  0.9265  0.3729  0.0554
10680SOL    HW144513   1.201   4.884   2.250  0.3529 -0.0054 -0.2975
10680SOL    HW244514   1.066   4.974   2.235 -0.0897 -0.5006  0.6458
10681SOL     OW44515   2.861   0.444   6.685  0.4605 -0.4600 -0.1729
10681SOL    HW144516   2.795   0.390   6.738  0.1018  0.2963  0.1533
10681SOL    HW244517   2.893   0.521   6.740 -0.5379  0.8120 -1.3567
10682SOL     OW44518   4.189   5.225   5.890 -0.2426 -0.0889 -0.8182
10682SOL    HW144519   4.145   5.142   5.921 -0.6129  0.6657  0.7439
10682SOL    HW244520   4.288   5.211   5.888 -0.4359 -1.2234 -2.6130
10683SOL     OW44521   7.677   2.305   7.323 -0.0691  0.3721 -0.1490
10683SOL    HW144522   7.625   2.261   7.250 -1.3757  0.5710  0.6368
10683SOL    HW244523   7.638   2.396   7.340  0.0021  0.1869  1.0240
10684SOL     OW44524   6.801   2.680   7.086  0.5117 -0.4124  0.4248
10684SOL    HW144525   6.865   2.715   7.155 -0.2851  0.6542  0.6412
10684SOL    HW244526   6.715   2.655   7.130 -0.1846  0.7720 -0.2471
10685SOL     OW44527   3.535   8.886   3.939  0.3991  0.3476  0.2716
10685SOL    HW144528   3.572   8.978   3.949  0.4820  0.3537 -0.0863
10685SOL    HW244529   3.555   8.851   3.847  0.6026 -0.1310  0.4953
10686SOL     OW44530   6.162   4.524   2.194  0.0481  0.1578  0.7430
10686SOL    HW144531   6.114   4.504   2.279 -0.6549 -0.6083  0.1779
10686SOL    HW244532   6.110   4.591   2.141 -1.6825 -2.3978 -0.9448
10687SOL     OW44533   1.527   3.642   7.454 -0.2121 -0.5442 -0.3433
10687SOL    HW144534   1.431   3.612   7.459 -0.3911  0.3080  1.4628
10687SOL    HW244535   1.580   3.595   7.524  0.7962 -1.2683 -1.5569
10688SOL     OW44536   4.855   7.053   3.807  0.3843  0.9219 -0.2886
10688SOL    HW144537   4.888   7.024   3.718  1.5620  1.0384  0.0981
10688SOL    HW244538   4.847   7.153   3.809  0.3844  0.9208 -0.2462
10689SOL     OW44539   3.706   0.173   7.171  0.6510  0.2154 -0.1724
10689SOL    HW144540   3.687   0.186   7.074  0.4448  0.1256 -0.1427
10689SOL    HW244541   3.771   0.098   7.182 -0.3587 -0.6644 -0.1511
10690SOL     OW44542   7.023   5.127   8.100  0.7888  0.1364 -0.3292
10690SOL    HW144543   6.965   5.208   8.092 -0.0479 -0.4648 -0.4238
10690SOL    HW244544   7.018   5.074   8.016 -0.2951 -1.0790  0.4860
10691SOL     OW44545   1.458   8.019   7.575 -0.7410  0.1247 -0.4076
10691SOL    HW144546   1.469   7.925   7.607 -0.4973  0.8304  1.6363
10691SOL    HW244547   1.375   8.058   7.614 -0.7349  0.8301 -1.0872
10692SOL     OW44548   1.503   3.901   7.559 -0.0233  0.3080  0.5578
10692SOL    HW144549   1.567   3.971   7.592 -0.3173  0.6734  0.3495
10692SOL    HW244550   1.554   3.831   7.508  0.3572  0.0420  1.2911
10693SOL     OW44551   6.438   7.432   4.780 -0.0145  0.7138 -0.4215
10693SOL    HW144552   6.386   7.444   4.696 -0.1505  0.8206 -0.3227
10693SOL    HW244553   6.515   7.370   4.764  0.2222  1.0827 -0.7387
10694SOL     OW44554   4.659   1.646   1.227  0.8782  0.9145  0.1570
10694SOL    HW144555   4.574   1.600   1.252  1.1236  0.6980  0.5975
10694SOL    HW244556   4.735   1.607   1.279  1.4454  0.2553 -1.1432
10695SOL     OW44557   0.008   7.873   6.273 -0.1008  0.0641 -0.1767
10695SOL    HW144558   0.021   7.813   6.351  0.8240  0.6064  0.0969
10695SOL    HW244559  -0.054   7.830   6.207 -1.0366 -0.3057  0.9372
10696SOL     OW44560   2.432   8.809   7.786  0.7244 -0.6450  0.3323
10696SOL    HW144561   2.398   8.798   7.692 -1.3555 -1.7121  1.1708
10696SOL    HW244562   2.531   8.813   7.785  0.7785 -1.6647 -1.8336
10697SOL     OW44563   2.242   5.140   8.317 -0.5554  0.2787 -0.0437
10697SOL    HW144564   2.263   5.173   8.224  1.4072 -1.0611 -0.1119
10697SOL    HW244565   2.262   5.043   8.323 -1.2868  0.2199  1.6193
10698SOL     OW44566   3.720   6.781   0.409  0.9132 -0.4228  0.0052
10698SOL    HW144567   3.667   6.734   0.479  2.2974 -1.8019  0.1563
10698SOL    HW244568   3.720   6.726   0.325 -0.9913  1.3458 -1.2330
10699SOL     OW44569   6.939   3.848   8.797 -0.4561  0.6528 -0.1700
10699SOL    HW144570   6.921   3.914   8.870  1.6007  1.9760 -0.8284
10699SOL    HW244571   7.024   3.871   8.751 -1.3779 -0.5504 -2.5799
10700SOL     OW44572   8.436   4.143   1.322 -0.2668 -0.3358  0.5843
10700SOL    HW144573   8.456   4.086   1.402  1.4852  0.2575  0.5932
10700SOL    HW244574   8.499   4.120   1.248 -1.4564 -0.4246 -0.4056
10701SOL     OW44575   1.435   2.624   0.041  0.1908  0.6402  0.0590
10701SOL    HW144576   1.405   2.544   0.092 -3.2778  1.4888 -0.5512
10701SOL    HW244577   1.458   2.698   0.106 -1.0675  0.6555  0.4911
10702SOL     OW44578   5.131   2.242   4.673  0.6511  0.2612 -0.2393
10702SOL    HW144579   5.099   2.155   4.636  1.0919  0.0339 -0.0891
10702SOL    HW244580   5.189   2.288   4.606  0.1510  0.5971 -0.4472
10703SOL     OW44581   2.973   0.389   8.942  0.4993  0.1201  0.3980
10703SOL    HW144582   2.947   0.486   8.941 -0.6655 -0.1956 -0.9653
10703SOL    HW244583   2.894   0.334   8.967  1.5927 -0.3911  2.9241
10704SOL     OW44584   6.335   3.226   6.894 -0.0621 -0.1327 -0.0627
10704SOL    HW144585   6.258   3.290   6.895  0.3733  0.3787  1.9523
10704SOL    HW244586   6.303   3.136   6.864 -1.1687  0.4045 -0.5365
10705SOL     OW44587   7.749   3.613   8.142 -0.3565 -0.6474 -0.2013
10705SOL    HW144588   7.773   3.590   8.237 -1.6060 -0.8187  0.0763
10705SOL    HW244589   7.808   3.560   8.080 -0.1901 -1.2687  0.4705
10706SOL     OW44590   5.817   3.757   0.858 -0.4428  0.1449  0.3852
10706SOL    HW144591   5.806   3.813   0.941  0.0415  0.3067  0.3437
10706SOL    HW244592   5.912   3.725   0.853 -1.1241 -2.1695  1.3585
10707SOL     OW44593   3.432   0.782   2.298  0.3594  0.6517  0.3937
10707SOL    HW144594   3.389   0.693   2.284  0.5839  0.6824 -0.4854
10707SOL    HW244595   3.379   0.853   2.252  1.8011  0.5816 -1.4335
10708SOL     OW44596   2.744   6.490   2.505  0.4421  0.4086 -0.0002
10708SOL    HW144597   2.755   6.509   2.602 -1.1395  3.7868 -0.4112
10708SOL    HW244598   2.653   6.452   2.488 -0.6443  3.1083 -0.5173
10709SOL     OW44599   7.737   3.041   8.963  0.6938  0.3913  0.3465
10709SOL    HW144600   7.755   2.972   8.892 -0.8478 -0.0767  0.3926
10709SOL    HW244601   7.791   3.020   9.044  0.9668 -0.1998  0.0204
10710SOL     OW44602   0.650   3.145   4.401  0.3367 -0.6596  0.0163
10710SOL    HW144603   0.553   3.171   4.408 -0.2496 -2.5113 -0.8355
10710SOL    HW244604   0.697   3.169   4.486 -1.4570 -2.0993  1.4636
10711SOL     OW44605   0.678   4.040   4.725  0.0117  0.1580 -0.0265
10711SOL    HW144606   0.579   4.054   4.733  0.1378  0.5476  0.8411
10711SOL    HW244607   0.715   4.108   4.662  0.1690  1.9126  1.9135
10712SOL     OW44608   4.810   1.151   7.792 -0.9616  0.5145  0.2468
10712SOL    HW144609   4.740   1.170   7.861 -1.5488 -1.3526  0.1863
10712SOL    HW244610   4.859   1.067   7.816 -0.3279  0.5289 -0.9583
10713SOL     OW44611   8.229   2.509   2.532 -0.1355 -1.2842 -0.3263
10713SOL    HW144612   8.163   2.515   2.458  2.2946 -2.7665 -2.6953
10713SOL    HW244613   8.249   2.413   2.552  0.1880 -0.8773  1.4139
10714SOL     OW44614   1.657   2.998   0.178  0.4852  0.4534  0.3275
10714SOL    HW144615   1.629   3.085   0.217 -0.3251  0.5858 -0.5117
10714SOL    HW244616   1.622   2.923   0.234  0.0443  0.6510  0.3187
10715SOL     OW44617   2.679   4.825   7.601 -0.0445  0.0522  0.2407
10715SOL    HW144618   2.746   4.860   7.536 -0.0302  0.4485  0.4693
10715SOL    HW244619   2.701   4.730   7.624  0.7668  0.3620  0.7531
10716SOL     OW44620   4.318   3.946   6.164  0.0374 -0.1872  0.0889
10716SOL    HW144621   4.274   4.011   6.226  1.7173  0.0745  1.0055
10716SOL    HW244622   4.342   3.863   6.214 -0.0191 -0.6009 -0.5665
10717SOL     OW44623   7.645   1.145   8.205  0.0470  0.3221 -0.1791
10717SOL    HW144624   7.643   1.144   8.305 -3.2762 -0.8214 -0.1849
10717SOL    HW244625   7.666   1.238   8.173 -0.3962  1.0577  1.6133
10718SOL     OW44626   1.726   3.860   3.692 -0.0131 -0.7595 -0.0435
10718SOL    HW144627   1.672   3.933   3.649  0.5398  0.1518  0.7828
10718SOL    HW244628   1.701   3.853   3.789  1.2214 -0.4602  0.2952
10719SOL     OW44629   8.144   2.249   8.359 -0.2256 -0.2686  0.0092
10719SOL    HW144630   8.189   2.289   8.439  0.6172 -1.7894  0.3388
10719SOL    HW244631   8.128   2.319   8.290  0.3872  0.7792  0.9233
10720SOL     OW44632   3.435   5.630   1.551  0.1221 -0.0078 -0.7540
10720SOL    HW144633   3.412   5.689   1.628  1.4723 -1.6510  0.9797
10720SOL    HW244634   3.407   5.536   1.572  0.3420 -0.4454 -2.3583
10721SOL     OW44635   0.570   2.365   7.075  0.6623 -0.6505 -0.0733
10721SOL    HW144636   0.646   2.396   7.017  0.7230 -0.5564  0.0573
10721SOL    HW244637   0.598   2.282   7.123  0.9623 -0.1778  0.5778
10722SOL     OW44638   2.295   8.967   6.311 -0.1749  0.0279  0.7082
10722SOL    HW144639   2.248   8.984   6.224  0.0483 -0.0861  0.5634
10722SOL    HW244640   2.273   8.874   6.343  0.0483 -0.0704  0.5774
10723SOL     OW44641   8.323   6.576   3.603 -0.1164 -0.1687 -0.1951
10723SOL    HW144642   8.284   6.578   3.695  0.5277 -0.8046  0.0986
10723SOL    HW244643   8.382   6.656   3.589 -3.5357  2.1986 -1.5563
10724SOL     OW44644   2.679   4.848   2.640  0.4952  0.3404  0.4054
10724SOL    HW144645   2.755   4.914   2.640  0.5688  0.2555  0.4967
10724SOL    HW244646   2.599   4.890   2.597  0.7996  0.1942 -0.3138
10725SOL     OW44647   8.018   2.324   2.068  0.6939  0.2286 -0.0620
10725SOL    HW144648   8.109   2.295   2.099  1.6815  1.4008 -1.7759
10725SOL    HW244649   7.971   2.247   2.025  0.6558 -0.5123  1.2713
10726SOL     OW44650   6.091   4.459   0.951  0.0880 -0.2308  0.4376
10726SOL    HW144651   6.067   4.547   0.908  2.2202 -0.8291 -2.0929
10726SOL    HW244652   6.009   4.403   0.960 -0.7934  0.8601 -0.6430
10727SOL     OW44653   3.685   1.864   7.500 -0.5060  0.2768  0.8270
10727SOL    HW144654   3.785   1.860   7.496 -0.3790  1.1252  2.5707
10727SOL    HW244655   3.646   1.800   7.434  1.1907  0.1187 -0.0388
10728SOL     OW44656   1.264   3.174   3.530  0.5609  0.3440  0.3047
10728SOL    HW144657   1.328   3.244   3.559 -0.0925 -0.2957  3.5615
10728SOL    HW244658   1.173   3.214   3.519 -0.2998 -0.2366  4.3131
10729SOL     OW44659   1.550   8.240   1.471 -0.3777 -0.0437  0.3447
10729SOL    HW144660   1.549   8.172   1.397 -0.5082 -0.0640  0.3648
10729SOL    HW244661   1.539   8.332   1.432  1.9835  0.1735  0.1008
10730SOL     OW44662   0.051   8.765   7.574  0.2106  0.0300  0.0762
10730SOL    HW144663   0.116   8.809   7.511  2.4812 -1.7131  1.1334
10730SOL    HW244664   0.095   8.686   7.617 -1.8043  0.2944  2.7168
10731SOL     OW44665   5.437   7.593   5.832  0.1176  0.2724 -0.5817
10731SOL    HW144666   5.458   7.643   5.916 -0.0705  0.2354 -0.5118
10731SOL    HW244667   5.508   7.610   5.764  0.2400  0.3476 -0.4347
10732SOL     OW44668   7.942   6.177   4.703 -0.2010  0.1622  0.0096
10732SOL    HW144669   7.861   6.177   4.762 -2.4126  0.3931 -2.9337
10732SOL    HW244670   7.914   6.168   4.607  3.3700 -1.3542 -0.9783
10733SOL     OW44671   5.484   6.452   2.185 -0.0055 -0.0919 -0.1618
10733SOL    HW144672   5.416   6.487   2.249 -0.3383  0.9427 -1.0687
10733SOL    HW244673   5.575   6.459   2.226 -0.3777 -0.9891  0.8477
10734SOL     OW44674   5.343   1.026   0.056 -0.8883 -0.1442  0.0274
10734SOL    HW144675   5.426   1.014   0.002 -1.2055  0.2077 -0.5426
10734SOL    HW244676   5.297   1.111   0.028 -1.6600 -0.5511  0.0452
10735SOL     OW44677   5.276   2.724   7.032  0.3553  0.0789  0.1140
10735SOL    HW144678   5.234   2.814   7.045 -0.4034 -0.2364 -0.0855
10735SOL    HW244679   5.210   2.653   7.057  1.6879 -0.3986  2.4049
10736SOL     OW44680   8.532   3.435   6.931 -0.4998  0.0292  0.2007
10736SOL    HW144681   8.482   3.503   6.985  0.5366  0.5690  0.5052
10736SOL    HW244682   8.543   3.351   6.984 -0.0822  0.3178  0.5785
10737SOL     OW44683   1.229   2.710   2.174  0.0469 -0.2123 -0.2648
10737SOL    HW144684   1.132   2.698   2.195  0.3914 -1.7978  0.5030
10737SOL    HW244685   1.280   2.631   2.206  1.5110  0.2767 -1.3252
10738SOL     OW44686   6.290   2.607   2.789  0.3838 -0.3081  0.0762
10738SOL    HW144687   6.288   2.704   2.765  1.6517 -0.6295 -1.4288
10738SOL    HW244688   6.228   2.590   2.865 -0.3101  1.5761 -0.0457
10739SOL     OW44689   5.028   8.376   7.257 -0.4294  0.1297 -0.1149
10739SOL    HW144690   5.019   8.277   7.242  1.2390 -0.4840  2.7275
10739SOL    HW244691   5.122   8.398   7.282 -1.1514  2.2281  0.8782
10740SOL     OW44692   4.553   1.615   1.801 -0.2979 -0.5489 -0.3044
10740SOL    HW144693   4.543   1.680   1.876 -1.2612  1.6887 -2.3191
10740SOL    HW244694   4.649   1.609   1.774 -0.2147  0.1466 -0.1700
10741SOL     OW44695   2.937   5.817   5.204  0.2532 -0.5105  0.1571
10741SOL    HW144696   2.862   5.882   5.193  0.2580 -0.7796 -1.7005
10741SOL    HW244697   2.941   5.757   5.124  2.1415 -0.8125  0.4448
10742SOL     OW44698   4.517   6.673   6.686 -0.4810  0.1053 -0.4653
10742SOL    HW144699   4.601   6.729   6.683 -0.2720 -0.1547  0.4760
10742SOL    HW244700   4.513   6.615   6.604  0.1182  0.3214 -0.6511
10743SOL     OW44701   5.406   6.450   1.546  0.1563 -0.7696 -0.1131
10743SOL    HW144702   5.449   6.540   1.558 -1.1211 -0.0045 -1.0050
10743SOL    HW244703   5.364   6.422   1.633  2.5702 -1.6169  0.8114
10744SOL     OW44704   2.788   8.973   5.399  0.4549  0.1627 -0.2800
10744SOL    HW144705   2.793   8.937   5.306  0.5255  0.3412 -0.3451
10744SOL    HW244706   2.857   9.044   5.411 -1.5385  2.3061 -1.0582
10745SOL     OW44707   5.534   3.739   2.904  0.2106  0.1138 -0.0139
10745SOL    HW144708   5.511   3.829   2.939 -0.7968 -0.0738 -0.1759
10745SOL    HW244709   5.498   3.669   2.965  1.0825 -0.1868  0.1681
10746SOL     OW44710   7.123   5.390   0.195  0.3472 -0.4022  0.6470
10746SOL    HW144711   7.036   5.415   0.154  1.3198 -0.4858 -1.5228
10746SOL    HW244712   7.142   5.293   0.178  2.7045  0.5162 -2.4703
10747SOL     OW44713   1.663   7.713   7.494 -0.2480  0.0851  0.2220
10747SOL    HW144714   1.596   7.727   7.567  0.0993 -0.4578  0.6493
10747SOL    HW244715   1.755   7.728   7.530  0.0269 -1.7002  0.2970
10748SOL     OW44716   8.484   0.424   7.920  0.1204 -0.5876  0.2225
10748SOL    HW144717   8.469   0.502   7.981 -3.0642 -0.6487 -0.3702
10748SOL    HW244718   8.571   0.434   7.873 -0.4634  2.8885 -0.2344
10749SOL     OW44719   7.889   6.403   6.813  0.0802 -0.4608  0.1785
10749SOL    HW144720   7.941   6.321   6.837  1.4219  0.4879  0.5655
10749SOL    HW244721   7.952   6.477   6.790 -1.0789  1.0764  1.8543
10750SOL     OW44722   0.771   4.664   2.809 -0.5659 -0.1235  0.1122
10750SOL    HW144723   0.714   4.586   2.837  0.6094 -1.3617 -0.8489
10750SOL    HW244724   0.866   4.634   2.804  0.0148  1.6275  0.5871
10751SOL     OW44725   0.820   5.652   0.460  0.4528  0.0744 -0.0077
10751SOL    HW144726   0.735   5.658   0.407 -0.8023  0.9819  2.0590
10751SOL    HW244727   0.845   5.743   0.493  0.6128 -0.6306  1.8725
10752SOL     OW44728   7.556   4.742   3.747  0.3328  0.2123  0.1230
10752SOL    HW144729   7.506   4.720   3.663  1.8067 -1.0051 -0.4769
10752SOL    HW244730   7.492   4.758   3.821 -0.9399 -1.2616 -0.6325
10753SOL     OW44731   0.347   3.675   4.782 -0.0364 -0.2904  0.0512
10753SOL    HW144732   0.249   3.658   4.774 -0.0186  0.1045 -1.2812
10753SOL    HW244733   0.374   3.674   4.878 -1.2441 -0.9396  0.3951
10754SOL     OW44734   5.206   6.879   8.566  0.4900  0.2130 -0.9518
10754SOL    HW144735   5.165   6.902   8.654  1.4114 -0.1594 -0.4130
10754SOL    HW244736   5.143   6.822   8.513 -0.1550  0.6173 -0.6253
10755SOL     OW44737   3.186   5.661   1.775  0.0339 -0.2732  0.2596
10755SOL    HW144738   3.272   5.681   1.821  0.0166  0.1133  0.1320
10755SOL    HW244739   3.139   5.747   1.754  0.0851 -0.4356 -0.5560
10756SOL     OW44740   2.741   3.478   0.348  0.1108 -0.5694 -0.0158
10756SOL    HW144741   2.794   3.562   0.364  1.3786 -1.3744  0.1278
10756SOL    HW244742   2.650   3.487   0.388 -0.6124  1.6269 -1.9920
10757SOL     OW44743   3.568   2.720   7.249  0.0358  0.3016 -0.1905
10757SOL    HW144744   3.489   2.774   7.279  1.0155  1.1937  0.8012
10757SOL    HW244745   3.615   2.682   7.329 -0.6009 -1.9907 -0.8623
10758SOL     OW44746   5.604   5.962   7.447  0.1536 -0.2941 -0.5319
10758SOL    HW144747   5.552   6.020   7.509 -0.7784  0.1377 -1.6923
10758SOL    HW244748   5.584   5.866   7.465 -1.0254 -0.1341 -0.9256
10759SOL     OW44749   5.064   8.960   0.115  0.0594 -0.0045 -0.5989
10759SOL    HW144750   5.094   9.010   0.034 -0.3542 -1.0785 -1.4182
10759SOL    HW244751   4.965   8.971   0.125  0.1505  0.3744 -0.0547
10760SOL     OW44752   0.955   6.226   4.830 -0.2209 -0.5128  0.2098
10760SOL    HW144753   0.991   6.277   4.752  0.3940 -1.1665  0.0599
10760SOL    HW244754   1.014   6.241   4.910 -0.5861 -0.2127  0.4203
10761SOL     OW44755   4.961   7.542   7.631 -0.9205 -0.2811  0.0164
10761SOL    HW144756   4.961   7.642   7.636 -0.4258 -0.3377  1.4192
10761SOL    HW244757   4.896   7.505   7.698 -0.1280 -0.9233  0.4424
10762SOL     OW44758   4.106   2.095   3.658  0.3499 -0.6850 -0.2839
10762SOL    HW144759   4.121   1.997   3.641 -2.5864 -0.8747 -2.1436
10762SOL    HW244760   4.062   2.136   3.579 -1.7888  1.3517  1.8826
10763SOL     OW44761   7.275   5.717   0.413 -0.0203 -0.4662  0.2316
10763SOL    HW144762   7.181   5.695   0.439  0.5538 -0.8933  2.0758
10763SOL    HW244763   7.321   5.634   0.380  0.2502 -0.6786  1.1183
10764SOL     OW44764   5.342   2.459   5.078 -0.4339 -0.2764  0.1799
10764SOL    HW144765   5.335   2.412   5.167  0.1614 -0.1158  0.3149
10764SOL    HW244766   5.423   2.517   5.078 -0.4051 -0.3177 -0.4927
10765SOL     OW44767   1.095   1.063   5.934 -0.1889 -0.0717  0.1499
10765SOL    HW144768   1.003   1.075   5.898  0.0101  0.8482 -0.0624
10765SOL    HW244769   1.162   1.087   5.864  0.2232 -1.2495  0.1250
10766SOL     OW44770   6.976   2.058   3.762 -0.3180  0.4036 -0.3666
10766SOL    HW144771   6.924   2.043   3.678 -0.4001  2.4501 -0.7105
10766SOL    HW244772   7.063   2.102   3.740 -0.0051  0.2580  0.5621
10767SOL     OW44773   6.036   0.222   6.754  0.2344 -0.2498  0.0183
10767SOL    HW144774   6.107   0.156   6.776  0.2157 -0.4694 -0.5769
10767SOL    HW244775   6.047   0.254   6.660  0.7916  1.2786  0.5730
10768SOL     OW44776   4.737   8.847   2.649 -0.8523 -0.0948 -0.6218
10768SOL    HW144777   4.738   8.947   2.650  1.0166 -0.0992  0.6441
10768SOL    HW244778   4.701   8.813   2.736 -1.4745 -0.5265 -1.0465
10769SOL     OW44779   2.303   4.846   8.332  0.8449  0.1746 -0.2198
10769SOL    HW144780   2.402   4.837   8.335  0.5925 -2.6400  0.6085
10769SOL    HW244781   2.261   4.774   8.386 -1.6944  0.9228 -1.1243
10770SOL     OW44782   1.892   5.308   6.134 -0.1029 -0.2882  0.5353
10770SOL    HW144783   1.843   5.245   6.195 -1.4274  0.3614  0.1445
10770SOL    HW244784   1.975   5.263   6.101 -0.4397 -1.4105  1.1793
10771SOL     OW44785   1.902   7.392   0.509  0.1958 -0.0430 -0.6562
10771SOL    HW144786   1.849   7.472   0.480 -3.3902 -1.4465  1.7517
10771SOL    HW244787   1.993   7.422   0.538 -1.0758  3.2101  0.2672
10772SOL     OW44788   1.233   2.845   4.128 -0.3977 -0.0739  0.5561
10772SOL    HW144789   1.253   2.831   4.031  1.2319  2.3336  0.4960
10772SOL    HW244790   1.136   2.868   4.139 -0.8446 -1.4414 -0.3634
10773SOL     OW44791   3.392   2.834   0.551  0.2082 -0.3186  0.5093
10773SOL    HW144792   3.419   2.856   0.644 -1.3059  1.2164  0.6212
10773SOL    HW244793   3.469   2.794   0.502  0.8686 -1.6522  2.5614
10774SOL     OW44794   3.650   7.421   3.134 -0.0697 -0.0871  0.1584
10774SOL    HW144795   3.573   7.470   3.094 -0.5707  0.9533  2.3504
10774SOL    HW244796   3.732   7.435   3.078 -0.8098  1.1486 -0.6210
10775SOL     OW44797   3.706   6.218   2.054 -0.2274 -0.0521 -0.4525
10775SOL    HW144798   3.794   6.225   2.008  0.0264 -2.0717 -0.2823
10775SOL    HW244799   3.705   6.279   2.134  0.6101  0.7533 -1.0467
10776SOL     OW44800   8.864   8.076   8.296  0.0314 -0.4142  0.5467
10776SOL    HW144801   8.830   8.098   8.387  0.4414 -0.7162  0.7750
10776SOL    HW244802   8.792   8.093   8.228  0.1207  0.9565  0.7936
10777SOL     OW44803   1.132   5.892   8.341  0.0104 -0.0652 -0.5637
10777SOL    HW144804   1.058   5.841   8.386  0.7323  0.2382  1.0304
10777SOL    HW244805   1.201   5.916   8.409  0.2411  2.0451 -1.5059
10778SOL     OW44806   4.019   1.189   0.073  0.6614  0.3066 -0.4582
10778SOL    HW144807   4.077   1.153  -0.000  0.6372  0.2003 -0.4250
10778SOL    HW244808   3.977   1.112   0.122 -0.2087  0.4026 -1.0491
10779SOL     OW44809   5.752   6.241   7.384 -0.5584  0.0090  0.2556
10779SOL    HW144810   5.821   6.238   7.312 -0.6323 -0.0502  0.1880
10779SOL    HW244811   5.762   6.326   7.436 -0.4346 -0.0001  0.2464
10780SOL     OW44812   4.615   2.425   7.222  0.1381  0.3823  0.2522
10780SOL    HW144813   4.518   2.405   7.214  0.1532  0.7157 -0.9480
10780SOL    HW244814   4.649   2.394   7.310 -1.0083  0.0677  0.5880
10781SOL     OW44815   2.639   2.771   1.922 -0.4851  0.3354  0.3384
10781SOL    HW144816   2.605   2.835   1.991  0.2006 -0.6277  1.5936
10781SOL    HW244817   2.580   2.690   1.920  1.0591 -0.8707  1.7753
10782SOL     OW44818   8.763   2.255   2.838  0.3923  0.6214 -0.0592
10782SOL    HW144819   8.777   2.323   2.910  2.1267  1.9884 -1.6555
10782SOL    HW244820   8.705   2.294   2.766  0.0248 -0.1653 -0.1963
10783SOL     OW44821   8.133   3.047   0.895 -0.5463  0.4527 -0.7838
10783SOL    HW144822   8.132   3.119   0.825  1.2155  0.2232 -1.0611
10783SOL    HW244823   8.195   2.974   0.867  1.3498  1.0651  1.6907
10784SOL     OW44824   7.075   4.077   5.114 -0.4085 -0.2669  0.2118
10784SOL    HW144825   7.030   4.127   5.040  0.4057 -1.3042 -1.0142
10784SOL    HW244826   7.111   3.991   5.078  3.7942  1.1396  0.8320
10785SOL     OW44827   0.482   6.764   3.725 -0.0857  0.2698  1.1054
10785SOL    HW144828   0.516   6.799   3.637 -3.0279 -1.6652 -0.9226
10785SOL    HW244829   0.545   6.695   3.760  1.4620  1.5380  0.9105
10786SOL     OW44830   3.991   1.643   4.112  0.0232  0.0609  0.4469
10786SOL    HW144831   4.044   1.591   4.045  0.8312  0.4779  0.7564
10786SOL    HW244832   4.005   1.741   4.096 -0.8085  0.1781  0.4097
10787SOL     OW44833   5.986   7.120   7.577  0.6912  0.9780  0.4385
10787SOL    HW144834   5.985   7.194   7.509 -0.3236  1.0903  0.5695
10787SOL    HW244835   6.069   7.066   7.565 -0.6396 -0.5415 -2.5634
10788SOL     OW44836   3.521   3.276   1.818 -0.3569  0.4096  0.0391
10788SOL    HW144837   3.486   3.190   1.854  0.7130 -0.9849 -2.0984
10788SOL    HW244838   3.448   3.345   1.818 -2.0026 -1.2825 -0.7237
10789SOL     OW44839   8.990   7.857   2.147  0.0805 -0.8422 -0.4164
10789SOL    HW144840   8.925   7.789   2.183 -1.1178  1.2746  1.5457
10789SOL    HW244841   9.080   7.815   2.137 -0.5348 -2.6130  1.1402
10790SOL     OW44842   0.900   3.812   6.042 -0.1653 -0.3191  0.1370
10790SOL    HW144843   0.912   3.867   5.959  0.5552 -0.0380  0.4197
10790SOL    HW244844   0.958   3.849   6.115 -1.6533  0.1158  1.1078
10791SOL     OW44845   4.027   5.937   6.010 -0.1314 -0.2905 -0.5907
10791SOL    HW144846   3.951   5.875   5.991  0.1987 -1.0576  0.5592
10791SOL    HW244847   3.997   6.009   6.072  0.3930 -1.3202  0.8866
10792SOL     OW44848   1.446   7.756   7.665  0.1511  0.0976  0.0700
10792SOL    HW144849   1.464   7.693   7.740 -0.2172  0.6231  0.6036
10792SOL    HW244850   1.371   7.721   7.609  0.5576 -0.3926 -0.1769
10793SOL     OW44851   5.748   7.772   6.969  0.3438  0.2955  0.1289
10793SOL    HW144852   5.666   7.830   6.965 -1.3065 -1.9066  0.9321
10793SOL    HW244853   5.793   7.771   6.880 -0.5505  1.4611 -0.3496
10794SOL     OW44854   0.558   5.462   2.466 -0.3449 -0.4202  0.2147
10794SOL    HW144855   0.608   5.492   2.385 -1.0933 -0.6443 -0.3255
10794SOL    HW244856   0.481   5.406   2.439  0.8527 -2.5979  1.2111
10795SOL     OW44857   3.592   2.695   7.633 -0.0663 -0.2617  0.0319
10795SOL    HW144858   3.605   2.794   7.629  0.7553 -0.3661  0.1024
10795SOL    HW244859   3.592   2.665   7.728  0.0652 -0.3794 -0.0058
10796SOL     OW44860   5.130   5.154   6.402 -0.4967 -0.1920  0.5423
10796SOL    HW144861   5.100   5.238   6.357 -0.0994  1.0191  2.4850
10796SOL    HW244862   5.225   5.135   6.377 -0.1244  0.7383  1.2202
10797SOL     OW44863   6.090   3.566   4.324  0.1435 -0.1535 -0.9429
10797SOL    HW144864   6.177   3.575   4.372 -0.6433  0.2866  0.4177
10797SOL    HW244865   6.040   3.652   4.331 -0.9857 -0.8419 -0.5727
10798SOL     OW44866   4.338   3.228   7.675  0.2445  0.0644  0.2185
10798SOL    HW144867   4.403   3.262   7.742 -0.6838 -0.2752  1.3007
10798SOL    HW244868   4.302   3.305   7.622 -0.4193  0.5703  1.3811
10799SOL     OW44869   2.038   3.689   3.908 -0.2001  0.6881  0.0562
10799SOL    HW144870   2.023   3.760   3.840 -0.5187  0.5423 -0.0247
10799SOL    HW244871   2.072   3.730   3.993  0.0723  0.8831 -0.1466
10800SOL     OW44872   1.920   1.712   8.807  0.2788  0.0945 -0.0671
10800SOL    HW144873   1.925   1.648   8.884  1.2993  1.4312  0.9860
10800SOL    HW244874   2.006   1.710   8.756 -0.8132 -1.6480 -1.8868
10801SOL     OW44875   7.718   0.231   1.660  0.2302 -0.7778 -0.0594
10801SOL    HW144876   7.710   0.179   1.575 -1.2734  3.2917 -2.5957
10801SOL    HW244877   7.810   0.271   1.666  0.2328 -0.8026  0.0713
10802SOL     OW44878   4.875   1.784   7.209  0.0553 -0.4693 -0.0226
10802SOL    HW144879   4.928   1.824   7.135 -0.1860 -0.6037 -0.2710
10802SOL    HW244880   4.885   1.684   7.206 -2.7125 -0.7580 -2.0306
10803SOL     OW44881   4.600   2.010   1.749 -0.5511 -0.0329  0.1339
10803SOL    HW144882   4.605   1.987   1.652 -0.7463 -2.8536  0.7724
10803SOL    HW244883   4.507   1.993   1.783 -0.1414 -0.3578  1.1261
10804SOL     OW44884   4.221   1.218   2.398  0.0177  0.3078 -0.2585
10804SOL    HW144885   4.277   1.292   2.436 -0.5627  1.0782 -0.8968
10804SOL    HW244886   4.177   1.249   2.314  0.4205 -1.0275 -0.9757
10805SOL     OW44887   1.485   1.470   0.385  0.0958 -0.1142 -0.7170
10805SOL    HW144888   1.429   1.440   0.308 -0.7454  1.2781 -0.6598
10805SOL    HW244889   1.486   1.569   0.389  0.4450 -0.1666  0.8427
10806SOL     OW44890   1.917   6.427   5.335  0.1106 -0.4855 -0.6685
10806SOL    HW144891   1.877   6.483   5.407  0.1187 -0.5852 -0.5863
10806SOL    HW244892   1.940   6.484   5.257  0.8172 -0.2491 -0.2940
10807SOL     OW44893   4.111   3.706   8.786 -0.1299  0.0075 -0.2996
10807SOL    HW144894   4.189   3.738   8.733 -0.9037  0.8033 -0.9734
10807SOL    HW244895   4.116   3.606   8.798 -0.7192 -0.3916 -3.1455
10808SOL     OW44896   2.522   2.902   4.884 -0.2223  0.0868 -0.1650
10808SOL    HW144897   2.576   2.870   4.962 -0.8217 -1.5439 -0.4081
10808SOL    HW244898   2.427   2.913   4.911 -0.2371  0.5422 -0.3948
10809SOL     OW44899   1.455   6.006   7.307 -0.0136  0.1114 -0.2601
10809SOL    HW144900   1.362   5.969   7.307 -0.0841  0.2870 -0.1154
10809SOL    HW244901   1.482   6.026   7.401 -0.1333  0.8226 -0.3734
10810SOL     OW44902   0.851   5.912   0.548 -0.2459 -0.0587  0.2053
10810SOL    HW144903   0.930   5.973   0.557  0.3381 -0.9547  1.2103
10810SOL    HW244904   0.767   5.967   0.539  0.3016  0.8920  0.8231
10811SOL     OW44905   5.845   3.143   6.022 -0.3314 -0.1060 -0.2578
10811SOL    HW144906   5.912   3.099   6.083 -0.1395 -0.1204 -0.4818
10811SOL    HW244907   5.753   3.113   6.049 -0.1958 -0.7362 -0.4786
10812SOL     OW44908   8.147   6.553   6.616 -0.1744 -0.6371 -0.0988
10812SOL    HW144909   8.202   6.471   6.627  1.8296  0.6703  0.0247
10812SOL    HW244910   8.070   6.535   6.556  0.0220 -2.6847  0.2453
10813SOL     OW44911   7.161   6.585   8.317 -0.5311  0.0095 -0.2898
10813SOL    HW144912   7.129   6.651   8.249 -1.4669  0.2827  0.4082
10813SOL    HW244913   7.254   6.558   8.295  0.3523  2.5312  0.0963
10814SOL     OW44914   2.084   2.601   7.809  0.0388  1.0492 -0.0921
10814SOL    HW144915   2.154   2.546   7.854 -1.9449  0.1658  2.0305
10814SOL    HW244916   2.081   2.578   7.712  0.5273 -1.2365  0.4012
10815SOL     OW44917   4.802   4.091   5.666  0.3905  0.6723  0.5609
10815SOL    HW144918   4.829   4.060   5.575 -0.9777  1.7335 -0.2191
10815SOL    HW244919   4.740   4.024   5.708  0.9790  0.2113  0.6960
10816SOL     OW44920   1.715   0.635   8.345 -0.6394  0.2258  0.4795
10816SOL    HW144921   1.788   0.601   8.404 -1.3329  0.7193  1.6333
10816SOL    HW244922   1.627   0.600   8.377 -0.8868 -0.7599 -1.1875
10817SOL     OW44923   0.576   1.521   7.881 -0.1264  0.4142 -0.3597
10817SOL    HW144924   0.647   1.557   7.940  0.1593 -1.2042  0.3109
10817SOL    HW244925   0.562   1.424   7.901 -1.3614  0.3153 -1.6246
10818SOL     OW44926   1.535   4.567   0.741  0.0833 -0.4861 -0.0479
10818SOL    HW144927   1.466   4.613   0.796  0.4294  0.6560 -0.5654
10818SOL    HW244928   1.551   4.475   0.778 -1.3082 -0.5652  0.4017
10819SOL     OW44929   3.900   0.856   7.283 -0.8432 -0.1568  0.2642
10819SOL    HW144930   3.997   0.849   7.304 -0.1800 -0.0624 -2.5449
10819SOL    HW244931   3.862   0.765   7.271 -1.6275 -0.2957  3.3806
10820SOL     OW44932   4.620   3.328   2.677 -0.8934 -0.2535  0.3220
10820SOL    HW144933   4.689   3.299   2.610  2.4913 -0.3786  3.7195
10820SOL    HW244934   4.567   3.249   2.707  0.0022 -0.8004  0.4670
10821SOL     OW44935   7.796   4.512   6.627 -0.5022  0.2268 -0.0700
10821SOL    HW144936   7.877   4.463   6.596 -1.4499 -1.0382 -0.5699
10821SOL    HW244937   7.819   4.609   6.639  1.6677 -0.4778  1.9604
10822SOL     OW44938   3.188   5.400   8.881 -0.2915  0.6610  0.6992
10822SOL    HW144939   3.174   5.488   8.925 -2.6830  1.3697 -1.3232
10822SOL    HW244940   3.136   5.330   8.930  1.5417  0.3643  2.2543
10823SOL     OW44941   4.015   1.622   6.015  0.3880  0.5729 -0.0781
10823SOL    HW144942   4.038   1.628   6.113 -1.9420  0.9502  0.4679
10823SOL    HW244943   3.994   1.527   5.992 -0.4545  0.7088  0.1203
10824SOL     OW44944   8.326   4.185   1.968 -0.2682  0.2943 -0.1442
10824SOL    HW144945   8.242   4.239   1.969 -1.5949 -1.7192  1.0987
10824SOL    HW244946   8.306   4.093   1.933  1.8364  0.3925 -1.7430
10825SOL     OW44947   4.882   0.765   1.218 -0.1293 -0.6036 -0.2390
10825SOL    HW144948   4.876   0.864   1.231  1.0589 -0.5632  0.0244
10825SOL    HW244949   4.854   0.719   1.302  1.7920 -0.4409  0.5021
10826SOL     OW44950   7.598   1.165   0.042  0.4229 -0.0592  0.0046
10826SOL    HW144951   7.508   1.137   0.006  0.3679 -0.4308  0.4305
10826SOL    HW244952   7.584   1.232   0.115  0.5257  0.5240 -0.5114
10827SOL     OW44953   0.103   6.032   5.178  0.0501  0.0494 -0.0466
10827SOL    HW144954   0.107   5.948   5.124 -1.2192 -0.6406  0.9117
10827SOL    HW244955   0.008   6.063   5.185  0.4381  1.2449  0.0972
10828SOL     OW44956   1.938   3.014   6.194 -0.5169  0.5259 -0.1250
10828SOL    HW144957   1.875   2.937   6.183  2.5072 -2.1281  0.3255
10828SOL    HW244958   1.989   3.029   6.108  2.5160 -1.3815  1.2466
10829SOL     OW44959   6.282   6.660   8.726 -0.7541  0.0057  0.3470
10829SOL    HW144960   6.206   6.617   8.775  0.7126  0.4985  3.1132
10829SOL    HW244961   6.251   6.745   8.684 -2.9959 -2.2838 -2.9183
10830SOL     OW44962   2.576   6.763   0.521  0.0095  0.2696  0.1102
10830SOL    HW144963   2.624   6.767   0.608 -1.6352  0.6854  1.0148
10830SOL    HW244964   2.640   6.780   0.446  1.3036  0.5289  1.2719
10831SOL     OW44965   7.632   2.876   0.737  0.2187  0.5579  0.6068
10831SOL    HW144966   7.670   2.846   0.825 -1.3768  0.2432  1.2206
10831SOL    HW244967   7.535   2.850   0.733  1.2841 -3.4813 -3.0655
10832SOL     OW44968   2.854   8.499   4.354  0.2517  0.2578  0.1363
10832SOL    HW144969   2.904   8.419   4.387  2.2017  1.2811 -0.2285
10832SOL    HW244970   2.879   8.517   4.259 -0.9311  0.7310 -0.0986
10833SOL     OW44971   2.099   4.940   7.166  0.5427 -0.3608  0.0299
10833SOL    HW144972   2.089   5.027   7.119 -0.6380 -0.9340 -0.8002
10833SOL    HW244973   2.045   4.941   7.250 -1.6446 -1.2244 -1.3229
10834SOL     OW44974   1.821   7.008   3.866  0.3112  0.2962  0.1272
10834SOL    HW144975   1.847   6.934   3.804 -0.8490  1.5496 -1.9456
10834SOL    HW244976   1.728   6.992   3.899  0.6910 -0.0379  1.0459
10835SOL     OW44977   5.332   4.900   1.135  0.0174 -0.2054  0.0217
10835SOL    HW144978   5.422   4.857   1.141 -0.3372 -0.6981  2.2246
10835SOL    HW244979   5.269   4.837   1.090  0.0114 -1.1996  1.3777
10836SOL     OW44980   6.675   7.650   1.740 -0.1602  0.1660 -0.0219
10836SOL    HW144981   6.611   7.673   1.666  1.3954 -2.0849 -2.1754
10836SOL    HW244982   6.640   7.572   1.791  0.4338 -0.5645 -0.7032
10837SOL     OW44983   8.170   2.041   7.189 -0.0991  0.1339 -0.6440
10837SOL    HW144984   8.077   2.006   7.179  0.0216 -0.5535  0.4979
10837SOL    HW244985   8.233   1.964   7.204  0.3108  0.7709  0.9245
10838SOL     OW44986   5.722   2.134   1.244  0.1327  0.0325  0.5103
10838SOL    HW144987   5.667   2.092   1.171  0.4918  0.3373  0.0620
10838SOL    HW244988   5.817   2.137   1.215 -0.0639  2.2632  0.0352
10839SOL     OW44989   0.850   7.139   1.460 -0.4284  0.1967  0.5858
10839SOL    HW144990   0.918   7.204   1.426 -0.3590  1.4315  2.9654
10839SOL    HW244991   0.758   7.177   1.446 -0.5419 -0.4562 -0.5384
10840SOL     OW44992   4.778   4.303   0.323 -0.0614 -0.2764  0.3617
10840SOL    HW144993   4.786   4.373   0.395 -0.1796 -0.2360  0.3353
10840SOL    HW244994   4.859   4.306   0.265 -0.3295  0.2202  0.0149
10841SOL     OW44995   5.269   4.143   8.310 -0.0472  0.0466  0.1767
10841SOL    HW144996   5.179   4.142   8.266 -0.3310 -0.2688  0.7557
10841SOL    HW244997   5.330   4.081   8.262 -0.2223  0.0378 -0.0389
10842SOL     OW44998   6.386   6.161   6.157  0.1648 -0.4024 -0.6264
10842SOL    HW144999   6.384   6.070   6.198  1.6058  0.4672  1.4961
10842SOL    HW245000   6.478   6.182   6.125 -0.3584 -0.0285 -1.9179
10843SOL     OW45001   7.386   4.922   7.213 -0.1511  0.1654  0.0647
10843SOL    HW145002   7.384   5.009   7.165  0.7054 -0.2514 -0.7248
10843SOL    HW245003   7.374   4.847   7.148  0.3563 -0.3732  0.5819
10844SOL     OW45004   0.864   5.422   7.933 -0.0942 -0.6882 -0.2956
10844SOL    HW145005   0.844   5.403   7.837  2.2283 -0.9629 -0.7562
10844SOL    HW245006   0.914   5.508   7.940 -0.0867 -0.7649  0.6473
10845SOL     OW45007   3.968   2.857   5.693 -0.6283  0.0770  0.2116
10845SOL    HW145008   3.948   2.759   5.681 -2.1057  0.2673  0.9588
10845SOL    HW245009   3.883   2.906   5.711  0.1588  1.4507  0.2560
10846SOL     OW45010   8.048   6.364   4.319  0.2669 -0.4690 -0.3249
10846SOL    HW145011   8.104   6.361   4.402 -1.5963  2.5181  1.1346
10846SOL    HW245012   8.102   6.403   4.244  0.7632  0.5754  0.5553
10847SOL     OW45013   5.565   3.322   6.723 -0.2791 -0.2369 -0.2273
10847SOL    HW145014   5.607   3.240   6.685  0.2074  0.7367 -1.8618
10847SOL    HW245015   5.466   3.308   6.733  0.0009 -1.4940  0.8229
10848SOL     OW45016   4.036   1.668   5.733 -0.4671  0.6928 -0.0529
10848SOL    HW145017   4.025   1.682   5.831  0.3301 -1.3916  0.3574
10848SOL    HW245018   4.017   1.572   5.711  2.7892  0.2919 -1.3892
10849SOL     OW45019   6.057   2.847   0.446 -0.7507  0.2371 -0.1901
10849SOL    HW145020   5.962   2.834   0.475 -1.0752  1.1205 -0.8068
10849SOL    HW245021   6.081   2.944   0.454  0.0578  0.0397 -0.1770
10850SOL     OW45022   8.863   6.209   2.864 -0.3017 -0.1090 -0.1560
10850SOL    HW145023   8.834   6.165   2.949 -2.0634 -0.2221 -0.7817
10850SOL    HW245024   8.962   6.204   2.855 -0.4250 -3.7871 -0.1092
10851SOL     OW45025   2.592   4.264   6.759 -0.0577  0.0962  0.3466
10851SOL    HW145026   2.564   4.169   6.776  2.4889 -0.7263  0.0949
10851SOL    HW245027   2.678   4.265   6.708 -0.4662  2.5613 -0.3492
10852SOL     OW45028   8.094   7.499   1.658  0.0317 -0.5089 -0.4372
10852SOL    HW145029   8.050   7.412   1.681  1.7354 -1.6072 -1.2663
10852SOL    HW245030   8.185   7.482   1.620  1.5062  1.7469  1.9306
10853SOL     OW45031   2.701   0.279   5.146 -0.2234  0.1054  0.5204
10853SOL    HW145032   2.636   0.272   5.221  1.1006  1.4062  1.8172
10853SOL    HW245033   2.685   0.365   5.096  0.2551  0.2684  0.6387
10854SOL     OW45034   4.481   5.127   7.310  0.0253 -0.8954 -0.1669
10854SOL    HW145035   4.473   5.098   7.214 -1.5016 -0.8818 -0.0443
10854SOL    HW245036   4.552   5.072   7.355 -1.5820 -3.2363 -0.4154
10855SOL     OW45037   2.700   3.110   7.875  0.4553  0.5721 -0.3014
10855SOL    HW145038   2.664   3.025   7.913  0.4969  0.4993 -0.4220
10855SOL    HW245039   2.793   3.126   7.910  0.1697  0.9449  0.2853
10856SOL     OW45040   2.724   7.629   4.053 -0.1766  0.2666 -0.2691
10856SOL    HW145041   2.800   7.568   4.030 -1.4766 -1.2776 -0.6051
10856SOL    HW245042   2.687   7.669   3.970  0.4393  1.2283 -0.0805
10857SOL     OW45043   6.987   1.384   2.353  0.4502  1.0229 -0.2830
10857SOL    HW145044   7.028   1.431   2.432  1.2942 -0.7035  0.3268
10857SOL    HW245045   6.996   1.285   2.364 -1.8470  0.6599 -1.2664
10858SOL     OW45046   3.800   2.312   4.993  0.3579  0.0083 -0.2947
10858SOL    HW145047   3.723   2.248   4.990  1.3139 -1.2869  1.5079
10858SOL    HW245048   3.770   2.402   4.962 -1.7774 -0.5946 -0.0424
10859SOL     OW45049   4.678   5.187   2.123 -0.7654  0.1704  0.3569
10859SOL    HW145050   4.662   5.264   2.185  1.0926 -0.4824  1.6827
10859SOL    HW245051   4.612   5.115   2.143  0.9073 -0.7576  2.8537
10860SOL     OW45052   0.908   1.084   0.184  0.2964  0.3508  0.1573
10860SOL    HW145053   0.913   1.172   0.137  1.5192 -0.1267 -0.6168
10860SOL    HW245054   0.882   1.013   0.119  0.3902 -0.0534  0.5593
10861SOL     OW45055   5.225   7.641   5.141  0.2968 -0.5141  0.4773
10861SOL    HW145056   5.271   7.707   5.082  1.0363 -0.8212  0.7135
10861SOL    HW245057   5.281   7.623   5.222  0.7085 -2.4189 -0.2065
10862SOL     OW45058   6.440   6.882   8.879  0.1550  0.5516 -0.2607
10862SOL    HW145059   6.470   6.789   8.858 -1.9102 -0.4619  1.1513
10862SOL    HW245060   6.460   6.904   8.974 -0.2511  1.2060 -0.3202
10863SOL     OW45061   3.057   6.539   7.372  0.0333  0.2315 -0.1951
10863SOL    HW145062   3.113   6.548   7.454  0.7659 -0.5382 -0.6104
10863SOL    HW245063   2.969   6.586   7.387  2.3531  5.0945 -1.0501
10864SOL     OW45064   1.645   6.819   1.411  0.3793 -0.0045  0.0627
10864SOL    HW145065   1.623   6.864   1.497 -1.1713  1.3501 -0.9998
10864SOL    HW245066   1.589   6.737   1.400  0.0942  0.1928  0.0444
10865SOL     OW45067   6.233   1.370   8.363  0.2766  0.1925 -0.4393
10865SOL    HW145068   6.198   1.315   8.439  1.3592 -0.1220 -0.1570
10865SOL    HW245069   6.329   1.394   8.380  0.1412  1.2236 -1.0934
10866SOL     OW45070   0.046   4.423   7.042  0.2381  0.8172 -0.0778
10866SOL    HW145071   0.027   4.473   7.126  0.9032  2.5319 -0.9305
10866SOL    HW245072  -0.024   4.444   6.974  1.0079  1.2939 -0.7317
10867SOL     OW45073   6.879   6.393   7.212 -0.4419 -0.1183  0.1385
10867SOL    HW145074   6.797   6.335   7.216 -0.9651  0.5607 -0.6654
10867SOL    HW245075   6.958   6.337   7.186 -0.4478 -0.9713  1.8730
10868SOL     OW45076   5.744   4.093   5.780 -0.0249 -0.1180  0.2987
10868SOL    HW145077   5.787   4.066   5.866  0.1644 -0.2326  0.1656
10868SOL    HW245078   5.810   4.140   5.723 -0.7771  2.1472  1.2254
10869SOL     OW45079   4.120   1.772   6.593 -0.1492 -0.0058  0.4876
10869SOL    HW145080   4.160   1.746   6.505 -1.0836 -0.6081  0.2218
10869SOL    HW245081   4.145   1.704   6.662  1.3938  0.9857  0.9297
10870SOL     OW45082   5.890   4.306   8.409  0.3858 -0.0554  0.3319
10870SOL    HW145083   5.837   4.317   8.325 -0.5335 -0.6912  0.8191
10870SOL    HW245084   5.828   4.303   8.487  1.1133 -1.0543  0.8856
10871SOL     OW45085   1.330   2.449   1.730  0.1557 -0.3649 -0.3956
10871SOL    HW145086   1.281   2.533   1.757  0.4935 -0.5370  0.7925
10871SOL    HW245087   1.347   2.393   1.811 -0.9774 -2.0881 -1.3181
10872SOL     OW45088   2.227   1.828   0.398  0.2995  0.1819 -0.4735
10872SOL    HW145089   2.323   1.824   0.428  0.0930  1.6131  0.4565
10872SOL    HW245090   2.188   1.736   0.396  1.8451 -0.4769 -1.3771
10873SOL     OW45091   4.071   7.313   3.055  0.7647  0.1825 -0.2349
10873SOL    HW145092   4.043   7.370   3.132  0.4770  2.6374 -2.0931
10873SOL    HW245093   4.160   7.273   3.073  2.1064  3.2134  0.1358
10874SOL     OW45094   4.818   8.409   7.446  0.0837 -0.2746  0.2077
10874SOL    HW145095   4.884   8.384   7.376 -1.0566 -1.8364 -0.3487
10874SOL    HW245096   4.845   8.371   7.534 -0.0190 -0.8020  0.0079
10875SOL     OW45097   3.266   2.930   7.583  0.7115  0.3930 -0.0865
10875SOL    HW145098   3.282   2.886   7.495  3.4271  1.0511  0.0402
10875SOL    HW245099   3.313   3.019   7.585 -0.9865  1.2802  1.2978
10876SOL     OW45100   0.590   4.714   1.413 -0.1506  0.3436 -0.3800
10876SOL    HW145101   0.653   4.638   1.429  1.7149  2.3274  2.1456
10876SOL    HW245102   0.510   4.704   1.472 -0.1763  0.0309 -0.4682
10877SOL     OW45103   0.900   2.259   8.810  0.1940 -0.5056 -0.4846
10877SOL    HW145104   0.897   2.204   8.894 -0.9554  0.1745 -0.0756
10877SOL    HW245105   0.881   2.355   8.833  1.5978 -0.0166 -1.2788
10878SOL     OW45106   2.202   5.545   0.184 -0.3213 -0.7959  0.3684
10878SOL    HW145107   2.299   5.563   0.172 -0.4821  1.5302  2.2917
10878SOL    HW245108   2.190   5.460   0.234  0.8544  0.6761  3.2432
10879SOL     OW45109   4.204   5.699   6.450 -0.4431 -0.1662  0.2614
10879SOL    HW145110   4.197   5.654   6.361  1.8307 -0.9081  0.4282
10879SOL    HW245111   4.208   5.798   6.437  0.2378 -0.2834 -0.4964
10880SOL     OW45112   8.145   0.616   5.790  0.4661 -0.2479 -0.0489
10880SOL    HW145113   8.090   0.552   5.842  0.7946  0.3940  1.1231
10880SOL    HW245114   8.086   0.685   5.748  0.2525 -0.3763  0.0433
10881SOL     OW45115   7.799   2.375   6.129 -0.2285  0.2930  0.6864
10881SOL    HW145116   7.796   2.379   6.229 -1.9261 -1.5503  0.7282
10881SOL    HW245117   7.723   2.426   6.091 -1.5896 -1.8912  0.4346
10882SOL     OW45118   2.770   4.026   7.957  0.5173  0.0356  0.4511
10882SOL    HW145119   2.776   4.118   7.920  1.1569 -0.6711 -1.2540
10882SOL    HW245120   2.831   3.965   7.906 -0.0586 -1.3744  1.3979
10883SOL     OW45121   1.672   1.131   0.782  0.1105  0.3061 -0.7016
10883SOL    HW145122   1.670   1.089   0.872 -1.6600  0.9872 -0.4044
10883SOL    HW245123   1.705   1.065   0.715  0.5825 -0.4869  0.3005
10884SOL     OW45124   6.592   6.150   5.558  0.3156  0.2357  0.1344
10884SOL    HW145125   6.662   6.213   5.593  1.1490 -0.4444 -0.2988
10884SOL    HW245126   6.607   6.059   5.597 -0.8362  0.2698  0.6877
10885SOL     OW45127   4.900   2.180   5.479 -0.9871  0.1316 -0.3197
10885SOL    HW145128   4.996   2.200   5.499 -0.8763  1.4225 -2.0428
10885SOL    HW245129   4.892   2.086   5.444 -0.5268 -0.3852  0.9283
10886SOL     OW45130   0.768   4.039   0.640  0.8484 -1.1328  0.5500
10886SOL    HW145131   0.712   3.967   0.598 -0.9383  1.0751 -0.9775
10886SOL    HW245132   0.857   4.042   0.595 -0.5079  0.1973 -2.1516
10887SOL     OW45133   5.645   6.154   8.864 -0.3291  0.1695  0.1274
10887SOL    HW145134   5.599   6.205   8.936 -1.4000 -0.4790 -0.0888
10887SOL    HW245135   5.743   6.147   8.885 -0.5827  0.2258  1.3655
10888SOL     OW45136   0.268   2.430   4.549 -0.4094 -0.4404  0.2897
10888SOL    HW145137   0.361   2.414   4.516  0.8267  0.1388  3.3374
10888SOL    HW245138   0.260   2.397   4.643 -2.7633  1.2088  0.7160
10889SOL     OW45139   1.682   6.361   7.655 -0.8665 -0.4625  0.0404
10889SOL    HW145140   1.583   6.378   7.658 -0.6659  0.4363  2.0591
10889SOL    HW245141   1.726   6.431   7.601 -1.1769 -0.0517  0.3158
10890SOL     OW45142   7.749   5.494   6.091  0.0059 -0.8850  0.4550
10890SOL    HW145143   7.831   5.507   6.148  0.2607 -1.4625  0.2157
10890SOL    HW245144   7.699   5.413   6.122 -0.9173 -0.0797  1.1257
10891SOL     OW45145   3.350   3.176   1.389  0.1360  0.3469  0.1711
10891SOL    HW145146   3.313   3.123   1.312  1.3586 -1.4349  0.7643
10891SOL    HW245147   3.282   3.180   1.461  0.6556 -2.0615  0.8554
10892SOL     OW45148   5.517   4.204   0.738  0.1188  0.6343 -0.4722
10892SOL    HW145149   5.456   4.242   0.807 -0.7733  0.0447 -0.9191
10892SOL    HW245150   5.516   4.104   0.744  0.5027  0.6001 -0.9415
10893SOL     OW45151   2.604   3.812   1.813 -0.3127 -0.4704 -0.6227
10893SOL    HW145152   2.519   3.819   1.866 -0.1854 -0.0297 -0.4723
10893SOL    HW245153   2.649   3.725   1.834 -0.6010 -0.5940 -0.5105
10894SOL     OW45154   2.297   1.666   0.690 -0.4900 -0.1089  0.1641
10894SOL    HW145155   2.380   1.675   0.745 -0.8635 -0.3083  0.7640
10894SOL    HW245156   2.250   1.755   0.686 -1.5301 -0.5670  1.8736
10895SOL     OW45157   4.007   6.289   6.373  0.0290 -0.0319  0.1223
10895SOL    HW145158   4.005   6.269   6.471  0.3162 -0.2363  0.0877
10895SOL    HW245159   4.006   6.388   6.359 -1.8439 -0.0071  0.2852
10896SOL     OW45160   6.440   5.407   1.378  0.5609 -0.4080  0.5341
10896SOL    HW145161   6.347   5.441   1.392  0.1860 -0.8619 -0.8349
10896SOL    HW245162   6.503   5.484   1.377 -0.0530  0.0977 -0.5988
10897SOL     OW45163   1.494   2.635   5.119  0.3361 -0.3736 -0.1724
10897SOL    HW145164   1.437   2.685   5.053  0.4254 -0.3878 -0.2590
10897SOL    HW245165   1.585   2.622   5.081  0.4296 -0.2563  0.0119
10898SOL     OW45166   4.580   1.422   8.825  0.2261 -0.4930  0.0253
10898SOL    HW145167   4.555   1.466   8.911  0.1540  0.8090 -0.6391
10898SOL    HW245168   4.633   1.486   8.769 -1.4789 -0.5614 -1.7545
10899SOL     OW45169   7.024   2.604   7.995 -0.1510  0.3107 -0.1442
10899SOL    HW145170   7.103   2.608   7.934  0.0441  0.9115  0.1453
10899SOL    HW245171   7.044   2.655   8.079 -0.8922  0.5636 -0.1224
10900SOL     OW45172   4.210   4.749   7.600  0.3652  0.2607  0.1503
10900SOL    HW145173   4.166   4.839   7.596  2.4254  1.2130 -2.0164
10900SOL    HW245174   4.140   4.678   7.602 -1.2905  1.8113 -0.9882
10901SOL     OW45175   6.689   4.155   1.392  0.4152  0.2385 -0.2961
10901SOL    HW145176   6.733   4.164   1.482  1.0002 -2.6850 -0.2343
10901SOL    HW245177   6.689   4.243   1.346  1.9839  1.3431  1.7206
10902SOL     OW45178   0.870   5.721   8.394 -0.6500 -0.3853 -0.0895
10902SOL    HW145179   0.926   5.670   8.328 -0.0405  0.0319  0.0959
10902SOL    HW245180   0.917   5.725   8.482  0.4038  2.4233 -0.7153
10903SOL     OW45181   4.001   6.363   5.245 -0.0230 -0.4826  0.2614
10903SOL    HW145182   4.002   6.388   5.148 -1.2559 -1.0855  0.0932
10903SOL    HW245183   4.081   6.306   5.264 -0.5343 -1.5516 -0.7214
10904SOL     OW45184   3.105   4.809   7.227 -0.0302  0.5969  0.5500
10904SOL    HW145185   3.140   4.902   7.215  0.7265  0.2465 -0.0139
10904SOL    HW245186   3.158   4.763   7.298  0.9844 -0.0830 -0.6181
10905SOL     OW45187   8.166   6.966   0.090  0.5044  0.6067  0.1607
10905SOL    HW145188   8.134   6.951  -0.004  1.8524 -0.7134 -0.0995
10905SOL    HW245189   8.215   7.053   0.095 -0.7953  1.3694 -0.0238
10906SOL     OW45190   6.908   3.996   2.180 -0.0182  0.5674 -0.3495
10906SOL    HW145191   6.858   3.912   2.159  0.7170  0.2063 -0.6440
10906SOL    HW245192   6.879   4.030   2.270 -0.1620 -0.1180 -0.1359
10907SOL     OW45193   6.760   3.044   1.972 -0.1987 -0.1933  0.2778
10907SOL    HW145194   6.707   2.976   1.922 -0.8888  0.7337 -0.2489
10907SOL    HW245195   6.747   3.031   2.070  0.4177 -1.4128  0.2102
10908SOL     OW45196   7.125   7.221   1.525  0.0042 -0.3747 -0.2120
10908SOL    HW145197   7.046   7.230   1.585  0.0649  1.5193 -0.3892
10908SOL    HW245198   7.122   7.132   1.479 -0.5376 -1.4631  1.8621
10909SOL     OW45199   3.963   8.067   2.128 -0.6628  0.3224  0.3773
10909SOL    HW145200   4.017   8.103   2.205 -0.5288  1.0365 -0.0509
10909SOL    HW245201   4.010   8.085   2.042 -0.0362 -1.8814  0.2237
10910SOL     OW45202   7.226   3.133   3.292  0.7595 -0.3772  0.2234
10910SOL    HW145203   7.152   3.185   3.335 -0.2266 -0.2868 -1.5126
10910SOL    HW245204   7.314   3.167   3.325  0.0880  1.3371  0.3461
10911SOL     OW45205   0.347   6.153   5.229 -0.4606  0.7380 -0.5610
10911SOL    HW145206   0.369   6.168   5.325 -0.4914  1.1897 -0.6219
10911SOL    HW245207   0.248   6.148   5.218 -0.4300 -0.1178 -0.4554
10912SOL     OW45208   3.976   1.876   7.454 -0.3957  0.1063 -0.1138
10912SOL    HW145209   4.037   1.919   7.388  0.4847  2.2737  2.0432
10912SOL    HW245210   4.010   1.785   7.477 -0.3283 -0.3784 -2.0842
10913SOL     OW45211   8.326   5.658   5.034 -0.3109  1.0490  0.1855
10913SOL    HW145212   8.421   5.655   5.066  0.7302 -0.1573 -2.8760
10913SOL    HW245213   8.281   5.571   5.054  0.2940  0.3511 -1.4137
10914SOL     OW45214   0.592   3.260   1.039 -0.0772 -0.3856 -0.0959
10914SOL    HW145215   0.492   3.261   1.036 -0.0525  0.8979 -1.4771
10914SOL    HW245216   0.627   3.236   0.948  0.8662  0.5189  0.0265
10915SOL     OW45217   1.767   4.215   8.707  0.3340 -0.1544  0.3718
10915SOL    HW145218   1.684   4.201   8.653  0.5160  1.3134 -0.3105
10915SOL    HW245219   1.757   4.172   8.796 -1.2504  0.2433  0.3841
10916SOL     OW45220   4.050   2.057   3.188 -0.6021  0.5080  0.5293
10916SOL    HW145221   4.007   2.078   3.100 -1.8478 -0.9715  0.7521
10916SOL    HW245222   4.105   1.974   3.178 -0.6827  0.3840  1.1108
10917SOL     OW45223   4.783   3.913   6.272 -0.0221 -0.1812 -1.0841
10917SOL    HW145224   4.807   3.980   6.342 -0.2795 -0.5060 -0.6767
10917SOL    HW245225   4.745   3.832   6.316  0.6694 -0.7628 -1.5499
10918SOL     OW45226   7.086   8.077   6.131 -0.0114 -0.3838 -0.0604
10918SOL    HW145227   7.020   8.004   6.147 -2.5177  2.0557  1.1176
10918SOL    HW245228   7.050   8.141   6.064  0.8773  1.2905  1.0074
10919SOL     OW45229   7.059   7.615   1.966 -0.2823  0.2580  0.4246
10919SOL    HW145230   7.045   7.698   1.912  0.8065 -0.1615 -0.5006
10919SOL    HW245231   7.130   7.559   1.924 -1.0345 -1.1692  1.0298
10920SOL     OW45232   2.550   4.716   4.073  0.3630 -0.0551 -0.8710
10920SOL    HW145233   2.482   4.657   4.029  0.7290 -0.6243 -0.6646
10920SOL    HW245234   2.507   4.766   4.148  0.3727 -1.0384 -0.2098
10921SOL     OW45235   5.237   6.704   5.077 -0.0186  0.3258 -0.5146
10921SOL    HW145236   5.319   6.673   5.124  0.5195 -0.1541 -1.7351
10921SOL    HW245237   5.162   6.715   5.142  0.7937 -0.0296  0.4773
10922SOL     OW45238   0.522   7.321   2.819  0.8666  0.1036 -0.2643
10922SOL    HW145239   0.513   7.421   2.825  2.7531  0.3991 -1.8548
10922SOL    HW245240   0.464   7.287   2.744 -0.1451 -0.0756  0.5829
10923SOL     OW45241   1.524   2.933   3.303  0.7703 -0.2623 -0.1581
10923SOL    HW145242   1.540   2.869   3.227  0.7383 -0.3112 -0.1239
10923SOL    HW245243   1.566   2.897   3.386  1.7795  0.3301 -0.3936
10924SOL     OW45244   2.136   8.305   7.965  0.2431 -0.5196  0.3275
10924SOL    HW145245   2.039   8.311   7.985  0.0107  0.3656 -1.0243
10924SOL    HW245246   2.183   8.384   8.004  0.0506  0.2912 -1.0435
10925SOL     OW45247   3.064   8.524   4.805 -0.0542 -0.7076  0.1137
10925SOL    HW145248   3.150   8.501   4.758 -0.2892  1.0819 -1.2127
10925SOL    HW245249   3.084   8.574   4.889  0.2239 -0.8500  0.1332
10926SOL     OW45250   8.893   1.437   6.177  0.1393  0.0798  0.1667
10926SOL    HW145251   8.836   1.396   6.106  0.3092 -0.0593  0.1094
10926SOL    HW245252   8.848   1.427   6.266 -0.6667  1.3812 -0.0898
10927SOL     OW45253   6.288   0.109   1.775  0.1856  0.2447 -0.0285
10927SOL    HW145254   6.312   0.016   1.802  0.0469  0.0804 -0.4593
10927SOL    HW245255   6.345   0.174   1.825 -0.3998 -0.0305  1.0004
10928SOL     OW45256   7.899   0.411   8.841  0.3589 -0.1641  0.0595
10928SOL    HW145257   7.992   0.416   8.804  0.6310  0.4976  0.8020
10928SOL    HW245258   7.882   0.491   8.899  0.3431 -1.7089  2.2755
10929SOL     OW45259   6.884   6.895   7.084  0.2229  0.1410 -0.0107
10929SOL    HW145260   6.811   6.867   7.146 -1.6199  2.1999 -1.1614
10929SOL    HW245261   6.941   6.963   7.129  0.1041  0.1388  0.1448
10930SOL     OW45262   3.013   1.447   5.529  0.0310  0.1155 -0.1109
10930SOL    HW145263   2.978   1.383   5.461 -0.1985  1.5559 -1.3747
10930SOL    HW245264   2.955   1.529   5.531  0.6009  0.5089  1.1348
10931SOL     OW45265   2.253   4.502   6.213 -0.3818  0.1560 -0.7122
10931SOL    HW145266   2.283   4.498   6.308 -1.0336  0.8714 -0.4675
10931SOL    HW245267   2.153   4.512   6.211 -0.3979 -0.1894 -1.4723
10932SOL     OW45268   1.116   3.735   2.846  0.4522 -0.6093  0.1100
10932SOL    HW145269   1.060   3.734   2.764 -0.3750 -3.1111  0.6758
10932SOL    HW245270   1.184   3.662   2.842  1.9753  0.7237  0.6254
10933SOL     OW45271   3.271   6.716   5.458  0.4778 -0.0430  0.3479
10933SOL    HW145272   3.317   6.630   5.437 -1.3856 -1.0033  0.0902
10933SOL    HW245273   3.208   6.702   5.534 -0.7834  0.7808 -0.5349
10934SOL     OW45274   6.576   2.955   0.015  0.0490  0.2737  0.4746
10934SOL    HW145275   6.625   2.958  -0.072  0.6725  0.0148  0.8175
10934SOL    HW245276   6.592   2.866   0.059  0.7697  0.8826  1.4531
10935SOL     OW45277   4.171   0.040   4.933  0.8600  0.0214 -0.0431
10935SOL    HW145278   4.203   0.106   4.864 -1.8935  1.5083  0.0454
10935SOL    HW245279   4.149   0.088   5.017 -2.4271 -0.7763 -0.3906
10936SOL     OW45280   5.895   2.379   0.565  0.1689 -0.1429  0.2224
10936SOL    HW145281   5.850   2.290   0.566 -0.9358  0.4099 -0.6007
10936SOL    HW245282   5.926   2.401   0.658  0.9998 -1.6497  0.3241
10937SOL     OW45283   1.355   8.729   6.196  0.2944 -0.2340 -0.4694
10937SOL    HW145284   1.387   8.661   6.131 -1.7151 -0.8865 -0.8155
10937SOL    HW245285   1.292   8.792   6.151  0.5828  0.6227  0.3191
10938SOL     OW45286   7.594   3.533   1.134  0.1515 -0.6579 -0.0576
10938SOL    HW145287   7.655   3.550   1.057  0.9699 -3.3450 -0.0573
10938SOL    HW245288   7.514   3.482   1.103 -0.3820 -0.1864  0.5458
10939SOL     OW45289   1.153   7.861   6.625 -0.1348 -0.2493  0.3625
10939SOL    HW145290   1.196   7.921   6.558  0.3076 -1.9714 -0.9261
10939SOL    HW245291   1.220   7.834   6.694 -0.9275  2.6430  2.3681
10940SOL     OW45292   3.965   2.154   4.548  0.7697  0.7257  0.5804
10940SOL    HW145293   3.971   2.197   4.638  1.4238 -0.8334  1.2932
10940SOL    HW245294   3.933   2.060   4.558 -0.2816  0.9146 -0.9274
10941SOL     OW45295   1.293   3.808   8.007 -0.0363 -0.3511 -0.6119
10941SOL    HW145296   1.380   3.833   8.050 -0.7112  0.6209  0.1988
10941SOL    HW245297   1.285   3.856   7.919  0.0570 -0.1012 -0.4864
10942SOL     OW45298   7.679   4.673   7.871 -0.0666 -0.4608 -0.2679
10942SOL    HW145299   7.669   4.713   7.781 -0.1372 -0.8270 -0.4250
10942SOL    HW245300   7.700   4.745   7.938 -0.9385 -0.0664 -0.4095
10943SOL     OW45301   7.239   3.339   8.993  0.2160  0.8223 -0.1811
10943SOL    HW145302   7.260   3.247   9.026  0.0463  1.3535  1.4907
10943SOL    HW245303   7.200   3.335   8.901  0.9896 -0.7021 -0.4504
10944SOL     OW45304   8.240   5.719   4.572 -0.1354 -0.2335 -0.9047
10944SOL    HW145305   8.259   5.728   4.670 -0.1686  0.0250 -0.9197
10944SOL    HW245306   8.323   5.738   4.521 -0.3783  0.7399 -0.9640
10945SOL     OW45307   4.499   5.731   7.551 -0.3589 -0.2727  0.4369
10945SOL    HW145308   4.539   5.782   7.627 -2.3202  0.4590  0.9842
10945SOL    HW245309   4.454   5.649   7.586 -2.2123  0.6290  0.1984
10946SOL     OW45310   2.515   0.173   6.167 -0.0743 -0.4605  0.5350
10946SOL    HW145311   2.541   0.232   6.243 -2.2789  0.6925  0.4329
10946SOL    HW245312   2.434   0.120   6.193 -1.1181  0.2765 -1.1768
10947SOL     OW45313   2.261   3.870   8.744  0.2332 -0.3503  0.2625
10947SOL    HW145314   2.263   3.806   8.667  0.0641  1.1160 -0.9786
10947SOL    HW245315   2.268   3.963   8.710  0.6393  0.2954  2.0757
10948SOL     OW45316   3.715   4.123   1.609  0.2179 -0.3834 -0.0761
10948SOL    HW145317   3.674   4.213   1.626 -0.4067 -0.6476 -0.1748
10948SOL    HW245318   3.742   4.117   1.513  2.0453  0.4177  0.3722
10949SOL     OW45319   2.861   7.284   8.771 -0.5739  0.2289  0.3383
10949SOL    HW145320   2.843   7.231   8.688 -0.3296 -2.0234  1.6837
10949SOL    HW245321   2.952   7.326   8.765 -0.5775  0.1248 -0.5373
10950SOL     OW45322   8.150   7.563   5.224 -1.1107 -0.1083 -0.4378
10950SOL    HW145323   8.178   7.578   5.319 -2.6268  0.3034 -0.0410
10950SOL    HW245324   8.210   7.615   5.163 -1.8889  1.9160  0.4827
10951SOL     OW45325   5.560   6.258   7.950 -0.1791 -0.5028  0.1120
10951SOL    HW145326   5.521   6.186   7.892  1.3558 -0.0144 -1.5849
10951SOL    HW245327   5.640   6.221   7.998  2.1582  0.7193 -2.7268
10952SOL     OW45328   6.813   6.889   7.964  0.0802  0.5088  0.7697
10952SOL    HW145329   6.826   6.814   7.899  3.2469  0.4053  1.4367
10952SOL    HW245330   6.717   6.915   7.966 -0.4794 -1.1124 -2.1494
10953SOL     OW45331   5.311   7.810   4.912  0.5180 -0.3024  0.6058
10953SOL    HW145332   5.279   7.770   4.826  0.3485 -1.0199  1.0035
10953SOL    HW245333   5.266   7.898   4.926  1.1639  0.2181 -0.4554
10954SOL     OW45334   2.026   5.659   5.240 -0.4015 -0.4584  0.2037
10954SOL    HW145335   2.009   5.724   5.313  3.7076  1.0553 -0.0320
10954SOL    HW245336   2.024   5.566   5.277 -0.7700  0.1419  1.7333
10955SOL     OW45337   4.369   8.011   7.757 -0.0313  0.9246  0.1033
10955SOL    HW145338   4.449   8.070   7.773  0.3386  0.5465 -0.3097
10955SOL    HW245339   4.369   7.982   7.661  0.8186 -1.2475  0.7404
10956SOL     OW45340   2.298   2.702   6.015  0.0565 -0.0593 -0.1597
10956SOL    HW145341   2.262   2.751   6.094  1.5415  0.8891 -0.0632
10956SOL    HW245342   2.394   2.727   6.000  0.2451 -1.4068 -1.3230
10957SOL     OW45343   7.309   6.142   4.940 -0.4053  0.6281 -0.2897
10957SOL    HW145344   7.248   6.117   5.015 -0.3807  0.6288 -0.2703
10957SOL    HW245345   7.378   6.206   4.972  0.7067 -0.7460  0.1161
10958SOL     OW45346   1.877   2.845   1.693  0.1005  0.0867 -0.4825
10958SOL    HW145347   1.788   2.887   1.708  0.7310  1.2817 -0.0295
10958SOL    HW245348   1.886   2.764   1.750 -0.2660  0.5920  0.2900
10959SOL     OW45349   3.249   7.658   2.302 -0.3466  0.7036  0.0840
10959SOL    HW145350   3.175   7.726   2.296 -2.4549 -1.3282  2.0150
10959SOL    HW245351   3.260   7.614   2.213 -2.6104 -0.0733  0.1416
10960SOL     OW45352   5.364   5.115   6.261  0.5665  0.3404 -0.2616
10960SOL    HW145353   5.442   5.158   6.306  1.0560 -0.4857 -0.3132
10960SOL    HW245354   5.373   5.015   6.267  0.8957  0.2088 -2.6315
10961SOL     OW45355   1.534   8.776   0.073  0.0902  0.3004  0.1286
10961SOL    HW145356   1.515   8.872   0.048  0.8722  0.5439  0.4632
10961SOL    HW245357   1.459   8.718   0.041  0.8350  0.6600 -2.3864
10962SOL     OW45358   5.777   7.545   8.438  0.0124  0.3316 -0.0380
10962SOL    HW145359   5.849   7.576   8.375 -1.2102  2.0759 -0.5902
10962SOL    HW245360   5.765   7.613   8.510 -1.5969  0.4150 -0.3750
10963SOL     OW45361   1.068   7.017   0.735  0.1425  0.2410  0.3832
10963SOL    HW145362   0.980   7.064   0.742  0.9335  1.9382 -0.6248
10963SOL    HW245363   1.081   6.959   0.816 -2.0084 -0.2727  0.3942
10964SOL     OW45364   1.103   2.286   4.398  0.2915  0.2056  0.2987
10964SOL    HW145365   1.178   2.244   4.450  0.9222  1.2994  0.2960
10964SOL    HW245366   1.127   2.381   4.376 -1.3122  0.7265  0.7181
10965SOL     OW45367   0.910   5.217   5.450  0.2809  0.3413 -0.2513
10965SOL    HW145368   0.821   5.175   5.433  0.2825  0.3282 -0.2262
10965SOL    HW245369   0.969   5.203   5.370 -0.5474  2.4669 -1.2913
10966SOL     OW45370   2.410   6.964   0.729 -0.0844 -0.4423 -0.1671
10966SOL    HW145371   2.454   6.969   0.639 -0.4530 -2.4579 -0.4733
10966SOL    HW245372   2.316   6.997   0.722 -0.2099 -0.8899 -0.5949
10967SOL     OW45373   0.871   6.489   4.559 -0.0364  0.5074  0.1102
10967SOL    HW145374   0.848   6.447   4.647 -0.2382  2.5718  1.0726
10967SOL    HW245375   0.949   6.551   4.571 -0.4535  1.2675 -1.0225
10968SOL     OW45376   3.036   6.172   5.874 -0.2254  0.2499 -0.0203
10968SOL    HW145377   2.983   6.100   5.919  0.8581 -0.8701 -0.5227
10968SOL    HW245378   3.134   6.149   5.878  0.1376  1.7435 -0.0903
10969SOL     OW45379   5.061   6.947   8.800 -0.4654 -0.0269  0.1779
10969SOL    HW145380   5.024   6.916   8.887 -1.1389  1.5577  0.4763
10969SOL    HW245381   5.089   7.043   8.808  3.4680 -1.0328 -0.0951
10970SOL     OW45382   3.029   1.662   2.115  0.1021  0.6794 -0.2035
10970SOL    HW145383   2.934   1.690   2.128 -0.4969 -1.7087  0.8433
10970SOL    HW245384   3.036   1.604   2.034 -0.0131 -2.0630  1.6870
10971SOL     OW45385   2.822   2.803   8.027 -0.2460 -0.7717 -0.4801
10971SOL    HW145386   2.776   2.817   7.940  0.3850 -2.1794 -1.0547
10971SOL    HW245387   2.909   2.756   8.012  0.6399  0.4601  0.7479
10972SOL     OW45388   6.175   7.412   7.557 -0.0332  0.5012  0.1890
10972SOL    HW145389   6.109   7.388   7.486  1.2043  0.5539 -0.9999
10972SOL    HW245390   6.223   7.496   7.531 -0.2422  1.0418  1.5452
10973SOL     OW45391   6.933   1.741   0.124  0.0097  0.2410 -0.0674
10973SOL    HW145392   6.871   1.748   0.203  0.6489  1.7809  0.3289
10973SOL    HW245393   7.025   1.718   0.156 -0.1014 -0.8722 -0.5418
10974SOL     OW45394   1.474   7.477   7.759  0.3760 -0.3960  0.5681
10974SOL    HW145395   1.471   7.380   7.785 -0.2939  0.0189  2.0526
10974SOL    HW245396   1.567   7.512   7.773  1.2350 -1.4145 -2.2252
10975SOL     OW45397   3.481   8.747   8.562 -0.9038  0.7390 -0.2547
10975SOL    HW145398   3.399   8.782   8.518 -0.5680  0.0151 -1.4920
10975SOL    HW245399   3.495   8.652   8.534  0.6784  1.0459 -0.5357
10976SOL     OW45400   2.839   1.522   3.933 -0.1796 -0.0602 -0.2877
10976SOL    HW145401   2.816   1.436   3.979  0.9179 -0.2318 -0.0634
10976SOL    HW245402   2.919   1.563   3.977  0.5180  0.0702 -1.6603
10977SOL     OW45403   3.849   4.420   7.771 -0.5941  0.4211  0.3392
10977SOL    HW145404   3.857   4.427   7.871 -0.8560  0.9262  0.3234
10977SOL    HW245405   3.843   4.323   7.746  2.9824  0.1027  0.5169
10978SOL     OW45406   6.000   6.505   1.817 -0.0103 -0.6029  0.1707
10978SOL    HW145407   6.081   6.460   1.854  1.9313  2.3817 -0.2569
10978SOL    HW245408   5.927   6.504   1.885  1.5495 -0.3516  1.8984
10979SOL     OW45409   1.995   2.038   8.676  0.1835 -0.1336 -0.7371
10979SOL    HW145410   1.994   2.013   8.773  3.3368 -0.6289 -0.7951
10979SOL    HW245411   1.915   1.997   8.631 -1.0914 -0.2420  1.5462
10980SOL     OW45412   1.827   3.026   5.779  0.5430 -0.3036  0.2115
10980SOL    HW145413   1.876   2.947   5.815 -0.6629 -0.8765  0.6098
10980SOL    HW245414   1.736   2.999   5.750  0.4162  0.7740 -0.4364
10981SOL     OW45415   3.123   5.783   6.110 -0.2118  0.0380 -0.0043
10981SOL    HW145416   3.161   5.696   6.078 -0.5303  0.0746 -0.4836
10981SOL    HW245417   3.059   5.765   6.185  0.7071 -0.0258  0.7818
10982SOL     OW45418   4.953   7.239   2.642  0.0319  0.1046 -0.1674
10982SOL    HW145419   4.983   7.335   2.646  3.0459 -0.7686 -0.3513
10982SOL    HW245420   5.009   7.190   2.575 -1.0812 -1.9403  0.3544
10983SOL     OW45421   2.181   1.686   4.762 -0.1693 -0.8702  0.1511
10983SOL    HW145422   2.166   1.707   4.858  0.9769 -1.6519  0.5180
10983SOL    HW245423   2.214   1.592   4.754 -1.8128 -1.3536 -1.1451
10984SOL     OW45424   6.362   2.917   3.085  0.3433 -0.2543  0.0802
10984SOL    HW145425   6.428   2.974   3.035 -0.3104 -0.1191 -0.6329
10984SOL    HW245426   6.389   2.820   3.077  0.8894 -0.1367  0.4498
10985SOL     OW45427   6.032   1.321   8.706  0.6016 -0.1752 -0.0625
10985SOL    HW145428   5.962   1.268   8.659  0.1762  0.4823 -0.1641
10985SOL    HW245429   6.006   1.417   8.709  1.5219  0.0864 -0.1543
10986SOL     OW45430   4.636   7.754   5.962 -0.6243  0.1963 -0.3355
10986SOL    HW145431   4.694   7.753   6.043  0.2992 -0.2517 -0.9943
10986SOL    HW245432   4.540   7.740   5.989 -0.6080  2.2502  0.8879
10987SOL     OW45433   0.731   8.718   8.091 -0.6507 -0.2209 -0.2918
10987SOL    HW145434   0.782   8.735   8.175 -0.0953  0.3280 -0.7415
10987SOL    HW245435   0.696   8.624   8.092 -0.4841 -0.2789  0.4615
10988SOL     OW45436   2.059   7.765   8.077 -0.7490  0.4609  0.7793
10988SOL    HW145437   2.078   7.824   7.998  0.3377  0.0222  0.7138
10988SOL    HW245438   2.143   7.753   8.131 -1.0331 -0.8079  0.9478
10989SOL     OW45439   6.788   5.657   5.645 -0.1835  0.2402 -0.2847
10989SOL    HW145440   6.840   5.592   5.701 -0.1659  0.2400 -0.3012
10989SOL    HW245441   6.851   5.706   5.584 -0.1748  0.4036 -0.1434
10990SOL     OW45442   3.665   3.601   1.300 -0.3199 -0.1536 -0.4132
10990SOL    HW145443   3.598   3.671   1.327  0.1061  0.1782 -0.2176
10990SOL    HW245444   3.754   3.644   1.287 -0.2371 -0.5230 -1.1077
10991SOL     OW45445   4.426   5.563   0.309  0.7161 -0.4630  0.1942
10991SOL    HW145446   4.413   5.487   0.373 -2.4642 -0.8227 -0.8229
10991SOL    HW245447   4.347   5.624   0.313  0.8236 -0.0644 -2.8343
10992SOL     OW45448   2.193   1.407   5.795  0.0533  0.1617  1.2268
10992SOL    HW145449   2.173   1.326   5.849 -0.2504 -0.0679  0.7695
10992SOL    HW245450   2.110   1.438   5.749  0.2854  0.4227  0.9833
10993SOL     OW45451   2.966   3.568   1.006  0.0941 -0.2327  0.2176
10993SOL    HW145452   2.992   3.505   0.933  1.2512  2.0486 -1.4107
10993SOL    HW245453   3.036   3.567   1.078  0.1474 -0.7145  0.1647
10994SOL     OW45454   5.418   4.990   5.303  0.1899  0.3586  0.1724
10994SOL    HW145455   5.418   4.915   5.237 -3.2135  0.1986  0.2634
10994SOL    HW245456   5.426   5.077   5.255 -1.8900  0.2216 -0.5080
10995SOL     OW45457   0.043   7.391   7.115 -0.6983 -0.4653 -0.0283
10995SOL    HW145458   0.075   7.460   7.180 -0.7987  0.0711 -0.5535
10995SOL    HW245459   0.022   7.434   7.028  0.5081 -1.3507 -0.7739
10996SOL     OW45460   5.685   3.622   2.269  0.2185 -0.7082 -0.2950
10996SOL    HW145461   5.614   3.653   2.331  1.3920  0.5997  0.4153
10996SOL    HW245462   5.649   3.549   2.211 -1.6772 -0.0785  0.0645
10997SOL     OW45463   6.471   4.129   0.434 -0.1812  0.6129 -0.0871
10997SOL    HW145464   6.394   4.083   0.478  0.8195 -1.6082 -0.5925
10997SOL    HW245465   6.551   4.126   0.494  0.4841 -0.2084 -0.9975
10998SOL     OW45466   4.254   4.841   5.394 -0.5302 -0.0628 -0.1361
10998SOL    HW145467   4.328   4.774   5.392 -0.7389 -0.3221  0.4096
10998SOL    HW245468   4.247   4.879   5.487 -1.2644 -0.2579 -0.1099
10999SOL     OW45469   4.684   0.486   8.707  0.2615 -0.7597 -0.1019
10999SOL    HW145470   4.667   0.452   8.799  1.8386  0.8094  0.7949
10999SOL    HW245471   4.600   0.524   8.669 -0.3891 -1.3978  0.6847
11000SOL     OW45472   7.898   0.959   1.726 -0.5959 -0.6513  0.4209
11000SOL    HW145473   7.975   0.900   1.749  0.2065  0.0743 -0.3640
11000SOL    HW245474   7.874   0.948   1.630 -1.6911 -1.1097  0.7332
11001SOL     OW45475   6.283   4.890   8.542  0.1797  0.0080  0.2662
11001SOL    HW145476   6.296   4.964   8.608  0.0926 -0.8357  1.2460
11001SOL    HW245477   6.258   4.928   8.453 -0.3462  1.1254  0.8889
11002SOL     OW45478   8.875   2.374   4.692 -0.0338 -0.0750  0.2930
11002SOL    HW145479   8.776   2.371   4.711 -0.1406 -1.5217 -0.4033
11002SOL    HW245480   8.914   2.284   4.710  0.8339  0.0034 -1.1622
11003SOL     OW45481   7.101   4.110   0.710  0.4867 -0.0627 -0.6329
11003SOL    HW145482   7.157   4.193   0.716 -0.9894  1.0631 -1.8583
11003SOL    HW245483   7.069   4.085   0.802  1.3347  0.4469 -0.1942
11004SOL     OW45484   5.993   4.813   5.070 -0.0290 -0.1997 -0.0846
11004SOL    HW145485   6.011   4.723   5.109 -1.5897  0.1040  1.4261
11004SOL    HW245486   6.028   4.884   5.131  0.9418  0.2391 -1.1305
11005SOL     OW45487   8.873   4.023   5.869 -0.3155 -0.4177  0.7434
11005SOL    HW145488   8.929   4.005   5.787  0.0245  0.4072  0.7910
11005SOL    HW245489   8.780   3.992   5.852 -0.3389  0.0758 -0.1029
11006SOL     OW45490   1.619   5.794   7.031  0.1043  0.1354 -0.5358
11006SOL    HW145491   1.584   5.706   7.063  1.1345  0.3748  1.3396
11006SOL    HW245492   1.544   5.860   7.028 -0.3877 -0.4155 -0.4890
11007SOL     OW45493   6.361   0.939   1.092  0.5271  0.0040 -0.5353
11007SOL    HW145494   6.377   0.896   1.003  0.6000 -0.2489 -0.4026
11007SOL    HW245495   6.291   0.887   1.142 -1.0123  1.3173 -1.2690
11008SOL     OW45496   2.768   2.695   7.144 -0.1504 -0.2868  0.3463
11008SOL    HW145497   2.770   2.787   7.105 -0.6617 -0.2040  0.5219
11008SOL    HW245498   2.802   2.698   7.238  0.5329 -0.3968  0.1096
11009SOL     OW45499   5.419   3.300   8.185  0.2783  0.3704  0.4637
11009SOL    HW145500   5.395   3.274   8.091 -1.0168  2.3236  0.2208
11009SOL    HW245501   5.510   3.342   8.186 -0.6064  2.3355 -0.2805
11010SOL     OW45502   4.366   7.458   4.699  0.2606 -0.3268  0.1488
11010SOL    HW145503   4.325   7.470   4.608 -1.3783  0.0995  0.9112
11010SOL    HW245504   4.460   7.491   4.699 -0.0534  0.5837 -1.1368
11011SOL     OW45505   5.379   0.755   3.132 -0.2148 -0.1379  0.4425
11011SOL    HW145506   5.280   0.760   3.116 -0.1971 -1.0374  0.0464
11011SOL    HW245507   5.401   0.669   3.178  0.5534 -0.5654 -0.7153
11012SOL     OW45508   8.758   3.493   5.882 -0.0478  0.5777  0.0285
11012SOL    HW145509   8.761   3.580   5.931  2.8614 -0.4793  1.8433
11012SOL    HW245510   8.828   3.491   5.811 -0.2924 -0.1889 -0.2047
11013SOL     OW45511   3.985   2.289   5.450 -0.5778  0.7111 -0.4029
11013SOL    HW145512   4.019   2.218   5.510 -1.7663  0.5171  0.0404
11013SOL    HW245513   4.043   2.371   5.459  0.1741  0.1581 -0.1685
11014SOL     OW45514   7.166   3.448   1.739  0.5154  0.6912 -0.3831
11014SOL    HW145515   7.106   3.488   1.669  0.7716  3.3347  0.8582
11014SOL    HW245516   7.261   3.450   1.706  0.3937 -0.0034 -0.7946
11015SOL     OW45517   1.780   1.964   2.235 -0.4974  0.0248 -0.0443
11015SOL    HW145518   1.738   1.873   2.245  0.5762 -0.3789  0.8674
11015SOL    HW245519   1.709   2.030   2.211 -1.5550 -0.7785  0.7776
11016SOL     OW45520   2.095   2.256   8.095  0.1072  0.0602  0.0059
11016SOL    HW145521   1.997   2.273   8.107  0.3071  0.5980  0.9562
11016SOL    HW245522   2.129   2.199   8.170  0.4360 -0.5119 -0.5678
11017SOL     OW45523   1.178   2.474   7.834  0.2602  0.1225 -0.4989
11017SOL    HW145524   1.261   2.510   7.793 -0.4912  0.3782 -1.8563
11017SOL    HW245525   1.159   2.520   7.920  0.6422  1.2227 -0.9977
11018SOL     OW45526   6.791   6.804   3.392 -0.2177  0.2565 -0.8714
11018SOL    HW145527   6.871   6.744   3.384  0.8379  1.6106 -0.7241
11018SOL    HW245528   6.722   6.778   3.325  0.3076 -0.9904 -0.9386
11019SOL     OW45529   2.373   8.307   0.115 -0.3066  0.0426 -0.2128
11019SOL    HW145530   2.289   8.300   0.060 -1.6515  1.9519  1.5399
11019SOL    HW245531   2.414   8.397   0.102  1.1059 -0.6267 -0.4850
11020SOL     OW45532   1.850   0.982   0.993  0.4319 -0.2379  0.2775
11020SOL    HW145533   1.837   1.051   1.065  1.0943  1.1410 -0.9090
11020SOL    HW245534   1.858   0.891   1.036  1.2476  0.6061  1.9868
11021SOL     OW45535   1.806   4.029   7.903 -0.2112  0.1364  0.1274
11021SOL    HW145536   1.707   4.022   7.897 -0.2507  1.5313 -1.2861
11021SOL    HW245537   1.831   4.124   7.923  0.7617 -0.6905  3.1014
11022SOL     OW45538   6.956   8.699   2.264 -0.0147  0.1262  0.4146
11022SOL    HW145539   6.997   8.628   2.207  1.9120  0.1924  1.6720
11022SOL    HW245540   6.934   8.778   2.207 -1.9195 -1.3255 -0.9442
11023SOL     OW45541   0.839   2.486   8.918  0.1994  0.1460  0.5916
11023SOL    HW145542   0.840   2.467   9.016 -1.5061  0.7553  0.7398
11023SOL    HW245543   0.747   2.474   8.883  0.7888 -0.0000 -0.9371
11024SOL     OW45544   1.075   3.260   5.339 -0.6757 -0.8347 -0.1899
11024SOL    HW145545   1.137   3.183   5.347 -0.4969 -0.6685  0.0127
11024SOL    HW245546   1.095   3.328   5.410 -2.1503 -1.5317  0.9202
11025SOL     OW45547   2.605   4.802   8.329 -0.4079  0.1769 -0.2036
11025SOL    HW145548   2.640   4.750   8.407  0.7253 -0.2840 -1.0095
11025SOL    HW245549   2.625   4.899   8.342 -0.5953  0.1566  0.2682
11026SOL     OW45550   7.127   4.718   0.791 -0.7570  0.1324  0.7209
11026SOL    HW145551   7.072   4.635   0.795 -0.0645 -0.3513  0.2365
11026SOL    HW245552   7.208   4.708   0.848  1.8841 -1.4341 -3.1314
11027SOL     OW45553   8.204   0.982   0.989  0.3359 -0.4462  0.2636
11027SOL    HW145554   8.211   0.961   0.892  0.9509 -4.0914  1.0241
11027SOL    HW245555   8.288   1.026   1.021  0.7769 -0.7363 -0.4960
11028SOL     OW45556   5.018   7.477   0.734 -0.1345 -0.0818  0.1718
11028SOL    HW145557   5.039   7.501   0.640  1.6145  1.6428  0.9885
11028SOL    HW245558   4.938   7.529   0.765  0.7133  1.1152  0.3797
11029SOL     OW45559   4.882   2.377   8.611  0.1360 -0.1686 -0.5187
11029SOL    HW145560   4.862   2.435   8.691 -0.7158  1.0339 -1.5852
11029SOL    HW245561   4.798   2.362   8.559  0.9943  0.4462 -2.1006
11030SOL     OW45562   4.531   4.617   8.133 -0.0532  0.1019 -0.2793
11030SOL    HW145563   4.453   4.556   8.120 -0.0486  0.2747 -1.1368
11030SOL    HW245564   4.616   4.566   8.125 -0.0584  0.1217 -0.4559
11031SOL     OW45565   0.824   1.487   0.614  0.3070 -0.2787  0.2587
11031SOL    HW145566   0.878   1.412   0.577 -1.3408 -0.6418 -1.5119
11031SOL    HW245567   0.745   1.450   0.664 -0.5899  0.2669 -0.7433
11032SOL     OW45568   3.762   8.539   6.057 -0.3487 -0.2694 -0.7865
11032SOL    HW145569   3.776   8.638   6.054 -0.1125 -0.2796 -0.2353
11032SOL    HW245570   3.801   8.497   5.975 -1.0722  0.1649 -1.3508
11033SOL     OW45571   7.343   0.444   7.841 -0.2065 -0.1994 -0.1426
11033SOL    HW145572   7.269   0.503   7.874 -0.0943  0.1630 -0.5307
11033SOL    HW245573   7.315   0.398   7.757 -1.1212 -2.4302  1.3405
11034SOL     OW45574   6.883   5.473   1.544 -0.1140 -0.0296  0.1580
11034SOL    HW145575   6.815   5.533   1.586  0.3069  1.2596 -0.9548
11034SOL    HW245576   6.837   5.405   1.487 -0.4736  0.7099 -0.4323
11035SOL     OW45577   1.326   6.438   6.660 -0.1122  0.2135  0.7406
11035SOL    HW145578   1.352   6.426   6.564  1.3955 -0.1009  1.1676
11035SOL    HW245579   1.280   6.526   6.672  0.3165  0.5663 -0.1537
11036SOL     OW45580   6.973   1.066   1.371 -0.1947  0.2785 -0.1588
11036SOL    HW145581   6.880   1.062   1.407  0.2177 -1.1516  0.7916
11036SOL    HW245582   7.029   1.124   1.431 -0.2894  0.5512 -0.3304
11037SOL     OW45583   5.953   5.244   1.630  0.6258 -0.0118  0.4574
11037SOL    HW145584   5.879   5.287   1.682  2.3973  2.6687  0.8479
11037SOL    HW245585   6.005   5.183   1.689 -1.6701 -2.4729  0.0025
11038SOL     OW45586   6.766   4.891   5.483 -0.0202  0.0089  0.3800
11038SOL    HW145587   6.762   4.983   5.442 -0.4152  0.3721  1.2178
11038SOL    HW245588   6.693   4.835   5.445  0.1704  0.0621 -0.0752
11039SOL     OW45589   1.566   2.158   8.311  0.5107 -0.0447 -0.5375
11039SOL    HW145590   1.490   2.109   8.268 -0.2516  0.0567  0.6777
11039SOL    HW245591   1.576   2.127   8.405  1.9061  0.0358 -0.6425
11040SOL     OW45592   4.936   3.382   8.984  0.2228  0.7240 -0.6497
11040SOL    HW145593   4.850   3.430   8.967 -0.9723 -1.1761 -0.1367
11040SOL    HW245594   4.975   3.413   9.071 -1.7695 -0.9033  0.8746
11041SOL     OW45595   2.886   8.208   4.216  0.3920 -0.1048 -0.5268
11041SOL    HW145596   2.947   8.225   4.294 -0.4196 -0.5996  0.2364
11041SOL    HW245597   2.936   8.218   4.131  0.9336  1.9967  0.0091
11042SOL     OW45598   3.037   1.203   1.488  0.3805  0.0121  0.1951
11042SOL    HW145599   3.090   1.184   1.571 -1.0032  1.3395  1.4188
11042SOL    HW245600   3.015   1.117   1.442  1.7121 -0.6977  0.8372
11043SOL     OW45601   8.539   1.070   8.753 -0.3959 -0.0345  0.5384
11043SOL    HW145602   8.625   1.051   8.706  0.0112  1.0407  0.8110
11043SOL    HW245603   8.547   1.043   8.849 -0.7964 -1.0916  0.2712
11044SOL     OW45604   3.466   8.023   6.413  0.7152 -0.6624  0.0205
11044SOL    HW145605   3.496   7.964   6.338 -0.1453 -0.3575 -0.5567
11044SOL    HW245606   3.372   8.002   6.437 -0.4566  2.1901 -1.8799
11045SOL     OW45607   8.939   1.184   0.114 -0.3478 -0.3850  0.0860
11045SOL    HW145608   8.890   1.187   0.027 -1.8471 -0.0311  0.9196
11045SOL    HW245609   8.971   1.091   0.131 -0.7125 -0.6181 -0.4721
11046SOL     OW45610   5.533   2.908   6.406  0.1556 -0.0229  0.5304
11046SOL    HW145611   5.454   2.852   6.431  1.0182 -2.3930 -1.8793
11046SOL    HW245612   5.615   2.852   6.404  1.1684  1.4601 -1.2787
11047SOL     OW45613   6.235   8.576   6.343  0.2824  0.0839  0.1703
11047SOL    HW145614   6.292   8.499   6.372 -0.0529 -0.9547 -1.8365
11047SOL    HW245615   6.282   8.626   6.270 -0.8829 -0.1481 -0.7613
11048SOL     OW45616   8.246   6.011   3.308 -0.1176 -0.1318 -0.2533
11048SOL    HW145617   8.244   6.105   3.344 -0.3211 -0.8183  1.5762
11048SOL    HW245618   8.238   5.946   3.384 -2.0695 -1.6211 -1.6826
11049SOL     OW45619   3.248   3.778   0.397 -0.6667 -0.5271 -0.1377
11049SOL    HW145620   3.346   3.794   0.391 -0.7713 -0.0199 -0.6002
11049SOL    HW245621   3.213   3.812   0.484 -0.4366 -0.6904  0.0175
11050SOL     OW45622   1.873   2.669   1.902 -0.1255  0.0718  0.4921
11050SOL    HW145623   1.774   2.655   1.903  0.2868 -3.2597  1.0333
11050SOL    HW245624   1.908   2.672   1.996  0.3313  0.9578  0.3017
11051SOL     OW45625   8.354   5.267   2.661 -0.4112 -0.0632 -0.2541
11051SOL    HW145626   8.453   5.280   2.662 -0.3461 -0.5720 -0.0254
11051SOL    HW245627   8.309   5.356   2.650  0.0629  0.2104 -0.0050
11052SOL     OW45628   3.104   0.206   0.575  1.0475 -0.2235 -0.5569
11052SOL    HW145629   3.136   0.125   0.524 -0.9328  0.3612 -2.7964
11052SOL    HW245630   3.045   0.261   0.517 -2.4668 -0.2449  2.8204
11053SOL     OW45631   7.431   4.149   6.867 -0.4362 -0.0361  0.0830
11053SOL    HW145632   7.488   4.199   6.932 -0.9921 -1.2806  1.5786
11053SOL    HW245633   7.459   4.171   6.774  1.5912  0.4224  0.7647
11054SOL     OW45634   2.099   1.246   0.965  0.7120  0.3734  0.3029
11054SOL    HW145635   2.092   1.338   0.927  0.8123 -0.2209 -1.2068
11054SOL    HW245636   2.022   1.228   1.026  0.8762  1.5661  0.8822
11055SOL     OW45637   8.076   6.054   7.979  0.1348 -0.1577 -0.3286
11055SOL    HW145638   8.052   5.985   7.910 -1.3326  0.2589 -0.2574
11055SOL    HW245639   8.115   6.134   7.934  0.9388 -0.6311 -0.4960
11056SOL     OW45640   3.222   1.712   7.770  1.0788  0.2192  0.6157
11056SOL    HW145641   3.184   1.620   7.763  0.4348  0.4301  1.2445
11056SOL    HW245642   3.276   1.733   7.688 -0.4326  0.0376 -0.4322
11057SOL     OW45643   3.719   1.874   6.539 -0.4569 -0.8830 -0.4959
11057SOL    HW145644   3.750   1.884   6.634 -0.0342  0.3311 -0.7554
11057SOL    HW245645   3.687   1.780   6.525  0.9538 -1.5207  0.4039
11058SOL     OW45646   2.236   3.096   0.871 -0.3502 -0.5957  0.3070
11058SOL    HW145647   2.228   3.034   0.949 -0.9970 -0.0395  0.6911
11058SOL    HW245648   2.318   3.153   0.882 -0.9957  0.1865  1.0972
11059SOL     OW45649   2.007   8.358   6.509  0.0006 -0.0537 -0.0500
11059SOL    HW145650   2.052   8.269   6.503  1.7708  0.8882 -1.2930
11059SOL    HW245651   1.948   8.371   6.430  2.7759  1.4388 -1.9653
11060SOL     OW45652   0.299   4.369   2.800 -0.4878  0.6451 -0.6068
11060SOL    HW145653   0.233   4.374   2.875  0.1630  1.9037 -0.1136
11060SOL    HW245654   0.387   4.405   2.830  0.3969 -0.8844 -1.3188
11061SOL     OW45655   3.949   1.435   5.609  0.2382 -0.4038  0.2102
11061SOL    HW145656   3.873   1.480   5.564 -1.4010 -3.5864 -0.3633
11061SOL    HW245657   3.915   1.377   5.683  2.0273 -2.1089 -0.2376
11062SOL     OW45658   5.735   4.624   8.437 -0.5630 -0.5259 -0.5250
11062SOL    HW145659   5.704   4.544   8.386 -0.5767  0.0769 -1.4866
11062SOL    HW245660   5.757   4.698   8.373 -1.7291  0.6476  0.4005
11063SOL     OW45661   0.730   7.071   7.253  0.0718  0.2765  0.0930
11063SOL    HW145662   0.741   7.168   7.275  0.6257  0.1918  0.2152
11063SOL    HW245663   0.678   7.026   7.325 -0.5511  0.5698 -0.1749
11064SOL     OW45664   8.555   5.921   8.385  0.1132 -0.1345  0.0282
11064SOL    HW145665   8.645   5.892   8.417  0.5056  1.7246  0.6783
11064SOL    HW245666   8.486   5.893   8.451  0.3981 -0.3228  0.2464
11065SOL     OW45667   8.418   3.399   4.120  0.3935 -0.2753  0.7832
11065SOL    HW145668   8.359   3.475   4.148  0.2356 -0.4753  0.9955
11065SOL    HW245669   8.371   3.312   4.136  1.4034 -0.5198  2.5791
11066SOL     OW45670   8.410   8.443   8.831 -0.0426  0.0924 -0.5755
11066SOL    HW145671   8.391   8.377   8.759  0.6998  0.2038 -0.8787
11066SOL    HW245672   8.350   8.425   8.909 -1.0178  0.1234 -1.3070
11067SOL     OW45673   0.051   0.349   0.674  0.1022  1.0457 -0.1757
11067SOL    HW145674   0.104   0.391   0.748 -2.0571  1.5209  1.1535
11067SOL    HW245675   0.079   0.254   0.664  0.5966  1.0388  1.1055
11068SOL     OW45676   7.788   3.538   8.973 -0.0385 -0.1065  0.4793
11068SOL    HW145677   7.786   3.557   8.875  1.0053  0.3053  0.5274
11068SOL    HW245678   7.792   3.439   8.988  1.3041 -0.1279  0.0612
11069SOL     OW45679   0.405   1.363   2.639 -0.4680 -0.0193 -0.6995
11069SOL    HW145680   0.379   1.275   2.678 -0.2027  0.7895  1.3510
11069SOL    HW245681   0.325   1.409   2.601 -0.4220 -1.6235 -2.8127
11070SOL     OW45682   5.288   1.149   0.783  0.4150 -1.3026  0.1949
11070SOL    HW145683   5.301   1.082   0.856  1.3042 -2.5009 -1.0397
11070SOL    HW245684   5.196   1.141   0.746  0.6770 -2.2231 -0.2914
11071SOL     OW45685   0.468   4.506   5.057 -0.3010  0.0599 -0.0285
11071SOL    HW145686   0.392   4.453   5.019  0.2353 -1.4816  1.0203
11071SOL    HW245687   0.438   4.553   5.140 -0.2591 -0.1049  0.0796
11072SOL     OW45688   3.191   1.611   2.339  0.1050  0.6551  0.0532
11072SOL    HW145689   3.205   1.701   2.382 -2.7549  1.0009  0.3952
11072SOL    HW245690   3.130   1.622   2.260 -3.1453 -1.4005  2.1491
11073SOL     OW45691   2.124   8.124   8.290  0.1761  0.4764  0.1466
11073SOL    HW145692   2.220   8.115   8.262  0.0376 -1.3756  0.1691
11073SOL    HW245693   2.068   8.063   8.234 -0.5849 -0.6008  2.0481
11074SOL     OW45694   7.438   0.770   3.629 -0.0426  0.9183 -0.4326
11074SOL    HW145695   7.373   0.697   3.652 -1.5034  2.5331  0.6754
11074SOL    HW245696   7.400   0.827   3.557  0.2875  1.6961  0.0061
11075SOL     OW45697   1.497   8.476   3.109 -0.6515  0.3453  0.1877
11075SOL    HW145698   1.578   8.495   3.166 -0.0330 -1.4456 -0.0542
11075SOL    HW245699   1.415   8.482   3.165 -0.3087  1.5360  0.5856
11076SOL     OW45700   8.962   1.894   7.089 -0.4667 -0.4526  0.1853
11076SOL    HW145701   9.036   1.904   7.023 -2.2161 -2.6160 -2.2294
11076SOL    HW245702   8.991   1.835   7.163  1.3511  1.5690  1.1358
11077SOL     OW45703   4.203   5.207   5.544  0.2315 -0.0462 -0.0036
11077SOL    HW145704   4.228   5.123   5.593 -0.0793 -0.0181  0.2089
11077SOL    HW245705   4.239   5.204   5.451  3.5937  1.2735  1.1665
11078SOL     OW45706   6.036   0.061   8.298 -0.2279  1.0332 -0.2759
11078SOL    HW145707   5.948   0.081   8.342 -1.1205  0.8938 -1.9525
11078SOL    HW245708   6.087  -0.003   8.354 -0.8448  1.7311  1.1189
11079SOL     OW45709   2.149   7.239   1.495  0.4251 -0.2551  0.3612
11079SOL    HW145710   2.052   7.214   1.493  0.2347  0.4747  0.3819
11079SOL    HW245711   2.191   7.208   1.580  0.7387 -2.5114 -0.5648
11080SOL     OW45712   5.600   6.204   6.318 -0.1000 -0.2129 -0.2097
11080SOL    HW145713   5.614   6.235   6.413  1.9056 -1.5685 -0.0388
11080SOL    HW245714   5.673   6.239   6.260 -0.8379 -0.1208 -1.0995
11081SOL     OW45715   7.518   3.974   4.161  0.5182 -0.2865  0.1865
11081SOL    HW145716   7.569   3.952   4.244  1.5211 -0.7760 -0.5453
11081SOL    HW245717   7.578   4.022   4.097 -0.5207  0.9500  0.1266
11082SOL     OW45718   3.568   1.938   6.316 -0.0717 -0.2860  0.4044
11082SOL    HW145719   3.576   1.838   6.306  1.0047 -0.0958 -0.7827
11082SOL    HW245720   3.624   1.969   6.393 -0.1638 -0.5590  0.5819
11083SOL     OW45721   1.615   3.281   1.102  0.2723  0.1513 -0.1481
11083SOL    HW145722   1.519   3.299   1.082  0.0842 -0.4940  0.1709
11083SOL    HW245723   1.629   3.183   1.116  0.4398  0.5512  2.7539
11084SOL     OW45724   2.419   2.224   7.833 -0.6111  0.1915 -0.4122
11084SOL    HW145725   2.477   2.305   7.834 -0.4834  0.0998 -0.5228
11084SOL    HW245726   2.474   2.143   7.852 -0.9079  0.2437  0.7207
11085SOL     OW45727   7.568   5.036   3.217  0.3690 -0.0775  0.2812
11085SOL    HW145728   7.535   5.097   3.145  1.1610 -0.6497 -0.5838
11085SOL    HW245729   7.564   4.941   3.186  0.1088 -0.3899  1.2336
11086SOL     OW45730   3.305   7.390   0.579  0.1000  0.3456 -0.3530
11086SOL    HW145731   3.284   7.487   0.576 -0.7621  0.1742 -0.1676
11086SOL    HW245732   3.403   7.376   0.572  0.2718  1.2579  0.2146
11087SOL     OW45733   6.080   5.455   7.642 -0.1823 -0.4076  0.3411
11087SOL    HW145734   6.106   5.535   7.696 -0.7370 -0.1536  0.2419
11087SOL    HW245735   6.024   5.393   7.698 -1.5024  0.2803 -0.1849
11088SOL     OW45736   6.401   3.189   7.149 -0.7946 -0.4753 -0.3035
11088SOL    HW145737   6.368   3.222   7.060  1.7745  1.5710 -0.5491
11088SOL    HW245738   6.497   3.163   7.141 -0.5726 -0.3639  1.8441
11089SOL     OW45739   0.864   5.466   0.685 -0.3926  0.3417 -0.4147
11089SOL    HW145740   0.864   5.515   0.773 -2.6755  2.3697 -1.4678
11089SOL    HW245741   0.853   5.532   0.611 -1.1042 -1.5786 -2.0597
11090SOL     OW45742   7.550   3.056   2.673 -0.6194  0.0923 -0.2256
11090SOL    HW145743   7.478   3.125   2.678 -1.3678 -0.7641  1.5799
11090SOL    HW245744   7.624   3.089   2.615 -0.4557  2.8984  1.4583
11091SOL     OW45745   0.027   7.783   4.248  0.4750  0.3211 -0.1213
11091SOL    HW145746  -0.014   7.807   4.160 -1.0347  2.6707  1.1872
11091SOL    HW245747  -0.005   7.846   4.318  0.8573 -2.1236  2.3444
11092SOL     OW45748   5.188   2.218   5.484 -0.1951  0.0783  0.1253
11092SOL    HW145749   5.241   2.184   5.407 -1.1115 -1.5826  0.1990
11092SOL    HW245750   5.248   2.231   5.563  0.1261 -1.8462  0.2296
11093SOL     OW45751   5.171   2.181   7.638  0.0022 -0.4283  0.3337
11093SOL    HW145752   5.266   2.169   7.666 -0.3969  2.1548  3.0857
11093SOL    HW245753   5.114   2.113   7.685  0.2597 -0.9462 -0.0902
11094SOL     OW45754   5.597   5.260   8.247  0.3444 -0.0807  0.7271
11094SOL    HW145755   5.590   5.360   8.247 -1.0134 -0.1424 -1.4040
11094SOL    HW245756   5.512   5.221   8.279  0.3162 -0.5562  0.0894
11095SOL     OW45757   0.749   3.378   4.284  0.1394 -0.8156  0.6332
11095SOL    HW145758   0.712   3.290   4.315  2.5475 -1.1621  2.7011
11095SOL    HW245759   0.797   3.365   4.198 -2.2261 -0.8587 -0.7335
11096SOL     OW45760   1.239   4.639   8.223  0.7282  0.3757  0.8602
11096SOL    HW145761   1.166   4.618   8.288  0.8666  1.2406  1.2928
11096SOL    HW245762   1.205   4.703   8.154  0.6602 -0.3316  0.2305
11097SOL     OW45763   6.814   3.339   0.062 -0.3883 -0.1541  0.5006
11097SOL    HW145764   6.739   3.316   0.124  0.5251 -0.1083  1.6578
11097SOL    HW245765   6.828   3.438   0.062  0.1622 -0.2268  0.8900
11098SOL     OW45766   4.034   5.446   5.796  0.2878 -0.4664  0.4984
11098SOL    HW145767   4.064   5.356   5.827 -2.4758 -1.5032  0.3186
11098SOL    HW245768   4.114   5.502   5.772  2.0439 -2.7872  0.7871
11099SOL     OW45769   2.528   4.134   3.925  0.3257  0.0048  1.5981
11099SOL    HW145770   2.558   4.124   3.830  1.4412  1.8329  1.7526
11099SOL    HW245771   2.572   4.063   3.981 -0.3150 -1.0616  0.7661
11100SOL     OW45772   3.907   4.929   1.826  0.7911 -0.8063 -0.7955
11100SOL    HW145773   3.957   4.925   1.739  0.2864 -0.7522 -1.0896
11100SOL    HW245774   3.833   4.862   1.825 -0.8463  0.9712 -1.4399
11101SOL     OW45775   5.423   7.167   8.810  0.0089 -0.4033 -0.6870
11101SOL    HW145776   5.457   7.255   8.843 -0.0757 -1.1052  1.3651
11101SOL    HW245777   5.497   7.099   8.812 -0.1754 -0.6252 -1.2917
11102SOL     OW45778   2.333   4.258   5.786 -0.5633 -0.4410 -0.3803
11102SOL    HW145779   2.372   4.187   5.844  0.1691  0.9843  0.9133
11102SOL    HW245780   2.233   4.256   5.792 -0.5568 -1.5527 -0.6008
11103SOL     OW45781   4.704   0.154   5.646 -0.3009 -0.2549 -0.4042
11103SOL    HW145782   4.668   0.127   5.735 -0.5669 -0.3307 -0.5352
11103SOL    HW245783   4.703   0.075   5.584  0.6991 -0.4325 -0.2130
11104SOL     OW45784   3.839   6.280   8.048 -0.6889 -0.4592 -0.4197
11104SOL    HW145785   3.757   6.336   8.054 -0.5721 -0.2506 -0.7687
11104SOL    HW245786   3.880   6.290   7.957  0.5078  0.5198  0.2156
11105SOL     OW45787   6.372   0.809   8.693  0.1026  0.5408 -1.1254
11105SOL    HW145788   6.416   0.876   8.753  0.3117  1.3543 -2.1843
11105SOL    HW245789   6.407   0.818   8.600 -0.8928 -0.0876 -1.5768
11106SOL     OW45790   3.763   4.313   2.441 -0.0350 -0.0867  0.1119
11106SOL    HW145791   3.700   4.390   2.448 -0.5087 -0.2087 -2.3354
11106SOL    HW245792   3.711   4.227   2.442  0.1018 -0.2028 -1.4549
11107SOL     OW45793   7.017   6.109   5.925 -0.2246 -0.1508  0.1502
11107SOL    HW145794   7.040   6.080   5.832  4.2324 -0.1763  1.1267
11107SOL    HW245795   6.979   6.201   5.923 -1.9333 -0.8739 -1.8258
11108SOL     OW45796   3.596   6.716   5.178  0.0900  0.1429 -0.1019
11108SOL    HW145797   3.549   6.635   5.144  0.3803  0.4092 -1.1477
11108SOL    HW245798   3.582   6.723   5.277 -1.4822 -0.1731 -0.2783
11109SOL     OW45799   2.000   6.630   2.125 -0.7769 -0.3857  0.5909
11109SOL    HW145800   2.076   6.597   2.181 -0.2479  2.0144  1.3428
11109SOL    HW245801   1.918   6.578   2.146 -0.3057 -0.2981  2.7472
11110SOL     OW45802   0.479   1.707   3.514  0.3810 -0.1848 -0.0498
11110SOL    HW145803   0.418   1.782   3.489 -0.5420 -1.0032 -0.3028
11110SOL    HW245804   0.541   1.688   3.437 -0.5583 -0.8260 -0.6665
11111SOL     OW45805   6.604   2.292   3.630 -0.1536 -0.2016 -0.1934
11111SOL    HW145806   6.600   2.351   3.711 -1.4882  1.2654 -1.2944
11111SOL    HW245807   6.532   2.318   3.566  1.3826 -0.7868 -2.2289
11112SOL     OW45808   3.798   1.556   8.982  0.4660  0.5081  0.0792
11112SOL    HW145809   3.896   1.540   8.976  0.2613 -0.8755  0.1696
11112SOL    HW245810   3.754   1.523   8.899  0.1558  1.7081 -0.2280
11113SOL     OW45811   6.410   1.766   7.861 -0.1908 -0.3308  0.0769
11113SOL    HW145812   6.348   1.703   7.815 -0.8830 -1.0902  1.9661
11113SOL    HW245813   6.358   1.827   7.920  0.7999 -0.8433  1.5365
11114SOL     OW45814   8.117   8.027   0.013  0.5489  0.2462  0.7812
11114SOL    HW145815   8.094   8.102   0.074 -2.7530 -1.0042  1.1599
11114SOL    HW245816   8.117   7.941   0.063  1.1343 -0.4147 -0.3184
11115SOL     OW45817   7.054   5.786   5.272 -0.0655 -0.0880  0.5342
11115SOL    HW145818   7.004   5.803   5.186 -0.7553  1.5931  1.2428
11115SOL    HW245819   7.131   5.725   5.254 -0.7420 -0.4945 -1.1129
11116SOL     OW45820   6.084   2.456   1.864  0.6434  0.4114 -0.0059
11116SOL    HW145821   6.025   2.533   1.842  0.9313  0.7517  0.4256
11116SOL    HW245822   6.174   2.469   1.822  0.9620  0.7146  0.7622
11117SOL     OW45823   0.725   3.618   3.517  0.1489 -0.2505 -0.1750
11117SOL    HW145824   0.669   3.671   3.453 -1.6821 -1.7264  0.1502
11117SOL    HW245825   0.737   3.525   3.482  0.3026 -0.6618  0.9391
11118SOL     OW45826   3.179   8.308   7.925  0.2454 -0.3335 -0.5684
11118SOL    HW145827   3.277   8.325   7.942  0.4350 -2.2967  0.4307
11118SOL    HW245828   3.164   8.210   7.914 -1.1872  0.1762 -3.7224
11119SOL     OW45829   3.946   2.322   2.070  1.0565  0.3791 -0.3528
11119SOL    HW145830   4.044   2.304   2.084  0.8814  0.8687  1.6797
11119SOL    HW245831   3.929   2.420   2.077 -0.3332 -0.1059  4.8874
11120SOL     OW45832   7.647   8.373   6.059 -0.4889 -0.5042 -0.0269
11120SOL    HW145833   7.600   8.422   6.132 -0.7399 -0.2050 -0.3845
11120SOL    HW245834   7.741   8.352   6.088 -0.2376  0.5651 -0.0139
11121SOL     OW45835   2.410   5.691   5.899 -0.3749 -0.1266 -0.0295
11121SOL    HW145836   2.343   5.630   5.857 -0.0360  0.4191 -1.3623
11121SOL    HW245837   2.407   5.781   5.855  2.3130 -0.5578 -1.2141
11122SOL     OW45838   3.956   0.372   7.994  1.0965  0.0515 -0.2709
11122SOL    HW145839   3.947   0.294   8.056 -0.8285  0.2549 -0.2778
11122SOL    HW245840   3.893   0.361   7.917  0.9303  1.5277 -0.3557
11123SOL     OW45841   0.090   3.621   1.577  0.1719  0.2355  0.2126
11123SOL    HW145842   0.005   3.580   1.544  0.7327 -0.5243 -0.3165
11123SOL    HW245843   0.098   3.606   1.676 -0.2183  0.1538  0.2331
11124SOL     OW45844   8.977   2.575   4.862 -0.6038 -0.5511 -0.2044
11124SOL    HW145845   8.960   2.504   4.794 -3.0723 -1.9144  1.7135
11124SOL    HW245846   8.889   2.605   4.901  0.6207  1.3898  1.1617
11125SOL     OW45847   4.672   7.368   0.859 -0.6364  0.2375 -0.8908
11125SOL    HW145848   4.728   7.346   0.939 -1.0816  0.6141 -0.4720
11125SOL    HW245849   4.689   7.463   0.833 -1.2638  0.4321 -0.6058
11126SOL     OW45850   4.182   6.237   7.016 -0.1855 -0.5211  0.6708
11126SOL    HW145851   4.198   6.157   6.957  0.6898 -1.1655  1.7508
11126SOL    HW245852   4.150   6.313   6.960 -0.6588 -1.5068 -0.4443
11127SOL     OW45853   4.449   7.284   2.859 -0.2257 -0.2529 -0.5989
11127SOL    HW145854   4.408   7.327   2.939 -1.3103  0.4257 -1.4951
11127SOL    HW245855   4.548   7.287   2.866 -0.3144 -1.6089  1.4537
11128SOL     OW45856   3.443   0.909   5.796  0.2632 -0.4163 -0.1254
11128SOL    HW145857   3.376   0.983   5.787  0.3477 -0.3626 -0.3090
11128SOL    HW245858   3.490   0.896   5.709  1.0862  0.1058  0.2452
11129SOL     OW45859   5.267   6.227   0.508  0.3130 -0.3396  0.0763
11129SOL    HW145860   5.253   6.285   0.428  0.7611 -0.0472  0.2073
11129SOL    HW245861   5.186   6.171   0.523  0.6001 -1.1078 -1.1497
11130SOL     OW45862   3.795   1.770   5.058  0.8103  0.5825  0.3915
11130SOL    HW145863   3.814   1.739   5.151  0.3113 -0.5104  0.1339
11130SOL    HW245864   3.868   1.831   5.028  2.0439 -0.6826  0.7433
11131SOL     OW45865   3.615   1.969   4.532  0.4506 -0.7622 -0.0592
11131SOL    HW145866   3.613   2.058   4.485 -0.2856 -1.1432 -0.7598
11131SOL    HW245867   3.610   1.983   4.631  0.1996 -0.0338 -0.1723
11132SOL     OW45868   7.291   2.491   7.859  0.5158  0.3771 -0.3137
11132SOL    HW145869   7.311   2.532   7.948  0.5587 -0.4880  0.0765
11132SOL    HW245870   7.371   2.498   7.800  1.3224 -1.2647  0.5588
11133SOL     OW45871   6.305   7.254   6.546 -0.2189 -0.3780  0.3465
11133SOL    HW145872   6.313   7.336   6.488  0.8476 -1.2392 -0.7487
11133SOL    HW245873   6.293   7.174   6.488  0.0908 -1.1650  1.3609
11134SOL     OW45874   3.370   3.501   2.514  0.3403  0.3189  0.2543
11134SOL    HW145875   3.297   3.568   2.520 -0.2501 -0.0629 -1.9962
11134SOL    HW245876   3.363   3.435   2.589 -2.3153 -0.3814 -0.5746
11135SOL     OW45877   8.197   7.826   8.626 -0.0801  0.8059  0.9406
11135SOL    HW145878   8.104   7.807   8.596  0.2314 -0.2933  0.6636
11135SOL    HW245879   8.221   7.766   8.702  1.5034 -1.1866 -1.0571
11136SOL     OW45880   6.657   1.247   4.218 -0.2191  0.2363 -0.0822
11136SOL    HW145881   6.735   1.307   4.202 -1.7116  1.9242 -1.2993
11136SOL    HW245882   6.654   1.175   4.149 -0.4004  0.8764 -0.7438
11137SOL     OW45883   6.525   5.486   5.342  0.2412 -0.2206  0.3481
11137SOL    HW145884   6.448   5.548   5.359 -0.7887 -1.2038 -0.7360
11137SOL    HW245885   6.558   5.498   5.249  0.9234 -0.3488  0.5664
11138SOL     OW45886   0.272   1.197   3.438 -0.3830 -0.3909  0.0716
11138SOL    HW145887   0.252   1.272   3.375  0.8073  0.1677  0.3404
11138SOL    HW245888   0.321   1.124   3.389  0.2532 -0.0995  0.2675
11139SOL     OW45889   6.756   5.342   6.461 -0.1812  0.4783 -0.0585
11139SOL    HW145890   6.848   5.366   6.491 -0.1048  0.7087 -0.4669
11139SOL    HW245891   6.748   5.359   6.363 -0.3527 -0.4670 -0.2191
11140SOL     OW45892   3.806   1.857   3.983 -0.1779  0.2387  0.1539
11140SOL    HW145893   3.795   1.766   3.945  1.4174  0.0554  0.0732
11140SOL    HW245894   3.807   1.852   4.083  0.8894  0.0299  0.1379
11141SOL     OW45895   4.408   5.377   2.589 -0.1710 -0.1741 -0.0315
11141SOL    HW145896   4.466   5.448   2.549  0.8727 -1.9818 -1.8279
11141SOL    HW245897   4.365   5.324   2.516 -2.1324 -0.4730  1.2877
11142SOL     OW45898   6.948   2.792   3.257  0.0475  0.2107 -0.2425
11142SOL    HW145899   7.042   2.758   3.250  0.5415  1.2187  1.2823
11142SOL    HW245900   6.946   2.889   3.233 -0.5777  0.2294 -0.1220
11143SOL     OW45901   6.865   3.332   4.686 -0.1264  0.1196  0.1876
11143SOL    HW145902   6.900   3.239   4.688 -3.2579 -1.1337 -0.9189
11143SOL    HW245903   6.894   3.378   4.602  3.2539  0.9527  1.7301
11144SOL     OW45904   7.680   4.552   4.964  0.1124 -0.3415  0.4483
11144SOL    HW145905   7.599   4.493   4.959  0.1536 -0.6278  2.6534
11144SOL    HW245906   7.724   4.540   5.053  0.9207  1.9839  0.3792
11145SOL     OW45907   1.729   0.779   1.322  0.1120  0.3075 -0.2718
11145SOL    HW145908   1.771   0.715   1.257  0.4351  0.0084  0.2273
11145SOL    HW245909   1.747   0.748   1.416  0.6180  1.3561 -0.0185
11146SOL     OW45910   5.239   7.004   1.889 -0.5166  0.1733  0.4678
11146SOL    HW145911   5.215   7.038   1.980 -2.5042 -0.9422  0.3750
11146SOL    HW245912   5.317   6.941   1.897 -0.0112  0.8739  1.2495
11147SOL     OW45913   4.197   1.870   7.190 -0.1299  0.0178  0.0057
11147SOL    HW145914   4.210   1.863   7.289 -0.5296  1.3527  0.1610
11147SOL    HW245915   4.257   1.805   7.144 -0.6239 -1.2811  1.1622
11148SOL     OW45916   2.932   3.376   0.000 -0.7421 -0.0983 -0.0409
11148SOL    HW145917   2.842   3.342   0.027 -0.5746 -0.1300  0.4824
11148SOL    HW245918   2.971   3.315  -0.069 -1.2078  0.0299 -0.4248
11149SOL     OW45919   1.216   1.570   0.563  0.9571 -0.8145 -0.1221
11149SOL    HW145920   1.302   1.605   0.527  0.9224  0.0788  0.6274
11149SOL    HW245921   1.229   1.477   0.598  1.3390 -1.1091 -1.0342
11150SOL     OW45922   3.420   2.226   8.323 -0.1921  0.7892  0.1701
11150SOL    HW145923   3.349   2.284   8.283 -0.1825  0.3944 -0.4208
11150SOL    HW245924   3.378   2.162   8.386 -0.0787  2.1794  1.7011
11151SOL     OW45925   4.353   5.378   0.503  0.7704  0.1193  0.4339
11151SOL    HW145926   4.417   5.383   0.579  0.4505  0.3664  0.6918
11151SOL    HW245927   4.351   5.285   0.466 -0.9990 -0.6833  2.4107
11152SOL     OW45928   2.138   1.325   7.533  0.2535  0.3446 -0.3682
11152SOL    HW145929   2.227   1.302   7.494 -0.1439  1.6105 -2.1215
11152SOL    HW245930   2.140   1.419   7.568 -0.5631  0.6041 -0.9968
11153SOL     OW45931   0.255   6.729   6.384 -0.8122  0.5595 -0.2731
11153SOL    HW145932   0.279   6.819   6.421  0.0167  0.1114  0.2844
11153SOL    HW245933   0.335   6.689   6.339 -1.2203  0.1587 -0.6523
11154SOL     OW45934   4.686   5.247   6.963 -0.3087  0.1046 -0.2364
11154SOL    HW145935   4.761   5.182   6.952 -0.2609  0.1801 -0.3593
11154SOL    HW245936   4.639   5.229   7.049 -1.0269 -0.8369 -0.8163
11155SOL     OW45937   4.024   0.380   8.920  0.1436  0.0981 -0.3004
11155SOL    HW145938   4.010   0.305   8.985  2.8399 -1.8044 -1.8077
11155SOL    HW245939   3.980   0.357   8.834 -1.4390  1.5649  0.1020
11156SOL     OW45940   7.818   4.372   0.306 -0.2118 -0.3040 -0.0067
11156SOL    HW145941   7.740   4.422   0.342 -0.3554  0.7308 -1.6813
11156SOL    HW245942   7.814   4.371   0.206  2.1613  0.2087 -0.1537
11157SOL     OW45943   8.998   4.187   1.390 -0.8560 -0.2198  0.0296
11157SOL    HW145944   9.037   4.097   1.407 -0.7108  0.2441  2.2842
11157SOL    HW245945   8.901   4.177   1.367 -1.0755 -0.8773  1.2221
11158SOL     OW45946   2.203   1.779   1.774 -0.6527 -0.2149  0.1132
11158SOL    HW145947   2.196   1.689   1.730  4.0848  0.0858 -1.5039
11158SOL    HW245948   2.190   1.851   1.705 -2.5724  0.3814  1.0587
11159SOL     OW45949   0.954   6.969   8.230  0.1204  0.3802  0.3620
11159SOL    HW145950   0.897   7.015   8.298  2.1726  0.1293  2.3271
11159SOL    HW245951   0.960   6.872   8.252 -3.1791 -0.7016 -3.0477
11160SOL     OW45952   8.227   6.278   1.749 -0.1414 -0.0930 -0.0861
11160SOL    HW145953   8.303   6.270   1.684  0.1331 -0.7956  0.3107
11160SOL    HW245954   8.171   6.358   1.726  0.9132  0.6239 -0.1720
11161SOL     OW45955   1.546   4.472   1.528  0.1930  0.2772  0.2503
11161SOL    HW145956   1.619   4.522   1.576  1.4096 -0.2755 -0.9827
11161SOL    HW245957   1.587   4.406   1.465 -1.3855 -0.0260 -0.4794
11162SOL     OW45958   2.760   4.047   7.034 -0.8264  0.3526  0.3899
11162SOL    HW145959   2.827   4.044   6.959  0.4586 -1.7073  1.5659
11162SOL    HW245960   2.714   4.136   7.034  0.9154  1.3021 -1.3063
11163SOL     OW45961   0.603   4.691   8.384  0.7417  0.1335 -0.0149
11163SOL    HW145962   0.537   4.765   8.397 -0.9774 -1.1431 -1.2106
11163SOL    HW245963   0.568   4.608   8.426  1.5244 -0.5998 -0.7974
11164SOL     OW45964   0.256   5.638   7.671 -0.6497 -0.0222 -0.7170
11164SOL    HW145965   0.158   5.649   7.688 -0.7626 -0.0700 -1.3296
11164SOL    HW245966   0.293   5.723   7.633 -0.2800  0.2810  0.3101
11165SOL     OW45967   3.528   3.133   5.256  0.1462 -0.2554  0.5177
11165SOL    HW145968   3.569   3.209   5.205 -0.6014  0.4385  0.9345
11165SOL    HW245969   3.438   3.161   5.291 -0.5247 -1.6259 -0.0722
11166SOL     OW45970   7.456   5.541   2.458  0.2458  0.0472 -0.0315
11166SOL    HW145971   7.390   5.605   2.419  0.4835 -0.7916 -1.8703
11166SOL    HW245972   7.521   5.513   2.387 -0.0017 -2.4393  0.6789
11167SOL     OW45973   0.210   3.210   7.918  0.5607 -0.1215  0.4766
11167SOL    HW145974   0.226   3.154   7.836 -0.0398  1.5741 -0.8252
11167SOL    HW245975   0.291   3.266   7.937  0.3074  0.2630  0.4254
11168SOL     OW45976   1.506   6.850   0.160 -0.2398 -0.0538 -0.3538
11168SOL    HW145977   1.503   6.950   0.168  1.0097 -0.0014 -0.4484
11168SOL    HW245978   1.572   6.813   0.225 -0.7200 -0.8333 -0.2964
11169SOL     OW45979   5.607   3.746   7.367 -0.4530  0.4474  0.6629
11169SOL    HW145980   5.618   3.654   7.404 -2.7063  0.1927  0.7875
11169SOL    HW245981   5.636   3.814   7.435 -0.0676 -0.1409  1.0833
11170SOL     OW45982   1.201   1.199   1.876  0.1500 -0.3591 -0.0914
11170SOL    HW145983   1.136   1.265   1.912  0.9572  0.8651 -0.8388
11170SOL    HW245984   1.293   1.222   1.908  0.7435  0.1822 -2.1356
11171SOL     OW45985   8.807   4.259   8.701  0.5104 -0.0628  0.4651
11171SOL    HW145986   8.793   4.165   8.669  0.0010  0.7471 -1.7402
11171SOL    HW245987   8.725   4.290   8.750  0.3776 -0.4864  0.5149
11172SOL     OW45988   0.556   7.539   2.260 -0.1069 -0.0008  0.4681
11172SOL    HW145989   0.520   7.571   2.173  0.2590 -1.8271 -0.3844
11172SOL    HW245990   0.630   7.599   2.289 -0.2400  0.6350 -0.4716
11173SOL     OW45991   0.516   0.578   7.859 -0.6196 -0.3315 -0.3687
11173SOL    HW145992   0.613   0.556   7.853 -0.1877  1.4731 -0.4403
11173SOL    HW245993   0.476   0.532   7.937  1.1262  1.6775  1.7887
11174SOL     OW45994   5.730   0.211   0.650  0.0376  0.2726 -0.7899
11174SOL    HW145995   5.685   0.289   0.694 -0.8042 -0.2569 -0.7094
11174SOL    HW245996   5.778   0.157   0.719  5.8319  4.0616 -1.5296
11175SOL     OW45997   7.692   1.235   0.814 -0.5066 -0.3433 -0.2001
11175SOL    HW145998   7.769   1.171   0.809 -1.2386 -1.1979 -0.8172
11175SOL    HW245999   7.631   1.218   0.737  0.3166  2.4654 -1.5069
11176SOL     OW46000   0.061   2.785   1.960 -0.5967 -0.0210  0.0187
11176SOL    HW146001   0.156   2.781   1.929 -0.9747  0.7851 -1.3031
11176SOL    HW246002   0.034   2.880   1.970 -1.1153 -0.2582  0.8896
11177SOL     OW46003   1.528   5.432   7.058  0.0670 -0.0781  0.0901
11177SOL    HW146004   1.449   5.492   7.047  0.3868  0.1414 -1.0609
11177SOL    HW246005   1.549   5.422   7.155 -0.1253  1.4949  0.2985
11178SOL     OW46006   7.452   2.665   7.229  0.2368 -0.5508 -0.3911
11178SOL    HW146007   7.480   2.620   7.313  1.1274  1.4021  0.4079
11178SOL    HW246008   7.533   2.702   7.183 -0.4069 -0.1872 -1.2438
11179SOL     OW46009   6.520   8.807   7.540 -0.0891  0.1712 -0.2970
11179SOL    HW146010   6.522   8.883   7.605 -1.5356 -0.3255  0.3539
11179SOL    HW246011   6.551   8.838   7.450 -0.8257  1.5669 -0.0701
11180SOL     OW46012   0.990   3.892   1.774  0.2233 -0.1074 -0.0729
11180SOL    HW146013   0.892   3.886   1.755  0.2466 -0.5218 -0.0664
11180SOL    HW246014   1.018   3.988   1.774  0.2224 -0.0843 -2.1646
11181SOL     OW46015   1.719   6.085   0.108  0.4792 -0.2804  0.1086
11181SOL    HW146016   1.649   6.157   0.108  0.7732  0.0061  0.6820
11181SOL    HW246017   1.797   6.115   0.052 -0.3994 -1.1333 -1.5924
11182SOL     OW46018   1.332   4.132   2.347  0.3563 -0.4604 -0.3058
11182SOL    HW146019   1.261   4.202   2.352  1.9785  1.3457 -1.5809
11182SOL    HW246020   1.320   4.065   2.420 -3.0326 -0.5763 -0.9149
11183SOL     OW46021   5.268   8.051   8.473  0.0994 -0.3783 -0.3419
11183SOL    HW146022   5.233   7.963   8.506  2.7010 -1.7750 -1.1525
11183SOL    HW246023   5.317   8.096   8.548  1.2001 -0.9530 -0.7065
11184SOL     OW46024   0.679   5.505   8.718  0.0303  0.0389  0.2090
11184SOL    HW146025   0.707   5.582   8.776  0.3405 -1.0719  1.5515
11184SOL    HW246026   0.757   5.472   8.666 -0.4324  1.5674 -1.4838
11185SOL     OW46027   4.454   0.416   0.613  0.3117  0.0384  0.2655
11185SOL    HW146028   4.403   0.372   0.538 -1.6837  0.8357  1.1031
11185SOL    HW246029   4.526   0.473   0.575  0.4322 -0.9167 -0.9813
11186SOL     OW46030   5.291   5.926   4.673  0.8341 -0.2331 -0.0813
11186SOL    HW146031   5.197   5.914   4.705  0.7000 -2.0208 -1.0927
11186SOL    HW246032   5.293   5.995   4.600  0.1912 -0.6519 -0.5038
11187SOL     OW46033   0.803   0.903   0.036 -0.4791 -0.1002  0.2921
11187SOL    HW146034   0.841   0.812   0.022  1.1814  0.7640 -0.8950
11187SOL    HW246035   0.738   0.924  -0.036 -1.9775 -0.9020  1.3787
11188SOL     OW46036   6.609   4.173   0.190  0.2528  0.2211 -0.5976
11188SOL    HW146037   6.619   4.075   0.172  1.7882  0.5999 -2.0053
11188SOL    HW246038   6.589   4.187   0.286 -1.0379 -1.5356 -0.5916
11189SOL     OW46039   4.328   0.997   1.716  0.0458  0.3460  0.0022
11189SOL    HW146040   4.397   0.946   1.768 -0.6354 -1.6753 -1.0258
11189SOL    HW246041   4.373   1.068   1.662  0.9962  0.9861  1.6239
11190SOL     OW46042   1.850   2.071   4.262 -0.3890  0.4670 -0.0613
11190SOL    HW146043   1.765   2.018   4.266 -0.3330  0.3490 -0.4276
11190SOL    HW246044   1.862   2.121   4.348  0.3979 -1.4287  0.9716
11191SOL     OW46045   2.393   6.273   7.210 -0.2344 -0.4189  0.1804
11191SOL    HW146046   2.296   6.254   7.226 -0.5995  0.1885 -1.2578
11191SOL    HW246047   2.413   6.269   7.112  0.9842  0.4850  0.3755
11192SOL     OW46048   3.858   5.859   5.698  0.0159  0.1499  0.7889
11192SOL    HW146049   3.955   5.862   5.672 -0.0979  1.0456  0.4726
11192SOL    HW246050   3.816   5.777   5.659  1.1385 -1.3586  2.6589
11193SOL     OW46051   8.304   6.265   6.484  0.2014 -0.1536  0.4200
11193SOL    HW146052   8.205   6.256   6.500 -0.1122  1.6586 -0.4155
11193SOL    HW246053   8.337   6.184   6.436 -0.8365 -0.8464  0.8316
11194SOL     OW46054   7.013   4.720   3.582 -0.2881 -0.8143 -0.7012
11194SOL    HW146055   6.947   4.767   3.523 -1.0161 -1.7030 -0.6034
11194SOL    HW246056   7.077   4.787   3.621 -2.1180  0.2793  0.4786
11195SOL     OW46057   8.488   0.759   6.986  0.3796 -0.3522  0.1109
11195SOL    HW146058   8.464   0.723   6.896  0.0889 -0.1099  0.0941
11195SOL    HW246059   8.508   0.683   7.048 -2.3044 -0.6463  0.6782
11196SOL     OW46060   4.149   1.735   8.539 -0.1297 -0.0446 -0.2304
11196SOL    HW146061   4.153   1.675   8.619 -0.5261 -0.2709 -0.3814
11196SOL    HW246062   4.132   1.829   8.569  0.4609 -0.0061  0.0038
11197SOL     OW46063   5.828   1.406   7.970 -0.1635 -0.1968 -0.4832
11197SOL    HW146064   5.819   1.429   8.067 -1.4277  1.3388 -0.9439
11197SOL    HW246065   5.785   1.318   7.952 -0.5414 -0.1533  0.2091
11198SOL     OW46066   0.237   5.855   6.609  0.4367  0.2203 -0.2354
11198SOL    HW146067   0.194   5.944   6.627  0.7856  0.8493 -2.4288
11198SOL    HW246068   0.248   5.842   6.511  0.1977 -2.3653  0.0382
11199SOL     OW46069   3.939   0.166   8.199 -0.3420 -0.3850 -0.7793
11199SOL    HW146070   3.970   0.212   8.283 -4.0164  0.7322  0.0617
11199SOL    HW246071   3.916   0.071   8.220 -1.3563 -0.0780 -0.4724
11200SOL     OW46072   2.718   7.880   4.491 -0.3607 -0.1473  0.2702
11200SOL    HW146073   2.692   7.925   4.406 -1.2335 -0.2682  0.4651
11200SOL    HW246074   2.663   7.917   4.566  0.4853  0.0426  0.8008
11201SOL     OW46075   0.876   2.513   5.830  0.2875  0.4292  0.2885
11201SOL    HW146076   0.785   2.511   5.789  1.1799 -0.5548 -1.7130
11201SOL    HW246077   0.868   2.529   5.929 -2.0482  0.0593  0.1859
11202SOL     OW46078   3.182   8.293   4.081 -0.1838  0.1257 -0.4836
11202SOL    HW146079   3.249   8.342   4.025  2.3589  0.0627  2.3548
11202SOL    HW246080   3.142   8.357   4.147  1.6397 -1.0520  1.8608
11203SOL     OW46081   1.350   7.118   6.342  0.3047 -0.0143 -0.3024
11203SOL    HW146082   1.330   7.173   6.424  0.0543  0.6073 -0.7799
11203SOL    HW246083   1.428   7.158   6.294 -1.0209  1.0194 -1.6518
11204SOL     OW46084   2.985   7.775   4.841 -0.0283 -0.3287  0.3839
11204SOL    HW146085   3.078   7.739   4.848 -0.1975 -2.1658 -4.8367
11204SOL    HW246086   2.919   7.701   4.852 -0.9414  0.9103  3.7222
11205SOL     OW46087   5.995   3.205   7.163  0.7399  1.2650  0.0344
11205SOL    HW146088   5.960   3.136   7.100  1.1793  0.8647  0.2230
11205SOL    HW246089   5.922   3.233   7.226  1.1248 -0.6386  1.3778
11206SOL     OW46090   6.323   3.845   3.149  0.1887  0.3159  0.1702
11206SOL    HW146091   6.238   3.811   3.111 -0.6741  2.6743 -0.0794
11206SOL    HW246092   6.387   3.867   3.075  1.6269 -2.8501  0.3885
11207SOL     OW46093   8.578   6.343   7.293  0.1113 -0.7068  0.3097
11207SOL    HW146094   8.677   6.337   7.306  0.4237  0.7230 -1.2764
11207SOL    HW246095   8.533   6.272   7.348  2.0553 -2.0042  0.2755
11208SOL     OW46096   2.467   7.783   0.354 -0.3106  0.1175  0.2204
11208SOL    HW146097   2.442   7.877   0.330  0.2553  0.3353  0.4819
11208SOL    HW246098   2.529   7.747   0.286  1.2233  0.7026  1.2737
11209SOL     OW46099   3.145   5.497   7.350 -1.0001 -0.3124 -0.9386
11209SOL    HW146100   3.136   5.401   7.326 -1.6071 -0.2612 -0.9336
11209SOL    HW246101   3.062   5.528   7.397  0.0574 -0.3414  1.0028
11210SOL     OW46102   3.473   4.264   0.068 -0.1675 -0.0210  0.2010
11210SOL    HW146103   3.411   4.266   0.146  0.6748 -0.6901  0.8979
11210SOL    HW246104   3.451   4.186   0.009  0.2631 -0.4958  0.6632
11211SOL     OW46105   8.678   3.077   3.204 -0.2846 -0.2614 -0.0599
11211SOL    HW146106   8.721   2.988   3.188 -1.8427 -1.2342  1.0168
11211SOL    HW246107   8.729   3.127   3.274 -0.0639 -0.8022  0.1653
11212SOL     OW46108   7.845   2.687   1.714 -0.1431 -0.2293  0.3367
11212SOL    HW146109   7.889   2.617   1.770  0.9717  0.8140  0.7908
11212SOL    HW246110   7.800   2.755   1.773 -1.8796 -0.9553 -0.1100
11213SOL     OW46111   3.753   8.307   7.084 -0.4486  0.1373  0.0560
11213SOL    HW146112   3.846   8.279   7.058 -0.6665 -0.6219  0.1057
11213SOL    HW246113   3.687   8.265   7.021 -1.0144 -1.9712  2.0081
11214SOL     OW46114   4.609   8.156   7.203  0.0072  0.2292  0.9641
11214SOL    HW146115   4.581   8.246   7.235  0.7995  0.7963  0.1045
11214SOL    HW246116   4.707   8.157   7.183 -0.4616 -0.0604 -1.5207
11215SOL     OW46117   0.219   8.040   6.393  0.3917  0.3790  0.1934
11215SOL    HW146118   0.159   7.969   6.357  1.0440  0.0654 -0.2821
11215SOL    HW246119   0.249   8.099   6.318  1.2224  0.1241  0.3238
11216SOL     OW46120   1.585   0.426   1.419  0.4713 -0.0582  0.2095
11216SOL    HW146121   1.610   0.330   1.409 -4.3316 -1.5389  0.7465
11216SOL    HW246122   1.600   0.474   1.332 -1.6812 -2.5804 -1.6385
11217SOL     OW46123   8.969   4.628   8.874 -0.4245 -0.3420  0.8629
11217SOL    HW146124   9.053   4.680   8.889 -1.3919  1.1228  1.2750
11217SOL    HW246125   8.892   4.676   8.915 -1.9414 -0.1187 -2.1254
11218SOL     OW46126   7.518   2.435   0.216 -0.3324 -0.3969 -0.3249
11218SOL    HW146127   7.584   2.360   0.227 -0.1996 -0.0214  1.4882
11218SOL    HW246128   7.426   2.402   0.236 -0.2950 -0.1050  0.3115
11219SOL     OW46129   4.402   4.831   6.343 -0.2375  0.7355  0.4850
11219SOL    HW146130   4.398   4.916   6.291 -1.0188 -0.1424 -0.9028
11219SOL    HW246131   4.371   4.755   6.286  4.0754 -1.1265  0.4076
11220SOL     OW46132   7.182   0.012   5.685 -0.2999  0.4889  0.1777
11220SOL    HW146133   7.096   0.059   5.704 -0.2927  0.3939  0.4495
11220SOL    HW246134   7.259   0.067   5.718 -0.3085  0.1377  0.7961
11221SOL     OW46135   2.852   2.124   7.816 -0.1044 -0.5329 -0.0321
11221SOL    HW146136   2.866   2.160   7.909  0.6356  0.8941 -0.6865
11221SOL    HW246137   2.919   2.051   7.799 -0.6822 -1.2692  0.7843
11222SOL     OW46138   5.835   3.483   0.086 -0.1343 -0.1132 -0.5367
11222SOL    HW146139   5.755   3.422   0.091  1.0640 -1.6391  0.9482
11222SOL    HW246140   5.865   3.505   0.179  2.2095 -0.9883 -1.0457
11223SOL     OW46141   2.439   3.780   0.808  0.3827  0.3553 -0.0984
11223SOL    HW146142   2.417   3.702   0.750  0.0374  0.5954 -0.2878
11223SOL    HW246143   2.514   3.832   0.767  0.3304  0.3631 -0.1825
11224SOL     OW46144   0.031   3.154   6.563  0.0683  0.1789 -0.0756
11224SOL    HW146145   0.059   3.244   6.530 -0.5811 -0.6103 -2.8520
11224SOL    HW246146  -0.033   3.113   6.499 -0.6568 -1.7460  1.8181
11225SOL     OW46147   2.947   4.062   1.604  0.2282  0.1154 -0.4836
11225SOL    HW146148   2.903   4.004   1.536  0.3695  2.6471 -2.8164
11225SOL    HW246149   2.934   4.158   1.579  2.7712  1.0332  1.5137
11226SOL     OW46150   5.214   6.417   0.720  0.2078  0.1413 -0.3615
11226SOL    HW146151   5.203   6.517   0.717  0.7955  0.2864  1.5223
11226SOL    HW246152   5.292   6.391   0.663 -0.0628  0.7503 -1.0088
11227SOL     OW46153   4.550   1.785   2.313  0.2015 -0.2449  0.3630
11227SOL    HW146154   4.493   1.705   2.335 -0.8996  0.6315  0.7811
11227SOL    HW246155   4.633   1.784   2.369  0.2438 -1.1598  0.2793
11228SOL     OW46156   0.287   4.825   0.784 -0.1678  0.2879  0.0116
11228SOL    HW146157   0.198   4.821   0.830  0.1143 -0.1542  0.5241
11228SOL    HW246158   0.336   4.908   0.814 -1.2649  1.6591 -1.8724
11229SOL     OW46159   4.812   3.521   6.231  0.1772 -0.7538  0.2985
11229SOL    HW146160   4.807   3.429   6.192  0.4430 -0.5315 -0.2656
11229SOL    HW246161   4.746   3.529   6.306 -0.6940 -1.0375 -0.4167
11230SOL     OW46162   1.155   1.019   1.667 -0.5669 -0.1340 -0.0350
11230SOL    HW146163   1.136   1.070   1.751  0.7670 -0.2689  0.3576
11230SOL    HW246164   1.217   1.072   1.610 -0.9646 -0.3317 -0.6487
11231SOL     OW46165   4.464   4.032   7.977  0.0474  0.4955  0.1232
11231SOL    HW146166   4.401   4.082   8.037 -1.0997 -0.9769  0.1922
11231SOL    HW246167   4.520   3.970   8.032  0.4987  0.7116 -0.0958
11232SOL     OW46168   3.702   1.871   7.062 -0.2664 -0.2280  0.1529
11232SOL    HW146169   3.787   1.913   7.092  0.5661 -0.7656 -1.4378
11232SOL    HW246170   3.712   1.772   7.061  0.0568 -0.2131 -2.7929
11233SOL     OW46171   8.079   7.555   0.507  0.1800  0.0430  0.4673
11233SOL    HW146172   8.131   7.507   0.436 -2.2561 -0.2734 -1.1807
11233SOL    HW246173   8.072   7.498   0.588  1.3465 -0.4075  0.2561
11234SOL     OW46174   8.583   5.432   5.512 -0.2572 -0.5344 -0.3333
11234SOL    HW146175   8.493   5.389   5.503 -0.0489 -0.9813 -0.2629
11234SOL    HW246176   8.655   5.364   5.497  0.0909 -0.8142  2.3997
11235SOL     OW46177   6.505   1.479   8.037  0.2146 -0.1933  0.1768
11235SOL    HW146178   6.505   1.451   7.941 -0.5713 -0.8575  0.3659
11235SOL    HW246179   6.529   1.400   8.094  0.6789  0.2013  0.5254
11236SOL     OW46180   8.286   7.735   8.872  0.4641 -0.5913 -0.6208
11236SOL    HW146181   8.345   7.802   8.917  1.7175 -3.0159  1.5079
11236SOL    HW246182   8.340   7.656   8.843 -1.2309 -1.4937 -1.4630
11237SOL     OW46183   2.834   6.135   5.591 -0.1343 -0.1481 -0.5473
11237SOL    HW146184   2.900   6.189   5.643 -1.0604 -0.2248  0.7334
11237SOL    HW246185   2.816   6.180   5.503 -1.1415  1.8058  0.6266
11238SOL     OW46186   1.595   2.089   8.573 -0.1157 -0.2250  0.3118
11238SOL    HW146187   1.643   2.001   8.565  0.8665  0.1856  1.5307
11238SOL    HW246188   1.511   2.075   8.626 -1.4695 -0.9763 -1.9653
11239SOL     OW46189   3.984   6.008   1.114  0.2895 -0.3282  0.3076
11239SOL    HW146190   3.999   6.056   1.201  1.1716  0.8993 -0.4982
11239SOL    HW246191   3.894   6.033   1.078  0.4011  0.0804  0.3052
11240SOL     OW46192   7.807   0.374   0.806  0.2548 -0.1152 -0.4287
11240SOL    HW146193   7.900   0.382   0.771  1.4185 -1.8815  2.1543
11240SOL    HW246194   7.792   0.282   0.841 -2.3217  0.3065 -0.3141
11241SOL     OW46195   2.914   5.771   4.658  0.4080 -0.3602  0.2723
11241SOL    HW146196   2.935   5.868   4.673 -0.9251 -0.0585  0.1842
11241SOL    HW246197   2.865   5.735   4.737  3.2788 -1.7049  1.5406
11242SOL     OW46198   7.771   4.454   5.493 -0.4368  0.7274 -0.3942
11242SOL    HW146199   7.769   4.547   5.530  1.1433  0.1056  1.3890
11242SOL    HW246200   7.861   4.436   5.453 -0.3713 -0.3670  0.2109
11243SOL     OW46201   6.920   8.258   8.278  0.0648  0.5814 -0.1215
11243SOL    HW146202   6.872   8.185   8.229  1.3507 -1.6229  1.8226
11243SOL    HW246203   6.865   8.341   8.274 -2.5059 -1.0736 -0.4751
11244SOL     OW46204   4.179   3.021   0.457 -0.5032  0.3200 -0.3768
11244SOL    HW146205   4.117   3.087   0.416 -0.0995  1.0631  0.1958
11244SOL    HW246206   4.216   2.961   0.386  1.0372  2.2911 -1.3043
11245SOL     OW46207   5.054   3.432   0.263 -0.3465  0.7430  0.3064
11245SOL    HW146208   5.040   3.461   0.358 -0.5143 -0.4116  0.6402
11245SOL    HW246209   5.123   3.490   0.220 -0.6801  1.6290  0.9623
11246SOL     OW46210   2.572   7.462   8.096  0.0461  0.8994 -0.3111
11246SOL    HW146211   2.564   7.363   8.087  0.2199  0.8869 -0.3326
11246SOL    HW246212   2.498   7.506   8.045 -0.9534  0.7469  0.9810
11247SOL     OW46213   7.102   5.062   7.084  0.9463 -0.0385 -0.3740
11247SOL    HW146214   7.014   5.082   7.041  1.0395  0.5217 -0.3049
11247SOL    HW246215   7.139   5.145   7.124  1.6920 -0.1931 -0.7393
11248SOL     OW46216   1.964   6.075   5.105  0.4963  0.0166 -0.0285
11248SOL    HW146217   1.953   6.118   5.194  0.9781 -0.4174  0.2416
11248SOL    HW246218   1.873   6.058   5.065  0.0497 -3.7725  2.3130
11249SOL     OW46219   5.084   3.996   7.381  0.1699 -0.1626 -0.3615
11249SOL    HW146220   5.176   3.965   7.403  0.7014  0.6970 -1.3153
11249SOL    HW246221   5.049   3.945   7.302  0.1418  0.0578 -0.4931
11250SOL     OW46222   7.986   0.096   2.431 -0.0260  0.1650 -0.2898
11250SOL    HW146223   7.943   0.030   2.370  0.4561 -0.5863  0.1764
11250SOL    HW246224   7.919   0.129   2.497  0.3158 -1.6407  0.9707
11251SOL     OW46225   1.810   5.448   2.345  0.6162 -0.7111  0.5595
11251SOL    HW146226   1.731   5.419   2.399  0.1119  0.5651  0.5157
11251SOL    HW246227   1.803   5.546   2.325  1.9647 -0.6870  0.1491
11252SOL     OW46228   6.956   6.317   8.756  0.4360  0.7227  0.1247
11252SOL    HW146229   6.959   6.309   8.856 -1.2259 -0.5353  0.0950
11252SOL    HW246230   7.041   6.282   8.717  0.4345 -0.2922  1.0111
11253SOL     OW46231   0.720   0.152   7.056  0.2874 -0.1246  0.2612
11253SOL    HW146232   0.670   0.125   7.138 -0.3498 -0.5235 -0.2551
11253SOL    HW246233   0.660   0.145   6.977  0.3009  2.1406  0.0024
11254SOL     OW46234   0.141   3.830   0.834 -0.7424 -0.4434  0.4060
11254SOL    HW146235   0.056   3.826   0.887 -0.8047 -0.0143  0.3374
11254SOL    HW246236   0.217   3.796   0.890 -0.8869 -0.4324  0.6075
11255SOL     OW46237   4.437   2.815   4.851  0.2839  0.6250 -0.2024
11255SOL    HW146238   4.364   2.876   4.881 -1.4204 -1.2384 -0.4818
11255SOL    HW246239   4.512   2.818   4.916 -0.6709  1.4501  0.8705
11256SOL     OW46240   8.862   4.315   0.710  0.1928 -0.0650  0.1261
11256SOL    HW146241   8.898   4.261   0.634  0.3621  0.8964 -0.4934
11256SOL    HW246242   8.890   4.411   0.699  1.2910 -0.1456  2.0992
11257SOL     OW46243   5.266   1.242   4.642 -0.2689  0.4405  0.3019
11257SOL    HW146244   5.184   1.189   4.664  0.7066 -2.0724 -1.8374
11257SOL    HW246245   5.315   1.264   4.727 -2.3295  0.6483  1.4766
11258SOL     OW46246   6.393   2.027   7.116 -0.1397  0.5490 -0.0839
11258SOL    HW146247   6.453   1.952   7.089 -0.5812 -0.2416  1.0632
11258SOL    HW246248   6.330   2.049   7.042  0.2311  0.0205 -0.5547
11259SOL     OW46249   1.741   5.710   2.412  0.0513 -0.4636 -0.1871
11259SOL    HW146250   1.697   5.716   2.502 -0.1180 -1.1119 -0.2285
11259SOL    HW246251   1.739   5.800   2.369  0.6085 -0.0263  0.6822
11260SOL     OW46252   1.461   2.670   8.083  0.5166  0.0970 -0.3827
11260SOL    HW146253   1.385   2.672   8.148  1.7431  2.1041  1.0559
11260SOL    HW246254   1.507   2.581   8.088  0.5017  0.1630  1.4197
11261SOL     OW46255   4.143   7.495   7.826  0.2276 -0.2938 -0.2887
11261SOL    HW146256   4.239   7.479   7.806 -0.2173 -0.3206 -2.5618
11261SOL    HW246257   4.132   7.587   7.864  1.0864 -0.0668 -0.5720
11262SOL     OW46258   0.929   6.130   6.148 -0.6690 -0.2011  0.1723
11262SOL    HW146259   0.969   6.039   6.136  1.7717  0.8753 -0.2888
11262SOL    HW246260   0.880   6.134   6.235 -2.0385 -2.3599 -0.4579
11263SOL     OW46261   8.164   8.947   7.087  0.3167 -0.2998 -0.1452
11263SOL    HW146262   8.223   9.023   7.112  0.8856 -1.2984  1.6653
11263SOL    HW246263   8.088   8.980   7.032  0.8944  1.4714  0.1004
11264SOL     OW46264   6.079   6.497   7.927 -0.1088 -0.2342  0.0177
11264SOL    HW146265   6.075   6.456   7.835  0.3486  1.5080 -0.7995
11264SOL    HW246266   5.987   6.526   7.954 -0.3769 -1.4342  0.4544
11265SOL     OW46267   7.271   7.677   8.268  0.0865 -0.0007 -0.4977
11265SOL    HW146268   7.261   7.579   8.256  1.9371 -0.2024 -0.4763
11265SOL    HW246269   7.247   7.702   8.362 -1.9941 -0.1850 -0.9634
11266SOL     OW46270   3.952   8.466   2.294 -0.3246 -0.1629  0.7253
11266SOL    HW146271   4.030   8.431   2.346  0.1172 -0.6493 -0.2610
11266SOL    HW246272   3.907   8.390   2.246 -0.2939  0.3938 -0.1890
11267SOL     OW46273   8.585   5.885   3.607 -0.6538 -0.0099  0.1224
11267SOL    HW146274   8.671   5.931   3.627 -0.7851 -0.3042  1.3714
11267SOL    HW246275   8.571   5.883   3.508  0.5416  0.4450 -0.0623
11268SOL     OW46276   3.116   3.282   0.184  0.0783  0.3657  0.1370
11268SOL    HW146277   3.130   3.349   0.257  0.7099  0.6115 -0.2041
11268SOL    HW246278   3.047   3.317   0.121 -2.0075 -0.7922  1.7551
11269SOL     OW46279   7.268   4.888   3.017 -0.0049 -0.1627 -0.2885
11269SOL    HW146280   7.242   4.821   2.947 -0.0001 -0.0836 -0.3656
11269SOL    HW246281   7.272   4.979   2.976 -0.1746 -0.0910 -0.1452
11270SOL     OW46282   0.367   3.016   7.199  0.5503 -0.3491  0.2124
11270SOL    HW146283   0.270   3.026   7.222 -0.1609  1.2915 -3.1489
11270SOL    HW246284   0.384   2.923   7.165  0.5221 -1.1265  2.2656
11271SOL     OW46285   4.534   5.959   1.326  0.0051  0.0544 -0.3218
11271SOL    HW146286   4.582   5.975   1.412  0.2835  0.0519 -0.4764
11271SOL    HW246287   4.600   5.946   1.252 -0.2409  1.0944 -0.7281
11272SOL     OW46288   1.244   5.824   4.863 -0.1346  0.3623 -0.0333
11272SOL    HW146289   1.263   5.843   4.767  1.3610 -3.2921 -0.5496
11272SOL    HW246290   1.166   5.762   4.870  1.4678 -1.6432  0.8551
11273SOL     OW46291   4.589   4.551   7.618 -0.5699 -0.1577  0.2186
11273SOL    HW146292   4.604   4.555   7.716 -0.2855 -1.0129  0.2143
11273SOL    HW246293   4.502   4.505   7.599 -0.5564 -0.1228  0.0633
11274SOL     OW46294   4.186   7.321   0.011  0.2943 -0.0775 -1.1609
11274SOL    HW146295   4.120   7.304   0.085 -0.6394 -0.5745 -2.0992
11274SOL    HW246296   4.279   7.317   0.048 -0.1863  0.4386  0.1388
11275SOL     OW46297   4.232   3.312   3.643 -0.2473 -0.1842 -0.0459
11275SOL    HW146298   4.218   3.217   3.616  0.1251 -0.3517  0.3400
11275SOL    HW246299   4.286   3.315   3.728  1.5804  0.4219 -1.2073
11276SOL     OW46300   2.507   7.803   8.076 -0.3270  0.5605 -0.4724
11276SOL    HW146301   2.603   7.775   8.080 -0.4892  0.3507  2.9593
11276SOL    HW246302   2.454   7.734   8.028  1.0622  0.1995 -1.5170
11277SOL     OW46303   7.632   6.503   1.120  0.0918  0.2284 -0.4814
11277SOL    HW146304   7.660   6.598   1.116  1.1522 -0.1471 -2.5433
11277SOL    HW246305   7.625   6.466   1.027  0.1257 -1.8362  0.3075
11278SOL     OW46306   8.063   8.131   1.639 -0.2405  0.3201  0.0340
11278SOL    HW146307   8.080   8.043   1.595 -1.0670 -0.2352  0.7929
11278SOL    HW246308   8.030   8.197   1.571 -0.7809 -0.3132 -0.3252
11279SOL     OW46309   5.950   4.722   0.943  0.3622  0.1046  1.0446
11279SOL    HW146310   5.946   4.806   0.888  1.3681 -0.7081 -0.2893
11279SOL    HW246311   5.857   4.698   0.973 -0.2319  0.4059 -0.5170
11280SOL     OW46312   8.841   8.009   1.096 -0.2809  0.3312 -0.2009
11280SOL    HW146313   8.853   8.108   1.086  2.3898  0.0470 -0.1226
11280SOL    HW246314   8.844   7.985   1.193  0.5704  0.0242 -0.2962
11281SOL     OW46315   8.694   4.203   1.601  0.1202 -0.0639  0.0783
11281SOL    HW146316   8.713   4.279   1.538 -1.5231  0.7495  0.5219
11281SOL    HW246317   8.766   4.198   1.670 -0.7891  2.5133  1.3262
11282SOL     OW46318   0.947   6.916   1.564  0.3931 -0.4496 -0.0487
11282SOL    HW146319   0.992   6.941   1.650  1.3678  0.2730 -0.7464
11282SOL    HW246320   0.911   6.999   1.520  0.1274 -0.7777 -0.4507
11283SOL     OW46321   4.002   7.899   7.096  0.4232 -0.0347 -0.2393
11283SOL    HW146322   3.990   7.905   7.195  0.2583  1.8013 -0.3579
11283SOL    HW246323   4.009   7.991   7.057 -2.2642 -0.6147 -2.2687
11284SOL     OW46324   3.479   4.231   0.930  0.3777  0.4974 -0.0288
11284SOL    HW146325   3.410   4.201   0.864  0.6848 -0.6437  0.1610
11284SOL    HW246326   3.435   4.284   1.002 -0.3742 -0.5978  0.3304
11285SOL     OW46327   5.648   8.507   8.770 -0.0163 -0.2090  0.3744
11285SOL    HW146328   5.582   8.512   8.846  0.4226 -1.3891  0.8413
11285SOL    HW246329   5.656   8.597   8.727 -1.0276  0.2313  1.0883
11286SOL     OW46330   6.898   8.354   5.590  0.1338 -0.3523 -0.2162
11286SOL    HW146331   6.872   8.426   5.655  0.3186  0.8042 -1.4214
11286SOL    HW246332   6.864   8.377   5.499 -2.5784 -3.3168 -0.0401
11287SOL     OW46333   8.396   0.329   8.571  0.0452  0.0392 -0.0745
11287SOL    HW146334   8.381   0.371   8.481  0.0939  0.8895  0.3124
11287SOL    HW246335   8.350   0.384   8.641  0.3182 -0.4199  0.4611
11288SOL     OW46336   0.917   1.395   4.111 -0.5945 -0.3746 -0.2731
11288SOL    HW146337   0.873   1.443   4.187  0.4728  1.1951 -0.6288
11288SOL    HW246338   1.016   1.408   4.117 -0.5117 -0.1988 -1.9792
11289SOL     OW46339   0.515   6.747   4.435  0.0998  0.2235  0.0435
11289SOL    HW146340   0.613   6.728   4.428 -0.0837 -0.7486  0.1383
11289SOL    HW246341   0.468   6.707   4.356 -0.5389 -1.3896  1.2221
11290SOL     OW46342   5.859   5.835   2.836 -0.3086  0.0467  0.4658
11290SOL    HW146343   5.865   5.912   2.900 -1.9220  0.3750  0.2502
11290SOL    HW246344   5.905   5.860   2.751  1.9552 -0.4413  1.5084
11291SOL     OW46345   5.375   1.239   2.309 -0.2686  0.2528 -0.1139
11291SOL    HW146346   5.397   1.155   2.357  2.3735  0.1927 -1.3893
11291SOL    HW246347   5.311   1.293   2.365 -0.9912 -1.9713  1.2763
11292SOL     OW46348   5.641   3.639   5.677  0.0308  0.0459 -0.7832
11292SOL    HW146349   5.723   3.585   5.657 -1.3785 -1.9766 -1.2998
11292SOL    HW246350   5.621   3.635   5.775  0.6864  0.7198 -0.6276
11293SOL     OW46351   1.337   2.916   1.217 -0.3862  0.1544 -0.6905
11293SOL    HW146352   1.244   2.888   1.237 -0.2995 -0.3282 -0.9621
11293SOL    HW246353   1.372   2.973   1.292  0.1881 -2.2353  0.9186
11294SOL     OW46354   4.287   1.589   0.614 -0.2547 -0.0684  0.1044
11294SOL    HW146355   4.299   1.605   0.712  2.2268  0.8522 -0.3048
11294SOL    HW246356   4.339   1.508   0.587 -0.7590 -0.1971 -0.4770
11295SOL     OW46357   1.248   2.236   6.191 -0.3933  0.5060  0.0274
11295SOL    HW146358   1.284   2.149   6.223  3.0716  1.5165 -0.9458
11295SOL    HW246359   1.201   2.222   6.104 -0.7647 -0.5330  0.3807
11296SOL     OW46360   5.331   0.665   7.188  0.5609  0.3055 -0.6469
11296SOL    HW146361   5.281   0.714   7.117  0.1225  0.2157 -0.4071
11296SOL    HW246362   5.350   0.571   7.158  1.2486  0.5761 -1.0386
11297SOL     OW46363   3.040   2.698   0.302 -0.2329 -0.4285 -0.4951
11297SOL    HW146364   2.974   2.744   0.361  0.1043  0.3336 -0.7006
11297SOL    HW246365   3.119   2.757   0.287  1.0896 -1.8388  0.7661
11298SOL     OW46366   7.402   3.196   6.762  0.4936  0.1386  0.7202
11298SOL    HW146367   7.319   3.219   6.711  0.0628 -1.0369  0.8594
11298SOL    HW246368   7.462   3.139   6.706  0.9642  0.5574  0.7996
11299SOL     OW46369   1.511   3.663   4.562 -0.4009  0.4125 -0.0026
11299SOL    HW146370   1.418   3.674   4.599  0.7323  0.8121  2.8373
11299SOL    HW246371   1.513   3.582   4.504 -2.0282 -0.9686  1.7701
11300SOL     OW46372   1.875   0.948   6.193  0.3633  0.4005  0.2753
11300SOL    HW146373   1.929   0.945   6.276 -0.1840  0.5174  0.6384
11300SOL    HW246374   1.828   1.036   6.187 -0.8458 -0.2034  0.6472
11301SOL     OW46375   1.413   7.086   7.603  0.6425 -0.0918  0.0826
11301SOL    HW146376   1.482   7.092   7.531 -0.3802 -0.8089 -0.9804
11301SOL    HW246377   1.450   7.123   7.688  2.1568 -0.0163 -0.5959
11302SOL     OW46378   5.916   6.568   8.569  0.1949  0.0632 -0.3073
11302SOL    HW146379   5.906   6.639   8.499  1.1612  1.5871  1.0626
11302SOL    HW246380   5.827   6.526   8.587 -0.7683  2.2761  0.2479
11303SOL     OW46381   1.293   6.638   7.701  0.3531 -0.3212  0.3964
11303SOL    HW146382   1.358   6.704   7.665 -1.9279  0.9453 -1.5283
11303SOL    HW246383   1.271   6.570   7.631  0.4141 -1.3843  1.3832
11304SOL     OW46384   2.387   4.009   5.905 -0.1683  0.0882 -0.4830
11304SOL    HW146385   2.308   3.964   5.864 -0.2243  0.7413 -1.0894
11304SOL    HW246386   2.467   3.997   5.845 -0.1799  0.7817 -0.6341
11305SOL     OW46387   6.623   0.916   8.025 -0.0754 -0.2455 -0.2972
11305SOL    HW146388   6.618   0.866   8.112  2.3627 -2.5045 -1.3885
11305SOL    HW246389   6.556   0.878   7.961  1.2345 -1.6917 -0.8609
11306SOL     OW46390   1.351   0.413   5.423 -0.8901  0.3384 -0.1189
11306SOL    HW146391   1.317   0.484   5.360  0.3128  1.9233  0.9609
11306SOL    HW246392   1.379   0.333   5.370 -2.5624  0.5317 -1.3500
11307SOL     OW46393   8.396   5.189   3.059  0.0980  0.9960 -0.5333
11307SOL    HW146394   8.306   5.146   3.059 -0.9627  3.1183 -2.7788
11307SOL    HW246395   8.458   5.136   3.001  0.1614 -0.1650  0.5779
11308SOL     OW46396   3.706   7.592   1.032 -0.0033 -0.0510  0.2488
11308SOL    HW146397   3.659   7.526   0.973 -3.6293  0.8610  1.9283
11308SOL    HW246398   3.703   7.560   1.126 -1.4803  2.2551  1.0371
11309SOL     OW46399   2.023   8.407   0.945 -0.1782 -0.0351 -0.1481
11309SOL    HW146400   2.002   8.505   0.953 -0.8292 -0.2134  0.3262
11309SOL    HW246401   1.938   8.355   0.934  0.2398 -0.4470 -1.5597
11310SOL     OW46402   6.065   2.471   1.044 -0.2576 -0.0948  0.2148
11310SOL    HW146403   6.035   2.436   0.955 -2.2742  1.1510  0.3643
11310SOL    HW246404   5.998   2.537   1.078  3.1867  3.6564  0.1171
11311SOL     OW46405   2.630   8.867   1.091  0.4082  0.2951  0.2890
11311SOL    HW146406   2.643   8.921   1.174  1.7677 -1.2644  1.1136
11311SOL    HW246407   2.717   8.824   1.065 -0.3234 -0.3560 -1.1624
11312SOL     OW46408   5.648   4.793   0.755  0.5000 -0.3667  0.5364
11312SOL    HW146409   5.642   4.862   0.827 -2.6986 -0.1983  0.2186
11312SOL    HW246410   5.640   4.838   0.666  1.4700 -0.8667  0.1878
11313SOL     OW46411   3.709   8.192   6.388 -0.6760 -0.0292  0.0937
11313SOL    HW146412   3.643   8.120   6.409  0.8633 -2.7262 -3.6991
11313SOL    HW246413   3.686   8.234   6.300  0.9371  1.1326  0.1969
11314SOL     OW46414   2.077   7.287   5.171  0.5146 -0.4784 -0.0520
11314SOL    HW146415   2.104   7.352   5.099 -1.0966  1.2045  0.8284
11314SOL    HW246416   1.985   7.253   5.152  0.9902 -1.8108  0.0005
11315SOL     OW46417   1.689   6.498   0.909 -0.0080  0.1410  0.0313
11315SOL    HW146418   1.595   6.468   0.891  1.1829 -2.5796 -2.0185
11315SOL    HW246419   1.718   6.467   0.999 -0.5105 -0.4787 -0.0177
11316SOL     OW46420   0.519   4.026   7.936  0.5291  0.4761  0.3585
11316SOL    HW146421   0.426   4.018   7.902 -0.2296  2.0341  2.0113
11316SOL    HW246422   0.583   3.999   7.864 -1.1672 -0.3028 -0.8877
11317SOL     OW46423   3.837   4.861   2.364 -0.2829 -0.2837 -0.6815
11317SOL    HW146424   3.884   4.802   2.430  1.9342  2.0583 -0.0533
11317SOL    HW246425   3.890   4.863   2.279 -0.5254  0.5079 -0.8137
11318SOL     OW46426   8.503   3.680   0.558 -0.1949 -0.5584  0.8411
11318SOL    HW146427   8.603   3.673   0.556  0.0076  2.0246 -0.5661
11318SOL    HW246428   8.476   3.742   0.632 -0.8789 -2.3355  2.1304
11319SOL     OW46429   1.754   2.792   7.805  0.9192 -0.5586 -0.3273
11319SOL    HW146430   1.668   2.839   7.787  0.7039 -0.4722  0.8497
11319SOL    HW246431   1.773   2.728   7.731 -0.8607 -1.5802  0.0591
11320SOL     OW46432   0.948   8.921   7.655 -0.2418  0.0002  0.1932
11320SOL    HW146433   0.935   8.867   7.572 -0.5848  0.7316 -0.2238
11320SOL    HW246434   0.875   8.900   7.720 -2.8230  3.0627 -1.5963
11321SOL     OW46435   2.221   5.854   7.919  0.5605 -0.1564 -0.3503
11321SOL    HW146436   2.315   5.869   7.950  0.9025 -0.8520 -1.0509
11321SOL    HW246437   2.221   5.829   7.822 -0.3979  0.5437 -0.5412
11322SOL     OW46438   0.703   3.174   4.051  0.5462  0.3121  0.1340
11322SOL    HW146439   0.711   3.273   4.044 -1.7052  0.4594 -0.5954
11322SOL    HW246440   0.619   3.150   4.098 -0.0373 -1.2788 -1.6450
11323SOL     OW46441   2.918   2.004   6.378  0.5558 -0.0819  0.0675
11323SOL    HW146442   2.837   1.965   6.422 -0.3526  0.2193 -1.3056
11323SOL    HW246443   3.000   1.972   6.425 -0.1834 -2.9920 -0.4926
11324SOL     OW46444   6.590   3.942   5.737 -0.5863 -0.0987 -0.3914
11324SOL    HW146445   6.587   3.846   5.763 -2.8677  0.4047  1.3396
11324SOL    HW246446   6.686   3.971   5.727  0.1096 -2.9154 -2.5331
11325SOL     OW46447   0.930   4.885   5.244 -0.0996  0.2179 -0.6892
11325SOL    HW146448   0.834   4.909   5.231  0.1150  0.8116 -1.2373
11325SOL    HW246449   0.986   4.967   5.234  0.3919  0.0435  0.5430
11326SOL     OW46450   6.700   3.257   2.949  0.6371  0.5736 -0.7154
11326SOL    HW146451   6.681   3.352   2.925  0.3669  0.7825  0.3054
11326SOL    HW246452   6.660   3.236   3.038  2.0132 -0.0574 -0.2329
11327SOL     OW46453   5.632   7.007   8.809 -0.0153  0.1956 -0.0367
11327SOL    HW146454   5.721   6.996   8.854  1.4636  0.9906 -2.6581
11327SOL    HW246455   5.626   6.944   8.732 -1.4304  0.6789 -0.3342
11328SOL     OW46456   7.887   5.591   1.251  0.0236  0.1179 -0.3836
11328SOL    HW146457   7.948   5.536   1.308 -0.6444  0.6867  0.9232
11328SOL    HW246458   7.927   5.602   1.160  0.6684 -1.5972 -0.3197
11329SOL     OW46459   4.099   4.409   2.063 -0.1034 -0.6716 -0.3371
11329SOL    HW146460   4.125   4.450   1.975 -2.0823 -1.7162 -1.4435
11329SOL    HW246461   4.118   4.311   2.060  1.0903 -0.4911  0.9212
11330SOL     OW46462   4.774   2.828   0.281  0.1064  0.2190  0.2593
11330SOL    HW146463   4.853   2.805   0.223 -0.9796 -1.4832 -0.5977
11330SOL    HW246464   4.748   2.747   0.334 -0.7500  0.9298  0.9144
11331SOL     OW46465   1.727   2.640   6.954 -0.2017 -0.3274  0.1778
11331SOL    HW146466   1.635   2.620   6.990 -0.5525 -0.0510 -0.5655
11331SOL    HW246467   1.728   2.623   6.855  0.5907 -0.4656  0.2082
11332SOL     OW46468   5.645   5.527   7.840 -0.4078  0.7304 -0.0245
11332SOL    HW146469   5.556   5.560   7.870  0.0138  0.4240  1.6250
11332SOL    HW246470   5.696   5.492   7.919  1.2865  1.1783 -0.8888
11333SOL     OW46471   8.860   4.382   4.349 -0.1168  0.3329 -0.1520
11333SOL    HW146472   8.924   4.406   4.275  0.8477 -0.6971  0.3274
11333SOL    HW246473   8.893   4.421   4.435 -0.5807  0.4984 -0.0503
11334SOL     OW46474   3.268   1.514   0.812 -0.3778 -0.0047 -0.3924
11334SOL    HW146475   3.273   1.425   0.767 -0.9730  0.3237 -1.1162
11334SOL    HW246476   3.360   1.544   0.838  0.0194 -0.0244 -1.7373
11335SOL     OW46477   5.442   5.985   1.637  0.3239  0.1517 -0.4567
11335SOL    HW146478   5.499   5.914   1.679  0.1140  0.2852  0.0585
11335SOL    HW246479   5.491   6.072   1.638  0.3534  0.1359 -0.5627
11336SOL     OW46480   5.031   5.889   7.509 -0.1703 -0.8970  0.0085
11336SOL    HW146481   5.071   5.842   7.430 -0.6221 -0.3300 -0.5635
11336SOL    HW246482   5.103   5.940   7.557  0.2846 -2.0385  0.5339
11337SOL     OW46483   3.317   5.229   5.024 -0.4868  0.5837 -0.9430
11337SOL    HW146484   3.387   5.178   5.074 -0.4439  0.9206 -0.6589
11337SOL    HW246485   3.299   5.316   5.070 -2.3315 -0.2476 -0.0331
11338SOL     OW46486   3.517   0.343   0.241 -0.1822 -0.2041 -0.4748
11338SOL    HW146487   3.554   0.436   0.244  1.4905 -0.8067 -1.4581
11338SOL    HW246488   3.460   0.327   0.322  0.1210  1.4105  0.0839
11339SOL     OW46489   7.002   2.934   2.652  0.2193 -0.4684 -0.3109
11339SOL    HW146490   7.061   2.881   2.713  0.0634 -0.9215 -0.5548
11339SOL    HW246491   7.014   3.031   2.671  0.6334 -0.5828  0.0217
11340SOL     OW46492   3.989   5.880   0.650  0.1542 -0.1971  0.9077
11340SOL    HW146493   4.020   5.893   0.556 -2.7629  0.3702 -0.0143
11340SOL    HW246494   4.040   5.942   0.710  2.1337 -0.6623 -0.2330
11341SOL     OW46495   5.883   4.590   7.394 -0.0180 -0.1215 -0.5843
11341SOL    HW146496   5.969   4.596   7.445 -0.7450  1.5606  0.5044
11341SOL    HW246497   5.864   4.678   7.351 -0.7035 -0.7879 -1.6753
11342SOL     OW46498   8.507   6.002   7.249  0.1405 -0.2100 -0.2781
11342SOL    HW146499   8.484   6.047   7.163  1.6924 -0.7920 -1.0167
11342SOL    HW246500   8.532   5.907   7.231 -0.2831 -0.5526  0.9141
11343SOL     OW46501   8.237   0.598   6.652 -0.1817 -0.2660 -0.2333
11343SOL    HW146502   8.188   0.541   6.718 -0.7114 -1.4314 -1.6039
11343SOL    HW246503   8.171   0.646   6.594  0.2903  0.2732 -0.3326
11344SOL     OW46504   5.150   3.738   3.127  0.4739  0.3294  0.0356
11344SOL    HW146505   5.126   3.706   3.219  1.0539  0.0630  0.0964
11344SOL    HW246506   5.203   3.822   3.134  4.2089 -1.9409  0.1524
11345SOL     OW46507   0.441   1.925   4.986 -0.3256  0.6229 -0.4213
11345SOL    HW146508   0.513   1.975   4.939 -0.4866  1.9260  0.6840
11345SOL    HW246509   0.386   1.874   4.919  0.4230  1.1759 -1.4630
11346SOL     OW46510   3.220   2.125   2.531 -0.3782  0.0282  0.0955
11346SOL    HW146511   3.120   2.116   2.534 -0.6474 -0.2058 -4.8825
11346SOL    HW246512   3.244   2.217   2.500  0.9677 -0.0934  0.7457
11347SOL     OW46513   3.360   2.218   5.164 -0.2940 -0.0598 -0.5332
11347SOL    HW146514   3.284   2.265   5.120 -1.3867  0.2551  1.5900
11347SOL    HW246515   3.331   2.126   5.191  0.6672 -0.6119 -1.3404
11348SOL     OW46516   1.534   6.277   4.464  0.0987 -0.5058  0.1400
11348SOL    HW146517   1.557   6.373   4.445 -3.8281  0.6318  0.7979
11348SOL    HW246518   1.618   6.222   4.462  2.3644  2.8286 -0.7608
11349SOL     OW46519   3.506   2.773   6.174 -0.4033 -0.3435  0.6158
11349SOL    HW146520   3.445   2.694   6.177 -0.0748 -0.7890 -2.8817
11349SOL    HW246521   3.599   2.744   6.196 -0.2113 -1.0242 -1.0667
11350SOL     OW46522   5.561   6.162   5.903  0.6766  0.3706 -0.2868
11350SOL    HW146523   5.526   6.230   5.838 -0.7972 -0.3056 -0.2227
11350SOL    HW246524   5.602   6.086   5.853 -2.1623 -1.0748 -0.5550
11351SOL     OW46525   1.462   6.033   1.074 -0.6547 -0.0164  0.0166
11351SOL    HW146526   1.412   6.114   1.045 -0.8435 -0.1388  0.0001
11351SOL    HW246527   1.518   5.999   0.998  1.7454  1.8460  0.9004
11352SOL     OW46528   5.118   2.540   0.536  0.1614 -0.5409  0.1887
11352SOL    HW146529   5.034   2.494   0.564  0.5407 -2.2529 -1.3255
11352SOL    HW246530   5.145   2.507   0.445  1.7140  1.0098  0.0558
11353SOL     OW46531   4.133   8.756   0.287  0.0199 -0.0180  0.1158
11353SOL    HW146532   4.050   8.809   0.271 -0.4508 -0.6246  0.5324
11353SOL    HW246533   4.109   8.668   0.327  0.7912 -0.6042 -0.7066
11354SOL     OW46534   8.093   5.131   8.840  0.6076 -0.0055 -0.1909
11354SOL    HW146535   8.145   5.171   8.916  0.7278  0.6644 -0.6247
11354SOL    HW246536   8.146   5.055   8.801  1.9620  1.6216 -1.5873
11355SOL     OW46537   6.679   6.383   8.822  0.9988  0.2239  0.5507
11355SOL    HW146538   6.770   6.398   8.783  0.5476  0.7580 -0.3069
11355SOL    HW246539   6.618   6.457   8.793 -0.4176 -1.5228 -1.0444
11356SOL     OW46540   1.019   4.784   4.778  0.0738  0.2582  0.3501
11356SOL    HW146541   1.110   4.743   4.783  0.6463  1.5692  0.8073
11356SOL    HW246542   1.005   4.823   4.687 -0.1616 -0.2174  0.1788
11357SOL     OW46543   2.292   8.817   0.343 -0.4740  0.5343 -0.3863
11357SOL    HW146544   2.270   8.771   0.257  1.6441  0.8892 -1.1537
11357SOL    HW246545   2.303   8.915   0.326 -0.6975  0.7005  0.4229
11358SOL     OW46546   1.054   7.479   7.579  0.0172  0.2508 -0.2581
11358SOL    HW146547   1.041   7.423   7.497  0.3920  0.0715 -0.1932
11358SOL    HW246548   1.110   7.558   7.556 -0.1788  0.3900 -0.2573
11359SOL     OW46549   3.196   8.824   6.803  0.0463 -0.2662  0.1581
11359SOL    HW146550   3.179   8.735   6.761 -0.9307  0.3272 -0.7462
11359SOL    HW246551   3.294   8.836   6.820  0.5039 -0.3738 -2.2911
11360SOL     OW46552   6.721   2.815   6.865 -0.1130 -0.9957 -0.1814
11360SOL    HW146553   6.778   2.764   6.930 -0.3965 -0.4617  0.4979
11360SOL    HW246554   6.731   2.913   6.882 -0.6411 -0.8754 -0.5591
11361SOL     OW46555   7.536   6.024   5.754 -0.0401  0.3120 -0.0016
11361SOL    HW146556   7.470   6.083   5.800 -2.5518 -1.8909 -0.6393
11361SOL    HW246557   7.531   6.039   5.655  0.2921  0.0445 -0.0602
11362SOL     OW46558   4.831   3.479   4.574 -0.1714 -0.1572  0.7508
11362SOL    HW146559   4.896   3.497   4.647  1.6135 -0.2295 -0.7961
11362SOL    HW246560   4.830   3.556   4.510 -1.1658 -0.4179  0.4474
11363SOL     OW46561   4.752   2.608   2.791 -0.1274 -0.4099  0.2025
11363SOL    HW146562   4.789   2.694   2.828  1.1389 -1.4899  1.5053
11363SOL    HW246563   4.747   2.540   2.863 -1.5838 -1.3040 -0.7195
11364SOL     OW46564   1.793   6.437   7.156  0.0169 -0.1598 -0.3324
11364SOL    HW146565   1.780   6.362   7.092  0.6728 -0.6268  0.0778
11364SOL    HW246566   1.717   6.438   7.221 -0.5374  0.1839 -0.9771
11365SOL     OW46567   8.372   2.894   0.193  0.3933  0.0199 -0.2204
11365SOL    HW146568   8.407   2.805   0.221 -1.2027 -0.7662 -0.6564
11365SOL    HW246569   8.366   2.954   0.272 -1.0863 -1.1554  0.5822
11366SOL     OW46570   2.759   2.865   2.601  0.6796 -0.3721 -0.1336
11366SOL    HW146571   2.797   2.889   2.512 -0.1161 -1.4178 -0.7587
11366SOL    HW246572   2.722   2.948   2.644  0.8196  0.0907 -0.8913
11367SOL     OW46573   4.570   4.336   8.532 -0.1405 -0.5935  0.4325
11367SOL    HW146574   4.558   4.322   8.631  0.5463 -2.3738  0.2844
11367SOL    HW246575   4.665   4.320   8.508 -0.4504 -0.8650 -0.6282
11368SOL     OW46576   2.616   7.175   8.169  0.1945 -0.2730  0.0121
11368SOL    HW146577   2.715   7.168   8.176  0.0243 -1.7694  1.4313
11368SOL    HW246578   2.580   7.213   8.255 -0.4027  0.9653 -0.7804
11369SOL     OW46579   5.083   5.942   8.473 -0.1783 -0.5929  0.7920
11369SOL    HW146580   5.043   5.969   8.561 -0.4888 -1.7487  1.0106
11369SOL    HW246581   5.058   6.009   8.403  0.0325  0.3092  1.5766
11370SOL     OW46582   2.670   0.298   1.915  0.2951  0.2677 -0.3753
11370SOL    HW146583   2.623   0.278   2.001 -0.5132  3.7724  0.0753
11370SOL    HW246584   2.607   0.283   1.838 -0.0013  0.2002 -0.1207
11371SOL     OW46585   4.426   1.965   5.039  0.2448 -0.3922  0.2245
11371SOL    HW146586   4.439   1.896   5.111  1.2113  0.2365  0.6614
11371SOL    HW246587   4.337   1.952   4.996  0.7833 -2.4623 -0.2902
11372SOL     OW46588   5.187   7.712   7.897 -0.0181 -0.0538 -0.2115
11372SOL    HW146589   5.140   7.639   7.947  0.7203  0.6994  1.6105
11372SOL    HW246590   5.222   7.780   7.961  0.3014  1.3346 -1.8107
11373SOL     OW46591   0.730   6.781   0.822 -0.5971  0.9927  0.2486
11373SOL    HW146592   0.682   6.694   0.814  2.0663 -0.5528  0.3573
11373SOL    HW246593   0.716   6.834   0.739 -1.6581  0.1588 -0.1236
11374SOL     OW46594   6.657   8.530   0.164 -0.1413  0.3861 -0.7862
11374SOL    HW146595   6.625   8.589   0.239  0.7324 -0.0103 -0.0865
11374SOL    HW246596   6.757   8.526   0.166 -0.2226 -2.0339 -0.0930
11375SOL     OW46597   0.787   3.997   8.910 -0.8683 -0.2098 -0.5870
11375SOL    HW146598   0.709   3.938   8.930  0.2970 -1.8153 -0.7411
11375SOL    HW246599   0.829   4.027   8.996 -2.3524  1.6540 -0.4653
11376SOL     OW46600   8.317   4.336   7.868  0.1038 -0.0158  0.4283
11376SOL    HW146601   8.320   4.241   7.836 -1.2309  0.2632 -0.5449
11376SOL    HW246602   8.360   4.395   7.800 -0.7561  0.3079  0.1699
11377SOL     OW46603   0.763   5.461   0.040 -0.2693  0.3839 -0.1262
11377SOL    HW146604   0.839   5.486   0.101 -0.5496  0.1531  0.3163
11377SOL    HW246605   0.679   5.454   0.093 -0.2218 -1.3749 -0.2738
11378SOL     OW46606   1.615   6.343   5.658 -1.0581 -0.3690 -0.5786
11378SOL    HW146607   1.696   6.390   5.624 -0.1029 -0.0004  2.1020
11378SOL    HW246608   1.618   6.247   5.628 -0.3759 -0.0177 -1.6886
11379SOL     OW46609   4.975   1.544   7.912  0.1486  0.6882 -0.3724
11379SOL    HW146610   5.054   1.484   7.919  0.9316  1.7275 -0.2864
11379SOL    HW246611   5.002   1.638   7.930 -1.2943  0.9224  0.7045
11380SOL     OW46612   0.385   2.824   6.497 -0.3312  0.0477  0.0105
11380SOL    HW146613   0.312   2.766   6.532 -1.0435  2.0658  2.0384
11380SOL    HW246614   0.385   2.911   6.547  2.5243  0.6696 -0.9669
11381SOL     OW46615   7.439   0.266   5.078 -0.1623  0.3926 -0.1930
11381SOL    HW146616   7.395   0.266   4.988 -1.7044  1.3445  0.5371
11381SOL    HW246617   7.370   0.252   5.149  1.1474 -1.1162  0.8120
11382SOL     OW46618   4.589   8.031   1.851  0.2403  0.1877 -0.6877
11382SOL    HW146619   4.611   8.009   1.756  0.7859 -0.5637 -0.3888
11382SOL    HW246620   4.542   7.954   1.894  1.0076  0.0835 -0.0210
11383SOL     OW46621   6.637   5.515   5.089  0.2160  0.2386  0.0030
11383SOL    HW146622   6.708   5.474   5.146  0.0011  0.6566  0.5801
11383SOL    HW246623   6.640   5.476   4.997  0.8129 -0.1645  0.1970
11384SOL     OW46624   8.627   4.943   4.369 -0.0250 -0.1968  0.5173
11384SOL    HW146625   8.612   5.004   4.291 -1.7466 -0.0956  0.9172
11384SOL    HW246626   8.686   4.867   4.340  3.0678  2.1548  0.2901
11385SOL     OW46627   8.829   7.782   0.956  0.6950  0.0792  0.1589
11385SOL    HW146628   8.756   7.725   0.995 -0.7185 -0.3962 -3.0702
11385SOL    HW246629   8.823   7.874   0.995  0.5174 -0.8605  2.4584
11386SOL     OW46630   7.795   6.635   6.263  0.3050 -0.6174  0.1728
11386SOL    HW146631   7.709   6.681   6.242 -0.0975 -1.5221 -0.1857
11386SOL    HW246632   7.866   6.669   6.201 -0.2203 -1.1770 -0.7658
11387SOL     OW46633   1.479   0.986   4.362 -0.1525  0.6799  0.0689
11387SOL    HW146634   1.460   0.933   4.280 -0.0847  0.1506  0.3960
11387SOL    HW246635   1.547   1.057   4.342 -2.4439  2.6155 -1.1323
11388SOL     OW46636   5.131   6.805   1.165 -0.3031 -0.0477 -0.0911
11388SOL    HW146637   5.230   6.818   1.156 -0.2151  1.6083  2.6220
11388SOL    HW246638   5.103   6.727   1.109  1.7883  2.0626 -4.3337
11389SOL     OW46639   4.193   5.435   8.561 -0.1498  0.1522  0.3353
11389SOL    HW146640   4.101   5.403   8.537 -0.0167  0.4812 -0.5932
11389SOL    HW246641   4.201   5.437   8.661 -1.0388 -0.1977  0.4241
11390SOL     OW46642   0.422   4.182   2.299 -0.4531  0.3089  0.4095
11390SOL    HW146643   0.422   4.097   2.353 -0.1635  0.0902  0.0668
11390SOL    HW246644   0.384   4.256   2.354 -2.4266 -0.4335  0.0800
11391SOL     OW46645   3.183   5.351   8.239  0.1743 -0.1936 -0.2246
11391SOL    HW146646   3.232   5.280   8.290  0.6247 -0.1575 -0.5999
11391SOL    HW246647   3.209   5.346   8.142 -0.0188  0.2921 -0.3024
11392SOL     OW46648   2.593   2.016   7.891 -0.0288  0.3479  0.0768
11392SOL    HW146649   2.685   2.019   7.852 -0.3115 -0.0015 -0.6317
11392SOL    HW246650   2.599   2.024   7.991  0.7435  0.6630  0.0108
11393SOL     OW46651   3.409   7.617   2.533 -0.5256  1.0539 -0.2839
11393SOL    HW146652   3.344   7.619   2.458  0.2920 -0.1889 -1.0442
11393SOL    HW246653   3.415   7.524   2.570 -1.9904  1.9506  2.2775
11394SOL     OW46654   0.957   3.513   8.113 -0.0871  0.1895  0.5408
11394SOL    HW146655   0.959   3.513   8.213 -0.0710 -0.8798  0.5462
11394SOL    HW246656   0.918   3.599   8.080  0.8214  0.9623  1.4470
11395SOL     OW46657   3.743   2.104   3.888 -0.3044  0.2423 -1.1395
11395SOL    HW146658   3.766   2.087   3.793  1.3957  0.7258 -0.8404
11395SOL    HW246659   3.762   2.023   3.943  0.0466  0.4253 -0.9908
11396SOL     OW46660   2.150   6.901   0.845  1.0299 -0.0514  0.1659
11396SOL    HW146661   2.148   6.935   0.939 -0.9227  0.2250  0.0478
11396SOL    HW246662   2.105   6.812   0.842  0.7190  0.1322 -0.5740
11397SOL     OW46663   3.867   1.265   5.340  0.2232 -0.2679  0.2421
11397SOL    HW146664   3.925   1.345   5.323  0.5747 -0.3039  1.2241
11397SOL    HW246665   3.832   1.231   5.254  1.8176 -0.3447 -0.3951
11398SOL     OW46666   8.705   4.808   3.220  0.5434  0.4786 -0.0070
11398SOL    HW146667   8.606   4.793   3.217  0.7385 -0.8030 -0.1797
11398SOL    HW246668   8.745   4.785   3.132  1.0548  0.6449  0.1791
11399SOL     OW46669   3.651   3.487   6.439  0.0790 -0.8042  0.4491
11399SOL    HW146670   3.715   3.442   6.377  0.3562 -0.3196  0.3803
11399SOL    HW246671   3.609   3.418   6.498  0.9768 -1.0755  0.7825
11400SOL     OW46672   3.949   7.981   8.808 -0.0396  0.1533 -0.1423
11400SOL    HW146673   3.851   7.981   8.787 -0.4304 -0.9279  1.5126
11400SOL    HW246674   3.967   8.049   8.879  0.4814  0.6614 -0.7647
11401SOL     OW46675   8.429   3.404   8.209  0.3444  0.0721  0.9330
11401SOL    HW146676   8.481   3.326   8.244  0.3366 -0.4767 -0.2276
11401SOL    HW246677   8.355   3.426   8.272 -0.5435 -1.7999  0.5664
11402SOL     OW46678   6.891   5.593   0.181  0.3807  0.5303 -0.6489
11402SOL    HW146679   6.888   5.690   0.206 -0.3660  0.5470 -0.8004
11402SOL    HW246680   6.799   5.556   0.181  0.5313  0.1232 -1.7926
11403SOL     OW46681   7.648   1.183   1.900 -0.0229 -0.5517 -0.6898
11403SOL    HW146682   7.629   1.159   1.805  1.4639  0.8588 -1.3780
11403SOL    HW246683   7.637   1.282   1.912 -1.5087 -0.8939  0.9458
11404SOL     OW46684   1.989   4.911   1.981 -0.4954 -0.1134 -0.0865
11404SOL    HW146685   2.046   4.956   1.912  0.5684 -1.3021 -0.0189
11404SOL    HW246686   1.936   4.979   2.031 -0.5181  0.8490 -1.4087
11405SOL     OW46687   7.487   4.235   7.260  0.1644  0.2530 -0.5700
11405SOL    HW146688   7.525   4.185   7.337 -0.9811 -0.5642 -0.5148
11405SOL    HW246689   7.417   4.179   7.215  0.5264  0.8788 -1.9550
11406SOL     OW46690   6.159   0.739   1.191  0.0167  0.1772 -0.8897
11406SOL    HW146691   6.074   0.782   1.221  1.0478  2.1890 -0.7298
11406SOL    HW246692   6.147   0.700   1.100 -1.2289 -0.0580 -0.6262
11407SOL     OW46693   3.699   8.883   3.383  0.2285  0.0534  0.5026
11407SOL    HW146694   3.757   8.945   3.435  0.1661  0.1748  0.4266
11407SOL    HW246695   3.603   8.905   3.399  0.2165  0.6635 -0.3548
11408SOL     OW46696   8.822   1.404   5.906 -0.2705 -0.6525 -0.7461
11408SOL    HW146697   8.734   1.358   5.903 -2.8392  3.9530 -0.4877
11408SOL    HW246698   8.858   1.416   5.813 -1.5590  0.3600 -1.1241
11409SOL     OW46699   5.981   5.846   0.094  0.2038  0.1191  0.2586
11409SOL    HW146700   6.032   5.932   0.096 -1.1440  0.9253  0.0095
11409SOL    HW246701   5.896   5.856   0.146 -0.3916 -0.7870 -0.5381
11410SOL     OW46702   4.717   0.960   7.307  0.0838 -0.5275  0.0036
11410SOL    HW146703   4.732   0.864   7.285 -1.7143 -1.1390  1.3166
11410SOL    HW246704   4.803   1.000   7.341  0.9513 -1.5354 -0.9703
11411SOL     OW46705   7.102   1.187   0.121  0.0980  0.3274 -0.2389
11411SOL    HW146706   7.052   1.177   0.207  0.7841  0.1251  0.1372
11411SOL    HW246707   7.138   1.280   0.115  0.4735  0.1919 -0.0786
11412SOL     OW46708   3.037   1.138   0.019 -0.1424 -0.1392  0.0625
11412SOL    HW146709   2.960   1.078   0.038 -1.8822  2.1154  0.2556
11412SOL    HW246710   3.048   1.149  -0.080  0.6484 -1.3504  0.0097
11413SOL     OW46711   0.078   8.639   4.260  0.7265 -0.2277  0.2270
11413SOL    HW146712   0.165   8.628   4.211  1.0891  1.8047  0.3695
11413SOL    HW246713   0.068   8.734   4.289 -0.8584 -0.7760  1.5422
11414SOL     OW46714   4.756   5.740   0.712  0.3554  0.0619  0.5100
11414SOL    HW146715   4.713   5.763   0.625  1.4070  2.0704  0.4919
11414SOL    HW246716   4.722   5.801   0.784 -0.7473 -1.7892  1.6067
11415SOL     OW46717   7.053   6.984   6.217  0.2255 -0.0808 -0.4741
11415SOL    HW146718   6.980   6.946   6.274  1.3782  0.4079  1.3660
11415SOL    HW246719   7.043   7.083   6.212  0.1072 -0.1227 -1.1803
11416SOL     OW46720   7.032   4.375   3.880 -0.4324  0.9473  0.0948
11416SOL    HW146721   7.106   4.440   3.899  1.4327 -0.9571 -0.4899
11416SOL    HW246722   7.020   4.366   3.781 -0.1600 -0.1740  0.1620
11417SOL     OW46723   5.861   1.095   1.480 -0.3301  0.0810 -0.6485
11417SOL    HW146724   5.882   1.017   1.421 -1.5569  0.2451 -1.2974
11417SOL    HW246725   5.763   1.101   1.495 -0.0619  0.2154  1.1850
11418SOL     OW46726   0.419   3.705   8.061  0.0194 -0.3124 -0.0591
11418SOL    HW146727   0.483   3.781   8.046 -0.2888  0.6442  3.0459
11418SOL    HW246728   0.326   3.737   8.044 -0.1651  0.2115  1.8857
11419SOL     OW46729   6.225   3.683   2.283  0.5042  0.0118  0.1681
11419SOL    HW146730   6.132   3.670   2.248  0.5873 -0.9295  0.2651
11419SOL    HW246731   6.242   3.780   2.298 -0.8704  0.0994  1.2578
11420SOL     OW46732   2.627   2.460   0.031  0.1355  0.2822  0.3516
11420SOL    HW146733   2.709   2.458  -0.027 -0.0564  0.2830  0.0829
11420SOL    HW246734   2.623   2.375   0.085 -1.3286 -1.1457 -1.9146
11421SOL     OW46735   6.596   4.179   3.074 -0.2866 -0.3421  0.7245
11421SOL    HW146736   6.587   4.237   3.156 -1.9377 -0.2674  0.4877
11421SOL    HW246737   6.587   4.235   2.992 -0.1817 -0.6674  0.4896
11422SOL     OW46738   3.369   1.904   6.072 -0.8634  0.8413 -0.2841
11422SOL    HW146739   3.395   1.975   6.138  0.6952  0.9969 -1.0399
11422SOL    HW246740   3.447   1.843   6.056 -1.9074 -0.5176 -0.3268
11423SOL     OW46741   7.156   1.064   6.382 -0.4510 -0.0208 -0.0323
11423SOL    HW146742   7.143   1.028   6.289  1.5290  1.0279 -0.7436
11423SOL    HW246743   7.210   0.999   6.435 -0.5771 -0.0760  0.0296
11424SOL     OW46744   2.203   4.723   3.817  0.2446  0.2907 -0.4833
11424SOL    HW146745   2.230   4.655   3.885 -1.4586  0.6538  0.5960
11424SOL    HW246746   2.144   4.791   3.860 -1.0406  0.3983 -2.3660
11425SOL     OW46747   6.912   7.531   6.519 -0.2805  0.2789 -0.1663
11425SOL    HW146748   6.930   7.525   6.617  0.2294  0.0991 -0.2731
11425SOL    HW246749   6.936   7.445   6.475  0.9306  0.8761 -0.6880
11426SOL     OW46750   7.250   7.431   4.135  0.0859  0.3686  0.0589
11426SOL    HW146751   7.278   7.503   4.199 -1.9075  1.1044  0.1410
11426SOL    HW246752   7.158   7.400   4.159 -0.3756  0.1161 -1.9791
11427SOL     OW46753   3.049   0.603   1.486 -0.1974  0.1707  0.8192
11427SOL    HW146754   2.955   0.583   1.512 -0.3259 -0.7747 -0.2990
11427SOL    HW246755   3.107   0.523   1.505  0.3484  0.6765  1.3250
11428SOL     OW46756   3.109   5.065   8.112  0.5069 -1.0215  0.0067
11428SOL    HW146757   3.143   4.984   8.064  1.1658 -1.0143  0.4559
11428SOL    HW246758   3.126   5.146   8.057  2.4044 -0.8626  0.7836
11429SOL     OW46759   4.367   8.544   4.935 -0.2643 -0.9045  0.0741
11429SOL    HW146760   4.311   8.625   4.917 -0.4873 -0.8273  1.1257
11429SOL    HW246761   4.414   8.518   4.851 -2.3028 -1.3041 -0.9595
11430SOL     OW46762   7.603   0.628   0.383  0.0096  0.1897  0.1858
11430SOL    HW146763   7.611   0.583   0.294 -1.3714 -0.0557  0.1807
11430SOL    HW246764   7.508   0.653   0.400  0.2852  0.3868  1.5323
11431SOL     OW46765   1.941   1.017   1.982  0.1645  0.0680 -0.2249
11431SOL    HW146766   1.957   1.114   2.002 -0.7394  0.3779 -0.9337
11431SOL    HW246767   2.017   0.982   1.927 -0.8916  1.1917 -2.5150
11432SOL     OW46768   8.095   6.002   1.067  1.0338  0.0215 -0.5243
11432SOL    HW146769   8.040   5.996   1.150  0.2921  1.6832 -0.8591
11432SOL    HW246770   8.164   6.074   1.078 -0.5143  1.8150 -2.1055
11433SOL     OW46771   1.805   1.796   4.731 -0.5739  0.2528 -0.1868
11433SOL    HW146772   1.744   1.858   4.682  0.2561  1.4219  0.2520
11433SOL    HW246773   1.858   1.847   4.798  1.4689 -0.6148 -1.1034
11434SOL     OW46774   0.469   8.205   7.181 -0.0409  0.5454 -0.2050
11434SOL    HW146775   0.442   8.144   7.255 -0.3005  0.7738 -0.1100
11434SOL    HW246776   0.431   8.172   7.094 -1.8126  1.6277  0.1324
11435SOL     OW46777   4.913   7.762   5.629  0.0244 -0.3690  0.2025
11435SOL    HW146778   4.832   7.709   5.657 -0.6464  0.8869  0.6681
11435SOL    HW246779   4.904   7.788   5.533 -1.0620  1.4302  0.7721
11436SOL     OW46780   3.277   2.841   0.272 -0.5633 -0.8149  0.0600
11436SOL    HW146781   3.304   2.868   0.364  1.8268  0.4679 -0.9810
11436SOL    HW246782   3.243   2.920   0.222 -0.0453 -1.1096 -0.7707
11437SOL     OW46783   8.272   0.907   7.090  0.5061  0.4517  0.4843
11437SOL    HW146784   8.298   0.961   7.170  1.9483  0.7546 -0.1605
11437SOL    HW246785   8.355   0.880   7.040 -0.4477  1.5576 -1.7398
11438SOL     OW46786   3.449   2.018   8.121  0.1309  0.2290 -0.2270
11438SOL    HW146787   3.381   1.993   8.052 -0.6198 -0.1527  0.6316
11438SOL    HW246788   3.407   2.080   8.188  0.5005 -0.3395  0.5438
11439SOL     OW46789   8.368   2.340   7.036 -0.4040 -0.8178  0.0809
11439SOL    HW146790   8.354   2.421   6.979  0.2633 -0.8155 -0.0920
11439SOL    HW246791   8.305   2.342   7.113  1.9001  1.6663  2.0254
11440SOL     OW46792   8.173   0.660   8.014  0.2702 -0.2208 -0.1003
11440SOL    HW146793   8.076   0.673   8.035  0.5122  0.0347  0.9263
11440SOL    HW246794   8.192   0.690   7.921 -0.5236  0.2990 -0.0966
11441SOL     OW46795   5.021   5.050   6.635 -0.4598  0.3142 -0.2600
11441SOL    HW146796   4.926   5.073   6.657 -0.3740  0.5998 -0.1900
11441SOL    HW246797   5.047   5.092   6.548 -0.2462  0.6421 -0.0395
11442SOL     OW46798   4.423   4.247   0.062  0.7613 -0.5432  0.0436
11442SOL    HW146799   4.511   4.218   0.101  0.2952 -0.4082  1.2117
11442SOL    HW246800   4.370   4.295   0.132 -0.0954 -0.3030 -0.7639
11443SOL     OW46801   4.240   0.327   6.834 -0.2504  0.5753  0.2754
11443SOL    HW146802   4.148   0.289   6.843  0.4326 -1.0611  0.6243
11443SOL    HW246803   4.236   0.417   6.790 -1.8392 -0.4229 -1.7143
11444SOL     OW46804   3.540   3.512   0.786 -0.0377  0.5452 -0.1071
11444SOL    HW146805   3.569   3.536   0.693 -0.2194 -2.4322 -0.9622
11444SOL    HW246806   3.620   3.493   0.842 -0.0476 -1.1668 -0.6534
11445SOL     OW46807   2.208   8.051   7.998 -0.3242  0.3826  0.1196
11445SOL    HW146808   2.295   8.040   8.046 -0.5272 -1.1991  0.1528
11445SOL    HW246809   2.196   8.146   7.972  0.8993  0.8184  1.1068
11446SOL     OW46810   5.826   2.517   0.006  0.0352 -0.6856 -0.2562
11446SOL    HW146811   5.794   2.609  -0.018 -0.5942 -0.7543  0.2826
11446SOL    HW246812   5.916   2.501  -0.035  1.1453  0.9970  1.4265
11447SOL     OW46813   3.560   6.630   8.380  0.3710 -0.3071 -0.3295
11447SOL    HW146814   3.495   6.611   8.454 -0.2172  0.6909 -0.5842
11447SOL    HW246815   3.525   6.594   8.294 -1.0299  2.3795 -0.9255
11448SOL     OW46816   2.227   7.822   6.662 -0.3500  0.2621  0.2807
11448SOL    HW146817   2.247   7.917   6.638  2.5417 -0.4443 -0.2796
11448SOL    HW246818   2.192   7.818   6.756  0.5759  1.7647  0.7037
11449SOL     OW46819   3.334   2.057   6.331 -0.0788 -0.2627  0.1226
11449SOL    HW146820   3.272   1.986   6.365  0.2515 -0.3146  0.6261
11449SOL    HW246821   3.428   2.023   6.332  0.2712  0.6782  1.8022
11450SOL     OW46822   3.592   8.818   0.056 -0.3194 -1.0676  0.0447
11450SOL    HW146823   3.604   8.916   0.068 -0.5939 -1.2171  1.6389
11450SOL    HW246824   3.564   8.799  -0.038 -1.3705  0.4724  0.0372
11451SOL     OW46825   2.718   7.015   4.702 -0.3154  0.4907  0.1238
11451SOL    HW146826   2.791   7.009   4.634 -0.3900 -1.7040  0.2045
11451SOL    HW246827   2.630   7.021   4.655 -0.5012 -2.6821 -0.0570
11452SOL     OW46828   1.067   7.977   1.971  0.0094  0.6386 -0.2780
11452SOL    HW146829   1.147   7.920   1.993 -0.3231 -0.8593 -2.7730
11452SOL    HW246830   1.025   8.008   2.056  1.5715 -0.9216  1.1289
11453SOL     OW46831   1.037   1.747   5.806 -0.6519  0.1082  0.2510
11453SOL    HW146832   1.008   1.729   5.900  0.5014 -0.2012  0.5572
11453SOL    HW246833   1.125   1.703   5.790  0.0051  1.6718 -0.4232
11454SOL     OW46834   2.175   2.480   3.735 -0.1126  0.1963  0.3595
11454SOL    HW146835   2.159   2.512   3.828  0.9279  1.8303 -0.0019
11454SOL    HW246836   2.122   2.535   3.671  2.5506  2.0104 -0.3655
11455SOL     OW46837   6.756   8.253   1.140  0.0768 -0.9014 -0.1658
11455SOL    HW146838   6.662   8.218   1.131 -0.8217  1.1992  0.7822
11455SOL    HW246839   6.774   8.318   1.066  0.0054  0.3869  0.9441
11456SOL     OW46840   8.807   0.326   4.007  0.3723  0.5684 -0.1605
11456SOL    HW146841   8.802   0.418   3.969  1.4845  0.2887 -1.0112
11456SOL    HW246842   8.861   0.268   3.946 -1.7906 -1.1022 -0.5417
11457SOL     OW46843   2.695   3.760   7.168 -0.2398 -0.3074 -0.6353
11457SOL    HW146844   2.654   3.739   7.257  1.1285 -0.1727  0.0479
11457SOL    HW246845   2.713   3.858   7.163  0.9130 -0.5014 -0.5049
11458SOL     OW46846   4.512   4.836   1.408  0.2102  1.0796 -0.3334
11458SOL    HW146847   4.601   4.853   1.451 -0.7719  2.3059  1.2780
11458SOL    HW246848   4.449   4.910   1.433 -1.3523  0.0487 -1.1909
11459SOL     OW46849   3.985   0.772   6.108  0.2283  0.5564  0.0838
11459SOL    HW146850   3.936   0.694   6.068  0.3302 -0.9296  2.7703
11459SOL    HW246851   3.989   0.846   6.041 -3.1447 -0.3521 -1.2290
11460SOL     OW46852   4.926   8.689   4.667 -0.7062 -0.0534 -0.3440
11460SOL    HW146853   4.888   8.623   4.731  0.7626  1.4108  2.1167
11460SOL    HW246854   4.942   8.645   4.578  1.8319 -3.4363  1.6949
11461SOL     OW46855   5.897   3.653   7.253  0.1667  0.7044  0.4064
11461SOL    HW146856   5.948   3.734   7.222 -0.0659  0.8692  0.4505
11461SOL    HW246857   5.904   3.646   7.352 -0.6958  1.2731  0.5094
11462SOL     OW46858   0.278   3.945   8.771  0.7434 -0.4883 -0.1042
11462SOL    HW146859   0.210   4.013   8.743  0.6977  0.0433  1.2792
11462SOL    HW246860   0.369   3.977   8.746  0.7434  0.1984  0.7550
11463SOL     OW46861   0.914   5.444   5.175  0.2343 -0.1718  0.5422
11463SOL    HW146862   0.961   5.481   5.255 -1.8017  0.1604  1.5957
11463SOL    HW246863   0.857   5.367   5.202  0.4423 -0.8208 -0.8031
11464SOL     OW46864   3.727   4.511   5.200 -0.8593 -0.4046 -0.3735
11464SOL    HW146865   3.745   4.419   5.233  0.4768  0.5790  1.7512
11464SOL    HW246866   3.674   4.562   5.268 -0.8838  0.6500 -1.1659
11465SOL     OW46867   4.234   1.792   7.651 -0.1389  0.6869 -0.5429
11465SOL    HW146868   4.289   1.709   7.637 -2.5099 -1.1689  0.7676
11465SOL    HW246869   4.257   1.859   7.581  0.6870 -1.7095 -2.6591
11466SOL     OW46870   7.743   8.276   7.204 -0.2352  0.0434  0.4940
11466SOL    HW146871   7.799   8.322   7.273 -0.7922  1.9487 -0.3149
11466SOL    HW246872   7.670   8.337   7.174 -1.4718 -1.6621 -0.0097
11467SOL     OW46873   3.775   0.141   0.869 -0.2804 -0.1806  0.0758
11467SOL    HW146874   3.754   0.208   0.940 -2.2657  0.2915 -0.9307
11467SOL    HW246875   3.864   0.162   0.828 -1.0605  2.0830 -0.4966
11468SOL     OW46876   6.306   5.423   0.127  0.5116  0.7030 -0.0542
11468SOL    HW146877   6.285   5.326   0.113  2.5984  0.3008 -0.5736
11468SOL    HW246878   6.221   5.474   0.140 -0.6180 -1.1728  0.1076
11469SOL     OW46879   3.560   2.041   2.042  0.9363  0.0956  0.1860
11469SOL    HW146880   3.477   2.084   2.008  0.7301  1.1510  1.9909
11469SOL    HW246881   3.610   2.000   1.965 -2.0453 -2.0158 -0.7071
11470SOL     OW46882   3.590   1.468   0.420 -0.3285  0.0496 -0.0247
11470SOL    HW146883   3.640   1.466   0.333 -1.6106  2.0460 -0.8461
11470SOL    HW246884   3.492   1.459   0.401 -0.5636 -0.1680  1.2892
11471SOL     OW46885   2.709   8.013   7.961 -0.6499  0.3454 -0.1928
11471SOL    HW146886   2.634   8.004   8.026 -1.5900 -0.1720 -1.3385
11471SOL    HW246887   2.787   7.959   7.993 -1.5381 -0.9182 -0.1127
11472SOL     OW46888   7.742   3.784   2.354 -0.2642  0.2566 -0.2231
11472SOL    HW146889   7.648   3.761   2.380 -0.3449  0.1874 -0.5715
11472SOL    HW246890   7.803   3.765   2.430 -0.7682  1.9911  0.6523
11473SOL     OW46891   1.314   4.686   4.366 -0.1998  0.8786 -0.6630
11473SOL    HW146892   1.226   4.706   4.323 -1.4502 -0.9330  0.9342
11473SOL    HW246893   1.368   4.628   4.306 -1.2018 -0.1777 -0.5728
11474SOL     OW46894   6.420   8.070   6.893 -0.6228 -0.2859  0.3221
11474SOL    HW146895   6.383   8.103   6.806 -0.2225  0.6703  0.5021
11474SOL    HW246896   6.403   8.138   6.964 -1.0771 -1.1323  1.0303
11475SOL     OW46897   7.814   8.284   7.741 -0.8174  0.4399  0.5050
11475SOL    HW146898   7.766   8.360   7.696 -0.0234  0.5300 -0.2062
11475SOL    HW246899   7.818   8.301   7.839 -1.6004  0.7852  0.4846
11476SOL     OW46900   1.497   1.910   2.169 -0.1510 -0.0374  0.3845
11476SOL    HW146901   1.469   1.858   2.088 -0.4669 -0.8900  1.0326
11476SOL    HW246902   1.416   1.944   2.216 -0.0302 -1.1189  1.3684
11477SOL     OW46903   8.225   7.075   0.722  0.0385 -0.0403  0.6137
11477SOL    HW146904   8.279   7.007   0.672 -0.6975 -1.3190  1.5304
11477SOL    HW246905   8.142   7.032   0.758 -1.4539  1.8134 -0.4694
11478SOL     OW46906   8.383   8.635   0.633  0.6637 -0.5315  0.3031
11478SOL    HW146907   8.463   8.674   0.679 -0.0305 -1.2744  2.1793
11478SOL    HW246908   8.300   8.676   0.669  0.2126  1.4591 -2.8164
11479SOL     OW46909   0.231   3.962   7.532  0.4274  0.3397 -0.0397
11479SOL    HW146910   0.240   4.054   7.493  0.5661  0.8672  1.2161
11479SOL    HW246911   0.218   3.969   7.631  0.1323 -0.9863  0.0230
11480SOL     OW46912   2.772   1.618   5.497  0.1674 -0.0601  0.2670
11480SOL    HW146913   2.679   1.584   5.512  0.2455  0.4753  2.2122
11480SOL    HW246914   2.792   1.690   5.565  1.4330  0.9581 -1.1502
11481SOL     OW46915   8.434   2.128   8.187  0.6449  0.1085 -0.1256
11481SOL    HW146916   8.517   2.077   8.164  0.4755 -0.1908 -0.0662
11481SOL    HW246917   8.384   2.081   8.259 -1.0756 -1.2483 -2.1423
11482SOL     OW46918   2.452   3.240   1.571 -0.0258  0.3636  0.3935
11482SOL    HW146919   2.525   3.279   1.515 -3.1268  1.8646 -2.8226
11482SOL    HW246920   2.407   3.167   1.521 -2.7091  1.5649  0.9604
11483SOL     OW46921   0.586   1.243   0.455  0.1122 -0.3697 -0.4975
11483SOL    HW146922   0.578   1.174   0.383 -0.4313  1.8103 -2.5994
11483SOL    HW246923   0.674   1.291   0.447  0.5847 -0.9337  1.0811
11484SOL     OW46924   0.218   5.826   4.020 -0.1288 -0.0947 -0.1944
11484SOL    HW146925   0.188   5.811   4.113  0.9911  0.6707  0.3083
11484SOL    HW246926   0.142   5.858   3.964 -0.7080 -0.1909  0.5427
11485SOL     OW46927   6.422   0.343   1.782  0.2870 -0.7556  0.6151
11485SOL    HW146928   6.420   0.425   1.838 -2.4999 -0.7621  0.6402
11485SOL    HW246929   6.412   0.367   1.686  2.0822 -0.9242  0.3741
11486SOL     OW46930   0.632   5.514   5.812  0.5818  0.2976 -0.2197
11486SOL    HW146931   0.613   5.558   5.724 -0.9576 -1.1590 -0.6462
11486SOL    HW246932   0.697   5.569   5.863  1.0993  1.4466 -2.0537
11487SOL     OW46933   7.427   0.563   1.199 -0.2690  0.0563  0.6028
11487SOL    HW146934   7.514   0.556   1.149 -0.1356 -2.2726  1.0985
11487SOL    HW246935   7.383   0.650   1.177  0.0004 -0.6727 -3.2294
11488SOL     OW46936   8.366   6.829   6.782  0.2341  0.0171  0.6015
11488SOL    HW146937   8.331   6.914   6.822  0.2752  0.4199 -0.1988
11488SOL    HW246938   8.341   6.825   6.685  1.0849 -0.4198  0.3959
11489SOL     OW46939   0.753   0.096   5.022  0.2008  1.0712  0.2944
11489SOL    HW146940   0.725   0.178   4.972  0.7583  1.1194  0.0568
11489SOL    HW246941   0.831   0.117   5.080  0.6051  0.6164 -0.0782
11490SOL     OW46942   5.869   4.928   2.926 -0.7585 -0.5007  0.3738
11490SOL    HW146943   5.814   5.001   2.885 -0.2047 -0.6886 -0.7009
11490SOL    HW246944   5.841   4.840   2.889  0.3550 -0.5856 -0.2802
11491SOL     OW46945   2.235   3.504   7.259  0.2560  0.0486  0.0281
11491SOL    HW146946   2.242   3.464   7.350  0.8668  1.5069  0.6488
11491SOL    HW246947   2.313   3.477   7.204  1.0016  0.8702  0.6555
11492SOL     OW46948   1.634   5.129   1.669  0.2314 -0.0207  0.2943
11492SOL    HW146949   1.565   5.164   1.605 -1.2554 -0.5846  1.5560
11492SOL    HW246950   1.645   5.031   1.656  0.2838 -0.0514  0.5623
11493SOL     OW46951   8.808   6.541   7.432  0.0381  0.3915  0.7198
11493SOL    HW146952   8.815   6.446   7.402  2.5510  0.9594 -0.6196
11493SOL    HW246953   8.726   6.552   7.488 -0.5843 -2.4314  0.4454
11494SOL     OW46954   4.953   2.263   7.485 -0.1195  0.0419  0.2530
11494SOL    HW146955   4.979   2.278   7.390  1.8985 -1.6910  0.4946
11494SOL    HW246956   5.035   2.253   7.541 -1.2623 -1.7158  1.7048
11495SOL     OW46957   1.496   0.372   1.697  0.6401  0.3087 -0.0791
11495SOL    HW146958   1.477   0.384   1.599 -0.3842 -0.5247  0.0155
11495SOL    HW246959   1.594   0.377   1.712  0.9879 -1.8615 -1.4724
11496SOL     OW46960   8.459   7.179   8.407  0.1880 -0.2522  0.0090
11496SOL    HW146961   8.500   7.091   8.431  2.0953  0.7714  0.5304
11496SOL    HW246962   8.442   7.182   8.308  0.4740 -1.0475 -0.0697
11497SOL     OW46963   8.970   3.855   8.730  0.2323 -0.2135  0.0038
11497SOL    HW146964   9.033   3.831   8.805 -0.1757 -2.0447 -0.2226
11497SOL    HW246965   9.008   3.823   8.643 -0.3110 -0.0163 -0.3061
11498SOL     OW46966   6.530   8.806   5.803  0.7606 -0.3446  0.2339
11498SOL    HW146967   6.487   8.872   5.741  0.3589 -0.3325  0.5240
11498SOL    HW246968   6.465   8.734   5.825  0.7755 -0.1394  0.9478
11499SOL     OW46969   3.262   4.210   6.692 -0.0309 -0.1606  0.6279
11499SOL    HW146970   3.197   4.166   6.629 -0.4218  0.2266  0.7643
11499SOL    HW246971   3.309   4.139   6.745 -0.1853 -0.4523  0.3812
11500SOL     OW46972   8.760   5.266   4.206 -0.0897 -0.4404  0.5252
11500SOL    HW146973   8.843   5.224   4.244 -0.5874 -1.0166  0.9824
11500SOL    HW246974   8.698   5.194   4.175 -2.2290 -0.1674  3.9468
11501SOL     OW46975   3.275   5.930   1.461 -0.2906  0.1166  0.2621
11501SOL    HW146976   3.314   5.926   1.553 -3.8185  0.0394  1.8270
11501SOL    HW246977   3.243   6.022   1.442 -3.2333 -0.7775  0.7344
11502SOL     OW46978   5.007   4.458   3.224  0.1735  0.1384  0.4974
11502SOL    HW146979   5.003   4.518   3.145 -1.4457 -0.4728  0.0848
11502SOL    HW246980   5.050   4.372   3.199  0.9560  0.4864  0.6500
11503SOL     OW46981   4.054   7.276   7.670  0.0530  0.4033 -0.8173
11503SOL    HW146982   4.104   7.319   7.594  3.8422  0.2001  1.3942
11503SOL    HW246983   4.063   7.333   7.751  0.6589 -1.9537  0.8245
11504SOL     OW46984   6.201   6.957   8.202 -0.3566  0.3835 -0.2454
11504SOL    HW146985   6.104   6.964   8.224 -0.9360  0.5807 -2.7522
11504SOL    HW246986   6.231   6.863   8.219 -0.9806  0.2977  0.4515
11505SOL     OW46987   4.234   5.374   8.037 -0.6667  0.6259 -0.4575
11505SOL    HW146988   4.193   5.283   8.035 -0.3623  0.4991 -2.2159
11505SOL    HW246989   4.228   5.412   8.129 -1.6794 -0.7710  0.0664
11506SOL     OW46990   7.620   3.497   7.658 -0.3429 -0.3221 -0.2791
11506SOL    HW146991   7.526   3.515   7.687  0.5356  0.7710  1.9705
11506SOL    HW246992   7.651   3.570   7.596  0.0157  0.9138  1.3392
11507SOL     OW46993   8.623   6.689   7.826 -0.8823 -0.1217  0.4244
11507SOL    HW146994   8.690   6.617   7.811 -0.8910 -0.4427  1.8212
11507SOL    HW246995   8.665   6.764   7.877 -1.5094 -0.2156  1.0915
11508SOL     OW46996   6.495   3.966   8.699  0.3951 -0.3732  0.3508
11508SOL    HW146997   6.576   4.021   8.722  0.0087 -0.1001  1.0950
11508SOL    HW246998   6.458   3.927   8.783 -0.6686  0.0900  0.0979
11509SOL     OW46999   4.970   8.575   4.418  0.0642 -0.0549 -0.2666
11509SOL    HW147000   4.911   8.522   4.357  0.1418  0.3133 -0.6642
11509SOL    HW247001   5.065   8.564   4.388 -0.0166  1.1685 -1.0148
11510SOL     OW47002   0.091   3.994   1.755  0.1770 -0.6005 -0.1496
11510SOL    HW147003   0.036   3.933   1.812  0.4946 -0.9093 -0.1689
11510SOL    HW247004   0.161   4.038   1.812 -2.2076  2.3953  0.5765
11511SOL     OW47005   5.180   1.949   0.860 -0.0254 -0.0919 -0.7502
11511SOL    HW147006   5.223   2.015   0.798 -1.7497 -0.7630 -2.7288
11511SOL    HW247007   5.198   1.856   0.828 -0.4578 -0.4687  0.0841
11512SOL     OW47008   1.415   1.869   7.593 -0.0239 -0.2040 -0.4386
11512SOL    HW147009   1.479   1.804   7.634  0.9973  1.4146  0.5920
11512SOL    HW247010   1.327   1.864   7.640 -0.0441 -1.0581 -0.5656
11513SOL     OW47011   3.352   4.462   6.703 -0.1258 -0.0492 -0.4994
11513SOL    HW147012   3.342   4.364   6.690 -0.8157 -0.2044  1.0183
11513SOL    HW247013   3.281   4.510   6.652  0.1968 -0.3430 -1.2238
11514SOL     OW47014   5.370   2.162   1.854 -0.1552 -0.4042 -0.0010
11514SOL    HW147015   5.345   2.258   1.870  4.1167  0.7170  0.8611
11514SOL    HW247016   5.353   2.109   1.936 -1.2953 -0.0834 -0.0263
11515SOL     OW47017   7.017   6.752   0.655  0.1834  0.2729 -0.2406
11515SOL    HW147018   7.063   6.672   0.695  2.4969  1.9306  0.5472
11515SOL    HW247019   6.950   6.788   0.720  1.0472  0.5497  0.5053
11516SOL     OW47020   5.497   5.153   1.622 -0.3153 -0.1401  0.0678
11516SOL    HW147021   5.538   5.213   1.553  1.5219 -0.7437  0.5914
11516SOL    HW247022   5.430   5.093   1.578 -0.2074  0.4482 -0.9346
11517SOL     OW47023   6.496   0.751   0.294 -0.0334  0.2540 -0.3339
11517SOL    HW147024   6.516   0.789   0.384 -0.5572  1.8881 -0.9014
11517SOL    HW247025   6.579   0.750   0.239  0.0059  0.4418 -0.2772
11518SOL     OW47026   2.278   6.974   4.580 -0.0898 -0.0254  0.0709
11518SOL    HW147027   2.248   6.953   4.673 -0.0450  3.7089  1.0205
11518SOL    HW247028   2.207   6.948   4.515 -1.5776  0.3988  1.4828
11519SOL     OW47029   6.505   8.112   6.129  0.4884  0.1119  0.1346
11519SOL    HW147030   6.600   8.115   6.097  1.0234 -1.9004  1.4428
11519SOL    HW247031   6.493   8.034   6.191 -1.9634  0.4878  0.1828
11520SOL     OW47032   5.133   3.811   5.743 -0.3205  0.5911 -0.0047
11520SOL    HW147033   5.206   3.776   5.803 -3.1500  0.1428  3.3223
11520SOL    HW247034   5.131   3.910   5.747  1.4095  0.7333 -1.7828
11521SOL     OW47035   5.790   6.491   4.911 -0.5311 -0.1629  0.2481
11521SOL    HW147036   5.741   6.570   4.947 -1.7278 -0.3552 -0.9236
11521SOL    HW247037   5.730   6.411   4.914  0.6575 -1.0341  1.3992
11522SOL     OW47038   1.895   7.078   8.805  0.0334 -0.3366 -0.2755
11522SOL    HW147039   1.964   7.134   8.852 -0.2361  0.3268 -0.6601
11522SOL    HW247040   1.881   7.114   8.713  0.5117 -1.5904 -0.8476
11523SOL     OW47041   5.736   0.808   3.265  0.2251  0.1213  0.0136
11523SOL    HW147042   5.706   0.806   3.169  0.0024 -1.3389  0.1077
11523SOL    HW247043   5.836   0.800   3.268  0.2559  0.4599 -0.1111
11524SOL     OW47044   3.721   2.290   5.371  0.0328  0.0223 -0.2184
11524SOL    HW147045   3.701   2.196   5.399  0.3624 -1.3831 -4.2757
11524SOL    HW247046   3.820   2.301   5.362 -0.1120 -0.0744 -2.1923
11525SOL     OW47047   1.575   7.075   2.496 -1.0986  0.4961  0.1189
11525SOL    HW147048   1.540   7.070   2.590 -1.0084  0.4545  0.1501
11525SOL    HW247049   1.614   7.165   2.479 -2.7829  1.1392 -0.4608
11526SOL     OW47050   3.048   6.389   8.990 -0.2292  0.7617  0.3837
11526SOL    HW147051   3.091   6.300   9.003 -0.6272  0.4130 -0.6807
11526SOL    HW247052   3.060   6.444   9.072  1.8511  0.4914  0.2746
11527SOL     OW47053   4.075   0.464   1.386  0.8046  0.5438 -0.2607
11527SOL    HW147054   4.049   0.408   1.307  0.0967  1.8302 -0.9691
11527SOL    HW247055   4.156   0.518   1.363 -0.1025  1.8071 -0.5380
11528SOL     OW47056   7.249   8.775   6.649  0.8486  0.0169 -0.1630
11528SOL    HW147057   7.159   8.816   6.667  1.0257  1.0682 -1.5449
11528SOL    HW247058   7.296   8.758   6.736 -0.2532  0.4485  0.5296
11529SOL     OW47059   2.320   0.150   4.648 -0.0409  0.5942  0.5273
11529SOL    HW147060   2.347   0.054   4.640 -1.7526 -0.1309  3.1517
11529SOL    HW247061   2.309   0.189   4.556  1.5324 -1.4374 -0.5700
11530SOL     OW47062   8.199   0.648   6.076  0.0722 -0.1735 -0.1708
11530SOL    HW147063   8.272   0.705   6.112 -1.7476  1.1753  1.5485
11530SOL    HW247064   8.183   0.670   5.980 -0.7043  2.3981  0.4986
11531SOL     OW47065   5.278   8.168   8.107 -0.3516  0.1165 -0.5811
11531SOL    HW147066   5.311   8.218   8.187  1.3352  0.7035 -1.6282
11531SOL    HW247067   5.180   8.183   8.096 -0.5218  0.3418  1.1442
11532SOL     OW47068   8.093   4.950   2.881  0.1482 -0.4649 -0.1344
11532SOL    HW147069   8.075   4.855   2.906  1.1543 -0.1529  1.9086
11532SOL    HW247070   8.175   4.955   2.824  0.7312 -0.7348  0.6701
11533SOL     OW47071   0.826   2.365   1.835 -0.3265  0.1415 -0.0009
11533SOL    HW147072   0.887   2.304   1.886  1.0469  0.1681 -1.5809
11533SOL    HW247073   0.736   2.323   1.828 -0.0463 -0.6400  0.9596
11534SOL     OW47074   1.128   4.801   6.640  0.3661 -0.3783  0.2893
11534SOL    HW147075   1.138   4.871   6.710  1.9645  1.8970 -2.1459
11534SOL    HW247076   1.204   4.736   6.646  0.3567 -0.3486  0.7800
11535SOL     OW47077   2.565   5.404   8.908  0.0407  0.0329 -0.4073
11535SOL    HW147078   2.541   5.309   8.928  1.8445 -0.2067  0.6862
11535SOL    HW247079   2.654   5.425   8.948 -0.6803  2.4030  0.0383
11536SOL     OW47080   6.941   3.789   5.090  0.4798  0.0586  0.4081
11536SOL    HW147081   7.035   3.784   5.123  0.5072  0.1028  0.3393
11536SOL    HW247082   6.886   3.842   5.155  0.9308  1.6589 -0.4713
11537SOL     OW47083   1.679   0.882   2.200  0.3114  0.0417  0.0579
11537SOL    HW147084   1.622   0.901   2.119  0.9260  0.7739 -0.2052
11537SOL    HW247085   1.620   0.858   2.277 -0.2386 -1.5561 -0.8452
11538SOL     OW47086   4.364   8.856   7.747 -0.4570 -0.1629  0.0122
11538SOL    HW147087   4.283   8.900   7.785 -0.2881 -0.0239  0.2173
11538SOL    HW247088   4.399   8.789   7.813  0.6543  1.0746  0.7046
11539SOL     OW47089   4.645   4.560   6.932 -0.1980  0.2134 -0.4822
11539SOL    HW147090   4.635   4.516   6.843  3.9090 -1.2954 -0.3174
11539SOL    HW247091   4.659   4.491   7.003  3.4274  1.5701  0.2415
11540SOL     OW47092   5.331   2.689   8.296  0.2876 -0.0821  0.2721
11540SOL    HW147093   5.390   2.625   8.345  0.8438 -0.4127 -0.8124
11540SOL    HW247094   5.306   2.650   8.207 -0.3360  0.7009  0.0957
11541SOL     OW47095   6.573   5.915   6.052 -0.5473  0.4515 -0.1645
11541SOL    HW147096   6.615   5.853   5.985 -3.4892 -0.8591 -0.8615
11541SOL    HW247097   6.612   6.007   6.041  3.7515 -1.1546  0.7705
11542SOL     OW47098   1.369   8.580   8.993 -0.0408  0.1072  0.1167
11542SOL    HW147099   1.270   8.578   8.980 -0.0807  0.8436  0.2867
11542SOL    HW247100   1.395   8.515   9.064 -0.3371 -0.4833 -0.3053
11543SOL     OW47101   3.551   6.512   6.762 -0.4811  0.1444  0.3632
11543SOL    HW147102   3.461   6.475   6.737  0.1256 -1.7547  0.8853
11543SOL    HW247103   3.610   6.512   6.681  0.2846 -2.4103  0.8764
11544SOL     OW47104   3.256   0.569   8.332 -0.7456 -0.0311  0.2020
11544SOL    HW147105   3.217   0.478   8.326  0.3091 -0.4324 -0.5602
11544SOL    HW247106   3.355   0.564   8.322 -0.8457  1.3897 -1.6636
11545SOL     OW47107   8.930   3.067   2.213  0.3205  0.4407  0.2055
11545SOL    HW147108   8.918   3.062   2.114  1.9502 -0.1827  0.0283
11545SOL    HW247109   8.860   3.012   2.258  0.8273 -0.9417 -0.6782
11546SOL     OW47110   5.866   3.663   8.859  0.2363  0.0705  0.0573
11546SOL    HW147111   5.847   3.616   8.946  1.5509  0.8836  0.8038
11546SOL    HW247112   5.853   3.599   8.784  1.0338 -1.2443  0.9967
11547SOL     OW47113   2.599   1.248   2.272 -0.7318  0.1802 -0.0347
11547SOL    HW147114   2.500   1.242   2.255 -1.4452 -1.7839  4.0189
11547SOL    HW247115   2.622   1.340   2.305 -1.1388  0.7672 -1.3819
11548SOL     OW47116   8.509   7.885   3.112  0.2749 -0.2501  0.3352
11548SOL    HW147117   8.487   7.923   3.202  0.4879 -1.7593  1.0293
11548SOL    HW247118   8.601   7.915   3.085  1.0403 -1.4482  1.5447
11549SOL     OW47119   4.658   8.338   5.643 -0.6621  0.6222 -0.0891
11549SOL    HW147120   4.561   8.317   5.649 -0.5326 -0.3928 -1.3319
11549SOL    HW247121   4.708   8.290   5.715 -1.0281  0.8686  0.3321
11550SOL     OW47122   3.567   6.408   5.125  0.2149 -0.0409 -0.5418
11550SOL    HW147123   3.647   6.378   5.073 -0.1441 -1.3284 -0.3502
11550SOL    HW247124   3.580   6.385   5.221 -1.2981 -2.1574 -0.8230
11551SOL     OW47125   4.157   4.586   2.417 -0.1925  0.5621  0.6350
11551SOL    HW147126   4.108   4.527   2.481  0.2300  0.7340  1.1215
11551SOL    HW247127   4.099   4.664   2.394 -1.2887 -0.7380 -1.0849
11552SOL     OW47128   4.785   3.558   7.575  0.0840  0.0762 -0.5620
11552SOL    HW147129   4.777   3.618   7.495  1.0788  0.2783 -0.5262
11552SOL    HW247130   4.847   3.483   7.553 -1.0573 -0.8681 -0.5574
11553SOL     OW47131   0.103   4.062   4.243  0.1354 -0.0108 -0.6383
11553SOL    HW147132   0.040   4.127   4.199 -1.4346 -0.6284  0.6209
11553SOL    HW247133   0.092   3.972   4.201  0.8124  0.0821 -1.0056
11554SOL     OW47134   5.402   7.669   0.599  0.1326  0.2866 -0.2713
11554SOL    HW147135   5.455   7.746   0.633  1.8487 -0.9452 -0.0888
11554SOL    HW247136   5.321   7.703   0.551 -1.4122  2.0873  3.4242
11555SOL     OW47137   1.638   2.567   6.669  0.1174  0.0481 -0.3426
11555SOL    HW147138   1.647   2.509   6.589 -0.4804  0.5493 -0.7758
11555SOL    HW247139   1.692   2.650   6.656 -0.2072  0.2587 -0.3491
11556SOL     OW47140   3.877   1.265   1.675  1.0688 -0.2340 -0.1855
11556SOL    HW147141   3.953   1.329   1.687 -0.3965  1.3118  1.1596
11556SOL    HW247142   3.813   1.275   1.752 -0.6210 -1.3204 -1.4213
11557SOL     OW47143   4.271   3.019   2.936 -0.2040 -0.6952  0.0633
11557SOL    HW147144   4.346   2.953   2.926 -0.3879 -0.8192 -0.5715
11557SOL    HW247145   4.306   3.103   2.976 -0.3766 -1.9113  2.8458
11558SOL     OW47146   5.024   2.953   8.872 -0.1607  0.4463 -0.0059
11558SOL    HW147147   4.968   2.987   8.796  0.2748  1.5111  0.1495
11558SOL    HW247148   4.995   2.997   8.957  0.7784  0.8533  0.1021
11559SOL     OW47149   1.542   5.101   1.926  0.2621 -0.3635  0.0376
11559SOL    HW147150   1.626   5.061   1.964  0.8968  0.2060 -0.7389
11559SOL    HW247151   1.555   5.118   1.828 -0.6660 -0.0170 -0.0260
11560SOL     OW47152   3.933   8.053   5.694 -0.1882  0.1503  0.0246
11560SOL    HW147153   4.007   8.063   5.760  0.4694  0.5288 -0.7513
11560SOL    HW247154   3.954   8.107   5.612  0.8241 -3.2304 -2.0655
11561SOL     OW47155   2.576   1.501   1.561 -0.0110  0.5745 -0.0656
11561SOL    HW147156   2.611   1.488   1.654  2.1610 -0.9437 -1.0637
11561SOL    HW247157   2.652   1.520   1.499 -1.4262  1.4325 -1.5791
11562SOL     OW47158   7.876   6.217   1.818 -0.0124  0.8371  0.3749
11562SOL    HW147159   7.940   6.141   1.832 -1.8162 -1.0610 -1.1652
11562SOL    HW247160   7.860   6.264   1.904  0.5580 -1.0565  1.5508
11563SOL     OW47161   5.285   5.272   6.737 -0.7450 -0.0893 -0.4293
11563SOL    HW147162   5.287   5.259   6.638 -0.0338 -1.4698 -0.2356
11563SOL    HW247163   5.323   5.191   6.782 -0.5763  0.7549  0.9531
11564SOL     OW47164   3.603   4.684   5.628  0.0095  0.3833 -0.3152
11564SOL    HW147165   3.646   4.677   5.538  0.1546  0.0471 -0.2222
11564SOL    HW247166   3.664   4.735   5.690  0.0932  0.2599 -0.2957
11565SOL     OW47167   3.323   3.877   3.223 -0.1317  0.1037 -0.1698
11565SOL    HW147168   3.264   3.813   3.173  1.7227 -0.3387 -1.9019
11565SOL    HW247169   3.407   3.892   3.170  2.1364 -0.7096  3.0024
11566SOL     OW47170   3.481   5.389   0.946  0.0783 -0.1208 -0.2249
11566SOL    HW147171   3.494   5.294   0.916 -3.1207 -0.8110  0.4507
11566SOL    HW247172   3.412   5.433   0.889 -0.9199  0.7430  1.6211
11567SOL     OW47173   6.787   4.209   4.226  0.2670  0.1994  0.3857
11567SOL    HW147174   6.858   4.190   4.158  1.9262  4.6520  0.7342
11567SOL    HW247175   6.807   4.158   4.309  2.3385  0.3699  0.0257
11568SOL     OW47176   6.917   5.482   6.141 -0.4985  0.0924  0.4045
11568SOL    HW147177   6.887   5.553   6.204 -2.1527  0.1197 -0.3710
11568SOL    HW247178   6.944   5.524   6.054 -0.4652 -0.1407  0.3019
11569SOL     OW47179   7.393   3.499   8.825  0.4917  0.1863  0.4216
11569SOL    HW147180   7.468   3.548   8.869  2.2880 -2.8847  0.9550
11569SOL    HW247181   7.320   3.483   8.891  2.2784 -2.5768  1.8276
11570SOL     OW47182   0.513   7.158   5.599  0.2803 -0.4071  0.0961
11570SOL    HW147183   0.589   7.215   5.629 -0.3567 -0.4416  1.8546
11570SOL    HW247184   0.447   7.214   5.548  0.8688 -0.1160 -0.3466
11571SOL     OW47185   8.920   2.963   3.791  0.6010 -0.5561 -0.3999
11571SOL    HW147186   8.935   2.960   3.889  1.5042 -2.2575 -0.5711
11571SOL    HW247187   9.008   2.966   3.743  0.1633  1.0318 -1.1472
11572SOL     OW47188   0.696   2.592   3.952  0.1307 -0.3088  0.2976
11572SOL    HW147189   0.640   2.583   3.870  1.6558 -1.6799 -0.6337
11572SOL    HW247190   0.638   2.616   4.030 -1.3682  0.7397 -1.1197
11573SOL     OW47191   0.056   0.947   8.034  0.2015 -0.1365  1.0074
11573SOL    HW147192   0.022   0.915   7.946 -0.5754 -3.4290  2.4486
11573SOL    HW247193   0.027   1.042   8.048  0.7648  0.6281 -2.4460
11574SOL     OW47194   7.621   2.025   2.055  0.1705  0.0911 -0.1048
11574SOL    HW147195   7.594   2.118   2.080 -0.2154 -0.6569  2.5045
11574SOL    HW247196   7.720   2.019   2.049  0.2107  0.6174  0.0338
11575SOL     OW47197   1.629   3.083   4.568 -0.2101  0.2663  0.8161
11575SOL    HW147198   1.668   3.074   4.477 -1.1956 -0.2600  0.4470
11575SOL    HW247199   1.658   3.171   4.608 -0.5956  0.9488 -0.3924
11576SOL     OW47200   7.472   6.219   5.489 -0.0815 -0.5358 -0.1973
11576SOL    HW147201   7.474   6.303   5.543 -1.1741 -0.8972  0.4147
11576SOL    HW247202   7.561   6.173   5.495  0.6115  0.7065 -0.7548
11577SOL     OW47203   8.872   5.305   1.251  0.1923  0.2552 -0.1194
11577SOL    HW147204   8.801   5.246   1.289 -0.0817  0.1512 -0.7866
11577SOL    HW247205   8.955   5.297   1.306  0.1944 -0.8457 -0.2743
11578SOL     OW47206   8.119   5.420   6.500 -0.0639 -0.1941  0.4458
11578SOL    HW147207   8.068   5.400   6.584  1.0783  1.3188  1.5129
11578SOL    HW247208   8.135   5.518   6.493 -0.6747 -0.2334 -1.8740
11579SOL     OW47209   7.831   7.442   0.752 -0.3346 -0.4896  0.6475
11579SOL    HW147210   7.892   7.419   0.829  1.9219 -0.8520 -1.1831
11579SOL    HW247211   7.806   7.538   0.757  1.2550 -0.0728  0.8859
11580SOL     OW47212   6.910   7.094   5.260 -0.1972 -0.4602 -0.2724
11580SOL    HW147213   6.980   7.100   5.189  0.0633  0.6266  0.0666
11580SOL    HW247214   6.871   7.185   5.276 -1.1542 -0.9255  0.0713
11581SOL     OW47215   7.400   3.407   3.368  0.6541  0.0440 -0.2723
11581SOL    HW147216   7.343   3.486   3.345  0.3201 -0.0882  0.0782
11581SOL    HW247217   7.442   3.370   3.285  1.1710  0.8590 -0.3809
11582SOL     OW47218   3.175   2.640   5.295  0.3175 -0.1151 -0.0145
11582SOL    HW147219   3.167   2.541   5.309  1.3113  0.0011  1.4178
11582SOL    HW247220   3.229   2.680   5.369  0.2002  1.4581 -0.7672
11583SOL     OW47221   0.985   2.437   3.576 -0.2825  0.1319 -0.1603
11583SOL    HW147222   0.939   2.437   3.665 -1.5063  1.4464 -0.7689
11583SOL    HW247223   1.063   2.499   3.579 -1.2656  1.3889 -0.4669
11584SOL     OW47224   4.884   5.353   5.698 -0.2418 -0.0659  0.5438
11584SOL    HW147225   4.808   5.396   5.649 -0.3984  0.5435  1.3203
11584SOL    HW247226   4.870   5.254   5.698 -0.0032 -0.1102 -1.0282
11585SOL     OW47227   0.325   3.058   5.268  0.5845 -0.4568 -0.1233
11585SOL    HW147228   0.269   2.994   5.320  1.3684 -1.4699 -0.5150
11585SOL    HW247229   0.381   3.008   5.202  1.3183  0.6120 -0.3286
11586SOL     OW47230   1.612   1.497   1.875  0.0463 -0.5130  0.7227
11586SOL    HW147231   1.694   1.442   1.860 -0.6616 -1.0748 -1.1647
11586SOL    HW247232   1.636   1.580   1.925  1.9244 -0.1831 -0.6846
11587SOL     OW47233   2.631   5.160   0.112  0.2187  0.7750  0.3305
11587SOL    HW147234   2.544   5.160   0.063 -0.5758 -2.9749  1.5008
11587SOL    HW247235   2.614   5.179   0.209  0.7902  0.7285  0.4400
11588SOL     OW47236   4.375   1.360   7.730  0.5234 -0.2372  0.0759
11588SOL    HW147237   4.375   1.310   7.644  0.8439 -0.1869  0.0489
11588SOL    HW247238   4.368   1.458   7.712  0.8550 -0.2103  0.1005
11589SOL     OW47239   5.956   8.377   0.244 -0.6842  0.6879  0.0902
11589SOL    HW147240   5.966   8.408   0.149 -2.0927 -0.2276 -0.3827
11589SOL    HW247241   6.012   8.434   0.304  1.6961  0.1200 -1.4983
11590SOL     OW47242   2.491   6.569   2.215 -0.2263 -0.1663 -0.1525
11590SOL    HW147243   2.545   6.653   2.208  2.9642 -1.8041  3.1330
11590SOL    HW247244   2.432   6.574   2.296 -0.1303 -1.0013 -0.0268
11591SOL     OW47245   0.722   5.879   8.129  0.4733  0.4346 -0.2919
11591SOL    HW147246   0.742   5.902   8.224 -1.2119  1.4741 -0.1638
11591SOL    HW247247   0.632   5.916   8.104  0.6924 -0.2304 -2.1480
11592SOL     OW47248   8.167   3.849   3.553  0.2844  0.2126 -0.1143
11592SOL    HW147249   8.145   3.824   3.648 -1.6924 -1.1670 -0.8987
11592SOL    HW247250   8.265   3.842   3.539  0.5372 -0.0999  1.6908
11593SOL     OW47251   0.993   4.128   7.015 -0.2399  0.0566 -0.2538
11593SOL    HW147252   1.044   4.205   6.977 -1.1326 -0.1449 -1.9097
11593SOL    HW247253   0.994   4.133   7.115 -0.0625  2.0535 -0.3403
11594SOL     OW47254   0.662   7.667   1.912  0.2686 -0.0883  0.4075
11594SOL    HW147255   0.574   7.629   1.884 -0.9416  3.2533 -0.5415
11594SOL    HW247256   0.663   7.679   2.011  0.4177 -1.9269  0.6388
11595SOL     OW47257   5.174   5.677   4.047 -0.3463 -0.0100  0.0506
11595SOL    HW147258   5.146   5.743   3.977 -1.9137 -1.1867 -0.4768
11595SOL    HW247259   5.152   5.584   4.015 -0.0386 -0.6415  1.6305
11596SOL     OW47260   1.876   0.864   0.080 -0.1973  0.6324 -0.1596
11596SOL    HW147261   1.931   0.838   0.000 -0.2301 -0.8313  0.2729
11596SOL    HW247262   1.934   0.863   0.162 -0.4663  0.8457  0.0336
11597SOL     OW47263   2.535   3.574   6.629 -0.0967 -0.5050  0.0588
11597SOL    HW147264   2.446   3.554   6.671 -0.3612  1.0005  0.2370
11597SOL    HW247265   2.526   3.567   6.529 -1.1925  2.4327 -0.1152
11598SOL     OW47266   8.894   0.569   5.760 -0.0047  0.1955  0.0369
11598SOL    HW147267   8.938   0.638   5.703 -2.0377  1.1346 -0.4419
11598SOL    HW247268   8.868   0.491   5.702  0.2445  0.0259  0.1548
11599SOL     OW47269   4.762   7.885   5.132 -0.9928 -0.4414 -0.5569
11599SOL    HW147270   4.840   7.823   5.137 -0.1974  0.4651 -1.4654
11599SOL    HW247271   4.737   7.916   5.224 -0.6415 -1.1595 -0.2160
11600SOL     OW47272   3.991   4.421   1.467 -0.6905 -0.2351 -0.9863
11600SOL    HW147273   4.088   4.411   1.489 -0.2848  0.5625 -2.4011
11600SOL    HW247274   3.974   4.390   1.374 -1.9771 -1.2744 -0.4256
11601SOL     OW47275   3.631   6.305   0.129 -0.1013  0.6537  0.6957
11601SOL    HW147276   3.696   6.337   0.198  0.1771  0.0134  0.7311
11601SOL    HW247277   3.655   6.346   0.041 -0.2699  1.2258  0.9133
11602SOL     OW47278   3.414   3.284   5.905  0.1157 -0.2926 -0.5727
11602SOL    HW147279   3.432   3.240   5.993  1.1991  0.5296 -0.3615
11602SOL    HW247280   3.419   3.216   5.832 -1.5208 -1.1109  0.0702
11603SOL     OW47281   4.766   5.594   7.897  0.0552  0.3615 -0.5008
11603SOL    HW147282   4.837   5.640   7.951  0.2302 -0.8326  0.3063
11603SOL    HW247283   4.676   5.623   7.928  0.1752  1.5753 -1.2556
11604SOL     OW47284   0.094   1.848   0.318 -0.1834  0.1907  0.2260
11604SOL    HW147285   0.180   1.851   0.368  0.5857  0.7474 -1.0897
11604SOL    HW247286   0.026   1.904   0.365  0.1717 -0.2536  1.2698
11605SOL     OW47287   1.994   2.508   8.737  0.5777  0.1134 -0.5439
11605SOL    HW147288   1.931   2.585   8.749  0.4996  0.5427 -3.4366
11605SOL    HW247289   1.947   2.423   8.763 -0.6404  0.6029 -1.1098
11606SOL     OW47290   4.034   1.840   8.295  0.1445  0.7020  0.0317
11606SOL    HW147291   3.986   1.753   8.299  2.1906 -0.5946 -2.2223
11606SOL    HW247292   4.119   1.835   8.346  0.7573  1.0330 -0.9294
11607SOL     OW47293   5.855   0.620   7.318  0.6076 -0.0922 -0.0968
11607SOL    HW147294   5.863   0.715   7.289  2.8888 -0.0062  0.7481
11607SOL    HW247295   5.863   0.615   7.418  1.1639 -1.2345 -0.1928
11608SOL     OW47296   7.222   0.585   8.891  0.0020  0.1341  0.4788
11608SOL    HW147297   7.279   0.511   8.856 -0.0425 -0.1682  1.0428
11608SOL    HW247298   7.193   0.564   8.985 -2.7091 -0.6585 -0.5072
11609SOL     OW47299   5.479   7.761   0.036  0.4355  0.5347  0.2711
11609SOL    HW147300   5.541   7.714   0.099  0.9115 -0.2328 -0.7650
11609SOL    HW247301   5.387   7.723   0.047  0.4145  0.7318  0.8313
11610SOL     OW47302   4.509   4.349   4.820  0.5936 -0.2311  0.6406
11610SOL    HW147303   4.422   4.311   4.853 -0.6983  0.0407 -2.3206
11610SOL    HW247304   4.565   4.275   4.783  1.2175 -0.2691  1.6551
11611SOL     OW47305   6.245   2.492   1.251  0.3666 -0.2786  0.4291
11611SOL    HW147306   6.180   2.450   1.187  1.0670  0.3726 -0.7147
11611SOL    HW247307   6.231   2.591   1.253  1.6283 -0.0828 -0.1723
11612SOL     OW47308   7.981   1.143   3.185  0.3236 -0.4918  0.5510
11612SOL    HW147309   8.032   1.224   3.215 -0.5196  0.4802 -0.5850
11612SOL    HW247310   7.883   1.160   3.195  0.1858 -2.1591  2.2521
11613SOL     OW47311   0.362   6.009   7.187  0.2060 -0.4971  0.5305
11613SOL    HW147312   0.435   6.033   7.251  0.3441 -1.7663  0.8723
11613SOL    HW247313   0.291   5.957   7.235 -0.9269  0.7025  0.1960
11614SOL     OW47314   7.657   5.327   8.766 -0.4351 -0.4419  0.5494
11614SOL    HW147315   7.562   5.300   8.780 -0.9935  0.0997 -1.9681
11614SOL    HW247316   7.660   5.415   8.720  1.2855 -0.8581 -0.1746
11615SOL     OW47317   5.441   6.388   5.776  0.5651 -0.1573  0.3518
11615SOL    HW147318   5.488   6.452   5.716 -0.0303  0.0657  0.1216
11615SOL    HW247319   5.361   6.349   5.729 -0.4642  0.7371  1.3166
11616SOL     OW47320   0.963   3.753   8.685  0.2180 -0.3897 -0.1414
11616SOL    HW147321   1.031   3.686   8.657 -0.8070 -2.3530  1.8767
11616SOL    HW247322   0.908   3.715   8.760 -1.4906  2.0724 -0.0915
11617SOL     OW47323   5.364   6.014   1.312 -0.5027  0.6285 -0.2710
11617SOL    HW147324   5.358   6.009   1.412  0.5622  1.1083 -0.1645
11617SOL    HW247325   5.385   6.108   1.286 -2.2820  0.8220 -1.0484
11618SOL     OW47326   4.216   7.273   4.896 -0.3935  0.1631  0.0875
11618SOL    HW147327   4.282   7.348   4.908  0.5424 -0.9823  2.6759
11618SOL    HW247328   4.254   7.204   4.834 -0.7862  1.2846 -1.4199
11619SOL     OW47329   6.340   2.943   2.404  0.4217 -0.1797  0.1115
11619SOL    HW147330   6.342   2.946   2.304  0.9194  0.6835  0.1472
11619SOL    HW247331   6.259   2.891   2.434 -0.1828  0.2642 -0.7283
11620SOL     OW47332   2.077   6.910   0.474 -0.7208 -0.0770  0.1305
11620SOL    HW147333   2.032   6.998   0.487 -0.3755  0.2809 -0.9800
11620SOL    HW247334   2.056   6.849   0.551  0.3333  1.5217  1.7329
11621SOL     OW47335   5.210   3.743   5.092  0.0718 -0.1406 -0.6415
11621SOL    HW147336   5.263   3.751   5.176 -1.7081  2.2616  0.3057
11621SOL    HW247337   5.271   3.744   5.013  1.8477 -3.5269  0.6180
11622SOL     OW47338   7.959   7.305   6.041 -0.4742  0.0164 -0.1105
11622SOL    HW147339   8.006   7.367   6.103 -1.9761  1.5080 -0.4035
11622SOL    HW247340   7.892   7.251   6.092  0.7256 -1.2847  0.1188
11623SOL     OW47341   5.041   0.154   2.244  0.0650  0.3470  0.3783
11623SOL    HW147342   5.007   0.248   2.244 -0.8348  0.0237  0.4895
11623SOL    HW247343   5.133   0.152   2.284 -0.2769  1.0385  1.2110
11624SOL     OW47344   5.289   2.475   0.133  0.0515 -0.2903 -0.0237
11624SOL    HW147345   5.368   2.462   0.193  0.8006  0.6983 -0.7739
11624SOL    HW247346   5.321   2.491   0.040 -1.0767 -0.8489 -0.5144
11625SOL     OW47347   6.516   3.306   0.592 -0.0918 -0.2646 -0.4607
11625SOL    HW147348   6.427   3.264   0.609  0.4383 -2.2348 -2.2939
11625SOL    HW247349   6.558   3.333   0.679 -1.9151 -0.4955  0.5032
11626SOL     OW47350   1.641   4.449   8.066  0.0561 -0.1558 -0.2763
11626SOL    HW147351   1.702   4.484   7.995 -0.2297 -1.4276 -1.1729
11626SOL    HW247352   1.674   4.478   8.156  1.3280  0.1373 -0.8273
11627SOL     OW47353   6.507   6.189   4.176  0.3619  0.7044 -0.4355
11627SOL    HW147354   6.502   6.201   4.276  0.0772 -1.4821 -0.1579
11627SOL    HW247355   6.451   6.258   4.132 -2.5834 -0.5964  1.1093
11628SOL     OW47356   0.711   3.178   1.334 -0.3214 -0.2915  0.1624
11628SOL    HW147357   0.727   3.090   1.377 -2.6733 -0.8195  0.0490
11628SOL    HW247358   0.662   3.165   1.248 -2.2769  1.2018  1.0067
11629SOL     OW47359   3.943   4.600   7.052 -0.4222  0.2938  0.1247
11629SOL    HW147360   3.954   4.553   7.139  1.4569  1.0054  0.2897
11629SOL    HW247361   3.976   4.694   7.060  0.9931 -0.0181 -1.7010
11630SOL     OW47362   8.575   5.082   4.056  0.7650 -0.7872  0.3713
11630SOL    HW147363   8.527   5.160   4.017  1.1834 -0.0629  1.3097
11630SOL    HW247364   8.659   5.065   4.004  0.3121 -1.0675 -0.2770
11631SOL     OW47365   0.587   4.738   6.541  0.2542  0.1169 -0.6794
11631SOL    HW147366   0.574   4.802   6.465  1.3094 -0.7780 -1.6281
11631SOL    HW247367   0.685   4.724   6.555  0.0305 -0.8888 -0.1203
11632SOL     OW47368   5.515   7.274   6.369 -0.1235 -0.0607  0.2663
11632SOL    HW147369   5.498   7.209   6.443 -0.7640 -1.0360 -0.7239
11632SOL    HW247370   5.515   7.367   6.406  0.0507 -0.5688  1.5725
11633SOL     OW47371   7.844   5.018   2.074 -0.1709  0.3141  0.2155
11633SOL    HW147372   7.911   5.084   2.108 -1.6007  0.8473  2.0594
11633SOL    HW247373   7.778   5.064   2.015  1.4106 -0.3266 -2.1085
11634SOL     OW47374   4.254   2.086   2.379 -1.0920 -0.2021  0.3932
11634SOL    HW147375   4.302   2.159   2.428 -1.1505 -0.3430  0.6654
11634SOL    HW247376   4.165   2.119   2.347 -0.8802  0.0111  0.0332
11635SOL     OW47377   7.043   2.679   6.650 -0.7680  0.2423  0.1836
11635SOL    HW147378   6.977   2.613   6.686  0.2664 -1.1256 -0.3915
11635SOL    HW247379   7.014   2.772   6.674 -2.3663 -0.3980  0.7900
11636SOL     OW47380   2.261   3.071   6.358 -0.6206  0.3065  0.1065
11636SOL    HW147381   2.216   3.154   6.325  0.9796  0.5873 -1.4795
11636SOL    HW247382   2.275   3.077   6.456 -0.4809  1.9530 -0.0011
11637SOL     OW47383   0.332   3.506   6.050 -0.1648 -0.3395 -0.1182
11637SOL    HW147384   0.321   3.463   6.139  0.2288 -0.1161  0.0379
11637SOL    HW247385   0.273   3.587   6.044  0.6888  0.3294  0.3824
11638SOL     OW47386   0.289   3.751   2.109  0.4455 -0.1307 -0.4473
11638SOL    HW147387   0.248   3.700   2.184  1.1833  0.0693  0.1039
11638SOL    HW247388   0.217   3.790   2.052 -0.1257 -0.0045  0.3454
11639SOL     OW47389   6.074   3.058   2.690  0.2650  0.1366  0.0255
11639SOL    HW147390   6.039   3.123   2.757 -1.0661 -1.1039  0.5717
11639SOL    HW247391   6.133   3.105   2.624 -2.0684  2.1856 -0.6478
11640SOL     OW47392   4.860   1.363   3.194  0.1724  1.0692 -0.6559
11640SOL    HW147393   4.765   1.344   3.217  0.8600  1.8925  3.1634
11640SOL    HW247394   4.867   1.457   3.158 -0.3794  1.1835 -0.4706
11641SOL     OW47395   5.190   8.832   0.341 -0.0403  0.1185 -0.0306
11641SOL    HW147396   5.142   8.801   0.423  1.3004  0.0608  0.7532
11641SOL    HW247397   5.125   8.873   0.277 -1.3480 -1.3929  0.3210
11642SOL     OW47398   7.272   2.862   3.404 -0.4058  0.3314 -0.0691
11642SOL    HW147399   7.237   2.955   3.399 -1.3689  0.0507  1.1903
11642SOL    HW247400   7.366   2.864   3.438  0.1146  0.9466 -1.5254
11643SOL     OW47401   2.185   1.450   2.344 -0.3292 -0.2438 -0.1239
11643SOL    HW147402   2.123   1.374   2.367  1.4019 -1.6621 -0.0767
11643SOL    HW247403   2.132   1.535   2.337 -2.2901 -1.4451 -0.1707
11644SOL     OW47404   7.095   2.642   2.777  0.0778  0.6552 -0.2334
11644SOL    HW147405   7.178   2.605   2.818  1.3800  0.8404 -2.6122
11644SOL    HW247406   7.016   2.586   2.803  1.1835 -0.4283  0.7884
11645SOL     OW47407   4.029   3.694   2.480 -0.9078 -0.3387  0.2240
11645SOL    HW147408   4.094   3.620   2.500  0.9134  0.7906 -1.3670
11645SOL    HW247409   3.959   3.660   2.417 -0.6890 -1.0219  0.3452
11646SOL     OW47410   6.815   5.722   0.562 -0.2592 -0.6831 -0.4575
11646SOL    HW147411   6.845   5.639   0.513 -1.0019 -1.4766  0.4086
11646SOL    HW247412   6.736   5.762   0.515 -1.1411 -1.5970  0.2107
11647SOL     OW47413   0.893   5.451   6.468  0.5479  0.1315  0.0048
11647SOL    HW147414   0.913   5.382   6.538 -1.0969 -1.2193 -0.8140
11647SOL    HW247415   0.817   5.420   6.412  0.9647  1.8267 -1.5405
11648SOL     OW47416   3.187   7.183   5.729  0.2204  0.0853 -0.0397
11648SOL    HW147417   3.173   7.189   5.828  1.5443 -0.8756  0.2169
11648SOL    HW247418   3.284   7.170   5.710 -0.3400 -2.3568 -1.3507
11649SOL     OW47419   3.884   6.871   6.705  0.2914 -0.4571  0.5323
11649SOL    HW147420   3.870   6.886   6.803 -0.0723  0.4037  0.3540
11649SOL    HW247421   3.976   6.898   6.679 -0.5387  2.1267  0.1050
11650SOL     OW47422   5.582   5.170   5.819 -0.6282 -0.2528  0.3568
11650SOL    HW147423   5.582   5.200   5.914  0.7427  0.1109  0.2606
11650SOL    HW247424   5.636   5.234   5.764  0.2089 -1.4964 -0.2966
11651SOL     OW47425   1.526   2.939   0.792  0.1577  0.0255 -0.6193
11651SOL    HW147426   1.468   2.984   0.859  0.2365 -0.5216 -0.1761
11651SOL    HW247427   1.622   2.959   0.812  0.2434 -0.9984  0.0897
11652SOL     OW47428   8.523   2.033   5.814 -0.8891  0.6634  0.0822
11652SOL    HW147429   8.617   2.042   5.782 -0.1855 -1.9899  1.2474
11652SOL    HW247430   8.494   2.118   5.858  0.6228  1.7995 -1.0507
11653SOL     OW47431   7.757   5.698   6.487 -0.0203 -0.1976  0.5152
11653SOL    HW147432   7.669   5.693   6.438 -0.5597  3.7379  0.8814
11653SOL    HW247433   7.828   5.725   6.422  0.3681 -0.5697  0.7905
11654SOL     OW47434   5.291   5.547   5.421  0.0225  0.1111 -0.0875
11654SOL    HW147435   5.297   5.615   5.494  0.4148 -0.2448  0.2187
11654SOL    HW247436   5.213   5.486   5.438  1.3001 -1.2356  1.1517
11655SOL     OW47437   3.593   1.985   1.304 -0.4720 -0.6112 -0.9637
11655SOL    HW147438   3.571   2.082   1.294  0.4742 -0.4362 -1.3885
11655SOL    HW247439   3.675   1.964   1.252  0.4686 -1.2141  0.7210
11656SOL     OW47440   5.917   3.773   6.129 -0.8489  0.5082 -0.2723
11656SOL    HW147441   5.862   3.736   6.204  0.6718 -3.2542 -0.8565
11656SOL    HW247442   6.005   3.805   6.165 -0.9204  0.5930 -0.1734
11657SOL     OW47443   6.896   7.940   1.546  0.2321 -0.4690 -0.3535
11657SOL    HW147444   6.927   7.892   1.628  1.4384  0.7548 -0.0648
11657SOL    HW247445   6.815   7.894   1.508  0.1305 -1.4931  1.0725
11658SOL     OW47446   7.787   5.131   4.444 -0.3194 -0.2712 -0.1038
11658SOL    HW147447   7.870   5.104   4.494  0.0991  0.1691 -0.5542
11658SOL    HW247448   7.812   5.162   4.352 -0.8669  0.9904  0.1647
11659SOL     OW47449   1.489   8.084   2.931  0.3233  0.0096 -0.4968
11659SOL    HW147450   1.531   8.096   3.021 -0.6764 -0.5529  0.0444
11659SOL    HW247451   1.553   8.117   2.860  1.4120 -0.2409  0.3545
11660SOL     OW47452   5.764   8.825   4.904  0.0093  0.2779 -0.3180
11660SOL    HW147453   5.743   8.854   4.997  0.1402  0.2187 -0.2711
11660SOL    HW247454   5.768   8.725   4.900  0.8002  0.3024 -0.2150
11661SOL     OW47455   4.219   0.998   6.589 -0.2954 -0.1666 -0.0691
11661SOL    HW147456   4.123   0.977   6.571 -0.9021  2.1375  0.3007
11661SOL    HW247457   4.268   1.006   6.503 -0.7416 -0.0556 -0.3163
11662SOL     OW47458   8.813   4.018   0.861 -0.3981 -0.3170 -0.3407
11662SOL    HW147459   8.747   4.063   0.801 -0.6214  0.4772  0.4878
11662SOL    HW247460   8.860   4.087   0.916  2.3888 -0.7077 -2.1636
11663SOL     OW47461   3.853   0.873   0.936 -0.0405 -0.3094  0.1143
11663SOL    HW147462   3.871   0.775   0.941  0.1188 -0.2775  0.1424
11663SOL    HW247463   3.762   0.888   0.895  0.2114 -0.4436 -0.4945
11664SOL     OW47464   3.451   4.152   8.467 -1.1833 -0.0304 -0.1689
11664SOL    HW147465   3.486   4.203   8.545  0.9300 -1.2005 -0.2944
11664SOL    HW247466   3.417   4.215   8.397  0.3037  1.1431  0.1569
11665SOL     OW47467   7.970   5.633   5.222 -0.2047  0.4523 -0.1618
11665SOL    HW147468   7.996   5.537   5.219 -2.0245 -0.0798  0.6407
11665SOL    HW247469   8.031   5.683   5.284  0.0495 -0.3885  0.2614
11666SOL     OW47470   0.050   4.834   0.972  0.0650 -0.5777  0.4617
11666SOL    HW147471   0.099   4.800   1.052  0.6017  0.9305  0.7898
11666SOL    HW247472  -0.029   4.888   1.001  0.3180  0.0605 -0.0185
11667SOL     OW47473   2.094   8.031   2.161  0.5880  0.0321  0.3183
11667SOL    HW147474   2.121   8.125   2.179 -2.7365  1.3474 -1.2333
11667SOL    HW247475   2.152   7.993   2.089  2.4719  0.5466  1.5016
11668SOL     OW47476   4.776   1.669   0.346  0.0587  0.5134  0.2543
11668SOL    HW147477   4.703   1.736   0.342 -0.6343 -0.2489 -0.1502
11668SOL    HW247478   4.826   1.670   0.259 -0.6077 -0.2109 -0.1410
11669SOL     OW47479   3.832   6.023   3.450  0.0805 -0.4738 -0.5539
11669SOL    HW147480   3.875   6.110   3.472 -0.7275  0.0392 -0.9794
11669SOL    HW247481   3.733   6.033   3.453 -0.0201 -1.4581 -0.3062
11670SOL     OW47482   5.962   3.945   6.768  0.5168 -0.3607  0.2177
11670SOL    HW147483   5.982   3.923   6.672  0.8466  2.6025 -0.4515
11670SOL    HW247484   5.867   3.923   6.789  0.0117  0.3880 -1.2459
11671SOL     OW47485   7.763   6.939   6.411 -0.0151 -0.1164 -0.2202
11671SOL    HW147486   7.737   6.843   6.405  3.2335 -1.0854  0.0151
11671SOL    HW247487   7.728   6.978   6.496 -0.6394 -1.3370  0.0860
11672SOL     OW47488   3.890   6.888   7.445 -0.0365 -0.9099  0.0509
11672SOL    HW147489   3.818   6.935   7.393  1.0481  0.6105 -0.1258
11672SOL    HW247490   3.861   6.795   7.467 -2.1000 -0.2636  0.1054
11673SOL     OW47491   7.137   0.832   8.845 -0.1020 -0.5428 -0.2638
11673SOL    HW147492   7.164   0.744   8.884 -0.9508 -0.6852  0.0260
11673SOL    HW247493   7.174   0.841   8.752  0.0429 -1.1780 -0.2643
11674SOL     OW47494   0.847   5.667   7.489  0.1193 -0.3127  0.4550
11674SOL    HW147495   0.939   5.644   7.458  0.2886 -1.3339  1.6343
11674SOL    HW247496   0.821   5.604   7.563 -0.7316  1.2580  1.5105
11675SOL     OW47497   4.814   1.659   1.724  0.0030 -0.3973 -0.4297
11675SOL    HW147498   4.791   1.734   1.786 -0.3098 -2.6816  2.3084
11675SOL    HW247499   4.904   1.622   1.747  1.2947  0.6931 -3.3912
11676SOL     OW47500   2.397   5.315   8.458  0.0660  0.1991  0.3137
11676SOL    HW147501   2.377   5.322   8.556 -0.9225  0.4043  0.1024
11676SOL    HW247502   2.332   5.252   8.415  0.6378 -0.0634 -0.1737
11677SOL     OW47503   4.854   5.043   8.819 -0.0892  0.5339  0.2134
11677SOL    HW147504   4.946   5.055   8.780 -0.2885  0.9020 -0.1444
11677SOL    HW247505   4.847   4.952   8.859  0.3485  0.4039  0.0028
11678SOL     OW47506   2.280   0.389   1.849  0.5313 -0.6424  0.0122
11678SOL    HW147507   2.244   0.469   1.801  2.1515 -0.0385 -0.2206
11678SOL    HW247508   2.244   0.387   1.942 -0.4655 -0.3200 -0.3542
11679SOL     OW47509   7.650   0.476   0.126  0.2792 -0.4642  0.0150
11679SOL    HW147510   7.618   0.448   0.036  2.3933  0.3739 -1.0286
11679SOL    HW247511   7.739   0.520   0.118  0.2490  0.1373  2.4555
11680SOL     OW47512   6.823   5.880   1.761  0.0836  0.0961  0.2282
11680SOL    HW147513   6.871   5.922   1.684  0.6644  0.7611  0.9382
11680SOL    HW247514   6.835   5.937   1.843 -0.8894 -0.3705  0.7076
11681SOL     OW47515   4.970   6.059   8.702  0.5909 -0.4735  0.0449
11681SOL    HW147516   4.888   6.099   8.662  2.6539  1.4164 -2.4767
11681SOL    HW247517   4.981   6.093   8.796 -1.3974 -0.6252  0.3550
11682SOL     OW47518   3.269   6.993   5.432  0.0536 -0.6768  0.0912
11682SOL    HW147519   3.201   7.007   5.504 -0.1150 -0.1061 -0.1771
11682SOL    HW247520   3.268   6.897   5.403 -0.2129 -0.8009  0.5120
11683SOL     OW47521   5.822   5.577   2.929 -0.0274  0.5867  0.1591
11683SOL    HW147522   5.847   5.662   2.883 -0.3229 -0.0596 -1.2060
11683SOL    HW247523   5.852   5.499   2.875  1.5194 -0.2098  2.1103
11684SOL     OW47524   5.834   1.830   8.291  0.2131 -0.0789 -0.6124
11684SOL    HW147525   5.766   1.775   8.242 -1.1908 -0.3911  1.6077
11684SOL    HW247526   5.790   1.876   8.368  1.9539  2.0290 -0.8411
11685SOL     OW47527   7.737   3.350   1.321  0.4142 -0.1949 -0.5013
11685SOL    HW147528   7.748   3.256   1.291  0.6636 -0.3496  0.0721
11685SOL    HW247529   7.666   3.395   1.266 -0.1912 -0.9118 -0.3008
11686SOL     OW47530   3.069   1.219   8.238 -0.0648  0.3945 -0.5810
11686SOL    HW147531   3.116   1.283   8.177  0.4884  2.2032  1.6906
11686SOL    HW247532   3.136   1.164   8.288 -0.4761  0.0225 -0.4337
11687SOL     OW47533   7.920   4.727   4.974 -0.1514  0.3293  0.0735
11687SOL    HW147534   7.913   4.814   4.926 -0.6746  0.2743  0.0383
11687SOL    HW247535   7.829   4.686   4.980  0.1735 -0.4685 -0.3875
11688SOL     OW47536   0.493   4.942   6.360 -0.1244  0.7458  1.0658
11688SOL    HW147537   0.476   4.864   6.299  0.3825  2.4830 -1.3474
11688SOL    HW247538   0.407   4.969   6.404 -1.1794  1.5323 -1.4064
11689SOL     OW47539   4.794   8.928   0.916  0.0714 -0.9488  0.2049
11689SOL    HW147540   4.710   8.979   0.902  1.1596  0.8047  0.0077
11689SOL    HW247541   4.783   8.865   0.993 -0.8198  0.5761  1.3221
11690SOL     OW47542   6.808   3.397   2.319  0.5284  0.0956 -0.3141
11690SOL    HW147543   6.807   3.352   2.229  0.4706 -0.4009 -0.0710
11690SOL    HW247544   6.771   3.334   2.388 -0.8597  1.0165 -0.1965
11691SOL     OW47545   0.520   5.933   5.262  0.1932  0.1526 -0.1362
11691SOL    HW147546   0.593   6.000   5.245  0.6051 -0.5222 -1.0506
11691SOL    HW247547   0.431   5.978   5.251  0.4654  0.5583 -0.7259
11692SOL     OW47548   2.867   5.467   7.015 -0.2661 -0.2470 -0.2698
11692SOL    HW147549   2.918   5.552   7.010  2.1077 -1.7197 -2.1471
11692SOL    HW247550   2.773   5.482   6.984 -0.0500  1.7853  0.0052
11693SOL     OW47551   6.350   2.470   7.034 -0.3509  0.0930 -0.0194
11693SOL    HW147552   6.262   2.434   7.064  0.7294 -0.3185  2.7491
11693SOL    HW247553   6.343   2.569   7.023 -0.8606  0.2011  1.2400
11694SOL     OW47554   6.641   7.820   1.486  0.0754  0.1570  0.1938
11694SOL    HW147555   6.586   7.816   1.402  0.5748 -1.4493 -0.0827
11694SOL    HW247556   6.583   7.849   1.562 -0.7692  0.0704 -0.4092
11695SOL     OW47557   4.888   4.731   8.877  0.7520  0.0714  0.0786
11695SOL    HW147558   4.924   4.764   8.964  0.8490 -0.5986  0.2991
11695SOL    HW247559   4.791   4.709   8.887  0.5784  0.6993 -0.1853
11696SOL     OW47560   4.422   8.462   0.008 -0.1580  0.3390  0.0165
11696SOL    HW147561   4.510   8.504  -0.014 -0.4601  0.4938 -0.9254
11696SOL    HW247562   4.384   8.419  -0.074 -0.4195 -0.7353  0.6877
11697SOL     OW47563   4.752   7.395   8.430  0.0515  0.0641 -0.3091
11697SOL    HW147564   4.824   7.342   8.476  0.3374 -0.3751 -1.2437
11697SOL    HW247565   4.671   7.338   8.418 -0.0865  0.2344 -0.1844
11698SOL     OW47566   0.414   2.883   7.974  0.0216  0.3093  0.4108
11698SOL    HW147567   0.318   2.880   7.944  0.3516 -0.7301 -0.5779
11698SOL    HW247568   0.425   2.954   8.044 -0.8284  2.5996 -1.7122
11699SOL     OW47569   7.631   1.602   8.188  0.7048  0.4064  0.2675
11699SOL    HW147570   7.650   1.532   8.119 -1.9087  2.3408 -2.5457
11699SOL    HW247571   7.609   1.557   8.275 -1.3236 -2.3530 -1.5610
11700SOL     OW47572   1.660   4.345   0.303  0.6280  0.3597  0.3249
11700SOL    HW147573   1.600   4.287   0.358 -0.0758  0.4210 -0.3545
11700SOL    HW247574   1.610   4.427   0.274  0.4799 -0.3930 -1.6631
11701SOL     OW47575   3.916   6.521   0.045  0.0200  0.1503  0.0761
11701SOL    HW147576   3.827   6.500   0.004 -1.6086 -0.4066  3.6464
11701SOL    HW247577   3.980   6.448   0.024 -1.2403 -0.9325 -0.1015
11702SOL     OW47578   7.458   4.038   8.877 -0.0170 -0.0394 -0.1889
11702SOL    HW147579   7.471   3.991   8.789 -1.4504 -1.5522  0.3795
11702SOL    HW247580   7.545   4.041   8.926  1.1246  2.0473 -2.2191
11703SOL     OW47581   8.847   4.485   1.484 -0.0879 -0.2083  0.8147
11703SOL    HW147582   8.829   4.580   1.508 -2.0102 -0.2893 -0.1784
11703SOL    HW247583   8.932   4.455   1.527 -0.3050  1.4591  2.4740
11704SOL     OW47584   1.351   8.487   5.782  0.4713  0.5232 -0.4302
11704SOL    HW147585   1.309   8.405   5.820 -0.7571  1.2740 -0.1386
11704SOL    HW247586   1.367   8.474   5.684  1.2597 -0.4494 -0.1828
11705SOL     OW47587   1.212   8.353   7.896  0.4566 -0.3950 -0.4905
11705SOL    HW147588   1.302   8.390   7.875 -1.0296  2.8970 -1.5680
11705SOL    HW247589   1.154   8.359   7.814 -1.3916 -0.3086  0.7874
11706SOL     OW47590   5.824   7.593   1.203  0.3278 -0.1303 -0.2591
11706SOL    HW147591   5.835   7.496   1.227 -2.0658 -0.1966  0.6997
11706SOL    HW247592   5.731   7.609   1.170  0.8596  1.7483 -0.9106
11707SOL     OW47593   7.022   6.891   7.473  0.1360  0.2181 -0.2178
11707SOL    HW147594   7.029   6.803   7.519 -2.9270 -0.4371 -0.9584
11707SOL    HW247595   7.002   6.877   7.376 -0.2600  1.7421 -0.3673
11708SOL     OW47596   3.406   6.624   8.137  0.1941 -0.2914  0.2141
11708SOL    HW147597   3.318   6.667   8.158  0.5233 -0.0647  1.1365
11708SOL    HW247598   3.471   6.693   8.106  0.6140 -0.1706  1.3483
11709SOL     OW47599   4.897   8.364   7.731 -0.0190  0.3682 -0.3415
11709SOL    HW147600   4.864   8.459   7.722 -0.7246  0.1072 -0.5484
11709SOL    HW247601   4.907   8.341   7.827 -1.5097  0.0972 -0.2344
11710SOL     OW47602   0.682   7.527   5.591  0.1489  0.7740  0.0309
11710SOL    HW147603   0.708   7.623   5.604  1.6919  0.1223  1.9466
11710SOL    HW247604   0.607   7.522   5.525 -0.4196  3.3498  0.4179
11711SOL     OW47605   7.335   5.768   2.317 -0.0638 -0.0627 -0.2592
11711SOL    HW147606   7.360   5.780   2.222 -1.5559  1.3320 -0.5033
11711SOL    HW247607   7.352   5.852   2.368 -0.5345 -0.3621  0.4124
11712SOL     OW47608   4.921   6.267   5.153  0.1418  0.4855 -0.0585
11712SOL    HW147609   4.868   6.221   5.225  1.4778  1.8398  1.8526
11712SOL    HW247610   4.997   6.209   5.125 -0.0099  0.2211  0.0816
11713SOL     OW47611   3.495   5.724   4.461  0.0991 -0.0863 -0.2314
11713SOL    HW147612   3.592   5.703   4.473  0.5803  1.8766 -0.5273
11713SOL    HW247613   3.471   5.802   4.518 -1.7502 -1.6270  1.1792
11714SOL     OW47614   6.984   5.958   3.463 -0.0557  0.2658  0.3540
11714SOL    HW147615   6.940   5.978   3.551  0.7212  0.3525  0.7295
11714SOL    HW247616   7.050   5.885   3.475 -1.0141 -0.7572 -0.4822
11715SOL     OW47617   7.571   3.594   0.172  0.7978  0.5484 -0.4271
11715SOL    HW147618   7.547   3.501   0.199 -0.3897  1.0187  0.2097
11715SOL    HW247619   7.645   3.592   0.105  0.9898 -0.8320 -0.1828
11716SOL     OW47620   2.336   5.726   4.785  0.2339 -0.3243 -0.1440
11716SOL    HW147621   2.284   5.642   4.800  0.1749 -0.2314  0.1813
11716SOL    HW247622   2.342   5.777   4.871 -0.9886  0.7110 -0.6536
11717SOL     OW47623   8.149   7.575   0.817  0.4170  0.1815 -0.4288
11717SOL    HW147624   8.120   7.635   0.742 -2.3093  1.3120  1.4621
11717SOL    HW247625   8.150   7.627   0.902  2.2429 -1.4207  0.5765
11718SOL     OW47626   8.372   0.031   1.195  0.0188  1.1193 -0.5514
11718SOL    HW147627   8.276   0.008   1.210  0.0465  1.2353 -0.1937
11718SOL    HW247628   8.380   0.122   1.155 -0.0896  0.5274 -1.9545
11719SOL     OW47629   7.274   6.926   2.658  0.6731  0.2825  0.5387
11719SOL    HW147630   7.351   6.881   2.614 -0.2062  0.6877 -1.5024
11719SOL    HW247631   7.305   6.978   2.737  2.3991  0.0542  0.0161
11720SOL     OW47632   6.455   3.188   8.958  0.2032  0.1679 -0.1207
11720SOL    HW147633   6.509   3.270   8.981  0.9376 -0.2562 -0.3122
11720SOL    HW247634   6.515   3.108   8.956 -0.5307 -0.3946  0.1521
11721SOL     OW47635   2.109   6.147   1.755  0.5807  0.4067 -0.5910
11721SOL    HW147636   2.114   6.193   1.667  0.2606  1.2149 -0.2005
11721SOL    HW247637   2.094   6.215   1.827 -0.3595 -0.3474 -0.0487
11722SOL     OW47638   0.508   5.847   7.867  0.5916  0.4935  0.1193
11722SOL    HW147639   0.440   5.833   7.794  0.3140  1.0263  0.2738
11722SOL    HW247640   0.462   5.882   7.949  0.6650 -1.5941  1.0636
11723SOL     OW47641   5.714   0.064   7.047 -0.9073 -0.1231 -0.0857
11723SOL    HW147642   5.804   0.101   7.072 -1.8430  2.1590  0.0188
11723SOL    HW247643   5.726  -0.015   6.986  1.1498  0.3335 -0.3103
11724SOL     OW47644   0.662   3.544   2.625 -0.0987  0.9817 -0.0652
11724SOL    HW147645   0.568   3.529   2.596  0.1470 -1.8928  0.4775
11724SOL    HW247646   0.724   3.533   2.547  0.0064  0.0900  0.1409
11725SOL     OW47647   8.479   4.224   3.133  0.6410  0.3247  0.1881
11725SOL    HW147648   8.576   4.231   3.110  0.4184 -0.4509 -1.0033
11725SOL    HW247649   8.439   4.316   3.136  1.4333  0.6567  0.8406
11726SOL     OW47650   6.003   2.539   6.310 -0.0771  0.1410 -0.0791
11726SOL    HW147651   5.914   2.518   6.350 -0.3005 -0.0760 -0.6811
11726SOL    HW247652   5.990   2.584   6.221  0.4109  0.2962 -0.0751
11727SOL     OW47653   7.477   2.126   0.752 -0.6852 -0.1902 -0.6104
11727SOL    HW147654   7.548   2.196   0.757 -0.4251 -0.5223  0.5547
11727SOL    HW247655   7.395   2.159   0.798 -1.1277  0.0055 -1.5360
11728SOL     OW47656   4.634   7.751   7.000 -0.0540 -0.6720  0.3213
11728SOL    HW147657   4.705   7.750   7.070  0.2013 -2.0818  0.0677
11728SOL    HW247658   4.564   7.817   7.024  1.0337  0.2887  0.8887
11729SOL     OW47659   5.625   1.007   8.908  0.1848 -0.1881 -0.1965
11729SOL    HW147660   5.717   0.976   8.883  0.0910 -0.5591 -0.0880
11729SOL    HW247661   5.616   1.006   9.008  0.2243  0.3142 -0.1867
11730SOL     OW47662   5.133   0.521   8.141  0.2870  0.2928 -0.3550
11730SOL    HW147663   5.183   0.462   8.078  1.1451 -0.3331  0.8742
11730SOL    HW247664   5.035   0.510   8.128  0.4320  1.2514 -2.5493
11731SOL     OW47665   0.427   7.894   6.530  0.1961  0.0175  0.2598
11731SOL    HW147666   0.373   7.941   6.460  0.1542  0.9342  0.8883
11731SOL    HW247667   0.476   7.963   6.585  2.4257 -0.7922 -0.6388
11732SOL     OW47668   0.410   3.599   8.518 -0.3838  0.2140 -0.1727
11732SOL    HW147669   0.350   3.605   8.438 -1.6451  2.3846  0.8759
11732SOL    HW247670   0.485   3.666   8.508 -0.5442  0.4883  0.4415
11733SOL     OW47671   6.142   7.890   1.464  0.0914  0.1737  0.3494
11733SOL    HW147672   6.119   7.867   1.369  1.7577 -1.3691  0.2895
11733SOL    HW247673   6.095   7.974   1.490  1.4710  1.9366 -2.6286
11734SOL     OW47674   3.633   5.781   0.726 -0.6939 -0.2411  0.6725
11734SOL    HW147675   3.707   5.721   0.697  0.3000  0.0312  2.5620
11734SOL    HW247676   3.658   5.876   0.706 -1.2851 -0.2635 -0.2292
11735SOL     OW47677   0.986   2.601   6.313  0.1132 -0.1115 -0.4744
11735SOL    HW147678   1.068   2.555   6.279 -1.2039 -1.6301 -1.6793
11735SOL    HW247679   0.979   2.589   6.412  0.4905 -1.3949 -0.5898
11736SOL     OW47680   1.034   7.223   5.445  0.3892  0.1090  0.6332
11736SOL    HW147681   1.055   7.258   5.354  0.0125 -0.6315  0.2602
11736SOL    HW247682   1.115   7.230   5.503  0.6384  0.5462  0.2349
11737SOL     OW47683   4.046   5.385   4.174 -0.1929  0.7698 -0.6275
11737SOL    HW147684   3.999   5.320   4.234  1.1530  0.3435 -0.0105
11737SOL    HW247685   3.992   5.400   4.092 -0.5018 -1.1759 -0.7978
11738SOL     OW47686   7.127   5.925   3.996 -0.1701 -0.1137 -0.8001
11738SOL    HW147687   7.222   5.902   3.975 -0.4423  0.3552 -2.6552
11738SOL    HW247688   7.125   6.006   4.055  0.5869 -0.6477 -0.0221
11739SOL     OW47689   5.407   6.235   3.092 -0.0437 -0.1583 -0.1052
11739SOL    HW147690   5.364   6.322   3.116  1.0452  0.5488 -0.6805
11739SOL    HW247691   5.472   6.209   3.163 -2.5269 -2.0295  1.5616
11740SOL     OW47692   2.988   3.958   6.224 -0.0015  0.2442 -0.1523
11740SOL    HW147693   3.031   4.048   6.218  2.4857 -0.8860  0.0812
11740SOL    HW247694   2.917   3.960   6.294 -0.2826  2.1419 -0.4526
11741SOL     OW47695   5.581   5.154   8.549 -0.3727 -0.2169  0.0698
11741SOL    HW147696   5.545   5.166   8.642  1.8629  3.7389  0.5506
11741SOL    HW247697   5.506   5.159   8.483 -1.6730 -0.5706  1.4850
11742SOL     OW47698   5.210   1.996   1.698  0.4211  0.0678 -0.2007
11742SOL    HW147699   5.211   2.094   1.721  0.3575  0.3564 -1.3940
11742SOL    HW247700   5.289   1.951   1.739 -0.6877  0.1979  2.1384
11743SOL     OW47701   7.544   5.264   4.857  0.1167  0.1639 -0.0155
11743SOL    HW147702   7.627   5.318   4.869 -0.9306  1.7678  0.1720
11743SOL    HW247703   7.488   5.304   4.784  0.4766 -2.1264 -1.6114
11744SOL     OW47704   5.979   1.295   0.598 -0.0187 -0.2596 -0.6247
11744SOL    HW147705   5.959   1.198   0.586 -0.5711 -0.2552  0.2323
11744SOL    HW247706   5.951   1.345   0.516  2.6204 -1.1540 -2.1145
11745SOL     OW47707   8.946   3.725   4.790 -0.1965 -0.0155 -0.0012
11745SOL    HW147708   8.994   3.651   4.743 -0.7824  0.0654 -0.7240
11745SOL    HW247709   8.858   3.742   4.746  0.3381  1.7625 -0.4309
11746SOL     OW47710   1.252   7.820   5.509  0.0678  0.2166  0.1059
11746SOL    HW147711   1.308   7.774   5.439  0.7535 -2.2522  2.1837
11746SOL    HW247712   1.158   7.786   5.504  0.6556 -1.8058  1.8787
11747SOL     OW47713   8.366   7.866   6.662  0.3028 -0.1809 -0.3803
11747SOL    HW147714   8.397   7.781   6.707 -1.1950 -0.0083  1.0282
11747SOL    HW247715   8.266   7.867   6.659  0.3180  1.5208 -0.4369
11748SOL     OW47716   3.917   3.046   4.507  0.0523 -0.2128 -0.5824
11748SOL    HW147717   3.892   2.976   4.574  1.0081  0.6971  0.7504
11748SOL    HW247718   3.962   3.003   4.429  0.2845 -1.1354  0.0567
11749SOL     OW47719   4.730   7.444   2.487 -0.2707  0.3701  0.0042
11749SOL    HW147720   4.751   7.350   2.459  1.1519  0.3350  1.1598
11749SOL    HW247721   4.658   7.442   2.556 -0.4946  0.1627 -0.2304
11750SOL     OW47722   3.312   3.128   3.638 -0.1728 -0.5423  0.0946
11750SOL    HW147723   3.324   3.168   3.729 -0.1284 -0.9500  0.2746
11750SOL    HW247724   3.253   3.048   3.645 -0.0451 -0.6655 -0.2103
11751SOL     OW47725   1.285   6.761   1.295  0.0676  0.0435  0.5023
11751SOL    HW147726   1.342   6.719   1.223 -1.8939 -1.2233 -0.3489
11751SOL    HW247727   1.189   6.742   1.276 -0.4875 -0.1526  3.4101
11752SOL     OW47728   3.530   6.671   7.726 -0.1680  0.2270  0.2053
11752SOL    HW147729   3.512   6.585   7.774 -3.6662  0.0052 -1.3328
11752SOL    HW247730   3.455   6.735   7.744  2.2830  2.9344  1.1581
11753SOL     OW47731   2.100   8.705   3.659  0.1076 -0.3501  0.0848
11753SOL    HW147732   2.099   8.609   3.685 -1.0205 -0.7022 -1.1980
11753SOL    HW247733   2.020   8.725   3.602  0.0665  1.4612  0.7516
11754SOL     OW47734   2.569   0.058   5.026  0.0155 -0.1006  0.0386
11754SOL    HW147735   2.641   0.121   5.057 -0.3192 -0.2610  1.1504
11754SOL    HW247736   2.505   0.108   4.968  0.9339  0.0828 -0.8365
11755SOL     OW47737   3.355   1.850   0.813  0.2181 -0.5588  0.0316
11755SOL    HW147738   3.265   1.819   0.843  0.4392  0.5885  1.9674
11755SOL    HW247739   3.422   1.777   0.824  0.1535 -0.3791  1.7369
11756SOL     OW47740   1.859   2.448   7.125  0.0716  0.3966  0.9198
11756SOL    HW147741   1.788   2.399   7.175 -0.9156  0.8170 -0.0680
11756SOL    HW247742   1.818   2.498   7.048  1.2311  1.7112  1.1319
11757SOL     OW47743   3.996   0.087   7.405  0.2765 -0.5023 -0.0106
11757SOL    HW147744   4.074   0.038   7.445 -0.9839 -2.0706  0.5655
11757SOL    HW247745   4.021   0.119   7.313  2.0102  0.0909  0.6517
11758SOL     OW47746   0.289   0.071   0.405 -0.4712  0.2582 -0.0278
11758SOL    HW147747   0.369   0.130   0.416  0.5098 -1.1902  0.7747
11758SOL    HW247748   0.306  -0.017   0.450 -1.5231 -1.0141 -2.0351
11759SOL     OW47749   4.501   1.863   6.848  0.0872  0.3730  0.7370
11759SOL    HW147750   4.419   1.907   6.812  0.2108 -1.6035 -2.1827
11759SOL    HW247751   4.581   1.918   6.827 -0.2184  0.9698  1.1398
11760SOL     OW47752   1.262   0.407   3.289 -0.4409  0.2042 -0.0989
11760SOL    HW147753   1.328   0.339   3.257  0.3166  0.8708  0.0087
11760SOL    HW247754   1.171   0.384   3.257 -0.0997 -0.5600 -0.5209
11761SOL     OW47755   2.760   5.233   8.155  0.3275 -1.0793 -0.4203
11761SOL    HW147756   2.844   5.214   8.207 -0.0479 -2.0282 -0.1535
11761SOL    HW247757   2.763   5.327   8.121  0.6290 -0.4508  1.2516
11762SOL     OW47758   2.909   4.754   1.529  0.1914 -0.4252 -0.1641
11762SOL    HW147759   2.889   4.711   1.617  1.5032  0.2494  0.4877
11762SOL    HW247760   2.974   4.829   1.543  1.9059 -1.5219 -1.9468
11763SOL     OW47761   8.651   2.782   5.619  0.0736  0.7550 -0.4613
11763SOL    HW147762   8.715   2.717   5.661 -1.1232  0.2548  0.6335
11763SOL    HW247763   8.558   2.750   5.633 -0.4180  1.2615 -2.4125
11764SOL     OW47764   0.420   6.936   1.231  0.2289  0.0655 -0.1888
11764SOL    HW147765   0.514   6.936   1.199 -0.0507 -1.5289 -1.0460
11764SOL    HW247766   0.367   7.003   1.178  0.8989  1.0726  0.4010
11765SOL     OW47767   3.298   8.179   0.121 -0.2736 -0.3694 -0.1794
11765SOL    HW147768   3.358   8.237   0.176  0.0831 -1.1153  0.2304
11765SOL    HW247769   3.206   8.219   0.118  0.4055  1.1256 -1.3779
11766SOL     OW47770   3.148   3.814   2.711  0.1491  0.3203  0.2132
11766SOL    HW147771   3.053   3.800   2.685 -0.4994  1.0845  2.0989
11766SOL    HW247772   3.175   3.908   2.691  0.9879 -0.3047 -1.7173
11767SOL     OW47773   3.863   4.703   8.260  0.0077 -0.0563  0.1323
11767SOL    HW147774   3.908   4.655   8.335  0.2743  0.8463  0.5597
11767SOL    HW247775   3.896   4.798   8.257 -3.1267  1.1290  1.5221
11768SOL     OW47776   3.296   2.584   7.060 -0.1903  0.4997  0.3125
11768SOL    HW147777   3.330   2.623   6.975 -0.2462 -1.1553 -0.4824
11768SOL    HW247778   3.216   2.527   7.042 -0.6884  0.7697  1.5815
11769SOL     OW47779   4.561   5.036   1.089 -0.1615 -0.1714 -0.2027
11769SOL    HW147780   4.646   5.089   1.080 -0.0130 -0.5305 -0.9489
11769SOL    HW247781   4.496   5.087   1.145 -0.2498  1.0811 -1.4292
11770SOL     OW47782   4.044   4.713   8.722  0.3054  0.4734  0.5029
11770SOL    HW147783   4.064   4.644   8.793  1.7773  0.1519 -0.2071
11770SOL    HW247784   4.124   4.773   8.711 -0.4247  1.3686  0.0690
11771SOL     OW47785   4.464   4.803   7.048 -0.1309 -0.3914  0.2867
11771SOL    HW147786   4.440   4.802   7.146  0.0236  1.2469  0.3446
11771SOL    HW247787   4.540   4.739   7.033 -0.6770 -1.2568  1.0948
11772SOL     OW47788   5.165   7.697   0.455  0.1701  0.1894  0.0797
11772SOL    HW147789   5.208   7.766   0.397  0.8768 -0.1376  0.2058
11772SOL    HW247790   5.073   7.727   0.479 -0.1601  0.3035 -1.2540
11773SOL     OW47791   3.952   1.687   1.546 -0.1253  0.0034  0.5603
11773SOL    HW147792   4.021   1.758   1.561  0.3152 -0.2496 -0.2305
11773SOL    HW247793   3.861   1.725   1.563  0.1188  0.6992  0.3603
11774SOL     OW47794   4.090   1.520   7.354 -0.0266  0.5522  0.2305
11774SOL    HW147795   4.004   1.518   7.302 -0.9092 -1.7331  1.6676
11774SOL    HW247796   4.155   1.457   7.313  0.6109  1.5560 -0.2909
11775SOL     OW47797   2.908   3.745   2.327 -0.3124  0.1933  0.4492
11775SOL    HW147798   2.925   3.830   2.377 -0.2930 -1.2930  3.0535
11775SOL    HW247799   2.831   3.697   2.368  0.5273 -1.6899 -0.1551
11776SOL     OW47800   3.108   7.963   8.791 -0.3854  0.5226  0.0590
11776SOL    HW147801   3.185   8.021   8.817 -0.0831 -0.3064  1.0429
11776SOL    HW247802   3.119   7.872   8.831 -1.0321 -0.1127 -1.1923
11777SOL     OW47803   7.014   8.217   0.051  0.4607 -0.0001 -0.1438
11777SOL    HW147804   7.020   8.132  -0.002 -0.5249  0.9076 -1.7315
11777SOL    HW247805   7.104   8.261   0.053  0.5119 -0.0497 -1.0617
11778SOL     OW47806   2.067   6.486   6.476  0.0938 -0.4123  0.1552
11778SOL    HW147807   2.154   6.440   6.497  0.8690  0.4738 -1.0733
11778SOL    HW247808   2.013   6.428   6.415  0.6982 -0.0774 -0.7006
11779SOL     OW47809   2.348   5.790   5.515  0.8393 -0.5566 -0.7443
11779SOL    HW147810   2.272   5.774   5.453 -0.5454 -2.3648  1.3580
11779SOL    HW247811   2.432   5.752   5.476 -0.5784 -4.4288 -0.1987
11780SOL     OW47812   8.407   7.471   5.707  0.1788  0.0523  0.6454
11780SOL    HW147813   8.455   7.552   5.741  0.6350  0.2569 -0.4707
11780SOL    HW247814   8.474   7.400   5.686 -0.1070 -0.1096  0.2745
11781SOL     OW47815   3.979   7.421   5.754 -0.2458  0.5587  0.0589
11781SOL    HW147816   3.989   7.417   5.853  1.1135  2.5280  0.0139
11781SOL    HW247817   3.883   7.403   5.730 -0.3844 -0.9460  1.6338
11782SOL     OW47818   5.291   6.340   0.258 -0.4804  0.2777 -0.3463
11782SOL    HW147819   5.387   6.322   0.282 -0.6839  0.1390  0.3490
11782SOL    HW247820   5.281   6.436   0.230 -0.5454  0.8562  1.6057
11783SOL     OW47821   2.842   3.467   6.156 -0.5859  0.0691 -0.4917
11783SOL    HW147822   2.834   3.467   6.255  0.3493 -0.0134 -0.4055
11783SOL    HW247823   2.809   3.554   6.119 -0.3594  0.3386 -0.0573
11784SOL     OW47824   7.962   8.050   1.916  0.5848  0.2307  0.2301
11784SOL    HW147825   7.872   8.092   1.901  0.3312 -0.5496 -0.5022
11784SOL    HW247826   8.033   8.107   1.874  0.1774 -0.3957 -1.3619
11785SOL     OW47827   1.486   1.859   1.717  0.4896 -0.0879 -0.4131
11785SOL    HW147828   1.538   1.890   1.637  2.6845 -2.1652  0.1690
11785SOL    HW247829   1.398   1.822   1.687  0.2654  1.3426 -1.6187
11786SOL     OW47830   3.793   4.987   3.721 -0.1958  0.0093 -0.0701
11786SOL    HW147831   3.846   4.956   3.643 -3.1390 -1.9175 -1.3899
11786SOL    HW247832   3.831   4.949   3.805  1.4017 -0.0755 -0.8218
11787SOL     OW47833   0.529   1.774   8.470 -0.4803  0.8243  0.3144
11787SOL    HW147834   0.455   1.713   8.499  1.9042 -2.1021  0.4734
11787SOL    HW247835   0.559   1.749   8.378  2.1224  0.1383  1.2975
11788SOL     OW47836   3.413   0.608   7.195 -0.2471 -0.8027 -0.0132
11788SOL    HW147837   3.428   0.526   7.139  0.8970 -0.2650 -0.5116
11788SOL    HW247838   3.354   0.672   7.146 -0.5165 -0.9992  0.0545
11789SOL     OW47839   4.773   5.042   3.104 -0.0144  0.1614 -0.3759
11789SOL    HW147840   4.829   5.016   3.182 -0.6282  1.5207  0.5417
11789SOL    HW247841   4.827   5.037   3.020  2.2906  4.0681  0.7953
11790SOL     OW47842   0.235   3.175   2.033 -0.1155 -0.1882  0.0448
11790SOL    HW147843   0.241   3.201   2.130  1.1818  1.8010 -0.5450
11790SOL    HW247844   0.317   3.206   1.985 -0.9327 -0.8158 -1.7898
11791SOL     OW47845   7.952   4.993   5.862  0.1711  0.3355 -0.8920
11791SOL    HW147846   7.948   5.081   5.908  0.5879  0.1435 -0.4842
11791SOL    HW247847   8.011   4.999   5.781 -0.1773  0.5495 -1.1301
11792SOL     OW47848   3.397   8.485   0.025 -0.1716  0.3856 -0.1464
11792SOL    HW147849   3.458   8.508   0.100 -2.7035  2.6586  1.2947
11792SOL    HW247850   3.330   8.417   0.056 -0.1489  0.0135 -0.8836
11793SOL     OW47851   0.238   6.288   8.182 -0.2841 -0.2482  0.1477
11793SOL    HW147852   0.163   6.237   8.223  1.3188 -1.9787  1.0118
11793SOL    HW247853   0.235   6.384   8.212 -0.8857 -0.8078  1.8759
11794SOL     OW47854   2.470   7.627   6.670 -0.0225 -0.3643 -0.0252
11794SOL    HW147855   2.539   7.672   6.726  0.0081 -0.6416  0.1662
11794SOL    HW247856   2.395   7.690   6.651  0.2286 -0.1016 -0.1307
11795SOL     OW47857   5.538   1.045   2.057 -0.1332  0.6593 -0.1009
11795SOL    HW147858   5.610   1.018   2.120  0.6030  0.4703 -1.0053
11795SOL    HW247859   5.532   1.145   2.053 -1.0521  0.6681  1.2264
11796SOL     OW47860   0.370   7.553   1.966 -0.7908 -0.4304 -0.2176
11796SOL    HW147861   0.355   7.565   1.868 -1.6101  0.2801 -0.0149
11796SOL    HW247862   0.402   7.460   1.984  3.5147  0.6921 -1.5939
11797SOL     OW47863   4.761   6.186   6.444 -0.6238 -0.0637 -0.4499
11797SOL    HW147864   4.776   6.087   6.453 -2.3894 -0.4319 -1.3074
11797SOL    HW247865   4.849   6.233   6.447  0.3570 -1.7632 -1.3222
11798SOL     OW47866   2.269   2.019   2.849 -0.3953 -0.4125  0.3390
11798SOL    HW147867   2.182   2.002   2.896  0.5436 -1.1223  1.8549
11798SOL    HW247868   2.322   1.935   2.846  1.7264  0.8001  2.5053
11799SOL     OW47869   3.693   5.433   2.692  0.1604 -0.2986  0.5590
11799SOL    HW147870   3.786   5.467   2.676  0.6464 -0.4240  2.9595
11799SOL    HW247871   3.684   5.405   2.787 -3.2377  2.4414  1.1249
11800SOL     OW47872   7.934   5.170   0.801  0.6362  0.5678 -0.8984
11800SOL    HW147873   7.834   5.172   0.804  0.6524  1.8236 -0.9542
11800SOL    HW247874   7.972   5.221   0.878  1.2466 -0.7327 -0.3275
11801SOL     OW47875   8.585   6.690   3.306  0.0208 -0.1417 -0.2918
11801SOL    HW147876   8.515   6.642   3.253 -0.6517  1.5328 -0.9639
11801SOL    HW247877   8.633   6.755   3.246  2.3147 -1.4298  0.1089
11802SOL     OW47878   4.650   4.568   6.266  0.4590 -0.2311  0.2414
11802SOL    HW147879   4.569   4.610   6.225  0.4400 -0.1759  0.3352
11802SOL    HW247880   4.732   4.611   6.229  0.5104 -1.7565 -1.4962
11803SOL     OW47881   0.815   5.578   4.698  0.4663 -0.1983 -0.1759
11803SOL    HW147882   0.864   5.538   4.775  0.2798 -0.1314 -0.0232
11803SOL    HW247883   0.808   5.677   4.711 -0.5603 -0.3286  0.2822
11804SOL     OW47884   1.677   3.794   7.234  0.2146 -0.8320  0.4243
11804SOL    HW147885   1.614   3.719   7.251 -1.7181  0.2786 -1.6292
11804SOL    HW247886   1.638   3.879   7.270  0.4231 -0.1030 -1.0408
11805SOL     OW47887   5.794   4.077   7.385 -0.4126 -0.1035 -0.5367
11805SOL    HW147888   5.859   4.152   7.388 -0.6363  0.1120 -0.9661
11805SOL    HW247889   5.796   4.026   7.471  1.2639 -0.8949 -1.0228
11806SOL     OW47890   3.733   4.110   0.925  0.0307 -0.1614 -0.3113
11806SOL    HW147891   3.675   4.030   0.941  0.3493 -0.4651 -0.6639
11806SOL    HW247892   3.676   4.191   0.918 -0.3947 -0.5239 -1.1154
11807SOL     OW47893   0.444   8.378   7.903  0.3320 -0.2285  0.3357
11807SOL    HW147894   0.365   8.377   7.964 -0.6503 -0.0090 -0.8969
11807SOL    HW247895   0.465   8.285   7.873  1.3261 -0.4382  1.6224
11808SOL     OW47896   1.556   5.633   1.802  0.2174 -1.1146 -0.2148
11808SOL    HW147897   1.598   5.611   1.890 -0.2152  1.1524  0.5835
11808SOL    HW247898   1.626   5.665   1.738 -0.0945  1.6388  0.7791
11809SOL     OW47899   5.753   6.979   3.287  0.3264 -0.2932  0.0204
11809SOL    HW147900   5.682   7.017   3.227  1.2975 -3.3358 -3.1540
11809SOL    HW247901   5.835   7.036   3.281  0.6308 -0.9122 -2.0852
11810SOL     OW47902   1.233   2.112   0.442 -0.4003 -0.4560 -0.4463
11810SOL    HW147903   1.265   2.023   0.409  0.8997 -0.5304  0.9494
11810SOL    HW247904   1.143   2.101   0.484  0.2081 -1.3214  0.6612
11811SOL     OW47905   5.564   5.309   2.751 -0.3026  0.4573  0.1740
11811SOL    HW147906   5.474   5.290   2.711  0.3068 -0.8001 -0.6116
11811SOL    HW247907   5.553   5.374   2.827 -1.3989  3.6514 -2.5680
11812SOL     OW47908   1.526   7.466   1.181 -0.1984 -0.6439  0.0600
11812SOL    HW147909   1.498   7.464   1.278 -0.9603 -1.5353 -0.1623
11812SOL    HW247910   1.451   7.431   1.125  0.7466 -1.4198 -0.7317
11813SOL     OW47911   6.414   7.739   7.982  0.4233  0.6302 -0.1576
11813SOL    HW147912   6.387   7.763   7.889 -0.9406 -0.1367  0.0247
11813SOL    HW247913   6.431   7.640   7.987  0.4361  0.6625  0.4222
11814SOL     OW47914   0.866   2.105   8.582 -0.3513  0.0349  0.3359
11814SOL    HW147915   0.868   2.176   8.653 -0.6564 -1.0359  1.4300
11814SOL    HW247916   0.787   2.121   8.522  0.5634  1.6102 -0.4850
11815SOL     OW47917   4.792   7.912   0.019 -0.2023  0.1678  0.1096
11815SOL    HW147918   4.792   8.011   0.030  0.1386  0.1933 -0.1236
11815SOL    HW247919   4.869   7.872   0.070  1.6149  0.3210 -2.4479
11816SOL     OW47920   8.138   4.589   4.369  0.2952  0.1121 -0.2041
11816SOL    HW147921   8.045   4.607   4.336  0.0788 -0.9030 -0.1725
11816SOL    HW247922   8.202   4.653   4.326 -0.5723  1.5895  0.6662
11817SOL     OW47923   8.493   4.369   7.194 -0.3747 -0.4613 -0.1932
11817SOL    HW147924   8.558   4.424   7.141 -0.6900 -1.3321 -1.5071
11817SOL    HW247925   8.533   4.280   7.214 -0.6332 -0.4938  0.1840
11818SOL     OW47926   3.458   7.975   5.886  0.1155 -0.0991 -0.4430
11818SOL    HW147927   3.375   7.941   5.930  1.1301 -1.8875  0.1277
11818SOL    HW247928   3.439   7.992   5.789 -0.6866 -1.4048 -0.5333
11819SOL     OW47929   2.229   6.492   5.789  0.7031  0.1212 -0.7215
11819SOL    HW147930   2.240   6.394   5.771 -0.6143  0.0460 -1.1974
11819SOL    HW247931   2.203   6.506   5.885 -1.8653 -0.2290 -1.3289
11820SOL     OW47932   1.377   7.348   3.345  0.2900 -0.4596  0.4875
11820SOL    HW147933   1.403   7.252   3.340  0.0283 -0.4343 -1.6084
11820SOL    HW247934   1.459   7.405   3.339  0.3664 -0.5272  0.8737
11821SOL     OW47935   8.174   2.236   1.458  0.4410 -0.5988 -0.1355
11821SOL    HW147936   8.182   2.177   1.378  4.4191  0.2053 -0.4523
11821SOL    HW247937   8.220   2.323   1.441 -1.5673  0.8991  1.8480
11822SOL     OW47938   4.646   3.541   8.346  0.4468  0.6469 -0.2752
11822SOL    HW147939   4.564   3.599   8.351  1.5334  2.0777  1.4018
11822SOL    HW247940   4.714   3.584   8.287  0.7784  0.4449 -0.0416
11823SOL     OW47941   8.121   4.343   7.497  0.1959  0.1869 -0.9838
11823SOL    HW147942   8.112   4.401   7.578 -0.2993 -0.2519 -0.7222
11823SOL    HW247943   8.067   4.381   7.422  2.0078  1.5429 -1.6581
11824SOL     OW47944   0.331   1.585   8.564 -0.3148 -0.4665 -0.0696
11824SOL    HW147945   0.233   1.575   8.582 -0.1502  0.9817  1.8609
11824SOL    HW247946   0.383   1.557   8.645  0.7390  1.3225 -0.0996
11825SOL     OW47947   7.650   5.849   5.236  0.3449  0.0577 -0.2559
11825SOL    HW147948   7.680   5.800   5.154  0.6845  0.8053 -0.5824
11825SOL    HW247949   7.600   5.930   5.209  1.5436  0.9878  0.2657
11826SOL     OW47950   1.120   6.986   8.686  0.5292  0.2033  0.2518
11826SOL    HW147951   1.116   7.052   8.612  0.4006  0.3010  0.3466
11826SOL    HW247952   1.212   6.986   8.725  0.6174  0.0974  0.0425
11827SOL     OW47953   7.360   1.289   8.220 -0.3779  0.5025 -0.6499
11827SOL    HW147954   7.404   1.243   8.297  0.2801  1.3953 -0.4858
11827SOL    HW247955   7.265   1.257   8.212 -0.1402 -0.3513 -0.1084
11828SOL     OW47956   2.842   5.946   2.144 -0.7844 -0.4221  0.2288
11828SOL    HW147957   2.881   5.887   2.074 -0.8810  1.3054 -1.3079
11828SOL    HW247958   2.745   5.924   2.156 -0.5768 -1.2531  0.3843
11829SOL     OW47959   1.892   4.514   3.184 -0.0696 -0.0760  0.0913
11829SOL    HW147960   1.956   4.439   3.165 -0.6861  0.0559 -2.7631
11829SOL    HW247961   1.936   4.580   3.244  1.6783 -1.0934 -0.0239
11830SOL     OW47962   7.076   7.347   0.537 -0.0644 -0.5445 -0.3101
11830SOL    HW147963   7.099   7.308   0.448  0.7486 -2.3697  0.6893
11830SOL    HW247964   7.090   7.446   0.533  0.6344 -0.6795 -2.0086
11831SOL     OW47965   4.846   8.004   6.007  0.4866 -0.0336 -0.2747
11831SOL    HW147966   4.821   7.921   6.056 -1.0201  0.0031 -0.9497
11831SOL    HW247967   4.865   8.077   6.072 -1.6074  0.0516  0.2464
11832SOL     OW47968   4.148   3.155   2.461  0.2875  0.0260  0.0890
11832SOL    HW147969   4.141   3.249   2.428 -0.0822 -0.4494 -1.2194
11832SOL    HW247970   4.075   3.100   2.420  0.9552 -0.9978  0.2554
11833SOL     OW47971   4.870   3.687   6.013  0.3125  0.6954  0.5654
11833SOL    HW147972   4.842   3.629   6.090  1.2020 -0.2654  0.1734
11833SOL    HW247973   4.927   3.762   6.047  0.3517  0.5218  0.8806
11834SOL     OW47974   7.718   0.395   6.331 -0.1535 -0.5992 -0.6926
11834SOL    HW147975   7.801   0.349   6.362 -0.9448 -0.8788  1.0571
11834SOL    HW247976   7.744   0.474   6.275  1.3032 -0.5357  0.0341
11835SOL     OW47977   8.780   4.466   2.407 -0.2607  0.0648 -0.1020
11835SOL    HW147978   8.853   4.398   2.417  0.2309  0.4020 -1.3226
11835SOL    HW247979   8.698   4.434   2.454  0.1248 -1.1317 -0.2248
11836SOL     OW47980   1.172   1.744   8.208 -0.2854  0.5096 -0.2776
11836SOL    HW147981   1.102   1.683   8.246 -0.1428  0.2439 -0.4354
11836SOL    HW247982   1.238   1.766   8.279 -0.9258  1.3504  0.0690
11837SOL     OW47983   6.448   3.596   0.567  0.3444  0.4973 -0.0190
11837SOL    HW147984   6.454   3.496   0.573 -1.6975  0.4229  1.0957
11837SOL    HW247985   6.517   3.637   0.626  0.8050 -0.2449 -0.0312
11838SOL     OW47986   5.709   0.768   0.502 -0.3219  0.2907  0.4548
11838SOL    HW147987   5.719   0.864   0.527 -0.9373  0.2812  0.7551
11838SOL    HW247988   5.634   0.728   0.555 -0.2442 -0.2823  0.1335
11839SOL     OW47989   5.903   3.541   5.571 -0.0337 -0.2503 -0.2854
11839SOL    HW147990   5.897   3.491   5.485 -2.0560 -0.3934 -0.1037
11839SOL    HW247991   5.928   3.636   5.553 -2.7548  0.3395 -1.3148
11840SOL     OW47992   8.986   6.229   5.880  0.5763 -0.2047  0.5502
11840SOL    HW147993   9.026   6.320   5.869  0.6397 -0.1725  1.0413
11840SOL    HW247994   8.941   6.202   5.795  1.0472  0.0476  0.2146
11841SOL     OW47995   0.657   1.567   1.971 -0.4887  0.0950  0.6171
11841SOL    HW147996   0.655   1.649   2.028  3.5085  0.2504  0.6355
11841SOL    HW247997   0.629   1.592   1.877 -0.3758  1.2330  0.8761
11842SOL     OW47998   2.024   8.616   6.655 -0.1722 -0.0624 -0.1712
11842SOL    HW147999   2.041   8.599   6.752  3.5082 -0.8191 -0.8773
11842SOL    HW248000   2.012   8.529   6.607  0.6257  0.1654 -0.8012
11843SOL     OW48001   1.840   0.058   8.502  1.0150 -0.2323 -0.7358
11843SOL    HW148002   1.827   0.075   8.405 -1.8725  0.1609 -0.3398
11843SOL    HW248003   1.851   0.145   8.550 -1.3879 -0.1434 -0.2704
11844SOL     OW48004   6.578   8.147   0.324  0.3465  0.5168 -0.1136
11844SOL    HW148005   6.515   8.189   0.258  1.8899  2.9469 -0.0883
11844SOL    HW248006   6.671   8.151   0.289  0.9796  0.2994  1.4942
11845SOL     OW48007   3.331   3.342   0.775 -0.1911  0.5808 -0.3971
11845SOL    HW148008   3.410   3.403   0.770  0.2956 -0.1241 -1.5887
11845SOL    HW248009   3.347   3.272   0.844  0.9049 -0.4724 -1.6816
11846SOL     OW48010   3.077   5.141   4.938 -0.2460 -0.3764  0.8095
11846SOL    HW148011   3.163   5.168   4.982 -0.0867 -0.4528  0.5471
11846SOL    HW248012   3.012   5.111   5.008  0.0039 -0.4912  0.9941
11847SOL     OW48013   4.846   1.031   0.089  0.3657 -0.8324 -0.4113
11847SOL    HW148014   4.906   1.084   0.029 -1.0112  0.8448 -0.3425
11847SOL    HW248015   4.769   0.996   0.036 -0.2517 -0.3080  0.1377
11848SOL     OW48016   2.677   7.556   2.631  0.5357 -0.0675 -0.2654
11848SOL    HW148017   2.586   7.589   2.606  0.9968  0.2881 -1.5071
11848SOL    HW248018   2.723   7.626   2.685  0.1654 -0.1473  0.1561
11849SOL     OW48019   3.163   3.234   1.591 -0.2878 -0.0877 -0.0256
11849SOL    HW148020   3.203   3.300   1.655 -0.6384  0.0380  0.0657
11849SOL    HW248021   3.064   3.229   1.607 -0.5515  0.7686 -1.3038
11850SOL     OW48022   4.012   7.786   6.713  0.2102  0.2473  0.1464
11850SOL    HW148023   3.991   7.718   6.643 -0.9872 -0.7396  1.4268
11850SOL    HW248024   3.934   7.848   6.724 -0.1514 -0.4174  1.5084
11851SOL     OW48025   0.701   4.055   7.675  0.3775  0.2225 -0.2843
11851SOL    HW148026   0.770   4.084   7.741  0.3063  2.3802 -1.1102
11851SOL    HW248027   0.631   4.127   7.666 -1.4120 -1.4728 -0.2427
11852SOL     OW48028   0.515   7.894   8.702  0.1370 -0.3194 -0.4361
11852SOL    HW148029   0.564   7.814   8.737  0.3102  0.2416  0.6209
11852SOL    HW248030   0.433   7.864   8.653  1.5695 -1.2731 -2.3009
11853SOL     OW48031   4.520   7.926   0.503  0.0940 -0.0343 -0.3358
11853SOL    HW148032   4.490   8.004   0.447 -1.3000  1.0270  1.7774
11853SOL    HW248033   4.466   7.846   0.479  0.8656 -0.1038 -1.8652
11854SOL     OW48034   6.934   3.976   4.434 -0.7430 -0.0795  0.3006
11854SOL    HW148035   6.933   3.898   4.496 -0.3159 -1.7837 -1.7592
11854SOL    HW248036   6.921   3.944   4.340  3.4349  1.8215 -1.0875
11855SOL     OW48037   5.102   3.778   8.813  0.5255  0.4385  0.6288
11855SOL    HW148038   5.185   3.735   8.848  0.6367 -0.0049 -0.1684
11855SOL    HW248039   5.122   3.825   8.727 -0.4220 -1.2221 -0.5343
11856SOL     OW48040   1.715   0.644   1.561 -0.0650 -0.2037 -0.2236
11856SOL    HW148041   1.805   0.601   1.569 -0.6996 -1.7586 -1.1759
11856SOL    HW248042   1.647   0.575   1.540 -1.4326  1.0255  0.0688
11857SOL     OW48043   3.073   6.881   0.255  0.4984 -0.1975  0.2461
11857SOL    HW148044   3.101   6.977   0.245 -0.1545 -0.1596 -1.2763
11857SOL    HW248045   3.059   6.861   0.352  0.9576  1.1509  0.6088
11858SOL     OW48046   3.097   3.683   4.436 -0.6775 -0.6021 -0.0742
11858SOL    HW148047   3.137   3.658   4.348 -0.6801  0.5950 -0.4239
11858SOL    HW248048   3.169   3.690   4.505 -0.4378  0.2410 -0.4011
11859SOL     OW48049   1.452   3.047   1.416  0.2569  0.1946  0.1981
11859SOL    HW148050   1.488   2.968   1.465  1.5262  1.2990  1.0611
11859SOL    HW248051   1.403   3.106   1.480  0.0827  0.5672 -0.2789
11860SOL     OW48052   5.951   3.121   5.722  0.0567  0.0399 -1.2126
11860SOL    HW148053   6.009   3.202   5.707 -1.4657  1.3818 -0.0523
11860SOL    HW248054   5.937   3.108   5.820 -0.1412 -1.3337 -1.4160
11861SOL     OW48055   2.643   6.575   7.575 -0.5828  0.3144 -0.2783
11861SOL    HW148056   2.607   6.486   7.547 -2.0084  0.9805 -0.5877
11861SOL    HW248057   2.568   6.637   7.596  0.3288  2.0552 -1.9243
11862SOL     OW48058   3.791   1.165   0.395 -0.4485 -0.0786  0.2017
11862SOL    HW148059   3.719   1.113   0.441 -0.4759  0.5053  0.8314
11862SOL    HW248060   3.848   1.103   0.341 -1.1136 -0.6119  0.1085
11863SOL     OW48061   3.842   5.155   1.523  0.3404 -0.4678 -0.4836
11863SOL    HW148062   3.854   5.064   1.563  1.2471 -0.1795 -0.0869
11863SOL    HW248063   3.931   5.197   1.507 -0.0940  1.1320  1.1278
11864SOL     OW48064   7.684   3.189   8.108  0.1533  0.3580 -0.2861
11864SOL    HW148065   7.650   3.236   8.189  1.6189  1.8354 -0.5033
11864SOL    HW248066   7.610   3.180   8.041 -1.2604 -1.5028  1.4539
11865SOL     OW48067   5.292   5.997   3.082  0.1454  0.0786  0.1335
11865SOL    HW148068   5.346   6.080   3.090  0.4157  0.0521 -1.3024
11865SOL    HW248069   5.350   5.918   3.102 -0.2334  0.2594  1.9717
11866SOL     OW48070   2.816   5.686   7.418 -0.7491  0.2024  0.1430
11866SOL    HW148071   2.780   5.643   7.336 -0.5037  0.5297 -0.1371
11866SOL    HW248072   2.796   5.629   7.498  0.2469 -0.8045 -0.3237
11867SOL     OW48073   4.929   0.147   2.548 -0.0342 -0.7365 -0.4203
11867SOL    HW148074   4.993   0.111   2.480  0.8600  1.2827 -0.6592
11867SOL    HW248075   4.973   0.144   2.638  0.1723  0.0975 -0.4955
11868SOL     OW48076   1.552   3.218   3.768  0.6713 -0.4746  0.2343
11868SOL    HW148077   1.593   3.267   3.691 -0.5252  0.0034 -0.1111
11868SOL    HW248078   1.614   3.146   3.799  2.3937  1.0981  0.6076
11869SOL     OW48079   7.259   5.698   8.665  0.9640  0.0387  0.3760
11869SOL    HW148080   7.318   5.759   8.611  1.4761 -1.5353 -0.8874
11869SOL    HW248081   7.315   5.624   8.703 -0.0953 -1.1656 -0.3799
11870SOL     OW48082   6.289   8.151   0.130  0.0530 -0.4107 -0.0287
11870SOL    HW148083   6.326   8.059   0.122  0.4900 -0.4498  2.1276
11870SOL    HW248084   6.347   8.215   0.079  0.9091 -1.0235  0.1613
11871SOL     OW48085   7.893   6.220   0.979 -0.0969  0.2853  0.4099
11871SOL    HW148086   7.930   6.265   1.060 -0.4840  0.5890  0.4207
11871SOL    HW248087   7.922   6.124   0.978  1.7236  0.8191 -0.2284
11872SOL     OW48088   4.872   8.174   5.772 -0.3098 -0.2922  0.1154
11872SOL    HW148089   4.868   8.134   5.680 -1.1255  0.0298  0.0040
11872SOL    HW248090   4.874   8.100   5.840  1.3497 -0.5388 -0.1904
11873SOL     OW48091   8.668   4.455   1.788 -0.0408 -0.0750 -0.1162
11873SOL    HW148092   8.662   4.383   1.857  1.2457  0.1079  0.2077
11873SOL    HW248093   8.764   4.467   1.761 -0.1220  2.0460  0.4255
11874SOL     OW48094   0.575   4.471   2.842  0.8919  0.0538 -0.2236
11874SOL    HW148095   0.578   4.442   2.938  0.5414  1.3013  0.1699
11874SOL    HW248096   0.645   4.421   2.790  1.7502  0.0878  0.8723
11875SOL     OW48097   0.912   2.625   7.693 -0.2767  0.6402  0.3842
11875SOL    HW148098   1.010   2.610   7.711 -0.5235  0.9673  2.1427
11875SOL    HW248099   0.893   2.723   7.690 -0.5056  0.5759 -0.1924
11876SOL     OW48100   6.282   8.852   2.395  0.4810 -0.5556  0.3903
11876SOL    HW148101   6.311   8.948   2.395  1.4973 -0.8650  0.6100
11876SOL    HW248102   6.189   8.846   2.357  0.4328  0.5052  0.3187
11877SOL     OW48103   1.325   4.746   3.397  0.5723 -0.0625  0.7131
11877SOL    HW148104   1.334   4.652   3.367 -0.9917 -0.4726  1.4649
11877SOL    HW248105   1.268   4.796   3.332  2.1531  0.6288 -0.1811
11878SOL     OW48106   1.382   3.395   2.510  0.0211  0.2052 -0.0509
11878SOL    HW148107   1.345   3.464   2.447 -0.8591 -0.4172 -0.2140
11878SOL    HW248108   1.457   3.346   2.464 -0.4136 -0.0384 -0.5023
11879SOL     OW48109   0.899   1.620   0.005 -0.1690 -0.3311  1.0533
11879SOL    HW148110   0.994   1.627  -0.024 -0.7646  0.4042 -0.8546
11879SOL    HW248111   0.849   1.702  -0.023 -1.9790 -1.8986 -0.5416
11880SOL     OW48112   6.157   4.307   5.235  0.0792 -0.3137 -0.0551
11880SOL    HW148113   6.174   4.363   5.316 -2.6050 -1.1313  1.1214
11880SOL    HW248114   6.082   4.244   5.253 -0.0313 -1.0759 -2.9209
11881SOL     OW48115   0.195   4.036   3.454 -0.6214  0.5427  0.0948
11881SOL    HW148116   0.161   4.009   3.364 -0.8353  1.4010 -0.0879
11881SOL    HW248117   0.197   4.136   3.460  0.2051  0.4941  0.7337
11882SOL     OW48118   8.148   8.093   7.300  0.7830 -0.2345  0.4439
11882SOL    HW148119   8.216   8.096   7.228 -0.1152 -0.0299 -0.4047
11882SOL    HW248120   8.146   8.181   7.348  1.8088 -0.5802  1.1302
11883SOL     OW48121   1.615   3.839   1.095  0.5207 -0.3718  0.2813
11883SOL    HW148122   1.518   3.824   1.110  0.4635  0.4918  0.8180
11883SOL    HW248123   1.638   3.934   1.115  0.9518  0.1774 -2.5315
11884SOL     OW48124   4.997   5.488   1.221 -1.0159 -0.5116 -0.5346
11884SOL    HW148125   4.950   5.453   1.140 -1.5481 -4.4979  1.3795
11884SOL    HW248126   4.944   5.467   1.302  1.7209 -0.6840  1.2766
11885SOL     OW48127   4.005   2.224   4.818 -0.0252  0.4613  0.0921
11885SOL    HW148128   3.955   2.285   4.880 -2.5892  0.5575 -2.0028
11885SOL    HW248129   4.096   2.262   4.800 -1.2967  3.2707 -0.5782
11886SOL     OW48130   4.075   7.384   6.145 -0.0904  0.2836 -0.1825
11886SOL    HW148131   4.029   7.469   6.170  0.1491  0.3834 -0.0836
11886SOL    HW248132   4.159   7.405   6.096 -0.9668  0.0801 -1.8081
11887SOL     OW48133   0.521   8.847   8.343  0.4061  0.5187  0.3030
11887SOL    HW148134   0.471   8.791   8.277  0.4288  1.2103 -0.3032
11887SOL    HW248135   0.574   8.917   8.295  0.6516  0.8464  1.0376
11888SOL     OW48136   6.341   7.755   6.829 -0.6144 -0.7163  0.0971
11888SOL    HW148137   6.309   7.680   6.888 -0.8479 -0.4237  0.3450
11888SOL    HW248138   6.306   7.842   6.863  1.7247 -0.2027  1.2755
11889SOL     OW48139   5.902   7.944   5.709 -0.2582  0.3589  0.5113
11889SOL    HW148140   5.960   7.863   5.700  1.3503  1.4825  0.7023
11889SOL    HW248141   5.877   7.977   5.618 -1.7093 -0.8769  0.4271
11890SOL     OW48142   3.095   2.606   4.182 -0.5372  0.0365 -0.1749
11890SOL    HW148143   3.030   2.609   4.105 -2.1807 -1.9351  1.0628
11890SOL    HW248144   3.173   2.665   4.162 -0.2719 -1.4239 -3.9574
11891SOL     OW48145   3.909   1.740   5.346  0.7969 -0.2773  0.7458
11891SOL    HW148146   3.873   1.649   5.368 -0.5344 -0.0164 -0.3336
11891SOL    HW248147   3.926   1.789   5.432 -0.3742 -0.8120  1.3036
11892SOL     OW48148   4.189   7.271   8.609  0.6491 -0.2237 -0.2766
11892SOL    HW148149   4.090   7.281   8.595  0.6101 -1.0181 -0.5728
11892SOL    HW248150   4.235   7.270   8.521  0.7992 -1.0880 -0.1965
11893SOL     OW48151   2.419   3.681   8.335 -0.6728  0.4070 -0.7883
11893SOL    HW148152   2.469   3.595   8.337 -0.2210  0.7039  1.2400
11893SOL    HW248153   2.477   3.755   8.367 -1.3102  1.3526 -1.7663
11894SOL     OW48154   1.877   2.828   7.050  0.0295 -0.5384 -0.3547
11894SOL    HW148155   1.918   2.826   7.141  0.0318 -2.1184 -0.3732
11894SOL    HW248156   1.810   2.754   7.042 -1.9395  1.2143 -0.7484
11895SOL     OW48157   7.182   3.672   4.284 -0.7718 -0.0218 -0.2560
11895SOL    HW148158   7.217   3.654   4.376 -0.8922  0.5686 -0.0988
11895SOL    HW248159   7.175   3.585   4.234  3.0519  0.0490 -1.0654
11896SOL     OW48160   1.262   0.638   5.219 -0.2691 -0.0601  0.3250
11896SOL    HW148161   1.299   0.729   5.238 -0.6098  0.2962 -0.6922
11896SOL    HW248162   1.163   0.638   5.233 -0.2802 -0.2536  0.2497
11897SOL     OW48163   4.367   5.354   4.227 -0.2098 -0.8605 -0.2136
11897SOL    HW148164   4.301   5.381   4.297 -1.2083 -1.4508 -0.9034
11897SOL    HW248165   4.398   5.261   4.244 -1.1530 -1.3410 -1.0534
11898SOL     OW48166   1.528   6.361   1.853  0.1207  0.3205 -0.6949
11898SOL    HW148167   1.531   6.425   1.776 -3.9044  0.8030 -0.5699
11898SOL    HW248168   1.521   6.412   1.939  0.9119 -0.2554 -0.2783
11899SOL     OW48169   3.696   4.750   5.375 -0.0333  0.1553 -0.1096
11899SOL    HW148170   3.784   4.736   5.421 -0.5851  2.2133  1.6519
11899SOL    HW248171   3.712   4.802   5.291  0.5351 -0.2676 -0.2714
11900SOL     OW48172   5.906   7.309   6.100  0.4267 -0.4362 -0.0231
11900SOL    HW148173   5.916   7.328   6.198 -2.3791  0.6852  0.1193
11900SOL    HW248174   5.904   7.395   6.050 -0.8089 -0.8721 -0.7419
11901SOL     OW48175   5.741   5.540   6.572 -0.2108 -0.2185 -0.2320
11901SOL    HW148176   5.783   5.524   6.662 -1.1317  0.7718  0.3870
11901SOL    HW248177   5.646   5.569   6.585 -1.2897 -2.9252 -1.6130
11902SOL     OW48178   5.466   4.720   2.388  0.0779  0.5431  0.7553
11902SOL    HW148179   5.565   4.704   2.386  0.0843  0.3533  1.9236
11902SOL    HW248180   5.437   4.759   2.301  0.9708 -0.6077 -0.0704
11903SOL     OW48181   2.756   8.110   1.297 -0.6624  0.4515  0.0679
11903SOL    HW148182   2.848   8.116   1.337 -0.4147 -0.8079 -0.3046
11903SOL    HW248183   2.746   8.023   1.250 -1.7402  0.9817 -0.6898
11904SOL     OW48184   3.744   8.937   7.371 -0.3313 -0.7733  0.2251
11904SOL    HW148185   3.804   9.008   7.405 -0.9989  0.5298 -1.2699
11904SOL    HW248186   3.760   8.852   7.423  1.2302  0.1379  1.2757
11905SOL     OW48187   0.869   4.219   6.088  0.2271 -0.0043 -0.7645
11905SOL    HW148188   0.800   4.146   6.086  1.3695 -1.1443  0.4883
11905SOL    HW248189   0.900   4.238   5.995  0.4957 -1.6817 -1.0384
11906SOL     OW48190   3.796   1.062   1.139  0.1562  0.4505  0.5249
11906SOL    HW148191   3.846   0.993   1.086  0.9187  1.4023 -0.0143
11906SOL    HW248192   3.698   1.050   1.125  0.3202  0.0703 -0.3290
11907SOL     OW48193   5.490   8.885   0.520 -0.1839  0.0379 -0.2575
11907SOL    HW148194   5.472   8.983   0.517 -0.8678 -0.1184 -1.5585
11907SOL    HW248195   5.545   8.859   0.440  1.7727 -0.2940  1.1616
11908SOL     OW48196   1.083   2.981   0.916  0.7068  0.2484 -0.2709
11908SOL    HW148197   1.094   2.893   0.963  3.1852  1.6194  1.8659
11908SOL    HW248198   1.168   3.034   0.924 -1.1658  3.4051 -0.3312
11909SOL     OW48199   5.019   1.381   4.816 -0.0107  0.5921  0.3978
11909SOL    HW148200   5.117   1.388   4.834  0.0312  0.4396  0.2279
11909SOL    HW248201   5.004   1.329   4.732 -0.2807 -0.9311  1.3527
11910SOL     OW48202   7.314   8.852   1.605 -0.2853  0.0622  0.5421
11910SOL    HW148203   7.302   8.767   1.657  0.6131 -0.7014 -0.4812
11910SOL    HW248204   7.274   8.928   1.656  0.2040 -0.7447  2.1574
11911SOL     OW48205   7.074   6.983   1.392 -0.8458  0.1556 -0.1724
11911SOL    HW148206   7.107   6.904   1.341 -0.6781  0.9747 -1.3530
11911SOL    HW248207   6.975   6.988   1.387 -0.9609 -0.7357  1.0392
11912SOL     OW48208   2.403   1.307   5.088 -0.5660  0.1427  0.5307
11912SOL    HW148209   2.482   1.340   5.036 -0.6518 -1.2731 -0.5260
11912SOL    HW248210   2.423   1.216   5.124 -0.9351  0.6545  2.0424
11913SOL     OW48211   2.756   4.240   7.683 -0.2658  0.5493 -0.5433
11913SOL    HW148212   2.696   4.175   7.635  1.4349 -2.1615  0.9060
11913SOL    HW248213   2.832   4.265   7.623 -0.7553  0.9640 -0.9944
11914SOL     OW48214   5.185   4.138   3.375  0.0666 -0.4746  0.3164
11914SOL    HW148215   5.213   4.210   3.438 -0.3008 -0.0174 -0.0407
11914SOL    HW248216   5.137   4.066   3.425 -1.0049  0.3055  0.4338
11915SOL     OW48217   3.779   1.608   3.858  0.1988  0.4878  0.1652
11915SOL    HW148218   3.833   1.534   3.896 -0.2638  0.8902  1.6439
11915SOL    HW248219   3.691   1.613   3.905 -0.2339  1.2443 -0.6973
11916SOL     OW48220   6.378   0.924   1.983 -0.5537  0.1544  0.0009
11916SOL    HW148221   6.370   0.869   1.899 -0.9012  0.3543 -0.0986
11916SOL    HW248222   6.469   0.964   1.987  0.4560 -2.1897  1.1746
11917SOL     OW48223   1.979   4.668   0.373 -0.0153  0.1054  0.2096
11917SOL    HW148224   2.036   4.747   0.349  0.9630 -0.2454  1.3411
11917SOL    HW248225   1.968   4.609   0.293  0.3447  0.7102 -0.2893
11918SOL     OW48226   3.134   1.207   7.482 -0.5154  0.2567  0.6102
11918SOL    HW148227   3.156   1.124   7.533 -0.6909 -0.8060 -1.0160
11918SOL    HW248228   3.184   1.284   7.521  3.2479 -1.4376 -0.7194
11919SOL     OW48229   8.720   0.495   8.805 -0.1930 -0.2240 -0.5867
11919SOL    HW148230   8.655   0.568   8.786 -1.7962 -1.3898  0.2741
11919SOL    HW248231   8.761   0.508   8.895 -2.0505 -1.4872  0.4656
11920SOL     OW48232   3.173   7.173   0.479  0.1617  0.3020  0.1966
11920SOL    HW148233   3.077   7.187   0.503  0.0951 -1.7893  1.2892
11920SOL    HW248234   3.228   7.249   0.514 -0.7219  0.1013  2.0742
11921SOL     OW48235   1.933   2.824   0.555  0.5150 -0.4049  0.3113
11921SOL    HW148236   2.002   2.891   0.581 -0.9270  1.2751 -0.1473
11921SOL    HW248237   1.936   2.810   0.456 -1.5347  1.6776 -0.0952
11922SOL     OW48238   1.376   7.795   1.361  0.7867  0.3315  0.0938
11922SOL    HW148239   1.336   7.768   1.273  0.5517  0.7934  0.0590
11922SOL    HW248240   1.325   7.872   1.398  0.5092 -0.2419  0.9226
11923SOL     OW48241   3.882   5.299   0.551 -0.1299  0.3912  0.2336
11923SOL    HW148242   3.931   5.366   0.496  0.6802 -0.0343  0.4315
11923SOL    HW248243   3.804   5.343   0.595  0.9331  1.4353  1.0964
11924SOL     OW48244   8.150   4.941   7.164  0.1887 -0.6856  0.3353
11924SOL    HW148245   8.053   4.934   7.187  0.5861 -0.4201  2.1965
11924SOL    HW248246   8.186   5.029   7.197  1.1659 -0.9821  0.0876
11925SOL     OW48247   3.285   6.827   7.823 -0.8449  0.1776  0.0804
11925SOL    HW148248   3.212   6.769   7.858 -1.1640 -0.5728 -1.7271
11925SOL    HW248249   3.246   6.897   7.764 -0.1751  0.1748 -0.3754
11926SOL     OW48250   5.692   1.702   4.255  0.1081  0.9121  0.2511
11926SOL    HW148251   5.618   1.649   4.214 -0.2144  1.2212  0.4240
11926SOL    HW248252   5.703   1.788   4.204 -0.0054  1.1031  0.5459
11927SOL     OW48253   0.727   2.970   7.611 -0.4389 -0.5578 -0.4095
11927SOL    HW148254   0.666   3.047   7.632 -1.2571 -1.0790 -0.8161
11927SOL    HW248255   0.784   2.950   7.690 -1.3533 -0.5632  0.2599
11928SOL     OW48256   1.032   1.033   1.320 -0.5172 -0.0418  0.2420
11928SOL    HW148257   1.115   1.051   1.373  0.3107  0.7056 -1.2605
11928SOL    HW248258   1.048   0.957   1.258 -0.7788  0.4419 -0.4293
11929SOL     OW48259   4.288   0.215   8.976  0.0697 -0.5027 -0.1662
11929SOL    HW148260   4.230   0.297   8.972 -0.1348 -0.6724 -0.7306
11929SOL    HW248261   4.384   0.242   8.964 -0.0194 -0.3700 -0.6021
11930SOL     OW48262   5.342   5.898   0.899 -0.2793  0.1733 -0.3028
11930SOL    HW148263   5.271   5.905   0.829  0.4316  0.2914 -1.0244
11930SOL    HW248264   5.430   5.882   0.855  0.5715  2.6971  0.3876
11931SOL     OW48265   2.995   5.987   2.651  0.5333  0.3269 -0.0276
11931SOL    HW148266   2.950   5.989   2.561 -1.3589 -0.8856  0.8421
11931SOL    HW248267   2.981   5.897   2.692  1.2939  0.9157  1.5340
11932SOL     OW48268   6.758   8.116   6.062  0.2697  0.1508 -0.8620
11932SOL    HW148269   6.808   8.069   6.134 -0.8381 -1.4758 -1.1161
11932SOL    HW248270   6.822   8.165   6.003  1.5810 -1.8474 -1.1647
11933SOL     OW48271   0.544   7.232   1.101  0.4344  0.1567  0.3296
11933SOL    HW148272   0.559   7.322   1.061  1.9052  0.1791  0.9111
11933SOL    HW248273   0.446   7.217   1.114  0.2244  1.9225  0.8445
11934SOL     OW48274   0.892   3.058   8.034 -0.2731 -0.1505 -0.8131
11934SOL    HW148275   0.975   3.095   8.075  0.2261  0.0886 -2.0231
11934SOL    HW248276   0.838   3.132   7.995  0.9240 -0.6769 -3.6000
11935SOL     OW48277   2.184   8.700   0.752  0.0832 -0.3620  0.1038
11935SOL    HW148278   2.127   8.771   0.711 -0.2811 -0.1915  0.9037
11935SOL    HW248279   2.140   8.665   0.835  1.7733  0.7673  1.5234
11936SOL     OW48280   2.463   0.155   3.254 -0.0867  0.4552 -0.7126
11936SOL    HW148281   2.418   0.169   3.342  2.4138  0.1469  0.6708
11936SOL    HW248282   2.436   0.067   3.216 -0.0840 -0.0559  0.4519
11937SOL     OW48283   4.204   2.505   4.481  0.4535  0.1979 -0.0415
11937SOL    HW148284   4.121   2.556   4.503  1.4796  1.5174  0.9032
11937SOL    HW248285   4.271   2.566   4.438  1.3859 -0.5478  0.3212
11938SOL     OW48286   5.299   6.423   8.138 -0.0053  0.0901  0.1870
11938SOL    HW148287   5.228   6.489   8.112  0.9489  0.7839 -0.7036
11938SOL    HW248288   5.373   6.471   8.185  2.0426  0.1631 -2.9843
11939SOL     OW48289   0.995   8.166   5.790  0.4829 -0.1313 -0.0516
11939SOL    HW148290   0.948   8.142   5.705  1.2482  0.7068 -0.7148
11939SOL    HW248291   0.929   8.206   5.854  0.0974  0.0974 -0.5889
11940SOL     OW48292   5.737   6.025   3.437 -0.0182 -0.2929  0.1416
11940SOL    HW148293   5.758   6.090   3.511  2.6424 -1.1285  0.1844
11940SOL    HW248294   5.715   5.936   3.477  0.7804 -0.5750 -0.0404
11941SOL     OW48295   6.755   1.988   8.728 -0.2017  0.3792  0.0140
11941SOL    HW148296   6.719   1.932   8.803 -0.8439 -0.6740 -1.0690
11941SOL    HW248297   6.716   2.080   8.733 -0.8110  0.0939  0.5401
11942SOL     OW48298   2.246   6.803   8.813 -0.4298 -0.2022 -0.0077
11942SOL    HW148299   2.245   6.803   8.713  0.6776 -1.8204 -0.0465
11942SOL    HW248300   2.155   6.825   8.848 -0.5320  1.6141 -1.3456
11943SOL     OW48301   8.393   5.947   2.815  0.9689  0.4607 -0.2636
11943SOL    HW148302   8.440   6.031   2.789 -0.5968  1.1607 -0.9126
11943SOL    HW248303   8.423   5.872   2.757  1.8940  0.7207 -0.1194
11944SOL     OW48304   2.759   2.124   6.627  0.1926 -0.0157  0.0055
11944SOL    HW148305   2.688   2.147   6.695 -0.5535 -1.5750 -0.2258
11944SOL    HW248306   2.752   2.187   6.550 -1.3519 -0.5185 -0.2892
11945SOL     OW48307   4.702   3.835   1.796  0.6071 -0.8190  0.2658
11945SOL    HW148308   4.764   3.869   1.726  0.5772 -0.2772  0.5043
11945SOL    HW248309   4.691   3.736   1.785 -0.8787 -0.4693 -1.6832
11946SOL     OW48310   2.795   7.681   0.838  0.3387  0.6244  0.3019
11946SOL    HW148311   2.699   7.690   0.864  0.5914 -0.9680  1.8361
11946SOL    HW248312   2.847   7.643   0.914  2.1439  1.1882 -0.6169
11947SOL     OW48313   8.187   7.892   7.478  0.6829 -0.5984 -0.1349
11947SOL    HW148314   8.258   7.923   7.541  1.4544 -0.6082 -0.9968
11947SOL    HW248315   8.152   7.970   7.426 -0.5554 -0.4462  0.8899
11948SOL     OW48316   3.685   4.939   8.934  0.6556 -0.0933  0.6524
11948SOL    HW148317   3.715   5.012   8.871  0.0583 -1.0689 -0.7771
11948SOL    HW248318   3.719   4.851   8.901  0.0009 -0.6624  1.4915
11949SOL     OW48319   4.409   3.126   8.347  0.2027 -0.4004 -0.7648
11949SOL    HW148320   4.373   3.167   8.431  1.5444  1.9517 -1.2790
11949SOL    HW248321   4.395   3.027   8.349 -1.8125 -0.1070  1.2082
11950SOL     OW48322   6.586   7.062   0.426 -0.0220  0.1432  0.2702
11950SOL    HW148323   6.599   7.043   0.523  0.0220 -0.2382  0.1904
11950SOL    HW248324   6.673   7.051   0.378 -0.0307  0.3892  0.1968
11951SOL     OW48325   7.628   4.564   0.364 -0.1258  0.4041  0.4033
11951SOL    HW148326   7.579   4.575   0.278 -2.0270  0.2541  1.4295
11951SOL    HW248327   7.676   4.650   0.386 -3.8731  2.3103  1.6946
11952SOL     OW48328   4.486   8.078   8.321 -0.1356  0.0245 -0.4165
11952SOL    HW148329   4.551   8.032   8.261  0.7849  0.5730  0.1489
11952SOL    HW248330   4.527   8.092   8.411 -2.0638 -2.2359  0.8767
11953SOL     OW48331   7.167   1.657   7.026 -0.2886 -0.0779 -0.3928
11953SOL    HW148332   7.093   1.598   7.060  0.1111 -0.3972 -0.0637
11953SOL    HW248333   7.131   1.718   6.957 -0.5044 -1.4104 -1.4845
11954SOL     OW48334   1.645   3.409   0.845  0.2889 -0.2721 -0.1992
11954SOL    HW148335   1.709   3.484   0.826  1.2081 -1.0575 -0.2482
11954SOL    HW248336   1.638   3.396   0.944 -0.5933  0.4861 -0.1553
11955SOL     OW48337   2.062   3.148   2.938  0.0189 -0.3942 -0.4145
11955SOL    HW148338   2.010   3.177   3.018  0.4675 -0.2621 -0.1678
11955SOL    HW248339   2.003   3.147   2.858 -0.6299 -1.2602  0.0612
11956SOL     OW48340   7.682   7.261   2.366 -0.1329 -0.1821 -0.1806
11956SOL    HW148341   7.765   7.271   2.312  1.0922 -3.8018  0.8413
11956SOL    HW248342   7.702   7.280   2.463 -0.2088 -2.0036  0.2119
11957SOL     OW48343   6.594   0.757   6.775  0.0780 -0.2047 -0.1356
11957SOL    HW148344   6.634   0.737   6.686  2.1760  1.1911  0.4500
11957SOL    HW248345   6.618   0.851   6.802  0.4235 -0.9664  2.3826
11958SOL     OW48346   7.158   4.208   1.571  0.4464 -0.0718  0.2485
11958SOL    HW148347   7.241   4.153   1.570  0.1216 -0.5582  0.1759
11958SOL    HW248348   7.178   4.298   1.612  0.7991 -0.5118  1.0557
11959SOL     OW48349   1.794   5.236   6.812  0.4219  0.0128 -0.3959
11959SOL    HW148350   1.714   5.176   6.807  0.3638  0.0119  0.4439
11959SOL    HW248351   1.765   5.331   6.796  0.0556  0.1559  1.0169
11960SOL     OW48352   1.642   3.778   6.502  0.9251 -0.0416  0.8925
11960SOL    HW148353   1.626   3.684   6.473 -1.8077  0.2541  1.2378
11960SOL    HW248354   1.713   3.819   6.445  0.8869 -1.7696 -0.4463
11961SOL     OW48355   2.183   0.163   8.034 -0.6508 -0.2676  0.2607
11961SOL    HW148356   2.143   0.110   8.109 -1.6370 -0.5068 -0.4143
11961SOL    HW248357   2.222   0.100   7.966  2.7974  0.0096  1.9193
11962SOL     OW48358   4.498   5.205   5.949  0.3604  0.4312  0.2158
11962SOL    HW148359   4.567   5.277   5.957 -0.0711  0.8710  0.0078
11962SOL    HW248360   4.512   5.155   5.863 -0.2186  1.1978 -0.3305
11963SOL     OW48361   1.048   4.499   5.589  0.0551 -0.0813  0.1821
11963SOL    HW148362   1.054   4.448   5.504  0.1363  2.5803 -1.4830
11963SOL    HW248363   0.953   4.522   5.608 -0.0565 -1.4071  1.2910
11964SOL     OW48364   4.590   1.643   6.703 -0.5420 -0.5241  0.5534
11964SOL    HW148365   4.535   1.719   6.737 -1.6224 -1.3932  0.7782
11964SOL    HW248366   4.668   1.628   6.763 -1.3734 -0.8111  1.5704
11965SOL     OW48367   2.561   2.390   2.451  0.0455  0.2567  0.2326
11965SOL    HW148368   2.539   2.293   2.457 -0.5218  0.4678  1.9875
11965SOL    HW248369   2.523   2.428   2.367  0.1928 -1.0095 -0.4200
11966SOL     OW48370   2.776   8.757   8.502  0.0856  0.5343  0.3455
11966SOL    HW148371   2.864   8.711   8.487 -0.5429 -0.7909  0.6440
11966SOL    HW248372   2.743   8.795   8.416  0.0898 -0.5427 -0.1431
11967SOL     OW48373   4.776   7.929   2.529  0.6511  0.2831 -0.5598
11967SOL    HW148374   4.767   7.971   2.438  1.8043  0.0952 -0.7755
11967SOL    HW248375   4.864   7.956   2.569  1.2228 -1.5780 -0.5187
11968SOL     OW48376   1.098   7.208   8.498 -0.2654 -0.3688 -0.2601
11968SOL    HW148377   1.132   7.167   8.414  0.9877 -0.8301  0.4425
11968SOL    HW248378   0.999   7.215   8.495 -0.2629 -0.7902 -1.5782
11969SOL     OW48379   3.404   5.884   1.700 -0.1520  0.0907 -0.4088
11969SOL    HW148380   3.418   5.948   1.775 -1.3467 -0.1217  0.0112
11969SOL    HW248381   3.481   5.889   1.636  0.4068  0.9599  0.3273
11970SOL     OW48382   1.825   3.729   2.579  0.7092  0.6279  0.1483
11970SOL    HW148383   1.845   3.659   2.511 -0.2970 -2.3294  2.8005
11970SOL    HW248384   1.909   3.754   2.627  1.0225  1.0647 -0.6203
11971SOL     OW48385   3.807   6.080   0.069  0.6046 -0.4658  0.3314
11971SOL    HW148386   3.741   6.134   0.121 -0.9738 -0.8470 -1.2415
11971SOL    HW248387   3.819   5.991   0.112 -0.3288 -0.5989  0.3189
11972SOL     OW48388   8.313   6.021   6.128  0.3372  0.2893  0.0171
11972SOL    HW148389   8.317   5.963   6.047 -0.5884  1.6282 -0.9969
11972SOL    HW248390   8.404   6.060   6.145  0.2552  1.0389 -1.1637
11973SOL     OW48391   0.517   8.297   3.130  0.0208 -0.2756  0.4380
11973SOL    HW148392   0.448   8.247   3.183  1.0131 -3.1957 -0.9566
11973SOL    HW248393   0.524   8.390   3.165 -3.0130 -0.5995  2.0784
11974SOL     OW48394   0.412   6.250   5.459 -0.4920  0.4479 -0.3933
11974SOL    HW148395   0.480   6.194   5.506 -1.7413 -0.5784  0.2272
11974SOL    HW248396   0.366   6.310   5.524 -0.2791  1.0477 -0.7864
11975SOL     OW48397   3.815   3.157   7.745  0.4570  0.5936  0.4557
11975SOL    HW148398   3.745   3.225   7.767 -0.5079 -0.4122  0.5016
11975SOL    HW248399   3.844   3.111   7.829  0.6889  0.5479  0.3495
11976SOL     OW48400   1.292   3.684   4.715  0.9437  0.5820 -0.0920
11976SOL    HW148401   1.320   3.767   4.763 -1.0352  1.2172  0.0146
11976SOL    HW248402   1.283   3.609   4.781 -1.0658  1.2748  0.4574
11977SOL     OW48403   4.458   0.587   8.560 -0.0878  0.4446  0.2277
11977SOL    HW148404   4.408   0.505   8.589 -1.3087  1.2533  0.4301
11977SOL    HW248405   4.474   0.582   8.462 -2.5145  1.1885 -0.2458
11978SOL     OW48406   0.046   6.025   5.489  0.3965  0.0072 -0.6000
11978SOL    HW148407   0.070   6.017   5.392  0.9782 -2.7354 -0.2768
11978SOL    HW248408   0.029   5.934   5.527  1.0612  0.9436  2.0925
11979SOL     OW48409   6.530   5.780   1.507 -0.6833 -0.0213  0.2399
11979SOL    HW148410   6.436   5.767   1.537 -1.1583 -1.8967 -1.9251
11979SOL    HW248411   6.531   5.804   1.409  1.0644  0.2515  0.2998
11980SOL     OW48412   2.957   3.855   3.492  0.0315 -0.3429 -0.3494
11980SOL    HW148413   2.910   3.810   3.417  2.2205 -1.5072 -1.0725
11980SOL    HW248414   3.052   3.824   3.496 -0.0408 -0.3899  2.9591
11981SOL     OW48415   3.450   5.912   5.273  0.7399  0.5738 -0.2173
11981SOL    HW148416   3.354   5.942   5.266  0.7785  1.0032  1.0427
11981SOL    HW248417   3.461   5.827   5.222 -0.0255  1.1716 -1.4232
11982SOL     OW48418   0.135   4.317   5.533  0.3411 -0.2081 -0.1996
11982SOL    HW148419   0.066   4.317   5.605  0.9460 -1.1374  0.3876
11982SOL    HW248420   0.139   4.227   5.490  0.5309  0.1176 -0.8711
11983SOL     OW48421   7.506   7.876   1.325 -0.0680 -0.3220 -0.0585
11983SOL    HW148422   7.585   7.876   1.387 -0.4095 -1.5320  0.3892
11983SOL    HW248423   7.454   7.960   1.338  2.4405  1.6256 -2.0591
11984SOL     OW48424   5.325   2.720   4.417  0.4232  0.1648  0.2055
11984SOL    HW148425   5.242   2.673   4.388  0.0768  1.2362 -0.5485
11984SOL    HW248426   5.347   2.694   4.511 -1.2425  0.5318  0.7060
11985SOL     OW48427   1.674   2.036   0.578  0.5860 -0.6105  0.5325
11985SOL    HW148428   1.586   1.989   0.581 -0.2801  0.8675 -0.6923
11985SOL    HW248429   1.711   2.032   0.485  0.6625  0.8123  0.4941
11986SOL     OW48430   5.125   6.677   4.082  0.5131 -0.0222  0.0707
11986SOL    HW148431   5.078   6.692   4.169 -0.6584 -0.9097 -0.4066
11986SOL    HW248432   5.160   6.764   4.048  0.2752  0.4545  1.0331
11987SOL     OW48433   1.293   4.382   2.106  0.3088  0.4483  0.5916
11987SOL    HW148434   1.280   4.462   2.046  1.4671  0.8441  0.8644
11987SOL    HW248435   1.206   4.333   2.114  0.4181 -0.3641 -2.4638
11988SOL     OW48436   3.805   3.155   5.335 -0.0955  0.4718 -0.3711
11988SOL    HW148437   3.825   3.253   5.335 -0.5016  0.5657  0.4661
11988SOL    HW248438   3.712   3.139   5.301  0.4249  0.2664 -1.7099
11989SOL     OW48439   3.772   2.966   1.594  0.2546 -0.3968 -0.0716
11989SOL    HW148440   3.743   2.895   1.658  0.1636  0.7234  1.1568
11989SOL    HW248441   3.695   3.025   1.571  0.7676  0.5220  0.5164
11990SOL     OW48442   0.147   4.755   4.958 -0.5808  0.1363  0.1376
11990SOL    HW148443   0.173   4.719   5.047  0.7288  0.1354 -0.2442
11990SOL    HW248444   0.228   4.770   4.902 -1.0293  3.6584  0.2716
11991SOL     OW48445   2.913   3.588   4.644  0.2335 -0.8899  0.2550
11991SOL    HW148446   2.930   3.608   4.548  1.8485  0.5708  0.8200
11991SOL    HW248447   2.946   3.496   4.665  0.8553 -0.8133 -0.3545
11992SOL     OW48448   8.097   8.237   3.751  0.0817  0.4524 -0.5894
11992SOL    HW148449   8.104   8.213   3.848  1.1183 -1.7522 -1.1837
11992SOL    HW248450   8.155   8.176   3.697 -1.6867  0.6225 -2.7610
11993SOL     OW48451   4.693   5.006   4.217 -0.4586  0.2855  0.4524
11993SOL    HW148452   4.602   5.034   4.244  0.5795  2.0379  2.2453
11993SOL    HW248453   4.739   5.083   4.171  0.3548 -0.3668  0.1660
11994SOL     OW48454   1.832   5.161   6.365  0.4119 -0.0325 -0.6122
11994SOL    HW148455   1.828   5.241   6.425 -1.8580  0.8078 -1.8424
11994SOL    HW248456   1.855   5.080   6.419  1.0808  1.1590  0.9210
11995SOL     OW48457   4.075   6.506   8.003  0.0724  0.4227 -0.4042
11995SOL    HW148458   4.114   6.459   7.924  0.4713 -1.0245  0.6239
11995SOL    HW248459   3.998   6.453   8.039 -1.2354  1.9651 -0.8763
11996SOL     OW48460   1.416   2.977   0.520  0.1101 -0.6962  0.1656
11996SOL    HW148461   1.467   2.920   0.585 -1.5443 -2.0198  0.3472
11996SOL    HW248462   1.320   2.983   0.549 -0.2753  0.1171 -1.2344
11997SOL     OW48463   0.422   1.951   7.867  0.0155  0.7447  0.2690
11997SOL    HW148464   0.387   2.000   7.787  0.2191  0.2173 -0.1465
11997SOL    HW248465   0.366   1.870   7.883  1.2525 -0.3220 -0.6359
11998SOL     OW48466   7.920   2.490   1.354  0.8637  0.9771 -0.4765
11998SOL    HW148467   7.987   2.418   1.374  0.7571  1.2438  0.8864
11998SOL    HW248468   7.957   2.578   1.383 -0.2159  1.0731  0.6404
11999SOL     OW48469   2.165   6.085   8.753  0.8067 -0.4884  0.0669
11999SOL    HW148470   2.142   6.166   8.808  1.4601  0.3937 -0.9477
11999SOL    HW248471   2.199   6.013   8.813 -2.3369 -1.0143  1.3515
12000SOL     OW48472   0.347   1.214   6.221  0.3779  0.4225  0.6665
12000SOL    HW148473   0.427   1.221   6.281 -0.8709 -1.1579  2.5902
12000SOL    HW248474   0.332   1.118   6.199 -1.3647  0.6512  0.8527
12001SOL     OW48475   2.455   2.792   8.877  0.2974 -0.0626 -0.1020
12001SOL    HW148476   2.547   2.795   8.916  0.6105  0.8731 -0.8848
12001SOL    HW248477   2.444   2.868   8.813 -0.8017 -0.5562 -0.5051
12002SOL     OW48478   8.229   3.833   7.882  0.3436  0.1512  0.1299
12002SOL    HW148479   8.221   3.742   7.921  0.8428  0.1717  0.2876
12002SOL    HW248480   8.174   3.839   7.798 -0.6071  0.0665  0.7449
12003SOL     OW48481   2.056   0.501   4.822 -0.1967 -0.0504 -0.6440
12003SOL    HW148482   2.064   0.591   4.865  0.4027  0.2136 -1.3072
12003SOL    HW248483   2.093   0.431   4.884  1.0453  0.3739 -0.8947
12004SOL     OW48484   4.452   5.490   7.662 -0.6292  0.1210 -0.3358
12004SOL    HW148485   4.469   5.414   7.724 -2.0843  0.3186  0.3268
12004SOL    HW248486   4.486   5.467   7.570 -1.5197 -1.5323 -0.2631
12005SOL     OW48487   2.131   1.198   0.137  0.4896 -0.8245  0.0242
12005SOL    HW148488   2.050   1.183   0.194 -0.0704 -0.4502 -0.6666
12005SOL    HW248489   2.103   1.209   0.041  1.1102  1.8888  0.1060
12006SOL     OW48490   3.881   3.685   6.242 -0.2431 -0.2969  0.2120
12006SOL    HW148491   3.863   3.694   6.340  2.3387  1.1356  0.5816
12006SOL    HW248492   3.805   3.726   6.191 -0.9078  0.2380  1.6033
12007SOL     OW48493   6.162   8.840   0.297  0.1429 -0.2746  0.2007
12007SOL    HW148494   6.260   8.857   0.286 -0.3455  0.0666 -4.5471
12007SOL    HW248495   6.113   8.926   0.294 -0.4831 -0.6085  0.7245
12008SOL     OW48496   6.696   8.624   1.062 -0.3780 -0.3720  0.0319
12008SOL    HW148497   6.699   8.713   1.017 -0.5801 -0.3143  0.1326
12008SOL    HW248498   6.621   8.622   1.127 -1.6805 -1.3215 -1.4639
12009SOL     OW48499   8.276   4.090   7.769  0.5547 -0.2718 -0.0943
12009SOL    HW148500   8.282   4.059   7.674  2.5114  0.3372 -0.2118
12009SOL    HW248501   8.304   4.016   7.830 -1.0320 -0.7709  0.0346
12010SOL     OW48502   0.100   6.477   2.079  0.3191 -0.3033  0.2397
12010SOL    HW148503   0.181   6.536   2.071 -0.7795  1.5166  2.1703
12010SOL    HW248504   0.065   6.481   2.172 -1.6725 -1.5489 -0.4258
12011SOL     OW48505   1.301   2.040   8.205 -0.6640  0.1130 -0.3295
12011SOL    HW148506   1.298   2.128   8.158  2.4275  0.6581  0.4039
12011SOL    HW248507   1.236   2.040   8.281 -0.6198  1.8163 -0.2802
12012SOL     OW48508   0.438   3.551   3.775  0.1323 -0.4318 -0.2456
12012SOL    HW148509   0.353   3.564   3.722 -0.3986  0.0909  0.7306
12012SOL    HW248510   0.515   3.588   3.723 -0.3888  0.1189 -0.6348
12013SOL     OW48511   5.568   0.727   4.089 -0.1011 -1.0706  0.4748
12013SOL    HW148512   5.661   0.720   4.052  0.8813 -2.6371  3.0526
12013SOL    HW248513   5.528   0.636   4.097 -0.8785 -0.6365  1.7098
12014SOL     OW48514   5.004   6.316   7.309  0.0903  0.1193 -0.2959
12014SOL    HW148515   4.946   6.257   7.253 -0.3677 -0.1016  0.4008
12014SOL    HW248516   5.051   6.382   7.251 -1.5930  0.9250 -0.7940
12015SOL     OW48517   4.706   8.096   5.327  0.0604  0.4135  0.0165
12015SOL    HW148518   4.678   8.190   5.308  1.1140  1.3966  2.9653
12015SOL    HW248519   4.634   8.050   5.380 -0.4711 -0.4837 -1.4526
12016SOL     OW48520   8.621   3.223   5.028  0.1914  0.0120 -0.1590
12016SOL    HW148521   8.541   3.170   4.999 -1.0975  1.3851  0.8255
12016SOL    HW248522   8.642   3.203   5.123 -0.0735  0.9875  0.1065
12017SOL     OW48523   2.989   6.355   4.874 -0.1345  0.3199 -0.1549
12017SOL    HW148524   2.913   6.328   4.814  0.1769  0.2833 -0.5370
12017SOL    HW248525   2.965   6.337   4.969 -1.2620  1.8355 -0.1281
12018SOL     OW48526   3.515   4.309   8.688  0.1485 -0.2241 -0.2665
12018SOL    HW148527   3.574   4.243   8.736 -0.3810 -0.7758 -0.3686
12018SOL    HW248528   3.571   4.384   8.653  1.1276 -1.8098 -2.2199
12019SOL     OW48529   3.095   4.750   2.308 -0.0233  0.2770  0.0831
12019SOL    HW148530   3.129   4.824   2.367  0.3658  1.4805 -1.5952
12019SOL    HW248531   2.995   4.756   2.301  0.0274  0.8297 -0.2506
12020SOL     OW48532   1.292   5.748   5.271  0.4790 -0.1678 -0.1581
12020SOL    HW148533   1.303   5.698   5.185  0.8934  1.5882 -1.1420
12020SOL    HW248534   1.250   5.837   5.254 -0.7757 -0.3844  1.6487
12021SOL     OW48535   1.624   0.745   0.013  0.0457 -0.3157  0.1844
12021SOL    HW148536   1.708   0.784   0.050 -0.2515  0.5547 -0.0494
12021SOL    HW248537   1.592   0.672   0.073  0.5826 -0.1721  0.6479
12022SOL     OW48538   5.064   4.221   4.337  0.0673  0.4008  0.2769
12022SOL    HW148539   5.128   4.259   4.403  1.8736 -0.2663 -1.0438
12022SOL    HW248540   5.039   4.292   4.271  0.7506  0.2277 -0.1738
12023SOL     OW48541   2.390   4.190   4.196 -0.2877  0.0747 -0.1960
12023SOL    HW148542   2.431   4.181   4.105 -1.0874  0.8267 -0.6415
12023SOL    HW248543   2.291   4.200   4.187 -0.2967  0.8692  0.7142
12024SOL     OW48544   6.705   3.573   5.080 -0.0686 -0.0332 -0.1303
12024SOL    HW148545   6.712   3.486   5.129 -0.0494 -0.6400 -1.1762
12024SOL    HW248546   6.790   3.590   5.031  0.5780  1.4723  1.5153
12025SOL     OW48547   7.527   3.793   4.874  0.1267 -0.2021  0.4727
12025SOL    HW148548   7.603   3.845   4.912 -0.9524  2.0253 -0.3503
12025SOL    HW248549   7.441   3.826   4.913 -0.6671 -0.5839 -0.9117
12026SOL     OW48550   0.577   7.675   7.468 -0.2329  0.4243 -0.5327
12026SOL    HW148551   0.517   7.677   7.548  1.7273  0.4474  1.0044
12026SOL    HW248552   0.671   7.659   7.499  0.5337  0.3005 -2.8709
12027SOL     OW48553   4.942   4.271   0.806 -0.0239  0.7392 -0.3600
12027SOL    HW148554   4.934   4.367   0.779 -0.9657  0.7373 -0.0947
12027SOL    HW248555   4.968   4.216   0.726  0.5587  1.2107 -0.5030
12028SOL     OW48556   3.730   1.331   8.185 -0.5413  0.0450  0.1623
12028SOL    HW148557   3.708   1.243   8.227  0.9489 -1.0786 -1.3279
12028SOL    HW248558   3.813   1.321   8.130 -1.0997  2.0641 -1.0792
12029SOL     OW48559   1.381   4.070   5.385 -0.0953 -0.0449  0.2743
12029SOL    HW148560   1.368   4.154   5.438  0.6134  1.9935 -2.6676
12029SOL    HW248561   1.328   4.076   5.300  0.0369 -2.5385  0.0034
12030SOL     OW48562   4.005   4.317   5.502  0.1035 -0.1986  0.7356
12030SOL    HW148563   3.909   4.318   5.530 -0.5135 -1.9256 -1.2317
12030SOL    HW248564   4.053   4.243   5.548 -0.1264 -0.9308 -0.1789
12031SOL     OW48565   7.569   5.623   7.259  0.5699 -1.0427 -0.2925
12031SOL    HW148566   7.515   5.707   7.265 -0.7782 -1.9883  1.1973
12031SOL    HW248567   7.599   5.596   7.350 -1.2970 -3.6050 -0.3892
12032SOL     OW48568   4.922   6.965   2.759 -0.4108 -0.4057 -0.1458
12032SOL    HW148569   4.962   6.947   2.849 -0.1718 -0.0532 -0.1832
12032SOL    HW248570   4.947   7.056   2.728  2.4513 -1.8121 -2.1624
12033SOL     OW48571   5.893   7.647   8.703  0.2468  0.0631  0.1803
12033SOL    HW148572   5.927   7.740   8.718  0.1325  0.2640 -0.7513
12033SOL    HW248573   5.971   7.586   8.685  0.2585  0.1509 -0.0705
12034SOL     OW48574   5.267   5.100   7.666  0.5226 -0.3199  0.1375
12034SOL    HW148575   5.266   5.152   7.581 -1.0920 -0.7141 -0.0914
12034SOL    HW248576   5.356   5.054   7.676  0.1980 -1.4836 -2.0717
12035SOL     OW48577   0.468   3.437   8.775  0.4225 -0.1188 -0.7914
12035SOL    HW148578   0.474   3.537   8.780  0.4464 -0.1047 -1.1224
12035SOL    HW248579   0.395   3.411   8.712 -1.4968 -0.3028  1.4566
12036SOL     OW48580   4.952   7.546   0.079  0.0305 -0.3176 -0.0039
12036SOL    HW148581   4.902   7.474   0.127 -1.7955 -0.0628 -1.4603
12036SOL    HW248582   5.046   7.516   0.063  0.0507 -1.2794  1.7577
12037SOL     OW48583   6.972   8.774   1.394 -0.1781  0.0765 -0.4055
12037SOL    HW148584   6.879   8.798   1.366  0.8371  2.4396 -1.9444
12037SOL    HW248585   6.986   8.804   1.488 -1.4217 -1.6179  0.3367
12038SOL     OW48586   1.176   3.637   7.274 -0.0060 -0.2042 -0.1838
12038SOL    HW148587   1.230   3.706   7.321  0.3943 -1.3741  1.1435
12038SOL    HW248588   1.211   3.622   7.182  0.2277  0.9683 -0.2838
12039SOL     OW48589   1.515   4.557   0.160  0.0980 -0.6177 -0.2461
12039SOL    HW148590   1.446   4.551   0.087 -0.6950 -1.7783  0.5954
12039SOL    HW248591   1.497   4.639   0.215  0.1298 -0.2588 -0.7558
12040SOL     OW48592   3.919   5.584   1.532 -0.3139 -0.1636 -0.0415
12040SOL    HW148593   4.000   5.527   1.545 -0.4523 -0.1132  1.0775
12040SOL    HW248594   3.840   5.525   1.513  0.1274 -0.1697 -1.8738
12041SOL     OW48595   7.160   6.184   8.061 -0.0414 -0.2564 -0.4933
12041SOL    HW148596   7.149   6.237   8.145 -1.2687 -1.5802  0.2077
12041SOL    HW248597   7.190   6.244   7.987 -0.9831  1.3180  0.3785
12042SOL     OW48598   6.775   8.492   8.241  0.7231 -0.2073  0.1901
12042SOL    HW148599   6.717   8.507   8.161  1.3565 -1.4538 -0.5256
12042SOL    HW248600   6.719   8.490   8.323 -0.4064 -2.4352 -0.5999
12043SOL     OW48601   5.690   3.886   1.339  0.0743  0.6330 -0.1559
12043SOL    HW148602   5.621   3.951   1.372 -2.2804 -2.2947  0.9711
12043SOL    HW248603   5.704   3.815   1.408  1.3371 -0.9604 -2.0220
12044SOL     OW48604   5.337   2.119   3.425 -0.2277 -0.0684  0.3271
12044SOL    HW148605   5.389   2.125   3.341 -1.6955  0.4086 -0.5714
12044SOL    HW248606   5.239   2.125   3.404 -0.5915  0.3974  2.0905
12045SOL     OW48607   4.251   6.859   2.127 -0.2240 -0.3123 -0.1501
12045SOL    HW148608   4.249   6.847   2.028  1.5943 -0.5326 -0.1888
12045SOL    HW248609   4.311   6.937   2.150 -0.6549 -0.2417  0.7698
12046SOL     OW48610   3.095   4.111   5.204  0.0482  0.4776 -0.0013
12046SOL    HW148611   3.015   4.136   5.148 -0.1782  1.6198  0.8007
12046SOL    HW248612   3.131   4.023   5.174 -1.3705  0.0633 -0.5418
12047SOL     OW48613   1.112   2.610   8.063 -0.4038  0.4502  0.2912
12047SOL    HW148614   1.140   2.630   8.157  0.2696  0.5217  0.0821
12047SOL    HW248615   1.017   2.637   8.050 -0.3775  0.8191  0.8402
12048SOL     OW48616   6.977   3.195   6.417  0.1068  0.0522  0.3430
12048SOL    HW148617   7.048   3.166   6.352 -1.4415 -0.5333 -1.1116
12048SOL    HW248618   6.908   3.250   6.370 -1.5081 -1.1052  1.2993
12049SOL     OW48619   0.538   5.737   3.788  0.5879 -0.2449  0.3001
12049SOL    HW148620   0.569   5.662   3.847  0.5935 -0.9929 -0.6306
12049SOL    HW248621   0.469   5.702   3.724  0.7427  0.4951 -0.2782
12050SOL     OW48622   3.570   0.173   8.724 -0.5332  0.5448  0.0153
12050SOL    HW148623   3.629   0.248   8.755 -0.8872  1.1364 -0.7159
12050SOL    HW248624   3.513   0.205   8.648 -2.7679  0.3912  1.5922
12051SOL     OW48625   8.821   4.496   4.980 -0.1053  0.4829  0.0654
12051SOL    HW148626   8.890   4.429   5.009  1.1426  1.3974 -0.7053
12051SOL    HW248627   8.741   4.448   4.945  0.4340 -0.6073  0.2915
12052SOL     OW48628   0.552   2.787   0.454 -0.2104  0.3753  0.1219
12052SOL    HW148629   0.515   2.694   0.458 -1.7326  0.9278 -0.6223
12052SOL    HW248630   0.498   2.847   0.514 -0.0087  1.0288 -0.3477
12053SOL     OW48631   8.868   8.318   1.141 -0.1256 -0.4426 -0.6880
12053SOL    HW148632   8.876   8.275   1.231 -1.0428 -0.9602 -0.8561
12053SOL    HW248633   8.883   8.417   1.151  0.0265 -0.5279 -0.0061
12054SOL     OW48634   2.898   5.837   5.524 -0.5487  0.1270 -0.4526
12054SOL    HW148635   2.944   5.865   5.440  0.3047 -0.3257 -0.1409
12054SOL    HW248636   2.879   5.918   5.580 -1.0730  0.4241 -1.0445
12055SOL     OW48637   0.693   2.551   5.606 -0.5840  0.3788  0.0542
12055SOL    HW148638   0.722   2.643   5.577 -0.6321 -0.1008 -1.5785
12055SOL    HW248639   0.624   2.516   5.543  1.6203 -1.9979 -1.1554
12056SOL     OW48640   2.315   4.385   6.699 -0.6776  0.1204  0.1129
12056SOL    HW148641   2.400   4.348   6.737 -0.5308 -0.4225 -0.7146
12056SOL    HW248642   2.250   4.402   6.772  0.2912  0.9161  0.7983
12057SOL     OW48643   0.336   8.578   4.171  0.1821  0.3589  0.1376
12057SOL    HW148644   0.343   8.500   4.109 -1.5395  0.0179  0.3418
12057SOL    HW248645   0.423   8.627   4.174  0.4489  0.0569 -2.1262
12058SOL     OW48646   5.457   0.125   8.551  0.4777 -0.5861 -0.2406
12058SOL    HW148647   5.372   0.167   8.585 -0.6589 -2.7023 -0.4020
12058SOL    HW248648   5.465   0.142   8.453  1.7092  2.0478  0.2752
12059SOL     OW48649   7.837   3.758   8.656  0.4047 -0.4711 -0.5191
12059SOL    HW148650   7.863   3.826   8.588  2.3926 -1.8568 -1.2099
12059SOL    HW248651   7.882   3.778   8.743 -2.2474  1.3796  0.4803
12060SOL     OW48652   2.656   2.411   1.265 -0.2091 -0.0420  0.3860
12060SOL    HW148653   2.574   2.420   1.322 -0.3114 -1.6365  0.5289
12060SOL    HW248654   2.725   2.357   1.314  0.6828  0.7255  0.0011
12061SOL     OW48655   5.437   8.412   8.962 -0.7177 -0.3919  0.2793
12061SOL    HW148656   5.411   8.316   8.953  1.4905 -0.9414 -0.6304
12061SOL    HW248657   5.470   8.429   9.055 -0.5884 -0.6373  0.2774
12062SOL     OW48658   3.976   0.387   2.542  0.5309  0.1198  0.4430
12062SOL    HW148659   3.962   0.420   2.635  0.5250 -2.0207  1.2235
12062SOL    HW248660   4.065   0.342   2.535  0.1131 -0.6112 -0.3062
12063SOL     OW48661   4.949   3.418   7.015 -0.3744  0.0220  0.1168
12063SOL    HW148662   4.938   3.327   6.975 -1.5540 -0.3211  1.1997
12063SOL    HW248663   4.859   3.456   7.036  0.1510  1.0551  0.5216
12064SOL     OW48664   6.907   5.989   3.727 -0.2212 -0.2551 -1.0051
12064SOL    HW148665   6.947   6.003   3.818  0.1735  0.2684 -1.2588
12064SOL    HW248666   6.863   5.899   3.724  0.2201 -0.4914 -0.4644
12065SOL     OW48667   4.359   5.158   1.764 -0.4721  0.2338  0.7181
12065SOL    HW148668   4.358   5.252   1.728  0.2738 -0.5697 -1.4183
12065SOL    HW248669   4.340   5.161   1.862  0.8298  2.7429  0.9431
12066SOL     OW48670   5.086   2.556   7.101  0.0333  0.4647  0.6337
12066SOL    HW148671   5.106   2.459   7.117  0.2566  0.0072 -2.0917
12066SOL    HW248672   4.987   2.570   7.096 -0.0154  0.4948  1.6866
12067SOL     OW48673   3.863   7.721   7.788 -0.3710 -0.5045 -0.2268
12067SOL    HW148674   3.949   7.683   7.821 -0.4147 -0.3199  0.1029
12067SOL    HW248675   3.803   7.740   7.866  0.3746  2.0207 -0.2325
12068SOL     OW48676   2.353   0.634   6.604  0.1314 -0.2838 -0.2005
12068SOL    HW148677   2.334   0.537   6.591  0.9416 -0.5503  0.5292
12068SOL    HW248678   2.442   0.645   6.648  0.9511  0.8749 -2.1121
12069SOL     OW48679   5.160   2.847   5.459 -0.2189  0.2605 -0.7145
12069SOL    HW148680   5.225   2.911   5.419  0.0273  1.0392  0.8759
12069SOL    HW248681   5.209   2.764   5.487  0.4697  1.5357  2.0651
12070SOL     OW48682   7.054   5.906   0.366  0.4894  0.3774  0.3046
12070SOL    HW148683   7.109   5.922   0.283  1.6506 -0.0764  0.9809
12070SOL    HW248684   7.112   5.916   0.446 -0.6860  1.0136  1.0834
12071SOL     OW48685   7.053   0.432   7.578  0.4761 -0.3356  0.1224
12071SOL    HW148686   7.012   0.523   7.573  0.9109 -0.1987 -1.0881
12071SOL    HW248687   7.007   0.371   7.514 -1.0975 -1.5110  2.2943
12072SOL     OW48688   5.872   4.985   4.215 -0.3845  0.4607  0.1096
12072SOL    HW148689   5.888   4.891   4.187 -0.3464 -0.0254  1.6723
12072SOL    HW248690   5.955   5.039   4.202  0.7848 -0.6188  2.5913
12073SOL     OW48691   1.870   7.669   0.050 -0.0096  0.1368 -0.0206
12073SOL    HW148692   1.951   7.721   0.079 -0.7062  1.3754 -0.2549
12073SOL    HW248693   1.798   7.680   0.118 -1.5169  2.7220 -1.9783
12074SOL     OW48694   0.277   8.602   7.089 -0.0274 -0.1774  0.4434
12074SOL    HW148695   0.269   8.544   7.008 -1.1661  1.8711 -0.9725
12074SOL    HW248696   0.185   8.626   7.121  0.4246  0.1580  1.5037
12075SOL     OW48697   3.694   2.753   1.161  0.7531 -0.0289  0.0335
12075SOL    HW148698   3.763   2.689   1.127  1.8910  0.3498  1.5473
12075SOL    HW248699   3.660   2.720   1.249 -0.0320  0.4810 -0.0805
12076SOL     OW48700   2.077   0.451   7.750 -0.6602 -0.7282  0.0775
12076SOL    HW148701   2.081   0.457   7.650  0.4269  0.3767  0.1752
12076SOL    HW248702   2.020   0.373   7.776 -0.8440 -1.1118 -1.4036
12077SOL     OW48703   4.522   7.685   8.317  0.0360  0.9062  0.0008
12077SOL    HW148704   4.603   7.724   8.359 -0.5346  1.4273  0.6413
12077SOL    HW248705   4.548   7.627   8.240  1.0505  0.4245  0.7048
12078SOL     OW48706   2.945   8.612   5.867 -0.4429 -0.4303 -0.1201
12078SOL    HW148707   2.900   8.701   5.863 -1.2628 -0.8517 -0.6263
12078SOL    HW248708   2.875   8.540   5.875  0.2381 -0.9853  0.9034
12079SOL     OW48709   8.889   5.552   5.353 -0.1041 -0.4952 -0.1549
12079SOL    HW148710   8.852   5.468   5.394  1.5774 -0.5329  1.3192
12079SOL    HW248711   8.919   5.533   5.260  1.4495 -1.8557  0.6062
12080SOL     OW48712   5.723   7.422   7.459 -0.0087  0.2857 -0.3524
12080SOL    HW148713   5.657   7.454   7.391 -0.1012  3.0245  0.9497
12080SOL    HW248714   5.675   7.384   7.538 -0.1916  3.4745  1.1779
12081SOL     OW48715   2.904   7.027   7.687  0.2557 -0.1790  0.0066
12081SOL    HW148716   2.866   6.946   7.731  0.9574 -1.0923 -1.0552
12081SOL    HW248717   2.857   7.043   7.600  0.5558  0.1868 -0.0899
12082SOL     OW48718   2.853   8.949   8.721  0.0177 -0.4208 -0.2602
12082SOL    HW148719   2.875   9.025   8.659 -0.0612  0.3618  0.6639
12082SOL    HW248720   2.784   8.891   8.678 -0.9140  0.7812 -0.4106
12083SOL     OW48721   4.700   2.016   0.970 -0.4553 -0.0015  0.2334
12083SOL    HW148722   4.645   2.098   0.963  1.7507  1.4273 -0.8187
12083SOL    HW248723   4.677   1.953   0.896 -1.6111 -0.0004  0.5941
12084SOL     OW48724   2.978   4.486   4.129  0.2389 -0.1817 -0.3350
12084SOL    HW148725   2.892   4.454   4.089 -0.1576 -0.3969  0.6877
12084SOL    HW248726   2.988   4.449   4.221  0.9471  0.6689 -0.0650
12085SOL     OW48727   5.105   4.085   5.116 -0.1126  0.4386  0.1384
12085SOL    HW148728   5.165   4.007   5.137  0.6776  1.3139  1.1957
12085SOL    HW248729   5.061   4.117   5.200 -1.3789  0.3769 -0.4895
12086SOL     OW48730   1.703   1.724   2.010 -0.2247 -0.5976  0.0420
12086SOL    HW148731   1.733   1.773   1.929 -0.6827  0.0760  0.2687
12086SOL    HW248732   1.607   1.745   2.028 -0.6579 -2.2164 -0.3137
12087SOL     OW48733   0.699   0.381   6.429 -0.0913  0.0669 -1.1887
12087SOL    HW148734   0.709   0.381   6.329  0.2604 -0.0059 -1.1551
12087SOL    HW248735   0.619   0.435   6.455  0.3363  0.8457 -1.4632
12088SOL     OW48736   7.714   0.138   7.575 -0.0730 -0.0600  0.1582
12088SOL    HW148737   7.687   0.218   7.521  1.8564 -0.0913 -0.8966
12088SOL    HW248738   7.704   0.158   7.672  1.1927  1.7821 -0.0590
12089SOL     OW48739   4.383   2.730   2.856 -0.0165 -0.1876  0.2790
12089SOL    HW148740   4.306   2.750   2.794  0.3357 -1.5628 -0.6151
12089SOL    HW248741   4.367   2.642   2.900 -0.5391  1.0368  2.6113
12090SOL     OW48742   1.353   5.465   8.480 -0.1053 -0.0849  0.2711
12090SOL    HW148743   1.291   5.449   8.403 -0.7109 -0.4443  0.8311
12090SOL    HW248744   1.400   5.380   8.504 -0.6624 -0.2145  0.9370
12091SOL     OW48745   0.029   4.421   7.516  0.1147  0.5219  0.7713
12091SOL    HW148746  -0.012   4.469   7.593 -2.5804 -1.9893  0.9506
12091SOL    HW248747  -0.027   4.342   7.491  2.2751 -0.1854 -2.1477
12092SOL     OW48748   8.185   7.018   7.931 -0.0997  0.0541 -0.2206
12092SOL    HW148749   8.284   7.031   7.927 -0.1234  0.0266 -0.9298
12092SOL    HW248750   8.156   7.014   8.027  0.7758 -1.4725 -0.0063
12093SOL     OW48751   2.222   6.235   8.495 -0.0803  0.4277 -0.0570
12093SOL    HW148752   2.237   6.172   8.571  0.3169 -0.5850 -0.9697
12093SOL    HW248753   2.133   6.216   8.454 -0.3251  1.0237  0.1908
12094SOL     OW48754   5.941   6.553   2.582  0.4968 -0.4068  0.2297
12094SOL    HW148755   5.979   6.610   2.509  0.9377  2.3214  2.5268
12094SOL    HW248756   6.015   6.517   2.639  0.1085 -1.9381 -0.2135
12095SOL     OW48757   7.422   4.072   8.360 -0.1967  0.0113  0.1729
12095SOL    HW148758   7.454   3.980   8.383 -1.7571 -0.3340  1.0614
12095SOL    HW248759   7.472   4.139   8.414 -0.2127 -0.4356  0.7527
12096SOL     OW48760   5.982   8.158   1.590  0.4857  0.5744 -0.0273
12096SOL    HW148761   5.991   8.100   1.671  1.1415 -0.3055 -0.7237
12096SOL    HW248762   5.886   8.186   1.579  0.6175  1.8497  1.8231
12097SOL     OW48763   4.620   6.188   0.576 -0.3397  0.5779  0.6165
12097SOL    HW148764   4.527   6.159   0.555  1.4218 -2.5858 -3.3803
12097SOL    HW248765   4.668   6.115   0.626  0.8631  0.9389  0.0241
12098SOL     OW48766   3.350   0.626   0.391 -0.1315  0.4892 -0.2626
12098SOL    HW148767   3.361   0.651   0.295 -1.8393  1.5410 -0.2059
12098SOL    HW248768   3.266   0.667   0.426 -0.7351 -1.7827  1.0375
12099SOL     OW48769   5.838   1.926   0.587  0.1965 -0.2706  0.0107
12099SOL    HW148770   5.899   1.935   0.508  0.2012  0.2166  0.0686
12099SOL    HW248771   5.889   1.889   0.664 -0.0599 -1.7290 -0.5188
12100SOL     OW48772   8.574   5.917   4.723 -0.0839 -0.2865  0.0462
12100SOL    HW148773   8.534   5.912   4.631  0.4827  0.7936 -0.2736
12100SOL    HW248774   8.590   6.013   4.746  0.9538 -0.6330  0.7690
12101SOL     OW48775   6.999   7.363   4.184  0.6708  0.2464 -0.0192
12101SOL    HW148776   6.973   7.359   4.280  0.2069  1.5916 -0.0751
12101SOL    HW248777   6.917   7.353   4.127  1.0732 -1.6279 -0.3066
12102SOL     OW48778   4.415   2.935   5.470 -0.1457  0.5937  0.2595
12102SOL    HW148779   4.346   2.918   5.399  0.3989  1.6667 -0.5397
12102SOL    HW248780   4.403   3.027   5.507  1.5331  1.1990 -0.6567
12103SOL     OW48781   6.016   5.756   7.407 -0.2345  0.0839 -0.0944
12103SOL    HW148782   6.100   5.810   7.399 -0.7625  0.8500 -0.5476
12103SOL    HW248783   5.950   5.787   7.339 -0.8303 -0.6246  0.1537
12104SOL     OW48784   0.184   5.369   4.179 -0.1139 -0.3301  0.0242
12104SOL    HW148785   0.262   5.365   4.243  1.1780 -1.5318 -1.5805
12104SOL    HW248786   0.145   5.461   4.180  1.2294  0.2553  0.9630
12105SOL     OW48787   7.248   0.921   0.822  0.0658 -0.2789  0.4183
12105SOL    HW148788   7.151   0.896   0.827  0.1134 -0.4403  0.5403
12105SOL    HW248789   7.295   0.857   0.761  0.3098 -0.8580  1.2091
12106SOL     OW48790   6.093   4.151   8.317 -0.2540  0.6256  0.0248
12106SOL    HW148791   6.121   4.213   8.244 -0.1808  1.2746  0.5926
12106SOL    HW248792   6.035   4.200   8.382  0.5422  0.3445  0.9620
12107SOL     OW48793   7.398   0.855   7.033 -0.6327  0.0932  0.1975
12107SOL    HW148794   7.431   0.833   6.941  1.7655  0.9164  0.8280
12107SOL    HW248795   7.396   0.772   7.089 -0.9282 -0.1955 -0.2378
12108SOL     OW48796   1.394   2.320   3.261  0.0241  0.0988  0.1159
12108SOL    HW148797   1.371   2.403   3.210  0.3776  0.2446  0.1944
12108SOL    HW248798   1.327   2.249   3.240 -0.4854  0.5156  0.3256
12109SOL     OW48799   1.651   1.920   1.505 -0.1211 -0.5624  0.2033
12109SOL    HW148800   1.743   1.904   1.541 -0.0163  0.3384  0.3593
12109SOL    HW248801   1.645   2.014   1.470 -1.2822 -0.2808  1.1122
12110SOL     OW48802   6.847   0.171   2.270  0.7954 -0.6531 -0.2268
12110SOL    HW148803   6.939   0.132   2.276  0.5354 -1.3237 -0.5103
12110SOL    HW248804   6.828   0.201   2.177  0.5343 -1.0178 -0.2966
12111SOL     OW48805   7.856   4.163   5.347  0.7395  0.1696 -0.0281
12111SOL    HW148806   7.906   4.114   5.276  1.6006 -0.8653  1.2689
12111SOL    HW248807   7.773   4.113   5.371 -0.4135  1.3487 -1.4274
12112SOL     OW48808   2.558   4.811   8.769  0.2288  0.5228  0.4118
12112SOL    HW148809   2.623   4.754   8.719 -0.6629 -1.0931  1.0444
12112SOL    HW248810   2.588   4.820   8.864 -0.5960 -0.4837  0.7829
12113SOL     OW48811   1.105   6.326   5.724  0.0806 -0.6006 -0.4592
12113SOL    HW148812   1.020   6.305   5.675  0.6401 -1.8843 -0.8664
12113SOL    HW248813   1.176   6.353   5.659 -0.0785  0.7777 -0.0935
12114SOL     OW48814   0.523   2.041   7.041 -0.3860 -0.5370 -0.2403
12114SOL    HW148815   0.608   2.003   7.077 -0.3908 -0.5875 -0.2815
12114SOL    HW248816   0.490   2.114   7.101 -0.8625 -1.2168  0.3380
12115SOL     OW48817   7.423   3.471   7.251  0.0555  0.2174  0.2704
12115SOL    HW148818   7.376   3.559   7.249  2.0890  1.3367  0.5658
12115SOL    HW248819   7.365   3.401   7.210 -2.7393  1.1079  2.5920
12116SOL     OW48820   8.915   8.837   1.451 -0.0636 -0.6248 -0.4547
12116SOL    HW148821   8.895   8.856   1.355  0.6159  0.1092 -0.4573
12116SOL    HW248822   8.832   8.804   1.496 -1.2725  2.1741 -0.5221
12117SOL     OW48823   6.184   4.597   6.372 -0.3544  0.0445  0.5109
12117SOL    HW148824   6.133   4.606   6.458 -0.3451 -0.0605  0.5274
12117SOL    HW248825   6.224   4.686   6.347  1.4484 -0.3873  1.7368
12118SOL     OW48826   2.179   6.646   4.281 -0.1832  0.2613  0.3696
12118SOL    HW148827   2.097   6.663   4.227 -0.4924  1.0689  1.0709
12118SOL    HW248828   2.211   6.732   4.321  0.2570 -0.2556  1.1534
12119SOL     OW48829   4.210   0.453   7.984  0.1010 -0.4127  0.4448
12119SOL    HW148830   4.110   0.448   7.983  0.1320 -1.1569 -0.4258
12119SOL    HW248831   4.246   0.385   8.048  0.0443 -0.0598  0.8499
12120SOL     OW48832   1.538   4.013   7.300 -0.3441  0.4518 -0.0901
12120SOL    HW148833   1.574   4.060   7.381 -0.8643 -0.0512  0.4438
12120SOL    HW248834   1.461   4.065   7.263  0.0320  0.7938 -0.3851
12121SOL     OW48835   4.275   1.313   0.537 -0.5992  0.5658 -0.2540
12121SOL    HW148836   4.258   1.258   0.619 -1.6692 -0.3368 -1.0739
12121SOL    HW248837   4.193   1.315   0.480  0.5332  0.1642 -1.9282
12122SOL     OW48838   8.473   1.362   8.133 -0.4805  0.0375  0.0208
12122SOL    HW148839   8.556   1.366   8.077  0.3692  0.6787  1.3105
12122SOL    HW248840   8.396   1.400   8.081 -0.0018 -0.6219 -1.2070
12123SOL     OW48841   6.878   1.893   3.129 -0.0581  0.4320 -0.1215
12123SOL    HW148842   6.839   1.839   3.204  0.0060 -0.7874 -0.9526
12123SOL    HW248843   6.957   1.944   3.163 -0.8362  0.9384  0.9651
12124SOL     OW48844   5.305   4.925   8.200  0.2079 -0.5867 -0.2815
12124SOL    HW148845   5.208   4.934   8.224  0.5243  1.7669  0.2797
12124SOL    HW248846   5.318   4.954   8.106  0.7466  1.7445  0.4819
12125SOL     OW48847   4.603   2.726   0.533  0.1224 -0.0970  0.1718
12125SOL    HW148848   4.505   2.720   0.514  0.4555 -0.3924 -1.5575
12125SOL    HW248849   4.633   2.821   0.522 -0.1179  0.1543  1.5563
12126SOL     OW48850   0.755   0.657   7.193  0.6222  0.3820  0.0316
12126SOL    HW148851   0.831   0.595   7.212  1.2625  1.1224 -0.1125
12126SOL    HW248852   0.670   0.605   7.189  1.1940 -0.5218 -0.3579
12127SOL     OW48853   8.637   0.898   7.714  0.2002 -0.2495 -0.4336
12127SOL    HW148854   8.605   0.974   7.658 -0.9709 -0.7280 -0.4106
12127SOL    HW248855   8.622   0.919   7.811  1.0346  0.0192 -0.3552
12128SOL     OW48856   5.600   1.858   0.975 -0.6059 -0.1147  0.6493
12128SOL    HW148857   5.539   1.804   0.917  0.1171 -0.1171 -0.1232
12128SOL    HW248858   5.565   1.951   0.982 -1.2105 -0.3650  1.0012
12129SOL     OW48859   1.056   5.372   7.231  0.2812 -0.1089 -0.5683
12129SOL    HW148860   1.054   5.462   7.275 -0.5900  0.2018 -1.2379
12129SOL    HW248861   1.041   5.301   7.300 -0.9810  0.3689 -0.3292
12130SOL     OW48862   5.631   5.563   2.638  0.0646 -0.1353  0.1405
12130SOL    HW148863   5.554   5.626   2.644  1.9444  2.0947  1.3440
12130SOL    HW248864   5.600   5.470   2.659 -2.5924  0.4566 -0.9967
12131SOL     OW48865   3.491   4.432   5.473  0.0253  0.4915 -0.3217
12131SOL    HW148866   3.418   4.487   5.433 -1.4174 -0.4868  0.9352
12131SOL    HW248867   3.490   4.442   5.572  1.4173  0.2272 -0.2711
12132SOL     OW48868   0.345   5.060   7.131  0.4903  0.1632 -0.3728
12132SOL    HW148869   0.353   4.963   7.110 -0.2969 -0.1445  0.7038
12132SOL    HW248870   0.392   5.079   7.218 -1.6707  0.2157  0.8185
12133SOL     OW48871   4.355   1.663   7.065 -0.0598 -0.3096 -0.6033
12133SOL    HW148872   4.430   1.601   7.087 -2.2058 -2.6261  0.4648
12133SOL    HW248873   4.347   1.671   6.966  1.1783 -0.5752 -0.7308
12134SOL     OW48874   2.346   3.693   5.825  0.4167 -0.4234  0.2234
12134SOL    HW148875   2.422   3.739   5.778  0.3996  1.4793  1.9763
12134SOL    HW248876   2.267   3.755   5.829  0.2865 -0.7119  2.3822
12135SOL     OW48877   4.671   2.445   6.726 -0.1097  0.0793 -1.0174
12135SOL    HW148878   4.690   2.417   6.820  0.3380 -0.7557 -1.3510
12135SOL    HW248879   4.595   2.511   6.725  0.1944  0.4512 -0.0374
12136SOL     OW48880   4.646   2.258   4.442  0.1240  0.9797 -0.1436
12136SOL    HW148881   4.627   2.355   4.457  0.7999  1.4979 -2.4070
12136SOL    HW248882   4.589   2.224   4.367  1.9895  0.3977 -1.3265
12137SOL     OW48883   1.446   7.216   1.350 -0.2927  0.5509 -0.0377
12137SOL    HW148884   1.446   7.180   1.257 -2.1009  2.0269 -0.6487
12137SOL    HW248885   1.533   7.194   1.395  0.1626 -1.1159 -1.6915
12138SOL     OW48886   5.157   8.733   5.764 -0.1914 -0.5759  0.3575
12138SOL    HW148887   5.155   8.633   5.756  2.8041 -0.6502  0.0579
12138SOL    HW248888   5.181   8.773   5.676  2.5733  0.1729  1.3987
12139SOL     OW48889   1.948   3.305   4.586  0.3812  0.0585  0.1106
12139SOL    HW148890   1.998   3.219   4.586  0.5934  0.1822 -0.1436
12139SOL    HW248891   2.013   3.381   4.591  0.2446  0.2349 -0.7732
12140SOL     OW48892   2.901   4.464   2.191 -0.1989 -0.0523 -0.1899
12140SOL    HW148893   2.923   4.449   2.095 -0.0695  1.0697 -0.3321
12140SOL    HW248894   2.972   4.422   2.248 -1.2545 -2.4146 -0.5181
12141SOL     OW48895   3.357   7.170   7.159 -0.2883 -0.0209 -0.0564
12141SOL    HW148896   3.370   7.083   7.112 -0.8505  0.3803 -0.9842
12141SOL    HW248897   3.315   7.235   7.096  0.4483  1.0273  0.5303
12142SOL     OW48898   6.018   0.018   3.261 -0.0133  0.2542 -0.0951
12142SOL    HW148899   6.006   0.111   3.227 -2.6429 -0.8803 -2.3899
12142SOL    HW248900   6.087  -0.029   3.206  0.6602  0.5318  0.4969
12143SOL     OW48901   5.746   1.352   0.996 -0.1123 -0.9306 -0.0870
12143SOL    HW148902   5.681   1.396   1.058 -2.3136  0.0064 -2.9546
12143SOL    HW248903   5.831   1.333   1.045 -0.7502  2.3167  2.4674
12144SOL     OW48904   0.869   8.620   1.653  0.6949  0.4393 -0.0664
12144SOL    HW148905   0.927   8.556   1.704  1.8697  2.3471  1.0673
12144SOL    HW248906   0.804   8.663   1.716  1.2348  1.7958 -0.4132
12145SOL     OW48907   1.903   1.623   1.018  0.2106 -0.0598  0.2422
12145SOL    HW148908   1.972   1.694   1.033  0.9599 -0.6953 -0.1742
12145SOL    HW248909   1.832   1.631   1.088  0.9303  0.3313  0.9440
12146SOL     OW48910   6.841   5.942   6.255 -0.1369  0.1700  0.4981
12146SOL    HW148911   6.921   5.889   6.281 -0.6998 -0.2142  1.4996
12146SOL    HW248912   6.782   5.888   6.195  1.5924  1.3669 -2.3712
12147SOL     OW48913   1.908   3.624   5.386  0.3624  0.1132  0.9593
12147SOL    HW148914   1.883   3.634   5.482  1.6251 -1.3714  1.4798
12147SOL    HW248915   1.975   3.694   5.361 -1.1430  1.4783  0.7160
12148SOL     OW48916   1.362   1.302   7.681 -0.0807  0.0332  0.3046
12148SOL    HW148917   1.291   1.232   7.675  0.8114 -0.9651  1.0141
12148SOL    HW248918   1.402   1.317   7.591 -0.0445 -0.6281  0.2038
12149SOL     OW48919   6.671   1.139   1.997  0.4072  0.1398  0.5791
12149SOL    HW148920   6.594   1.171   1.942 -0.0903 -0.8478  0.6867
12149SOL    HW248921   6.721   1.218   2.033 -0.0075  0.7897 -0.2491
12150SOL     OW48922   4.585   1.885   1.494 -0.4095 -0.2575  0.6400
12150SOL    HW148923   4.630   1.906   1.407  0.3507 -2.0672  0.5884
12150SOL    HW248924   4.537   1.797   1.486 -3.9179  1.5390  0.7062
12151SOL     OW48925   5.370   3.722   5.307 -0.0184 -0.3383  0.1014
12151SOL    HW148926   5.417   3.807   5.332  0.1485 -0.4199  0.0640
12151SOL    HW248927   5.397   3.649   5.370  2.1787 -1.1322 -1.6606
12152SOL     OW48928   3.306   3.988   7.735 -0.0410  0.6080 -0.2102
12152SOL    HW148929   3.289   3.953   7.827  1.1904  0.2917 -0.0989
12152SOL    HW248930   3.399   3.965   7.707 -0.7830 -0.3209 -2.0019
12153SOL     OW48931   6.035   4.231   6.118 -0.0010  0.7008 -0.2545
12153SOL    HW148932   5.969   4.169   6.075  0.5631  0.8272 -1.3306
12153SOL    HW248933   6.011   4.325   6.096  1.2978  0.6919 -1.7935
12154SOL     OW48934   5.702   8.221   3.104 -0.2959  0.1462  0.2091
12154SOL    HW148935   5.614   8.259   3.076 -0.1569  0.7511  0.6030
12154SOL    HW248936   5.720   8.137   3.052 -0.8486  0.3236 -0.2679
12155SOL     OW48937   7.124   4.964   2.714  0.6177 -0.3580  0.2145
12155SOL    HW148938   7.178   5.031   2.766  0.2380  0.0291  0.1078
12155SOL    HW248939   7.044   4.937   2.766  0.2619 -0.0065 -0.1450
12156SOL     OW48940   2.132   2.705   4.942 -0.9935 -0.4804 -0.6965
12156SOL    HW148941   2.183   2.790   4.952 -0.2063 -0.9322 -0.8300
12156SOL    HW248942   2.128   2.679   4.845  0.2763 -1.4962 -0.4964
12157SOL     OW48943   4.446   7.359   8.115 -0.1939  0.2381  0.0136
12157SOL    HW148944   4.509   7.436   8.112 -0.0409  0.1997  1.6147
12157SOL    HW248945   4.445   7.313   8.026  1.0827  0.9820 -0.4016
12158SOL     OW48946   5.029   7.251   1.602 -0.0141  0.2488 -0.2120
12158SOL    HW148947   4.942   7.220   1.565  1.1080 -1.3320 -1.6470
12158SOL    HW248948   5.086   7.288   1.528  0.5776  1.1736  0.6862
12159SOL     OW48949   3.868   4.018   0.276 -0.9607 -0.1398  0.1665
12159SOL    HW148950   3.936   3.952   0.246 -2.3995 -1.1873 -0.8490
12159SOL    HW248951   3.873   4.100   0.218 -1.2782 -0.6544 -0.5929
12160SOL     OW48952   3.402   3.680   7.187  0.5097  0.0279  0.2460
12160SOL    HW148953   3.347   3.605   7.149  0.5619  1.0333 -1.8289
12160SOL    HW248954   3.489   3.643   7.220  1.2542 -0.5738 -2.3242
12161SOL     OW48955   7.861   4.448   5.159  0.4257  0.3406 -0.5352
12161SOL    HW148956   7.918   4.448   5.242 -3.0771 -2.2130  1.9929
12161SOL    HW248957   7.892   4.376   5.097  0.0103 -1.0293  0.8206
12162SOL     OW48958   1.139   8.443   8.309 -0.3120  0.7114  0.0219
12162SOL    HW148959   1.170   8.404   8.396  1.6872 -0.5470 -1.2364
12162SOL    HW248960   1.151   8.543   8.311  0.8650  0.5655  0.7426
12163SOL     OW48961   4.259   4.854   3.160  0.3332 -0.4533  1.0983
12163SOL    HW148962   4.201   4.774   3.145 -0.3639  0.1567  0.4665
12163SOL    HW248963   4.248   4.887   3.254 -2.2130  1.0952  0.3009
12164SOL     OW48964   3.033   4.273   2.800 -0.1645  0.1628 -0.6888
12164SOL    HW148965   3.104   4.338   2.828 -2.7190  2.2369  1.2375
12164SOL    HW248966   3.028   4.200   2.868 -0.8099  0.7973 -0.0369
12165SOL     OW48967   1.936   6.405   4.826 -0.2799  0.2993  0.0005
12165SOL    HW148968   1.996   6.410   4.906 -0.0036  1.3351 -0.2605
12165SOL    HW248969   1.968   6.335   4.763 -0.0292  0.0420  0.4163
12166SOL     OW48970   6.167   5.595   0.960 -0.0591  0.3200  0.3603
12166SOL    HW148971   6.259   5.556   0.958 -0.0449  0.2326  1.9324
12166SOL    HW248972   6.170   5.685   1.004 -0.6299  0.5613 -0.0880
12167SOL     OW48973   4.827   3.171   1.932 -0.2394  0.4515  0.4490
12167SOL    HW148974   4.842   3.267   1.907 -1.2755 -0.5603 -4.8667
12167SOL    HW248975   4.732   3.159   1.961 -0.3678  0.9136  0.2319
12168SOL     OW48976   1.388   6.513   0.743  0.2356 -0.6396  0.0483
12168SOL    HW148977   1.342   6.547   0.661  0.0196 -1.8551 -0.3433
12168SOL    HW248978   1.368   6.416   0.755 -1.0347 -0.1244  2.4303
12169SOL     OW48979   2.441   8.874   0.901 -0.4459  1.1076 -0.0578
12169SOL    HW148980   2.487   8.831   0.823 -3.1965 -1.2930 -0.4451
12169SOL    HW248981   2.509   8.895   0.972  1.2756 -2.4308 -0.5490
12170SOL     OW48982   3.425   8.938   2.195  0.5908 -0.0163  0.1155
12170SOL    HW148983   3.415   8.975   2.103  1.2852  1.3876  0.5920
12170SOL    HW248984   3.522   8.936   2.220  0.4297 -0.6154  0.7321
12171SOL     OW48985   6.955   2.328   7.415 -0.5013  0.0662 -0.3474
12171SOL    HW148986   6.975   2.354   7.320  0.9682  0.6082  0.0866
12171SOL    HW248987   7.012   2.382   7.477  0.3699 -2.0094  0.7313
12172SOL     OW48988   7.118   4.091   3.729 -0.1885 -0.0542 -0.1459
12172SOL    HW148989   7.136   4.014   3.790 -1.0063  0.2947  0.5413
12172SOL    HW248990   7.187   4.162   3.742 -0.9886  0.4948  1.1653
12173SOL     OW48991   7.229   5.661   6.595  0.1215 -0.1539 -0.2739
12173SOL    HW148992   7.214   5.756   6.570 -0.6427 -0.1427  0.2051
12173SOL    HW248993   7.144   5.622   6.633  1.1138 -0.2826  1.9028
12174SOL     OW48994   3.168   3.875   4.798  0.0108  0.1201  0.1481
12174SOL    HW148995   3.125   3.963   4.780 -1.0583 -0.5925 -0.8260
12174SOL    HW248996   3.120   3.829   4.872  0.1655  0.0734  0.2192
12175SOL     OW48997   4.781   6.637   8.660  0.4032 -0.4015 -0.2958
12175SOL    HW148998   4.713   6.564   8.675 -1.1138  0.8022 -1.1371
12175SOL    HW248999   4.823   6.625   8.571  1.0522 -0.9469  0.0789
12176SOL     OW49000   2.145   2.454   2.209  0.5599 -0.6405  0.9375
12176SOL    HW149001   2.083   2.382   2.241  1.4878 -1.3311  1.2167
12176SOL    HW249002   2.237   2.416   2.198  0.6190  0.0034 -0.9443
12177SOL     OW49003   2.992   0.611   6.845 -0.0451 -0.5015  0.0337
12177SOL    HW149004   2.950   0.554   6.915 -0.5290 -0.1100  0.0692
12177SOL    HW249005   3.085   0.580   6.828  0.5323  0.1897  1.7764
12178SOL     OW49006   7.393   6.134   0.230  0.0852 -0.6935  0.9639
12178SOL    HW149007   7.315   6.089   0.186  0.0186 -1.1691  1.5767
12178SOL    HW249008   7.469   6.140   0.165 -0.8413  0.8307 -0.0471
12179SOL     OW49009   5.008   0.914   8.329  0.7127 -0.3475 -0.1513
12179SOL    HW149010   5.092   0.963   8.354 -1.2729  1.3963  3.5439
12179SOL    HW249011   4.937   0.980   8.305 -1.0192 -1.5130  1.6419
12180SOL     OW49012   8.691   0.804   0.163  0.2958 -0.2194 -0.3753
12180SOL    HW149013   8.659   0.712   0.186 -0.4015  0.0333 -0.3248
12180SOL    HW249014   8.627   0.872   0.199 -0.2255  0.2139 -2.0412
12181SOL     OW49015   5.909   2.890   0.179 -0.4434  0.4205 -0.4239
12181SOL    HW149016   5.865   2.977   0.158 -0.3893  1.0200  1.8693
12181SOL    HW249017   5.997   2.906   0.223  0.7338 -0.8044 -2.2394
12182SOL     OW49018   4.848   7.107   5.530  0.2963  0.2867 -0.5893
12182SOL    HW149019   4.904   7.189   5.543  0.2918  0.0427  1.1434
12182SOL    HW249020   4.796   7.089   5.614  0.6930 -1.7860 -0.7705
12183SOL     OW49021   2.289   0.094   2.615  0.0720  0.2122  0.0372
12183SOL    HW149022   2.365   0.081   2.551 -0.3706  1.3824 -0.7412
12183SOL    HW249023   2.326   0.119   2.705  0.6378 -0.0396 -0.1235
12184SOL     OW49024   4.279   2.677   7.378 -0.2780 -0.2214 -0.0845
12184SOL    HW149025   4.295   2.689   7.476 -0.9621 -0.7083  0.0923
12184SOL    HW249026   4.288   2.580   7.354  0.5419 -0.0151 -0.6263
12185SOL     OW49027   7.700   8.736   7.173 -0.0911 -0.2796 -0.1204
12185SOL    HW149028   7.755   8.771   7.249  0.4793 -0.3235 -0.5070
12185SOL    HW249029   7.738   8.768   7.086 -0.7358 -0.2287 -0.3925
12186SOL     OW49030   8.325   6.271   0.843  0.0912 -0.1192 -0.0093
12186SOL    HW149031   8.415   6.270   0.887 -0.5698 -1.9754  1.3471
12186SOL    HW249032   8.254   6.276   0.912 -0.9024 -0.2097 -1.0115
12187SOL     OW49033   1.010   7.064   6.016 -0.0939  0.5288 -0.0140
12187SOL    HW149034   0.936   7.012   6.058 -0.5898  0.8082 -0.5466
12187SOL    HW249035   0.973   7.140   5.963  0.4295 -0.6959 -2.2070
12188SOL     OW49036   3.360   0.295   8.568  0.5788 -0.5746 -0.8843
12188SOL    HW149037   3.263   0.300   8.588  0.4963 -2.4388 -0.7576
12188SOL    HW249038   3.408   0.368   8.617 -0.4676 -0.9825  0.7800
12189SOL     OW49039   0.953   3.514   8.374 -0.6889 -0.0797  0.1482
12189SOL    HW149040   0.875   3.519   8.437 -0.8899  1.3779 -0.2021
12189SOL    HW249041   1.034   3.554   8.418 -0.8276  0.9364 -0.5010
12190SOL     OW49042   6.401   8.350   6.428 -0.0750  0.1493  0.4497
12190SOL    HW149043   6.384   8.296   6.510 -1.4773  2.8966  2.0811
12190SOL    HW249044   6.364   8.303   6.348 -1.7219 -1.0466  1.8892
12191SOL     OW49045   2.089   4.119   8.966 -0.2733  0.0918 -0.1361
12191SOL    HW149046   2.087   4.215   8.994  1.3753  0.4189 -1.1137
12191SOL    HW249047   2.096   4.061   9.047  0.1259  0.8564  0.3824
12192SOL     OW49048   7.177   0.106   6.434  0.6394 -0.2143  0.3225
12192SOL    HW149049   7.254   0.166   6.455  1.1750 -0.9638  0.5239
12192SOL    HW249050   7.162   0.106   6.335  1.9016 -1.2574  0.1086
12193SOL     OW49051   8.231   0.113   2.327  0.2234 -0.1835  0.3136
12193SOL    HW149052   8.278   0.183   2.381 -2.5123  1.0438  1.1877
12193SOL    HW249053   8.144   0.089   2.372 -0.8229 -1.1323 -2.1321
12194SOL     OW49054   4.486   6.080   7.373  0.5219 -0.1410  0.2075
12194SOL    HW149055   4.421   6.034   7.434  1.2294 -1.6100 -0.1210
12194SOL    HW249056   4.477   6.042   7.281  0.8973  0.6207 -0.1436
12195SOL     OW49057   2.688   6.976   4.993 -0.3203 -0.1028  0.3401
12195SOL    HW149058   2.686   6.994   4.895 -1.9896 -2.0408 -0.0110
12195SOL    HW249059   2.730   7.054   5.040 -1.1693  1.6679 -1.7244
12196SOL     OW49060   5.719   0.133   8.030  0.2682 -0.2584 -0.4166
12196SOL    HW149061   5.809   0.091   8.016  1.8691  1.8469  2.7776
12196SOL    HW249062   5.718   0.224   7.987  0.1612  0.2450  0.6257
12197SOL     OW49063   6.530   2.636   0.048 -0.5801  0.6450  0.5697
12197SOL    HW149064   6.432   2.650   0.033 -0.1224  3.2908 -0.2018
12197SOL    HW249065   6.559   2.552   0.002 -2.5633 -0.4723  1.2734
12198SOL     OW49066   1.212   4.044   0.651  0.3057 -0.2190 -1.1272
12198SOL    HW149067   1.206   4.003   0.742 -0.3738 -1.4619 -1.7092
12198SOL    HW249068   1.201   4.143   0.657  1.1818 -0.1971  0.2383
12199SOL     OW49069   7.429   4.361   1.381  0.2206 -0.2082 -0.4546
12199SOL    HW149070   7.417   4.279   1.436  0.9177 -0.5123 -0.7530
12199SOL    HW249071   7.526   4.385   1.377  0.1011  0.2021 -0.9756
12200SOL     OW49072   8.575   8.117   0.511  0.2704  0.2249 -0.2035
12200SOL    HW149073   8.523   8.202   0.523  1.0440  0.8859 -1.4780
12200SOL    HW249074   8.669   8.131   0.541 -0.2259 -0.9592  2.0541
12201SOL     OW49075   3.094   6.655   7.629  0.0603  0.1782  0.1270
12201SOL    HW149076   3.132   6.671   7.720  0.3704  0.4068 -0.0415
12201SOL    HW249077   3.041   6.735   7.601 -0.1399  0.0561  0.1591
12202SOL     OW49078   0.452   3.271   1.865  0.1413  0.1090  0.3147
12202SOL    HW149079   0.447   3.364   1.902 -0.5607 -0.7445  2.4707
12202SOL    HW249080   0.533   3.263   1.807  0.8922  1.7199  1.0887
12203SOL     OW49081   6.068   6.124   4.257 -0.0849 -0.0736 -0.0104
12203SOL    HW149082   6.088   6.117   4.355  0.6914 -1.3055 -0.2433
12203SOL    HW249083   6.091   6.038   4.213 -2.1246 -0.1394 -0.9973
12204SOL     OW49084   1.708   6.035   5.282  0.0559 -0.0246 -0.1036
12204SOL    HW149085   1.799   6.058   5.316 -0.4627  1.5284  0.3039
12204SOL    HW249086   1.700   6.061   5.186 -0.2676  0.7346  0.1283
12205SOL     OW49087   6.521   5.731   7.112 -0.4108 -0.1242  0.4626
12205SOL    HW149088   6.495   5.827   7.116  0.3156  0.0758  0.5204
12205SOL    HW249089   6.483   5.690   7.029 -0.9914  0.1240  0.6001
12206SOL     OW49090   0.326   3.334   8.565 -0.6709  0.4370  0.2636
12206SOL    HW149091   0.332   3.262   8.496  0.2886  1.2890 -0.5469
12206SOL    HW249092   0.348   3.422   8.523  2.9146  0.5936  2.2971
12207SOL     OW49093   1.568   3.772   3.331 -0.2412 -0.2203 -0.3480
12207SOL    HW149094   1.470   3.789   3.339 -0.3476  0.1911 -2.2593
12207SOL    HW249095   1.616   3.859   3.320  0.5225 -0.2963  1.9414
12208SOL     OW49096   2.891   5.006   1.782 -0.1115 -0.4044 -0.2616
12208SOL    HW149097   2.897   4.944   1.860 -0.0470 -0.5369 -0.3730
12208SOL    HW249098   2.974   5.000   1.727  0.8609  1.4353  0.9677
12209SOL     OW49099   0.324   8.393   0.038 -0.0014 -0.2089 -0.6648
12209SOL    HW149100   0.403   8.453   0.023 -0.1447  0.9576  2.8419
12209SOL    HW249101   0.316   8.330  -0.040  1.7910  2.4401 -3.1297
12210SOL     OW49102   1.757   6.805   7.441  0.1137 -0.4075  0.0244
12210SOL    HW149103   1.700   6.886   7.458 -0.7635 -0.8533 -0.7517
12210SOL    HW249104   1.817   6.823   7.363  0.2655 -0.3325  0.1580
12211SOL     OW49105   6.217   2.425   6.584  0.1587  0.2579 -0.2908
12211SOL    HW149106   6.198   2.339   6.538 -0.0156  0.9286 -1.4936
12211SOL    HW249107   6.299   2.467   6.544  0.0509  0.8118  0.0538
12212SOL     OW49108   5.152   5.954   3.523 -0.0755 -1.0234  0.4840
12212SOL    HW149109   5.084   5.915   3.586 -1.2394  1.4487  0.8252
12212SOL    HW249110   5.192   6.035   3.564 -0.6043  0.4332 -1.8129
12213SOL     OW49111   7.046   5.453   2.871 -0.4204  0.4408  0.0828
12213SOL    HW149112   6.957   5.415   2.846 -0.6202  0.6762  0.4231
12213SOL    HW249113   7.032   5.535   2.926  0.0050 -1.3173  2.8902
12214SOL     OW49114   3.270   3.619   2.867 -0.2291  0.8181 -0.8848
12214SOL    HW149115   3.209   3.688   2.826 -0.3624  0.0230 -2.0704
12214SOL    HW249116   3.260   3.533   2.816  0.6370  0.2011 -0.0105
12215SOL     OW49117   1.655   0.487   4.904 -0.6080  0.1187  0.4582
12215SOL    HW149118   1.726   0.529   4.961  0.9955 -1.9859  0.0679
12215SOL    HW249119   1.656   0.529   4.813 -1.0609  1.3095  0.9960
12216SOL     OW49120   3.738   2.181   4.321 -0.8106  0.0411  0.2512
12216SOL    HW149121   3.812   2.224   4.373  1.4560 -2.4888 -0.7316
12216SOL    HW249122   3.726   2.229   4.234  0.0320  0.2192  0.2235
12217SOL     OW49123   2.304   6.183   5.698  0.8035  0.3254  0.4854
12217SOL    HW149124   2.207   6.176   5.722  0.2326  1.7944 -1.3280
12217SOL    HW249125   2.351   6.099   5.725 -0.8410 -0.1454  1.9562
12218SOL     OW49126   2.941   8.325   2.148  0.0424 -0.1980  0.6840
12218SOL    HW149127   3.036   8.306   2.124 -0.6177 -3.1504  0.2614
12218SOL    HW249128   2.882   8.303   2.070 -1.0922  0.5317  1.3235
12219SOL     OW49129   1.735   7.170   0.744  0.4385 -0.5774 -0.3093
12219SOL    HW149130   1.798   7.171   0.666 -0.1778  2.2180 -0.8019
12219SOL    HW249131   1.762   7.241   0.809  0.7132 -2.6333  1.8861
12220SOL     OW49132   2.938   2.916   2.342  0.1980  1.2096  0.5142
12220SOL    HW149133   2.947   2.877   2.250  1.4244 -2.1037  1.9672
12220SOL    HW249134   3.026   2.954   2.370  0.4672  0.1279  1.1791
12221SOL     OW49135   0.332   8.667   0.829  0.2688  0.2612 -0.0510
12221SOL    HW149136   0.327   8.765   0.809 -2.6077  0.3610  0.9270
12221SOL    HW249137   0.401   8.650   0.900 -0.3358  1.7775  0.9184
12222SOL     OW49138   2.613   6.036   0.227  0.2258  0.2039 -0.4553
12222SOL    HW149139   2.530   6.092   0.228  0.4146  0.4722  0.0926
12222SOL    HW249140   2.658   6.047   0.138  0.0571  0.6194 -0.4915
12223SOL     OW49141   6.290   4.337   3.617 -0.1149  0.6727 -0.0109
12223SOL    HW149142   6.351   4.379   3.685  0.0515  1.1081 -0.4316
12223SOL    HW249143   6.256   4.407   3.555  0.2938  0.1536 -0.8166
12224SOL     OW49144   0.528   5.028   0.788 -1.1010  0.1618 -0.2062
12224SOL    HW149145   0.624   5.007   0.769 -0.9223 -0.4804  1.2748
12224SOL    HW249146   0.509   5.124   0.765 -0.4526 -0.0813 -1.7564
12225SOL     OW49147   8.681   4.342   7.865  0.5514  0.1375  0.5764
12225SOL    HW149148   8.634   4.416   7.914  1.2877  1.9462 -1.3654
12225SOL    HW249149   8.616   4.296   7.804  0.2057 -0.5457  1.4418
12226SOL     OW49150   0.740   1.462   8.291  0.2880 -0.1214 -0.4240
12226SOL    HW149151   0.729   1.431   8.385  1.4226  0.5377 -0.0659
12226SOL    HW249152   0.747   1.382   8.231  1.9175 -0.5658  0.3391
12227SOL     OW49153   4.324   0.064   7.191  0.4848  0.0772 -0.1747
12227SOL    HW149154   4.356   0.107   7.276 -1.6727  0.5810  0.4026
12227SOL    HW249155   4.376   0.100   7.114  1.6331  0.5211  0.7919
12228SOL     OW49156   1.547   0.085   6.710 -0.3181  0.1215  0.0083
12228SOL    HW149157   1.626   0.025   6.719  1.0371  2.0401  1.4279
12228SOL    HW249158   1.530   0.131   6.797 -1.2877  1.8113 -1.0373
12229SOL     OW49159   5.936   3.665   7.878 -0.0949  0.1176  0.1346
12229SOL    HW149160   5.970   3.574   7.899  1.0098  0.2355 -1.0558
12229SOL    HW249161   5.938   3.680   7.779 -1.7607  0.8617  0.1946
12230SOL     OW49162   0.719   3.874   1.729 -0.7519  0.4529 -0.1194
12230SOL    HW149163   0.715   3.780   1.764  2.6198 -0.3252 -1.6211
12230SOL    HW249164   0.645   3.888   1.663  0.3735 -2.0613 -1.9779
12231SOL     OW49165   6.186   6.953   4.798 -0.1792 -0.0692  0.1614
12231SOL    HW149166   6.269   6.910   4.762 -0.9789 -1.4897 -0.0199
12231SOL    HW249167   6.181   6.937   4.897 -0.0873  0.2569  0.2165
12232SOL     OW49168   3.042   7.797   2.770 -0.2003 -0.1344 -0.6769
12232SOL    HW149169   3.121   7.829   2.717 -0.0538 -1.1228 -1.0638
12232SOL    HW249170   3.073   7.749   2.852 -0.4011 -0.5500 -0.8428
12233SOL     OW49171   3.112   5.082   4.392 -0.4335 -0.4060 -0.4589
12233SOL    HW149172   3.136   4.986   4.374 -0.4048 -0.5813  0.4758
12233SOL    HW249173   3.099   5.095   4.490  0.2110  0.7028 -0.5146
12234SOL     OW49174   4.311   4.975   8.109 -0.1182 -0.5792  0.1983
12234SOL    HW149175   4.332   4.913   8.185 -1.2894 -1.8328 -0.4792
12234SOL    HW249176   4.394   4.990   8.055  0.2561 -1.3017  0.5590
12235SOL     OW49177   0.626   2.418   3.294  0.0995  0.4309  0.2717
12235SOL    HW149178   0.632   2.470   3.379 -0.2869 -0.7896  1.0538
12235SOL    HW249179   0.681   2.335   3.301  1.1578  0.9885 -1.1745
12236SOL     OW49180   2.418   6.104   2.587 -0.1309 -0.3469 -0.0017
12236SOL    HW149181   2.363   6.043   2.529 -1.4839 -0.0664  0.9525
12236SOL    HW249182   2.514   6.076   2.584 -0.5240 -1.6658 -0.6595
12237SOL     OW49183   8.295   2.216   6.640  0.9312  0.2585  0.0688
12237SOL    HW149184   8.223   2.195   6.575  2.3573  0.6211 -1.6631
12237SOL    HW249185   8.300   2.144   6.710 -1.4597  0.5236  0.5590
12238SOL     OW49186   6.793   8.501   2.425 -0.2844 -0.1072 -0.5614
12238SOL    HW149187   6.842   8.588   2.414  0.3079 -0.1582  1.5038
12238SOL    HW249188   6.856   8.425   2.404 -0.4624 -0.0755 -1.2172
12239SOL     OW49189   4.372   6.360   1.006 -0.5673 -0.1704 -0.4577
12239SOL    HW149190   4.361   6.336   1.103  0.3016  0.0378 -0.3029
12239SOL    HW249191   4.310   6.304   0.951 -1.8163  0.4343  0.3051
12240SOL     OW49192   6.102   5.451   2.021 -0.6535  0.1761  0.4481
12240SOL    HW149193   6.045   5.421   2.098 -1.8681  0.4434 -0.3263
12240SOL    HW249194   6.116   5.550   2.027 -0.2846  0.1112  0.6329
12241SOL     OW49195   8.145   0.756   8.824  0.2252  0.4312  0.1622
12241SOL    HW149196   8.052   0.792   8.826 -0.7254 -1.8621 -0.6482
12241SOL    HW249197   8.207   0.826   8.788 -1.1412  2.0413  0.8698
12242SOL     OW49198   3.872   5.808   3.267 -0.7122 -0.4980  0.0588
12242SOL    HW149199   3.778   5.802   3.233 -0.0453  1.0533 -2.1807
12242SOL    HW249200   3.884   5.895   3.314 -0.0737 -0.1592 -0.7287
12243SOL     OW49201   4.486   0.904   7.684 -0.4515  0.0106  0.0378
12243SOL    HW149202   4.500   0.990   7.732  1.5224 -1.7529  2.7407
12243SOL    HW249203   4.390   0.877   7.691 -0.8493  1.4295  0.1055
12244SOL     OW49204   1.003   6.068   8.893  0.5087 -0.1658  0.0874
12244SOL    HW149205   1.034   6.155   8.856 -0.2727 -0.1525 -0.5428
12244SOL    HW249206   0.912   6.047   8.858  1.2807 -1.9313 -0.9122
12245SOL     OW49207   8.856   5.696   6.038  0.2608  0.3601  0.0943
12245SOL    HW149208   8.907   5.690   6.124  0.8584  1.4287 -0.1790
12245SOL    HW249209   8.842   5.604   6.001 -0.0732 -0.1175  1.3670
12246SOL     OW49210   2.915   2.204   3.288  0.3170 -0.4989 -0.0803
12246SOL    HW149211   2.969   2.197   3.371  1.2399 -0.0366 -0.6412
12246SOL    HW249212   2.822   2.171   3.306  1.1173 -2.5054  0.5658
12247SOL     OW49213   0.429   2.060   5.227  0.3837  1.0223  0.1805
12247SOL    HW149214   0.377   2.001   5.288 -1.1234  1.9498 -0.1873
12247SOL    HW249215   0.413   2.033   5.132  0.3541  1.4767  0.0534
12248SOL     OW49216   7.500   2.861   0.128 -0.7670  0.3129  0.5212
12248SOL    HW149217   7.499   2.775   0.180 -0.7256  0.3829  0.6373
12248SOL    HW249218   7.572   2.920   0.163  0.8627 -0.6065 -1.1683
12249SOL     OW49219   5.457   2.852   2.748  0.2898 -0.4402  0.2803
12249SOL    HW149220   5.547   2.869   2.710 -0.1200  0.0257 -0.4982
12249SOL    HW249221   5.450   2.894   2.838 -0.1164  2.0552 -0.8777
12250SOL     OW49222   4.827   0.070   1.473 -0.0216 -0.1618  0.0758
12250SOL    HW149223   4.912   0.105   1.511  0.5868 -1.0710 -0.4331
12250SOL    HW249224   4.844   0.032   1.382 -1.0026 -0.2095 -0.0950
12251SOL     OW49225   5.358   4.681   6.498  0.3837 -0.3080 -0.1143
12251SOL    HW149226   5.262   4.686   6.473  0.4326  0.6056 -0.1400
12251SOL    HW249227   5.393   4.589   6.480 -0.6394 -0.8135  0.4701
12252SOL     OW49228   7.501   3.138   0.800 -0.6174  0.1884  0.1475
12252SOL    HW149229   7.453   3.063   0.755  1.1845 -0.2935 -1.0447
12252SOL    HW249230   7.484   3.136   0.898 -4.2820  0.9785 -0.3861
12253SOL     OW49231   8.733   5.203   8.808 -0.8029  0.5654 -0.0682
12253SOL    HW149232   8.799   5.211   8.882  0.2649  0.5861 -1.0042
12253SOL    HW249233   8.755   5.123   8.752 -2.3871 -0.2118  0.3917
12254SOL     OW49234   0.021   5.031   3.711  0.8796  0.6128 -0.1618
12254SOL    HW149235   0.060   4.977   3.785  1.7713  0.4568 -0.7438
12254SOL    HW249236   0.031   4.982   3.625  0.1252  0.9348 -0.4368
12255SOL     OW49237   5.558   6.360   3.581  0.4236  0.1547 -0.0201
12255SOL    HW149238   5.601   6.425   3.643  1.2079  0.7668 -1.1920
12255SOL    HW249239   5.462   6.386   3.567 -0.1020 -0.6891  1.8749
12256SOL     OW49240   6.379   6.028   5.875  0.1948  0.0304  0.1950
12256SOL    HW149241   6.384   6.119   5.916 -2.0887 -0.7853  2.4891
12256SOL    HW249242   6.428   5.962   5.933 -0.8147 -0.6949  0.2541
12257SOL     OW49243   8.796   3.571   0.245  0.1311 -0.3787  0.3698
12257SOL    HW149244   8.739   3.504   0.293 -0.8836  0.0338 -0.2373
12257SOL    HW249245   8.739   3.647   0.214  1.1961  0.5579  0.6648
12258SOL     OW49246   1.125   4.308   2.572  0.1009  0.3648  0.1874
12258SOL    HW149247   1.097   4.382   2.510  1.2710  2.1582  1.7404
12258SOL    HW249248   1.061   4.232   2.564 -1.0710  1.4920 -1.5430
12259SOL     OW49249   1.665   0.875   8.464  0.1136 -0.2506 -0.2949
12259SOL    HW149250   1.706   0.814   8.396 -1.0262  1.0078 -2.1705
12259SOL    HW249251   1.633   0.958   8.419 -3.3787 -0.6554  1.2667
12260SOL     OW49252   3.744   7.978   8.624  0.1818 -0.1516 -0.4666
12260SOL    HW149253   3.723   8.055   8.564 -2.2770 -2.2035 -2.3499
12260SOL    HW249254   3.823   7.928   8.589  0.7422  0.5329 -0.1808
12261SOL     OW49255   6.448   4.056   4.815  0.3379  0.1509  0.6414
12261SOL    HW149256   6.365   4.007   4.788 -0.0113  0.4475  1.1629
12261SOL    HW249257   6.512   4.060   4.738  0.7079 -1.8223  0.8158
12262SOL     OW49258   3.571   6.205   3.484  0.0852 -0.3306 -0.3040
12262SOL    HW149259   3.545   6.171   3.393  0.3017  3.0736 -1.6874
12262SOL    HW249260   3.493   6.251   3.526  1.1752  1.8377 -0.5913
12263SOL     OW49261   5.750   3.811   2.012 -0.1410  0.4102  0.4376
12263SOL    HW149262   5.707   3.899   1.993  0.1572  0.0510 -2.0334
12263SOL    HW249263   5.735   3.787   2.108 -0.3149  3.0788  1.1115
12264SOL     OW49264   6.164   8.788   1.049 -0.0270  0.4274 -0.1572
12264SOL    HW149265   6.247   8.843   1.039  0.0019  1.1810  3.4952
12264SOL    HW249266   6.156   8.757   1.144 -2.8537 -1.3865 -0.9402
12265SOL     OW49267   4.111   0.265   5.160 -0.2712  0.4858  0.5975
12265SOL    HW149268   4.207   0.256   5.187 -0.1232 -0.5215 -0.2300
12265SOL    HW249269   4.072   0.348   5.201  0.4743  0.0103  2.3033
12266SOL     OW49270   5.073   4.843   0.686  0.1804 -0.8893  0.5940
12266SOL    HW149271   5.045   4.917   0.626  5.2450  1.0062  0.3080
12266SOL    HW249272   5.074   4.876   0.781 -0.3972 -1.5550  0.8411
12267SOL     OW49273   4.401   0.296   1.234 -0.0784 -0.4808 -0.9868
12267SOL    HW149274   4.448   0.368   1.182  0.6137 -0.3673 -0.2154
12267SOL    HW249275   4.466   0.253   1.297 -0.7599 -1.0320 -0.6614
12268SOL     OW49276   6.542   5.442   1.817 -0.3050 -0.2320  0.5108
12268SOL    HW149277   6.576   5.527   1.775 -0.2993 -0.0121  0.9647
12268SOL    HW249278   6.485   5.393   1.751 -0.2974  0.1171  0.2434
12269SOL     OW49279   5.259   4.556   3.973 -0.0791  0.3740  0.1273
12269SOL    HW149280   5.262   4.631   3.908 -0.7644  0.1989 -0.1167
12269SOL    HW249281   5.333   4.492   3.954 -1.1722 -0.4474 -1.4466
12270SOL     OW49282   1.228   2.908   3.620  0.3000 -0.2392  0.4274
12270SOL    HW149283   1.217   2.852   3.538  2.0264 -0.6666  0.4636
12270SOL    HW249284   1.234   3.004   3.594 -4.1325  0.1435  0.4786
12271SOL     OW49285   0.118   4.660   1.942 -0.3204  0.2818  0.1315
12271SOL    HW149286   0.023   4.682   1.963 -0.4160  1.0589 -1.0550
12271SOL    HW249287   0.164   4.630   2.025 -1.5033  0.2628  0.7943
12272SOL     OW49288   4.699   0.485   5.166 -0.2104 -0.0103 -0.4875
12272SOL    HW149289   4.647   0.510   5.247 -0.7113 -0.3518 -0.6973
12272SOL    HW249290   4.742   0.566   5.127 -0.0923  0.1775  0.0315
12273SOL     OW49291   0.323   8.665   8.758 -0.2027 -0.1619 -0.5077
12273SOL    HW149292   0.312   8.765   8.760  1.1673  0.0183 -1.4174
12273SOL    HW249293   0.234   8.622   8.775 -1.0817  1.2125 -1.4700
12274SOL     OW49294   6.192   2.100   6.936 -0.3995  0.0897  0.3633
12274SOL    HW149295   6.262   2.077   6.868  0.0650 -0.4489  1.0144
12274SOL    HW249296   6.134   2.174   6.901  0.8952  0.9803  0.0701
12275SOL     OW49297   4.097   7.009   0.395  0.0579  0.1544 -0.3432
12275SOL    HW149298   4.096   7.108   0.411 -1.0694  0.5288 -2.5495
12275SOL    HW249299   4.124   6.991   0.301 -0.2731 -1.6301 -0.1105
12276SOL     OW49300   5.315   1.233   8.523  0.3813 -0.0988  0.1888
12276SOL    HW149301   5.351   1.182   8.601 -1.1118 -0.5549  0.5859
12276SOL    HW249302   5.348   1.327   8.526  0.1888 -0.0726  1.4621
12277SOL     OW49303   4.925   4.186   7.746  0.4113 -0.5172 -0.0853
12277SOL    HW149304   4.837   4.144   7.770 -0.2991  1.8481  1.6555
12277SOL    HW249305   4.996   4.152   7.807  0.1172 -0.2050  0.4329
12278SOL     OW49306   5.889   6.175   8.566  0.0105 -0.4425 -0.3725
12278SOL    HW149307   5.856   6.171   8.472 -1.5519 -0.2092  0.1495
12278SOL    HW249308   5.890   6.270   8.597  0.8025 -0.4884 -0.2357
12279SOL     OW49309   2.861   4.128   3.555 -0.2234 -0.1282  0.0087
12279SOL    HW149310   2.899   4.105   3.644 -1.9035  0.1208  0.8028
12279SOL    HW249311   2.879   4.054   3.490 -0.4800 -1.0754  1.0027
12280SOL     OW49312   0.268   3.925   6.248  0.0230  0.0485 -0.7361
12280SOL    HW149313   0.359   3.965   6.264  1.1638 -1.1592 -3.7995
12280SOL    HW249314   0.209   3.993   6.204 -0.2835  0.5539  0.4464
12281SOL     OW49315   7.032   5.519   7.068  0.2158 -0.1670  0.4256
12281SOL    HW149316   7.040   5.458   6.989  0.3936 -0.7105  0.8596
12281SOL    HW249317   6.938   5.553   7.074  0.1793 -0.1953  0.0312
12282SOL     OW49318   5.612   3.738   8.490 -0.0696  0.0374  0.3265
12282SOL    HW149319   5.520   3.698   8.484 -0.3231  0.7386 -0.5618
12282SOL    HW249320   5.642   3.739   8.586 -1.4956  0.9225  0.7822
12283SOL     OW49321   3.334   8.623   2.504 -0.0349 -0.3516 -0.4897
12283SOL    HW149322   3.357   8.649   2.410 -2.5706  0.9059 -0.8144
12283SOL    HW249323   3.267   8.688   2.541 -0.1391 -1.6489  1.6927
12284SOL     OW49324   7.008   6.296   3.343  0.0922  0.1485 -0.0705
12284SOL    HW149325   7.000   6.295   3.244  0.6374 -0.5072 -0.1091
12284SOL    HW249326   6.985   6.207   3.380  0.5440  0.1954  0.3374
12285SOL     OW49327   1.370   1.546   7.759  0.1581  0.6990 -0.5769
12285SOL    HW149328   1.280   1.577   7.727 -0.2755  0.3257  0.2740
12285SOL    HW249329   1.376   1.447   7.752  0.5167  0.7234 -0.6446
12286SOL     OW49330   6.787   0.657   6.973 -0.2124  0.1933 -0.6007
12286SOL    HW149331   6.797   0.754   6.996 -1.7881 -0.3143  2.5121
12286SOL    HW249332   6.750   0.648   6.880 -3.2936  2.6915  0.3192
12287SOL     OW49333   5.200   7.713   1.642  0.0356 -0.9401  0.3517
12287SOL    HW149334   5.272   7.653   1.608  0.4612  0.9623 -2.2510
12287SOL    HW249335   5.111   7.678   1.613  0.0807 -1.8153  1.2492
12288SOL     OW49336   4.966   4.162   4.872 -0.1609  0.2760  0.4676
12288SOL    HW149337   4.976   4.101   4.793 -0.6632  0.4107  0.2982
12288SOL    HW249338   4.997   4.114   4.954  0.9417  0.3515  0.1015
12289SOL     OW49339   4.965   0.173   6.876 -0.1030  0.2237  0.0366
12289SOL    HW149340   4.924   0.097   6.826  0.3065 -0.5742  0.8901
12289SOL    HW249341   5.063   0.156   6.889 -0.3668 -0.0521  1.9063
12290SOL     OW49342   1.472   5.702   8.548 -0.0984 -0.2250  0.4335
12290SOL    HW149343   1.446   5.606   8.550 -1.0656  0.0357  0.7377
12290SOL    HW249344   1.541   5.717   8.478 -0.1521 -1.0872  0.1956
12291SOL     OW49345   6.053   6.247   4.860 -0.0690  0.4330  0.0134
12291SOL    HW149346   6.026   6.164   4.811 -0.3867 -0.1206  1.1215
12291SOL    HW249347   5.971   6.302   4.880 -0.1069 -0.0512  1.2057
12292SOL     OW49348   2.108   8.687   0.085 -0.2225 -0.5605  0.1625
12292SOL    HW149349   2.017   8.726   0.098  0.0814 -0.2005  1.2648
12292SOL    HW249350   2.146   8.719  -0.002 -0.1309  1.3261  0.8585
12293SOL     OW49351   4.524   5.340   5.399 -0.8121  0.1092  0.1931
12293SOL    HW149352   4.549   5.265   5.338 -0.1073  1.3926 -1.0886
12293SOL    HW249353   4.453   5.308   5.462  0.8764 -2.2365  0.9794
12294SOL     OW49354   4.555   2.376   3.092 -0.2643  0.3551 -0.5272
12294SOL    HW149355   4.629   2.442   3.083 -0.0629  0.4185  1.3772
12294SOL    HW249356   4.474   2.421   3.128 -0.0475 -0.4404  1.0220
12295SOL     OW49357   0.287   7.021   5.721 -0.1101  0.4676 -0.1707
12295SOL    HW149358   0.272   6.929   5.684 -0.7184  1.4389 -2.4094
12295SOL    HW249359   0.373   7.057   5.685 -0.3093  1.1210  0.0165
12296SOL     OW49360   2.269   3.472   7.949 -0.6442 -0.0605 -0.0254
12296SOL    HW149361   2.353   3.498   7.996 -1.0079 -0.0182  0.6097
12296SOL    HW249362   2.195   3.465   8.015 -1.0534 -0.4891 -0.5246
12297SOL     OW49363   3.038   8.096   8.580  0.0776 -0.2837 -0.6219
12297SOL    HW149364   2.943   8.125   8.590  0.2032  0.0035 -0.1995
12297SOL    HW249365   3.070   8.058   8.667  0.2558 -0.6547 -0.8503
12298SOL     OW49366   1.228   4.513   1.848 -0.2187  0.6465  0.1207
12298SOL    HW149367   1.322   4.489   1.826 -0.4914  0.5940 -1.0060
12298SOL    HW249368   1.200   4.591   1.793 -1.2897 -0.2144 -0.5815
12299SOL     OW49369   8.090   3.284   6.870 -0.0663  0.2466 -0.4054
12299SOL    HW149370   8.053   3.377   6.872  0.4287  0.4226  0.5610
12299SOL    HW249371   8.135   3.268   6.782  2.0918  1.8087  0.3660
12300SOL     OW49372   1.543   2.382   2.389 -0.2810  0.3398 -0.3053
12300SOL    HW149373   1.460   2.327   2.380  0.5512 -1.0910  0.6741
12300SOL    HW249374   1.585   2.365   2.478  1.7642  0.0736 -1.2899
12301SOL     OW49375   5.816   5.543   3.862 -0.5217  0.4937 -0.3823
12301SOL    HW149376   5.736   5.603   3.862 -1.6455 -0.9668 -0.5503
12301SOL    HW249377   5.838   5.518   3.768  1.8691  3.0810 -0.5995
12302SOL     OW49378   1.867   5.754   8.772  0.0180 -0.0616  0.0013
12302SOL    HW149379   1.933   5.690   8.733  1.4662  0.6824  1.2218
12302SOL    HW249380   1.872   5.842   8.724 -1.4142 -0.5688 -1.1407
12303SOL     OW49381   2.388   8.232   2.482 -0.3670  0.0677  0.0000
12303SOL    HW149382   2.439   8.297   2.425  0.5044  1.0181  1.8424
12303SOL    HW249383   2.295   8.223   2.445 -0.1080  1.3821 -1.0302
12304SOL     OW49384   4.257   1.813   3.189 -0.1078 -0.4079 -0.2805
12304SOL    HW149385   4.354   1.793   3.172 -0.1575  0.5925 -1.8403
12304SOL    HW249386   4.202   1.733   3.166  0.3895 -1.1807  1.1595
12305SOL     OW49387   6.482   8.791   1.509 -0.3086 -0.1188 -0.7734
12305SOL    HW149388   6.498   8.753   1.418  0.4064  0.8614 -1.0683
12305SOL    HW249389   6.537   8.741   1.576 -0.5641 -0.6086 -0.9229
12306SOL     OW49390   5.271   6.416   5.118  0.4763  0.3547  0.0658
12306SOL    HW149391   5.202   6.487   5.124 -3.0760 -2.6985 -2.1681
12306SOL    HW249392   5.269   6.360   5.201 -0.2281 -0.1046 -0.2536
12307SOL     OW49393   1.635   4.624   3.235 -0.2242 -0.8178 -0.3717
12307SOL    HW149394   1.730   4.603   3.214 -0.0786  0.3957 -0.9801
12307SOL    HW249395   1.575   4.560   3.187  0.2653 -1.1266 -0.5662
12308SOL     OW49396   2.243   3.832   2.571 -0.4327 -0.3570  0.0587
12308SOL    HW149397   2.316   3.765   2.562  0.3053  0.5702 -1.0344
12308SOL    HW249398   2.279   3.923   2.553 -1.6798  0.2086  0.3452
12309SOL     OW49399   0.128   0.432   6.971 -0.4526 -0.6325  0.1509
12309SOL    HW149400   0.079   0.346   6.981 -1.5661  0.0060  0.2328
12309SOL    HW249401   0.072   0.498   6.921  0.3720  0.0641  0.1131
12310SOL     OW49402   3.378   5.818   8.659  0.0495  0.3252 -0.1261
12310SOL    HW149403   3.444   5.862   8.598  1.2486 -0.5725  0.4941
12310SOL    HW249404   3.317   5.759   8.606  0.9128 -0.2370 -0.5003
12311SOL     OW49405   3.658   0.683   7.296  0.1454  0.2332 -0.1340
12311SOL    HW149406   3.567   0.646   7.276 -0.2719  1.7128 -1.0330
12311SOL    HW249407   3.725   0.608   7.294 -0.8001 -0.6109 -1.1486
12312SOL     OW49408   1.308   1.309   1.604  0.2140 -0.1224 -0.3782
12312SOL    HW149409   1.254   1.323   1.687  0.3267  0.9496 -0.4801
12312SOL    HW249410   1.396   1.356   1.613  0.3458 -0.2478 -0.9864
12313SOL     OW49411   8.471   2.835   1.265 -0.4736  0.1660 -0.0308
12313SOL    HW149412   8.409   2.907   1.296 -0.3273  0.8197 -1.2155
12313SOL    HW249413   8.437   2.795   1.180  0.8659  0.7461 -0.8588
12314SOL     OW49414   0.486   6.662   0.465 -0.0830 -0.7482 -0.3653
12314SOL    HW149415   0.398   6.626   0.434 -0.1559 -1.4603  0.6373
12314SOL    HW249416   0.505   6.628   0.558  0.6041  0.4989 -0.0384
12315SOL     OW49417   5.275   0.783   8.196 -0.1328 -0.0827  0.0175
12315SOL    HW149418   5.244   0.830   8.278 -0.6017 -0.9773  0.3659
12315SOL    HW249419   5.211   0.710   8.173  0.2414 -0.1424 -0.8790
12316SOL     OW49420   3.032   2.185   8.042  0.1020 -0.0066  0.3610
12316SOL    HW149421   3.110   2.236   8.078 -0.8995  1.4533  0.4786
12316SOL    HW249422   3.012   2.109   8.104  1.3023 -0.2929  0.4252
12317SOL     OW49423   1.026   2.967   1.816 -0.8072 -0.1672  0.0140
12317SOL    HW149424   1.075   2.953   1.903 -0.7527 -0.4808 -0.0656
12317SOL    HW249425   0.934   3.000   1.835  0.1797  2.6661  0.0904
12318SOL     OW49426   0.565   0.990   8.357  0.1789 -0.3428  0.5095
12318SOL    HW149427   0.545   0.904   8.404 -1.8185  1.4006  2.9771
12318SOL    HW249428   0.504   1.000   8.278  1.3271 -1.7516 -0.5988
12319SOL     OW49429   4.550   7.208   8.727 -0.1354 -0.7024  0.1090
12319SOL    HW149430   4.647   7.219   8.747 -0.2200 -0.3783  0.3410
12319SOL    HW249431   4.500   7.289   8.758 -0.2830 -0.2120 -1.3453
12320SOL     OW49432   4.351   3.264   5.291 -0.3146  0.4191 -0.0454
12320SOL    HW149433   4.331   3.235   5.198  0.4302 -2.2753  0.5796
12320SOL    HW249434   4.276   3.319   5.326 -0.0692  2.4586 -2.6149
12321SOL     OW49435   0.382   3.978   7.038 -0.1107  0.5737 -0.1668
12321SOL    HW149436   0.348   3.936   7.122  1.0475 -2.1454 -1.0087
12321SOL    HW249437   0.306   4.025   6.992 -1.2159  0.2946  1.3158
12322SOL     OW49438   5.170   4.422   0.588  0.0235 -0.7373 -0.1238
12322SOL    HW149439   5.262   4.418   0.550 -0.9339  0.5169 -2.7342
12322SOL    HW249440   5.125   4.333   0.575 -0.0788 -0.5088 -1.4593
12323SOL     OW49441   3.776   6.343   6.669  0.6028 -0.0905  0.0399
12323SOL    HW149442   3.779   6.443   6.669 -2.0027  0.0239 -0.8116
12323SOL    HW249443   3.721   6.310   6.746  3.0279 -0.9775  1.4508
12324SOL     OW49444   6.362   7.000   3.945  0.1630  0.0769 -0.7503
12324SOL    HW149445   6.315   7.032   4.027  1.4369  0.1089 -0.0200
12324SOL    HW249446   6.301   6.941   3.893 -0.8733  0.5728 -0.1115
12325SOL     OW49447   5.532   2.610   2.913  0.5839 -0.6083 -0.0652
12325SOL    HW149448   5.529   2.680   2.842 -0.6180  0.1422  0.6925
12325SOL    HW249449   5.621   2.611   2.958  0.8440 -0.1049 -0.5941
12326SOL     OW49450   3.014   3.345   4.396  0.0577  0.5902  0.4877
12326SOL    HW149451   3.066   3.390   4.323  2.4279  0.3192  1.9696
12326SOL    HW249452   3.030   3.246   4.392 -0.2945  0.5112  1.0308
12327SOL     OW49453   7.414   2.819   1.208  0.1120  0.4203  0.0807
12327SOL    HW149454   7.433   2.739   1.151 -2.5961 -1.2651  1.4338
12327SOL    HW249455   7.335   2.800   1.268  0.4988  3.4785  1.6835
12328SOL     OW49456   2.680   5.920   8.012 -0.7222 -0.3364  0.2756
12328SOL    HW149457   2.637   5.983   7.948  0.3225 -0.1741 -0.2739
12328SOL    HW249458   2.610   5.863   8.055 -1.5491  0.4132 -0.0778
12329SOL     OW49459   3.049   8.453   6.225 -0.2717  0.1586  0.4944
12329SOL    HW149460   3.023   8.373   6.171  3.5446 -1.0172  0.2382
12329SOL    HW249461   3.052   8.533   6.167  1.6332 -0.6809 -0.6006
12330SOL     OW49462   6.598   6.017   0.172 -0.1448  0.3208  0.1052
12330SOL    HW149463   6.590   6.083   0.098  1.3255  0.1827 -0.1840
12330SOL    HW249464   6.662   6.051   0.241  0.1095 -0.5014  0.2794
12331SOL     OW49465   6.995   4.409   7.543  0.1482 -0.2255 -0.7837
12331SOL    HW149466   7.038   4.496   7.567  0.3215 -0.4809 -0.1857
12331SOL    HW249467   7.034   4.375   7.457  0.7519 -0.1899 -0.5229
12332SOL     OW49468   2.280   2.378   1.609  0.7007  0.3822  0.1111
12332SOL    HW149469   2.285   2.300   1.672  0.4347 -0.3972 -0.8302
12332SOL    HW249470   2.295   2.463   1.660  0.3642 -0.2372  1.2537
12333SOL     OW49471   4.222   7.120   8.832 -0.0783 -0.1888  0.3153
12333SOL    HW149472   4.215   7.140   8.734  3.4022 -0.4353 -0.0160
12333SOL    HW249473   4.231   7.206   8.882 -0.3150 -0.1583  0.3090
12334SOL     OW49474   7.503   1.523   0.854  0.6528  0.3147  0.1395
12334SOL    HW149475   7.525   1.436   0.811 -1.0506 -0.2400  0.3439
12334SOL    HW249476   7.518   1.516   0.953  0.3245  0.1819  0.1812
12335SOL     OW49477   6.820   7.057   7.559 -0.2569 -0.4912  0.0073
12335SOL    HW149478   6.828   7.127   7.487  0.4133 -1.2308 -0.6442
12335SOL    HW249479   6.876   6.978   7.535  0.9528 -0.2477  1.9664
12336SOL     OW49480   3.839   5.639   0.609 -0.1269 -0.0927  0.5008
12336SOL    HW149481   3.866   5.563   0.668  0.3447 -0.2405  0.1002
12336SOL    HW249482   3.894   5.720   0.632  1.8781 -0.8566 -1.4439
12337SOL     OW49483   4.471   6.054   2.707 -0.0584 -0.5226  0.2539
12337SOL    HW149484   4.377   6.088   2.702  0.2689  0.1035 -2.2586
12337SOL    HW249485   4.535   6.129   2.689  0.8077 -1.6014 -1.2543
12338SOL     OW49486   3.580   1.555   1.666 -0.2215 -0.5685  0.1175
12338SOL    HW149487   3.538   1.479   1.616  0.5788  0.0702 -1.5715
12338SOL    HW249488   3.653   1.519   1.725  0.9215 -1.0086 -1.5243
12339SOL     OW49489   3.369   5.755   8.046 -0.0133 -0.0025  0.1171
12339SOL    HW149490   3.296   5.703   8.091 -1.1910  2.0332  0.6535
12339SOL    HW249491   3.355   5.754   7.947 -2.0764  2.2119  0.3519
12340SOL     OW49492   4.934   5.637   6.193 -0.3065 -0.4341 -0.1909
12340SOL    HW149493   4.839   5.669   6.192  0.1393  0.8843 -0.7523
12340SOL    HW249494   4.958   5.600   6.103  0.0150  0.1363 -0.3397
12341SOL     OW49495   8.857   4.684   0.867  0.1540 -0.4272  0.1690
12341SOL    HW149496   8.920   4.730   0.930 -0.7482 -2.5660  2.6887
12341SOL    HW249497   8.910   4.641   0.794  1.1512  2.8203 -1.1120
12342SOL     OW49498   4.619   5.961   3.240  0.3357 -0.1353  0.4860
12342SOL    HW149499   4.530   5.943   3.198 -0.3495  1.7012  1.0987
12342SOL    HW249500   4.631   5.901   3.319 -1.1522  0.7885  1.4590
12343SOL     OW49501   8.337   6.076   6.779 -0.3397 -0.2918  0.8661
12343SOL    HW149502   8.287   6.126   6.850  2.5452  0.8899  2.1808
12343SOL    HW249503   8.390   6.141   6.724  1.9119 -1.6862  1.3207
12344SOL     OW49504   5.330   6.569   8.409 -0.3172 -0.0563  0.4939
12344SOL    HW149505   5.253   6.629   8.389 -1.1423 -1.5561 -0.9410
12344SOL    HW249506   5.305   6.474   8.390  1.7543 -0.6231  0.4002
12345SOL     OW49507   2.475   4.553   2.426  0.5033  0.3796 -0.1912
12345SOL    HW149508   2.392   4.582   2.378  2.4095  2.7028 -2.2155
12345SOL    HW249509   2.525   4.487   2.370  1.5211  1.2443 -0.3036
12346SOL     OW49510   5.810   3.741   0.496 -0.0554 -0.3968  0.2780
12346SOL    HW149511   5.825   3.740   0.595 -0.1126 -0.2368  0.2875
12346SOL    HW249512   5.864   3.814   0.455  0.5462 -0.9325  0.1019
12347SOL     OW49513   2.186   0.020   4.992 -0.0229 -0.1881  0.6258
12347SOL    HW149514   2.183  -0.015   4.898  1.6821  0.8824  0.1471
12347SOL    HW249515   2.266  -0.018   5.039  0.4319  1.0910  0.9079
12348SOL     OW49516   6.939   0.005   8.025 -0.1339  0.2547 -0.0496
12348SOL    HW149517   6.944  -0.016   7.927  1.6715 -2.1182  0.5177
12348SOL    HW249518   7.031   0.015   8.062 -0.8149  1.3404  1.3873
12349SOL     OW49519   1.520   0.937   5.809 -0.0814  0.0677 -0.0472
12349SOL    HW149520   1.538   0.864   5.743 -1.4002 -1.1715  0.9291
12349SOL    HW249521   1.606   0.966   5.851  0.5172 -0.5314 -0.8510
12350SOL     OW49522   3.247   8.638   1.496 -0.6567  0.2312  1.1148
12350SOL    HW149523   3.285   8.546   1.496  1.9183  1.2640 -1.0154
12350SOL    HW249524   3.307   8.699   1.548 -0.5986  1.4013 -0.3191
12351SOL     OW49525   8.532   4.057   0.616  0.5369 -0.2226  0.0599
12351SOL    HW149526   8.494   4.025   0.529  3.5817 -0.4597 -1.2573
12351SOL    HW249527   8.556   4.154   0.608 -1.3615  0.3869  1.4524
12352SOL     OW49528   2.767   4.140   0.505  0.3624 -0.5325 -0.3820
12352SOL    HW149529   2.830   4.117   0.430  0.2286 -0.0262 -0.6511
12352SOL    HW249530   2.814   4.127   0.593  0.8016 -0.2971 -0.5780
12353SOL     OW49531   0.007   3.314   3.237  0.5273 -0.8001  0.3733
12353SOL    HW149532   0.039   3.375   3.310  2.0697 -1.0905 -0.0404
12353SOL    HW249533   0.067   3.234   3.232  0.7183 -0.5720 -1.4961
12354SOL     OW49534   3.643   3.617   0.544 -0.3812  0.5115  0.5164
12354SOL    HW149535   3.564   3.585   0.491  0.3218  1.4899 -1.1640
12354SOL    HW249536   3.633   3.715   0.562  0.7456  0.7806 -0.2645
12355SOL     OW49537   6.456   6.315   0.509  0.2307  0.2272 -0.2689
12355SOL    HW149538   6.390   6.374   0.462 -0.2212  1.3437  1.7511
12355SOL    HW249539   6.410   6.267   0.584  0.7685 -2.1495 -1.3895
12356SOL     OW49540   6.683   4.173   8.741 -0.1426  0.5288 -0.5007
12356SOL    HW149541   6.717   4.264   8.766 -0.9991  1.5847 -3.1177
12356SOL    HW249542   6.663   4.170   8.644 -0.7709 -2.2887 -0.3217
12357SOL     OW49543   6.423   8.414   0.566  0.2247  0.4121 -0.0502
12357SOL    HW149544   6.358   8.418   0.642 -0.4112 -0.0743 -0.5596
12357SOL    HW249545   6.487   8.339   0.581 -1.1229 -0.9365 -0.9462
12358SOL     OW49546   1.170   4.436   4.492  0.2875  0.3126 -0.7167
12358SOL    HW149547   1.145   4.450   4.588 -2.2312  1.7595 -1.5594
12358SOL    HW249548   1.213   4.519   4.456  0.2921  0.1361 -1.1243
12359SOL     OW49549   2.583   0.626   6.756  0.5311 -0.6952  0.1283
12359SOL    HW149550   2.601   0.725   6.754 -0.2917 -0.5431  0.2432
12359SOL    HW249551   2.652   0.581   6.812  2.2050 -0.4587 -1.6985
12360SOL     OW49552   0.009   3.907   1.518 -0.5597 -0.3433 -0.3706
12360SOL    HW149553   0.053   3.957   1.593 -0.8103 -1.5967  0.6336
12360SOL    HW249554   0.061   3.825   1.497 -0.8921 -0.3770 -1.0890
12361SOL     OW49555   1.322   2.809   3.857  0.2015  0.2537 -0.2144
12361SOL    HW149556   1.302   2.865   3.777  1.0475 -0.2899 -0.8009
12361SOL    HW249557   1.291   2.715   3.841  0.6814  0.0650 -0.0313
12362SOL     OW49558   2.131   4.300   4.987 -0.2747  0.0019 -0.1925
12362SOL    HW149559   2.105   4.331   4.895 -0.1969 -0.2019 -0.2851
12362SOL    HW249560   2.099   4.366   5.055  0.2974  0.5208 -0.4240
12363SOL     OW49561   6.717   6.637   7.560  0.2367 -0.1571 -0.1968
12363SOL    HW149562   6.686   6.731   7.570  2.1466  0.6148 -1.4158
12363SOL    HW249563   6.725   6.595   7.651  0.4707  1.2018  0.4197
12364SOL     OW49564   2.578   0.378   1.429  0.4667  0.2166  0.5539
12364SOL    HW149565   2.563   0.445   1.501  3.2719  1.6107 -0.0503
12364SOL    HW249566   2.661   0.326   1.449  0.1545 -0.7666 -0.6447
12365SOL     OW49567   0.543   3.197   7.323  0.8173 -0.1851  0.6064
12365SOL    HW149568   0.639   3.178   7.301  0.4145 -0.1188 -1.3067
12365SOL    HW249569   0.486   3.123   7.287 -0.1433  1.4089 -1.2670
12366SOL     OW49570   6.963   5.261   2.232  0.3524 -0.4975  0.2481
12366SOL    HW149571   6.891   5.250   2.163 -0.1622 -0.8033  0.8283
12366SOL    HW249572   7.022   5.180   2.231 -0.2489 -0.9448  0.8484
12367SOL     OW49573   4.503   1.672   6.305 -0.1731 -0.3729  0.0232
12367SOL    HW149574   4.535   1.658   6.398 -0.1769 -1.9927 -0.2057
12367SOL    HW249575   4.531   1.594   6.248  1.9613  1.7073 -1.8991
12368SOL     OW49576   8.705   3.890   6.534 -0.1677 -0.0165 -0.1064
12368SOL    HW149577   8.608   3.887   6.512 -0.2375 -0.1615  0.2108
12368SOL    HW249578   8.735   3.985   6.543 -0.0861  0.0522 -1.0344
12369SOL     OW49579   5.798   8.425   2.002 -0.0406 -0.0574 -0.1259
12369SOL    HW149580   5.727   8.487   2.035 -0.1326 -0.0140 -0.4042
12369SOL    HW249581   5.757   8.356   1.943  0.0216 -0.5395  0.3915
12370SOL     OW49582   5.662   6.387   8.680 -0.5700  0.5270 -0.0620
12370SOL    HW149583   5.676   6.297   8.640 -1.6507  0.6050 -0.6153
12370SOL    HW249584   5.637   6.377   8.776  0.0935  0.2739  0.0899
12371SOL     OW49585   1.939   7.691   7.659  0.0597  0.1004 -0.2453
12371SOL    HW149586   1.900   7.637   7.733 -2.3002  0.9016 -0.8609
12371SOL    HW249587   1.995   7.765   7.697  0.6346 -0.7748  0.6535
12372SOL     OW49588   3.332   8.450   6.045  0.6712  0.3545 -0.4814
12372SOL    HW149589   3.368   8.466   6.137  0.0762  1.2601 -0.3949
12372SOL    HW249590   3.261   8.518   6.025 -0.0884 -0.6239 -1.1325
12373SOL     OW49591   5.041   2.271   7.236 -0.3058 -0.2824 -0.1261
12373SOL    HW149592   5.120   2.210   7.229 -0.3152 -0.5137  1.7672
12373SOL    HW249593   4.979   2.253   7.159  1.7685  0.3642 -2.0167
12374SOL     OW49594   4.063   4.865   7.016  0.3746  0.7196 -0.0952
12374SOL    HW149595   4.130   4.868   6.942  0.2949  0.2333 -0.1865
12374SOL    HW249596   4.071   4.948   7.071 -0.1269  1.4839 -1.1394
12375SOL     OW49597   0.773   3.192   5.358  0.6936  0.0418 -0.1151
12375SOL    HW149598   0.870   3.203   5.340  0.8188 -2.1283 -0.9132
12375SOL    HW249599   0.728   3.156   5.276 -0.2880 -1.5883  1.1060
12376SOL     OW49600   4.644   2.156   2.485  0.1589 -0.0455  0.1594
12376SOL    HW149601   4.712   2.212   2.532 -0.5225  1.4028 -0.5346
12376SOL    HW249602   4.554   2.199   2.494 -0.0008  0.2346 -2.3747
12377SOL     OW49603   8.874   6.707   8.081 -0.1320  0.8186  0.2050
12377SOL    HW149604   8.886   6.619   8.034 -1.3469  0.3776  0.6732
12377SOL    HW249605   8.928   6.777   8.036  1.2627 -0.2786  0.1296
12378SOL     OW49606   3.140   7.703   7.028 -0.1563 -0.1157  0.4202
12378SOL    HW149607   3.208   7.770   6.999  1.5244 -0.9402  2.2667
12378SOL    HW249608   3.049   7.744   7.025  0.1593  0.5065 -3.6639
12379SOL     OW49609   2.085   4.691   7.023  0.3482 -0.1337 -0.5252
12379SOL    HW149610   2.017   4.697   6.951  1.3572  0.1805 -1.4652
12379SOL    HW249611   2.111   4.783   7.053  0.8408 -0.2372 -0.6304
12380SOL     OW49612   5.877   6.275   5.691 -0.0138 -0.2684 -0.6487
12380SOL    HW149613   5.969   6.263   5.728 -0.6465 -3.8797 -0.0084
12380SOL    HW249614   5.830   6.348   5.742  1.8223  0.2973  0.2884
12381SOL     OW49615   5.886   7.276   3.642 -0.1901 -0.6690  0.0284
12381SOL    HW149616   5.852   7.222   3.564 -0.9917 -1.0647  0.6429
12381SOL    HW249617   5.947   7.348   3.608 -0.0344 -1.2270 -0.9080
12382SOL     OW49618   4.236   1.844   8.796 -0.1882 -0.6660  0.1734
12382SOL    HW149619   4.189   1.921   8.753  0.1311 -0.5404  0.0478
12382SOL    HW249620   4.223   1.848   8.895  0.7655  0.1878  0.2750
12383SOL     OW49621   6.200   5.769   3.287 -0.4822 -0.1122 -0.2525
12383SOL    HW149622   6.261   5.759   3.208  0.8519 -2.0833  0.9810
12383SOL    HW249623   6.207   5.862   3.323 -0.1994  0.4472 -1.7115
12384SOL     OW49624   2.355   3.754   1.393  0.1116 -0.1056  0.1824
12384SOL    HW149625   2.376   3.678   1.454 -0.1284  1.8604  2.7949
12384SOL    HW249626   2.387   3.732   1.301  1.3805 -2.7245  1.1824
12385SOL     OW49627   1.674   2.286   5.364  0.0173 -0.4641  0.4964
12385SOL    HW149628   1.676   2.187   5.380 -0.0257 -0.5002  0.2701
12385SOL    HW249629   1.592   2.325   5.405  0.1129 -0.4990  0.7223
12386SOL     OW49630   1.780   4.391   7.353 -0.2745 -0.0394 -0.0167
12386SOL    HW149631   1.757   4.471   7.297 -2.0815  0.2321  1.0944
12386SOL    HW249632   1.879   4.391   7.371  0.0110  0.9845 -1.4800
12387SOL     OW49633   3.140   1.888   7.319 -0.2763  0.1202 -0.0773
12387SOL    HW149634   3.212   1.952   7.345 -1.2905  1.8803 -1.4672
12387SOL    HW249635   3.161   1.848   7.230 -0.6185  0.0021 -0.1067
12388SOL     OW49636   5.997   5.614   8.886  0.0117 -0.2750 -0.1972
12388SOL    HW149637   6.001   5.679   8.962  0.5013 -0.3967 -0.1182
12388SOL    HW249638   6.025   5.660   8.802 -2.2791  0.3642 -0.6561
12389SOL     OW49639   4.959   5.760   5.535  0.5215 -0.5271 -0.5279
12389SOL    HW149640   4.944   5.794   5.627 -0.3954 -0.2095 -0.7887
12389SOL    HW249641   5.036   5.696   5.534  0.2647 -0.8469  0.5204
12390SOL     OW49642   5.584   7.508   0.154  0.0709 -0.0046  0.3339
12390SOL    HW149643   5.586   7.472   0.247  0.6792  1.1650  0.7760
12390SOL    HW249644   5.677   7.529   0.124 -0.5014  4.4373  1.3676
12391SOL     OW49645   3.585   0.428   8.141 -0.6727  0.2279 -0.2656
12391SOL    HW149646   3.514   0.399   8.076 -0.3275 -0.7083 -0.2404
12391SOL    HW249647   3.633   0.347   8.176  0.5100  0.8646 -0.3946
12392SOL     OW49648   6.735   2.661   1.496  0.3044 -0.5098 -0.2097
12392SOL    HW149649   6.647   2.646   1.451  0.5316 -3.0851  0.1322
12392SOL    HW249650   6.790   2.723   1.441 -0.9402 -0.5024 -1.4828
12393SOL     OW49651   4.310   7.065   4.724 -0.0943  0.0664  0.3289
12393SOL    HW149652   4.402   7.106   4.728  0.3309 -0.7365 -1.1152
12393SOL    HW249653   4.301   6.997   4.797  0.4350  0.1940  0.5149
12394SOL     OW49654   5.990   3.074   8.592 -0.0532 -0.2346  0.1384
12394SOL    HW149655   5.997   3.002   8.523 -1.4069  0.7676 -1.0733
12394SOL    HW249656   5.991   3.163   8.547  1.5153  0.5236  1.6136
12395SOL     OW49657   7.812   5.800   5.493 -0.2423  0.3739 -0.2349
12395SOL    HW149658   7.911   5.788   5.484 -0.3201 -0.8768  0.3901
12395SOL    HW249659   7.768   5.784   5.405 -0.0306 -0.7947 -0.1423
12396SOL     OW49660   5.930   6.133   7.800 -0.7904  0.1571 -0.2024
12396SOL    HW149661   5.922   6.139   7.899 -0.8935  1.1572 -0.2663
12396SOL    HW249662   5.839   6.140   7.759 -1.0488 -2.8615 -0.2620
12397SOL     OW49663   4.512   0.869   5.824 -0.2519 -0.1003  0.4004
12397SOL    HW149664   4.586   0.917   5.870  0.8264 -0.3137 -1.0801
12397SOL    HW249665   4.439   0.850   5.889  0.1658  1.7854  1.4476
12398SOL     OW49666   6.835   0.168   7.127  0.4808 -0.1294  0.2727
12398SOL    HW149667   6.798   0.101   7.191 -0.0222  1.0441  1.2269
12398SOL    HW249668   6.782   0.252   7.132 -0.2707 -0.3856 -2.5082
12399SOL     OW49669   3.316   6.153   7.371  0.1261 -0.0885  0.0908
12399SOL    HW149670   3.304   6.243   7.331  2.7409  0.5386  0.6017
12399SOL    HW249671   3.400   6.152   7.426  0.3049 -2.8962 -0.1466
12400SOL     OW49672   7.009   0.173   0.174  0.3430 -0.1457  0.5503
12400SOL    HW149673   6.932   0.179   0.238 -0.2923 -0.0024 -0.2130
12400SOL    HW249674   6.998   0.091   0.117 -0.0810  0.7177 -0.6204
12401SOL     OW49675   8.031   7.871   2.885  0.2599  0.1380  0.1752
12401SOL    HW149676   7.947   7.925   2.880  0.9950  1.4406  1.3468
12401SOL    HW249677   8.087   7.905   2.960  1.6655 -0.9679 -0.3585
12402SOL     OW49678   8.069   4.457   7.759  0.3602 -0.8056 -0.1782
12402SOL    HW149679   8.152   4.441   7.813  0.6038  1.4502  0.1431
12402SOL    HW249680   7.989   4.454   7.819  0.5839  1.1376  0.2543
12403SOL     OW49681   1.057   6.572   8.619  0.4264  0.1593 -0.6401
12403SOL    HW149682   1.116   6.636   8.570 -0.4462 -0.6332 -2.7610
12403SOL    HW249683   1.077   6.479   8.589 -2.5632 -0.0503 -2.1473
12404SOL     OW49684   8.185   1.768   5.961  0.3121  0.5748  0.4920
12404SOL    HW149685   8.174   1.867   5.970 -2.6367  0.6554 -2.9995
12404SOL    HW249686   8.104   1.722   5.998  0.6883 -0.4421  0.0804
12405SOL     OW49687   2.164   7.643   8.487  0.2180 -0.1901 -0.1384
12405SOL    HW149688   2.187   7.643   8.390 -0.2176 -1.2988 -0.2517
12405SOL    HW249689   2.168   7.736   8.523  1.5539  0.0741 -0.9362
12406SOL     OW49690   8.800   5.013   7.368  0.0482 -0.1948 -0.1140
12406SOL    HW149691   8.805   5.077   7.444  2.0219 -2.1729  1.4509
12406SOL    HW249692   8.709   5.018   7.327 -0.5777  1.9066  1.4387
12407SOL     OW49693   6.751   5.598   7.217 -0.3184 -0.0580  0.1797
12407SOL    HW149694   6.804   5.673   7.258 -1.6635  2.1328 -1.9807
12407SOL    HW249695   6.666   5.634   7.179 -0.8777 -2.6767 -1.1718
12408SOL     OW49696   6.238   3.677   6.231  0.1889  0.4854 -0.8103
12408SOL    HW149697   6.276   3.749   6.173 -0.3430  0.8989 -0.6511
12408SOL    HW249698   6.203   3.718   6.315  0.7831 -0.0894 -0.2847
12409SOL     OW49699   4.023   8.593   1.109 -0.0263 -0.5118 -0.0186
12409SOL    HW149700   4.069   8.507   1.131 -0.2123 -0.6682 -0.2272
12409SOL    HW249701   4.000   8.642   1.193 -2.1851 -1.8624  0.2116
12410SOL     OW49702   7.694   0.722   1.567 -0.1446 -0.1347 -0.2810
12410SOL    HW149703   7.627   0.733   1.640 -0.1669  1.3878 -0.5146
12410SOL    HW249704   7.766   0.660   1.597 -1.8957 -2.2020 -0.2155
12411SOL     OW49705   2.836   1.470   6.970  0.2882  0.8074 -0.0269
12411SOL    HW149706   2.744   1.501   6.997 -0.4007 -1.3522  0.1764
12411SOL    HW249707   2.893   1.550   6.950 -1.7323  2.1820 -0.5119
12412SOL     OW49708   8.120   2.462   8.193  0.6463 -0.3641 -0.2279
12412SOL    HW149709   8.065   2.542   8.171  0.9532  0.5347  2.1782
12412SOL    HW249710   8.189   2.449   8.121 -0.6231  0.3916 -1.6034
12413SOL     OW49711   1.906   3.494   7.542  0.0840 -0.0688 -0.7176
12413SOL    HW149712   1.990   3.537   7.575 -0.3759 -0.3109  0.7716
12413SOL    HW249713   1.827   3.535   7.587 -0.7630  1.4430 -3.4616
12414SOL     OW49714   1.478   3.435   8.642 -0.3015  0.2676 -0.2645
12414SOL    HW149715   1.404   3.372   8.616 -0.9791  0.4892  1.1161
12414SOL    HW249716   1.441   3.528   8.650 -0.1195  0.2032  1.5158
12415SOL     OW49717   6.530   2.439   6.817 -0.1050 -0.2116  0.2333
12415SOL    HW149718   6.514   2.356   6.763  1.4488 -1.3865  1.5285
12415SOL    HW249719   6.481   2.430   6.905  0.4126  0.0515  0.5484
12416SOL     OW49720   0.164   8.792   1.557  0.3549 -0.3018 -0.4102
12416SOL    HW149721   0.209   8.862   1.612  0.2604 -0.4547 -0.1368
12416SOL    HW249722   0.076   8.827   1.525 -0.5847 -0.9716  1.3351
12417SOL     OW49723   4.660   0.837   4.749 -0.3154 -0.5483  0.3673
12417SOL    HW149724   4.674   0.934   4.767  2.2351 -0.8883  0.4078
12417SOL    HW249725   4.601   0.826   4.668 -0.5688  1.0110  0.3288
12418SOL     OW49726   7.128   6.982   8.580  0.0311  0.3228  0.0772
12418SOL    HW149727   7.047   6.954   8.632 -0.0506 -0.2143 -0.3379
12418SOL    HW249728   7.190   6.905   8.570  1.0096  0.9449  1.1331
12419SOL     OW49729   1.181   6.688   5.404  0.2441 -0.1212 -0.2125
12419SOL    HW149730   1.161   6.680   5.501 -3.5909  0.4965 -0.8816
12419SOL    HW249731   1.159   6.780   5.373  3.1024  0.2299 -1.3560
12420SOL     OW49732   2.858   2.205   3.646 -0.4883 -0.2013 -0.4708
12420SOL    HW149733   2.948   2.183   3.609  0.3268  0.4911  1.0557
12420SOL    HW249734   2.857   2.299   3.678 -0.5770 -1.2613  2.8621
12421SOL     OW49735   6.648   5.332   8.922 -0.5102  0.0392  0.4210
12421SOL    HW149736   6.604   5.265   8.981 -0.3308  1.4365  2.1916
12421SOL    HW249737   6.745   5.308   8.911 -0.6459 -0.4721  0.3250
12422SOL     OW49738   6.263   0.818   7.979  0.3602  0.0764  0.1006
12422SOL    HW149739   6.256   0.828   7.879  1.1342 -1.5154 -0.1204
12422SOL    HW249740   6.192   0.873   8.022 -1.4060 -0.9462 -1.4179
12423SOL     OW49741   5.727   0.412   2.708  0.2864  0.1270  0.1879
12423SOL    HW149742   5.682   0.326   2.686  0.8257 -0.1399  0.1121
12423SOL    HW249743   5.682   0.487   2.660 -0.4379 -0.0580  0.5721
12424SOL     OW49744   4.328   4.062   8.402 -0.4567  0.2574  0.1288
12424SOL    HW149745   4.397   4.105   8.343 -1.9728  2.7133  0.0563
12424SOL    HW249746   4.332   4.103   8.493  0.0739 -1.6326  0.9830
12425SOL     OW49747   8.463   3.736   3.882 -0.0204 -0.7796 -0.3067
12425SOL    HW149748   8.515   3.795   3.820 -0.6180 -1.5860 -1.6116
12425SOL    HW249749   8.465   3.642   3.848  2.3397 -1.8814  2.6641
12426SOL     OW49750   4.820   8.534   0.587 -0.4767 -0.0147  0.9867
12426SOL    HW149751   4.782   8.448   0.555 -1.7881  0.3466  1.5256
12426SOL    HW249752   4.862   8.521   0.677 -1.7251  0.1432  1.6075
12427SOL     OW49753   1.407   1.943   4.909  0.4744 -0.4865  0.1482
12427SOL    HW149754   1.446   2.002   4.838 -1.9096  0.2262 -0.6232
12427SOL    HW249755   1.339   1.995   4.961  0.0080 -1.8867  0.9577
12428SOL     OW49756   8.991   3.694   4.430  0.0715 -0.4720  0.0570
12428SOL    HW149757   8.924   3.620   4.438  0.5193 -1.2742 -3.1313
12428SOL    HW249758   9.083   3.657   4.444  0.3157 -0.5814 -1.7981
12429SOL     OW49759   8.307   6.111   2.305  0.0230  0.0884 -0.1455
12429SOL    HW149760   8.312   6.166   2.221 -0.1388  0.4748  0.0973
12429SOL    HW249761   8.258   6.026   2.286  1.4388 -0.5913 -0.8536
12430SOL     OW49762   0.333   8.561   6.666  0.4712 -0.8461  0.5167
12430SOL    HW149763   0.312   8.494   6.738 -0.9909  2.5336  3.3955
12430SOL    HW249764   0.386   8.635   6.705  1.4401  0.0903 -2.4518
12431SOL     OW49765   8.200   0.767   1.553 -0.5146 -0.1058 -0.3262
12431SOL    HW149766   8.181   0.795   1.647  0.6166 -1.7941  0.4296
12431SOL    HW249767   8.218   0.669   1.550  0.2963  0.0709 -2.1723
12432SOL     OW49768   2.110   5.247   2.011 -0.0050 -0.5660  0.7571
12432SOL    HW149769   2.023   5.292   1.992  0.9692  1.4023  0.8340
12432SOL    HW249770   2.113   5.221   2.108  0.5388  1.8162  1.4286
12433SOL     OW49771   8.289   0.425   2.821 -0.3639  0.0895 -0.0688
12433SOL    HW149772   8.236   0.507   2.840 -0.9942 -0.3468  0.0869
12433SOL    HW249773   8.273   0.358   2.893  1.5733  0.5112  0.7689
12434SOL     OW49774   5.374   1.267   7.542 -0.3356  0.4509 -0.3980
12434SOL    HW149775   5.292   1.265   7.599  0.1961 -2.6152  0.3784
12434SOL    HW249776   5.355   1.223   7.454  0.9049 -2.1002  0.5338
12435SOL     OW49777   2.791   3.317   5.674 -0.8746 -0.3851  0.5060
12435SOL    HW149778   2.840   3.230   5.675 -3.0216 -1.6473 -1.3524
12435SOL    HW249779   2.693   3.301   5.681 -1.2904  1.9170  0.4870
12436SOL     OW49780   6.209   4.016   3.660  0.0757 -0.3932  0.1461
12436SOL    HW149781   6.271   4.047   3.732 -0.8550  0.9701  0.3703
12436SOL    HW249782   6.260   3.960   3.595  1.0922 -1.0128  1.4396
12437SOL     OW49783   5.608   7.539   6.118  0.0136  0.0365 -0.0400
12437SOL    HW149784   5.672   7.506   6.188 -0.7229  1.5398  1.3818
12437SOL    HW249785   5.621   7.637   6.104 -0.4435 -0.0929 -1.3962
12438SOL     OW49786   2.418   8.046   8.177 -0.4708 -0.2791 -0.3366
12438SOL    HW149787   2.445   7.954   8.151 -0.2680 -0.9549  2.0915
12438SOL    HW249788   2.488   8.085   8.237 -0.7579  1.2977 -1.0109
12439SOL     OW49789   5.124   2.408   8.383  0.1507 -0.4763  0.5768
12439SOL    HW149790   5.167   2.438   8.468  1.8992 -0.0718 -0.4193
12439SOL    HW249791   5.043   2.464   8.365  0.0689 -0.2198  1.7012
12440SOL     OW49792   5.466   4.373   6.846  0.3619 -0.1897  0.1274
12440SOL    HW149793   5.502   4.284   6.817  0.0661 -0.5004  0.6824
12440SOL    HW249794   5.533   4.419   6.904  1.7767  1.3183 -2.6174
12441SOL     OW49795   1.999   3.122   5.165  0.4889  0.6518 -0.2720
12441SOL    HW149796   1.931   3.052   5.185 -0.1989  1.3010 -0.3352
12441SOL    HW249797   1.994   3.194   5.234  2.4137 -0.2347  0.8426
12442SOL     OW49798   6.965   8.071   6.484  0.4990 -0.0994 -0.5976
12442SOL    HW149799   7.021   8.093   6.404  1.2028  0.2650 -0.0068
12442SOL    HW249800   6.943   8.155   6.534 -1.1976 -0.1420 -1.2251
12443SOL     OW49801   6.361   0.763   3.706  0.6255  0.1556  0.5403
12443SOL    HW149802   6.433   0.833   3.699  0.2208  0.5087 -0.1408
12443SOL    HW249803   6.273   0.807   3.724  0.6330 -0.3049  1.7598
12444SOL     OW49804   4.955   5.295   3.827  0.7715  0.2809 -0.0528
12444SOL    HW149805   4.920   5.216   3.878  2.0269 -0.6034 -0.5499
12444SOL    HW249806   5.038   5.329   3.871 -0.2673  1.9101  0.6871
12445SOL     OW49807   3.734   6.050   0.928 -0.4466 -0.6794  0.4679
12445SOL    HW149808   3.655   6.106   0.953  0.9227  1.0676  0.9904
12445SOL    HW249809   3.730   5.963   0.978 -0.5831  0.5569  2.6768
12446SOL     OW49810   1.057   2.209   5.973  0.3564  0.2187 -0.2169
12446SOL    HW149811   1.091   2.279   5.911  0.4398 -0.4813 -0.9674
12446SOL    HW249812   0.994   2.149   5.924 -0.7529  0.5746  0.7645
12447SOL     OW49813   3.938   1.100   0.796 -0.1286  0.0804 -0.1628
12447SOL    HW149814   3.909   1.016   0.841 -0.3911 -0.8786 -2.0751
12447SOL    HW249815   4.037   1.096   0.778 -0.5957 -1.0825 -2.7572
12448SOL     OW49816   5.175   7.178   8.152  0.2635 -0.0629  0.4405
12448SOL    HW149817   5.118   7.210   8.076 -1.2074 -0.9651  1.1308
12448SOL    HW249818   5.125   7.189   8.238  1.7066  0.4659  1.2291
12449SOL     OW49819   1.546   3.155   6.733  0.0720  0.1543  0.3749
12449SOL    HW149820   1.622   3.098   6.763  0.4745  1.1727  1.3307
12449SOL    HW249821   1.460   3.123   6.774 -0.0720 -1.1688 -0.9304
12450SOL     OW49822   1.127   1.019   7.379 -0.0921  0.5097 -0.5366
12450SOL    HW149823   1.056   0.997   7.446 -0.0686 -2.3452 -1.3765
12450SOL    HW249824   1.217   0.996   7.418  0.0771  0.6424 -0.8485
12451SOL     OW49825   6.093   0.887   4.327 -0.0900  0.1292 -0.0682
12451SOL    HW149826   6.106   0.795   4.292  0.6198  1.0940 -2.4483
12451SOL    HW249827   6.085   0.951   4.250 -0.6453  2.0337  1.5368
12452SOL     OW49828   4.808   3.167   0.598  0.3841 -0.3723 -0.0983
12452SOL    HW149829   4.855   3.080   0.589 -0.6282 -0.6471 -3.3269
12452SOL    HW249830   4.867   3.241   0.565 -0.0454 -0.2846 -0.6863
12453SOL     OW49831   8.749   5.432   8.652  0.2769 -0.2291  0.4085
12453SOL    HW149832   8.734   5.371   8.730 -1.1330 -0.8621 -0.3277
12453SOL    HW249833   8.667   5.431   8.594  1.3318  0.2201 -1.0915
12454SOL     OW49834   6.257   5.678   1.570  0.4595  0.1230 -0.2628
12454SOL    HW149835   6.179   5.625   1.606  0.4605 -0.5323 -1.2046
12454SOL    HW249836   6.226   5.735   1.494  0.9620 -0.3929 -0.8605
12455SOL     OW49837   2.776   1.289   4.822 -0.4605 -0.2720  0.0246
12455SOL    HW149838   2.868   1.324   4.834  0.1415 -1.0867 -1.9272
12455SOL    HW249839   2.761   1.212   4.885  0.9884 -1.5739 -1.1839
12456SOL     OW49840   6.732   1.093   1.467 -0.1459 -0.3337  0.4819
12456SOL    HW149841   6.649   1.106   1.414  0.0991  3.1689  0.8750
12456SOL    HW249842   6.713   1.032   1.544 -1.4973 -2.1789 -1.2600
12457SOL     OW49843   1.076   2.838   1.314  0.3616  0.5151  0.7736
12457SOL    HW149844   1.092   2.765   1.381  0.1772  0.3775  0.6686
12457SOL    HW249845   0.987   2.825   1.271 -1.1144  2.6539  3.1021
12458SOL     OW49846   2.724   4.251   1.004 -0.2156  0.5846  0.0360
12458SOL    HW149847   2.745   4.212   1.094 -1.0640  0.7267  0.2994
12458SOL    HW249848   2.628   4.231   0.980  0.5295 -1.1655 -1.6984
12459SOL     OW49849   5.400   0.630   7.468 -0.9700 -0.0643  0.3901
12459SOL    HW149850   5.416   0.722   7.503  2.0078 -0.5062  0.2846
12459SOL    HW249851   5.397   0.632   7.368 -0.8030 -0.1166  0.3852
12460SOL     OW49852   6.194   4.900   1.131  0.2871 -0.3067 -0.2697
12460SOL    HW149853   6.269   4.953   1.092 -0.2415  0.9817  0.4696
12460SOL    HW249854   6.107   4.939   1.104 -0.1226 -1.1842 -0.2541
12461SOL     OW49855   2.298   2.079   2.541  0.9335  0.4541 -0.3756
12461SOL    HW149856   2.313   2.117   2.632  1.5615 -0.2569 -0.1718
12461SOL    HW249857   2.272   1.983   2.549 -2.1631  1.2218 -0.8086
12462SOL     OW49858   5.008   3.104   0.094 -0.5348 -0.4360 -0.5024
12462SOL    HW149859   5.024   3.131   0.188  2.4851 -2.1307 -0.4705
12462SOL    HW249860   4.974   3.182   0.042 -0.3324  1.0283  1.5213
12463SOL     OW49861   2.946   8.005   6.431  0.2986 -0.2679 -0.8512
12463SOL    HW149862   2.912   7.942   6.502 -1.3514 -0.0255 -1.4088
12463SOL    HW249863   2.920   8.099   6.455 -0.1895 -0.1754 -1.7392
12464SOL     OW49864   4.268   3.124   3.917  0.2454  0.5337 -0.0996
12464SOL    HW149865   4.175   3.107   3.950  0.7157 -1.3998  0.3077
12464SOL    HW249866   4.281   3.076   3.830  0.5165  1.7300 -0.7272
12465SOL     OW49867   5.891   8.015   6.552 -0.1008 -0.7227  0.2761
12465SOL    HW149868   5.957   8.086   6.527  0.8780 -1.5357  0.5019
12465SOL    HW249869   5.824   8.003   6.479 -0.6056  0.8173  0.4795
12466SOL     OW49870   3.625   6.894   7.202 -0.1007  0.2229 -0.0239
12466SOL    HW149871   3.595   6.849   7.286 -0.9871  1.5972  0.4239
12466SOL    HW249872   3.644   6.990   7.221 -2.1621  1.0267 -1.7552
12467SOL     OW49873   2.454   8.664   1.196 -0.1269  0.0764 -0.0261
12467SOL    HW149874   2.359   8.688   1.174 -0.5887 -0.7869  0.9348
12467SOL    HW249875   2.515   8.738   1.171 -1.0562  0.5865 -0.7768
12468SOL     OW49876   8.483   2.669   1.483  0.2592 -0.2983 -0.5804
12468SOL    HW149877   8.571   2.622   1.482  1.4102  1.7215  0.9135
12468SOL    HW249878   8.473   2.724   1.400  0.4755 -0.4111 -0.6810
12469SOL     OW49879   4.344   6.915   6.559  0.2386  0.0068  0.1725
12469SOL    HW149880   4.287   6.879   6.634 -0.1416 -0.2337 -0.2300
12469SOL    HW249881   4.436   6.934   6.593  0.2055 -0.5624  0.5903
12470SOL     OW49882   6.147   8.928   8.527  0.3239 -0.7297  0.4567
12470SOL    HW149883   6.140   9.021   8.564 -0.4103 -1.2631  1.6824
12470SOL    HW249884   6.079   8.870   8.571  0.5633 -1.7721 -0.5482
12471SOL     OW49885   4.445   3.757   8.357  0.2271  0.1403  0.2719
12471SOL    HW149886   4.391   3.841   8.363  0.4474  0.2155  1.2940
12471SOL    HW249887   4.388   3.678   8.382  0.4635  0.1719  0.9250
12472SOL     OW49888   1.330   6.443   4.994 -0.3970 -0.1783  0.4971
12472SOL    HW149889   1.262   6.374   4.969 -2.1206  0.9420  1.9533
12472SOL    HW249890   1.364   6.488   4.911 -1.0732 -1.0775 -0.2736
12473SOL     OW49891   5.983   5.642   5.375 -0.9813  0.0765  0.3932
12473SOL    HW149892   5.929   5.573   5.423  0.3267 -0.9909  0.3499
12473SOL    HW249893   6.005   5.716   5.439 -1.6493  0.0426  0.6725
12474SOL     OW49894   5.107   3.198   0.799  0.1711  0.1460 -0.0269
12474SOL    HW149895   5.180   3.261   0.826  0.4278 -0.0349 -0.2890
12474SOL    HW249896   5.106   3.190   0.699 -0.0633 -0.0253 -0.0107
12475SOL     OW49897   1.178   5.028   3.423 -0.0539 -0.0879  0.1138
12475SOL    HW149898   1.247   5.087   3.466  1.0915 -1.2330 -0.1289
12475SOL    HW249899   1.096   5.027   3.479  1.1430 -0.9467  1.8941
12476SOL     OW49900   3.056   3.189   7.311  0.0598  0.2727 -0.2242
12476SOL    HW149901   3.128   3.133   7.268  1.2570  1.2507  0.4712
12476SOL    HW249902   3.066   3.284   7.282 -0.6582  0.5006  0.2615
12477SOL     OW49903   5.791   4.644   1.300 -0.1781 -0.0657 -0.9434
12477SOL    HW149904   5.883   4.610   1.284 -0.4810 -1.3446 -0.0305
12477SOL    HW249905   5.739   4.577   1.352 -1.1376  1.3371 -0.0645
12478SOL     OW49906   4.882   5.383   8.253 -0.0987  0.3200 -0.1255
12478SOL    HW149907   4.916   5.302   8.205  2.7599  2.0814 -1.1781
12478SOL    HW249908   4.892   5.464   8.195 -2.7564  1.5027  0.9662
12479SOL     OW49909   4.308   7.967   6.746  0.4119  0.4410  0.0293
12479SOL    HW149910   4.312   8.055   6.697  1.6416  1.3991  1.8042
12479SOL    HW249911   4.213   7.941   6.759  0.0207  1.9392  0.2348
12480SOL     OW49912   0.034   3.725   8.487 -0.1743 -0.7645  0.4245
12480SOL    HW149913   0.055   3.628   8.492  1.5382 -0.4433 -0.1233
12480SOL    HW249914   0.099   3.770   8.425 -1.8173  0.4889 -0.4210
12481SOL     OW49915   5.917   6.978   5.279 -0.0016  0.1264  0.5696
12481SOL    HW149916   5.960   6.888   5.279 -0.2019  0.0258  1.3595
12481SOL    HW249917   5.826   6.971   5.319 -0.3559  0.5240 -0.1677
12482SOL     OW49918   5.349   7.732   7.056 -0.1268  0.2285  0.1021
12482SOL    HW149919   5.389   7.645   7.027 -0.0475  0.3334 -0.1018
12482SOL    HW249920   5.413   7.806   7.036  0.1531  0.2406  1.0342
12483SOL     OW49921   3.588   8.781   3.674  0.5289 -0.0902 -0.3155
12483SOL    HW149922   3.617   8.700   3.624  0.8174 -0.9106  1.1576
12483SOL    HW249923   3.491   8.799   3.656  0.2988 -1.1464 -0.1530
12484SOL     OW49924   8.502   4.607   2.727 -0.2379  0.3475 -0.3841
12484SOL    HW149925   8.541   4.694   2.757 -0.7381  1.1573 -1.9970
12484SOL    HW249926   8.407   4.602   2.757  0.1460 -0.2127  0.7827
12485SOL     OW49927   2.143   7.099   0.250  0.2989  0.2032 -0.0170
12485SOL    HW149928   2.204   7.099   0.330 -0.4738 -1.3716  0.5972
12485SOL    HW249929   2.048   7.110   0.281 -0.0092 -0.4960 -0.7102
12486SOL     OW49930   6.067   2.733   7.170  0.5815 -0.6375  0.0745
12486SOL    HW149931   6.060   2.812   7.231 -2.3642  0.8296 -2.0397
12486SOL    HW249932   6.106   2.762   7.083 -1.8407 -1.1745 -1.2234
12487SOL     OW49933   0.001   0.716   1.759 -0.1185  0.2936 -0.0253
12487SOL    HW149934   0.062   0.669   1.823 -1.0385 -1.6086 -0.5089
12487SOL    HW249935   0.036   0.807   1.740  1.6739 -0.1655  0.9888
12488SOL     OW49936   7.970   8.663   1.516 -0.2083  0.1628 -0.6844
12488SOL    HW149937   7.968   8.761   1.537  0.4895 -0.4075  2.2341
12488SOL    HW249938   8.064   8.631   1.517 -0.4927 -0.6860 -0.9192
12489SOL     OW49939   8.759   2.270   6.459 -0.1573 -0.1371  0.2884
12489SOL    HW149940   8.708   2.226   6.534  0.3763 -0.4601  0.4647
12489SOL    HW249941   8.707   2.348   6.424 -0.2697  0.1956  1.1965
12490SOL     OW49942   2.931   4.115   5.472 -0.3309 -0.9143  0.5271
12490SOL    HW149943   2.974   4.135   5.384 -2.6692  0.6609 -0.2789
12490SOL    HW249944   2.901   4.020   5.473  0.4676 -1.1823 -0.0252
12491SOL     OW49945   6.097   2.469   7.177 -0.1708  0.0622 -0.2351
12491SOL    HW149946   6.093   2.569   7.189  0.4573 -0.0290  0.8160
12491SOL    HW249947   6.121   2.427   7.264 -0.5726 -1.0254 -0.6486
12492SOL     OW49948   2.058   2.428   1.407  0.2813 -0.2745  0.0132
12492SOL    HW149949   2.112   2.383   1.478 -1.0640 -0.7023  0.7829
12492SOL    HW249950   2.071   2.527   1.414  1.0867 -0.3784  0.0772
12493SOL     OW49951   7.253   3.959   1.070 -0.1097 -0.1300 -0.0009
12493SOL    HW149952   7.228   3.941   1.165 -0.0912 -0.8535 -0.1325
12493SOL    HW249953   7.328   4.024   1.067 -0.3829  0.2150  0.4670
12494SOL     OW49954   1.088   4.863   6.046 -0.3760  0.4645  0.1263
12494SOL    HW149955   1.081   4.918   5.963 -0.0244  2.0011  1.1079
12494SOL    HW249956   1.031   4.902   6.118  1.2324  0.5679  1.3753
12495SOL     OW49957   1.726   6.355   0.218  0.2632  0.1573 -0.5992
12495SOL    HW149958   1.648   6.378   0.277  0.3595  0.4377 -0.5844
12495SOL    HW249959   1.785   6.289   0.266 -0.5692 -0.9396 -1.0573
12496SOL     OW49960   0.482   4.739   6.174 -0.3300 -0.5435 -0.0144
12496SOL    HW149961   0.498   4.700   6.084  0.3298 -0.1553 -0.0695
12496SOL    HW249962   0.406   4.691   6.218 -1.3296 -0.0294 -1.1839
12497SOL     OW49963   8.376   3.637   8.718  0.0365 -0.0314  0.0574
12497SOL    HW149964   8.470   3.622   8.687  0.2357 -0.1176  0.6918
12497SOL    HW249965   8.363   3.593   8.807  0.5914  3.4255  1.9144
12498SOL     OW49966   0.579   4.195   4.384 -0.3096 -0.1418 -0.0955
12498SOL    HW149967   0.535   4.275   4.425 -0.6484 -0.8391  0.9175
12498SOL    HW249968   0.510   4.125   4.366 -0.2652  0.3644 -2.4139
12499SOL     OW49969   0.992   2.197   0.890  0.7363 -0.5147 -0.0677
12499SOL    HW149970   1.012   2.223   0.984 -0.1480 -1.7450  0.4761
12499SOL    HW249971   1.002   2.276   0.830  3.8029 -0.2954  0.6675
12500SOL     OW49972   3.784   0.562   8.502 -0.0515  0.3176  0.3537
12500SOL    HW149973   3.689   0.533   8.517 -1.3645  3.5620 -1.0336
12500SOL    HW249974   3.789   0.662   8.509  3.0920  0.2664 -0.5922
12501SOL     OW49975   7.742   3.277   0.077 -0.1566 -0.4426  0.2523
12501SOL    HW149976   7.727   3.192   0.028  1.3958 -1.4226  1.4136
12501SOL    HW249977   7.677   3.286   0.152  0.3140 -1.1070  0.7456
12502SOL     OW49978   3.939   5.071   4.082  0.4986  0.3663 -0.4194
12502SOL    HW149979   3.879   5.074   4.163 -0.4508 -0.2437 -1.0852
12502SOL    HW249980   3.883   5.082   4.000  1.2824 -0.4223 -1.0620
12503SOL     OW49981   3.131   2.979   4.057  0.0030  0.7069  0.2713
12503SOL    HW149982   3.122   3.063   4.004 -1.6551 -0.1193 -0.8080
12503SOL    HW249983   3.041   2.936   4.066  1.0046 -1.5603 -0.1960
12504SOL     OW49984   3.657   5.225   0.421  0.5637  0.5024  0.0997
12504SOL    HW149985   3.609   5.192   0.502  0.7154 -2.3669 -0.9331
12504SOL    HW249986   3.756   5.220   0.436  0.5843  0.7976  0.0618
12505SOL     OW49987   4.268   8.253   4.656 -0.0863  0.6418 -0.0001
12505SOL    HW149988   4.182   8.218   4.619 -0.2567  1.8727 -0.7690
12505SOL    HW249989   4.330   8.176   4.672 -0.1323  0.0250 -2.5375
12506SOL     OW49990   7.596   6.139   7.570 -0.1780  0.6642 -0.2574
12506SOL    HW149991   7.513   6.102   7.529 -1.1648  2.2698  0.2458
12506SOL    HW249992   7.581   6.234   7.597  1.4225  0.5928  1.0017
12507SOL     OW49993   4.016   3.606   4.614 -0.2508 -0.2870 -0.0043
12507SOL    HW149994   4.116   3.613   4.605 -0.0551  0.4586  2.3002
12507SOL    HW249995   3.990   3.510   4.622 -0.0166 -0.6670 -3.3166
12508SOL     OW49996   4.449   3.324   8.591  0.2870 -0.0163  0.1848
12508SOL    HW149997   4.463   3.243   8.648  1.0949 -1.5546 -2.1172
12508SOL    HW249998   4.538   3.367   8.572  0.0510  0.3685 -0.0492
12509SOL     OW49999   7.518   3.943   7.738  0.4564  0.2638  0.3421
12509SOL    HW150000   7.582   3.891   7.795 -0.7981  0.1494  1.6739
12509SOL    HW250001   7.433   3.892   7.728  0.4571  0.5436 -1.1886
12510SOL     OW50002   1.415   0.732   8.493  0.2907 -0.1059 -0.0701
12510SOL    HW150003   1.498   0.788   8.484  2.6616 -3.5655 -0.8355
12510SOL    HW250004   1.370   0.725   8.405 -0.0859  0.6886  0.0564
12511SOL     OW50005   0.995   1.834   4.362  0.1381  0.1499  0.7532
12511SOL    HW150006   0.967   1.837   4.266  1.4227 -2.7831  0.2143
12511SOL    HW250007   0.923   1.793   4.417 -0.5799  1.7891  1.0592
12512SOL     OW50008   7.810   4.408   7.864  0.2940  0.3966  0.1039
12512SOL    HW150009   7.759   4.493   7.866  0.2846  0.4034 -0.3039
12512SOL    HW250010   7.747   4.331   7.862  0.2310  0.4534 -3.0096
12513SOL     OW50011   0.853   5.082   8.544  0.3341 -0.0599  0.2361
12513SOL    HW150012   0.814   5.060   8.455 -0.4711  2.1914 -0.0198
12513SOL    HW250013   0.936   5.028   8.559 -0.3787 -1.5790 -1.1979
12514SOL     OW50014   2.674   5.805   8.393  0.0898  0.3139 -0.0627
12514SOL    HW150015   2.637   5.716   8.419 -0.1654  0.8986  1.6689
12514SOL    HW250016   2.752   5.828   8.452 -0.8983  1.9567  0.6584
12515SOL     OW50017   6.806   8.906   8.909 -0.6218  0.4976  0.2158
12515SOL    HW150018   6.853   8.868   8.829 -2.0827 -0.8655 -0.0007
12515SOL    HW250019   6.874   8.943   8.972  0.8156 -2.3166  0.3671
12516SOL     OW50020   1.053   4.914   8.572 -0.5288  0.0658  0.1837
12516SOL    HW150021   1.135   4.868   8.606 -0.7319 -0.0103  0.5802
12516SOL    HW250022   1.060   4.926   8.473  0.3562  0.8698  0.3364
12517SOL     OW50023   4.553   8.918   8.846 -0.4077 -0.2188 -0.6902
12517SOL    HW150024   4.627   8.872   8.796  0.6886  2.2731 -1.4587
12517SOL    HW250025   4.478   8.939   8.783 -0.2704  0.3488 -0.6665
12518SOL     OW50026   7.321   7.170   6.459  0.2571  0.1705 -0.4757
12518SOL    HW150027   7.398   7.218   6.417  1.1340 -3.2782 -2.9788
12518SOL    HW250028   7.346   7.075   6.476 -2.3064 -0.1427  1.9671
12519SOL     OW50029   5.637   3.452   4.008  0.1171 -0.2761  0.4993
12519SOL    HW150030   5.703   3.458   4.083 -1.5657  0.9435  1.9228
12519SOL    HW250031   5.599   3.360   4.005  2.2089 -1.1304 -0.6367
12520SOL     OW50032   1.367   4.023   4.399  0.4327 -0.4476  0.0808
12520SOL    HW150033   1.447   3.977   4.436  0.5577 -0.8699 -0.7293
12520SOL    HW250034   1.290   3.960   4.397 -0.0126  0.0371  1.1361
12521SOL     OW50035   2.166   2.051   8.268 -0.4773  0.2530  0.5214
12521SOL    HW150036   2.167   1.955   8.241 -2.1727  0.1226  0.9081
12521SOL    HW250037   2.091   2.068   8.332 -0.6543  1.9689 -0.1025
12522SOL     OW50038   5.750   3.903   1.070  0.1470  0.1224 -0.4488
12522SOL    HW150039   5.826   3.962   1.043  0.3604  0.5638  1.1144
12522SOL    HW250040   5.745   3.897   1.169 -2.5853  1.0294 -0.4958
12523SOL     OW50041   6.932   5.088   1.300  0.7804 -0.0091  0.6913
12523SOL    HW150042   6.988   5.096   1.218  1.5077  0.0833  1.1890
12523SOL    HW250043   6.979   5.030   1.367  1.1306  1.5504  1.8190
12524SOL     OW50044   3.691   6.733   8.708 -0.1282  0.5038  0.3983
12524SOL    HW150045   3.791   6.726   8.706 -0.1508  0.3255 -0.5167
12524SOL    HW250046   3.653   6.674   8.637 -0.8028  1.9632 -0.4750
12525SOL     OW50047   3.858   1.631   7.931 -0.1879 -0.3561 -0.6164
12525SOL    HW150048   3.938   1.689   7.915 -0.9495  1.5630  2.1155
12525SOL    HW250049   3.869   1.545   7.881  2.3946  0.8790 -2.3194
12526SOL     OW50050   2.620   5.192   2.616  0.0181  0.0234 -0.1328
12526SOL    HW150051   2.711   5.155   2.633  0.7652  1.8692  0.0419
12526SOL    HW250052   2.551   5.123   2.638  1.2728 -0.4866  2.3901
12527SOL     OW50053   8.259   3.493   5.473  0.3434 -0.0477  0.4270
12527SOL    HW150054   8.259   3.461   5.567 -0.1421 -0.7608  0.1849
12527SOL    HW250055   8.337   3.454   5.424  0.5488  0.2560  0.5078
12528SOL     OW50056   4.123   8.843   8.039  0.4780 -0.0270 -0.7111
12528SOL    HW150057   4.146   8.919   7.978 -0.5637 -0.2277 -1.3702
12528SOL    HW250058   4.116   8.759   7.985  0.7962 -0.4421 -0.1086
12529SOL     OW50059   7.524   4.595   5.428 -0.1035 -0.5107  0.2498
12529SOL    HW150060   7.537   4.658   5.351 -3.5284 -2.4028 -1.9794
12529SOL    HW250061   7.566   4.507   5.407 -3.8152 -2.0932 -1.0037
12530SOL     OW50062   2.645   7.806   6.781 -0.6539  0.7534 -0.1838
12530SOL    HW150063   2.622   7.819   6.877 -3.7815 -1.9948 -0.4642
12530SOL    HW250064   2.606   7.881   6.727 -3.1263 -0.2205  0.1881
12531SOL     OW50065   4.522   4.313   8.809 -0.3767  0.1809 -0.1332
12531SOL    HW150066   4.483   4.392   8.761 -0.1363  0.2891 -0.1507
12531SOL    HW250067   4.498   4.319   8.906 -0.5584  0.1511 -0.1751
12532SOL     OW50068   1.331   3.938   3.919 -0.3909  0.1902 -1.2002
12532SOL    HW150069   1.311   3.946   3.822 -1.3311  0.4208 -0.9851
12532SOL    HW250070   1.254   3.973   3.973  0.3641  0.6259 -0.3779
12533SOL     OW50071   2.775   7.792   0.576  0.2576  0.8121  0.2282
12533SOL    HW150072   2.696   7.746   0.535  1.8719 -1.0434 -0.9007
12533SOL    HW250073   2.787   7.761   0.670 -0.2516  0.9970  0.3587
12534SOL     OW50074   8.831   8.213   1.410 -0.2441  0.2086 -0.0375
12534SOL    HW150075   8.877   8.263   1.484 -0.7950  0.2530  0.2849
12534SOL    HW250076   8.742   8.256   1.393  0.0825  0.4778 -1.0493
12535SOL     OW50077   6.782   2.057   6.306 -0.2200 -0.6265 -0.0194
12535SOL    HW150078   6.685   2.040   6.326 -0.4283  0.8823  0.3707
12535SOL    HW250079   6.822   2.110   6.381  0.8392 -1.0188 -0.3082
12536SOL     OW50080   2.400   1.523   4.023 -0.6398 -0.5427 -0.5865
12536SOL    HW150081   2.326   1.528   3.956 -0.5526 -0.3203 -0.6668
12536SOL    HW250082   2.412   1.612   4.067 -0.3427 -0.5463 -0.6569
12537SOL     OW50083   0.234   1.079   7.870 -0.2902  0.6615 -0.0685
12537SOL    HW150084   0.192   1.034   7.949  1.7008  0.3450  0.8432
12537SOL    HW250085   0.234   1.178   7.884  0.0754  0.6056  0.3384
12538SOL     OW50086   6.136   4.703   5.366  0.2454  0.0108 -0.6366
12538SOL    HW150087   6.199   4.776   5.389 -0.6554  1.2054 -1.9083
12538SOL    HW250088   6.042   4.732   5.383 -0.1384 -0.7606 -1.3742
12539SOL     OW50089   4.622   5.176   3.747  1.0345  0.2555 -0.2993
12539SOL    HW150090   4.545   5.164   3.810 -0.0530  0.3115 -1.6026
12539SOL    HW250091   4.683   5.246   3.783 -0.2124  1.1597  0.1060
12540SOL     OW50092   6.383   4.805   7.932 -0.3414 -0.0361  0.1319
12540SOL    HW150093   6.328   4.722   7.923 -1.2831  0.4223  1.4970
12540SOL    HW250094   6.381   4.837   8.027 -0.1860  1.6683 -0.4111
12541SOL     OW50095   5.645   2.840   2.381 -0.3288 -0.0919  0.5613
12541SOL    HW150096   5.602   2.834   2.291  1.1091 -0.3589 -0.1234
12541SOL    HW250097   5.728   2.895   2.375  1.5189 -2.7014  1.0125
12542SOL     OW50098   8.340   6.370   6.799 -0.7108 -0.3415  1.3039
12542SOL    HW150099   8.302   6.391   6.889 -0.4040 -0.1101  1.3816
12542SOL    HW250100   8.387   6.451   6.763 -1.2900 -0.2659  0.7013
12543SOL     OW50101   2.589   5.959   5.011 -0.2257 -0.7840  0.6139
12543SOL    HW150102   2.674   6.012   5.009  0.6669 -2.1679  0.5515
12543SOL    HW250103   2.588   5.897   4.932 -0.0008 -2.6986  2.0758
12544SOL     OW50104   2.038   6.857   8.959  0.2819 -0.3035 -0.1895
12544SOL    HW150105   1.964   6.906   8.913  2.0621  0.1494 -2.6801
12544SOL    HW250106   2.005   6.821   9.046 -2.6265  0.5452 -0.8853
12545SOL     OW50107   6.413   1.850   3.277 -0.8036 -0.1323  0.1402
12545SOL    HW150108   6.391   1.793   3.197 -0.2493  1.6568 -1.3204
12545SOL    HW250109   6.339   1.843   3.344 -0.7866 -2.4896 -0.0410
12546SOL     OW50110   5.467   1.048   0.371 -0.2390  0.5408  0.1926
12546SOL    HW150111   5.392   0.983   0.381  0.9934 -0.7790  1.1394
12546SOL    HW250112   5.490   1.086   0.460  0.6668  0.4048  0.0254
12547SOL     OW50113   0.928   4.144   0.104  0.5141  0.8387 -0.6332
12547SOL    HW150114   1.009   4.114   0.156  1.5105  0.5602 -2.3274
12547SOL    HW250115   0.953   4.220   0.044 -0.5753  0.9692 -0.9256
12548SOL     OW50116   0.422   4.820   7.064 -0.4895  0.1219 -0.1114
12548SOL    HW150117   0.360   4.760   7.114 -0.1840  0.7002  0.9624
12548SOL    HW250118   0.473   4.766   6.997 -0.2821 -0.7964  0.7808
12549SOL     OW50119   6.250   2.945   0.710  0.1785  0.1702 -0.5072
12549SOL    HW150120   6.246   2.880   0.786 -0.5243 -0.0056 -0.6966
12549SOL    HW250121   6.316   2.914   0.642 -0.0409 -0.2644 -0.5212
12550SOL     OW50122   5.291   6.393   1.787 -0.5090 -0.0829 -0.0552
12550SOL    HW150123   5.368   6.393   1.851  0.5028  0.0389 -1.2333
12550SOL    HW250124   5.242   6.306   1.794  0.5902 -0.7320 -0.2701
12551SOL     OW50125   0.567   5.509   4.634  0.2333 -0.1267  0.0482
12551SOL    HW150126   0.665   5.523   4.646  0.0210  1.3325  0.1106
12551SOL    HW250127   0.520   5.597   4.630 -1.3998 -0.7880  2.8151
12552SOL     OW50128   8.775   4.988   3.872 -0.0185  0.0200  0.2284
12552SOL    HW150129   8.842   5.011   3.801  0.0818 -3.4573 -0.8897
12552SOL    HW250130   8.823   4.951   3.952 -0.3087  1.8479  1.2772
12553SOL     OW50131   6.276   3.690   5.871  0.5385 -0.7550  0.2929
12553SOL    HW150132   6.277   3.590   5.878  0.3869 -0.8044 -0.3730
12553SOL    HW250133   6.278   3.717   5.775  1.8864 -0.0970  0.4886
12554SOL     OW50134   7.776   3.786   1.559  0.4431  0.4802  0.4142
12554SOL    HW150135   7.851   3.722   1.578  0.2529 -0.1941 -1.0023
12554SOL    HW250136   7.695   3.734   1.532 -0.4215  1.2297  1.5733
12555SOL     OW50137   6.379   6.877   6.807 -0.3783 -0.2701  0.2414
12555SOL    HW150138   6.325   6.884   6.891  0.5589 -0.2304  0.8554
12555SOL    HW250139   6.448   6.949   6.807 -0.3692 -0.2810 -0.5640
12556SOL     OW50140   3.132   2.306   5.055  0.4093  0.5671 -0.5001
12556SOL    HW150141   3.047   2.260   5.080  0.1773  0.2974 -1.7784
12556SOL    HW250142   3.118   2.363   4.974  1.3798  0.7334 -0.5675
12557SOL     OW50143   1.743   5.666   5.811  0.7193  0.1154 -0.1351
12557SOL    HW150144   1.649   5.689   5.784  0.6976  0.0690 -0.1008
12557SOL    HW250145   1.773   5.729   5.883  0.4449 -0.3379  0.3840
12558SOL     OW50146   2.264   4.803   8.742  0.3660 -0.5159 -0.0785
12558SOL    HW150147   2.243   4.771   8.649  1.7107  2.4810 -1.4711
12558SOL    HW250148   2.360   4.786   8.762  0.0264 -1.3610  0.8830
12559SOL     OW50149   4.158   2.329   1.268  0.4520 -0.2317 -0.3999
12559SOL    HW150150   4.144   2.409   1.211  0.3032 -0.3327 -0.5064
12559SOL    HW250151   4.211   2.261   1.219  0.2213 -0.3674 -0.4622
12560SOL     OW50152   0.777   2.701   7.174 -0.1206  0.0739  0.8313
12560SOL    HW150153   0.763   2.732   7.268 -1.2978  0.2438  0.6020
12560SOL    HW250154   0.694   2.718   7.120  1.3140  2.1069 -0.8276
12561SOL     OW50155   7.588   2.579   8.368 -0.1452  0.0596  0.2806
12561SOL    HW150156   7.514   2.533   8.319 -0.0091 -0.9571  1.0164
12561SOL    HW250157   7.674   2.530   8.352  0.2874  0.9757 -0.2133
12562SOL     OW50158   5.042   4.715   5.248  0.2815 -0.6039  0.0066
12562SOL    HW150159   5.061   4.795   5.305 -0.2424  0.1208 -0.8324
12562SOL    HW250160   5.093   4.723   5.162 -1.2771 -0.2203 -0.8991
12563SOL     OW50161   4.800   8.556   2.311  0.0647  0.2726  0.4694
12563SOL    HW150162   4.795   8.546   2.212 -0.2099 -0.5075  0.5581
12563SOL    HW250163   4.841   8.644   2.334 -2.3826  1.6816 -0.3373
12564SOL     OW50164   8.095   3.564   7.547 -0.0764 -0.2897 -0.4110
12564SOL    HW150165   8.194   3.561   7.556 -0.1900  0.1622  1.0963
12564SOL    HW250166   8.070   3.602   7.458  1.0980  0.0863 -0.5817
12565SOL     OW50167   2.290   0.514   0.769  0.5324  0.5724  0.2045
12565SOL    HW150168   2.376   0.563   0.771  1.0687 -0.3467 -0.0244
12565SOL    HW250169   2.214   0.579   0.767  1.2718  1.4075 -1.6694
12566SOL     OW50170   1.043   5.733   8.612  0.1886 -0.1140 -0.3580
12566SOL    HW150171   1.080   5.640   8.615  0.2495 -0.1081 -0.8313
12566SOL    HW250172   1.118   5.799   8.615  0.1343 -0.0747  0.1919
12567SOL     OW50173   5.064   4.759   6.521 -0.3039  0.0861 -0.7184
12567SOL    HW150174   4.965   4.748   6.535 -0.2737  0.1079 -0.4889
12567SOL    HW250175   5.089   4.854   6.533  0.2939 -0.4255  2.7872
12568SOL     OW50176   6.901   6.504   0.300 -0.0326  0.2037 -0.3640
12568SOL    HW150177   6.956   6.578   0.340 -0.5414  0.1498  0.4565
12568SOL    HW250178   6.940   6.416   0.328 -0.1031  0.1623 -0.3979
12569SOL     OW50179   3.381   1.301   0.595  0.1272  0.6421 -0.0813
12569SOL    HW150180   3.480   1.306   0.603  0.1830 -0.3995  0.0471
12569SOL    HW250181   3.352   1.337   0.506  0.6168  0.9544 -0.1139
12570SOL     OW50182   0.188   8.594   1.374  0.2278  0.4938  0.2663
12570SOL    HW150183   0.201   8.684   1.414 -0.8014  0.2173  1.2604
12570SOL    HW250184   0.115   8.598   1.306 -0.8017  0.1243  1.3350
12571SOL     OW50185   0.701   5.280   4.782 -0.2051 -0.0518 -0.2404
12571SOL    HW150186   0.659   5.366   4.752 -2.0965 -0.9784 -0.3021
12571SOL    HW250187   0.675   5.262   4.877 -1.6830 -1.6673 -0.9293
12572SOL     OW50188   3.485   5.374   7.838 -0.5388  0.2330 -0.1836
12572SOL    HW150189   3.505   5.434   7.760 -2.1603  0.5588 -0.3667
12572SOL    HW250190   3.571   5.342   7.878  0.3242  0.0926 -2.0743
12573SOL     OW50191   7.467   5.507   5.755 -0.7532 -0.1536  0.3098
12573SOL    HW150192   7.551   5.562   5.752 -1.2790  0.8991  3.4774
12573SOL    HW250193   7.478   5.426   5.698  1.6209  1.0360 -0.9966
12574SOL     OW50194   5.505   1.177   0.594 -0.0488  0.1953  0.2395
12574SOL    HW150195   5.572   1.244   0.623 -0.1090 -0.0772  1.0328
12574SOL    HW250196   5.424   1.183   0.652 -1.2637  1.4135 -1.5417
12575SOL     OW50197   5.825   1.722   8.887  0.0560  0.3718 -0.3494
12575SOL    HW150198   5.764   1.723   8.967  0.7894 -2.4050  0.2964
12575SOL    HW250199   5.854   1.816   8.867 -0.0930  1.1537  2.6932
12576SOL     OW50200   8.945   3.304   1.820  0.0392  0.4348  1.2368
12576SOL    HW150201   8.967   3.310   1.722 -1.7767 -2.1474  0.6351
12576SOL    HW250202   8.964   3.392   1.863  2.0487  1.2663 -1.1770
12577SOL     OW50203   2.246   3.156   3.228  0.5234 -0.2597  0.2054
12577SOL    HW150204   2.214   3.243   3.265  1.1076  0.4389 -0.8781
12577SOL    HW250205   2.198   3.080   3.272 -0.2264  0.6279  0.9226
12578SOL     OW50206   6.695   4.632   7.375 -0.0160 -0.5115 -0.3892
12578SOL    HW150207   6.686   4.651   7.278 -0.8585  1.0284 -0.0170
12578SOL    HW250208   6.785   4.662   7.407 -0.2424  0.2104 -0.4204
12579SOL     OW50209   5.577   6.675   4.964  0.2048 -0.1890 -0.1494
12579SOL    HW150210   5.504   6.668   4.895  1.0803  0.0670 -1.1152
12579SOL    HW250211   5.537   6.667   5.055 -1.0844  0.3078 -0.6508
12580SOL     OW50212   8.484   5.522   8.498 -0.0509 -0.9064  0.4859
12580SOL    HW150213   8.522   5.538   8.590  0.7412 -1.0797  0.1939
12580SOL    HW250214   8.475   5.609   8.450  0.3773 -0.9061  0.4036
12581SOL     OW50215   0.413   4.099   4.790  0.3412  0.0420  0.2147
12581SOL    HW150216   0.370   4.187   4.808 -1.8209 -0.4864 -2.1034
12581SOL    HW250217   0.352   4.042   4.734  2.5263 -2.1596 -0.0409
12582SOL     OW50218   7.180   3.198   7.749 -0.3402 -0.0692 -0.3770
12582SOL    HW150219   7.167   3.101   7.726 -0.8245 -0.3091  0.8868
12582SOL    HW250220   7.267   3.209   7.798  0.5100  0.3899 -1.9475
12583SOL     OW50221   3.896   8.548   1.817  0.2036  0.1503 -0.1522
12583SOL    HW150222   3.860   8.600   1.895 -1.1404 -0.7126 -0.1822
12583SOL    HW250223   3.867   8.592   1.732  0.3663  0.2243 -0.1685
12584SOL     OW50224   4.162   7.548   7.156  0.8186 -0.4839  0.0704
12584SOL    HW150225   4.127   7.618   7.094  0.5934 -0.3718  0.3205
12584SOL    HW250226   4.246   7.509   7.119  0.4829 -0.6881 -0.4934
12585SOL     OW50227   5.643   8.131   1.070 -0.1084  0.2417 -0.3374
12585SOL    HW150228   5.632   8.043   1.116  0.7106  0.5945  0.5577
12585SOL    HW250229   5.660   8.117   0.973 -0.0999 -0.5777 -0.2183
12586SOL     OW50230   5.836   5.319   5.696  0.0041 -0.5503 -0.0411
12586SOL    HW150231   5.909   5.341   5.760  0.3122 -0.5543 -0.3873
12586SOL    HW250232   5.795   5.403   5.661  0.6857 -0.5229 -0.7996
12587SOL     OW50233   2.934   3.147   7.987 -0.4702 -0.5700 -0.6460
12587SOL    HW150234   2.998   3.099   7.926 -0.4644  0.1286 -1.2030
12587SOL    HW250235   2.924   3.242   7.956  0.3351  0.0961  1.0452
12588SOL     OW50236   1.007   7.618   2.742  0.3666  0.4672  0.0919
12588SOL    HW150237   0.991   7.528   2.780 -0.5759  0.4592 -0.3132
12588SOL    HW250238   1.022   7.611   2.643 -2.3534  0.9951 -0.4119
12589SOL     OW50239   4.201   1.610   8.126  0.3941 -0.0872 -0.2521
12589SOL    HW150240   4.229   1.529   8.074 -0.9864  0.4583 -1.8770
12589SOL    HW250241   4.102   1.609   8.138  0.3249  1.5587 -0.6196
12590SOL     OW50242   1.186   4.674   6.930 -0.0596 -0.0773 -0.4128
12590SOL    HW150243   1.247   4.713   6.861  1.3872 -0.9855  0.3335
12590SOL    HW250244   1.136   4.747   6.975  0.3981  0.6712 -1.1072
12591SOL     OW50245   4.324   5.021   1.492 -0.6560  0.6465  0.2523
12591SOL    HW150246   4.348   5.083   1.567 -1.6626  0.9600  0.3223
12591SOL    HW250247   4.264   4.949   1.526  0.5823 -0.4144  0.1844
12592SOL     OW50248   3.159   4.922   5.656 -0.5877  0.8025  0.5514
12592SOL    HW150249   3.153   4.848   5.722 -1.7119 -0.0833 -0.5359
12592SOL    HW250250   3.240   4.909   5.597 -1.4679 -0.2358 -0.4406
12593SOL     OW50251   8.924   6.313   4.455 -0.3162  0.3539 -0.7077
12593SOL    HW150252   8.855   6.287   4.523  0.2952  0.2299 -0.1223
12593SOL    HW250253   8.951   6.232   4.403  0.5476  0.0802  0.1499
12594SOL     OW50254   3.953   1.847   2.137  0.1732  0.6877 -0.2410
12594SOL    HW150255   4.016   1.903   2.084  2.4535 -1.2585  0.3101
12594SOL    HW250256   3.895   1.794   2.075 -1.0256  2.5609 -0.7537
12595SOL     OW50257   5.291   1.934   4.126 -0.1701 -0.2038 -0.4887
12595SOL    HW150258   5.355   2.011   4.130  0.5297 -0.7762 -0.5040
12595SOL    HW250259   5.220   1.954   4.059 -1.7333  1.7292  1.6756
12596SOL     OW50260   3.181   7.212   6.011  0.4882 -0.2168  0.3369
12596SOL    HW150261   3.206   7.121   6.045  2.1635 -0.5085 -1.5275
12596SOL    HW250262   3.220   7.281   6.072 -0.4269 -0.7310  1.5283
12597SOL     OW50263   2.888   6.039   6.631  0.1517 -0.2267 -0.5263
12597SOL    HW150264   2.877   5.950   6.675 -3.3194 -0.1842 -1.2045
12597SOL    HW250265   2.924   6.105   6.698  0.0959 -1.4465  0.7340
12598SOL     OW50266   3.005   7.757   0.426 -0.0902 -0.2651  0.2731
12598SOL    HW150267   2.921   7.769   0.480 -0.8463 -1.0911 -0.6978
12598SOL    HW250268   3.003   7.667   0.381  0.8856  0.0961 -0.5058
12599SOL     OW50269   6.932   6.246   7.784  0.0782 -0.3532 -0.8976
12599SOL    HW150270   6.852   6.301   7.808 -0.3881 -0.7260 -1.6040
12599SOL    HW250271   6.918   6.152   7.814  0.9651 -0.0583  0.5005
12600SOL     OW50272   7.861   7.820   6.954 -1.0233 -0.6838 -0.0774
12600SOL    HW150273   7.831   7.904   6.999  1.6177 -0.0267  0.5349
12600SOL    HW250274   7.842   7.741   7.014 -1.3963 -0.2746  0.3445
12601SOL     OW50275   1.939   0.851   7.119 -0.2067 -0.8232  0.0449
12601SOL    HW150276   1.854   0.828   7.074 -0.0287 -2.9006  0.7251
12601SOL    HW250277   1.950   0.951   7.121 -1.2833 -0.6314 -2.4263
12602SOL     OW50278   0.876   2.788   8.110 -0.1426  0.0669  0.0934
12602SOL    HW150279   0.857   2.886   8.116 -0.2409 -0.0361  1.9267
12602SOL    HW250280   0.797   2.741   8.071 -0.1550  0.7016 -0.6454
12603SOL     OW50281   3.969   3.566   3.420 -0.2256 -0.0168  0.0734
12603SOL    HW150282   4.003   3.548   3.327  1.7681  1.8307  0.4061
12603SOL    HW250283   3.882   3.614   3.416  0.3709  0.9853 -0.8431
12604SOL     OW50284   5.680   6.156   7.669 -0.3606  0.4373  0.1999
12604SOL    HW150285   5.704   6.170   7.573 -0.4438  0.9788  0.2561
12604SOL    HW250286   5.585   6.184   7.684 -0.2545  0.6367  0.5018
12605SOL     OW50287   2.291   2.749   5.312 -0.1639 -0.0392 -0.3470
12605SOL    HW150288   2.227   2.806   5.260 -1.4619  0.6593  1.9351
12605SOL    HW250289   2.381   2.792   5.312 -0.4858  0.6487 -0.8638
12606SOL     OW50290   5.121   4.462   5.319  0.4911  0.4795 -0.0803
12606SOL    HW150291   5.089   4.549   5.281 -0.6106 -0.5009 -1.4451
12606SOL    HW250292   5.209   4.438   5.278  2.5565  2.6650  2.9081
12607SOL     OW50293   6.168   8.894   8.840 -0.0862  0.3328  0.2066
12607SOL    HW150294   6.247   8.901   8.780  0.1295 -0.4450  0.3839
12607SOL    HW250295   6.142   8.797   8.849 -1.0918  0.5893  0.0985
12608SOL     OW50296   4.896   2.544   8.299  0.0553  0.2530 -0.8308
12608SOL    HW150297   4.800   2.529   8.324  0.1797 -2.2673 -1.7245
12608SOL    HW250298   4.902   2.581   8.207 -0.0791  1.3406 -0.4106
12609SOL     OW50299   5.268   3.617   8.141  0.4854 -0.2967 -0.4997
12609SOL    HW150300   5.181   3.579   8.110 -0.3116  0.1842  1.1603
12609SOL    HW250301   5.343   3.571   8.091 -0.7251  0.0755 -2.7494
12610SOL     OW50302   2.157   8.950   2.899 -0.0117  0.3949 -0.4551
12610SOL    HW150303   2.123   8.856   2.896  0.9986 -0.0223  0.8018
12610SOL    HW250304   2.097   9.009   2.845 -0.3745 -1.0564 -1.6795
12611SOL     OW50305   1.541   2.398   4.731 -0.2279  0.2980  0.4339
12611SOL    HW150306   1.624   2.453   4.742 -0.7555  1.1069  0.4386
12611SOL    HW250307   1.485   2.406   4.813 -0.0036 -0.7871  0.7033
12612SOL     OW50308   5.788   4.846   2.071  0.2627  0.3911 -0.4725
12612SOL    HW150309   5.809   4.943   2.068  2.8217 -0.1277 -0.0982
12612SOL    HW250310   5.708   4.827   2.013  1.6234  2.2104 -3.0167
12613SOL     OW50311   3.298   8.750   6.450  0.1155  0.1923 -0.0768
12613SOL    HW150312   3.321   8.680   6.517  1.6938  0.0868 -0.6995
12613SOL    HW250313   3.323   8.840   6.486  0.7900  0.1517 -0.4193
12614SOL     OW50314   2.804   1.344   8.775 -0.1149 -0.1959  0.4401
12614SOL    HW150315   2.899   1.311   8.772 -0.0345 -0.3170  3.0004
12614SOL    HW250316   2.802   1.442   8.753  0.7969  0.1323  1.7720
12615SOL     OW50317   5.247   8.455   4.826  0.0154  0.6837 -0.5286
12615SOL    HW150318   5.272   8.544   4.787 -0.4513  1.0036 -0.1014
12615SOL    HW250319   5.229   8.391   4.752 -3.3935  1.9876 -0.9033
12616SOL     OW50320   0.500   6.306   7.724  0.1373  0.1856 -0.3748
12616SOL    HW150321   0.537   6.398   7.713 -0.6597  0.7736  1.6706
12616SOL    HW250322   0.544   6.260   7.801 -0.2708 -0.7152 -0.6694
12617SOL     OW50323   7.604   2.048   2.432 -0.1408  0.7500 -0.2998
12617SOL    HW150324   7.515   2.084   2.406  0.2031  1.0508 -1.0994
12617SOL    HW250325   7.665   2.123   2.458  0.5882  0.7828 -2.0033
12618SOL     OW50326   1.674   6.573   4.821  0.0670 -0.1632 -0.2296
12618SOL    HW150327   1.676   6.552   4.919 -0.0436 -0.8908 -0.3784
12618SOL    HW250328   1.749   6.526   4.775 -1.5391 -2.1063 -0.9252
12619SOL     OW50329   3.960   4.563   8.482 -0.3772 -0.2374  0.2654
12619SOL    HW150330   4.047   4.539   8.439  0.8338 -0.5045  2.8308
12619SOL    HW250331   3.976   4.606   8.571 -2.8896 -1.2673  1.2695
12620SOL     OW50332   7.653   4.227   3.433 -0.4478  0.5300 -0.7413
12620SOL    HW150333   7.647   4.301   3.367  1.0101  0.7599 -0.6401
12620SOL    HW250334   7.723   4.249   3.502 -0.1984 -0.7920 -0.5498
12621SOL     OW50335   8.350   1.206   6.387  0.2131 -0.4900 -0.2485
12621SOL    HW150336   8.356   1.294   6.436  1.1798 -0.5045 -0.3231
12621SOL    HW250337   8.443   1.173   6.367 -0.1379 -1.7335  0.1433
12622SOL     OW50338   4.414   1.998   2.193 -0.1982 -0.2555 -0.0191
12622SOL    HW150339   4.360   2.046   2.262 -0.8355  2.3199 -2.1937
12622SOL    HW250340   4.467   1.925   2.236 -0.2161  1.5588  3.2356
12623SOL     OW50341   5.312   2.642   2.655  0.3331 -0.0869 -0.2722
12623SOL    HW150342   5.367   2.720   2.686 -2.2937  2.5023 -1.8785
12623SOL    HW250343   5.255   2.609   2.730  2.4973 -1.4722  0.8219
12624SOL     OW50344   3.294   2.009   8.481 -0.2754  0.0270  0.1125
12624SOL    HW150345   3.344   1.926   8.503  1.2001  0.7275 -0.5568
12624SOL    HW250346   3.292   2.070   8.561  0.1503  0.0944  0.0751
12625SOL     OW50347   2.478   6.583   6.795  0.5972 -0.3588 -0.7608
12625SOL    HW150348   2.469   6.492   6.835 -2.6007  0.5398  0.7591
12625SOL    HW250349   2.514   6.646   6.864  0.5103  0.0115 -1.0527
12626SOL     OW50350   3.071   4.221   6.410  0.3941 -0.3553  0.9040
12626SOL    HW150351   3.100   4.237   6.316  1.9660 -0.6170  1.3195
12626SOL    HW250352   3.106   4.132   6.441 -3.6314 -2.1913  0.3841
12627SOL     OW50353   1.825   6.524   7.505 -0.1086  0.1524 -0.5957
12627SOL    HW150354   1.848   6.618   7.482  1.5340  0.2937  1.4080
12627SOL    HW250355   1.903   6.465   7.484  0.5288 -0.0630  2.1988
12628SOL     OW50356   5.137   0.427   8.389 -0.1800  0.0934  0.0682
12628SOL    HW150357   5.139   0.481   8.304 -0.9960  1.2570  0.7816
12628SOL    HW250358   5.052   0.444   8.438  0.4088 -0.3497  1.2733
12629SOL     OW50359   4.965   7.164   0.079 -0.2208 -0.5221 -0.2928
12629SOL    HW150360   4.943   7.069   0.059 -1.9604  0.4610 -3.3504
12629SOL    HW250361   5.060   7.182   0.055  0.3086 -1.5911  0.9060
12630SOL     OW50362   8.304   3.878   8.834  0.5513 -0.2189  0.6534
12630SOL    HW150363   8.323   3.792   8.787  0.1829 -1.2138  2.2532
12630SOL    HW250364   8.370   3.947   8.807  1.1301 -1.1416 -0.3143
12631SOL     OW50365   5.537   3.830   7.854  0.0351 -0.4515 -0.5860
12631SOL    HW150366   5.615   3.802   7.910  1.3445  0.5704 -1.8958
12631SOL    HW250367   5.456   3.777   7.881  1.0245 -1.0786  1.1890
12632SOL     OW50368   7.354   7.346   5.108 -0.1350  0.0817 -0.1454
12632SOL    HW150369   7.350   7.445   5.124 -1.8889  0.1241 -0.8286
12632SOL    HW250370   7.309   7.324   5.022 -0.7010 -1.4549  0.5352
12633SOL     OW50371   1.120   5.490   8.662  0.3025 -0.7396  0.0151
12633SOL    HW150372   1.126   5.518   8.758  0.3588 -1.4303  0.2129
12633SOL    HW250373   1.212   5.479   8.625  0.3264  1.6749 -0.7581
12634SOL     OW50374   0.986   8.659   1.135 -0.6061 -0.0649 -0.1698
12634SOL    HW150375   0.954   8.754   1.139  0.4390  0.3037 -0.3141
12634SOL    HW250376   0.996   8.623   1.227 -2.5507 -0.5781 -0.1372
12635SOL     OW50377   2.813   6.774   8.947  0.6984  0.6002  0.1639
12635SOL    HW150378   2.752   6.835   8.897  0.3979  1.1363  1.1634
12635SOL    HW250379   2.844   6.700   8.887 -1.6949 -0.2236 -0.0834
12636SOL     OW50380   4.256   3.084   8.615  1.0060 -0.1444 -0.2130
12636SOL    HW150381   4.204   3.108   8.697  1.0222  0.9808 -0.5310
12636SOL    HW250382   4.352   3.072   8.639  0.5145 -3.0151  0.5275
12637SOL     OW50383   2.233   5.685   7.041 -0.1096 -0.1260  0.1750
12637SOL    HW150384   2.151   5.651   6.995  0.6250 -1.8538  0.1128
12637SOL    HW250385   2.311   5.681   6.979  0.3300  0.0784  0.7047
12638SOL     OW50386   1.633   4.767   3.465 -0.4703 -0.0254  0.0121
12638SOL    HW150387   1.535   4.786   3.476 -0.2843  1.8017 -1.3430
12638SOL    HW250388   1.646   4.700   3.392 -0.6221  0.9657 -0.9329
12639SOL     OW50389   3.570   0.953   0.848 -0.1468  0.0173 -0.2931
12639SOL    HW150390   3.527   0.908   0.926  1.6232 -1.0596  0.0890
12639SOL    HW250391   3.519   1.036   0.825 -1.9729 -0.8419  0.5928
12640SOL     OW50392   3.409   4.613   7.284  0.3839 -0.1116 -0.7411
12640SOL    HW150393   3.485   4.638   7.343 -1.4949  1.4225  1.0935
12640SOL    HW250394   3.343   4.558   7.336 -0.5612 -0.0325 -1.8262
12641SOL     OW50395   8.186   5.246   5.728  0.3088 -0.6851 -0.9578
12641SOL    HW150396   8.142   5.334   5.746  1.2179 -0.5018  0.4194
12641SOL    HW250397   8.240   5.219   5.807 -0.8454 -3.0363 -0.9286
12642SOL     OW50398   1.354   0.781   0.014  0.1864 -0.0743  0.1613
12642SOL    HW150399   1.329   0.688   0.039  1.1947 -0.0896  1.1650
12642SOL    HW250400   1.452   0.786  -0.004 -0.0674  0.5366 -1.0787
12643SOL     OW50401   0.832   6.767   2.684 -0.0981  0.1334 -0.2676
12643SOL    HW150402   0.777   6.712   2.748 -0.1793 -0.5164 -0.8905
12643SOL    HW250403   0.859   6.853   2.729 -1.8415  0.5795 -0.0377
12644SOL     OW50404   2.248   8.266   2.191 -0.3821 -0.2010  0.6092
12644SOL    HW150405   2.345   8.247   2.203  0.3009  1.5849 -1.6457
12644SOL    HW250406   2.237   8.356   2.147 -3.0680 -0.1710  1.2414
12645SOL     OW50407   5.471   3.516   5.516  0.4992  0.0771 -0.0256
12645SOL    HW150408   5.519   3.560   5.591  0.5774  0.2261 -0.1636
12645SOL    HW250409   5.387   3.474   5.550  1.8367 -2.1590  0.6586
12646SOL     OW50410   8.723   3.602   4.660  0.5143  0.3680 -0.0877
12646SOL    HW150411   8.643   3.662   4.667  2.2358  2.6557  0.6334
12646SOL    HW250412   8.739   3.560   4.749 -0.4407 -0.8471 -0.4815
12647SOL     OW50413   0.820   3.877   2.214  0.2680  0.1220 -1.0420
12647SOL    HW150414   0.737   3.836   2.176  0.9629 -1.0922 -1.2709
12647SOL    HW250415   0.836   3.966   2.170 -1.6257  0.9839 -0.0445
12648SOL     OW50416   0.333   5.262   7.872  0.2672  0.1848 -0.5526
12648SOL    HW150417   0.363   5.316   7.794  3.0812  0.8222  0.8776
12648SOL    HW250418   0.395   5.278   7.949 -1.7515 -1.2977  1.4569
12649SOL     OW50419   6.218   3.737   8.326 -0.2376 -0.0828 -0.2698
12649SOL    HW150420   6.262   3.782   8.248  0.9655  1.4039  1.2471
12649SOL    HW250421   6.126   3.775   8.338  0.4192  1.3201  0.4197
12650SOL     OW50422   4.073   1.986   1.677 -0.1465  0.1935  0.4373
12650SOL    HW150423   4.052   2.017   1.584 -0.8466  2.6152  1.3587
12650SOL    HW250424   4.025   2.044   1.743  1.5475 -0.5316  2.3677
12651SOL     OW50425   4.321   0.274   6.242  0.2286 -0.3332  0.0782
12651SOL    HW150426   4.389   0.203   6.259 -0.0353 -0.6670 -0.2493
12651SOL    HW250427   4.291   0.314   6.329  0.3950 -0.6071  0.2602
12652SOL     OW50428   2.126   2.987   1.629  0.0056  0.1529  0.0221
12652SOL    HW150429   2.061   2.924   1.671 -0.1613  0.0911 -0.3308
12652SOL    HW250430   2.099   3.081   1.650  0.1555  0.1142  0.3990
12653SOL     OW50431   5.851   2.702   0.590  0.2123 -0.4058  0.7250
12653SOL    HW150432   5.928   2.658   0.636  0.9014  0.8785  0.8348
12653SOL    HW250433   5.788   2.632   0.555  3.1775 -1.6393 -2.4734
12654SOL     OW50434   2.299   0.431   8.752  0.2197  0.1321  0.0578
12654SOL    HW150435   2.363   0.434   8.829  0.1805 -3.1418  0.2982
12654SOL    HW250436   2.350   0.435   8.666  0.5229  0.2716  0.2426
12655SOL     OW50437   3.594   7.663   4.140 -0.0628  0.4514  0.4531
12655SOL    HW150438   3.642   7.636   4.223  1.4435 -1.9804 -1.1671
12655SOL    HW250439   3.504   7.619   4.137 -0.0211  0.3545  0.6642
12656SOL     OW50440   0.208   4.324   3.436  0.0968  0.2795 -0.2481
12656SOL    HW150441   0.242   4.382   3.510 -0.9184  1.2782 -0.5524
12656SOL    HW250442   0.214   4.374   3.349 -0.1748 -0.3017 -0.6045
12657SOL     OW50443   6.821   2.056   3.530  0.0950 -0.0574  0.1379
12657SOL    HW150444   6.767   2.140   3.537 -0.4549  0.1441 -4.7877
12657SOL    HW250445   6.761   1.977   3.521  0.5848 -0.3018 -1.1235
12658SOL     OW50446   8.129   5.143   3.374  0.0245  0.0753 -0.0958
12658SOL    HW150447   8.134   5.202   3.294 -2.1465 -0.2546 -0.5080
12658SOL    HW250448   8.092   5.194   3.452  0.1761 -0.1569  0.1322
12659SOL     OW50449   5.338   3.902   2.290 -0.6735 -0.2229 -0.3905
12659SOL    HW150450   5.326   3.952   2.376  0.5518 -0.6493  0.0445
12659SOL    HW250451   5.295   3.952   2.215 -0.6189  0.8076  0.2667
12660SOL     OW50452   3.879   2.705   0.620  0.8153 -0.1639 -0.2525
12660SOL    HW150453   3.954   2.760   0.657  0.0031  1.3566 -0.7869
12660SOL    HW250454   3.860   2.628   0.681  0.4701  1.4591  1.7405
12661SOL     OW50455   2.975   0.525   8.605  0.6994  0.1135  0.5769
12661SOL    HW150456   2.949   0.545   8.700 -1.3420 -0.3508  0.1260
12661SOL    HW250457   3.047   0.455   8.605  0.0676 -0.5603  1.7564
12662SOL     OW50458   4.332   5.777   0.829 -0.0372 -0.5641 -0.0142
12662SOL    HW150459   4.397   5.741   0.763 -0.3297  0.2735 -0.7644
12662SOL    HW250460   4.291   5.702   0.880 -1.5905 -1.3927 -2.4443
12663SOL     OW50461   8.259   7.307   6.993  0.4886 -0.1001 -0.1549
12663SOL    HW150462   8.264   7.350   7.083 -0.5571  0.0603 -0.1727
12663SOL    HW250463   8.198   7.228   6.996  0.8047 -0.3688 -0.6152
12664SOL     OW50464   3.686   8.192   8.452  0.1105  0.5163 -0.6616
12664SOL    HW150465   3.590   8.219   8.440 -0.2746 -0.5386 -0.0533
12664SOL    HW250466   3.736   8.208   8.368 -0.5406  1.3581 -0.8926
12665SOL     OW50467   0.431   3.964   0.383 -0.2221  0.1435  0.2036
12665SOL    HW150468   0.511   3.920   0.425  0.3929  2.9692  2.1522
12665SOL    HW250469   0.445   3.971   0.284  1.4836 -0.2819  0.3938
12666SOL     OW50470   2.918   0.915   8.056 -0.0682 -0.4524  0.2894
12666SOL    HW150471   2.961   0.850   8.119  1.3858  0.6467  0.4367
12666SOL    HW250472   2.825   0.883   8.035 -0.2622 -1.3102  2.2762
12667SOL     OW50473   4.182   0.411   0.270 -0.0264  0.7566 -0.0912
12667SOL    HW150474   4.249   0.353   0.317 -2.3888 -2.1138 -0.1938
12667SOL    HW250475   4.183   0.502   0.312  1.4576 -0.2619  2.1963
12668SOL     OW50476   7.373   6.067   6.470 -0.6479  0.5620 -0.0566
12668SOL    HW150477   7.355   6.165   6.474  1.2101  0.8607  2.6162
12668SOL    HW250478   7.414   6.044   6.381  0.5871  2.5465 -0.0357
12669SOL     OW50479   2.111   4.439   0.243 -0.1413 -0.2313  0.2323
12669SOL    HW150480   2.048   4.366   0.219  0.0737 -0.3050 -0.1212
12669SOL    HW250481   2.191   4.401   0.290 -1.0159  0.0273  1.9535
12670SOL     OW50482   2.184   3.306   1.866  0.0643 -0.0265  0.0728
12670SOL    HW150483   2.160   3.311   1.769  0.1017 -1.0660  0.0029
12670SOL    HW250484   2.119   3.247   1.914 -0.0426  0.6078  0.7141
12671SOL     OW50485   3.723   6.529   1.617  0.1188 -0.0795  0.2581
12671SOL    HW150486   3.726   6.592   1.539 -1.5445  0.2415  0.4322
12671SOL    HW250487   3.805   6.540   1.672 -0.4227  2.3965  0.6315
12672SOL     OW50488   5.274   5.388   6.417 -0.0952 -0.1435 -0.0907
12672SOL    HW150489   5.350   5.439   6.377  0.3436  0.5715  1.6079
12672SOL    HW250490   5.188   5.430   6.388  0.2545  1.4624  1.1196
12673SOL     OW50491   1.380   6.876   0.513 -0.0406  0.6534 -0.5993
12673SOL    HW150492   1.422   6.874   0.603 -1.1829 -1.6591 -0.1086
12673SOL    HW250493   1.384   6.785   0.471 -1.9793  1.0480 -1.7269
12674SOL     OW50494   4.067   1.328   0.381 -0.9713  0.0834  0.1326
12674SOL    HW150495   4.038   1.267   0.308  0.3836 -0.6247  0.1819
12674SOL    HW250496   4.046   1.422   0.356 -2.6286 -0.3428 -0.1550
12675SOL     OW50497   0.212   1.316   4.729  0.2769  0.4900  0.1991
12675SOL    HW150498   0.240   1.304   4.633 -1.5324  0.3323 -0.3228
12675SOL    HW250499   0.238   1.235   4.781  0.1051  0.0164 -0.4428
12676SOL     OW50500   7.711   6.385   6.612  0.2779 -0.1621  0.1295
12676SOL    HW150501   7.787   6.359   6.672  0.2451  1.2079  0.7816
12676SOL    HW250502   7.712   6.484   6.599 -1.7520 -0.0691  0.6122
12677SOL     OW50503   2.627   4.367   7.895  0.1414  0.7407  0.6079
12677SOL    HW150504   2.683   4.359   7.813  0.0009 -1.6265  0.6900
12677SOL    HW250505   2.607   4.463   7.913  1.6719  1.4116 -1.1002
12678SOL     OW50506   6.948   5.431   7.909  0.2038 -0.8156 -0.5467
12678SOL    HW150507   7.047   5.439   7.900  0.0056  0.1832 -2.1096
12678SOL    HW250508   6.909   5.396   7.824 -0.9016 -0.0145 -0.3938
12679SOL     OW50509   1.222   3.469   5.791  0.2933  0.4402  0.1193
12679SOL    HW150510   1.174   3.481   5.877 -1.0247  1.0532 -0.6979
12679SOL    HW250511   1.275   3.552   5.770 -0.5036  0.8348 -0.3498
12680SOL     OW50512   7.259   8.877   3.269  0.3405  0.2335 -0.1106
12680SOL    HW150513   7.243   8.957   3.328  0.2672  1.7163 -2.0901
12680SOL    HW250514   7.326   8.817   3.313  0.6347  1.5249  1.2810
12681SOL     OW50515   3.249   1.238   7.069  0.4191 -0.2084  0.2700
12681SOL    HW150516   3.293   1.199   7.149 -0.2211 -2.4878 -0.4579
12681SOL    HW250517   3.151   1.248   7.085  0.1943 -1.2189 -0.4208
12682SOL     OW50518   1.193   0.586   3.473 -0.2860  0.0551  0.7247
12682SOL    HW150519   1.118   0.555   3.531 -0.0187 -0.4995  0.7851
12682SOL    HW250520   1.225   0.510   3.417  1.3039 -0.1823  1.8795
12683SOL     OW50521   2.262   1.061   5.343  0.2097  0.2739 -0.1574
12683SOL    HW150522   2.350   1.047   5.298  0.5331 -0.3681  0.6576
12683SOL    HW250523   2.274   1.127   5.418 -0.5447  2.1647 -1.6701
12684SOL     OW50524   5.022   5.931   7.138  0.5049 -0.2223 -0.4492
12684SOL    HW150525   5.118   5.906   7.149  0.1827 -1.4251 -0.3132
12684SOL    HW250526   5.016   6.017   7.087  1.7029  0.7401  0.9540
12685SOL     OW50527   0.170   8.167   6.619  0.1301 -0.6923  0.5262
12685SOL    HW150528   0.089   8.141   6.672 -0.8527 -1.0003 -1.0697
12685SOL    HW250529   0.161   8.132   6.526  0.0398  2.9254 -0.9423
12686SOL     OW50530   3.808   8.504   5.588 -0.6021  0.7406 -0.3398
12686SOL    HW150531   3.772   8.450   5.512 -3.6862  1.1707  0.7546
12686SOL    HW250532   3.786   8.601   5.573  0.7616  1.1198  0.0169
12687SOL     OW50533   5.276   0.483   2.776  0.0514  0.8527  0.2451
12687SOL    HW150534   5.178   0.503   2.780 -0.1366 -0.0552  0.2181
12687SOL    HW250535   5.316   0.497   2.867  0.0542  1.9590  0.0894
12688SOL     OW50536   8.734   0.573   6.722  0.0751 -0.0599 -0.1420
12688SOL    HW150537   8.647   0.618   6.744  0.4417  0.4342  0.3071
12688SOL    HW250538   8.754   0.504   6.792  1.0014  1.1762  0.8358
12689SOL     OW50539   6.341   8.921   6.286 -0.2289  0.3436  0.2751
12689SOL    HW150540   6.358   8.988   6.358  0.3952 -0.7881  1.2008
12689SOL    HW250541   6.263   8.950   6.231  0.6752  2.3307  0.0255
12690SOL     OW50542   1.537   4.850   3.065  0.4185  0.3844 -0.1428
12690SOL    HW150543   1.516   4.816   3.157  1.3923 -0.1693 -0.1188
12690SOL    HW250544   1.453   4.880   3.020 -0.4819 -2.2115 -0.2352
12691SOL     OW50545   4.168   3.465   5.356 -0.9969 -0.2688  0.3729
12691SOL    HW150546   4.151   3.431   5.448 -2.0162 -0.7364  0.0158
12691SOL    HW250547   4.106   3.541   5.336  0.1892  0.7813  0.5857
12692SOL     OW50548   4.319   1.233   8.364  0.2101  0.5969 -0.6617
12692SOL    HW150549   4.306   1.332   8.372 -0.1859  0.6053 -1.3762
12692SOL    HW250550   4.285   1.188   8.446  1.7867  1.1763  0.3378
12693SOL     OW50551   1.028   8.835   7.059  0.1738  0.3040 -0.1753
12693SOL    HW150552   0.984   8.833   6.970  0.4768 -1.5191 -0.2923
12693SOL    HW250553   1.079   8.750   7.074  1.0864  1.0691  1.2461
12694SOL     OW50554   4.943   5.216   7.374  0.0936  0.3768 -0.0820
12694SOL    HW150555   5.020   5.240   7.433  1.5689  0.8886 -2.1181
12694SOL    HW250556   4.971   5.144   7.310 -0.9059  1.0273 -1.2891
12695SOL     OW50557   4.268   1.953   7.431 -0.3691 -0.4927  0.1323
12695SOL    HW150558   4.365   1.929   7.425 -0.4881 -0.6299 -1.4798
12695SOL    HW250559   4.258   2.052   7.432 -0.1888 -0.4807  0.7013
12696SOL     OW50560   1.099   8.585   3.774  0.1288  0.4714 -0.0484
12696SOL    HW150561   1.191   8.568   3.738  0.2869  1.4889 -0.1443
12696SOL    HW250562   1.077   8.682   3.765 -0.5374  0.4253  0.9485
12697SOL     OW50563   4.271   0.327   2.494 -0.1726  0.3011 -0.7786
12697SOL    HW150564   4.364   0.338   2.529 -0.7438  0.2667  0.8096
12697SOL    HW250565   4.262   0.239   2.449  0.5109  0.2264 -0.7653
12698SOL     OW50566   6.133   8.522   0.378 -0.8095  0.7640 -0.3162
12698SOL    HW150567   6.215   8.505   0.433 -1.0393 -0.4163 -0.3440
12698SOL    HW250568   6.151   8.598   0.316  0.6079 -0.1404 -1.0328
12699SOL     OW50569   4.525   1.611   3.425 -0.2350  0.3555  0.7187
12699SOL    HW150570   4.614   1.640   3.460  1.7721 -0.7929 -3.1340
12699SOL    HW250571   4.514   1.513   3.440 -1.3088  0.6637  2.0431
12700SOL     OW50572   6.922   2.608   6.238  0.0469  0.7808 -0.1539
12700SOL    HW150573   6.912   2.550   6.319 -0.8032  0.5870 -0.3954
12700SOL    HW250574   7.019   2.620   6.218  0.2538  0.4996  0.6564
12701SOL     OW50575   2.698   3.659   4.142  0.9000 -0.3976  0.0312
12701SOL    HW150576   2.624   3.639   4.077  1.6158  0.9288 -1.2310
12701SOL    HW250577   2.769   3.589   4.134  0.6244 -0.6616 -0.0894
12702SOL     OW50578   8.269   1.401   0.970  0.1759  0.7450 -0.9866
12702SOL    HW150579   8.207   1.404   0.892  0.3862  4.1067 -1.0693
12702SOL    HW250580   8.227   1.446   1.048  0.7209 -0.9642  0.3400
12703SOL     OW50581   2.329   4.554   4.007 -0.3837 -0.4289 -0.0504
12703SOL    HW150582   2.255   4.529   4.070 -1.2445 -0.1091 -0.9204
12703SOL    HW250583   2.353   4.475   3.951  1.3768 -1.1226  1.6583
12704SOL     OW50584   6.420   2.486   6.444 -0.1229  0.2545  0.0516
12704SOL    HW150585   6.385   2.454   6.356 -0.2595  0.4366  0.0385
12704SOL    HW250586   6.467   2.573   6.431  0.5703 -0.1244  0.0241
12705SOL     OW50587   8.190   3.552   4.191 -0.5511 -0.1531 -0.0635
12705SOL    HW150588   8.124   3.493   4.144  0.2437 -1.3872  0.3497
12705SOL    HW250589   8.169   3.556   4.289 -0.1602 -0.3512  0.0310
12706SOL     OW50590   1.449   5.922   0.466 -0.2704 -0.1357  0.3950
12706SOL    HW150591   1.509   5.897   0.542  0.8916 -0.1612 -0.5194
12706SOL    HW250592   1.468   6.016   0.439 -1.1975  0.1152  0.6124
12707SOL     OW50593   3.977   7.857   8.321  0.1770 -0.7969  0.2229
12707SOL    HW150594   4.004   7.761   8.310 -1.4304 -1.2184 -0.2439
12707SOL    HW250595   3.990   7.885   8.416 -1.2484 -2.1145  0.8322
12708SOL     OW50596   4.040   0.997   3.602  0.7719 -0.4312  0.1715
12708SOL    HW150597   4.073   1.050   3.523  0.3508 -2.4046 -1.3684
12708SOL    HW250598   4.104   1.009   3.678  1.5936  0.9132 -0.6863
12709SOL     OW50599   4.248   8.660   4.648  0.7010 -0.4417 -0.0545
12709SOL    HW150600   4.235   8.719   4.727 -0.8156 -0.1797 -0.4800
12709SOL    HW250601   4.313   8.587   4.671  1.6804  0.7005  0.8313
12710SOL     OW50602   8.878   2.279   0.126 -0.2217 -0.1469  0.3346
12710SOL    HW150603   8.817   2.359   0.127 -0.7925 -0.5763 -0.0853
12710SOL    HW250604   8.877   2.238   0.035  1.5024  0.4548  0.0192
12711SOL     OW50605   1.260   2.227   5.323  0.6160  0.4128  0.0992
12711SOL    HW150606   1.269   2.323   5.297 -0.1982  0.5636  0.3613
12711SOL    HW250607   1.164   2.200   5.320  0.9389 -0.7212 -1.1110
12712SOL     OW50608   1.910   7.084   6.958  0.2552  0.3500 -0.2245
12712SOL    HW150609   1.847   7.037   6.895  1.3932  0.9880 -1.8752
12712SOL    HW250610   1.976   7.018   6.994 -0.3762 -0.0109  0.2810
12713SOL     OW50611   1.336   0.134   8.183  0.8241 -0.2046  0.8015
12713SOL    HW150612   1.269   0.111   8.113  1.2937 -1.4533  0.7503
12713SOL    HW250613   1.374   0.224   8.164 -1.6510  1.0420  1.4600
12714SOL     OW50614   4.428   7.256   1.505  0.3829  0.0073 -0.3045
12714SOL    HW150615   4.473   7.329   1.453 -0.4631  0.0324 -1.0215
12714SOL    HW250616   4.328   7.268   1.500  0.2751 -0.1658  1.0760
12715SOL     OW50617   3.941   3.337   7.572 -0.2694 -0.6532  0.2266
12715SOL    HW150618   3.958   3.264   7.637 -0.5956 -1.0284 -0.1061
12715SOL    HW250619   4.028   3.376   7.542 -0.1292 -0.2653  1.1256
12716SOL     OW50620   3.920   7.581   8.572  0.1110 -0.8279 -0.3232
12716SOL    HW150621   3.911   7.678   8.547 -1.0832 -1.1666 -1.2522
12716SOL    HW250622   3.894   7.569   8.667 -2.2681 -0.6134 -0.9198
12717SOL     OW50623   3.392   5.493   6.294  0.2110 -0.1454 -0.0580
12717SOL    HW150624   3.462   5.559   6.323 -0.1971  0.3718 -0.2315
12717SOL    HW250625   3.342   5.530   6.215 -1.0358  0.0259  0.7885
12718SOL     OW50626   4.025   6.773   8.117  0.0654  0.4099  0.1859
12718SOL    HW150627   4.050   6.700   8.054  1.7985 -1.1893  2.6645
12718SOL    HW250628   3.955   6.740   8.181 -0.2920  1.4195  0.3277
12719SOL     OW50629   2.417   3.121   7.635  0.3459  0.0276 -0.4168
12719SOL    HW150630   2.334   3.166   7.602 -0.4151 -1.2433 -0.2910
12719SOL    HW250631   2.440   3.155   7.726  0.3462  0.8886 -0.7418
12720SOL     OW50632   6.206   0.118   0.617  0.3691  0.2645  0.2936
12720SOL    HW150633   6.240   0.200   0.571 -1.1797  0.6248 -0.2480
12720SOL    HW250634   6.237   0.118   0.712 -0.0430  1.7398  0.4418
12721SOL     OW50635   4.343   2.662   0.109  0.4787 -0.2675 -0.3379
12721SOL    HW150636   4.249   2.648   0.078  0.6216 -0.1803 -0.8235
12721SOL    HW250637   4.383   2.574   0.133  0.1862 -0.2746  0.1241
12722SOL     OW50638   2.102   1.285   7.224  0.1167  0.3503 -0.2397
12722SOL    HW150639   2.066   1.194   7.202 -1.0028  0.8536 -0.5769
12722SOL    HW250640   2.030   1.339   7.269  0.4548  1.3775 -0.9102
12723SOL     OW50641   0.812   8.228   4.253 -0.2162 -0.1473  0.9651
12723SOL    HW150642   0.883   8.255   4.318  0.7557 -0.3423  0.0068
12723SOL    HW250643   0.740   8.297   4.253  0.8378  0.9767  0.6667
12724SOL     OW50644   1.838   4.123   6.651 -0.0643 -0.1387  0.2672
12724SOL    HW150645   1.782   4.205   6.666  1.3931  0.5897  1.8952
12724SOL    HW250646   1.926   4.149   6.614 -0.4953 -1.2216 -1.5433
12725SOL     OW50647   5.878   1.175   3.592  0.1753  0.8565  0.1869
12725SOL    HW150648   5.784   1.162   3.623 -0.3473 -0.2740 -1.7858
12725SOL    HW250649   5.878   1.205   3.497  1.8298 -1.1237 -0.4763
12726SOL     OW50650   2.524   3.254   6.468  0.0135  0.4893 -0.2036
12726SOL    HW150651   2.542   3.161   6.436 -0.9649 -0.0311  0.7044
12726SOL    HW250652   2.496   3.251   6.564 -2.4876  1.4455 -0.8516
12727SOL     OW50653   0.503   6.144   0.831 -0.3641  0.1952 -0.9809
12727SOL    HW150654   0.458   6.233   0.838 -2.2060 -0.6591 -1.5757
12727SOL    HW250655   0.579   6.140   0.896 -0.3739  2.1215 -0.8147
12728SOL     OW50656   1.068   0.022   8.788  0.5327 -0.7958 -0.4730
12728SOL    HW150657   1.005   0.092   8.820 -0.0706 -1.1571 -0.8635
12728SOL    HW250658   1.053  -0.063   8.838  0.1163 -1.1330 -1.1620
12729SOL     OW50659   7.157   6.368   4.267 -0.5510 -0.0478  0.5728
12729SOL    HW150660   7.090   6.428   4.224 -1.1463 -0.6008  0.7157
12729SOL    HW250661   7.227   6.423   4.312  1.5945  0.5867 -3.3573
12730SOL     OW50662   0.352   8.814   0.516 -0.3317 -0.2436  0.4454
12730SOL    HW150663   0.267   8.761   0.507 -1.0940  1.1299 -0.6847
12730SOL    HW250664   0.360   8.847   0.609 -1.1228 -0.2562  0.5239
12731SOL     OW50665   6.602   0.303   2.834  0.0283  0.0364 -0.1532
12731SOL    HW150666   6.536   0.231   2.811 -0.7567  0.6340  0.1945
12731SOL    HW250667   6.610   0.365   2.756  2.7901 -1.9372 -1.5354
12732SOL     OW50668   5.651   5.120   5.346  0.3976 -0.1679 -0.3234
12732SOL    HW150669   5.610   5.194   5.399  1.7873  0.5357 -0.2015
12732SOL    HW250670   5.605   5.034   5.368  1.3450 -0.0083  2.5478
12733SOL     OW50671   2.225   0.925   2.784  0.2410  0.1002 -0.0668
12733SOL    HW150672   2.160   0.990   2.745 -0.3880 -0.3639  0.1926
12733SOL    HW250673   2.316   0.940   2.744 -0.6155 -1.0991 -2.5604
12734SOL     OW50674   4.321   3.937   4.044 -0.1867 -0.2602  0.3533
12734SOL    HW150675   4.325   4.023   4.094 -0.8469  0.8549 -1.4363
12734SOL    HW250676   4.281   3.953   3.954  0.2445 -2.3372 -0.2423
12735SOL     OW50677   0.284   1.546   8.290 -0.1416  0.3616 -0.0452
12735SOL    HW150678   0.190   1.581   8.288 -0.4571 -0.2746  2.6144
12735SOL    HW250679   0.315   1.538   8.384  1.1056 -3.3751 -0.6734
12736SOL     OW50680   2.758   7.303   2.470  0.0066  0.2732 -0.1632
12736SOL    HW150681   2.829   7.336   2.408  0.9447  2.5574  2.0599
12736SOL    HW250682   2.697   7.379   2.494 -0.3407 -0.5762  1.6984
12737SOL     OW50683   5.908   0.560   0.129  0.7230  0.0777  0.4604
12737SOL    HW150684   5.843   0.538   0.202  0.0419  1.8235  0.4153
12737SOL    HW250685   5.911   0.486   0.062 -1.0006 -0.1561  0.6277
12738SOL     OW50686   6.704   0.836   0.494  0.0201  0.0817  0.2385
12738SOL    HW150687   6.752   0.881   0.570  0.6786  1.2048 -0.8257
12738SOL    HW250688   6.731   0.878   0.408 -2.2150  0.1149 -0.4670
12739SOL     OW50689   4.757   0.719   5.435 -0.5040  0.0120 -0.4663
12739SOL    HW150690   4.806   0.638   5.401 -2.7942 -1.5962 -0.0369
12739SOL    HW250691   4.670   0.691   5.475 -0.9748  2.6316  0.4517
12740SOL     OW50692   0.216   3.941   4.632 -0.2464  0.2394  0.9402
12740SOL    HW150693   0.132   3.942   4.577  0.8561 -0.8962 -0.8251
12740SOL    HW250694   0.203   3.882   4.711 -0.3944 -1.7757 -0.5521
12741SOL     OW50695   6.610   7.369   7.392  0.0292  0.5720  0.8211
12741SOL    HW150696   6.631   7.455   7.440 -1.0567  0.1017  2.1766
12741SOL    HW250697   6.547   7.315   7.448 -1.0453 -0.1212 -1.0203
12742SOL     OW50698   6.220   6.084   7.527 -0.1711 -0.0196 -0.5588
12742SOL    HW150699   6.214   6.077   7.627  2.1091 -0.7464 -0.4473
12742SOL    HW250700   6.187   6.174   7.498  1.6102  1.2300  1.1046
12743SOL     OW50701   3.611   8.269   2.575  0.0800  0.0969  0.5722
12743SOL    HW150702   3.583   8.357   2.614  0.1144 -0.3813  1.7035
12743SOL    HW250703   3.704   8.247   2.607  0.3006 -0.0667 -0.1855
12744SOL     OW50704   7.301   7.020   6.151 -0.9088  0.6107  0.0236
12744SOL    HW150705   7.215   6.973   6.174 -0.1956  0.3882  2.3404
12744SOL    HW250706   7.311   7.102   6.208  0.9612 -0.0158  0.6508
12745SOL     OW50707   5.389   8.061   4.744  0.2684  0.1195  0.1183
12745SOL    HW150708   5.303   8.077   4.792 -0.0306  1.2065 -0.7659
12745SOL    HW250709   5.387   7.970   4.702 -0.8381  0.4949 -0.6834
12746SOL     OW50710   7.130   6.061   6.183  0.3469  0.2077  0.6059
12746SOL    HW150711   7.100   5.971   6.213  2.5489 -1.7155 -2.6202
12746SOL    HW250712   7.073   6.091   6.107  1.4874  0.1476 -0.2875
12747SOL     OW50713   7.048   6.269   0.331 -0.3276  0.1942 -0.5212
12747SOL    HW150714   7.127   6.236   0.382  0.6471  3.2567  0.0102
12747SOL    HW250715   7.070   6.271   0.233 -0.1360  0.0458 -0.4823
12748SOL     OW50716   3.251   5.645   8.481  0.5135 -0.1328  0.7909
12748SOL    HW150717   3.217   5.554   8.504 -0.2208  0.3239  1.5550
12748SOL    HW250718   3.231   5.665   8.385  0.6368 -0.7618  0.6348
12749SOL     OW50719   5.045   1.256   8.882  0.0782 -0.0925  0.1763
12749SOL    HW150720   5.057   1.164   8.843 -4.1531 -0.2051 -1.0507
12749SOL    HW250721   5.019   1.320   8.810  1.3643  1.7706  1.3096
12750SOL     OW50722   4.909   6.159   6.719  0.1377 -0.0538 -0.8494
12750SOL    HW150723   4.999   6.172   6.677  1.2768 -2.5725  0.7133
12750SOL    HW250724   4.839   6.161   6.647  1.5109  1.0001 -2.2022
12751SOL     OW50725   8.123   7.450   7.407 -0.2609 -0.0695  0.1410
12751SOL    HW150726   8.120   7.504   7.492 -1.0421 -0.0962  0.1392
12751SOL    HW250727   8.051   7.483   7.346  0.3467 -0.0108 -0.5378
12752SOL     OW50728   6.196   2.646   0.613 -0.7685 -0.1535  0.5800
12752SOL    HW150729   6.148   2.719   0.564 -0.7830  0.4441  1.4632
12752SOL    HW250730   6.273   2.614   0.558  0.4287  1.9059  0.9914
12753SOL     OW50731   2.834   4.099   0.814  0.0985  0.0225  0.2228
12753SOL    HW150732   2.784   4.156   0.880 -0.2613  1.3961 -1.2033
12753SOL    HW250733   2.771   4.035   0.770  0.0495  0.1323  0.1333
12754SOL     OW50734   0.940   2.653   4.865  0.5594  0.3233  0.7487
12754SOL    HW150735   0.999   2.600   4.803 -1.1465 -1.0120  0.2386
12754SOL    HW250736   0.991   2.732   4.898  1.8307  0.5587 -1.6174
12755SOL     OW50737   3.589   8.128   3.446  0.1579  0.0314  0.4197
12755SOL    HW150738   3.590   8.163   3.352 -0.5443  1.7295  1.0425
12755SOL    HW250739   3.677   8.085   3.466  0.9735  1.2914 -0.3924
12756SOL     OW50740   5.047   4.807   4.027  0.6369 -0.3946  0.3750
12756SOL    HW150741   5.060   4.876   4.098  0.4862 -0.3202  0.3311
12756SOL    HW250742   4.979   4.740   4.058 -0.4553  0.4080 -0.2527
12757SOL     OW50743   2.374   5.836   2.440 -0.0887  0.2073  0.0099
12757SOL    HW150744   2.285   5.794   2.424  0.0127 -0.0086  0.0066
12757SOL    HW250745   2.421   5.849   2.352 -1.0610  2.4398 -0.2159
12758SOL     OW50746   8.407   0.841   1.414 -0.7451 -0.2497 -0.1977
12758SOL    HW150747   8.324   0.842   1.470 -2.0106 -2.9995 -1.9076
12758SOL    HW250748   8.456   0.755   1.428  0.3223  0.1573 -1.2949
12759SOL     OW50749   1.199   8.691   5.548 -0.3125  0.0450 -0.5523
12759SOL    HW150750   1.125   8.697   5.616 -0.6560  1.8742 -1.0396
12759SOL    HW250751   1.218   8.595   5.527 -1.9518 -0.4726  0.2396
12760SOL     OW50752   1.045   6.947   1.856  0.0410  0.1010  0.4850
12760SOL    HW150753   0.948   6.951   1.881  0.1853  2.1993  0.7811
12760SOL    HW250754   1.097   7.010   1.914  1.3737  0.0065 -0.5897
12761SOL     OW50755   5.718   7.728   5.402  0.2675 -0.0013  0.1707
12761SOL    HW150756   5.809   7.687   5.402 -0.7099 -2.3150 -1.6201
12761SOL    HW250757   5.725   7.826   5.385  2.4446 -0.0335  0.7262
12762SOL     OW50758   1.717   2.373   0.505 -0.0082  0.4463 -0.8435
12762SOL    HW150759   1.766   2.294   0.469 -0.5898  0.1722 -1.0361
12762SOL    HW250760   1.714   2.445   0.436 -0.6136  0.1419 -1.1401
12763SOL     OW50761   4.485   7.702   2.694  0.3701 -0.0273  0.5269
12763SOL    HW150762   4.413   7.696   2.763  0.2663 -0.2323  0.4009
12763SOL    HW250763   4.542   7.782   2.712 -2.7599  2.9356 -2.1117
12764SOL     OW50764   5.525   0.702   8.122 -0.5990 -0.7263 -0.2571
12764SOL    HW150765   5.511   0.603   8.115  0.7105 -0.8658 -1.0580
12764SOL    HW250766   5.445   0.744   8.165 -1.7840 -1.9476 -1.2462
12765SOL     OW50767   1.788   5.173   5.558  0.1354  0.9797  0.1940
12765SOL    HW150768   1.722   5.232   5.605  0.0895  1.1983 -0.1365
12765SOL    HW250769   1.809   5.094   5.614 -0.5487  0.8194  0.2252
12766SOL     OW50770   1.882   6.292   0.451  0.1128  0.0380  0.2790
12766SOL    HW150771   1.960   6.314   0.391  2.7873 -0.7913  3.3168
12766SOL    HW250772   1.906   6.314   0.545 -3.2306 -0.6827  1.3312
12767SOL     OW50773   1.266   2.479   5.199 -0.2945  0.3032 -0.2620
12767SOL    HW150774   1.347   2.538   5.197 -1.3531  1.7686 -2.9353
12767SOL    HW250775   1.185   2.535   5.217 -1.0465 -0.6876 -0.5651
12768SOL     OW50776   2.979   0.173   5.352  0.0984 -0.2170 -0.4792
12768SOL    HW150777   3.033   0.147   5.272  0.2421 -3.8759  0.7360
12768SOL    HW250778   2.889   0.205   5.323  1.3954  1.9662 -2.2686
12769SOL     OW50779   6.740   6.546   1.163  0.6549  0.2166  0.2464
12769SOL    HW150780   6.829   6.501   1.153  1.6187  2.0907  0.0621
12769SOL    HW250781   6.723   6.604   1.083 -0.9732 -0.5182  0.0540
12770SOL     OW50782   8.177   7.063   8.797  0.2712 -0.4492  0.2096
12770SOL    HW150783   8.273   7.051   8.824  0.1195 -0.2409  0.8527
12770SOL    HW250784   8.170   7.058   8.697  1.0299  0.0853  0.1245
12771SOL     OW50785   0.448   8.721   7.266 -0.1380  0.0515  0.2937
12771SOL    HW150786   0.401   8.667   7.197 -1.4185 -0.9677  1.9528
12771SOL    HW250787   0.545   8.730   7.240 -0.5020 -0.6693 -1.3997
12772SOL     OW50788   2.146   4.508   0.533 -0.1828  0.5917 -0.3306
12772SOL    HW150789   2.095   4.560   0.465 -0.0052 -0.2305 -1.0871
12772SOL    HW250790   2.114   4.414   0.535  1.8266 -0.1474 -1.3640
12773SOL     OW50791   5.648   8.766   8.633 -0.5170 -0.4807  0.4463
12773SOL    HW150792   5.559   8.776   8.676  0.1172  0.8593  1.4788
12773SOL    HW250793   5.680   8.854   8.600  0.0496 -1.1030 -0.7063
12774SOL     OW50794   0.788   0.830   1.159 -0.1454 -0.4839 -1.0683
12774SOL    HW150795   0.700   0.825   1.207  1.6574  0.0578  2.3850
12774SOL    HW250796   0.815   0.925   1.148  1.2637 -0.7041  0.3086
12775SOL     OW50797   6.530   0.091   0.270  0.8296 -0.1001  0.2050
12775SOL    HW150798   6.449   0.148   0.253  0.8117  0.5373  2.2703
12775SOL    HW250799   6.502  -0.006   0.272  0.1383  0.0984  0.6368
12776SOL     OW50800   5.868   8.728   3.922  0.4476  0.1861  0.4694
12776SOL    HW150801   5.965   8.752   3.920  0.2711  0.8395 -0.9721
12776SOL    HW250802   5.824   8.759   3.837 -1.7056  2.7993  2.4469
12777SOL     OW50803   4.900   6.711   1.377  0.0913 -0.0371 -0.1065
12777SOL    HW150804   4.833   6.691   1.305 -0.0882 -1.8616  0.5261
12777SOL    HW250805   4.991   6.722   1.336 -0.0432 -0.8464 -0.6465
12778SOL     OW50806   0.971   5.973   4.957 -0.3186 -0.1200 -0.0014
12778SOL    HW150807   0.958   6.032   4.877 -1.6867 -1.1340 -0.5495
12778SOL    HW250808   1.069   5.964   4.976 -0.0540  1.5323 -0.5010
12779SOL     OW50809   5.306   8.065   2.218 -0.0961 -0.3935 -0.6512
12779SOL    HW150810   5.351   8.143   2.175  2.3357 -1.0422  0.6066
12779SOL    HW250811   5.359   7.982   2.199  0.0200 -0.9663  2.0637
12780SOL     OW50812   0.476   7.698   1.097 -0.6138  0.7805 -0.0014
12780SOL    HW150813   0.437   7.774   1.047 -1.2468  1.4407  1.4741
12780SOL    HW250814   0.575   7.713   1.109 -0.4154  0.5030 -1.2278
12781SOL     OW50815   5.285   6.483   3.101  0.3215 -0.3226  0.0084
12781SOL    HW150816   5.186   6.497   3.111  0.7076  1.6069  1.4104
12781SOL    HW250817   5.314   6.515   3.010 -0.1342  0.4322  0.1225
12782SOL     OW50818   3.108   1.534   1.871 -0.4213 -0.2185 -0.6409
12782SOL    HW150819   3.034   1.494   1.817  0.2621  0.0250 -1.7649
12782SOL    HW250820   3.170   1.584   1.811  0.7612 -0.5658  0.2756
12783SOL     OW50821   8.910   0.935   6.713  0.0480 -0.1424 -0.5023
12783SOL    HW150822   8.814   0.935   6.741  0.5715  0.7297  1.3936
12783SOL    HW250823   8.958   0.858   6.754  0.2864 -0.2453 -0.9689
12784SOL     OW50824   3.477   7.407   8.712  0.2190 -0.1219 -0.6016
12784SOL    HW150825   3.555   7.428   8.653  0.5667 -0.3599 -0.2344
12784SOL    HW250826   3.425   7.490   8.731 -0.2262 -0.1407 -1.7048
12785SOL     OW50827   3.908   1.665   2.437  0.4542  0.1741  0.7794
12785SOL    HW150828   4.008   1.660   2.438  0.4161 -0.7669  1.2824
12785SOL    HW250829   3.871   1.580   2.398 -0.1508  0.2664  1.1383
12786SOL     OW50830   0.854   0.249   0.215  0.5055 -0.2802  0.8647
12786SOL    HW150831   0.779   0.183   0.213 -1.3384  1.7973 -0.1185
12786SOL    HW250832   0.834   0.321   0.281  2.3521 -0.4902  1.6847
12787SOL     OW50833   0.618   6.000   2.241  0.1507  0.8911 -0.2979
12787SOL    HW150834   0.625   6.097   2.263 -0.2787  0.6209  1.0926
12787SOL    HW250835   0.677   5.979   2.163  1.4131  1.9749  0.3450
12788SOL     OW50836   2.998   4.511   5.753 -0.1257  0.0463  0.1201
12788SOL    HW150837   3.045   4.424   5.740  0.4288  0.2190  0.9407
12788SOL    HW250838   2.936   4.504   5.830  1.0479  0.8309  1.1486
12789SOL     OW50839   3.434   7.704   1.014  0.1533  0.1570  0.2820
12789SOL    HW150840   3.440   7.778   0.947  1.0034 -1.1658 -1.1551
12789SOL    HW250841   3.526   7.683   1.049 -0.1946  0.3666  1.3494
12790SOL     OW50842   2.427   6.707   7.690 -0.6360 -0.2597  0.3187
12790SOL    HW150843   2.440   6.677   7.785 -2.1321  0.8362  0.8940
12790SOL    HW250844   2.395   6.802   7.689 -0.1744 -0.1078 -1.3138
12791SOL     OW50845   7.678   2.665   4.773  0.1198 -0.2012  0.4220
12791SOL    HW150846   7.658   2.588   4.834  0.7992 -0.2091  0.6346
12791SOL    HW250847   7.681   2.749   4.827 -1.3578  0.0875  0.0827
12792SOL     OW50848   3.204   6.830   1.302 -0.6388  0.1938  0.4014
12792SOL    HW150849   3.249   6.891   1.237  0.5915 -1.9050 -0.7765
12792SOL    HW250850   3.110   6.859   1.315 -0.6385  1.1945 -1.6388
12793SOL     OW50851   6.186   1.709   7.263 -0.0959 -0.2617 -0.1600
12793SOL    HW150852   6.222   1.629   7.214 -0.8188  0.3600 -1.7643
12793SOL    HW250853   6.146   1.772   7.197 -0.2943  1.0386  1.1818
12794SOL     OW50854   8.989   4.954   7.169  0.4543 -0.7645 -0.1190
12794SOL    HW150855   8.945   5.000   7.246  1.8355  0.1236  0.1506
12794SOL    HW250856   9.010   4.859   7.193 -1.9319 -1.4270 -0.4978
12795SOL     OW50857   8.070   5.483   3.319 -0.6811  0.2105  0.0549
12795SOL    HW150858   8.026   5.507   3.406  0.3948  0.8973  0.4219
12795SOL    HW250859   8.168   5.501   3.325 -0.4905 -0.4082 -1.0708
12796SOL     OW50860   1.534   7.348   6.005  0.9142 -0.2586 -0.6087
12796SOL    HW150861   1.620   7.349   5.955  1.1490 -1.0117 -0.2263
12796SOL    HW250862   1.546   7.301   6.092  0.6921  1.7194  0.5123
12797SOL     OW50863   8.496   4.377   2.063  0.0285 -0.0059  1.1412
12797SOL    HW150864   8.476   4.463   2.015 -0.7635 -0.0061  1.4564
12797SOL    HW250865   8.445   4.302   2.021  2.0021 -0.6495 -0.1954
12798SOL     OW50866   0.871   3.911   1.493  0.5377  0.5324  0.6259
12798SOL    HW150867   0.803   3.896   1.564  0.9289 -0.8156  0.7302
12798SOL    HW250868   0.940   3.838   1.497  1.0354  0.9285 -0.5751
12799SOL     OW50869   3.778   4.539   6.749 -0.2734  0.0075  0.2897
12799SOL    HW150870   3.777   4.616   6.685 -0.8565  0.1054  0.4152
12799SOL    HW250871   3.838   4.560   6.826  0.6342 -0.2112 -0.3390
12800SOL     OW50872   2.561   8.914   0.533 -0.0695 -0.0685 -0.3970
12800SOL    HW150873   2.502   8.984   0.573  0.9699  0.7564 -0.2801
12800SOL    HW250874   2.550   8.828   0.584 -0.5744  0.2965  0.1218
12801SOL     OW50875   0.603   2.532   0.334 -0.1912 -0.2022 -0.2821
12801SOL    HW150876   0.676   2.488   0.282  0.9091 -0.0154  1.1014
12801SOL    HW250877   0.624   2.629   0.346  0.1657 -0.5042  1.5788
12802SOL     OW50878   4.654   3.141   7.715  0.0506  0.1781 -0.4079
12802SOL    HW150879   4.607   3.163   7.800 -1.4098  4.1531 -2.1117
12802SOL    HW250880   4.586   3.127   7.642  1.3093 -2.0750 -1.1892
12803SOL     OW50881   7.013   5.179   6.425  0.2032 -0.0449 -0.1914
12803SOL    HW150882   6.930   5.162   6.372  1.3578 -0.0887 -2.0122
12803SOL    HW250883   7.036   5.097   6.477 -1.3311  0.2334  0.9816
12804SOL     OW50884   1.661   0.373   0.131  0.1260 -0.6308 -0.1437
12804SOL    HW150885   1.686   0.289   0.178  0.8327 -0.6804 -0.6162
12804SOL    HW250886   1.736   0.403   0.072 -0.5155 -0.2269 -0.7643
12805SOL     OW50887   4.127   0.112   3.655 -0.4921  0.0548  0.3207
12805SOL    HW150888   4.097   0.028   3.609 -0.3075 -0.8949  1.8685
12805SOL    HW250889   4.064   0.133   3.730 -0.8101  1.5825 -0.3608
12806SOL     OW50890   6.552   4.587   1.388 -0.2390 -0.6487 -0.2546
12806SOL    HW150891   6.492   4.645   1.332  0.3933 -0.1363 -0.4205
12806SOL    HW250892   6.580   4.637   1.470 -0.2141 -0.9626 -0.0709
12807SOL     OW50893   4.684   3.705   7.340  0.3215  0.2188 -0.0778
12807SOL    HW150894   4.651   3.759   7.418  2.5149  0.6588  0.5777
12807SOL    HW250895   4.711   3.765   7.266 -0.1842 -0.1309 -0.5508
12808SOL     OW50896   0.385   8.788   5.558  0.3302 -0.3606 -0.2944
12808SOL    HW150897   0.456   8.852   5.585  0.0452  0.9891 -2.6122
12808SOL    HW250898   0.297   8.835   5.552 -0.5011 -1.6857  1.0681
12809SOL     OW50899   4.654   4.149   4.743  0.1923 -0.6271  0.3023
12809SOL    HW150900   4.619   4.110   4.658 -0.4507 -2.1245  1.2185
12809SOL    HW250901   4.648   4.081   4.816  1.8833  0.2229  1.2777
12810SOL     OW50902   3.388   1.593   3.316  0.3408  0.1342 -0.3351
12810SOL    HW150903   3.318   1.652   3.357 -0.1471  0.3188 -1.3995
12810SOL    HW250904   3.453   1.565   3.386 -1.1382 -0.5492  0.8125
12811SOL     OW50905   0.949   2.046   7.248  0.6977 -0.0985 -0.6008
12811SOL    HW150906   1.036   2.053   7.296 -0.5567 -0.2084  1.7921
12811SOL    HW250907   0.917   1.951   7.250 -0.3944  0.2751  0.2592
12812SOL     OW50908   1.125   5.789   7.777  0.0562 -0.2785 -0.1177
12812SOL    HW150909   1.027   5.773   7.774 -0.0322  0.2050  0.3293
12812SOL    HW250910   1.150   5.831   7.863  0.6962 -0.6453 -0.1196
12813SOL     OW50911   2.972   8.414   3.765  0.4160 -0.3974 -0.2526
12813SOL    HW150912   3.036   8.352   3.719  0.8336 -0.7085  0.7531
12813SOL    HW250913   2.906   8.362   3.818  0.2674 -0.0070 -0.0513
12814SOL     OW50914   5.172   1.957   8.247 -0.9291  0.3500  0.6573
12814SOL    HW150915   5.228   1.877   8.266 -1.7729 -0.1356  1.1357
12814SOL    HW250916   5.202   2.034   8.303  0.1410  0.4918 -0.0935
12815SOL     OW50917   1.337   7.350   0.383 -0.0038 -0.0623 -0.3601
12815SOL    HW150918   1.289   7.345   0.295  0.1251 -1.0662 -0.3753
12815SOL    HW250919   1.295   7.286   0.447  0.0154  0.5407  0.2632
12816SOL     OW50920   5.835   5.461   8.118  0.0877 -0.1319 -0.1986
12816SOL    HW150921   5.932   5.465   8.140  0.0338 -3.3844  0.7744
12816SOL    HW250922   5.785   5.526   8.176  1.4017  0.0432  0.7525
12817SOL     OW50923   2.651   6.215   6.658  0.4775  0.0226 -0.1131
12817SOL    HW150924   2.619   6.198   6.751  1.0500 -0.3958  0.0085
12817SOL    HW250925   2.698   6.135   6.623  2.9066  1.2096  0.3383
12818SOL     OW50926   0.882   1.866   7.856  0.1587  0.5428 -0.5783
12818SOL    HW150927   0.797   1.834   7.897 -0.5110  1.2030 -1.4217
12818SOL    HW250928   0.862   1.910   7.768  1.0470  3.0863  0.4277
12819SOL     OW50929   8.762   1.705   5.797  0.3255  0.5660  0.2439
12819SOL    HW150930   8.678   1.713   5.851 -0.1905  1.3409 -0.6555
12819SOL    HW250931   8.800   1.796   5.783  1.8587  0.1331  1.4697
12820SOL     OW50932   2.127   2.195   3.204  0.3381 -1.1324  0.4211
12820SOL    HW150933   2.140   2.247   3.288 -2.6454  1.1212 -0.3806
12820SOL    HW250934   2.214   2.182   3.158  1.5650  0.4946  2.2293
12821SOL     OW50935   3.873   5.081   7.910  0.1669  0.0633 -1.2592
12821SOL    HW150936   3.843   5.023   7.835 -1.2602  1.0795 -1.5053
12821SOL    HW250937   3.949   5.138   7.880  1.2069 -1.2652 -1.1795
12822SOL     OW50938   0.434   5.315   0.429  1.0566 -0.5764  0.4257
12822SOL    HW150939   0.424   5.235   0.371  2.1319  1.0932 -2.1529
12822SOL    HW250940   0.386   5.300   0.515 -2.7699 -2.1725 -1.8453
12823SOL     OW50941   7.940   3.052   7.792 -0.6003 -0.1944  0.4253
12823SOL    HW150942   7.939   3.150   7.771  0.1556 -0.1256  0.6868
12823SOL    HW250943   7.936   3.038   7.891 -2.8648 -0.4916  0.3089
12824SOL     OW50944   6.938   0.153   5.692  0.7387 -0.7313  0.1357
12824SOL    HW150945   6.862   0.097   5.725  0.2432 -0.3846 -0.4034
12824SOL    HW250946   6.961   0.221   5.761  1.6988 -1.9326  1.0203
12825SOL     OW50947   0.773   8.143   1.638 -0.9090 -0.1725  0.5966
12825SOL    HW150948   0.732   8.091   1.713 -2.1031 -0.7254 -0.4135
12825SOL    HW250949   0.872   8.147   1.650 -0.7787 -2.7257  0.6857
12826SOL     OW50950   8.752   4.882   1.314 -0.3605 -0.4986  0.3085
12826SOL    HW150951   8.695   4.814   1.361 -1.3539  1.0453  1.3874
12826SOL    HW250952   8.829   4.907   1.373  0.0030 -0.6861 -0.0860
12827SOL     OW50953   2.790   7.439   4.543  0.2675 -0.0517 -0.0035
12827SOL    HW150954   2.768   7.476   4.453  0.1308  1.5754  0.6840
12827SOL    HW250955   2.723   7.473   4.610 -0.5942 -2.5028  0.4525
12828SOL     OW50956   3.311   6.666   5.918  0.1574 -0.1236  0.3681
12828SOL    HW150957   3.341   6.576   5.948 -0.7543 -0.3302  0.6753
12828SOL    HW250958   3.391   6.723   5.897  0.7272 -1.1526 -0.3017
12829SOL     OW50959   3.360   2.120   1.804 -0.4096  0.3418  0.0531
12829SOL    HW150960   3.277   2.065   1.796 -0.7933  1.1515 -1.5254
12829SOL    HW250961   3.430   2.085   1.742  0.2030  0.1099  0.8559
12830SOL     OW50962   6.621   5.088   8.137  0.7275  0.1891  0.4862
12830SOL    HW150963   6.688   5.153   8.173 -0.0182  1.4392 -0.3444
12830SOL    HW250964   6.585   5.122   8.050  0.8282 -1.6747 -0.3084
12831SOL     OW50965   1.272   8.071   6.485 -0.1029 -0.6198 -0.0705
12831SOL    HW150966   1.302   8.166   6.488 -0.1348 -0.6038 -0.2477
12831SOL    HW250967   1.315   8.025   6.407  0.9134 -1.0969  0.7621
12832SOL     OW50968   2.858   6.468   0.280  0.3812  0.7164  0.2346
12832SOL    HW150969   2.808   6.549   0.249 -0.0963  0.2371 -0.2576
12832SOL    HW250970   2.943   6.460   0.228 -0.9336 -0.6933 -1.7483
12833SOL     OW50971   6.872   5.648   8.857 -0.8627 -0.2808  0.0748
12833SOL    HW150972   6.820   5.678   8.937 -0.7244  1.1178 -0.3440
12833SOL    HW250973   6.863   5.717   8.784  1.9378  0.2309  0.1530
12834SOL     OW50974   2.679   8.087   6.322  0.4242  0.4612  0.0882
12834SOL    HW150975   2.682   8.021   6.247 -0.4780 -0.1235  0.5517
12834SOL    HW250976   2.772   8.113   6.347  0.8527 -1.3949  0.5565
12835SOL     OW50977   5.473   0.532   3.287  0.1969 -0.2065 -0.0791
12835SOL    HW150978   5.537   0.555   3.360  0.0918 -1.8020  0.5508
12835SOL    HW250979   5.422   0.450   3.313  0.4410 -1.0391 -2.1237
12836SOL     OW50980   7.904   0.731   5.670 -0.3134 -0.2489 -0.7318
12836SOL    HW150981   7.934   0.822   5.643 -2.2670  0.4197 -0.6961
12836SOL    HW250982   7.846   0.691   5.599 -0.5293 -0.9297 -0.1884
12837SOL     OW50983   6.056   3.183   2.352 -0.2986  0.5819  0.1861
12837SOL    HW150984   6.065   3.272   2.397 -0.0388  0.2685  0.7568
12837SOL    HW250985   6.144   3.137   2.350 -0.9369 -0.7996  2.2817
12838SOL     OW50986   1.361   1.115   1.422 -0.2432  0.3138 -0.2717
12838SOL    HW150987   1.359   1.194   1.483 -1.5042  0.7370 -0.8415
12838SOL    HW250988   1.365   1.147   1.327  2.2767 -0.3374 -0.4090
12839SOL     OW50989   1.571   6.874   3.838  0.6457 -0.0831 -0.5707
12839SOL    HW150990   1.597   6.877   3.742 -0.4321 -1.0513 -0.9009
12839SOL    HW250991   1.561   6.779   3.867 -0.8347  0.2222 -0.0054
12840SOL     OW50992   2.712   0.577   6.995 -0.2784  0.9614  0.5614
12840SOL    HW150993   2.643   0.557   7.064  2.0438 -1.2584  2.3584
12840SOL    HW250994   2.748   0.669   7.009 -2.2294  1.7886  0.1623
12841SOL     OW50995   7.514   7.196   5.283 -0.4892  0.9203 -0.3229
12841SOL    HW150996   7.477   7.257   5.213 -1.5286  0.6340 -0.0410
12841SOL    HW250997   7.439   7.146   5.326  0.3809 -1.0411 -0.9849
12842SOL     OW50998   4.504   5.375   7.933  0.5934  0.3631 -0.4899
12842SOL    HW150999   4.558   5.448   7.975  0.9316  1.7020 -3.2080
12842SOL    HW251000   4.407   5.395   7.947  0.6818  1.3797 -1.2724
12843SOL     OW51001   3.744   4.771   3.303  0.2632  0.2836 -0.2801
12843SOL    HW151002   3.780   4.828   3.377 -0.1933 -0.0239  0.1816
12843SOL    HW251003   3.742   4.824   3.219  2.0833  0.2078 -0.3780
12844SOL     OW51004   4.264   7.712   6.395 -0.1869 -0.5225 -0.5643
12844SOL    HW151005   4.239   7.800   6.435  0.3972 -0.1975 -0.9080
12844SOL    HW251006   4.209   7.695   6.314 -0.5891 -0.6644 -0.2622
12845SOL     OW51007   4.324   5.959   5.430  0.2011 -0.2920  0.3598
12845SOL    HW151008   4.420   5.985   5.420 -0.3891  1.1890 -1.8697
12845SOL    HW251009   4.302   5.886   5.366 -0.3862  0.0322  0.1894
12846SOL     OW51010   6.220   5.058   8.313  0.3066  0.9871 -0.5327
12846SOL    HW151011   6.209   5.139   8.371 -0.3720 -0.6103  1.6323
12846SOL    HW251012   6.138   5.045   8.258 -0.6585  0.3368  1.0184
12847SOL     OW51013   3.722   3.162   0.575 -0.0783  0.0296  0.4770
12847SOL    HW151014   3.684   3.250   0.544 -1.9639 -0.6003  0.9525
12847SOL    HW251015   3.704   3.092   0.506 -0.4322 -0.4378  1.0458
12848SOL     OW51016   8.161   1.098   4.594 -0.8127  0.3379 -0.5153
12848SOL    HW151017   8.146   1.189   4.633  0.1948  0.3219 -0.0506
12848SOL    HW251018   8.185   1.034   4.667  1.1152  0.3062 -1.1231
12849SOL     OW51019   6.920   7.789   1.142 -0.2758 -0.8359  0.0623
12849SOL    HW151020   6.968   7.877   1.145  0.7966 -1.4436  1.8478
12849SOL    HW251021   6.822   7.804   1.158 -0.3105  0.1487 -0.9690
12850SOL     OW51022   6.383   6.315   6.830  0.2012  0.3204 -0.1947
12850SOL    HW151023   6.312   6.385   6.836  0.6397  0.6933  0.6231
12850SOL    HW251024   6.468   6.349   6.870 -0.2493 -1.5239  2.4493
12851SOL     OW51025   5.370   1.722   8.767 -0.2794 -0.5716 -0.5390
12851SOL    HW151026   5.312   1.659   8.820  0.0017 -2.2083 -2.1244
12851SOL    HW251027   5.313   1.797   8.731 -1.0777 -1.1711 -0.5526
12852SOL     OW51028   5.544   5.929   1.997 -0.5933  0.1928 -0.3229
12852SOL    HW151029   5.575   5.918   1.902 -0.4338 -0.1538 -0.2317
12852SOL    HW251030   5.557   6.024   2.025  1.3359 -0.1415  0.0335
12853SOL     OW51031   1.573   6.953   8.365 -0.1947  0.2311  0.0626
12853SOL    HW151032   1.479   6.980   8.384 -1.2072 -3.3143  0.2748
12853SOL    HW251033   1.584   6.939   8.266 -0.4535 -1.3545  0.2535
12854SOL     OW51034   0.912   0.917   1.531 -0.2725 -0.0316  0.0818
12854SOL    HW151035   0.966   0.946   1.610 -1.4702  1.0848  0.4965
12854SOL    HW251036   0.926   0.981   1.455  0.0655 -0.5221 -0.2755
12855SOL     OW51037   8.761   5.582   2.950 -0.0312 -0.4015 -0.4146
12855SOL    HW151038   8.667   5.565   2.980 -0.4409  0.7405 -1.0134
12855SOL    HW251039   8.824   5.536   3.012 -0.9195  0.5759  1.2768
12856SOL     OW51040   1.297   6.369   5.544 -0.4076 -0.1007  0.2307
12856SOL    HW151041   1.275   6.360   5.446 -0.5261 -1.7531  0.3961
12856SOL    HW251042   1.391   6.339   5.560 -0.2371  0.6027  0.5638
12857SOL     OW51043   8.469   7.685   7.989  0.4132  0.0213 -0.5763
12857SOL    HW151044   8.453   7.695   8.088  0.1630 -0.2174 -0.5925
12857SOL    HW251045   8.381   7.675   7.943  0.6156 -1.4116 -0.6629
12858SOL     OW51046   8.182   5.660   2.394 -0.4007  0.5423 -0.8295
12858SOL    HW151047   8.109   5.593   2.382  0.4875 -1.0361  2.0326
12858SOL    HW251048   8.258   5.618   2.444  1.4594  2.8487 -1.5996
12859SOL     OW51049   4.997   6.037   6.137  0.3590 -0.4271 -0.2140
12859SOL    HW151050   5.032   6.006   6.226 -1.3765 -0.1890  0.5568
12859SOL    HW251051   5.020   6.133   6.124  1.8168 -0.8170 -0.6408
12860SOL     OW51052   1.959   8.227   5.920  0.4258  0.6875 -0.1676
12860SOL    HW151053   2.040   8.256   5.971  1.7498  0.3305 -2.0084
12860SOL    HW251054   1.962   8.129   5.904 -0.5907  0.6048  0.1446
12861SOL     OW51055   6.876   1.422   8.414  0.2749 -0.0136 -0.2394
12861SOL    HW151056   6.801   1.470   8.369  0.1438 -1.4195 -1.5407
12861SOL    HW251057   6.862   1.423   8.513 -1.5540 -0.4272 -0.4868
12862SOL     OW51058   6.686   7.666   5.823 -0.1493 -0.0757  0.0045
12862SOL    HW151059   6.686   7.589   5.887 -1.2865  0.2509  0.3928
12862SOL    HW251060   6.611   7.728   5.844  0.0893  0.5709 -1.0020
12863SOL     OW51061   0.989   2.360   7.480  0.2948  0.2338 -0.5903
12863SOL    HW151062   0.952   2.299   7.410 -1.0740 -0.1692  0.4649
12863SOL    HW251063   0.979   2.317   7.570 -0.0120  1.6984  0.0883
12864SOL     OW51064   4.911   2.568   5.533 -0.1800  0.0801  0.0001
12864SOL    HW151065   4.845   2.510   5.580  0.0611  0.7721  1.2104
12864SOL    HW251066   4.864   2.650   5.498  0.2822  1.2870  2.1346
12865SOL     OW51067   8.955   8.490   1.541  0.0668 -0.7740  0.5782
12865SOL    HW151068   8.900   8.574   1.550  0.7745 -0.4623  2.1179
12865SOL    HW251069   9.032   8.507   1.480 -0.7696 -0.8083 -0.4898
12866SOL     OW51070   4.213   4.885   4.498  0.3768  0.3661  0.2300
12866SOL    HW151071   4.173   4.947   4.430 -0.4055 -0.3778  0.0082
12866SOL    HW251072   4.224   4.794   4.458 -1.5375 -0.4862  1.5802
12867SOL     OW51073   3.112   0.715   0.437  0.0474 -0.2896 -0.2999
12867SOL    HW151074   3.096   0.785   0.506  1.9430  0.8424 -0.9717
12867SOL    HW251075   3.039   0.647   0.440 -0.9266  0.8224  1.4733
12868SOL     OW51076   5.513   7.190   1.661 -0.3430  0.4634  0.3668
12868SOL    HW151077   5.430   7.218   1.709 -0.8563  0.9717 -0.7849
12868SOL    HW251078   5.531   7.253   1.585 -0.1095 -0.8614 -0.7136
12869SOL     OW51079   5.290   6.831   3.730 -0.3543  0.2895 -0.2382
12869SOL    HW151080   5.378   6.871   3.704  0.2035 -1.7568 -1.6144
12869SOL    HW251081   5.274   6.747   3.677 -2.6554  0.0678  0.7429
12870SOL     OW51082   2.064   2.674   6.676  0.0613 -0.1965  0.4271
12870SOL    HW151083   1.982   2.720   6.640  0.2289  0.2517  0.6111
12870SOL    HW251084   2.053   2.658   6.774 -0.6057 -1.8721  0.0967
12871SOL     OW51085   7.322   6.132   5.923  0.0151 -0.1921 -0.2956
12871SOL    HW151086   7.342   6.218   5.970  2.4037 -0.7074 -0.3304
12871SOL    HW251087   7.234   6.096   5.955  1.1553 -0.0724  3.0842
12872SOL     OW51088   6.360   4.751   1.280 -0.0750  0.2005  0.0374
12872SOL    HW151089   6.323   4.836   1.244 -1.3660  0.0143  0.8913
12872SOL    HW251090   6.337   4.675   1.219  0.2879  0.3195 -0.2504
12873SOL     OW51091   1.574   3.624   2.628 -0.5569  0.4381  0.0405
12873SOL    HW151092   1.652   3.672   2.587  0.2049 -0.9875 -0.2375
12873SOL    HW251093   1.490   3.650   2.581 -0.1877  1.6147  0.0104
12874SOL     OW51094   5.295   6.496   0.987 -0.0955  0.0526  0.8890
12874SOL    HW151095   5.265   6.453   0.902 -0.1685  0.8529  0.5030
12874SOL    HW251096   5.308   6.594   0.972 -2.4785  0.6438  2.4047
12875SOL     OW51097   3.415   1.844   5.618 -0.0823  0.3851 -0.5849
12875SOL    HW151098   3.513   1.835   5.636  0.2572  0.8123 -2.1411
12875SOL    HW251099   3.383   1.763   5.569 -0.1828  0.9218 -1.4161
12876SOL     OW51100   4.001   6.012   1.392  0.0159  0.4197 -0.1107
12876SOL    HW151101   3.972   6.076   1.464 -0.2275  0.9370 -0.6712
12876SOL    HW251102   4.095   6.034   1.364  0.5125 -0.4667  0.8134
12877SOL     OW51103   7.675   6.256   4.313 -0.4109  0.3294 -0.3708
12877SOL    HW151104   7.666   6.332   4.377 -0.1075 -0.9751  1.2508
12877SOL    HW251105   7.666   6.290   4.220  0.3518  2.4464  0.3031
12878SOL     OW51106   3.853   5.786   7.969  0.1496 -0.5416 -0.1275
12878SOL    HW151107   3.785   5.742   8.028  1.6317 -1.6110  0.8009
12878SOL    HW251108   3.809   5.810   7.882 -1.3603 -1.4814  0.3399
12879SOL     OW51109   8.670   1.199   1.624 -0.0743 -0.3480  0.6273
12879SOL    HW151110   8.736   1.214   1.550  1.5757  1.7173  2.4681
12879SOL    HW251111   8.578   1.189   1.585  0.9868 -1.0143 -1.8077
12880SOL     OW51112   6.164   7.111   1.569  0.2239 -0.1022  0.1749
12880SOL    HW151113   6.126   7.192   1.615  0.4952  0.8160 -1.1928
12880SOL    HW251114   6.219   7.059   1.634  0.3971  1.0351  0.9689
12881SOL     OW51115   1.334   8.049   2.127  0.1059 -0.0096  0.3718
12881SOL    HW151116   1.307   8.072   2.033 -2.2078 -0.5218  0.8982
12881SOL    HW251117   1.358   8.133   2.176 -0.2730  0.4233 -0.1813
12882SOL     OW51118   3.244   3.383   5.705 -0.2514 -0.1368  0.0857
12882SOL    HW151119   3.315   3.328   5.750 -0.1895 -0.1257  0.0005
12882SOL    HW251120   3.156   3.363   5.747 -0.5884 -1.9756 -1.4020
12883SOL     OW51121   4.658   8.887   7.990 -0.0276 -0.3552  0.2133
12883SOL    HW151122   4.583   8.821   7.996 -0.5916  0.1048 -1.6106
12883SOL    HW251123   4.652   8.937   7.904  1.8897  0.2906  0.4311
12884SOL     OW51124   4.684   0.424   2.278  0.4968  0.4930  0.5407
12884SOL    HW151125   4.588   0.400   2.261  1.1995 -2.2611  0.3344
12884SOL    HW251126   4.689   0.518   2.312 -2.1367  1.2209 -0.9574
12885SOL     OW51127   8.940   3.163   4.347  0.5525 -0.1467  0.4758
12885SOL    HW151128   8.887   3.079   4.337  0.2254  0.0439  0.6056
12885SOL    HW251129   8.971   3.194   4.257  3.9747 -2.5092  0.7283
12886SOL     OW51130   8.646   0.801   5.832  0.6364  0.1466 -0.3088
12886SOL    HW151131   8.661   0.805   5.734  1.8287 -2.3759 -0.2512
12886SOL    HW251132   8.582   0.727   5.854 -1.8244  2.4460  0.6136
12887SOL     OW51133   7.971   8.449   2.160 -0.2109 -0.2093  0.0088
12887SOL    HW151134   7.896   8.515   2.159  0.6520  0.7980  1.3552
12887SOL    HW251135   8.054   8.491   2.123  0.5929 -0.2272  1.7582
12888SOL     OW51136   2.275   0.003   1.287 -0.8592 -0.2076  0.1900
12888SOL    HW151137   2.306   0.096   1.270  1.7152 -0.9259  0.7273
12888SOL    HW251138   2.281  -0.050   1.202 -0.2229 -0.4471  0.3802
12889SOL     OW51139   0.733   6.586   6.087  0.2011 -0.0420 -0.0656
12889SOL    HW151140   0.760   6.537   6.004  2.0880  0.9532 -0.0784
12889SOL    HW251141   0.798   6.565   6.160  0.3684  1.4839  0.2520
12890SOL     OW51142   8.138   7.886   2.599 -0.3896 -0.0577 -0.0234
12890SOL    HW151143   8.079   7.848   2.528 -0.1287 -2.4974  1.0419
12890SOL    HW251144   8.092   7.879   2.688  1.5430 -2.1582  0.8452
12891SOL     OW51145   3.946   2.772   7.169 -0.3795  0.0420  0.3957
12891SOL    HW151146   3.997   2.857   7.152 -1.0258  0.4856  0.6254
12891SOL    HW251147   3.928   2.764   7.267  0.4353 -0.8095  0.4843
12892SOL     OW51148   3.144   8.657   6.032 -0.4130 -0.4750  0.1308
12892SOL    HW151149   3.074   8.651   5.961 -2.6075 -1.2996  2.3080
12892SOL    HW251150   3.108   8.705   6.112  0.5713 -3.1980  2.3213
12893SOL     OW51151   3.451   4.060   8.871  0.3868 -0.1105 -0.1281
12893SOL    HW151152   3.530   4.013   8.830 -0.1519 -0.2045 -1.0660
12893SOL    HW251153   3.403   4.111   8.800 -0.8728 -0.7106  0.2792
12894SOL     OW51154   3.278   5.539   5.753  0.5342 -0.0206 -0.0404
12894SOL    HW151155   3.317   5.501   5.669  0.3699  0.5082 -0.3538
12894SOL    HW251156   3.191   5.582   5.733 -0.9135 -2.3944  0.8847
12895SOL     OW51157   7.302   5.253   3.493  0.2070 -0.4183  0.1392
12895SOL    HW151158   7.295   5.317   3.569 -0.7445 -0.4073  0.0518
12895SOL    HW251159   7.266   5.296   3.410  1.0911 -0.4850 -0.2917
12896SOL     OW51160   5.676   5.207   1.266 -0.2154 -0.3226 -0.2773
12896SOL    HW151161   5.710   5.224   1.174 -0.4435 -2.3996 -0.7669
12896SOL    HW251162   5.751   5.177   1.325 -0.0865  0.9143  0.2054
12897SOL     OW51163   1.423   1.067   3.222 -0.2407 -0.8617 -0.2070
12897SOL    HW151164   1.503   1.012   3.245 -1.6826 -2.8348  0.1832
12897SOL    HW251165   1.356   1.010   3.176 -1.7755  0.5718  0.2152
12898SOL     OW51166   0.913   1.322   7.911 -0.1367 -0.2985 -0.1635
12898SOL    HW151167   0.897   1.247   7.846  2.5895 -0.4054 -0.7741
12898SOL    HW251168   0.904   1.410   7.863 -1.6976 -0.2637  0.1717
12899SOL     OW51169   4.625   6.852   1.610 -0.6089 -0.7159  0.3832
12899SOL    HW151170   4.630   6.819   1.515  0.3328  0.8814 -0.1410
12899SOL    HW251171   4.718   6.867   1.645 -0.9938  2.5997  0.1361
12900SOL     OW51172   6.499   3.127   1.345  0.0507 -0.4455 -0.2103
12900SOL    HW151173   6.535   3.037   1.320  1.5520  0.5138 -1.7089
12900SOL    HW251174   6.421   3.117   1.406  1.0699 -2.7187  0.7740
12901SOL     OW51175   8.470   7.335   7.559  0.2017 -0.4558 -0.3383
12901SOL    HW151176   8.453   7.290   7.471  0.4606 -0.8626 -0.1808
12901SOL    HW251177   8.459   7.434   7.548  0.2820 -0.5011 -0.8385
12902SOL     OW51178   6.772   5.569   6.887 -0.0191  0.0430  0.2507
12902SOL    HW151179   6.679   5.550   6.856 -0.6581  1.9010  0.9648
12902SOL    HW251180   6.788   5.668   6.888  2.4601 -0.2992 -1.2694
12903SOL     OW51181   0.756   5.984   8.421 -0.4838 -0.1130 -0.1487
12903SOL    HW151182   0.821   6.041   8.472 -0.6835 -0.5763  0.6270
12903SOL    HW251183   0.787   5.889   8.423 -0.8223 -0.2270 -0.3713
12904SOL     OW51184   0.995   5.210   2.463 -0.3251  0.9417 -0.2320
12904SOL    HW151185   0.926   5.262   2.513 -1.1005  1.8101 -2.1518
12904SOL    HW251186   0.962   5.117   2.448  0.5761  0.1996  2.2005
12905SOL     OW51187   3.761   2.434   4.121 -0.0022  0.0858  0.6178
12905SOL    HW151188   3.853   2.404   4.095 -0.0912  0.2930  0.0694
12905SOL    HW251189   3.694   2.367   4.090 -0.0352 -0.0845  1.0517
12906SOL     OW51190   7.237   7.312   3.903  0.1411 -0.0657  0.4118
12906SOL    HW151191   7.139   7.316   3.884  0.2266 -0.3983 -0.1034
12906SOL    HW251192   7.257   7.361   3.988 -0.0864  2.5564 -0.9746
12907SOL     OW51193   0.661   6.583   8.391 -0.0307 -0.3960 -0.1617
12907SOL    HW151194   0.674   6.571   8.489  0.4159  1.4621  0.0269
12907SOL    HW251195   0.673   6.495   8.344  1.9617 -0.8759  1.2078
12908SOL     OW51196   7.612   8.460   0.917  0.2471 -0.1333 -0.3645
12908SOL    HW151197   7.699   8.482   0.961 -0.4942 -0.2863  1.2135
12908SOL    HW251198   7.564   8.545   0.895 -0.6699 -0.0564  1.7916
12909SOL     OW51199   6.262   0.740   2.987 -0.0357 -0.2840  0.0742
12909SOL    HW151200   6.300   0.816   3.040 -0.7801  0.9107 -1.0642
12909SOL    HW251201   6.332   0.702   2.927 -0.0732  0.5272 -0.4844
12910SOL     OW51202   7.690   4.819   0.621  0.2727 -0.0081  0.0389
12910SOL    HW151203   7.619   4.887   0.605 -0.3942 -0.3994  1.2267
12910SOL    HW251204   7.727   4.787   0.534 -0.7087  0.5163 -0.5737
12911SOL     OW51205   6.383   6.235   1.244 -0.1838 -0.0867  0.4444
12911SOL    HW151206   6.390   6.334   1.236 -1.1529 -0.0933 -0.6702
12911SOL    HW251207   6.473   6.196   1.263  0.1918  1.0051  0.9516
12912SOL     OW51208   5.287   0.406   2.075  0.4133  0.2103  0.2952
12912SOL    HW151209   5.245   0.496   2.062 -1.7994 -0.3935  2.8097
12912SOL    HW251210   5.230   0.336   2.032  1.4112 -0.1413 -0.4683
12913SOL     OW51211   3.901   4.150   5.028  0.0500 -0.1640  0.4741
12913SOL    HW151212   3.854   4.201   5.100  0.6946  1.7781 -0.4287
12913SOL    HW251213   3.989   4.194   5.008  1.8933 -3.2032  1.5088
12914SOL     OW51214   0.113   8.951   5.283  0.2254 -0.4620  0.5824
12914SOL    HW151215   0.141   8.873   5.228 -1.4629 -0.6819  0.0085
12914SOL    HW251216   0.165   9.032   5.255  1.4689 -1.2084  0.6936
12915SOL     OW51217   2.582   7.258   7.381  0.3074 -0.3547  0.0688
12915SOL    HW151218   2.593   7.234   7.478 -1.5868  0.9917  0.6465
12915SOL    HW251219   2.672   7.275   7.341  0.9962  1.2684  2.1832
12916SOL     OW51220   3.672   1.243   2.076 -0.1977 -0.2977 -0.2966
12916SOL    HW151221   3.683   1.149   2.109  0.6791  0.6417  2.1807
12916SOL    HW251222   3.760   1.278   2.045  0.1677  0.8277  1.9442
12917SOL     OW51223   4.507   4.492   7.290  0.1763 -0.1452  0.2112
12917SOL    HW151224   4.583   4.549   7.320 -0.6982  1.2061 -0.1161
12917SOL    HW251225   4.449   4.471   7.369  0.0623  0.0793  0.1872
12918SOL     OW51226   3.748   1.121   4.259  0.4813  0.1563 -0.0241
12918SOL    HW151227   3.731   1.208   4.305 -1.1955 -0.3063  0.2638
12918SOL    HW251228   3.700   1.048   4.308  1.3760 -0.8456 -0.6215
12919SOL     OW51229   3.366   1.602   2.833 -0.1442 -0.2634 -0.3967
12919SOL    HW151230   3.314   1.643   2.758 -0.7837 -0.9105 -0.3109
12919SOL    HW251231   3.428   1.532   2.797  0.8582  0.6872 -0.5290
12920SOL     OW51232   6.717   6.296   0.081  0.2093  0.4033 -0.1486
12920SOL    HW151233   6.681   6.330  -0.005  0.4125  1.8138  0.3178
12920SOL    HW251234   6.672   6.342   0.157 -0.0589 -0.9199  0.5148
12921SOL     OW51235   5.565   1.472   7.529 -0.1343 -0.4373 -0.1275
12921SOL    HW151236   5.583   1.498   7.434 -0.2100  1.5150  0.3815
12921SOL    HW251237   5.492   1.403   7.532  0.3534 -1.0196 -1.5247
12922SOL     OW51238   8.630   5.078   7.861  0.4972 -0.2811  0.4274
12922SOL    HW151239   8.624   5.103   7.958  0.9943 -3.4214  1.3320
12922SOL    HW251240   8.541   5.046   7.829  0.9946 -1.9226  0.6545
12923SOL     OW51241   7.096   3.211   1.500 -0.3237  0.3592 -0.2715
12923SOL    HW151242   7.083   3.131   1.559 -1.0882  2.2133  2.1359
12923SOL    HW251243   7.194   3.228   1.489 -0.1647 -0.7060 -0.5254
12924SOL     OW51244   3.627   8.936   1.780 -0.1494 -0.6166 -0.3250
12924SOL    HW151245   3.613   8.845   1.819  0.3772 -0.3132  0.5862
12924SOL    HW251246   3.543   8.989   1.789  0.0244 -0.4937  0.5401
12925SOL     OW51247   2.394   1.832   7.926  0.0324  0.6140  0.0527
12925SOL    HW151248   2.435   1.911   7.880  0.5836  1.1897  1.5292
12925SOL    HW251249   2.294   1.836   7.917  0.1664  0.3459 -1.6956
12926SOL     OW51250   7.142   1.511   8.423  0.1712  0.4045 -0.4252
12926SOL    HW151251   7.164   1.595   8.374 -0.0028  1.7100  1.6985
12926SOL    HW251252   7.046   1.488   8.409  0.0506  0.9265 -0.4572
12927SOL     OW51253   2.020   4.270   3.127  0.2127  1.0544  0.1953
12927SOL    HW151254   1.970   4.206   3.070  0.3048  0.5760  0.6520
12927SOL    HW251255   2.060   4.222   3.205 -1.3038  1.9883  1.5860
12928SOL     OW51256   3.748   5.619   4.516  0.2660  1.0748  0.2572
12928SOL    HW151257   3.734   5.632   4.614  1.1300 -0.5064  0.6106
12928SOL    HW251258   3.842   5.643   4.492  0.4148  0.3027  0.0428
12929SOL     OW51259   6.680   6.580   6.231 -0.4507  0.4713 -0.9346
12929SOL    HW151260   6.743   6.516   6.276 -0.9362  0.3925 -0.3633
12929SOL    HW251261   6.603   6.529   6.192  0.0246  0.5265 -1.9636
12930SOL     OW51262   2.169   3.005   7.118 -0.0219  0.3093  0.2784
12930SOL    HW151263   2.097   3.064   7.083 -1.0552 -0.0953  1.6946
12930SOL    HW251264   2.152   2.984   7.214  0.3768 -2.2031 -0.1581
12931SOL     OW51265   0.897   7.784   3.800 -0.0716  0.1037  0.1396
12931SOL    HW151266   0.864   7.725   3.727  0.3391 -1.3031  1.0625
12931SOL    HW251267   0.996   7.769   3.813  0.1632  1.4463 -0.0294
12932SOL     OW51268   4.896   1.589   8.330  0.2334 -0.3430  0.2643
12932SOL    HW151269   4.804   1.562   8.358 -0.5718 -0.4796 -2.4549
12932SOL    HW251270   4.907   1.688   8.344 -0.2761 -0.3373  0.6563
12933SOL     OW51271   3.722   2.029   5.442  0.4744 -0.4228  0.3570
12933SOL    HW151272   3.669   1.958   5.394  1.9191  0.1634 -2.2036
12933SOL    HW251273   3.804   1.989   5.481  1.4182 -0.1679 -1.3051
12934SOL     OW51274   1.795   2.709   8.786  0.0835  0.2100 -0.3614
12934SOL    HW151275   1.806   2.800   8.827  0.8665  0.2517 -0.6504
12934SOL    HW251276   1.706   2.702   8.742 -0.1898  0.6555  0.1156
12935SOL     OW51277   4.012   1.898   0.318 -0.1237  0.0876  0.4280
12935SOL    HW151278   4.025   1.997   0.318  0.3868  0.0457 -1.4518
12935SOL    HW251279   3.918   1.877   0.344 -0.2290  1.0750  0.8635
12936SOL     OW51280   8.139   3.518   8.614 -0.0514  0.2687  0.0234
12936SOL    HW151281   8.214   3.583   8.619  0.2244 -0.1304  1.2296
12936SOL    HW251282   8.134   3.466   8.700 -1.8008  0.4081  0.0188
12937SOL     OW51283   5.982   7.138   3.296 -0.4749 -0.5363  0.1806
12937SOL    HW151284   5.977   7.237   3.283  0.5585 -0.6044 -0.7896
12937SOL    HW251285   6.069   7.114   3.338  0.5953 -1.3004 -2.3762
12938SOL     OW51286   0.026   7.159   8.192  0.2150  1.0234  0.4314
12938SOL    HW151287  -0.027   7.177   8.109  1.3533 -4.0828 -1.6679
12938SOL    HW251288  -0.034   7.122   8.263  0.2023 -0.9881 -0.5678
12939SOL     OW51289   3.082   8.749   6.286 -0.1802  0.0524 -0.7575
12939SOL    HW151290   3.135   8.720   6.365 -1.9500 -1.2486 -0.0039
12939SOL    HW251291   3.046   8.841   6.302 -0.6455 -0.2600  0.0236
12940SOL     OW51292   7.701   7.014   7.043 -0.3289 -0.0275 -0.3569
12940SOL    HW151293   7.686   7.111   7.060 -1.3170 -0.2801  0.3193
12940SOL    HW251294   7.779   6.983   7.097 -1.2242 -0.0197  1.0000
12941SOL     OW51295   0.795   8.437   2.631  0.2945 -0.7159 -0.0223
12941SOL    HW151296   0.800   8.399   2.723  2.9848 -1.0328 -0.2487
12941SOL    HW251297   0.758   8.530   2.635  1.0204 -0.4846  1.4683
12942SOL     OW51298   3.124   6.275   5.208 -0.2561 -0.3453 -0.0985
12942SOL    HW151299   3.042   6.329   5.189 -0.6670 -0.5544  1.0365
12942SOL    HW251300   3.195   6.298   5.141 -1.1886 -0.0610 -1.0026
12943SOL     OW51301   0.918   6.229   5.260  0.5539  0.2068  0.0238
12943SOL    HW151302   0.948   6.163   5.329  1.4283  0.0348 -0.5070
12943SOL    HW251303   0.847   6.288   5.298  0.8518 -0.0511  0.9893
12944SOL     OW51304   3.591   3.628   8.540 -0.4449  0.5010 -0.5883
12944SOL    HW151305   3.537   3.553   8.504  0.5882 -0.1964 -0.6950
12944SOL    HW251306   3.575   3.710   8.485 -0.9874  0.1645 -0.9315
12945SOL     OW51307   2.313   0.744   6.112 -0.0316 -0.3654 -0.4078
12945SOL    HW151308   2.252   0.720   6.187  0.4436 -1.3783 -0.3302
12945SOL    HW251309   2.262   0.746   6.026 -0.2178 -1.0543 -0.3200
12946SOL     OW51310   5.621   6.909   6.365  0.2220 -0.4410  0.0782
12946SOL    HW151311   5.658   6.976   6.300 -0.7503  1.5271  1.5189
12946SOL    HW251312   5.550   6.855   6.320 -0.3745  0.8401 -0.5357
12947SOL     OW51313   5.811   6.627   3.255 -0.0738  0.2326 -0.8722
12947SOL    HW151314   5.884   6.695   3.244  1.9127 -1.2426  2.4544
12947SOL    HW251315   5.736   6.667   3.308 -1.1657  1.3288 -3.1657
12948SOL     OW51316   2.629   5.167   6.387 -0.3716  0.2825 -0.2049
12948SOL    HW151317   2.694   5.186   6.460  1.0001 -0.6181 -1.1729
12948SOL    HW251318   2.606   5.253   6.340  1.5594  0.3738 -1.0364
12949SOL     OW51319   0.670   0.747   6.916 -0.0559  0.0501 -0.1637
12949SOL    HW151320   0.705   0.840   6.908  0.9749 -0.2801  0.3650
12949SOL    HW251321   0.668   0.720   7.012 -1.4159 -0.0748 -0.2220
12950SOL     OW51322   0.325   6.514   6.637  0.3838  0.0102  0.8103
12950SOL    HW151323   0.319   6.610   6.663 -0.7017  0.3164 -0.4898
12950SOL    HW251324   0.331   6.507   6.537 -2.7096 -1.3277  0.6492
12951SOL     OW51325   0.571   7.707   4.491 -0.2700 -0.0965  0.0276
12951SOL    HW151326   0.660   7.690   4.450 -0.7693 -0.0218 -1.0856
12951SOL    HW251327   0.563   7.804   4.515 -0.1224 -0.0683 -0.0386
12952SOL     OW51328   3.329   0.568   6.517 -0.0454  0.0981  0.0718
12952SOL    HW151329   3.345   0.606   6.425  1.6979 -0.4247  0.1381
12952SOL    HW251330   3.258   0.498   6.513  1.1652 -1.0896 -1.1971
12953SOL     OW51331   7.843   5.962   0.835  0.4631  0.4936 -0.1608
12953SOL    HW151332   7.887   5.875   0.813 -0.8436  0.3712 -2.4998
12953SOL    HW251333   7.758   5.944   0.885 -0.8549  0.2571 -2.4091
12954SOL     OW51334   5.286   5.246   2.757 -0.9274 -0.6642  0.1201
12954SOL    HW151335   5.326   5.161   2.725 -0.8634  0.1066 -1.9160
12954SOL    HW251336   5.213   5.275   2.694 -0.9759  0.7612  0.8057
12955SOL     OW51337   3.170   1.032   4.735  0.7795 -0.2285  0.1670
12955SOL    HW151338   3.194   0.941   4.768 -1.9527 -1.2776 -0.6338
12955SOL    HW251339   3.087   1.027   4.679  0.1401  2.8598  0.7345
12956SOL     OW51340   4.173   8.462   5.981 -0.5944  0.1436 -0.2213
12956SOL    HW151341   4.148   8.451   5.885  0.8356 -1.4303 -0.4245
12956SOL    HW251342   4.106   8.414   6.038  0.3059 -1.6030 -0.6100
12957SOL     OW51343   3.176   5.322   4.227  0.0495 -0.3959  0.0348
12957SOL    HW151344   3.159   5.238   4.279  0.0652 -0.7797 -0.5715
12957SOL    HW251345   3.105   5.389   4.247  0.6634 -0.1268  1.3990
12958SOL     OW51346   4.498   1.528   5.105 -0.2836 -0.4809 -0.4434
12958SOL    HW151347   4.444   1.595   5.156 -1.2119  0.3234 -2.4141
12958SOL    HW251348   4.480   1.539   5.007 -0.1486 -3.3379 -0.8242
12959SOL     OW51349   0.102   8.196   0.490  0.0888  0.5984 -0.2172
12959SOL    HW151350   0.137   8.205   0.397 -0.5319  1.4417 -0.3765
12959SOL    HW251351   0.134   8.273   0.545  0.9379 -0.2076  0.4236
12960SOL     OW51352   8.605   6.823   1.766 -0.1862  0.4930  0.3077
12960SOL    HW151353   8.691   6.794   1.724 -0.2307 -1.8783  1.7653
12960SOL    HW251354   8.588   6.919   1.744  3.0776  1.1512  0.4137
12961SOL     OW51355   6.184   6.397   2.000  0.4876 -0.5941 -0.0840
12961SOL    HW151356   6.201   6.299   1.997  0.6944 -0.5425 -0.9230
12961SOL    HW251357   6.261   6.444   2.043  1.6502 -0.5465 -2.1532
12962SOL     OW51358   0.582   8.221   2.527 -0.4657  0.7305 -0.3171
12962SOL    HW151359   0.659   8.264   2.575 -0.5793  1.3630 -0.6898
12962SOL    HW251360   0.590   8.238   2.429 -0.3714 -0.3435 -0.4935
12963SOL     OW51361   4.192   6.240   0.833  0.6593  1.5569 -0.7215
12963SOL    HW151362   4.175   6.142   0.830  2.1546  1.3126 -2.0173
12963SOL    HW251363   4.115   6.289   0.792 -1.5421  1.1728  2.7298
12964SOL     OW51364   3.374   1.643   0.128 -0.2598  0.1479  0.1000
12964SOL    HW151365   3.422   1.555   0.131  1.0036  0.8655  2.3528
12964SOL    HW251366   3.280   1.631   0.160  0.5755 -0.0413  2.6600
12965SOL     OW51367   7.914   6.409   1.186  0.1695 -0.2222  0.0632
12965SOL    HW151368   7.816   6.421   1.202  0.4711  1.3442  0.8311
12965SOL    HW251369   7.962   6.409   1.274  1.0289  0.7280 -0.3879
12966SOL     OW51370   8.898   6.251   7.651 -0.4707  0.2457 -0.5306
12966SOL    HW151371   8.824   6.313   7.678 -0.2979  0.1933  0.0632
12966SOL    HW251372   8.878   6.159   7.684  0.6717  0.5606  1.1273
12967SOL     OW51373   2.906   7.141   0.016  0.0053 -0.5390  0.3514
12967SOL    HW151374   2.914   7.226  -0.036  0.7988 -0.7505  0.1241
12967SOL    HW251375   2.814   7.103   0.004 -0.7656  0.9296  1.4629
12968SOL     OW51376   8.414   2.515   0.699  0.2612 -0.0045  0.5376
12968SOL    HW151377   8.330   2.557   0.665 -0.0590 -1.9594 -1.1883
12968SOL    HW251378   8.473   2.491   0.622  1.3832 -0.7527  1.6117
12969SOL     OW51379   3.051   6.240   4.436  0.6163 -0.0823 -0.1026
12969SOL    HW151380   3.146   6.233   4.405  0.7509 -2.1519  0.6522
12969SOL    HW251381   2.992   6.196   4.369  0.3311  0.1012  0.0300
12970SOL     OW51382   1.831   1.890   0.375 -0.1857  0.2638  0.1687
12970SOL    HW151383   1.882   1.854   0.297  1.1600  0.5985  0.8766
12970SOL    HW251384   1.878   1.864   0.460 -1.2425  0.5128  0.8324
12971SOL     OW51385   3.425   6.916   1.469 -0.2861  0.0808  0.1939
12971SOL    HW151386   3.359   6.889   1.400  0.2266 -0.9665  0.1016
12971SOL    HW251387   3.433   6.844   1.538  0.3364  0.4440  0.5115
12972SOL     OW51388   4.749   5.955   1.173 -0.1433 -0.0152 -0.7251
12972SOL    HW151389   4.832   5.901   1.154 -0.6886 -1.4198  0.7359
12972SOL    HW251390   4.770   6.024   1.242 -0.4657 -1.1792  0.5598
12973SOL     OW51391   0.121   1.021   6.546  0.1641  0.1608  0.1117
12973SOL    HW151392   0.196   0.973   6.501  0.6427  1.1046 -0.1175
12973SOL    HW251393   0.060   0.955   6.589 -0.4555 -0.7738 -2.1307
12974SOL     OW51394   4.420   4.616   1.576  0.2384 -0.2788 -0.2441
12974SOL    HW151395   4.437   4.676   1.497 -0.7599 -1.8294 -1.6680
12974SOL    HW251396   4.492   4.548   1.582  0.1111 -0.3964 -0.0462
12975SOL     OW51397   1.359   3.429   3.610  0.0315 -0.2581  0.2484
12975SOL    HW151398   1.316   3.519   3.614 -1.3155 -0.7214 -2.2909
12975SOL    HW251399   1.455   3.435   3.637 -0.3594  1.7037  1.2530
12976SOL     OW51400   5.404   7.390   5.263 -0.3514  0.1422  0.3351
12976SOL    HW151401   5.428   7.484   5.288 -1.0483  0.0785  1.3108
12976SOL    HW251402   5.377   7.340   5.346 -0.7124 -0.6944 -0.2810
12977SOL     OW51403   1.447   5.611   6.103 -0.1432 -0.1480  0.0770
12977SOL    HW151404   1.470   5.595   6.007 -1.4993 -0.4966 -0.1885
12977SOL    HW251405   1.413   5.526   6.144 -0.3066  0.1990  0.6687
12978SOL     OW51406   2.147   6.154   4.939  1.1037 -0.7306  0.3752
12978SOL    HW151407   2.161   6.247   4.973  0.0643  0.1828 -1.5668
12978SOL    HW251408   2.067   6.113   4.982  0.5594 -0.0743 -0.0118
12979SOL     OW51409   2.370   5.866   6.378  0.3790  0.6009 -0.2409
12979SOL    HW151410   2.412   5.800   6.316  1.4785  0.2503  0.8649
12979SOL    HW251411   2.308   5.818   6.439  2.5493  0.2803  1.7765
12980SOL     OW51412   1.149   1.775   7.666  0.3446  0.1671  0.3320
12980SOL    HW151413   1.131   1.872   7.648  0.2152 -0.1992 -1.6306
12980SOL    HW251414   1.164   1.762   7.764 -1.9596  1.7802  0.9382
12981SOL     OW51415   0.456   6.969   8.934 -0.5822 -0.1408  0.0845
12981SOL    HW151416   0.534   6.978   8.872 -0.9122 -0.4572 -0.3726
12981SOL    HW251417   0.489   6.949   9.026  0.1125  3.4460  0.6954
12982SOL     OW51418   2.695   8.827   5.613 -0.2694 -0.4239  0.2515
12982SOL    HW151419   2.719   8.868   5.525 -0.0653 -0.3927  0.3204
12982SOL    HW251420   2.693   8.898   5.684 -1.6866 -0.2266  0.0387
12983SOL     OW51421   2.261   7.842   5.913  1.2002 -0.2577  0.2085
12983SOL    HW151422   2.227   7.772   5.975 -1.7299 -0.3429 -1.4379
12983SOL    HW251423   2.284   7.801   5.824 -1.0469  0.9071 -0.9410
12984SOL     OW51424   1.289   4.597   0.568 -0.0834 -0.4678 -0.5958
12984SOL    HW151425   1.385   4.623   0.579 -0.1865  1.1418 -3.0795
12984SOL    HW251426   1.230   4.672   0.597 -0.6184 -1.4588  0.9380
12985SOL     OW51427   4.786   2.796   2.346 -0.4556  0.5286 -0.1163
12985SOL    HW151428   4.848   2.719   2.362 -1.4454 -0.0832  0.9003
12985SOL    HW251429   4.695   2.760   2.324 -0.6020  1.4171 -1.0126
12986SOL     OW51430   4.199   5.620   6.151  0.3053 -0.3864 -1.1901
12986SOL    HW151431   4.104   5.645   6.169  1.1734  2.0676  0.4028
12986SOL    HW251432   4.203   5.550   6.080 -2.7173 -1.2144 -0.6058
12987SOL     OW51433   2.837   5.264   0.438  0.0051 -0.2538 -0.6866
12987SOL    HW151434   2.784   5.188   0.476 -1.4124  0.4042 -1.3087
12987SOL    HW251435   2.918   5.228   0.392 -0.5112 -1.3781 -0.7440
12988SOL     OW51436   6.789   5.940   0.954  0.0381 -0.4627 -0.7077
12988SOL    HW151437   6.795   6.023   1.010  0.0377  0.4361 -2.0155
12988SOL    HW251438   6.730   5.873   1.000  0.8023 -0.1093  0.8053
12989SOL     OW51439   2.556   6.183   1.110  0.3911  0.0321 -0.0465
12989SOL    HW151440   2.623   6.112   1.088 -0.2399 -1.0521  1.4224
12989SOL    HW251441   2.469   6.140   1.136 -1.0386  1.4132 -2.3227
12990SOL     OW51442   7.445   8.823   2.086 -0.2407 -0.0787  0.2194
12990SOL    HW151443   7.422   8.765   2.007  0.9450  0.5718 -0.6107
12990SOL    HW251444   7.402   8.786   2.168 -0.5878 -1.3837 -0.5428
12991SOL     OW51445   3.240   7.783   6.601 -0.5331 -0.5371  0.1711
12991SOL    HW151446   3.230   7.856   6.669 -2.2593  0.9219 -1.6252
12991SOL    HW251447   3.160   7.723   6.605 -1.5746  0.6831 -1.8759
12992SOL     OW51448   5.644   8.402   0.975  0.3239 -0.1619  0.2304
12992SOL    HW151449   5.623   8.306   0.995  1.6470 -0.3489  0.7528
12992SOL    HW251450   5.691   8.443   1.053 -1.0913  1.1908  0.3934
12993SOL     OW51451   6.982   4.012   0.970 -0.4763  0.3737 -0.4345
12993SOL    HW151452   6.929   4.021   1.054 -2.1212 -0.8364 -1.3055
12993SOL    HW251453   7.069   3.968   0.991 -0.0088  1.8905  0.9307
12994SOL     OW51454   6.553   7.606   7.714 -0.3022 -0.6178 -0.3532
12994SOL    HW151455   6.484   7.584   7.783  1.1772 -0.0054  1.3581
12994SOL    HW251456   6.529   7.692   7.668  0.1944  0.5154  1.4569
12995SOL     OW51457   2.461   8.026   5.297 -0.0092 -0.2954 -0.3513
12995SOL    HW151458   2.556   8.016   5.268  0.4859 -0.5369  1.2798
12995SOL    HW251459   2.458   8.033   5.397 -1.6758  0.1084 -0.4238
12996SOL     OW51460   4.800   0.292   1.227  0.5514  0.4259  0.0351
12996SOL    HW151461   4.887   0.243   1.238  0.5473  0.3358 -0.3289
12996SOL    HW251462   4.735   0.260   1.296  0.6646  0.1745  0.0263
12997SOL     OW51463   1.713   7.188   7.981 -0.1914 -0.3980  0.3485
12997SOL    HW151464   1.646   7.213   8.051 -0.6492  1.0487 -0.5764
12997SOL    HW251465   1.784   7.131   8.022 -2.1687 -2.2874  1.2779
12998SOL     OW51466   4.280   8.025   7.260  0.1628 -0.6328  0.5162
12998SOL    HW151467   4.296   8.006   7.163 -4.6093 -2.8720  0.0267
12998SOL    HW251468   4.291   8.123   7.276 -2.2774  0.3723 -3.1323
12999SOL     OW51469   6.098   8.154   7.004  0.0863  0.3776 -0.2249
12999SOL    HW151470   6.179   8.132   7.059  0.5706  1.3276 -0.5441
12999SOL    HW251471   6.034   8.208   7.058 -0.1090  0.0646 -0.1381
13000SOL     OW51472   0.838   8.644   2.990 -0.1259 -0.1611 -0.1856
13000SOL    HW151473   0.748   8.686   2.998 -0.3540 -0.9695  1.7468
13000SOL    HW251474   0.828   8.546   2.973  0.3968 -0.1884 -0.3725
13001SOL     OW51475   6.440   8.317   7.019  0.1142 -0.0797  0.0705
13001SOL    HW151476   6.524   8.349   7.062 -0.2905  1.4877 -0.2827
13001SOL    HW251477   6.365   8.323   7.086  0.4227 -2.3089  0.6683
13002SOL     OW51478   4.708   8.300   0.482  0.5717  0.1045 -0.0500
13002SOL    HW151479   4.635   8.264   0.540 -0.1159  1.6354  0.0760
13002SOL    HW251480   4.728   8.235   0.409 -0.9801 -0.3208 -0.1227
13003SOL     OW51481   7.862   0.014   6.573  0.6874  0.3887  0.3878
13003SOL    HW151482   7.869  -0.084   6.554 -0.3155  0.3473  0.1631
13003SOL    HW251483   7.939   0.043   6.629  1.0448 -0.5107  0.3715
13004SOL     OW51484   8.507   0.437   1.347  0.0853  0.3694 -0.1894
13004SOL    HW151485   8.500   0.506   1.419  1.3539 -0.3506  0.6341
13004SOL    HW251486   8.431   0.373   1.356  0.1104  0.4113  0.3675
13005SOL     OW51487   4.098   3.053   5.851  0.1463  0.1186 -0.3571
13005SOL    HW151488   4.067   2.979   5.791 -0.7408 -1.6032  2.1428
13005SOL    HW251489   4.049   3.137   5.827  0.6997 -0.2218 -2.8162
13006SOL     OW51490   1.744   6.486   2.935  0.0411 -0.2109  0.3219
13006SOL    HW151491   1.767   6.400   2.979 -0.5237 -1.2818 -1.4119
13006SOL    HW251492   1.648   6.485   2.906  0.1858  0.7649 -0.2338
13007SOL     OW51493   1.137   5.450   1.909  0.0224 -0.2120  0.1277
13007SOL    HW151494   1.230   5.439   1.873 -0.0375 -0.7473  0.1327
13007SOL    HW251495   1.141   5.462   2.009  0.1187  0.2459  0.0686
13008SOL     OW51496   0.497   3.039   3.147  0.1252 -0.3326  0.2593
13008SOL    HW151497   0.460   2.946   3.142  0.0192 -0.2446 -0.7058
13008SOL    HW251498   0.565   3.051   3.075  1.9555 -0.4523  1.9438
13009SOL     OW51499   2.678   5.944   2.626 -0.3582 -0.1725  0.2935
13009SOL    HW151500   2.743   5.922   2.553 -1.3558 -0.8502 -0.4125
13009SOL    HW251501   2.721   6.006   2.691  0.8018 -0.1492 -0.4714
13010SOL     OW51502   7.430   6.789   8.441 -0.1711 -0.0128 -0.3155
13010SOL    HW151503   7.419   6.882   8.407 -3.2852 -0.7090 -1.2754
13010SOL    HW251504   7.356   6.768   8.505  1.8312 -1.0581  1.7381
13011SOL     OW51505   3.041   3.758   5.015  0.1782  0.1601 -0.1558
13011SOL    HW151506   3.106   3.734   5.086  0.2658  1.1352  0.1062
13011SOL    HW251507   3.002   3.675   4.975 -1.1540 -0.3918  2.1829
13012SOL     OW51508   1.749   5.976   8.418 -0.0604  0.1589  0.0235
13012SOL    HW151509   1.781   5.997   8.510  1.1133  0.3314 -0.4196
13012SOL    HW251510   1.827   5.962   8.357 -0.8232  0.4681 -1.0459
13013SOL     OW51511   1.360   4.661   1.382 -0.5835 -0.4486 -0.2144
13013SOL    HW151512   1.408   4.590   1.433 -1.5788 -1.3136 -0.4670
13013SOL    HW251513   1.401   4.670   1.290  2.7659  2.7392  1.4237
13014SOL     OW51514   1.908   0.517   8.494 -0.2947  0.0123 -0.3327
13014SOL    HW151515   1.973   0.480   8.428 -0.4740  0.0878 -0.5550
13014SOL    HW251516   1.843   0.445   8.521  0.0128 -0.1209  0.0540
13015SOL     OW51517   7.948   0.789   6.996 -0.1735  0.1552 -0.6654
13015SOL    HW151518   7.859   0.827   7.021 -0.1258  0.1247 -0.4516
13015SOL    HW251519   8.017   0.822   7.060  0.0742  0.6520 -1.1787
13016SOL     OW51520   5.807   6.470   1.993  0.0210  0.1958  0.0690
13016SOL    HW151521   5.821   6.550   2.051 -0.4058  0.8956 -0.7669
13016SOL    HW251522   5.777   6.392   2.049  2.3806  0.0452  1.1659
13017SOL     OW51523   4.579   7.435   1.272 -0.1824 -0.0692  0.1150
13017SOL    HW151524   4.650   7.390   1.217 -0.2904  0.2907 -0.3262
13017SOL    HW251525   4.591   7.534   1.267 -2.3346  0.1248 -2.2084
13018SOL     OW51526   4.257   8.298   0.910  0.1237  0.4870 -0.9338
13018SOL    HW151527   4.277   8.206   0.877  0.7872  0.3202 -0.0658
13018SOL    HW251528   4.311   8.365   0.858  2.5462  0.0912  0.9839
13019SOL     OW51529   0.544   4.616   4.647  0.6613  0.4244  0.1077
13019SOL    HW151530   0.484   4.569   4.582  0.4854 -0.1961  0.7096
13019SOL    HW251531   0.605   4.549   4.689  1.0828  0.8971  0.2511
13020SOL     OW51532   2.758   4.170   1.344  0.0479  0.0858 -0.1740
13020SOL    HW151533   2.851   4.134   1.338 -0.8354 -2.3920  0.6659
13020SOL    HW251534   2.698   4.117   1.285 -1.2973  0.0935  1.1724
13021SOL     OW51535   1.552   1.490   1.207 -0.2754 -0.5048 -0.4342
13021SOL    HW151536   1.558   1.402   1.253 -1.3702  0.0101  0.7254
13021SOL    HW251537   1.603   1.559   1.260  0.6190 -0.4367 -1.3587
13022SOL     OW51538   4.694   5.784   6.199 -0.1872  0.0015 -0.3501
13022SOL    HW151539   4.658   5.736   6.119  0.3309  0.9070 -1.1441
13022SOL    HW251540   4.636   5.767   6.278 -1.3728  0.0426 -1.1993
13023SOL     OW51541   2.794   1.980   2.234 -0.3884  0.8815  0.1701
13023SOL    HW151542   2.868   2.024   2.184  0.1132  2.6016  2.3788
13023SOL    HW251543   2.712   2.037   2.229 -1.0614 -0.1355 -0.7276
13024SOL     OW51544   5.909   3.452   1.487  0.4009  0.0536 -0.2777
13024SOL    HW151545   5.938   3.443   1.392  1.3514  2.7048 -0.2598
13024SOL    HW251546   5.967   3.394   1.544  0.3333 -0.9485 -1.1982
13025SOL     OW51547   1.173   0.554   1.485 -0.1990 -0.2594 -0.2084
13025SOL    HW151548   1.241   0.583   1.417 -1.4943  0.9223 -1.0279
13025SOL    HW251549   1.171   0.620   1.560  0.3330 -0.8879  0.3637
13026SOL     OW51550   5.698   7.896   1.169 -0.0240  0.0771  0.3426
13026SOL    HW151551   5.733   7.832   1.100 -0.5450  0.4778 -0.2974
13026SOL    HW251552   5.769   7.962   1.193  0.3781 -0.4803  0.6880
13027SOL     OW51553   6.474   5.995   3.406  0.4899  0.7438 -0.2392
13027SOL    HW151554   6.503   5.904   3.435 -1.2405  0.6550  1.3157
13027SOL    HW251555   6.549   6.041   3.358  2.5210 -0.1778  1.9631
13028SOL     OW51556   5.637   4.861   1.171  0.1775  0.1853 -0.8201
13028SOL    HW151557   5.618   4.868   1.269 -0.7467  0.6623 -1.0257
13028SOL    HW251558   5.672   4.769   1.151 -0.2152 -0.1228 -0.1305
13029SOL     OW51559   6.262   4.340   0.415  0.2616  0.4358  0.5746
13029SOL    HW151560   6.340   4.279   0.403 -0.2939  0.0960 -1.5376
13029SOL    HW251561   6.288   4.433   0.390 -0.0635  0.2806 -0.3558
13030SOL     OW51562   0.111   8.216   0.204 -0.4368  0.0137 -0.0071
13030SOL    HW151563   0.129   8.160   0.123 -1.7664 -0.3381 -0.0637
13030SOL    HW251564   0.145   8.309   0.188  0.5799 -0.4158 -0.4127
13031SOL     OW51565   1.489   3.891   2.677 -0.0791  0.3075  0.0075
13031SOL    HW151566   1.554   3.874   2.603 -0.9063  0.5177 -0.7761
13031SOL    HW251567   1.403   3.923   2.638 -1.2952 -1.8264  0.8813
13032SOL     OW51568   1.854   8.734   7.042 -0.0530  0.4181 -0.2525
13032SOL    HW151569   1.801   8.676   6.981 -0.4667  0.2940  0.2175
13032SOL    HW251570   1.820   8.828   7.036 -0.2466  0.3622 -0.0424
13033SOL     OW51571   7.406   5.479   5.185 -0.2560  0.0188 -0.3622
13033SOL    HW151572   7.357   5.514   5.105 -2.3844  0.1410  0.9429
13033SOL    HW251573   7.504   5.498   5.176 -0.4940  0.1342 -2.8647
13034SOL     OW51574   2.913   3.388   1.401 -0.0971  0.2525  0.1237
13034SOL    HW151575   2.905   3.306   1.458 -1.5617  0.1391 -0.2397
13034SOL    HW251576   2.941   3.361   1.309 -2.6979 -0.0581 -0.5883
13035SOL     OW51577   6.314   8.129   7.191 -0.7571  0.5545  0.3446
13035SOL    HW151578   6.301   8.138   7.290  0.7590 -1.2805  0.7249
13035SOL    HW251579   6.406   8.094   7.172 -2.2304 -2.5243 -1.5351
13036SOL     OW51580   0.631   3.309   4.930  0.1782 -0.6366 -0.2624
13036SOL    HW151581   0.670   3.368   5.001 -1.6751 -0.8731  0.9926
13036SOL    HW251582   0.650   3.348   4.840  1.4136  0.3733  0.4104
13037SOL     OW51583   4.308   4.596   2.173 -0.3023 -0.1177  0.0156
13037SOL    HW151584   4.260   4.556   2.251  0.6232 -0.7165  0.2795
13037SOL    HW251585   4.260   4.570   2.089 -0.5809 -0.5231  0.2942
13038SOL     OW51586   7.402   0.321   7.267  0.2857 -0.0846 -0.1581
13038SOL    HW151587   7.389   0.226   7.241 -0.8602 -0.2156  0.8394
13038SOL    HW251588   7.407   0.378   7.186 -3.3656 -0.4443 -0.7174
13039SOL     OW51589   7.251   6.610   7.789  0.2785  0.4681  0.3053
13039SOL    HW151590   7.280   6.698   7.827 -0.2841  0.0990  1.6074
13039SOL    HW251591   7.184   6.626   7.717  1.2412  1.1693 -0.4464
13040SOL     OW51592   5.063   6.593   4.593  0.0629 -0.3773 -0.7753
13040SOL    HW151593   4.966   6.571   4.582  0.0760 -1.8561  1.8100
13040SOL    HW251594   5.118   6.512   4.577  0.6259 -0.4061  1.1656
13041SOL     OW51595   4.273   0.586   7.760  0.0523  0.1627 -0.2542
13041SOL    HW151596   4.247   0.531   7.840  1.5020 -1.2719 -0.7546
13041SOL    HW251597   4.232   0.677   7.768 -0.3640 -0.1765  1.8020
13042SOL     OW51598   5.124   8.308   1.460  0.0303  0.8393  0.0050
13042SOL    HW151599   5.047   8.357   1.418 -0.5073  0.1467  0.1742
13042SOL    HW251600   5.095   8.267   1.546  0.4332  0.1202 -0.1926
13043SOL     OW51601   2.718   6.803   6.740 -0.1645 -0.9528 -0.3890
13043SOL    HW151602   2.803   6.854   6.728 -0.3086 -0.7088 -0.3851
13043SOL    HW251603   2.735   6.719   6.792  0.0771 -0.9176 -0.4163
13044SOL     OW51604   3.531   1.638   3.984  0.2604  0.1797  0.4132
13044SOL    HW151605   3.443   1.593   3.992  0.1084  0.8149  2.7451
13044SOL    HW251606   3.517   1.736   3.969  0.5870 -0.0391 -1.4200
13045SOL     OW51607   8.048   7.700   1.088 -0.0118  0.3274 -0.3056
13045SOL    HW151608   8.017   7.606   1.104 -0.1136  0.2292 -1.0502
13045SOL    HW251609   8.012   7.760   1.160 -3.3820  0.5240 -2.0601
13046SOL     OW51610   3.448   4.223   4.131 -0.3752 -0.1009 -0.7773
13046SOL    HW151611   3.381   4.149   4.127  0.6624 -1.0937 -0.2648
13046SOL    HW251612   3.539   4.184   4.149 -0.1751  1.4910  1.9324
13047SOL     OW51613   0.508   2.834   3.866  0.9175 -0.8464 -0.9316
13047SOL    HW151614   0.604   2.861   3.852  1.1272 -0.4577  1.0668
13047SOL    HW251615   0.500   2.784   3.953 -0.7758 -0.4220 -0.8270
13048SOL     OW51616   3.311   2.329   6.354 -0.3599  0.0700  0.6382
13048SOL    HW151617   3.409   2.341   6.372 -0.4244  1.1929  0.2443
13048SOL    HW251618   3.294   2.235   6.326  0.5494 -0.2371  1.0826
13049SOL     OW51619   4.455   7.405   2.155  0.0603 -0.2921  0.0981
13049SOL    HW151620   4.451   7.477   2.087 -1.9138 -0.8291 -0.3946
13049SOL    HW251621   4.419   7.439   2.242 -2.3060 -1.0837 -0.5384
13050SOL     OW51622   4.463   8.156   0.336 -0.1323 -0.1107  0.2010
13050SOL    HW151623   4.407   8.232   0.301  2.0622  1.1976 -0.5825
13050SOL    HW251624   4.490   8.097   0.260  0.7229  0.0561  0.3803
13051SOL     OW51625   0.927   3.476   0.230 -0.2248 -0.4798  0.6249
13051SOL    HW151626   1.013   3.427   0.239  0.1804 -0.5497 -2.8380
13051SOL    HW251627   0.855   3.427   0.278  1.4588 -0.8616  2.8512
13052SOL     OW51628   3.367   6.786   8.962  0.1489  0.1016  0.1245
13052SOL    HW151629   3.338   6.806   9.055  0.0833  0.5688  0.0015
13052SOL    HW251630   3.348   6.864   8.903  1.2335  0.2352 -0.0509
13053SOL     OW51631   1.955   5.526   7.863  0.4207 -0.2129 -0.2206
13053SOL    HW151632   2.048   5.491   7.849 -0.5808 -3.0326 -0.2831
13053SOL    HW251633   1.937   5.535   7.961  0.5552 -0.2280 -0.1939
13054SOL     OW51634   3.483   6.614   0.779 -0.0485  0.1176  0.5737
13054SOL    HW151635   3.462   6.518   0.798  1.7879 -0.3470  0.3283
13054SOL    HW251636   3.581   6.630   0.791 -0.2222  1.7993 -0.1022
13055SOL     OW51637   5.544   5.529   4.041 -0.5195  0.4169  0.4967
13055SOL    HW151638   5.573   5.459   4.107 -2.5592 -1.6502 -0.7169
13055SOL    HW251639   5.475   5.588   4.083 -1.5923 -0.7079  0.3482
13056SOL     OW51640   7.435   6.375   7.959  0.0052 -1.1731  0.2398
13056SOL    HW151641   7.347   6.368   7.914  0.2273 -0.9758 -0.2296
13056SOL    HW251642   7.437   6.457   8.016 -1.2940 -2.9223  2.8595
13057SOL     OW51643   7.785   4.519   8.328 -0.3681  0.1854 -0.1917
13057SOL    HW151644   7.804   4.436   8.275  0.8921  0.5660 -0.3566
13057SOL    HW251645   7.870   4.570   8.341 -1.3392  2.0349 -1.0610
13058SOL     OW51646   3.757   6.094   8.522  0.0735  0.3877 -0.0782
13058SOL    HW151647   3.843   6.141   8.542  0.0343  0.8990 -1.1149
13058SOL    HW251648   3.711   6.074   8.608  0.2096  2.0268  0.4037
13059SOL     OW51649   6.387   4.110   4.458 -0.0283 -0.4588  0.0624
13059SOL    HW151650   6.484   4.097   4.481  0.2027  0.2768 -0.4652
13059SOL    HW251651   6.344   4.021   4.444  0.1897 -0.8579  1.8478
13060SOL     OW51652   0.651   2.415   6.322 -0.4306 -0.1125 -0.2221
13060SOL    HW151653   0.586   2.474   6.368 -1.0352 -0.2618 -0.8635
13060SOL    HW251654   0.695   2.354   6.388 -0.4277  0.4738  0.3113
13061SOL     OW51655   2.604   1.479   0.565  0.2771  0.6444 -0.9062
13061SOL    HW151656   2.527   1.491   0.502 -1.2077  1.3832  1.0234
13061SOL    HW251657   2.628   1.567   0.605  1.3884  0.2109 -0.5900
13062SOL     OW51658   2.762   8.706   6.107  0.3931  0.2356 -0.0688
13062SOL    HW151659   2.778   8.771   6.033  0.5603  0.3261  0.0436
13062SOL    HW251660   2.804   8.742   6.191  0.8848 -0.2338 -0.1108
13063SOL     OW51661   4.955   7.803   0.214  0.3792 -0.4902 -0.0202
13063SOL    HW151662   4.946   7.716   0.164 -0.3720 -0.3514 -0.1276
13063SOL    HW251663   4.927   7.790   0.309 -1.9827  0.1750 -0.5932
13064SOL     OW51664   4.265   2.010   6.737  0.4498 -0.1292  0.2158
13064SOL    HW151665   4.261   2.094   6.682  0.4261 -0.8209 -0.8659
13064SOL    HW251666   4.197   1.945   6.703 -1.0910  0.2361  2.4804
13065SOL     OW51667   2.253   0.492   0.203 -0.5464  0.3074 -0.1039
13065SOL    HW151668   2.271   0.423   0.274 -1.4734  0.3838  0.2077
13065SOL    HW251669   2.156   0.514   0.202 -0.7833 -0.7616 -2.3947
13066SOL     OW51670   2.126   0.296   5.015  0.0153 -0.0847  0.2949
13066SOL    HW151671   2.146   0.198   5.007 -0.2507 -0.2049  1.0199
13066SOL    HW251672   2.032   0.308   5.046 -0.1285  0.4187 -0.3232
13067SOL     OW51673   0.919   2.717   3.453 -0.4065  0.3575 -0.1049
13067SOL    HW151674   0.937   2.624   3.486 -0.6345 -0.0952 -1.2441
13067SOL    HW251675   0.857   2.763   3.516  0.5757  0.1267  1.0559
13068SOL     OW51676   7.195   7.149   1.179  0.6753 -0.1835  0.0411
13068SOL    HW151677   7.136   7.102   1.245  0.7700  0.3093  0.4791
13068SOL    HW251678   7.259   7.084   1.140  0.3938 -0.5502  0.1872
13069SOL     OW51679   3.155   3.529   1.193  0.0607 -0.4924  0.1628
13069SOL    HW151680   3.124   3.507   1.286  1.7841  2.5326  1.5229
13069SOL    HW251681   3.247   3.492   1.180  0.2419  0.0165  0.0263
13070SOL     OW51682   1.367   5.657   7.718 -0.4278  0.0082 -0.0891
13070SOL    HW151683   1.267   5.657   7.721 -0.5966 -0.4406 -3.7717
13070SOL    HW251684   1.398   5.592   7.649  2.3406  1.7147 -0.5201
13071SOL     OW51685   4.517   0.225   4.017  0.0363 -0.1805  0.4615
13071SOL    HW151686   4.593   0.181   3.969  0.0754  0.5116 -0.1315
13071SOL    HW251687   4.536   0.227   4.115  1.5999  1.5213  0.1537
13072SOL     OW51688   5.148   5.661   2.872 -0.7080  0.4032 -0.4832
13072SOL    HW151689   5.182   5.755   2.885 -1.7054  0.6934  0.0727
13072SOL    HW251690   5.209   5.612   2.810  0.1553  1.2385 -0.3129
13073SOL     OW51691   0.328   4.148   0.570 -0.6545  0.0028  0.3717
13073SOL    HW151692   0.379   4.085   0.511 -2.0192 -0.4381 -0.3694
13073SOL    HW251693   0.340   4.122   0.666  0.4784 -0.1054  0.2051
13074SOL     OW51694   4.267   5.470   1.537 -0.5592  0.4144 -0.4036
13074SOL    HW151695   4.268   5.506   1.444  0.5341  0.6748 -0.2937
13074SOL    HW251696   4.337   5.516   1.592 -0.9979  0.0533  0.4653
13075SOL     OW51697   4.572   4.167   2.371 -0.1919  0.1007 -0.2385
13075SOL    HW151698   4.572   4.267   2.368  1.0263  0.2336  2.1473
13075SOL    HW251699   4.483   4.135   2.404  0.0806  0.5106  0.9163
13076SOL     OW51700   2.297   2.393   8.386 -0.2056 -0.3761  0.2935
13076SOL    HW151701   2.203   2.359   8.388 -0.6145  0.4570 -2.4477
13076SOL    HW251702   2.297   2.488   8.354  1.6148 -0.5559 -0.2866
13077SOL     OW51703   6.768   8.111   5.593  0.5718 -0.8230  0.8815
13077SOL    HW151704   6.814   8.199   5.606  3.0472 -2.1102  1.2061
13077SOL    HW251705   6.704   8.096   5.669  0.3691  0.5305  0.9987
13078SOL     OW51706   1.415   2.020   0.661 -0.0866  0.2709 -0.4652
13078SOL    HW151707   1.374   2.001   0.750 -1.3043  0.8687 -0.8859
13078SOL    HW251708   1.355   2.082   0.609  1.5437  1.4693 -0.9461
13079SOL     OW51709   7.681   0.221   2.188 -0.5444  0.6501  0.3665
13079SOL    HW151710   7.627   0.150   2.142  0.7867  0.3827 -0.8177
13079SOL    HW251711   7.660   0.221   2.286 -0.6469 -1.3047  0.3606
13080SOL     OW51712   5.639   6.488   8.099 -0.3114  0.0233  0.4135
13080SOL    HW151713   5.726   6.511   8.055 -0.2082 -1.7081 -0.3228
13080SOL    HW251714   5.592   6.418   8.046 -2.2558  1.0507  0.7118
13081SOL     OW51715   5.914   6.093   2.012 -0.0222 -0.1478 -0.6184
13081SOL    HW151716   6.013   6.105   2.027 -0.0462 -0.2377 -0.3712
13081SOL    HW251717   5.897   6.077   1.915  0.3661 -1.5618 -0.4712
13082SOL     OW51718   6.502   7.340   7.138  0.2881 -0.6990  0.0490
13082SOL    HW151719   6.575   7.332   7.207 -0.7416 -1.3290  1.0830
13082SOL    HW251720   6.439   7.412   7.164  1.1697  0.6586 -1.4647
13083SOL     OW51721   0.356   5.370   3.905  0.1143  0.7305 -0.3390
13083SOL    HW151722   0.390   5.434   3.974  2.1297 -0.8778  0.2118
13083SOL    HW251723   0.278   5.320   3.942  1.0173  0.0695  0.6944
13084SOL     OW51724   2.829   6.772   7.764 -0.3038  0.2386  0.0354
13084SOL    HW151725   2.812   6.710   7.687 -0.0734 -0.0550  0.2172
13084SOL    HW251726   2.796   6.730   7.849  2.7825 -1.1384  0.6695
13085SOL     OW51727   2.992   6.155   0.837  0.1030  0.2395  0.4292
13085SOL    HW151728   3.053   6.076   0.845  0.8359  0.8312  0.7204
13085SOL    HW251729   2.989   6.203   0.924 -1.4222 -0.2507  0.6569
13086SOL     OW51730   7.702   8.984   8.324 -0.1201 -0.0728  0.3709
13086SOL    HW151731   7.701   9.068   8.378 -0.1399 -0.6346  1.2458
13086SOL    HW251732   7.795   8.965   8.293 -0.0850  0.1706  0.3250
13087SOL     OW51733   1.456   7.981   2.657 -0.2699 -0.2620  0.0186
13087SOL    HW151734   1.490   8.003   2.749  0.4623 -1.3616  0.0100
13087SOL    HW251735   1.533   7.965   2.595 -0.7689 -0.0218 -0.6684
13088SOL     OW51736   2.688   4.440   4.088 -0.5925 -0.4465 -0.5309
13088SOL    HW151737   2.630   4.512   4.126 -2.1636 -1.3615 -1.1469
13088SOL    HW251738   2.693   4.363   4.153 -2.0364 -1.3674 -1.4798
13089SOL     OW51739   1.446   7.141   1.907  0.3102  0.2756 -0.3961
13089SOL    HW151740   1.476   7.056   1.864  3.2169  0.8111  0.4737
13089SOL    HW251741   1.492   7.218   1.864 -0.2006  1.1796  0.6487
13090SOL     OW51742   8.659   0.925   6.836  0.0308 -0.5006  0.2353
13090SOL    HW151743   8.618   0.852   6.891 -1.3179  0.9785  1.2604
13090SOL    HW251744   8.606   1.009   6.849  1.3890  0.5827 -1.1423
13091SOL     OW51745   2.652   8.659   3.254  0.6112  0.4803  0.1845
13091SOL    HW151746   2.658   8.620   3.163 -1.1900 -0.7235  0.5448
13091SOL    HW251747   2.561   8.640   3.292  0.6848  2.5851  1.4842
13092SOL     OW51748   3.832   7.862   4.554  0.6327 -0.0267 -0.1473
13092SOL    HW151749   3.917   7.871   4.607 -0.3282  1.1760  1.2109
13092SOL    HW251750   3.754   7.884   4.612 -0.5993 -0.7310 -1.5028
13093SOL     OW51751   1.850   4.129   5.722  0.8857  0.2135 -0.1582
13093SOL    HW151752   1.885   4.041   5.689  1.3595 -0.0526  1.0561
13093SOL    HW251753   1.788   4.114   5.799  0.0819  0.8739 -0.6607
13094SOL     OW51754   1.253   7.192   0.586 -0.4216 -0.3049 -0.0486
13094SOL    HW151755   1.182   7.133   0.625 -1.3915  0.4897 -0.5966
13094SOL    HW251756   1.342   7.146   0.593 -0.9860 -1.3104  0.6367
13095SOL     OW51757   3.479   8.409   7.516  0.3505  0.0592  0.1316
13095SOL    HW151758   3.538   8.400   7.597  1.5960 -1.7249 -0.9407
13095SOL    HW251759   3.533   8.391   7.434 -1.9942 -3.1611 -0.8059
13096SOL     OW51760   0.169   5.098   6.253 -0.6958  0.0109 -0.1528
13096SOL    HW151761   0.092   5.162   6.250 -2.0119 -1.4619  1.2956
13096SOL    HW251762   0.134   5.004   6.262  1.3034 -0.5823  1.7172
13097SOL     OW51763   2.535   5.137   4.097  0.7229 -0.2647  0.7216
13097SOL    HW151764   2.631   5.147   4.124  0.9863  0.6745 -0.5051
13097SOL    HW251765   2.505   5.043   4.115  2.5914 -1.2608 -1.0595
13098SOL     OW51766   5.945   2.084   8.100  0.1665  0.2118 -0.1876
13098SOL    HW151767   5.851   2.048   8.100  0.1964  0.1330 -0.5908
13098SOL    HW251768   5.999   2.038   8.170 -0.1340  0.3574  0.1431
13099SOL     OW51769   3.418   3.470   1.122 -0.0848 -0.1679  0.3152
13099SOL    HW151770   3.501   3.515   1.155 -1.1324  1.4091  0.8735
13099SOL    HW251771   3.441   3.382   1.082  1.6595 -0.5105  2.0100
13100SOL     OW51772   3.874   4.111   6.435 -0.0652 -0.2978  0.3810
13100SOL    HW151773   3.794   4.168   6.414  0.2029 -0.0364  0.0557
13100SOL    HW251774   3.878   4.094   6.533 -1.1026 -1.1836  0.2787
13101SOL     OW51775   6.548   3.008   2.873  0.4596  0.2265  0.3305
13101SOL    HW151776   6.595   2.957   2.802  0.6305  2.5357 -1.2629
13101SOL    HW251777   6.555   3.106   2.855 -3.8579  0.7202  0.7242
13102SOL     OW51778   0.010   8.532   0.891 -0.6386 -0.3454 -0.0934
13102SOL    HW151779  -0.007   8.614   0.835 -2.1299 -0.4008  0.2475
13102SOL    HW251780   0.046   8.459   0.833  3.7165  1.4576  0.1346
13103SOL     OW51781   5.529   1.620   2.469  0.5645 -0.3441  0.0986
13103SOL    HW151782   5.468   1.700   2.465 -0.9994 -1.5185  0.1621
13103SOL    HW251783   5.618   1.649   2.503 -0.0194  1.3619  0.2577
13104SOL     OW51784   4.523   2.217   3.695 -0.4861  0.6157  0.0695
13104SOL    HW151785   4.564   2.235   3.605 -3.0275  3.4587 -0.6029
13104SOL    HW251786   4.596   2.206   3.763  1.4394  0.9328 -1.8699
13105SOL     OW51787   6.261   8.327   7.915 -0.5347 -0.4994 -0.0607
13105SOL    HW151788   6.236   8.420   7.890  0.9481  0.1717  0.9075
13105SOL    HW251789   6.243   8.312   8.012  0.9828 -0.6180  0.2109
13106SOL     OW51790   2.605   4.397   2.266  0.0343  0.2184 -0.4990
13106SOL    HW151791   2.576   4.304   2.243  0.1585  0.1328 -0.3099
13106SOL    HW251792   2.698   4.411   2.233  0.7343 -0.3757  1.1946
13107SOL     OW51793   7.042   5.138   1.067 -0.0156  0.7162  0.4160
13107SOL    HW151794   7.052   5.232   1.101  1.2011  1.4918 -1.9892
13107SOL    HW251795   7.053   5.137   0.968 -2.6689 -1.6126  0.0722
13108SOL     OW51796   3.316   6.486   3.596  0.1755 -0.2721 -0.5609
13108SOL    HW151797   3.356   6.544   3.526 -1.3387 -0.5152 -1.6440
13108SOL    HW251798   3.303   6.394   3.560  1.6797 -1.0782  0.8414
13109SOL     OW51799   1.807   3.947   6.398 -0.0086 -0.6430  0.2105
13109SOL    HW151800   1.771   3.991   6.480  1.0199 -2.5618  1.7230
13109SOL    HW251801   1.900   3.978   6.382  0.0047 -0.7334  0.1148
13110SOL     OW51802   7.269   3.430   2.373 -0.8547 -0.0583 -0.1487
13110SOL    HW151803   7.277   3.331   2.364 -0.8360 -0.1454  0.7533
13110SOL    HW251804   7.219   3.467   2.295  1.2294 -0.4845 -1.7185
13111SOL     OW51805   4.441   6.565   6.909 -0.1118 -0.0589  0.1267
13111SOL    HW151806   4.487   6.604   6.829  1.7562  0.9310  1.6325
13111SOL    HW251807   4.426   6.637   6.977 -1.7394 -0.8732  0.6649
13112SOL     OW51808   2.138   0.010   8.656 -0.2866 -0.1079  0.3765
13112SOL    HW151809   2.044   0.037   8.637  0.0056 -0.6099 -1.9919
13112SOL    HW251810   2.138  -0.074   8.710 -1.2268 -0.5484 -0.2851
13113SOL     OW51811   8.805   8.275   7.504  0.1641 -0.5330 -0.4644
13113SOL    HW151812   8.725   8.323   7.542  0.9831 -0.9577  1.8572
13113SOL    HW251813   8.887   8.330   7.517  0.5208 -0.8455 -1.3257
13114SOL     OW51814   4.045   8.052   7.479  0.4451 -0.1863 -0.1824
13114SOL    HW151815   3.953   8.012   7.477  0.2595  0.2458 -0.6202
13114SOL    HW251816   4.112   7.981   7.459  0.2153 -0.5335  0.2778
13115SOL     OW51817   7.900   4.484   2.099 -0.0753 -0.0089  0.1624
13115SOL    HW151818   7.850   4.428   2.165 -0.0669 -4.3358 -3.2849
13115SOL    HW251819   7.843   4.502   2.020  1.6168  0.6165 -0.9549
13116SOL     OW51820   3.993   2.149   2.346  0.0561  0.5068  0.3485
13116SOL    HW151821   3.912   2.092   2.337  0.0953  0.7040 -1.4919
13116SOL    HW251822   4.004   2.178   2.441 -0.3806 -1.9038  1.1510
13117SOL     OW51823   4.325   6.163   8.691 -0.1349  0.2863 -0.0676
13117SOL    HW151824   4.256   6.152   8.619  0.6530  1.1857 -0.9642
13117SOL    HW251825   4.322   6.257   8.726  0.3924  0.2271  0.1378
13118SOL     OW51826   0.484   3.568   6.278  0.7845 -0.0742  0.0943
13118SOL    HW151827   0.466   3.594   6.183 -0.8786 -0.8197  0.1903
13118SOL    HW251828   0.421   3.617   6.338  0.8527 -0.6961  0.6777
13119SOL     OW51829   1.488   2.343   1.168 -0.1407  0.6413  0.3074
13119SOL    HW151830   1.463   2.261   1.117  1.3584 -0.3936  1.1883
13119SOL    HW251831   1.557   2.394   1.117 -1.4844  1.6740 -0.5065
13120SOL     OW51832   5.558   2.200   3.556 -0.7506  0.1679 -0.1279
13120SOL    HW151833   5.469   2.160   3.534 -0.6733 -0.9988  1.5470
13120SOL    HW251834   5.622   2.126   3.581 -0.0520  1.1961  1.1798
13121SOL     OW51835   7.457   8.282   0.055 -0.3303  0.6905 -0.0484
13121SOL    HW151836   7.510   8.199   0.041  0.6133  1.6419 -2.3772
13121SOL    HW251837   7.386   8.266   0.124  1.2279 -1.3776  1.1035
13122SOL     OW51838   6.170   2.859   1.773  0.8296  0.1928  0.7396
13122SOL    HW151839   6.264   2.893   1.781  0.4398  0.7173  3.5194
13122SOL    HW251840   6.167   2.763   1.801  0.5101  0.2350  0.8572
13123SOL     OW51841   1.799   4.388   5.627  0.4385  0.2372  0.1990
13123SOL    HW151842   1.887   4.425   5.600  0.0249  0.6689 -0.5656
13123SOL    HW251843   1.807   4.289   5.643  1.1855  0.3767  0.6991
13124SOL     OW51844   8.315   5.233   6.848 -0.3259  0.0873 -0.3287
13124SOL    HW151845   8.226   5.249   6.891 -0.4148 -0.3804 -0.3403
13124SOL    HW251846   8.371   5.315   6.859 -0.5312  0.1591  0.2375
13125SOL     OW51847   2.627   7.675   4.679  0.1109  0.4159  0.4772
13125SOL    HW151848   2.680   7.739   4.623  2.1605 -1.5960  0.0162
13125SOL    HW251849   2.534   7.669   4.645  0.5014  1.5199 -0.8229
13126SOL     OW51850   2.933   2.366   2.177  0.5606  0.2139 -0.5567
13126SOL    HW151851   2.995   2.430   2.132  1.1218  0.0548 -0.0043
13126SOL    HW251852   2.952   2.273   2.145  0.4051  0.2006 -0.6124
13127SOL     OW51853   6.612   0.598   8.124 -1.0024  0.3624  0.0488
13127SOL    HW151854   6.534   0.608   8.186 -0.0943 -1.2390  1.4798
13127SOL    HW251855   6.697   0.609   8.175 -0.2553 -0.0144 -1.1025
13128SOL     OW51856   2.994   6.506   6.769  0.4653 -0.3404 -0.1334
13128SOL    HW151857   3.087   6.544   6.766  1.6238 -2.9914  0.8127
13128SOL    HW251858   2.959   6.495   6.676 -0.0275  3.2313 -0.4316
13129SOL     OW51859   2.401   8.734   8.055 -0.4339  0.2177 -0.1190
13129SOL    HW151860   2.415   8.778   7.966  1.9574 -1.8600 -0.8412
13129SOL    HW251861   2.462   8.777   8.122  0.5258 -0.6969 -0.3902
13130SOL     OW51862   7.778   5.886   0.378  0.7604  0.1604  0.5364
13130SOL    HW151863   7.693   5.932   0.354  0.2278 -1.4822 -0.7850
13130SOL    HW251864   7.820   5.847   0.295  2.7224  0.8111  1.1834
13131SOL     OW51865   1.035   6.178   1.851 -0.3352  0.1118  0.3581
13131SOL    HW151866   1.033   6.100   1.914 -0.7357  0.6316  0.9909
13131SOL    HW251867   1.130   6.204   1.833 -0.2327  0.3495  1.2338
13132SOL     OW51868   4.061   1.483   1.760  0.3880 -0.2283 -0.1843
13132SOL    HW151869   4.031   1.546   1.688  1.4215  0.7506  0.2315
13132SOL    HW251870   4.085   1.535   1.842  0.4957 -1.2350  0.4290
13133SOL     OW51871   0.604   5.699   5.580  0.4054  0.0620  0.5630
13133SOL    HW151872   0.629   5.675   5.486  0.5956 -1.4126  0.9662
13133SOL    HW251873   0.515   5.744   5.581  0.0549 -0.5981 -0.2566
13134SOL     OW51874   3.869   4.051   6.690  0.3597  0.2500 -0.0360
13134SOL    HW151875   3.902   4.047   6.784  3.8105  0.2672 -1.1821
13134SOL    HW251876   3.814   3.969   6.671  0.1987 -0.0920  1.7806
13135SOL     OW51877   1.673   1.992   4.588 -0.1601 -0.0147 -0.0328
13135SOL    HW151878   1.600   1.981   4.519  1.3292 -0.2298 -1.6134
13135SOL    HW251879   1.688   2.089   4.605 -0.9911  0.0247  0.4861
13136SOL     OW51880   3.818   2.537   1.039 -0.3982  0.0825  0.0514
13136SOL    HW151881   3.797   2.450   1.085 -0.0036  0.2741  0.5938
13136SOL    HW251882   3.904   2.573   1.074 -2.4849  2.6775  2.6837
13137SOL     OW51883   6.353   8.182   6.633  0.2093  0.4361 -0.3257
13137SOL    HW151884   6.382   8.265   6.682  1.2717 -0.2994  0.3179
13137SOL    HW251885   6.253   8.175   6.636  0.2100  0.7182  1.2515
13138SOL     OW51886   1.610   1.498   8.304  0.4234 -0.5473 -0.5237
13138SOL    HW151887   1.584   1.478   8.209  2.4481 -0.1201 -1.1864
13138SOL    HW251888   1.685   1.564   8.305 -0.2022  0.1844  1.4228
13139SOL     OW51889   5.433   5.794   3.659  0.8438  0.0625  0.5386
13139SOL    HW151890   5.508   5.819   3.597  0.0664  0.0524 -0.4180
13139SOL    HW251891   5.364   5.743   3.608 -0.1241  0.6257  1.2828
13140SOL     OW51892   0.114   6.166   6.847 -0.5079  0.0425 -0.1077
13140SOL    HW151893   0.080   6.121   6.764  0.9140  0.3762 -0.8958
13140SOL    HW251894   0.111   6.265   6.834  0.4135  0.0836 -0.0680
13141SOL     OW51895   3.370   1.499   3.622 -0.0380  0.0325  0.3772
13141SOL    HW151896   3.456   1.532   3.583 -0.0591 -0.6104 -0.2263
13141SOL    HW251897   3.381   1.404   3.652 -0.6518 -0.1929 -0.0902
13142SOL     OW51898   1.012   7.764   7.790 -0.4914 -0.3457  0.2446
13142SOL    HW151899   1.098   7.713   7.801  0.0960  0.5739 -0.0872
13142SOL    HW251900   1.002   7.792   7.694 -0.5495  0.6265  0.5313
13143SOL     OW51901   4.998   4.292   6.312  0.2001 -0.4262  0.2079
13143SOL    HW151902   5.095   4.310   6.295  0.0836 -1.2365 -1.4346
13143SOL    HW251903   4.945   4.315   6.230 -1.1361  0.9719  1.4392
13144SOL     OW51904   2.696   2.217   1.045 -0.2037  0.6712 -0.0987
13144SOL    HW151905   2.682   2.286   0.974 -1.2146  0.5593 -0.0214
13144SOL    HW251906   2.710   2.262   1.133 -0.0318  0.7919 -0.1883
13145SOL     OW51907   1.223   8.673   8.665 -0.6080 -0.1487 -0.1336
13145SOL    HW151908   1.280   8.591   8.665 -0.7061 -0.2213  0.8671
13145SOL    HW251909   1.196   8.694   8.571 -0.0218 -0.8694 -0.4747
13146SOL     OW51910   4.101   8.377   2.492  0.1499 -0.3012 -0.3770
13146SOL    HW151911   4.190   8.400   2.531 -0.7927 -0.6080  1.9904
13146SOL    HW251912   4.033   8.444   2.521 -0.5426 -0.4330 -1.6565
13147SOL     OW51913   0.730   3.460   6.609  0.8051 -0.0409  0.2611
13147SOL    HW151914   0.660   3.498   6.549  0.6665 -0.3856  0.2011
13147SOL    HW251915   0.820   3.492   6.581  0.7285 -0.1002 -0.0492
13148SOL     OW51916   1.519   8.957   3.478 -0.1889 -0.6746  0.5344
13148SOL    HW151917   1.493   8.951   3.382 -0.7394 -0.1737  0.6484
13148SOL    HW251918   1.618   8.969   3.486 -0.5081  2.6968 -0.0831
13149SOL     OW51919   2.241   6.153   5.431  0.4160 -0.0182 -0.0137
13149SOL    HW151920   2.248   6.186   5.525  1.7256  2.1973 -0.8393
13149SOL    HW251921   2.322   6.098   5.408 -0.5031 -1.6193  0.5321
13150SOL     OW51922   4.423   5.743   3.302 -0.2771 -0.0639 -0.3197
13150SOL    HW151923   4.337   5.717   3.344  0.2275  0.5714  1.1636
13150SOL    HW251924   4.477   5.662   3.280 -0.6220 -0.4086  0.1226
13151SOL     OW51925   5.473   3.701   2.437  0.6109  0.5934  0.2266
13151SOL    HW151926   5.426   3.747   2.362 -1.5052 -0.7206  0.6899
13151SOL    HW251927   5.462   3.756   2.521  3.3629  2.2879 -0.4804
13152SOL     OW51928   4.648   3.485   8.986  0.0002 -0.4196  0.4720
13152SOL    HW151929   4.620   3.537   9.067  0.7067  0.6781  0.0282
13152SOL    HW251930   4.619   3.533   8.904 -0.6977 -1.5281  0.0663
13153SOL     OW51931   1.346   0.021   3.937  0.1541  0.1493  0.3705
13153SOL    HW151932   1.261   0.041   3.984 -1.3123  0.1047 -2.1499
13153SOL    HW251933   1.422   0.020   4.003 -1.8407 -0.3310  2.7231
13154SOL     OW51934   4.437   7.836   1.980  0.7386  0.7229  0.2555
13154SOL    HW151935   4.415   7.880   2.066 -1.1145  0.6602 -0.1677
13154SOL    HW251936   4.394   7.745   1.976 -3.7032  2.7616 -2.8246
13155SOL     OW51937   4.815   4.052   6.743 -0.1884 -0.4479 -0.0993
13155SOL    HW151938   4.865   4.115   6.802 -0.0513  0.1258 -0.8274
13155SOL    HW251939   4.801   4.093   6.653 -0.5571 -1.2418 -0.4158
13156SOL     OW51940   5.653   4.684   4.894  0.7170 -0.8514  0.0816
13156SOL    HW151941   5.684   4.771   4.932  0.4468 -1.2167  1.1902
13156SOL    HW251942   5.731   4.631   4.862  0.8066  0.1487 -1.3799
13157SOL     OW51943   6.589   8.043   5.353 -0.1196  0.2182  0.1860
13157SOL    HW151944   6.542   7.959   5.380  1.8718 -1.1216 -0.3835
13157SOL    HW251945   6.656   8.068   5.423 -1.2175  1.7693  0.7106
13158SOL     OW51946   1.073   0.488   1.251  0.0166 -0.0190 -0.3915
13158SOL    HW151947   1.083   0.492   1.351 -1.2473 -2.2094 -0.1336
13158SOL    HW251948   1.151   0.440   1.212  1.2598  2.1299 -0.6496
13159SOL     OW51949   3.007   8.931   8.943  0.2105 -0.0264  0.4236
13159SOL    HW151950   2.952   8.926   8.860  0.6322  0.8086  0.0945
13159SOL    HW251951   2.953   8.971   9.017  0.4161  0.9459  0.0550
13160SOL     OW51952   6.728   6.947   1.071 -0.0240 -0.0709 -0.1405
13160SOL    HW151953   6.788   7.025   1.056  0.4985 -0.7016 -1.4178
13160SOL    HW251954   6.650   6.975   1.128  0.5561  1.1718  0.0633
13161SOL     OW51955   2.066   6.944   4.152 -0.4210  0.4829  0.1581
13161SOL    HW151956   2.061   6.877   4.077  1.5761  1.5336 -0.9473
13161SOL    HW251957   2.030   7.032   4.121 -0.7850  0.5852  0.8514
13162SOL     OW51958   0.233   7.004   4.659 -0.1051 -0.3741  0.5269
13162SOL    HW151959   0.147   6.955   4.669 -0.2746  0.1620  1.7470
13162SOL    HW251960   0.219   7.085   4.602 -0.1807 -0.8080 -0.0868
13163SOL     OW51961   4.495   4.570   3.875 -0.1936  0.3358 -0.4787
13163SOL    HW151962   4.535   4.479   3.865  1.1366  0.6562  1.5775
13163SOL    HW251963   4.563   4.639   3.848 -0.3516  0.8014  0.3185
13164SOL     OW51964   6.046   3.377   5.714 -0.4205 -0.0207 -0.5729
13164SOL    HW151965   6.041   3.404   5.810  0.5141  1.6141 -0.9751
13164SOL    HW251966   5.993   3.441   5.658  1.1210  0.5441 -1.4282
13165SOL     OW51967   6.974   0.256   6.902  0.2176 -0.3395  0.1780
13165SOL    HW151968   7.023   0.343   6.901  1.1126 -0.8319 -0.7139
13165SOL    HW251969   6.952   0.231   6.996 -0.7981  1.2515  0.3840
13166SOL     OW51970   5.456   6.892   0.224 -0.0689  0.2471  0.3538
13166SOL    HW151971   5.361   6.924   0.213  0.4621  1.9009  0.4123
13166SOL    HW251972   5.519   6.961   0.187  1.1250 -0.6575  0.6839
13167SOL     OW51973   0.121   7.498   6.871  0.0559 -0.6589 -0.0806
13167SOL    HW151974   0.197   7.507   6.936  0.2423  0.8126 -0.4924
13167SOL    HW251975   0.157   7.486   6.779 -0.2191  0.3732 -0.3184
13168SOL     OW51976   5.846   7.139   7.192 -0.2163  0.4996 -0.2453
13168SOL    HW151977   5.868   7.114   7.098 -2.1964 -0.8330 -0.3810
13168SOL    HW251978   5.776   7.211   7.192  0.8268  1.5293  0.2066
13169SOL     OW51979   0.108   7.578   7.287 -0.0451 -0.5785  0.5821
13169SOL    HW151980   0.080   7.666   7.326  0.7359  0.1273 -0.4402
13169SOL    HW251981   0.102   7.507   7.357 -0.5964  0.3020  1.4368
13170SOL     OW51982   2.354   5.472   1.455  0.1559 -0.3249  0.2208
13170SOL    HW151983   2.325   5.387   1.499 -0.3409  0.4261  1.3863
13170SOL    HW251984   2.373   5.540   1.526 -0.4924  0.8575 -0.7298
13171SOL     OW51985   3.700   1.490   6.712 -0.4521  0.5712 -0.0145
13171SOL    HW151986   3.689   1.419   6.641 -2.8537  0.8052  0.0776
13171SOL    HW251987   3.778   1.467   6.770 -1.1496 -2.0028 -0.0187
13172SOL     OW51988   4.924   0.779   1.620  0.4394 -0.1669 -0.0276
13172SOL    HW151989   5.003   0.841   1.615  1.2621 -0.7624  3.8322
13172SOL    HW251990   4.851   0.822   1.673  0.2378 -1.6846  0.9647
13173SOL     OW51991   3.531   4.452   1.266 -0.0951 -0.2596  0.0265
13173SOL    HW151992   3.612   4.460   1.207  0.4492 -0.8577  0.6812
13173SOL    HW251993   3.454   4.420   1.211 -0.0714  0.9538 -0.7445
13174SOL     OW51994   4.908   4.044   3.191 -0.8866  0.5838  0.0695
13174SOL    HW151995   4.898   3.965   3.252 -1.7085  0.7742  0.1815
13174SOL    HW251996   4.936   4.013   3.101 -0.2328  0.2500  0.3836
13175SOL     OW51997   8.593   1.946   3.471  0.7068 -0.6459 -0.4892
13175SOL    HW151998   8.561   1.922   3.563  0.5793  1.9136  0.1936
13175SOL    HW251999   8.544   1.892   3.403  0.1017 -1.8749  0.8968
13176SOL     OW52000   4.929   5.947   2.793  0.2971  0.0143  0.3430
13176SOL    HW152001   4.872   5.930   2.874  0.3903  0.5890  0.5314
13176SOL    HW252002   5.024   5.955   2.820  0.3830 -0.2329  0.1161
13177SOL     OW52003   5.294   7.546   7.705  0.3283  0.0594  0.1107
13177SOL    HW152004   5.227   7.478   7.676  0.1704  1.3733 -2.8062
13177SOL    HW252005   5.249   7.613   7.764 -0.0237 -1.1389  1.2244
13178SOL     OW52006   1.903   8.335   6.245  0.4117 -0.2158  0.1507
13178SOL    HW152007   1.897   8.404   6.173 -0.0113 -1.2291 -0.7985
13178SOL    HW252008   1.810   8.310   6.275  0.4466 -2.2872 -1.3749
13179SOL     OW52009   2.408   1.516   5.245 -0.4395  0.4203  0.4285
13179SOL    HW152010   2.412   1.602   5.194 -1.0675  1.0531  1.4177
13179SOL    HW252011   2.417   1.439   5.182  1.3704  1.2304 -0.3338
13180SOL     OW52012   7.528   2.338   7.618  0.5517 -0.0497 -0.5610
13180SOL    HW152013   7.497   2.247   7.648  2.2627 -0.3138  0.4966
13180SOL    HW252014   7.624   2.332   7.589  1.0927  1.6625  0.7904
13181SOL     OW52015   1.765   0.035   7.017  0.5252  0.1323 -0.0386
13181SOL    HW152016   1.821   0.117   7.029  2.0967 -1.0956  1.2921
13181SOL    HW252017   1.679   0.046   7.068  2.0589 -0.2335  2.7631
13182SOL     OW52018   2.974   7.067   6.967 -0.6186 -0.3719 -0.0581
13182SOL    HW152019   2.916   7.147   6.953  0.4749  0.5316  0.5620
13182SOL    HW252020   2.975   7.012   6.883  0.1778  1.2805 -1.1680
13183SOL     OW52021   5.522   8.369   7.429 -0.2208  0.5902  0.3467
13183SOL    HW152022   5.551   8.449   7.482 -0.9311  0.8808  0.3129
13183SOL    HW252023   5.567   8.287   7.463  3.6164  1.5224 -2.1174
13184SOL     OW52024   4.018   8.196   7.016  0.8917  0.0911 -0.4997
13184SOL    HW152025   4.042   8.201   6.919  1.6532 -1.2886 -0.3936
13184SOL    HW252026   4.005   8.289   7.052 -1.8200  0.5527 -2.4966
13185SOL     OW52027   1.735   3.036   0.534 -0.0559 -0.0593  0.1825
13185SOL    HW152028   1.650   3.044   0.586 -0.1390  1.1657 -0.1289
13185SOL    HW252029   1.784   2.953   0.563 -1.9970 -1.5204 -0.6169
13186SOL     OW52030   7.834   1.505   3.152 -0.1393  0.1029  0.0192
13186SOL    HW152031   7.923   1.465   3.173 -0.2256  1.0867  2.4492
13186SOL    HW252032   7.845   1.602   3.133 -0.3721 -0.3163 -2.4629
13187SOL     OW52033   5.884   6.462   7.494  0.2478  0.3725  0.1455
13187SOL    HW152034   5.845   6.549   7.523  1.3506  0.6910  0.7104
13187SOL    HW252035   5.949   6.478   7.420 -0.8397 -0.1781 -0.9462
13188SOL     OW52036   4.926   1.863   8.360 -0.0387 -0.3048 -0.3237
13188SOL    HW152037   4.917   1.899   8.452  0.6437 -1.4101  0.1838
13188SOL    HW252038   5.010   1.897   8.319 -0.4558  0.3725 -0.6382
13189SOL     OW52039   7.374   0.174   5.803 -0.5201  0.2248 -0.1425
13189SOL    HW152040   7.395   0.261   5.849  1.0871  0.8916 -2.0778
13189SOL    HW252041   7.410   0.099   5.857  0.8308  0.9606 -0.0042
13190SOL     OW52042   3.704   6.766   3.488 -0.2033  0.2007  0.6415
13190SOL    HW152043   3.708   6.866   3.476  1.6606  0.2821  1.7922
13190SOL    HW252044   3.796   6.730   3.498 -0.7730 -1.8372 -1.0603
13191SOL     OW52045   2.388   1.011   7.290 -0.1249  0.0208  0.4551
13191SOL    HW152046   2.359   1.079   7.358  0.3639 -0.6983  1.3970
13191SOL    HW252047   2.460   0.953   7.329 -0.2927 -0.8176 -0.4527
13192SOL     OW52048   2.937   3.733   6.523  0.7568 -0.3100 -0.5882
13192SOL    HW152049   2.864   3.792   6.488 -0.5720 -1.1747  0.6282
13192SOL    HW252050   2.951   3.751   6.620 -0.5947 -2.8624  0.1317
13193SOL     OW52051   5.447   8.986   7.440  0.5175  0.0205 -1.3918
13193SOL    HW152052   5.388   9.060   7.410  3.2503  2.5997 -0.6259
13193SOL    HW252053   5.394   8.920   7.493 -1.7324  2.0184 -1.0874
13194SOL     OW52054   4.977   6.852   3.059 -0.1280 -0.0995 -0.0436
13194SOL    HW152055   5.000   6.756   3.043  1.1828  0.3511 -0.9685
13194SOL    HW252056   5.035   6.888   3.133 -0.1424  0.1690 -0.1646
13195SOL     OW52057   4.596   7.912   5.760  0.0051  0.6777  0.0934
13195SOL    HW152058   4.542   7.980   5.809 -2.2532 -0.7172 -0.3924
13195SOL    HW252059   4.651   7.860   5.826  3.0894  4.0432  0.2969
13196SOL     OW52060   7.085   1.067   7.353 -0.2534 -0.2468  0.4217
13196SOL    HW152061   7.123   1.042   7.441 -0.7910 -1.6245  0.2652
13196SOL    HW252062   7.158   1.074   7.285 -0.0850 -1.1871  0.5112
13197SOL     OW52063   3.538   2.164   1.074 -0.3037  0.1544 -0.7359
13197SOL    HW152064   3.527   2.110   0.991 -0.2526  1.3840 -1.5524
13197SOL    HW252065   3.624   2.215   1.070  0.7790 -1.4025  1.0323
13198SOL     OW52066   3.825   0.759   0.081  0.1917 -0.1988 -0.2351
13198SOL    HW152067   3.771   0.843   0.072  0.9331  0.3060  0.0363
13198SOL    HW252068   3.774   0.693   0.137  0.4556  0.8038  1.2184
13199SOL     OW52069   4.126   6.489   6.896  0.2275 -0.1897 -0.1619
13199SOL    HW152070   4.087   6.567   6.945  0.6485 -0.8669  1.2831
13199SOL    HW252071   4.205   6.519   6.843  0.8248  0.2560  0.9600
13200SOL     OW52072   5.210   0.246   8.626  0.1001  0.2883 -0.5984
13200SOL    HW152073   5.140   0.252   8.554 -0.5874 -1.1556 -0.0855
13200SOL    HW252074   5.192   0.315   8.696  0.1668  1.0208 -1.2991
13201SOL     OW52075   5.601   4.889   5.753 -0.1389  0.5909 -0.0379
13201SOL    HW152076   5.519   4.832   5.750 -0.4390  0.8970  1.6763
13201SOL    HW252077   5.579   4.977   5.797  0.8542  1.1101 -0.5487
13202SOL     OW52078   5.721   0.727   4.544  0.3683  0.4451  0.3956
13202SOL    HW152079   5.627   0.694   4.535  0.3576  0.6543 -0.3041
13202SOL    HW252080   5.736   0.802   4.479  0.7266  1.0602  1.1833
13203SOL     OW52081   2.278   0.336   5.252 -0.1012 -0.0332 -0.9400
13203SOL    HW152082   2.227   0.342   5.167 -0.7427  2.0524 -0.4547
13203SOL    HW252083   2.215   0.314   5.327 -0.1871  1.7789 -0.4592
13204SOL     OW52084   0.663   3.245   1.677 -0.0435  0.8487  0.3079
13204SOL    HW152085   0.632   3.173   1.615 -0.0463  0.0882  1.1786
13204SOL    HW252086   0.728   3.304   1.630  0.2212  0.0747 -0.3158
13205SOL     OW52087   0.832   7.886   8.255  0.6123  0.3486 -0.1309
13205SOL    HW152088   0.877   7.939   8.183 -0.5396  0.1610 -0.9955
13205SOL    HW252089   0.893   7.811   8.283  2.0451  1.8161  0.7775
13206SOL     OW52090   3.057   7.580   6.603  0.4165 -0.4580  0.1718
13206SOL    HW152091   3.007   7.553   6.521 -1.3767  1.7625  0.4861
13206SOL    HW252092   3.092   7.499   6.649  1.6295 -1.7564 -2.8577
13207SOL     OW52093   3.602   2.164   6.598 -0.4746 -0.4590  0.1863
13207SOL    HW152094   3.511   2.123   6.600 -0.2495 -0.9469  0.5456
13207SOL    HW252095   3.645   2.155   6.688 -0.4043  0.5248  0.2593
13208SOL     OW52096   7.691   6.569   0.239  0.0132 -0.0501  0.0596
13208SOL    HW152097   7.765   6.542   0.301  0.4857  1.1976  0.0505
13208SOL    HW252098   7.675   6.496   0.172  2.2916  0.3188 -0.9149
13209SOL     OW52099   7.639   5.556   7.012 -0.0097  0.0672 -0.2755
13209SOL    HW152100   7.625   5.565   7.111  0.9362 -1.1453 -0.0101
13209SOL    HW252101   7.551   5.553   6.966 -0.5081 -1.3877  0.7390
13210SOL     OW52102   6.198   4.680   4.204 -0.1641 -0.5847 -0.0794
13210SOL    HW152103   6.103   4.711   4.203  0.1164  0.3647  2.0999
13210SOL    HW252104   6.205   4.594   4.255 -0.2242 -2.0407 -2.4103
13211SOL     OW52105   5.016   5.865   6.791  0.4672  0.1022 -0.5763
13211SOL    HW152106   5.034   5.789   6.852 -0.6820  0.3930  0.1363
13211SOL    HW252107   5.090   5.932   6.798  0.9949 -0.4852 -0.4958
13212SOL     OW52108   8.295   8.344   1.344  0.1831 -0.5062  0.0115
13212SOL    HW152109   8.238   8.336   1.261 -2.3196 -3.6067  1.9117
13212SOL    HW252110   8.244   8.393   1.414  0.4603 -1.8857  1.2011
13213SOL     OW52111   2.907   1.896   7.543  0.2806  0.2559  0.0071
13213SOL    HW152112   2.963   1.824   7.502  0.6539  1.2560 -1.2677
13213SOL    HW252113   2.913   1.890   7.643  2.1352 -0.0642 -0.1046
13214SOL     OW52114   3.723   5.391   1.496 -0.0992  0.1804  0.0025
13214SOL    HW152115   3.760   5.298   1.491  0.6599  0.5129 -0.8024
13214SOL    HW252116   3.623   5.387   1.501 -0.1515 -0.6437 -1.4795
13215SOL     OW52117   5.503   3.692   0.898 -0.0466  0.3049 -0.1461
13215SOL    HW152118   5.595   3.730   0.887  0.8647 -1.9364 -0.5253
13215SOL    HW252119   5.469   3.713   0.990  0.6727  1.4655 -0.1306
13216SOL     OW52120   1.878   2.695   3.107 -0.0529  0.2287  0.0394
13216SOL    HW152121   1.943   2.637   3.058  2.4055  0.8899  2.3468
13216SOL    HW252122   1.918   2.786   3.118 -2.1759  1.1856 -0.0641
13217SOL     OW52123   6.880   1.311   0.935  0.1107  0.2647 -0.4643
13217SOL    HW152124   6.789   1.275   0.959  0.8724 -2.1578 -1.0025
13217SOL    HW252125   6.938   1.307   1.016  0.1602  0.4077 -0.4939
13218SOL     OW52126   5.490   5.691   7.390  0.0156 -0.4910 -0.2429
13218SOL    HW152127   5.520   5.610   7.441  0.5742  0.5864  1.1603
13218SOL    HW252128   5.545   5.699   7.307  1.3456 -0.4440  0.6138
13219SOL     OW52129   2.587   2.517   6.303  0.4853 -0.0410 -0.5162
13219SOL    HW152130   2.563   2.609   6.271 -1.5451 -0.7974 -1.2792
13219SOL    HW252131   2.606   2.519   6.401 -2.1158  0.7625  0.0115
13220SOL     OW52132   4.383   6.932   8.118  0.2380  0.0022  0.2127
13220SOL    HW152133   4.373   6.951   8.021  2.1497 -0.2123 -0.0479
13220SOL    HW252134   4.302   6.963   8.167 -0.6121  0.3639 -1.4111
13221SOL     OW52135   2.861   8.862   2.819  0.1316 -0.3000 -0.0193
13221SOL    HW152136   2.869   8.785   2.882 -1.2458  0.5602  1.2415
13221SOL    HW252137   2.902   8.837   2.730  2.4606 -1.3858  1.3039
13222SOL     OW52138   4.904   5.134   4.045  0.6616 -0.2484 -0.9638
13222SOL    HW152139   4.942   5.190   4.119 -0.3330  0.7224 -1.1619
13222SOL    HW252140   4.950   5.046   4.043  0.3663 -0.4805  1.1375
13223SOL     OW52141   6.074   5.545   0.167  0.2622 -0.3991 -0.3249
13223SOL    HW152142   6.077   5.641   0.139  1.0718 -0.5400 -0.7429
13223SOL    HW252143   5.986   5.526   0.210  0.3573  0.6954  0.3812
13224SOL     OW52144   3.266   8.733   2.265 -0.1933 -0.0417 -0.4674
13224SOL    HW152145   3.181   8.768   2.227 -1.1182 -1.8105 -0.0902
13224SOL    HW252146   3.338   8.802   2.255 -1.2101  0.7854 -2.4187
13225SOL     OW52147   3.857   5.694   5.942  0.4478  0.1747 -0.0636
13225SOL    HW152148   3.912   5.655   5.868  0.1527  2.2349 -1.4272
13225SOL    HW252149   3.763   5.707   5.911 -0.2180 -0.9527  1.4173
13226SOL     OW52150   3.034   0.485   5.404  0.0745  0.1680 -0.4029
13226SOL    HW152151   2.993   0.444   5.323 -1.6751 -0.6581  0.8458
13226SOL    HW252152   3.015   0.583   5.406 -0.6110  0.0395 -0.5618
13227SOL     OW52153   6.046   3.373   7.617 -0.5590 -0.4052 -0.1510
13227SOL    HW152154   5.957   3.329   7.603 -0.0774 -1.1199 -1.0214
13227SOL    HW252155   6.114   3.330   7.558  0.0511  1.1441 -0.5908
13228SOL     OW52156   2.177   8.625   7.361  0.4066  0.1229 -0.1890
13228SOL    HW152157   2.195   8.628   7.262  0.4431  0.0652 -0.1845
13228SOL    HW252158   2.162   8.530   7.389  0.8399  0.0881 -0.0635
13229SOL     OW52159   7.947   8.753   6.522 -0.2774 -0.0903  0.3001
13229SOL    HW152160   7.906   8.664   6.501 -0.9612  0.4685 -0.7718
13229SOL    HW252161   8.031   8.765   6.469 -0.6618  0.2672 -0.2390
13230SOL     OW52162   4.882   7.410   1.762  0.1274  0.0585  0.5111
13230SOL    HW152163   4.939   7.356   1.700 -0.1352 -0.3573  0.6294
13230SOL    HW252164   4.938   7.445   1.837  0.5766  1.0963 -0.3020
13231SOL     OW52165   4.095   5.247   1.505  0.4507  0.1987  0.1601
13231SOL    HW152166   4.151   5.298   1.440 -1.6211  1.3970 -0.7455
13231SOL    HW252167   4.121   5.272   1.598  1.9754  0.1011 -0.2381
13232SOL     OW52168   3.869   7.815   7.527  0.0481 -0.4034 -0.2672
13232SOL    HW152169   3.874   7.797   7.625  0.4506 -0.0911 -0.2267
13232SOL    HW252170   3.895   7.732   7.477  0.7605 -0.2892 -0.0977
13233SOL     OW52171   4.091   1.349   4.965  0.3875 -0.4229 -0.0445
13233SOL    HW152172   4.097   1.249   4.961  1.3385 -0.3832  0.2688
13233SOL    HW252173   4.077   1.378   5.060 -0.9808 -0.3102 -0.2759
13234SOL     OW52174   6.346   4.544   2.799  0.1607  0.5275 -0.5446
13234SOL    HW152175   6.287   4.530   2.879  2.5418 -1.8349  0.8784
13234SOL    HW252176   6.309   4.495   2.721 -1.3489  1.5478 -0.4791
13235SOL     OW52177   3.587   5.191   3.597 -0.6816  0.1475  0.9321
13235SOL    HW152178   3.664   5.249   3.570 -0.7031  0.8077  2.2313
13235SOL    HW252179   3.620   5.099   3.619 -0.4036  0.1437  0.4889
13236SOL     OW52180   2.920   1.049   8.410  0.0589  0.5141  0.0224
13236SOL    HW152181   2.923   0.988   8.330 -1.0868 -1.2220  1.2802
13236SOL    HW252182   2.896   1.142   8.380 -0.7180 -0.1891 -1.6103
13237SOL     OW52183   2.706   2.625   0.468  0.1147  0.0838  0.6074
13237SOL    HW152184   2.632   2.641   0.533 -0.8530  3.0333 -1.1199
13237SOL    HW252185   2.771   2.700   0.471  1.3170 -0.8978 -0.1749
13238SOL     OW52186   5.106   5.880   2.426 -0.8624 -0.3550  0.9923
13238SOL    HW152187   5.029   5.835   2.472  0.1477 -1.0298  2.0580
13238SOL    HW252188   5.191   5.860   2.476 -0.2319  1.8571  0.8854
13239SOL     OW52189   6.329   0.896   0.076 -0.1628  0.0777  0.2360
13239SOL    HW152190   6.250   0.836   0.063  1.1093 -1.5811 -0.0600
13239SOL    HW252191   6.373   0.874   0.164  2.0555 -1.5218 -1.2275
13240SOL     OW52192   7.712   7.057   3.324  0.4162  0.7900 -0.0939
13240SOL    HW152193   7.632   7.091   3.372  0.3415 -1.3086  1.3511
13240SOL    HW252194   7.782   7.030   3.390  0.8327 -0.9125 -1.1844
13241SOL     OW52195   3.261   7.022   4.334  0.7834 -0.2507 -0.1939
13241SOL    HW152196   3.348   7.062   4.364  0.2336  0.1672  0.8842
13241SOL    HW252197   3.248   6.934   4.380 -0.4431  0.7641  1.4777
13242SOL     OW52198   4.924   4.575   7.975  0.6676  0.7180  0.0010
13242SOL    HW152199   4.909   4.571   7.876  0.1495  1.4525  0.0449
13242SOL    HW252200   5.020   4.595   7.993  0.5819  1.5131 -0.3745
13243SOL     OW52201   3.949   1.203   2.030 -0.5569 -0.9586 -0.4656
13243SOL    HW152202   3.951   1.114   2.076 -0.4470 -1.5162 -1.5131
13243SOL    HW252203   4.024   1.208   1.964 -0.0102  0.2796  0.2391
13244SOL     OW52204   2.257   8.711   6.454  0.0816 -0.1667  0.2965
13244SOL    HW152205   2.336   8.651   6.439 -2.4229 -2.6105 -3.8930
13244SOL    HW252206   2.188   8.662   6.507 -1.3152 -0.4233 -1.7420
13245SOL     OW52207   3.128   6.338   6.984 -0.1754  0.2144  0.1022
13245SOL    HW152208   3.089   6.400   6.916 -0.1105 -0.7194 -0.8102
13245SOL    HW252209   3.216   6.304   6.951  0.4802  0.7661  1.2547
13246SOL     OW52210   5.837   0.662   6.643 -0.8967  0.3571 -0.1496
13246SOL    HW152211   5.802   0.634   6.553  0.3839  0.6848 -0.7585
13246SOL    HW252212   5.864   0.581   6.695  0.4686  0.2948 -0.9401
13247SOL     OW52213   2.129   7.513   7.454 -0.2442 -0.1120 -0.4565
13247SOL    HW152214   2.108   7.521   7.551  0.4206  1.1034 -0.3979
13247SOL    HW252215   2.153   7.418   7.433 -2.0415 -0.7317  0.2073
13248SOL     OW52216   3.935   8.169   0.028  0.1432  0.0289  0.1432
13248SOL    HW152217   3.917   8.255  -0.021 -0.0771  1.2027  2.2490
13248SOL    HW252218   3.873   8.162   0.106 -1.0774 -2.9231 -1.0301
13249SOL     OW52219   6.094   3.424   0.126 -0.2995 -0.1197  0.5481
13249SOL    HW152220   5.997   3.443   0.112  0.1082  1.2336 -0.5522
13249SOL    HW252221   6.118   3.338   0.081 -0.9264 -0.3283  0.6090
13250SOL     OW52222   8.554   4.615   1.249  0.1537  0.1023 -0.1982
13250SOL    HW152223   8.465   4.577   1.221 -0.3566  0.9949  0.1669
13250SOL    HW252224   8.571   4.595   1.345  0.4224 -0.2132 -0.3126
13251SOL     OW52225   3.415   2.984   4.021 -0.2011 -0.0177 -0.8304
13251SOL    HW152226   3.467   3.048   3.964 -0.9805  0.7968 -0.6203
13251SOL    HW252227   3.318   3.006   4.017 -0.2874 -0.0967  0.6428
13252SOL     OW52228   8.885   8.398   5.791  0.7305 -0.0231 -1.1644
13252SOL    HW152229   8.942   8.372   5.869  0.2897 -1.5309 -1.3350
13252SOL    HW252230   8.804   8.446   5.823  0.1900 -1.2722 -0.6242
13253SOL     OW52231   2.082   7.002   6.072  0.2513 -0.5987 -0.4531
13253SOL    HW152232   2.031   6.928   6.116 -1.7260 -0.0844 -1.8559
13253SOL    HW252233   2.120   7.063   6.142  0.7370 -2.1497  0.6583
13254SOL     OW52234   7.164   6.640   7.307 -0.0433 -0.2900 -0.7110
13254SOL    HW152235   7.208   6.724   7.276 -0.7684  0.4055  0.1295
13254SOL    HW252236   7.073   6.634   7.267 -0.2372 -0.3569 -0.2604
13255SOL     OW52237   3.760   1.318   0.923  0.3327  0.7350  0.1657
13255SOL    HW152238   3.844   1.371   0.933  0.0445  1.6223 -1.7932
13255SOL    HW252239   3.782   1.227   0.889  0.4548  1.1773 -0.9463
13256SOL     OW52240   1.082   1.638   5.021  0.2844 -0.1060  0.6279
13256SOL    HW152241   1.130   1.687   4.949  0.8989 -1.6221 -0.0169
13256SOL    HW252242   1.098   1.684   5.109  0.9281  0.7699  0.0601
13257SOL     OW52243   6.658   8.518   6.476 -0.2066 -0.0065 -0.1451
13257SOL    HW152244   6.711   8.492   6.557  0.0916 -1.8640 -0.9242
13257SOL    HW252245   6.565   8.483   6.484 -0.3613  0.3650 -0.3144
13258SOL     OW52246   3.734   3.282   2.019  0.1048  0.0694 -0.3813
13258SOL    HW152247   3.798   3.206   2.027 -0.5014 -0.3270  0.9110
13258SOL    HW252248   3.669   3.264   1.945 -0.4375 -1.0028  0.3350
13259SOL     OW52249   7.003   7.311   6.433 -0.4593  0.4594  0.1305
13259SOL    HW152250   7.072   7.256   6.480 -1.3854  0.1015  1.0834
13259SOL    HW252251   7.024   7.313   6.335  0.2011 -0.6748  0.2356
13260SOL     OW52252   8.353   0.871   0.790  0.4930 -0.0356  0.3946
13260SOL    HW152253   8.296   0.804   0.743 -0.2951  1.3765 -0.6983
13260SOL    HW252254   8.416   0.824   0.851  1.2699 -1.9028 -1.7704
13261SOL     OW52255   0.545   1.268   7.981  0.8299 -0.0894 -0.3162
13261SOL    HW152256   0.626   1.263   8.039  1.1390 -1.4210 -0.8573
13261SOL    HW252257   0.503   1.178   7.973 -0.8393  0.6298  0.1256
13262SOL     OW52258   1.091   3.254   0.296  0.4858 -0.1825 -0.0614
13262SOL    HW152259   1.024   3.202   0.349  1.3195 -1.3279 -0.1336
13262SOL    HW252260   1.131   3.196   0.226  0.9296  0.7492 -0.5887
13263SOL     OW52261   1.653   5.696   3.321 -0.0978  0.0675 -0.0263
13263SOL    HW152262   1.657   5.620   3.386 -1.1734 -0.7686 -0.9002
13263SOL    HW252263   1.745   5.718   3.289  0.4365  0.4373  1.6902
13264SOL     OW52264   6.802   8.391   0.912 -0.1287 -0.2132 -0.0951
13264SOL    HW152265   6.835   8.423   0.823  0.3015  0.0471  0.1527
13264SOL    HW252266   6.744   8.461   0.953  1.0403  0.3791  0.5717
13265SOL     OW52267   1.786   8.938   7.585  0.4023 -0.2089  0.0646
13265SOL    HW152268   1.742   8.849   7.594  0.5672 -0.3276 -0.2906
13265SOL    HW252269   1.800   8.977   7.676  1.4867 -1.1174  0.3022
13266SOL     OW52270   1.825   6.632   4.170  0.1549  0.4655  0.1160
13266SOL    HW152271   1.851   6.666   4.260  1.3197 -0.4747  0.1283
13266SOL    HW252272   1.738   6.675   4.143 -0.0164  1.0273  1.5127
13267SOL     OW52273   3.169   7.617   3.646 -0.6619  0.2460  0.6784
13267SOL    HW152274   3.078   7.576   3.636  0.2341 -1.5574 -0.2929
13267SOL    HW252275   3.223   7.563   3.711  0.1965  0.4756  0.1548
13268SOL     OW52276   8.218   8.517   5.662  0.0256 -0.2653 -0.2351
13268SOL    HW152277   8.261   8.565   5.738 -1.2471 -0.5521  0.6734
13268SOL    HW252278   8.170   8.583   5.604 -0.6081 -0.2648  0.2803
13269SOL     OW52279   3.574   5.365   0.203 -0.2993 -0.5019  0.0339
13269SOL    HW152280   3.582   5.284   0.145  1.7651  0.3644 -0.9486
13269SOL    HW252281   3.609   5.344   0.295  0.4233 -0.6715 -0.2763
13270SOL     OW52282   3.615   6.582   3.727 -0.2892  0.1456 -0.0560
13270SOL    HW152283   3.651   6.507   3.671 -1.3755  0.0086 -0.5979
13270SOL    HW252284   3.528   6.554   3.767 -0.5242  0.9881  0.0334
13271SOL     OW52285   5.836   1.800   1.975 -0.1472 -0.5076  0.2180
13271SOL    HW152286   5.908   1.863   2.005  0.3588 -0.8596 -0.2550
13271SOL    HW252287   5.782   1.771   2.055 -0.3908  0.5266  0.4365
13272SOL     OW52288   4.709   4.557   1.474 -0.4746 -0.3104 -0.2732
13272SOL    HW152289   4.799   4.527   1.443  0.0596  0.7507  0.2233
13272SOL    HW252290   4.678   4.499   1.548  0.8100  0.6955  1.0778
13273SOL     OW52291   3.549   3.292   2.365 -0.1364  0.1517 -0.8862
13273SOL    HW152292   3.561   3.247   2.453 -0.6024 -1.1755 -1.5004
13273SOL    HW252293   3.495   3.375   2.377 -1.6777 -0.9477 -0.1997
13274SOL     OW52294   1.122   1.137   3.987 -0.2167  0.5245 -0.0671
13274SOL    HW152295   1.115   1.048   3.941  0.2908  0.2175  0.4405
13274SOL    HW252296   1.077   1.133   4.076  0.0935  0.6788  0.0983
13275SOL     OW52297   4.728   8.768   3.902 -0.0809 -0.3831  0.9200
13275SOL    HW152298   4.711   8.669   3.900  1.4519 -0.6372 -2.2736
13275SOL    HW252299   4.816   8.786   3.946  1.7329 -0.8344 -2.4150
13276SOL     OW52300   5.929   5.312   4.508 -0.2634 -0.3810 -0.8976
13276SOL    HW152301   5.933   5.412   4.504 -1.0786 -0.3675 -1.5264
13276SOL    HW252302   6.019   5.274   4.488  0.1377  0.2347 -0.2781
13277SOL     OW52303   2.258   3.079   2.539 -0.0241  0.2118  0.1521
13277SOL    HW152304   2.256   3.119   2.630  2.1386 -1.5870  1.0338
13277SOL    HW252305   2.353   3.068   2.509 -0.6656 -0.6541 -1.6698
13278SOL     OW52306   3.999   8.113   8.166  0.2625  0.0231  0.4166
13278SOL    HW152307   3.986   8.034   8.226 -0.8348  0.3497  0.6076
13278SOL    HW252308   3.990   8.084   8.071 -0.3572 -0.0362  0.4943
13279SOL     OW52309   4.432   3.346   6.917  0.5338  0.8308 -0.2783
13279SOL    HW152310   4.394   3.302   6.998  0.5780  0.5680 -0.4019
13279SOL    HW252311   4.444   3.279   6.844  0.7053  1.0225 -0.4286
13280SOL     OW52312   6.528   1.648   1.909 -0.0352 -0.5579  0.3819
13280SOL    HW152313   6.450   1.612   1.858  1.7080 -0.9194 -2.1123
13280SOL    HW252314   6.557   1.735   1.868 -0.5649  0.7873  2.7614
13281SOL     OW52315   2.001   6.173   8.328  0.0378  0.1730  0.1083
13281SOL    HW152316   1.911   6.206   8.299 -0.0032  0.8148  0.9499
13281SOL    HW252317   2.029   6.097   8.269 -2.3380 -1.9620  1.6354
13282SOL     OW52318   6.051   5.298   5.358  0.3546 -0.0118 -0.1015
13282SOL    HW152319   5.984   5.342   5.299 -0.1528  0.7088  0.9899
13282SOL    HW252320   6.003   5.240   5.424  0.9939 -1.9336 -1.2944
13283SOL     OW52321   4.955   8.753   8.913 -0.7102  0.4168 -0.1433
13283SOL    HW152322   4.900   8.769   8.994 -0.3620  0.7172  0.0345
13283SOL    HW252323   5.044   8.717   8.939 -0.7067  0.2212 -0.4122
13284SOL     OW52324   3.569   6.170   1.441 -0.5438  0.1133  0.0016
13284SOL    HW152325   3.563   6.073   1.463 -0.7107  0.3943  1.2672
13284SOL    HW252326   3.620   6.217   1.513 -0.5430  0.9787 -0.5575
13285SOL     OW52327   8.500   2.975   2.549  0.0881  0.8868 -0.1797
13285SOL    HW152328   8.565   2.969   2.473 -1.7844 -0.3250 -1.7295
13285SOL    HW252329   8.545   3.016   2.628  2.3880  1.1688 -1.5919
13286SOL     OW52330   3.933   4.053   1.763 -0.5751 -0.4427 -0.1244
13286SOL    HW152331   3.843   4.057   1.721 -0.5426  1.0473 -0.0820
13286SOL    HW252332   3.940   4.122   1.835  1.0260  0.3559 -1.0015
13287SOL     OW52333   7.559   3.124   1.468  0.1304  0.0801 -0.1325
13287SOL    HW152334   7.596   3.072   1.390  1.0392 -0.2815  0.5355
13287SOL    HW252335   7.630   3.134   1.538 -0.7935  0.0888  0.8060
13288SOL     OW52336   4.264   6.762   8.553  0.1321 -0.3238  0.0065
13288SOL    HW152337   4.213   6.740   8.470  0.8004 -0.2654 -0.4270
13288SOL    HW252338   4.358   6.728   8.544 -0.2591 -1.8563  1.4438
13289SOL     OW52339   0.731   1.430   8.579  0.1476  0.2594 -0.6178
13289SOL    HW152340   0.771   1.521   8.586  1.1490 -0.1993 -0.3371
13289SOL    HW252341   0.684   1.407   8.664  0.6505  0.1549 -0.3709
13290SOL     OW52342   8.601   0.250   0.987  0.0022 -0.0619  0.7053
13290SOL    HW152343   8.680   0.244   0.926  0.4966 -0.9580  1.4184
13290SOL    HW252344   8.633   0.265   1.081 -0.6576 -0.8726  1.0575
13291SOL     OW52345   0.720   7.197   2.957  0.1197  0.2113 -0.3935
13291SOL    HW152346   0.680   7.156   3.038  1.1551  1.2081  0.6482
13291SOL    HW252347   0.648   7.242   2.904 -0.3824  0.6598  0.6481
13292SOL     OW52348   1.570   6.006   2.977  0.0322  0.2563 -0.2420
13292SOL    HW152349   1.663   6.043   2.985  0.5469 -0.9052 -0.7443
13292SOL    HW252350   1.566   5.917   3.023 -0.3402 -0.5382 -1.7896
13293SOL     OW52351   4.875   7.990   1.511 -0.1100  0.3401 -0.3143
13293SOL    HW152352   4.900   8.050   1.435  0.7484  0.9278  0.4353
13293SOL    HW252353   4.899   8.033   1.598  1.5835 -1.5624  0.1992
13294SOL     OW52354   0.342   3.077   2.500  0.4230  0.2596  0.0942
13294SOL    HW152355   0.249   3.084   2.536  0.1514  0.6754 -0.6824
13294SOL    HW252356   0.349   2.997   2.441  1.0550 -0.8241  1.5986
13295SOL     OW52357   7.325   1.112   7.211  0.4799 -0.2982 -0.5189
13295SOL    HW152358   7.394   1.157   7.268  1.5651  0.5599 -2.4558
13295SOL    HW252359   7.366   1.035   7.163  0.2439  0.4786 -2.0239
13296SOL     OW52360   3.038   3.909   0.264  0.2792  0.4130 -0.3372
13296SOL    HW152361   3.127   3.876   0.294  0.4559  0.9452 -0.2762
13296SOL    HW252362   3.028   3.892   0.166 -0.7587 -2.3558  0.2087
13297SOL     OW52363   0.443   5.265   4.574 -0.4385  0.2516  0.2897
13297SOL    HW152364   0.489   5.348   4.603 -0.7371  0.8754 -0.9762
13297SOL    HW252365   0.510   5.191   4.567  0.2649  0.9638 -0.7931
13298SOL     OW52366   0.763   3.898   2.935 -0.4370  0.0621  0.1691
13298SOL    HW152367   0.822   3.826   2.972  2.7306  1.4366 -2.0134
13298SOL    HW252368   0.688   3.856   2.885  1.0332 -1.7488 -0.5657
13299SOL     OW52369   4.172   6.509   0.672 -0.0509 -0.7147 -0.5060
13299SOL    HW152370   4.262   6.475   0.645  0.3647 -0.2142  0.2317
13299SOL    HW252371   4.175   6.608   0.680 -0.8249 -0.6440 -1.0433
13300SOL     OW52372   1.181   1.067   7.682 -0.0883 -0.6513  0.5443
13300SOL    HW152373   1.091   1.070   7.640  0.8426  2.0382 -1.3985
13300SOL    HW252374   1.233   0.989   7.646 -0.6975 -0.6620 -0.3185
13301SOL     OW52375   4.632   4.353   3.832  0.0464 -0.3299 -0.3138
13301SOL    HW152376   4.662   4.325   3.923 -0.8900 -0.0061  0.0922
13301SOL    HW252377   4.695   4.316   3.764 -0.9263 -3.0745  0.2384
13302SOL     OW52378   3.991   5.238   4.607 -0.5210 -0.5812  0.3022
13302SOL    HW152379   3.919   5.271   4.546 -0.7542  0.9192  1.3650
13302SOL    HW252380   3.950   5.194   4.687 -0.2698  0.2876  0.9166
13303SOL     OW52381   0.233   7.740   2.108 -0.2247 -0.6418 -0.0800
13303SOL    HW152382   0.248   7.730   2.207  0.1063  1.5482  0.1267
13303SOL    HW252383   0.283   7.669   2.059 -1.5211 -2.6369  1.3886
13304SOL     OW52384   1.626   1.041   1.950 -0.6419 -0.1333 -0.2850
13304SOL    HW152385   1.719   1.046   1.985 -0.7860 -0.5850  0.1798
13304SOL    HW252386   1.624   0.986   1.866 -0.5987 -0.7197  0.0980
13305SOL     OW52387   6.778   2.526   8.338 -0.3520  0.3500 -0.0677
13305SOL    HW152388   6.738   2.606   8.294  0.1778  0.4359 -0.3999
13305SOL    HW252389   6.839   2.555   8.412  0.4602  0.2882 -0.7051
13306SOL     OW52390   4.681   8.600   9.000 -0.2018  0.2732 -0.0556
13306SOL    HW152391   4.713   8.508   8.976 -1.3127  0.0345 -0.6947
13306SOL    HW252392   4.650   8.647   8.917  0.8067  1.4148  0.1975
13307SOL     OW52393   7.397   4.129   4.479 -0.4594 -0.2657 -0.7025
13307SOL    HW152394   7.340   4.138   4.561  0.2755 -0.2795 -0.1820
13307SOL    HW252395   7.342   4.093   4.404 -1.1990 -0.0401 -0.2795
13308SOL     OW52396   0.924   6.204   6.480  0.2775 -0.2185  0.0323
13308SOL    HW152397   0.946   6.278   6.543 -1.5096  0.4793 -0.1156
13308SOL    HW252398   0.892   6.125   6.532  0.4549 -0.2384  0.1081
13309SOL     OW52399   4.805   0.678   7.210 -0.0836 -0.1964  0.4843
13309SOL    HW152400   4.888   0.623   7.205  1.1664  1.3617  2.9679
13309SOL    HW252401   4.786   0.719   7.120  1.5221 -0.9781 -0.2260
13310SOL     OW52402   6.385   1.843   8.201  0.4034 -0.0347 -0.0830
13310SOL    HW152403   6.321   1.795   8.141  0.6322 -0.5421  0.0762
13310SOL    HW252404   6.479   1.815   8.180  0.4958 -0.1080  0.4115
13311SOL     OW52405   3.771   0.773   2.019 -0.0596 -0.0127 -0.0859
13311SOL    HW152406   3.786   0.674   2.027 -1.9969 -0.3687 -0.6168
13311SOL    HW252407   3.780   0.800   1.923  0.9626  0.4352  0.1246
13312SOL     OW52408   4.844   7.468   4.850 -0.2598  0.5000  0.1961
13312SOL    HW152409   4.779   7.510   4.913 -2.0814 -2.6320  0.5374
13312SOL    HW252410   4.893   7.394   4.897 -0.9527 -1.2603 -1.7516
13313SOL     OW52411   0.960   1.354   7.480 -0.4866 -0.0385  0.2490
13313SOL    HW152412   1.041   1.362   7.423 -0.4717  1.3954  0.4502
13313SOL    HW252413   0.960   1.426   7.549 -1.4902 -0.5615  0.8169
13314SOL     OW52414   7.982   4.327   4.051 -0.1621  0.0580 -0.1912
13314SOL    HW152415   8.055   4.344   4.117 -0.7635 -3.5457  1.5354
13314SOL    HW252416   7.896   4.310   4.100 -1.3622  0.6232 -2.0536
13315SOL     OW52417   3.506   3.677   5.715 -0.2174 -0.3314 -0.1852
13315SOL    HW152418   3.515   3.706   5.620 -2.3119  2.3455  0.3792
13315SOL    HW252419   3.410   3.682   5.743 -0.1954 -4.4719  1.0865
13316SOL     OW52420   0.437   8.110   1.450  0.1835 -0.2461 -0.2646
13316SOL    HW152421   0.358   8.061   1.411 -1.4824  0.7927  1.6790
13316SOL    HW252422   0.414   8.207   1.460  1.7238  0.0631  0.3440
13317SOL     OW52423   6.756   8.927   1.818  0.6121 -0.5038  0.6664
13317SOL    HW152424   6.720   9.001   1.762 -0.1728  0.2358  2.1131
13317SOL    HW252425   6.708   8.842   1.795  0.0082 -0.1267  0.5113
13318SOL     OW52426   1.634   6.829   8.095  0.4066 -0.1148 -0.0131
13318SOL    HW152427   1.600   6.780   8.015 -0.2910 -1.7262  1.2416
13318SOL    HW252428   1.689   6.907   8.066 -0.3113 -0.3563 -2.0538
13319SOL     OW52429   0.188   7.983   0.661  0.2803 -0.3278 -0.4066
13319SOL    HW152430   0.140   8.057   0.614  0.2852  0.4149  0.7478
13319SOL    HW252431   0.122   7.917   0.696  0.3143 -1.3560 -2.1930
13320SOL     OW52432   5.097   7.273   6.711 -0.3951 -0.5202 -0.5180
13320SOL    HW152433   5.078   7.371   6.697  1.2858 -0.1330 -0.1783
13320SOL    HW252434   5.195   7.257   6.702 -0.3447 -1.7688  1.8711
13321SOL     OW52435   0.533   3.173   7.650 -0.4172 -0.2469 -0.0823
13321SOL    HW152436   0.444   3.139   7.679  0.1373 -1.9531 -0.3196
13321SOL    HW252437   0.524   3.224   7.565 -0.9901 -1.5628 -0.8319
13322SOL     OW52438   7.592   0.403   6.577  0.0891  0.6620  0.6902
13322SOL    HW152439   7.661   0.340   6.615  0.2956  0.4070 -0.1010
13322SOL    HW252440   7.613   0.421   6.481 -0.2383  1.5800  0.7897
13323SOL     OW52441   5.490   3.579   7.991 -0.3697  0.3839 -0.5324
13323SOL    HW152442   5.577   3.618   8.019 -0.3582 -0.2638  0.3555
13323SOL    HW252443   5.506   3.498   7.935 -0.3923 -0.4524  0.6536
13324SOL     OW52444   5.263   4.321   5.101 -0.3080  0.2547  0.1932
13324SOL    HW152445   5.351   4.272   5.102 -0.7143 -0.4720  1.0495
13324SOL    HW252446   5.190   4.259   5.130 -0.8786  1.3085  1.0295
13325SOL     OW52447   3.385   8.108   8.238 -0.5202  1.2528 -0.1714
13325SOL    HW152448   3.433   8.057   8.309  0.4083  3.3999  0.7703
13325SOL    HW252449   3.287   8.090   8.244 -0.0463 -1.9909 -1.1636
13326SOL     OW52450   5.020   0.231   4.313 -0.5492 -0.1318  0.5667
13326SOL    HW152451   4.928   0.199   4.291 -0.6303 -0.4308  1.3466
13326SOL    HW252452   5.078   0.222   4.232 -0.5491 -2.3142  0.7912
13327SOL     OW52453   5.014   7.492   4.039 -0.5254  0.1216  0.1339
13327SOL    HW152454   5.069   7.423   3.991 -0.1146  1.3900 -1.2580
13327SOL    HW252455   5.034   7.488   4.137  0.3221 -0.9736 -0.0641
13328SOL     OW52456   5.386   2.428   8.875 -0.5382 -0.0960 -0.3801
13328SOL    HW152457   5.481   2.417   8.848 -1.0048 -0.4764 -1.9154
13328SOL    HW252458   5.338   2.341   8.863 -1.6093  0.6774 -1.8450
13329SOL     OW52459   4.126   6.975   8.253 -0.2169  0.3139 -0.4616
13329SOL    HW152460   4.059   7.012   8.317  0.9347 -0.2889  1.1179
13329SOL    HW252461   4.081   6.907   8.194 -1.2302  0.6972 -0.1491
13330SOL     OW52462   0.169   1.461   3.548 -0.0146  0.2365 -0.4396
13330SOL    HW152463   0.185   1.545   3.601  0.6251 -0.7378  0.9367
13330SOL    HW252464   0.256   1.428   3.512 -0.2997  0.2924 -1.1715
13331SOL     OW52465   6.763   7.391   1.237 -0.4575 -0.4756  0.4164
13331SOL    HW152466   6.677   7.402   1.187 -1.1038 -3.5466  0.7701
13331SOL    HW252467   6.771   7.463   1.306 -1.9362  0.8191 -0.7329
13332SOL     OW52468   8.132   6.084   0.723  0.2703 -0.2971 -0.4035
13332SOL    HW152469   8.068   6.160   0.714  2.1795  1.2092 -1.7486
13332SOL    HW252470   8.220   6.118   0.757  1.0215 -1.9651 -0.5854
13333SOL     OW52471   5.725   6.704   7.560 -0.1757  0.3039  0.1261
13333SOL    HW152472   5.640   6.749   7.532 -1.2781 -0.3516  2.3290
13333SOL    HW252473   5.757   6.744   7.646  0.4425 -1.0697  0.5506
13334SOL     OW52474   6.092   2.843   8.396 -0.5257 -0.7229  0.1407
13334SOL    HW152475   6.184   2.805   8.392 -1.1105 -2.5319  2.6611
13334SOL    HW252476   6.031   2.788   8.338 -0.2142 -0.1326 -0.7433
13335SOL     OW52477   0.309   0.431   6.574 -0.5589 -0.0145 -1.0732
13335SOL    HW152478   0.402   0.466   6.561 -0.1165 -0.1567  1.3045
13335SOL    HW252479   0.243   0.505   6.565  0.1997  1.0988  1.7459
13336SOL     OW52480   6.193   2.135   2.849  0.4274 -0.0642  0.1270
13336SOL    HW152481   6.218   2.147   2.945 -0.9882 -1.3501  0.6815
13336SOL    HW252482   6.098   2.161   2.835  1.0456  1.4993 -1.2403
13337SOL     OW52483   3.899   7.989   6.436 -0.2028  0.1178  0.4943
13337SOL    HW152484   3.826   8.056   6.447 -0.3385  0.2894 -1.3386
13337SOL    HW252485   3.862   7.904   6.398  0.6407  0.4782 -1.2150
13338SOL     OW52486   1.577   5.103   4.112 -0.0858  0.3801  0.1229
13338SOL    HW152487   1.616   5.122   4.202  0.9131 -0.0413 -0.2165
13338SOL    HW252488   1.493   5.050   4.122 -0.3842  0.9694  0.8377
13339SOL     OW52489   5.183   5.434   3.937  0.5992  0.0881  0.1934
13339SOL    HW152490   5.191   5.358   4.002 -2.4794 -1.1328 -0.7700
13339SOL    HW252491   5.254   5.425   3.867  0.4700 -1.7474  0.2713
13340SOL     OW52492   8.916   4.886   0.038 -0.0142  0.1148  0.4481
13340SOL    HW152493   8.967   4.863   0.120 -1.2350  0.7774  1.4085
13340SOL    HW252494   8.830   4.836   0.036  0.1074 -0.0735 -0.5472
13341SOL     OW52495   4.802   3.818   8.841  0.3268  0.2854  0.0484
13341SOL    HW152496   4.901   3.810   8.827  0.4614 -0.8304  1.5167
13341SOL    HW252497   4.784   3.843   8.937 -0.8576 -0.9032  0.1576
13342SOL     OW52498   1.886   2.555   0.632 -0.2288  0.5289 -0.0570
13342SOL    HW152499   1.889   2.648   0.597  3.1480  0.4555 -0.1802
13342SOL    HW252500   1.839   2.496   0.567 -1.1118  1.8601 -0.6478
13343SOL     OW52501   6.846   7.733   7.634 -0.5136  0.4620 -0.3777
13343SOL    HW152502   6.850   7.643   7.678  0.3132 -0.5433 -2.4422
13343SOL    HW252503   6.795   7.726   7.548 -1.3461  2.2039 -0.0492
13344SOL     OW52504   7.448   1.703   2.701 -0.0874 -0.2870 -0.0303
13344SOL    HW152505   7.425   1.606   2.714 -3.1062  0.3916  0.0439
13344SOL    HW252506   7.473   1.744   2.789 -0.9731 -0.4673  0.3047
13345SOL     OW52507   5.778   3.803   8.311 -0.0423  0.7945 -0.3618
13345SOL    HW152508   5.706   3.787   8.378 -0.8819  3.7430 -0.5311
13345SOL    HW252509   5.861   3.834   8.358  0.5356 -0.6439 -0.3783
13346SOL     OW52510   4.033   0.408   6.452  0.1384  0.4360  0.0517
13346SOL    HW152511   4.014   0.338   6.383  1.0931 -0.8997  1.1163
13346SOL    HW252512   4.030   0.498   6.410 -0.4326 -0.2858 -1.4863
13347SOL     OW52513   7.838   1.180   7.193 -0.0708  0.2092 -0.1584
13347SOL    HW152514   7.928   1.216   7.214 -0.1324  0.4517 -0.3060
13347SOL    HW252515   7.792   1.152   7.277 -0.2559  1.0242  0.0117
13348SOL     OW52516   0.647   8.398   1.593  0.3232  0.3210 -0.2291
13348SOL    HW152517   0.705   8.454   1.653 -0.4532  0.4233  0.4382
13348SOL    HW252518   0.674   8.302   1.603 -1.0908  0.0884  1.8226
13349SOL     OW52519   4.370   4.068   6.879  0.0302 -0.1419  0.7448
13349SOL    HW152520   4.334   3.997   6.940 -0.4433  0.3163  1.0033
13349SOL    HW252521   4.328   4.155   6.901 -1.1797 -0.2147 -1.1410
13350SOL     OW52522   5.727   7.985   2.952  0.4631  0.2011 -0.3273
13350SOL    HW152523   5.718   8.037   2.867 -0.6805 -0.2509 -0.4953
13350SOL    HW252524   5.765   7.895   2.933  3.1650  1.2193  0.0624
13351SOL     OW52525   7.856   1.348   6.566  0.1152  1.0570 -0.2340
13351SOL    HW152526   7.874   1.274   6.501  1.4078  1.2488 -0.1138
13351SOL    HW252527   7.943   1.388   6.596 -0.4222  0.6235  2.0212
13352SOL     OW52528   6.379   0.360   7.985  0.2709 -0.1658 -0.0109
13352SOL    HW152529   6.461   0.407   7.953  1.3169 -1.2062  1.0998
13352SOL    HW252530   6.386   0.344   8.084 -2.5279  2.2907  0.6593
13353SOL     OW52531   3.516   3.936   2.959  0.2803 -0.3283 -0.2701
13353SOL    HW152532   3.604   3.975   2.935 -0.1569  0.5203 -0.5142
13353SOL    HW252533   3.526   3.837   2.974  1.6365  0.0622  1.5916
13354SOL     OW52534   0.387   5.398   5.903  0.5750 -0.0250  0.0015
13354SOL    HW152535   0.380   5.299   5.899 -0.2535  0.0389 -0.3083
13354SOL    HW252536   0.479   5.427   5.876  1.2897 -0.7939  1.5321
13355SOL     OW52537   4.020   2.392   8.158  0.2169  0.4698 -0.0930
13355SOL    HW152538   4.016   2.318   8.091  0.5453  0.2132  0.1672
13355SOL    HW252539   4.002   2.356   8.249  0.5116  0.6853  0.0518
13356SOL     OW52540   6.116   7.230   4.686 -0.0500 -0.2319  0.2060
13356SOL    HW152541   6.150   7.152   4.738 -0.5394 -0.9312 -0.5279
13356SOL    HW252542   6.035   7.267   4.730 -1.1914 -1.5907 -0.7293
13357SOL     OW52543   7.078   6.312   8.314  0.2310  0.5178  0.3592
13357SOL    HW152544   7.020   6.297   8.394 -0.6480 -0.0810 -0.3675
13357SOL    HW252545   7.101   6.409   8.306  1.4585  0.3828  2.0902
13358SOL     OW52546   4.915   5.296   6.064 -0.2824  0.1593  0.4120
13358SOL    HW152547   5.014   5.279   6.064 -0.0414  1.4915  0.3273
13358SOL    HW252548   4.885   5.318   6.157  0.0071  2.4216  0.0129
13359SOL     OW52549   7.374   3.404   1.096  0.1003 -0.2247  0.0063
13359SOL    HW152550   7.315   3.324   1.106 -0.0206 -0.2642 -0.9705
13359SOL    HW252551   7.335   3.466   1.029  0.6076  0.2690  0.1691
13360SOL     OW52552   2.339   6.409   4.260  0.1992 -0.0988 -0.3190
13360SOL    HW152553   2.417   6.464   4.290  0.1559 -0.2387  0.0519
13360SOL    HW252554   2.258   6.466   4.254  0.3795  0.0931 -0.9144
13361SOL     OW52555   3.413   8.726   4.311 -0.7576 -0.2936 -0.5842
13361SOL    HW152556   3.511   8.709   4.298 -0.6337  0.7611 -1.1385
13361SOL    HW252557   3.370   8.736   4.221 -1.4844 -1.3132 -0.3556
13362SOL     OW52558   6.608   1.622   0.011 -0.6709 -0.0695  0.2462
13362SOL    HW152559   6.528   1.593   0.063 -1.1949  0.5351 -0.2182
13362SOL    HW252560   6.638   1.547  -0.048 -0.4578 -0.5380  0.9422
13363SOL     OW52561   7.042   5.399   1.177 -0.3006 -0.2539  0.3079
13363SOL    HW152562   7.056   5.463   1.102  1.8688 -1.3819 -0.2875
13363SOL    HW252563   7.092   5.430   1.258 -1.0377 -0.0743  0.7069
13364SOL     OW52564   3.740   4.122   8.756 -0.2271  0.2264  0.0714
13364SOL    HW152565   3.808   4.140   8.686 -0.1304 -0.2344  0.0498
13364SOL    HW252566   3.695   4.034   8.739 -1.0648  0.6802 -0.1074
13365SOL     OW52567   5.932   5.115   6.047  0.7543 -0.0278 -0.5058
13365SOL    HW152568   5.974   5.067   5.969 -0.7167  0.5342 -1.6634
13365SOL    HW252569   5.843   5.074   6.067  0.5191  0.7225  0.0027
13366SOL     OW52570   3.532   8.339   1.005 -0.1898 -0.2953 -0.0597
13366SOL    HW152571   3.581   8.421   1.034 -0.2070 -0.9137  1.7939
13366SOL    HW252572   3.501   8.288   1.086  0.4584 -2.5052 -1.1484
13367SOL     OW52573   3.315   2.691   8.759  0.3801  0.1548  0.2157
13367SOL    HW152574   3.325   2.661   8.854  0.1504 -0.7988 -0.0607
13367SOL    HW252575   3.389   2.653   8.704 -0.3943 -0.6256 -0.3055
13368SOL     OW52576   4.865   2.731   8.572  0.0909  0.0646 -0.6616
13368SOL    HW152577   4.944   2.764   8.521 -1.8404  2.4970 -2.1307
13368SOL    HW252578   4.830   2.647   8.529  2.1152 -1.3139  0.2914
13369SOL     OW52579   0.011   3.243   4.097 -0.0577  0.3875 -0.3221
13369SOL    HW152580  -0.060   3.296   4.050 -0.6445  1.5576  1.8086
13369SOL    HW252581  -0.013   3.146   4.093 -2.6338  0.8692  1.6537
13370SOL     OW52582   1.370   2.232   2.063  0.4000  0.1913  0.3821
13370SOL    HW152583   1.306   2.278   2.124  1.5517  0.6090  1.3065
13370SOL    HW252584   1.323   2.160   2.012 -1.0364  1.2559  0.1983
13371SOL     OW52585   4.549   1.268   5.150  0.6209 -0.5075 -0.1310
13371SOL    HW152586   4.521   1.364   5.152 -1.5632 -1.1239  0.6249
13371SOL    HW252587   4.478   1.212   5.192  1.9032 -2.4614 -0.5017
13372SOL     OW52588   3.930   7.016   4.449  0.0356  0.2260 -0.1549
13372SOL    HW152589   4.020   7.044   4.481  0.6400 -0.5482 -1.1850
13372SOL    HW252590   3.896   7.082   4.382 -0.1846  0.5377  0.2609
13373SOL     OW52591   4.572   0.754   6.157 -0.5931  0.7570 -0.0503
13373SOL    HW152592   4.502   0.715   6.097  0.1478 -0.3121 -0.2345
13373SOL    HW252593   4.586   0.693   6.236  1.5200 -0.0465 -1.0171
13374SOL     OW52594   1.938   1.217   0.348 -0.1852 -0.2888  0.1676
13374SOL    HW152595   1.848   1.260   0.342 -0.4297 -0.2583  3.4348
13374SOL    HW252596   1.978   1.235   0.438  2.2321 -1.9919 -0.5188
13375SOL     OW52597   7.034   4.446   3.576 -1.0994  0.0746  0.6101
13375SOL    HW152598   7.101   4.423   3.505 -2.5580 -2.2896 -0.0587
13375SOL    HW252599   7.018   4.545   3.576 -1.2946  0.1147 -2.5738
13376SOL     OW52600   0.379   5.938   8.102  0.1441 -0.1494  0.1211
13376SOL    HW152601   0.283   5.948   8.077  0.0887 -1.2543 -0.1025
13376SOL    HW252602   0.386   5.909   8.197  0.2113 -1.3237 -0.2306
13377SOL     OW52603   2.550   7.232   0.105 -0.3497 -0.4281  0.2585
13377SOL    HW152604   2.518   7.302   0.170  0.4729  0.4168 -0.2331
13377SOL    HW252605   2.534   7.141   0.144 -2.6230 -0.0288  0.3568
13378SOL     OW52606   0.930   0.914   3.901  0.7907 -0.8838 -0.3890
13378SOL    HW152607   0.948   0.880   3.994  0.0387 -1.1608 -0.3411
13378SOL    HW252608   0.835   0.896   3.877  0.8441 -0.3382 -1.0183
13379SOL     OW52609   4.318   7.152   2.400  0.2862  0.2026 -0.7455
13379SOL    HW152610   4.310   7.137   2.498  1.8776  2.0753 -0.3106
13379SOL    HW252611   4.291   7.246   2.378 -1.4872 -0.6128 -2.3243
13380SOL     OW52612   7.145   8.638   1.758  0.2582 -0.1639 -0.2464
13380SOL    HW152613   7.077   8.700   1.717 -1.0083 -0.1533  1.7916
13380SOL    HW252614   7.113   8.543   1.748 -0.9893 -0.0532  2.2822
13381SOL     OW52615   2.274   3.192   2.776 -0.0233  0.1207  0.2260
13381SOL    HW152616   2.203   3.185   2.846 -1.7071  1.3451 -1.2898
13381SOL    HW252617   2.312   3.284   2.776  0.4090 -0.0586 -0.0275
13382SOL     OW52618   1.006   8.321   5.445  0.4632  0.0415 -0.3682
13382SOL    HW152619   0.959   8.390   5.390 -0.0680 -0.0931 -0.0886
13382SOL    HW252620   0.939   8.273   5.502  0.6320 -1.6339 -1.5507
13383SOL     OW52621   1.372   0.901   6.596 -0.1372 -0.3899  0.2896
13383SOL    HW152622   1.340   0.855   6.678  0.3005  3.2122  2.6226
13383SOL    HW252623   1.472   0.901   6.595 -0.1287  0.6588  0.4387
13384SOL     OW52624   0.595   2.007   0.195  0.4173 -0.0321 -0.1634
13384SOL    HW152625   0.534   2.059   0.256 -0.1700 -1.5147  0.5511
13384SOL    HW252626   0.683   1.994   0.240  1.0622  1.5306 -0.9225
13385SOL     OW52627   1.299   6.246   8.258  0.1336 -0.2910  0.2752
13385SOL    HW152628   1.360   6.205   8.326  0.6458 -0.3683 -0.2261
13385SOL    HW252629   1.321   6.344   8.249 -0.4338 -0.1143  0.7582
13386SOL     OW52630   0.946   3.304   6.157 -0.3753  0.5624 -0.0966
13386SOL    HW152631   0.928   3.262   6.245  1.4575  0.8830  0.4446
13386SOL    HW252632   0.885   3.264   6.088 -1.1962 -0.3205  1.1183
13387SOL     OW52633   6.984   2.565   2.531  0.2445 -0.3013  0.6108
13387SOL    HW152634   6.997   2.657   2.492  0.7193 -0.7942 -0.4195
13387SOL    HW252635   7.028   2.561   2.621  2.9181 -0.4131 -0.6443
13388SOL     OW52636   8.367   0.026   1.863 -0.6267  0.1096 -0.4779
13388SOL    HW152637   8.388  -0.015   1.952 -0.9784  0.1986 -0.3497
13388SOL    HW252638   8.268   0.024   1.849 -0.9109  3.2702  0.6733
13389SOL     OW52639   3.632   3.951   3.698  0.1782  0.5154 -0.1431
13389SOL    HW152640   3.676   3.880   3.643 -1.9226 -1.0505  0.1262
13389SOL    HW252641   3.677   3.956   3.788  1.0526  0.3017 -0.5687
13390SOL     OW52642   7.500   5.602   8.741 -0.3924 -0.2002  0.1565
13390SOL    HW152643   7.579   5.662   8.729 -0.6558 -0.0771 -0.9934
13390SOL    HW252644   7.493   5.575   8.838  0.1295  1.0567  0.5569
13391SOL     OW52645   4.831   0.813   6.079 -0.3056  0.0698  0.6757
13391SOL    HW152646   4.750   0.773   6.122 -0.2919  1.1580  1.7769
13391SOL    HW252647   4.803   0.880   6.011 -0.3704  1.3039  1.8808
13392SOL     OW52648   7.988   6.650   5.317  0.5463  0.3755 -0.1993
13392SOL    HW152649   8.058   6.619   5.382  0.4523 -1.0535 -0.7792
13392SOL    HW252650   7.898   6.618   5.346 -0.1847  3.8576  1.6202
13393SOL     OW52651   5.088   5.862   7.993 -0.5400  0.7715 -0.0341
13393SOL    HW152652   5.086   5.955   8.031  0.1384  0.5794  0.4844
13393SOL    HW252653   5.026   5.857   7.915  0.2942  1.9768 -0.7837
13394SOL     OW52654   7.172   3.199   1.013 -0.0002 -0.2074  0.6073
13394SOL    HW152655   7.152   3.272   0.947 -2.2090 -2.1122 -0.9189
13394SOL    HW252656   7.117   3.213   1.095 -0.6286 -0.2730  0.2056
13395SOL     OW52657   4.001   6.195   6.638  0.3734  0.3140  0.5071
13395SOL    HW152658   3.917   6.244   6.658  0.7575  0.3176  2.1929
13395SOL    HW252659   4.079   6.256   6.649  0.6545  0.1087 -0.3008
13396SOL     OW52660   1.718   6.836   2.519 -0.9006  0.2787  0.1610
13396SOL    HW152661   1.653   6.906   2.488 -1.0114 -0.4692 -1.3175
13396SOL    HW252662   1.811   6.863   2.494 -0.9722 -0.2421 -0.6638
13397SOL     OW52663   0.794   5.202   4.294  0.3300  0.2536 -0.4242
13397SOL    HW152664   0.740   5.190   4.377  1.9122 -0.1808  0.5525
13397SOL    HW252665   0.885   5.237   4.317  1.1563 -0.8819 -1.8472
13398SOL     OW52666   3.060   3.696   4.000 -0.1770 -0.5585  0.0957
13398SOL    HW152667   3.003   3.738   3.929  1.8044  1.0802 -0.5744
13398SOL    HW252668   3.107   3.767   4.051  0.8362 -1.8648  1.0110
13399SOL     OW52669   8.674   3.814   8.456 -0.4931  0.5960 -0.3667
13399SOL    HW152670   8.762   3.836   8.415 -0.1615 -1.8207 -1.0044
13399SOL    HW252671   8.601   3.840   8.393 -0.2095  1.6257 -0.2856
13400SOL     OW52672   7.436   7.217   0.225  0.0414 -0.1722  0.1287
13400SOL    HW152673   7.524   7.222   0.177 -0.0781 -0.3599 -0.1129
13400SOL    HW252674   7.449   7.172   0.313  0.0368 -0.9734 -0.2746
13401SOL     OW52675   5.639   6.936   4.931  0.4816  0.0027 -0.4365
13401SOL    HW152676   5.664   6.965   4.839  2.2267 -2.8248 -0.9068
13401SOL    HW252677   5.620   6.838   4.931  2.5837 -0.4804  2.6166
13402SOL     OW52678   5.502   6.924   1.670  0.1133 -0.4808  0.3309
13402SOL    HW152679   5.509   6.914   1.770  0.5287  0.3245  0.3902
13402SOL    HW252680   5.512   7.021   1.646 -0.7945 -0.5763 -0.4295
13403SOL     OW52681   1.661   6.129   0.691 -0.3952  0.1090  1.1407
13403SOL    HW152682   1.746   6.169   0.656 -0.4435 -0.6913  0.0965
13403SOL    HW252683   1.671   6.030   0.697 -1.2287  0.0199  1.1049
13404SOL     OW52684   8.349   8.000   1.926 -0.2662 -0.3842 -0.1584
13404SOL    HW152685   8.325   8.001   1.829 -0.2903 -1.1193 -0.1566
13404SOL    HW252686   8.429   7.942   1.940 -0.0352  0.0137  0.2127
13405SOL     OW52687   7.091   0.529   2.107  0.3829 -0.2131 -0.4274
13405SOL    HW152688   7.118   0.604   2.167 -0.6768  0.2508 -0.5165
13405SOL    HW252689   7.160   0.457   2.110  2.4602  1.6274 -1.9024
13406SOL     OW52690   3.829   3.045   0.936  0.0025 -0.1785 -0.7790
13406SOL    HW152691   3.882   3.089   0.864 -1.7462  0.6586 -1.5827
13406SOL    HW252692   3.797   2.956   0.905 -1.0053  0.3083 -1.1935
13407SOL     OW52693   4.713   3.051   6.211 -0.3650 -0.2493  0.3645
13407SOL    HW152694   4.789   3.111   6.185 -0.6262  1.2127  2.7523
13407SOL    HW252695   4.627   3.091   6.180 -0.5220  0.5734  1.7887
13408SOL     OW52696   4.173   1.475   3.966  0.1839  0.7363 -0.6623
13408SOL    HW152697   4.234   1.435   3.898 -0.6196 -1.9151  0.1123
13408SOL    HW252698   4.224   1.497   4.049  0.6660  1.5408 -1.1642
13409SOL     OW52699   0.356   7.672   2.997 -0.5689 -0.3403  0.1892
13409SOL    HW152700   0.384   7.746   3.057 -0.0216 -0.7014  0.3860
13409SOL    HW252701   0.278   7.701   2.942  0.4176  0.8097 -0.6300
13410SOL     OW52702   2.298   7.299   7.430 -0.0110  0.7756  0.6700
13410SOL    HW152703   2.393   7.276   7.408 -0.1781  0.1911  0.5620
13410SOL    HW252704   2.237   7.234   7.386 -0.3824 -0.0521  2.3724
13411SOL     OW52705   7.416   1.777   7.145  0.0180 -0.1024  0.3696
13411SOL    HW152706   7.502   1.726   7.147  0.2557  0.2503 -0.6165
13411SOL    HW252707   7.352   1.731   7.084  0.3703  0.9792 -0.8362
13412SOL     OW52708   3.458   4.858   6.521 -0.3428 -0.3608 -0.1107
13412SOL    HW152709   3.547   4.817   6.541 -0.4193 -1.1350 -1.3225
13412SOL    HW252710   3.447   4.942   6.574  1.7937  0.6048 -1.1674
13413SOL     OW52711   5.228   0.204   5.165 -0.2294  0.3769 -0.2184
13413SOL    HW152712   5.253   0.292   5.126 -0.2077  0.4711  0.0059
13413SOL    HW252713   5.299   0.136   5.143 -1.6692 -0.3135 -2.9079
13414SOL     OW52714   7.991   0.066   6.911  0.1337  0.4026  0.2287
13414SOL    HW152715   7.922   0.138   6.914 -0.3337 -0.0622  0.7051
13414SOL    HW252716   8.031   0.062   6.819 -1.6654 -0.4367 -0.5459
13415SOL     OW52717   8.363   7.927   0.579 -0.2498 -0.0736 -0.3548
13415SOL    HW152718   8.458   7.945   0.554  0.1008  0.7815  1.4664
13415SOL    HW252719   8.304   7.940   0.500  1.0120  0.6055 -1.1954
13416SOL     OW52720   3.269   2.616   0.028  0.1403 -0.1024 -0.1196
13416SOL    HW152721   3.341   2.554   0.059  0.4522  0.8057  0.9654
13416SOL    HW252722   3.212   2.643   0.106 -0.1795  0.7404 -0.6424
13417SOL     OW52723   0.948   6.735   5.852 -0.3513  0.1470 -0.5548
13417SOL    HW152724   0.897   6.799   5.909 -0.3831  0.3419 -0.8029
13417SOL    HW252725   1.002   6.674   5.910 -0.5710  0.1906 -0.3072
13418SOL     OW52726   5.902   6.898   5.755  0.2592 -0.1908  0.0250
13418SOL    HW152727   5.976   6.841   5.719  0.6454  0.3074  0.0148
13418SOL    HW252728   5.940   6.961   5.824 -0.4510 -1.0662  1.2353
13419SOL     OW52729   0.988   3.976   0.508  0.9767 -0.6762 -0.1189
13419SOL    HW152730   1.072   3.985   0.561  0.0955  1.6521  0.9500
13419SOL    HW252731   1.009   3.988   0.411  2.1023 -1.7370 -0.0254
13420SOL     OW52732   5.701   6.324   8.325  0.6416  0.1643  0.5931
13420SOL    HW152733   5.762   6.333   8.247 -0.3428 -2.1094 -0.4802
13420SOL    HW252734   5.633   6.398   8.323  0.1694 -0.2890 -1.1283
13421SOL     OW52735   5.735   5.879   3.206 -0.1572 -0.4602 -0.2280
13421SOL    HW152736   5.736   5.929   3.292  0.2393  1.5081 -1.3541
13421SOL    HW252737   5.795   5.799   3.213 -0.0273 -0.2456  1.2614
13422SOL     OW52738   4.639   7.509   8.680 -0.0585  0.0022 -0.5023
13422SOL    HW152739   4.683   7.477   8.596  0.8816  0.7146 -0.2902
13422SOL    HW252740   4.545   7.476   8.683  0.1149 -0.5994 -1.5083
13423SOL     OW52741   2.706   4.380   1.947 -0.5238 -0.1471  0.0746
13423SOL    HW152742   2.800   4.389   1.916 -1.4838 -3.0479 -4.1239
13423SOL    HW252743   2.694   4.293   1.994 -1.4468 -0.5357 -0.8553
13424SOL     OW52744   1.249   5.509   4.780 -0.2417  0.2688 -0.4304
13424SOL    HW152745   1.332   5.554   4.815 -0.3201  0.6513 -0.7296
13424SOL    HW252746   1.264   5.411   4.774  0.5702  0.4504 -1.5315
13425SOL     OW52747   3.540   2.357   2.714 -0.8322 -0.1796  0.1465
13425SOL    HW152748   3.489   2.272   2.701  0.0303 -0.6087 -0.5458
13425SOL    HW252749   3.600   2.348   2.794 -1.2924  0.0544  0.5201
13426SOL     OW52750   7.287   6.961   8.263 -0.9097  0.3803  0.2823
13426SOL    HW152751   7.243   6.891   8.207  0.1491 -1.0930  1.2501
13426SOL    HW252752   7.217   7.023   8.299 -1.7734  0.3175 -1.2610
13427SOL     OW52753   3.569   6.237   4.346  0.0165  0.2443 -0.5108
13427SOL    HW152754   3.656   6.229   4.298 -1.1614 -1.5255 -2.4286
13427SOL    HW252755   3.581   6.206   4.441  1.6067  0.6801 -0.5445
13428SOL     OW52756   3.557   7.308   4.886  0.2753  0.2332  0.5064
13428SOL    HW152757   3.591   7.359   4.807 -1.2776 -0.3794 -0.5754
13428SOL    HW252758   3.628   7.245   4.918  0.5685 -0.2021 -0.9873
13429SOL     OW52759   6.643   0.157   6.608 -0.1593 -0.0199 -0.9339
13429SOL    HW152760   6.640   0.154   6.708 -1.4370  0.8335 -0.9424
13429SOL    HW252761   6.737   0.176   6.579  0.1322  0.1854  0.1128
13430SOL     OW52762   2.314   8.983   3.651 -0.3309  0.0362  0.4061
13430SOL    HW152763   2.379   8.915   3.616  0.1663  1.2428 -1.0582
13430SOL    HW252764   2.353   9.029   3.731  0.0685 -0.1587  0.3248
13431SOL     OW52765   3.297   4.148   2.886  0.4299  0.1307  0.0759
13431SOL    HW152766   3.359   4.069   2.891  3.0436  2.0476 -1.1875
13431SOL    HW252767   3.246   4.155   2.972  3.1148 -0.5832  1.7952
13432SOL     OW52768   4.699   0.045   7.770 -0.2593 -0.0411 -0.6155
13432SOL    HW152769   4.771   0.111   7.750  0.3577 -0.4088  0.3486
13432SOL    HW252770   4.651   0.022   7.685  1.4427 -0.5740 -1.4667
13433SOL     OW52771   3.470   1.939   2.978 -0.0625  0.2145 -0.0866
13433SOL    HW152772   3.473   1.839   2.979 -2.8201  0.1074  0.9929
13433SOL    HW252773   3.437   1.971   2.890  1.3259  0.2104 -0.6187
13434SOL     OW52774   8.736   0.433   6.078  0.2151  0.1408  0.5548
13434SOL    HW152775   8.682   0.461   6.157  0.2406 -1.1833  1.0536
13434SOL    HW252776   8.815   0.493   6.068 -0.3657  0.9621  0.9007
13435SOL     OW52777   6.733   5.738   2.702 -0.4105 -0.2802  0.2543
13435SOL    HW152778   6.780   5.710   2.785  0.1320  1.9166  0.7192
13435SOL    HW252779   6.763   5.682   2.625  0.7112 -0.8728  1.1243
13436SOL     OW52780   4.924   5.482   7.417 -0.2807 -0.4935  0.5061
13436SOL    HW152781   4.885   5.504   7.506 -3.0925  1.1135 -1.0849
13436SOL    HW252782   4.898   5.389   7.391  1.1112 -1.2220  1.5973
13437SOL     OW52783   6.636   7.211   8.968 -0.3662  0.5124  0.5872
13437SOL    HW152784   6.720   7.253   8.935  0.9189 -0.3732  2.6513
13437SOL    HW252785   6.577   7.189   8.891  0.8363  2.0946 -0.8097
13438SOL     OW52786   2.767   8.791   6.376  0.4425 -0.3377 -0.0949
13438SOL    HW152787   2.830   8.866   6.357 -0.5111  1.0174  1.9601
13438SOL    HW252788   2.677   8.828   6.400  0.0189 -2.1199  1.1656
13439SOL     OW52789   5.039   8.350   8.982 -0.1539  0.1517 -0.3553
13439SOL    HW152790   5.090   8.433   9.003 -0.5101  1.1540 -3.2989
13439SOL    HW252791   4.997   8.357   8.892 -0.2491 -3.1999 -0.6614
13440SOL     OW52792   1.361   0.645   7.565 -0.3624 -0.2244 -0.2774
13440SOL    HW152793   1.393   0.680   7.653  0.0211 -0.7390 -0.2107
13440SOL    HW252794   1.348   0.546   7.571 -0.9670 -0.1694 -0.6078
13441SOL     OW52795   7.621   2.560   0.691  0.1003  0.3874  0.4171
13441SOL    HW152796   7.676   2.635   0.730 -0.2801  1.4558 -1.0661
13441SOL    HW252797   7.618   2.570   0.592 -0.6641 -1.1374  0.2843
13442SOL     OW52798   2.519   3.128   1.808  0.2083  0.1522  1.3280
13442SOL    HW152799   2.496   3.195   1.879  1.4977  0.0688  1.8443
13442SOL    HW252800   2.493   3.165   1.718  0.7590  1.2956  1.6172
13443SOL     OW52801   5.096   0.682   3.121 -0.3619  0.8201  0.1790
13443SOL    HW152802   5.085   0.651   3.027  0.2242  1.1221  0.0098
13443SOL    HW252803   5.037   0.628   3.181  0.2376 -0.2377 -0.1902
13444SOL     OW52804   4.362   6.809   7.086  0.1666 -0.3524 -0.2235
13444SOL    HW152805   4.279   6.848   7.126 -0.2438 -0.2406 -1.1946
13444SOL    HW252806   4.437   6.875   7.095  0.4289 -0.8440  1.5724
13445SOL     OW52807   5.461   6.626   5.220  0.1787  0.4264  0.0469
13445SOL    HW152808   5.515   6.542   5.219 -0.6898 -0.1322  0.0822
13445SOL    HW252809   5.435   6.648   5.314 -2.8284 -1.3559 -0.3189
13446SOL     OW52810   6.283   3.207   0.660 -0.2187  0.4404  0.2306
13446SOL    HW152811   6.285   3.113   0.696  0.4961 -0.4103 -1.9350
13446SOL    HW252812   6.197   3.250   0.684  0.5765  0.2613  3.7461
13447SOL     OW52813   0.459   0.397   8.769 -0.2694 -0.1705 -0.7591
13447SOL    HW152814   0.443   0.460   8.845 -0.6151 -0.3157 -0.7095
13447SOL    HW252815   0.550   0.413   8.731  0.3559 -0.8575  0.4177
13448SOL     OW52816   0.710   3.456   8.530  0.2481  0.0460  0.7002
13448SOL    HW152817   0.643   3.448   8.456  0.8527  0.4814  0.1062
13448SOL    HW252818   0.714   3.370   8.581 -0.8437  0.0522  0.8043
13449SOL     OW52819   1.030   5.878   6.831 -0.0026  0.0374  0.1620
13449SOL    HW152820   1.034   5.959   6.773  2.5074  0.0854  0.3679
13449SOL    HW252821   1.077   5.802   6.787  1.4196 -0.0946  1.8194
13450SOL     OW52822   6.671   1.798   7.804  0.2138  0.0273  0.4226
13450SOL    HW152823   6.588   1.754   7.838 -0.4052 -0.6096 -1.8381
13450SOL    HW252824   6.648   1.865   7.734  1.6597 -1.0953 -1.1784
13451SOL     OW52825   8.905   0.021   5.124  0.3528 -0.3600  1.0467
13451SOL    HW152826   8.966  -0.004   5.200  1.3392  0.7902  0.6450
13451SOL    HW252827   8.960   0.040   5.043 -0.6588 -0.8926  0.2270
13452SOL     OW52828   0.659   0.609   3.479  0.0380  0.0205 -0.0877
13452SOL    HW152829   0.743   0.582   3.526 -0.3672 -1.0750  0.0088
13452SOL    HW252830   0.677   0.616   3.380 -0.1411 -1.7855 -0.2600
13453SOL     OW52831   7.016   3.540   1.513  0.0414 -0.5323  0.6551
13453SOL    HW152832   7.082   3.514   1.442  0.5572 -0.7761  1.2243
13453SOL    HW252833   6.998   3.638   1.508  0.2760 -0.5036  0.3627
13454SOL     OW52834   5.186   8.217   1.200  0.3464  0.1234 -0.0877
13454SOL    HW152835   5.285   8.205   1.198  0.5512  1.7465 -0.6530
13454SOL    HW252836   5.159   8.256   1.288  0.2518  0.0749 -0.0957
13455SOL     OW52837   6.483   2.621   1.404  0.2971  0.1403 -0.0755
13455SOL    HW152838   6.433   2.668   1.331 -0.9480  0.5406  1.0208
13455SOL    HW252839   6.488   2.524   1.383  0.6966  0.3679 -1.1053
13456SOL     OW52840   5.622   8.254   1.862 -0.3147 -0.2463  0.1560
13456SOL    HW152841   5.581   8.299   1.782 -0.1193 -0.7626 -0.2402
13456SOL    HW252842   5.641   8.158   1.839  0.5494 -0.1675  0.5433
13457SOL     OW52843   3.485   8.471   7.028  0.8316  0.7253  0.2926
13457SOL    HW152844   3.481   8.472   7.128 -0.7486 -0.2876  0.2535
13457SOL    HW252845   3.573   8.509   6.998  0.3625  3.2879  1.9947
13458SOL     OW52846   5.325   3.643   6.594 -0.3970 -0.0776  0.2445
13458SOL    HW152847   5.277   3.658   6.681  0.0195  1.3729  0.2366
13458SOL    HW252848   5.347   3.546   6.585  0.5717 -0.0849  2.3196
13459SOL     OW52849   8.843   4.683   1.968  0.0528 -0.3076 -1.0708
13459SOL    HW152850   8.819   4.601   2.020  0.1527 -0.1148 -0.7206
13459SOL    HW252851   8.791   4.761   2.004  0.5556 -0.0605 -0.8772
13460SOL     OW52852   5.729   6.015   8.240 -0.0645  0.2378 -0.2822
13460SOL    HW152853   5.642   6.043   8.281  0.0163  0.3248 -0.1717
13460SOL    HW252854   5.764   6.089   8.182 -0.2144  0.0875 -0.5654
13461SOL     OW52855   5.127   7.915   1.818 -0.2246  0.8837  0.4082
13461SOL    HW152856   5.139   7.846   1.746 -2.4533  0.9263 -0.0607
13461SOL    HW252857   5.047   7.891   1.873 -0.5405  2.6487  0.7465
13462SOL     OW52858   2.082   6.162   0.082  0.8268  0.5875  0.0978
13462SOL    HW152859   2.177   6.188   0.065  0.3146  1.0237 -2.3331
13462SOL    HW252860   2.021   6.234   0.047 -0.3759  1.0405  3.0163
13463SOL     OW52861   8.657   4.096   0.108  0.1665  0.1200 -0.1439
13463SOL    HW152862   8.742   4.050   0.083 -0.0500 -0.2615 -0.1877
13463SOL    HW252863   8.586   4.027   0.127 -0.0833  0.4299  0.0586
13464SOL     OW52864   7.680   3.130   2.976 -0.1417  0.3607  0.1371
13464SOL    HW152865   7.753   3.104   2.912  0.8109  0.3850  1.1985
13464SOL    HW252866   7.631   3.048   3.007 -0.4945  0.3340 -0.4877
13465SOL     OW52867   0.643   8.018   7.062 -0.5500 -0.1570  0.4500
13465SOL    HW152868   0.590   8.094   7.101  0.5896  0.2582  1.1999
13465SOL    HW252869   0.598   7.932   7.085 -0.6867  0.1704  1.4528
13466SOL     OW52870   0.205   4.104   2.668 -0.4511  0.4806 -0.1665
13466SOL    HW152871   0.175   4.118   2.762 -0.4493 -2.4403  0.2977
13466SOL    HW252872   0.152   4.030   2.626 -0.5829  1.8621 -2.5345
13467SOL     OW52873   0.977   8.778   2.555  0.1464  0.6021  0.3113
13467SOL    HW152874   0.981   8.869   2.515 -2.8756 -1.5376 -5.5405
13467SOL    HW252875   0.882   8.755   2.576  0.5398 -2.0357 -0.6011
13468SOL     OW52876   5.174   0.675   2.030  0.8433 -0.0473 -0.2572
13468SOL    HW152877   5.243   0.743   2.057 -0.1873 -0.4680  3.7200
13468SOL    HW252878   5.084   0.707   2.058  0.1780 -2.4289  0.3750
13469SOL     OW52879   3.720   3.442   8.681  0.3735 -0.3856  0.3425
13469SOL    HW152880   3.663   3.499   8.622  2.3204  2.2415  0.9367
13469SOL    HW252881   3.695   3.346   8.668 -2.5818  0.5270 -1.0772
13470SOL     OW52882   4.632   0.768   3.066  0.0059  0.3598  0.3853
13470SOL    HW152883   4.728   0.796   3.072  0.6340 -1.6535  0.1589
13470SOL    HW252884   4.576   0.828   3.122  1.5424  0.8972  1.3715
13471SOL     OW52885   2.857   2.745   5.457  0.5373 -0.6800 -0.5269
13471SOL    HW152886   2.760   2.719   5.457 -0.0524  1.3750  1.6283
13471SOL    HW252887   2.889   2.755   5.363 -0.8721 -3.0371 -1.2859
13472SOL     OW52888   6.588   1.245   6.572 -0.0612  0.0944  0.0632
13472SOL    HW152889   6.505   1.250   6.626 -0.7524  1.7588 -1.1343
13472SOL    HW252890   6.576   1.179   6.498  0.8806 -2.1762  1.8618
13473SOL     OW52891   1.270   0.887   0.452  0.1149  0.1067  0.1233
13473SOL    HW152892   1.237   0.929   0.367 -1.1176 -1.1921 -0.0721
13473SOL    HW252893   1.191   0.854   0.505  1.0590 -2.4704 -0.0197
13474SOL     OW52894   1.880   0.550   1.904 -0.6947 -0.0512 -0.4328
13474SOL    HW152895   1.800   0.493   1.922 -0.5057  0.0196  0.7165
13474SOL    HW252896   1.876   0.631   1.962 -0.9248  1.0711 -2.0048
13475SOL     OW52897   8.317   8.314   7.206 -0.8274 -0.2985 -0.1344
13475SOL    HW152898   8.348   8.387   7.145 -0.6742  0.8461  1.2733
13475SOL    HW252899   8.247   8.350   7.268  0.7388 -0.7594  1.9749
13476SOL     OW52900   2.532   6.027   7.832 -0.4228  0.4930  0.0445
13476SOL    HW152901   2.468   6.088   7.880 -0.6956  0.4995 -0.3269
13476SOL    HW252902   2.561   6.069   7.746 -1.1304 -0.1806 -0.5366
13477SOL     OW52903   1.535   0.517   3.197  0.2543 -0.3094  0.4488
13477SOL    HW152904   1.629   0.547   3.214 -0.5109  1.4831  1.6690
13477SOL    HW252905   1.475   0.549   3.271 -1.2568 -1.7900 -0.0864
13478SOL     OW52906   2.567   0.099   8.109  0.1753 -0.1612  0.1817
13478SOL    HW152907   2.487   0.078   8.164 -0.6390 -1.0637 -1.3293
13478SOL    HW252908   2.539   0.115   8.014  1.8865 -1.3584 -0.5357
13479SOL     OW52909   4.776   3.685   4.384  0.1642  0.5960 -0.0038
13479SOL    HW152910   4.681   3.654   4.377 -0.7021  3.1245 -0.1969
13479SOL    HW252911   4.822   3.672   4.297  0.2239 -1.2629  0.2809
13480SOL     OW52912   7.969   1.708   1.645 -0.3803  0.3972 -0.1488
13480SOL    HW152913   7.921   1.664   1.721  1.8359 -0.1217  1.0227
13480SOL    HW252914   8.066   1.717   1.669 -0.2759  3.4543 -1.4965
13481SOL     OW52915   6.437   2.183   1.807 -0.6832 -0.0917  0.0438
13481SOL    HW152916   6.464   2.234   1.888 -0.7877  1.1441 -0.6749
13481SOL    HW252917   6.460   2.236   1.725 -2.0636 -0.5837 -0.6785
13482SOL     OW52918   1.498   0.020   4.615 -0.2107 -0.2557  0.0896
13482SOL    HW152919   1.514  -0.034   4.533  0.9256 -0.3977  0.3991
13482SOL    HW252920   1.585   0.044   4.657 -0.7279  1.1074  0.4230
13483SOL     OW52921   0.189   6.023   4.696  0.1088 -1.2047  0.5466
13483SOL    HW152922   0.207   5.945   4.756 -0.1529 -0.4456  1.6320
13483SOL    HW252923   0.091   6.041   4.693  0.2562 -0.2393  1.1899
13484SOL     OW52924   8.935   7.115   0.556  0.1436 -0.5630  0.6409
13484SOL    HW152925   8.966   7.123   0.651 -1.2217  0.9749  0.9867
13484SOL    HW252926   8.885   7.198   0.531 -1.8728 -2.1063 -0.5554
13485SOL     OW52927   2.784   8.340   2.655  0.2364 -0.2220 -0.1458
13485SOL    HW152928   2.818   8.268   2.595  1.0866  0.9434 -1.1021
13485SOL    HW252929   2.798   8.429   2.611 -2.1508  0.4293  0.3585
13486SOL     OW52930   4.884   8.070   4.974 -0.6558  0.0530 -0.0575
13486SOL    HW152931   4.843   7.989   5.015  0.3917 -1.2261 -1.4876
13486SOL    HW252932   4.909   8.135   5.046  0.8842 -2.0094  1.3025
13487SOL     OW52933   3.945   7.148   6.016  0.3024 -0.3462  0.6098
13487SOL    HW152934   3.998   7.214   6.069 -0.0592  0.6458 -0.2394
13487SOL    HW252935   4.008   7.088   5.966  0.6372 -0.1537  0.7977
13488SOL     OW52936   0.596   1.381   0.699  0.1893  0.7292  0.0082
13488SOL    HW152937   0.585   1.302   0.639  0.5489  1.9370 -1.6717
13488SOL    HW252938   0.600   1.350   0.794 -1.1099 -1.1360 -0.5173
13489SOL     OW52939   6.526   7.495   0.959 -0.0026  0.1716  0.0443
13489SOL    HW152940   6.489   7.406   0.987 -0.0415  0.0382 -0.4184
13489SOL    HW252941   6.616   7.482   0.918  0.9415  0.5908  1.9270
13490SOL     OW52942   2.896   2.464   0.896  0.0430 -0.4883  0.2455
13490SOL    HW152943   2.959   2.520   0.841 -0.3422  1.0247  1.3242
13490SOL    HW252944   2.827   2.423   0.836  0.7801 -0.4322 -0.6551
13491SOL     OW52945   5.133   2.257   4.231 -0.1032 -0.4787 -0.0488
13491SOL    HW152946   5.198   2.186   4.258 -0.7407 -0.8685  0.4588
13491SOL    HW252947   5.048   2.245   4.281 -0.8261 -0.3977 -1.2498
13492SOL     OW52948   3.856   0.648   6.790  0.5464 -0.1376  0.1242
13492SOL    HW152949   3.868   0.661   6.692 -0.5200 -0.1122 -0.0024
13492SOL    HW252950   3.761   0.665   6.815  0.7228 -0.5564  1.0978
13493SOL     OW52951   2.485   4.915   4.263  0.0320 -0.0401 -0.1371
13493SOL    HW152952   2.569   4.921   4.316  0.7338 -0.1234 -1.2255
13493SOL    HW252953   2.413   4.969   4.307  0.7974  0.4392  0.5248
13494SOL     OW52954   6.071   4.870   5.828  0.2125 -0.3639 -1.3291
13494SOL    HW152955   5.986   4.839   5.786 -1.0575 -0.5660  1.2955
13494SOL    HW252956   6.129   4.791   5.849  0.3637 -0.3496 -1.6932
13495SOL     OW52957   8.641   3.011   0.215  0.6247  0.2132  0.1290
13495SOL    HW152958   8.557   2.961   0.192  0.3429  0.4513  0.6263
13495SOL    HW252959   8.685   2.967   0.293  0.0688  1.0802  0.9384
13496SOL     OW52960   1.646   1.370   5.863 -0.4007  0.1195  0.2263
13496SOL    HW152961   1.676   1.277   5.844 -0.7599 -0.1620  1.0084
13496SOL    HW252962   1.554   1.368   5.901 -0.5623  0.8263 -0.1222
13497SOL     OW52963   6.162   0.166   2.088 -0.0423 -0.1232  0.6096
13497SOL    HW152964   6.087   0.143   2.150 -1.5159  0.2273 -0.9949
13497SOL    HW252965   6.222   0.087   2.077 -0.4700 -0.5720  1.5155
13498SOL     OW52966   8.494   2.872   1.881  0.2181  0.5280  0.1569
13498SOL    HW152967   8.409   2.890   1.929  0.7078 -0.7427  1.5283
13498SOL    HW252968   8.481   2.798   1.816 -0.2063  1.6381 -1.0485
13499SOL     OW52969   3.896   0.737   7.692 -0.0396 -0.2129 -0.3361
13499SOL    HW152970   3.810   0.781   7.667 -0.7047 -1.2678  0.0790
13499SOL    HW252971   3.954   0.729   7.611 -0.5884 -0.0735 -0.7487
13500SOL     OW52972   3.723   5.884   6.758 -0.1959 -0.0709  0.1302
13500SOL    HW152973   3.678   5.844   6.838 -0.2525 -3.2188 -1.4349
13500SOL    HW252974   3.655   5.913   6.692 -0.0789  0.3727  0.2025
13501SOL     OW52975   8.061   7.629   6.622  0.7427  0.7067 -0.3285
13501SOL    HW152976   8.119   7.576   6.684 -0.7845  0.2326  0.7104
13501SOL    HW252977   8.047   7.721   6.660  0.6486  0.7493 -0.4655
13502SOL     OW52978   8.640   1.370   7.884 -0.8350  0.3621 -0.2870
13502SOL    HW152979   8.584   1.351   7.803  2.4338 -2.0470 -2.0755
13502SOL    HW252980   8.657   1.285   7.934  0.8510  1.1068  0.4502
13503SOL     OW52981   2.914   1.772   8.019 -0.3725 -0.2849 -0.0164
13503SOL    HW152982   2.840   1.706   8.028  0.5988 -1.6647 -1.8512
13503SOL    HW252983   2.997   1.736   8.061 -0.5350  0.9582  1.4163
13504SOL     OW52984   5.863   3.234   0.364 -0.0226 -0.0240  0.4507
13504SOL    HW152985   5.789   3.167   0.362 -0.8443  0.8951 -1.0284
13504SOL    HW252986   5.931   3.208   0.433 -1.3155 -1.3055  1.2449
13505SOL     OW52987   6.031   5.693   5.089  0.4219  0.5984 -0.0149
13505SOL    HW152988   5.993   5.692   5.182  0.3700 -1.1920 -0.0225
13505SOL    HW252989   6.129   5.675   5.093  0.3128 -0.1025 -0.3315
13506SOL     OW52990   0.089   6.479   6.279  0.3526  0.5975 -0.0338
13506SOL    HW152991   0.081   6.483   6.378 -0.0075 -0.2690 -0.0179
13506SOL    HW252992   0.129   6.564   6.244  0.6841  0.8093  0.8682
13507SOL     OW52993   7.977   6.083   8.258  0.6760 -0.4151  0.3564
13507SOL    HW152994   8.011   6.059   8.167  1.5658  0.7415  0.3732
13507SOL    HW252995   8.011   6.018   8.325  1.3189 -0.3477  0.0957
13508SOL     OW52996   3.558   7.059   0.615  0.2238 -0.1930 -0.0734
13508SOL    HW152997   3.514   6.998   0.548  0.8764 -0.5267 -0.1982
13508SOL    HW252998   3.657   7.043   0.615  0.3538  0.6133  0.1589
13509SOL     OW52999   3.618   5.196   3.202 -0.0776 -0.2182  0.0522
13509SOL    HW153000   3.592   5.272   3.263  0.6575 -0.6561  0.9388
13509SOL    HW253001   3.718   5.195   3.193 -0.1753 -0.2810 -1.0205
13510SOL     OW53002   5.398   4.333   3.909 -0.0429 -0.2545  0.3157
13510SOL    HW153003   5.479   4.354   3.853 -1.2301  1.9509 -0.6576
13510SOL    HW253004   5.427   4.291   3.995  1.9908 -1.4476 -0.9160
13511SOL     OW53005   4.524   2.747   5.774  0.2277  0.3113 -0.5704
13511SOL    HW153006   4.567   2.659   5.793  2.4690  1.5801  0.4526
13511SOL    HW253007   4.564   2.788   5.692 -0.1561  0.7820 -0.5300
13512SOL     OW53008   1.542   8.941   3.197 -0.6073  0.4619  0.1760
13512SOL    HW153009   1.495   9.021   3.160  0.1355  0.6240 -0.4444
13512SOL    HW253010   1.549   8.871   3.126  1.3524  1.0084 -0.2166
13513SOL     OW53011   5.653   2.663   4.486 -0.3039 -0.0704  0.3351
13513SOL    HW153012   5.731   2.611   4.521 -1.5905 -2.6880 -0.5481
13513SOL    HW253013   5.587   2.677   4.559 -0.5093 -0.7907  0.2991
13514SOL     OW53014   4.014   3.091   5.515  0.3040  0.4307  0.6329
13514SOL    HW153015   3.987   3.001   5.550 -1.0306  0.6455  0.1884
13514SOL    HW253016   3.948   3.120   5.445 -0.2424  2.5297  1.9824
13515SOL     OW53017   6.557   7.190   3.910 -0.0034 -0.1633  0.5060
13515SOL    HW153018   6.561   7.234   3.820  2.9891 -0.3845  0.4833
13515SOL    HW253019   6.494   7.112   3.906 -0.7307  0.4811 -1.0788
13516SOL     OW53020   4.484   0.025   4.512 -0.2382  0.1600  0.0808
13516SOL    HW153021   4.418  -0.045   4.538 -1.6086  2.1765  2.1639
13516SOL    HW253022   4.467   0.053   4.417 -2.1384  0.3616  0.4567
13517SOL     OW53023   3.343   7.100   4.071 -0.5438 -0.3426 -0.5026
13517SOL    HW153024   3.312   7.048   4.151  3.4505  0.4161  1.6539
13517SOL    HW253025   3.390   7.039   4.007 -0.9113 -0.3897 -0.7271
13518SOL     OW53026   5.014   1.173   0.956 -0.3542  0.2827  0.1384
13518SOL    HW153027   4.990   1.267   0.979 -1.3378  0.2701 -0.7887
13518SOL    HW253028   4.977   1.150   0.866 -1.1430 -1.3646  0.8628
13519SOL     OW53029   5.430   6.157   5.412  0.3215  0.1304  0.2881
13519SOL    HW153030   5.481   6.157   5.499 -0.9917  0.1003  1.0715
13519SOL    HW253031   5.337   6.190   5.429  0.2037  0.5758 -1.2059
13520SOL     OW53032   2.370   2.191   3.051  0.5837 -0.0749 -0.2007
13520SOL    HW153033   2.468   2.211   3.053  0.6088 -0.1896 -0.2821
13520SOL    HW253034   2.348   2.142   2.967  0.2744  0.9171 -0.7165
13521SOL     OW53035   8.405   6.466   0.662 -0.4251  0.2103  0.4784
13521SOL    HW153036   8.503   6.460   0.681 -0.1836  0.0741 -0.7949
13521SOL    HW253037   8.357   6.394   0.712  0.1101  0.3222  1.1646
13522SOL     OW53038   1.811   6.237   6.465 -0.1508 -0.3040 -0.8714
13522SOL    HW153039   1.848   6.229   6.558  0.8446 -0.2615 -1.2583
13522SOL    HW253040   1.713   6.219   6.467 -0.0863 -0.5955  0.1434
13523SOL     OW53041   4.165   3.807   4.779 -0.1928  0.4152  0.4052
13523SOL    HW153042   4.146   3.904   4.770 -0.3851  0.4943  1.5884
13523SOL    HW253043   4.096   3.765   4.839  0.5739 -0.2178  0.8504
13524SOL     OW53044   2.028   1.836   8.437  0.5804 -0.4519 -0.3405
13524SOL    HW153045   2.070   1.840   8.528  0.7303 -2.1277 -0.3094
13524SOL    HW253046   2.099   1.821   8.368  0.3451 -0.3292 -0.6111
13525SOL     OW53047   8.707   0.106   2.529 -0.0964  0.2910  0.0556
13525SOL    HW153048   8.774   0.134   2.598  0.3055  1.8799 -0.9333
13525SOL    HW253049   8.664   0.188   2.490 -0.3513 -0.5769 -1.5291
13526SOL     OW53050   8.509   0.276   7.011 -0.1805 -0.1471  0.2289
13526SOL    HW153051   8.412   0.269   6.987 -0.6830 -0.7719  2.3493
13526SOL    HW253052   8.560   0.207   6.961 -1.0237 -0.6477  0.0409
13527SOL     OW53053   1.006   6.695   1.219 -0.2517  0.0097 -0.2369
13527SOL    HW153054   0.976   6.623   1.156  1.1107  0.3334 -1.2936
13527SOL    HW253055   0.976   6.784   1.186 -1.8411 -0.0267  1.0138
13528SOL     OW53056   2.999   3.909   0.930  0.0513 -0.1876  0.2221
13528SOL    HW153057   3.072   3.881   0.868  1.8531  0.7877  1.8583
13528SOL    HW253058   2.938   3.974   0.884 -1.2931 -2.8787 -1.9700
13529SOL     OW53059   3.778   4.839   7.092 -0.4440  0.5674 -0.5156
13529SOL    HW153060   3.845   4.828   7.165 -0.5047  0.5635 -0.4605
13529SOL    HW253061   3.786   4.763   7.027 -1.6389 -0.4354  0.4799
13530SOL     OW53062   6.614   6.668   3.234  0.6294 -0.0045 -0.4591
13530SOL    HW153063   6.632   6.665   3.136 -0.1730 -0.7403 -0.5870
13530SOL    HW253064   6.531   6.616   3.255  0.7298  0.2404  0.5939
13531SOL     OW53065   0.790   6.762   7.379 -0.5780  0.1630 -0.0980
13531SOL    HW153066   0.718   6.693   7.370  1.5092 -1.9787 -0.6021
13531SOL    HW253067   0.837   6.773   7.292  0.6039  0.5771  0.5837
13532SOL     OW53068   1.445   8.526   8.745  0.3020  0.3945  0.2897
13532SOL    HW153069   1.535   8.491   8.769 -0.4666 -2.4042 -0.6151
13532SOL    HW253070   1.400   8.562   8.827  1.4611 -0.0405  1.1253
13533SOL     OW53071   1.132   6.597   4.574 -0.2319  0.9331  0.2348
13533SOL    HW153072   1.157   6.670   4.639  0.1171  0.6622  0.4108
13533SOL    HW253073   1.167   6.620   4.484  1.1726  0.2870  0.5992
13534SOL     OW53074   6.081   7.585   6.687 -0.6290  0.5813  0.4750
13534SOL    HW153075   6.150   7.636   6.636  0.5433 -0.2045  1.2405
13534SOL    HW253076   6.106   7.583   6.784 -0.7498 -1.2590  0.4860
13535SOL     OW53077   8.980   8.282   8.018 -0.2074 -0.1876  0.6260
13535SOL    HW153078   8.968   8.260   8.114 -3.4190 -2.2842 -0.1696
13535SOL    HW253079   8.988   8.198   7.965  0.7788  0.9218 -1.0392
13536SOL     OW53080   2.095   0.956   5.750  0.0800  0.0388 -0.1662
13536SOL    HW153081   2.175   1.016   5.745  1.0829 -1.2781 -0.4043
13536SOL    HW253082   2.016   1.002   5.711  1.8070 -0.3677 -4.3507
13537SOL     OW53083   4.043   8.767   2.460  0.0813  0.0795  0.0592
13537SOL    HW153084   4.000   8.685   2.498  0.0890  0.3140  0.5795
13537SOL    HW253085   4.134   8.744   2.424  0.8109  0.1976  1.7868
13538SOL     OW53086   8.762   8.244   0.902 -0.4849  0.5453 -0.0967
13538SOL    HW153087   8.816   8.269   0.983 -1.2847 -0.4713  0.7717
13538SOL    HW253088   8.693   8.177   0.928 -2.0662  1.7135 -1.2308
13539SOL     OW53089   3.742   0.134   1.986  0.3297 -0.8753 -0.1989
13539SOL    HW153090   3.701   0.059   1.935 -0.3284 -0.0111 -0.9553
13539SOL    HW253091   3.769   0.207   1.922 -1.0938  0.5034  0.7495
13540SOL     OW53092   5.389   3.759   3.548 -0.0672  0.0006  0.0363
13540SOL    HW153093   5.445   3.715   3.478 -0.3596  1.4314 -1.1307
13540SOL    HW253094   5.430   3.745   3.638 -0.4478 -3.0994 -0.2257
13541SOL     OW53095   2.094   0.605   7.078  0.2890  0.0757 -0.0212
13541SOL    HW153096   2.073   0.691   7.125  0.9463 -0.3551  1.0897
13541SOL    HW253097   2.058   0.608   6.985  0.2028  1.5083  0.0445
13542SOL     OW53098   6.099   6.762   0.591  0.1122  0.0756  0.2272
13542SOL    HW153099   6.136   6.725   0.676  2.2273 -0.5749 -0.9537
13542SOL    HW253100   5.999   6.762   0.596  0.1908 -0.6550  2.4047
13543SOL     OW53101   7.590   2.539   3.095 -0.0391  0.4208  0.4129
13543SOL    HW153102   7.495   2.568   3.083  0.3120  1.3267 -0.2871
13543SOL    HW253103   7.619   2.557   3.189 -0.3602  0.7424  0.4491
13544SOL     OW53104   6.591   5.788   5.139 -0.3175 -0.8943  0.3336
13544SOL    HW153105   6.592   5.794   5.238  1.1117 -0.0727  0.2752
13544SOL    HW253106   6.603   5.693   5.111 -0.9660 -1.1598  0.9385
13545SOL     OW53107   3.014   7.288   4.222  0.1450  0.0090  0.3968
13545SOL    HW153108   3.024   7.324   4.315  0.6291 -0.6580  0.6113
13545SOL    HW253109   2.931   7.233   4.216 -0.8028  1.4595 -0.0361
13546SOL     OW53110   5.563   4.586   6.200 -0.1376 -0.5616  0.3053
13546SOL    HW153111   5.615   4.510   6.240  0.9332  0.1831  0.3608
13546SOL    HW253112   5.526   4.558   6.112 -1.2004 -1.7130  1.0958
13547SOL     OW53113   2.690   2.428   3.832 -0.3077  0.4185 -0.1416
13547SOL    HW153114   2.762   2.456   3.769 -0.8592 -0.7858 -1.3129
13547SOL    HW253115   2.602   2.426   3.785 -0.8974  0.5039  0.9224
13548SOL     OW53116   5.533   6.795   3.958  0.6152  0.0689 -0.2196
13548SOL    HW153117   5.515   6.703   3.923  1.6075  0.0659 -0.7499
13548SOL    HW253118   5.615   6.794   4.015 -0.1970  0.3523  0.9813
13549SOL     OW53119   3.535   1.178   5.567  0.4013  0.2608  0.1579
13549SOL    HW153120   3.547   1.229   5.481 -2.0356 -0.3735 -0.6082
13549SOL    HW253121   3.539   1.080   5.548  0.3033  0.1235  0.8377
13550SOL     OW53122   2.051   7.917   7.087  0.0201 -0.5388 -0.0694
13550SOL    HW153123   2.141   7.949   7.115  0.1557 -1.7996  1.0004
13550SOL    HW253124   2.060   7.857   7.008  0.0606 -0.2416 -0.2912
13551SOL     OW53125   1.631   7.633   5.708  0.0239  0.2680  0.4489
13551SOL    HW153126   1.617   7.553   5.650 -1.1305  1.8948 -1.5698
13551SOL    HW253127   1.567   7.629   5.785  0.1936 -0.8793  0.5478
13552SOL     OW53128   5.375   0.271   7.606  0.7134  0.1463  0.2763
13552SOL    HW153129   5.330   0.183   7.588  2.0307 -0.3710 -0.5354
13552SOL    HW253130   5.306   0.338   7.635 -0.4074 -0.9499  0.1964
13553SOL     OW53131   3.658   0.367   7.576  0.0046  0.9517 -0.1732
13553SOL    HW153132   3.566   0.375   7.615  0.5732 -1.3130  1.7544
13553SOL    HW253133   3.651   0.366   7.476 -2.1394  0.2632 -0.0525
13554SOL     OW53134   7.942   2.668   8.889 -0.8250 -0.5149 -0.3856
13554SOL    HW153135   7.982   2.597   8.832  0.1280 -0.2599 -0.0406
13554SOL    HW253136   8.015   2.720   8.934 -1.4769  1.4265 -1.5485
13555SOL     OW53137   3.247   5.049   8.972 -0.4626 -0.4214  0.4418
13555SOL    HW153138   3.271   5.055   8.876 -0.2753  0.7378  0.5572
13555SOL    HW253139   3.330   5.058   9.028 -0.6776 -0.2416  0.7352
13556SOL     OW53140   4.958   5.288   2.912 -0.3921 -0.1008  0.0002
13556SOL    HW153141   4.996   5.296   2.820 -2.4963 -0.0544 -0.8982
13556SOL    HW253142   5.032   5.277   2.978  1.3264  2.6766 -1.3600
13557SOL     OW53143   5.185   5.706   5.164 -0.3868 -0.7980 -0.3966
13557SOL    HW153144   5.182   5.614   5.204 -1.1659  0.3936  2.4553
13557SOL    HW253145   5.280   5.738   5.162 -0.3014 -0.9809  0.3201
13558SOL     OW53146   7.492   5.574   4.553 -0.3016 -0.1662  0.1091
13558SOL    HW153147   7.532   5.661   4.582 -0.2007  0.3069 -1.3991
13558SOL    HW253148   7.565   5.511   4.528 -0.3759 -0.6925  1.1948
13559SOL     OW53149   2.258   8.197   0.382  0.3689 -0.5252 -0.0318
13559SOL    HW153150   2.247   8.288   0.344  0.2299 -0.6434 -0.2802
13559SOL    HW253151   2.332   8.149   0.335 -0.4299 -1.0122 -0.7936
13560SOL     OW53152   5.876   5.831   2.169  0.0648  0.3863  0.9013
13560SOL    HW153153   5.921   5.916   2.141  0.6155  0.3315  1.5870
13560SOL    HW253154   5.802   5.852   2.232 -0.2740  0.4085  0.4968
13561SOL     OW53155   2.132   1.448   5.045  0.1498 -0.4925  0.3227
13561SOL    HW153156   2.202   1.399   5.097 -0.2240 -2.0257 -0.5971
13561SOL    HW253157   2.152   1.546   5.046  2.0935 -0.8772  0.3924
13562SOL     OW53158   5.832   4.737   5.739 -0.3129 -0.1648  0.5350
13562SOL    HW153159   5.758   4.803   5.755  0.0227  0.0337  1.2940
13562SOL    HW253160   5.808   4.650   5.783 -0.2825 -0.2318  0.4200
13563SOL     OW53161   2.819   8.050   0.554  0.3545  0.0254 -0.6014
13563SOL    HW153162   2.778   7.962   0.581  2.1007 -0.2797  1.1810
13563SOL    HW253163   2.879   8.035   0.476 -0.7145 -0.0209 -1.4360
13564SOL     OW53164   3.575   6.875   4.340  0.2791 -0.1539  0.7446
13564SOL    HW153165   3.579   6.870   4.440 -0.1132  0.3676  0.7879
13564SOL    HW253166   3.659   6.919   4.306 -0.5994  1.7746  1.0010
13565SOL     OW53167   3.425   8.257   3.801  0.3264  0.0730  0.0978
13565SOL    HW153168   3.506   8.278   3.746 -0.6483  1.9319 -0.6657
13565SOL    HW253169   3.416   8.323   3.875 -1.4377  0.9452 -0.8642
13566SOL     OW53170   8.839   2.001   3.605 -0.5348 -0.3742  0.0236
13566SOL    HW153171   8.817   1.975   3.699 -0.3097  1.5076  0.6173
13566SOL    HW253172   8.756   2.000   3.549 -1.0239  0.3985  0.7224
13567SOL     OW53173   7.737   2.715   8.012  0.1790  0.2879  0.2766
13567SOL    HW153174   7.645   2.747   7.989 -0.1110 -0.2630  0.6545
13567SOL    HW253175   7.781   2.781   8.073  0.0290  0.5489  0.1006
13568SOL     OW53176   4.578   7.772   3.015 -0.8585  0.0872  0.1617
13568SOL    HW153177   4.513   7.794   3.088 -0.8526 -0.8306  0.4483
13568SOL    HW253178   4.599   7.855   2.964 -3.2015  0.1889 -0.7038
13569SOL     OW53179   0.102   7.821   0.392  0.1327  0.0217 -0.3376
13569SOL    HW153180   0.145   7.808   0.303  1.9389 -0.8498  0.6457
13569SOL    HW253181   0.047   7.905   0.391  2.2481  1.4302 -1.4621
13570SOL     OW53182   5.211   4.515   1.530  0.3642  0.1043  0.1815
13570SOL    HW153183   5.261   4.598   1.508  1.1375 -0.6077 -0.8327
13570SOL    HW253184   5.142   4.498   1.460  1.3068 -0.9668 -0.5092
13571SOL     OW53185   2.809   4.457   0.839  1.1644  0.3931 -0.3799
13571SOL    HW153186   2.737   4.444   0.772  1.5293 -0.8335 -0.5553
13571SOL    HW253187   2.779   4.422   0.928  0.8995  1.4766 -0.0327
13572SOL     OW53188   0.303   4.872   3.549  0.4781  0.1153  0.6175
13572SOL    HW153189   0.205   4.854   3.556  0.1424  1.8261  0.6386
13572SOL    HW253190   0.336   4.847   3.458 -0.2572  0.7505  0.1714
13573SOL     OW53191   4.861   3.257   2.526  0.3801 -0.6347  0.2553
13573SOL    HW153192   4.845   3.180   2.464 -1.2628  0.5639 -0.8544
13573SOL    HW253193   4.908   3.330   2.478 -1.6102  0.6201  0.1558
13574SOL     OW53194   2.489   7.858   7.325 -0.1464  0.0557  0.0725
13574SOL    HW153195   2.580   7.820   7.339 -0.1293 -0.6515 -1.8747
13574SOL    HW253196   2.458   7.903   7.409  1.5154 -0.6960  1.0975
13575SOL     OW53197   3.906   6.386   5.947  0.2016 -0.5923  0.0508
13575SOL    HW153198   3.967   6.445   5.894  0.6829 -0.6800  0.4992
13575SOL    HW253199   3.811   6.407   5.923  0.3536  0.5811  0.4329
13576SOL     OW53200   2.848   7.854   7.262  0.1585 -0.2987 -0.3863
13576SOL    HW153201   2.864   7.947   7.294  0.6651  0.2010 -2.0949
13576SOL    HW253202   2.927   7.796   7.285  0.4395  0.0114 -0.5800
13577SOL     OW53203   0.642   0.255   6.188 -0.0140 -0.7130 -0.2285
13577SOL    HW153204   0.688   0.174   6.153  0.2898 -1.1172  1.0585
13577SOL    HW253205   0.563   0.229   6.243 -0.6648 -0.0862 -0.8535
13578SOL     OW53206   1.875   4.057   7.609  0.0549  0.0817 -0.1200
13578SOL    HW153207   1.837   4.116   7.538  1.4378  2.4036  0.9912
13578SOL    HW253208   1.827   4.073   7.695 -0.1559 -1.0952 -0.0116
13579SOL     OW53209   6.867   1.096   2.453 -0.2646  0.0695 -0.4857
13579SOL    HW153210   6.791   1.076   2.392  1.2527  0.1603 -2.4671
13579SOL    HW253211   6.950   1.053   2.417  0.6361 -0.0308  1.6268
13580SOL     OW53212   5.310   7.691   8.290 -0.0312  0.8035  0.0966
13580SOL    HW153213   5.292   7.625   8.217 -1.3662  0.6839  0.5098
13580SOL    HW253214   5.402   7.678   8.325  0.0396 -0.2349 -0.4592
13581SOL     OW53215   4.298   1.511   8.381 -0.1282  0.1913  0.0846
13581SOL    HW153216   4.258   1.553   8.300  0.7520  0.4975 -0.1958
13581SOL    HW253217   4.340   1.581   8.438 -1.1314  0.0338  1.0358
13582SOL     OW53218   1.817   7.520   8.813  0.2087  0.3414 -0.1527
13582SOL    HW153219   1.787   7.427   8.833  0.6521 -0.1600 -1.7252
13582SOL    HW253220   1.852   7.563   8.896  2.1153 -1.7026  0.1274
13583SOL     OW53221   5.301   5.358   3.004 -0.2561  0.2222  0.1357
13583SOL    HW153222   5.292   5.311   2.916 -0.2417 -1.4753  1.0146
13583SOL    HW253223   5.375   5.425   2.999  1.0320 -1.2230 -0.5800
13584SOL     OW53224   3.868   3.271   3.280  0.0604 -0.9217 -0.5672
13584SOL    HW153225   3.934   3.228   3.342  0.5665  0.4486 -0.1130
13584SOL    HW253226   3.776   3.242   3.304  0.2580 -0.4624  0.8230
13585SOL     OW53227   5.560   8.565   2.061  0.3985  0.1656 -0.4735
13585SOL    HW153228   5.501   8.554   2.140 -0.4410  0.2693 -1.0743
13585SOL    HW253229   5.584   8.661   2.050  1.1733  0.0419  0.1189
13586SOL     OW53230   0.656   5.188   6.871  0.5916  0.0419 -0.9771
13586SOL    HW153231   0.725   5.230   6.930  0.0659  1.7225 -1.5332
13586SOL    HW253232   0.661   5.228   6.780 -0.1981 -0.8222 -1.4081
13587SOL     OW53233   3.660   1.123   8.389 -0.4993 -0.0612 -0.2458
13587SOL    HW153234   3.625   1.199   8.444 -0.1159  0.2633 -0.4454
13587SOL    HW253235   3.585   1.084   8.335 -0.6882  0.2042 -0.1788
13588SOL     OW53236   4.436   7.044   1.676  0.5127  0.8295 -0.2139
13588SOL    HW153237   4.513   6.982   1.656  0.6180  0.8142  0.2311
13588SOL    HW253238   4.422   7.105   1.599 -0.0071 -0.1773 -0.9375
13589SOL     OW53239   4.505   7.698   1.563  0.7033  0.5918 -0.4652
13589SOL    HW153240   4.556   7.621   1.601  0.5317  0.8547  0.3232
13589SOL    HW253241   4.441   7.665   1.493 -0.6584 -0.2470  1.1147
13590SOL     OW53242   8.308   2.064   6.924  0.2592 -0.0284  0.9252
13590SOL    HW153243   8.274   2.040   7.015 -0.0774  0.9268  1.0631
13590SOL    HW253244   8.337   2.160   6.924 -1.6758  0.5870 -0.4986
13591SOL     OW53245   3.075   1.869   4.088 -0.0358  0.0160  0.1941
13591SOL    HW153246   3.061   1.946   4.025 -1.5854  0.1111  0.6251
13591SOL    HW253247   3.164   1.877   4.132  1.0684 -0.0397 -1.9590
13592SOL     OW53248   3.263   2.744   5.546 -0.1455 -0.0026 -0.0084
13592SOL    HW153249   3.164   2.729   5.536 -0.3608  0.4225  1.3786
13592SOL    HW253250   3.279   2.831   5.593  1.0094  2.2952 -4.3704
13593SOL     OW53251   3.750   6.368   3.627  0.3575 -0.0259  0.4960
13593SOL    HW153252   3.701   6.306   3.565  0.2048 -0.5582  1.1406
13593SOL    HW253253   3.848   6.360   3.613  0.3443 -0.5447  0.6951
13594SOL     OW53254   5.416   8.123   0.200  0.3653  0.0463 -0.5241
13594SOL    HW153255   5.433   8.222   0.204 -1.7692  0.4218 -0.0294
13594SOL    HW253256   5.503   8.074   0.203  1.4343  1.9042 -0.4714
13595SOL     OW53257   7.466   2.063   7.717 -0.1419  0.6054  0.3702
13595SOL    HW153258   7.370   2.034   7.714  0.5663 -1.8650 -0.1681
13595SOL    HW253259   7.498   2.062   7.812 -0.5628  1.0682  0.5127
13596SOL     OW53260   1.224   5.869   7.537 -0.7282 -0.3854  0.0134
13596SOL    HW153261   1.194   5.840   7.628  0.0318  0.5285  0.5582
13596SOL    HW253262   1.323   5.881   7.537 -0.8384  0.5574 -0.6654
13597SOL     OW53263   8.040   8.332   6.896  0.5185  0.3782  0.1596
13597SOL    HW153264   8.023   8.429   6.917  1.3649  0.5782 -0.0706
13597SOL    HW253265   7.953   8.282   6.898  0.3969  0.6223  2.8499
13598SOL     OW53266   7.956   7.553   0.162  0.5687 -0.1094 -0.1269
13598SOL    HW153267   7.933   7.572   0.067 -1.3197 -0.4645  0.2281
13598SOL    HW253268   7.940   7.636   0.217 -2.9688 -1.1646  0.6166
13599SOL     OW53269   6.883   7.013   2.300  0.5079 -0.1261 -0.1903
13599SOL    HW153270   6.906   6.953   2.376  0.2959 -0.6505 -0.5441
13599SOL    HW253271   6.959   7.077   2.285 -1.2998  3.1153  3.4829
13600SOL     OW53272   2.702   1.852   6.428 -0.0727 -0.0763 -0.7498
13600SOL    HW153273   2.639   1.836   6.505  1.0321  1.0993  0.4016
13600SOL    HW253274   2.650   1.887   6.350 -1.2751 -1.6805 -0.7012
13601SOL     OW53275   1.591   0.035   8.830 -0.1985  0.0728  0.1768
13601SOL    HW153276   1.596   0.129   8.796  0.2258 -0.1544 -0.3925
13601SOL    HW253277   1.518  -0.014   8.782 -0.7603  0.2524  0.8319
13602SOL     OW53278   2.602   8.778   7.334  0.2397  0.0822 -0.5301
13602SOL    HW153279   2.667   8.826   7.393 -0.6069  2.3244 -1.4017
13602SOL    HW253280   2.520   8.756   7.386  1.5309 -2.5629  0.5148
13603SOL     OW53281   1.127   7.084   7.588 -0.6408 -0.1222 -0.0249
13603SOL    HW153282   1.225   7.072   7.579 -0.4459  0.4420  1.2447
13603SOL    HW253283   1.108   7.169   7.637 -1.7093 -0.9755  1.0792
13604SOL     OW53284   3.288   6.050   3.772  0.6194 -0.0587  0.0352
13604SOL    HW153285   3.321   6.031   3.865 -1.5769 -2.3108  0.4195
13604SOL    HW253286   3.278   5.963   3.723 -2.3350  0.7407 -0.8528
13605SOL     OW53287   8.253   5.494   7.244  0.3436  0.1321 -0.2741
13605SOL    HW153288   8.178   5.549   7.281  0.7262  0.2121  0.3941
13605SOL    HW253289   8.268   5.518   7.148  0.8944  1.6320  0.1707
13606SOL     OW53290   6.093   7.461   8.379  0.1768  0.8160 -0.6588
13606SOL    HW153291   6.043   7.403   8.443  2.9583  0.7173  1.5381
13606SOL    HW253292   6.165   7.407   8.335  1.9023  2.1856  0.3942
13607SOL     OW53293   8.854   0.073   4.721 -0.3246 -0.2583  0.5105
13607SOL    HW153294   8.846  -0.027   4.723  1.2132 -0.4459 -1.0457
13607SOL    HW253295   8.928   0.102   4.781  0.8027 -0.2686 -0.8523
13608SOL     OW53296   4.334   3.495   2.554  0.1542  0.1686  0.2836
13608SOL    HW153297   4.423   3.541   2.546  0.5363 -0.9058 -2.0495
13608SOL    HW253298   4.341   3.421   2.621  0.8368  0.4603  0.5437
13609SOL     OW53299   2.382   6.725   0.038  0.5228  0.3489  0.3473
13609SOL    HW153300   2.378   6.731  -0.062  1.2696  2.5543  0.4194
13609SOL    HW253301   2.357   6.814   0.078 -1.5073 -0.9833  2.1998
13610SOL     OW53302   1.238   1.261   0.613 -0.8143  0.4774 -0.1657
13610SOL    HW153303   1.281   1.241   0.525 -0.5116  0.4793 -0.0170
13610SOL    HW253304   1.300   1.236   0.687 -0.4430  1.8962  0.0176
13611SOL     OW53305   7.420   8.522   8.959 -0.0994 -0.1084  0.6017
13611SOL    HW153306   7.443   8.439   9.009  0.5899 -0.3458 -0.0948
13611SOL    HW253307   7.448   8.512   8.863 -3.0423 -0.3640 -0.2607
13612SOL     OW53308   2.419   7.399   8.338 -0.1819  0.9680 -0.0364
13612SOL    HW153309   2.506   7.429   8.299 -0.0115 -0.8754 -1.1198
13612SOL    HW253310   2.432   7.375   8.434  0.6416  0.1541 -0.3443
13613SOL     OW53311   6.399   5.897   4.702  0.7984  0.0005  0.2058
13613SOL    HW153312   6.434   5.804   4.698 -2.1345 -1.2327  1.3420
13613SOL    HW253313   6.353   5.911   4.790 -0.5895  1.8523 -0.7775
13614SOL     OW53314   1.827   0.082   8.234 -0.1974  0.1237  0.8576
13614SOL    HW153315   1.739   0.056   8.194 -0.6573  1.9425  0.6341
13614SOL    HW253316   1.849   0.176   8.206  2.6174 -0.8940 -0.4867
13615SOL     OW53317   2.814   8.263   8.583  0.2189 -0.2463 -0.0056
13615SOL    HW153318   2.723   8.232   8.607 -0.2619  0.1030 -1.3301
13615SOL    HW253319   2.842   8.338   8.644 -1.4355  1.3945 -1.2082
13616SOL     OW53320   7.415   4.192   1.063  0.1204  0.0233  0.5894
13616SOL    HW153321   7.463   4.190   0.975  1.8757 -0.4180  1.5387
13616SOL    HW253322   7.345   4.264   1.061  0.4263  0.2946 -1.0180
13617SOL     OW53323   2.322   6.585   2.422 -0.1026  0.1629  0.8174
13617SOL    HW153324   2.244   6.530   2.391  1.2003  0.2983 -2.8647
13617SOL    HW253325   2.289   6.657   2.484 -2.8968  0.2099 -0.6409
13618SOL     OW53326   1.654   2.858   3.560  0.3129  0.5262 -0.3423
13618SOL    HW153327   1.714   2.934   3.586 -0.7807  1.1593  0.3830
13618SOL    HW253328   1.624   2.810   3.642  1.3047 -0.9440 -0.8287
13619SOL     OW53329   1.093   7.722   4.291  0.1757 -1.2155 -0.1760
13619SOL    HW153330   1.040   7.643   4.262  0.8679 -1.9237  0.4415
13619SOL    HW253331   1.037   7.805   4.285 -1.1042 -1.9952  0.7822
13620SOL     OW53332   7.907   8.433   6.189 -0.5411  0.0119 -0.0211
13620SOL    HW153333   7.896   8.434   6.289  1.8552  0.0529  0.2611
13620SOL    HW253334   7.951   8.348   6.161 -0.6363  0.2801 -0.9988
13621SOL     OW53335   1.382   8.158   8.705 -0.4460  0.2351  0.1282
13621SOL    HW153336   1.458   8.108   8.747  0.4167  1.2787 -0.1605
13621SOL    HW253337   1.299   8.144   8.759  0.4366  0.8192  1.6697
13622SOL     OW53338   1.359   8.373   7.613 -0.1264  0.1553 -0.0553
13622SOL    HW153339   1.260   8.387   7.610 -0.4816 -2.0800  0.8682
13622SOL    HW253340   1.400   8.436   7.680 -1.3521 -1.1414  1.9645
13623SOL     OW53341   4.619   4.296   6.096 -0.4384 -0.7526  0.3414
13623SOL    HW153342   4.555   4.266   6.026 -1.4926  1.3596  0.3464
13623SOL    HW253343   4.586   4.269   6.187 -0.8575 -0.4687  0.2737
13624SOL     OW53344   0.394   0.212   6.399 -0.3277 -0.4085 -0.2588
13624SOL    HW153345   0.370   0.272   6.476 -0.5038  0.0564 -0.6768
13624SOL    HW253346   0.433   0.127   6.435 -0.9060 -0.4161  0.3675
13625SOL     OW53347   6.957   5.584   3.279  0.1259  0.0682  0.1692
13625SOL    HW153348   7.001   5.497   3.257 -0.6199 -0.3302  0.2316
13625SOL    HW253349   6.927   5.583   3.374 -0.4765  0.1343 -0.0199
13626SOL     OW53350   7.781   7.253   6.799  0.3417 -0.3625  0.7842
13626SOL    HW153351   7.866   7.282   6.754 -0.7498  1.0311 -0.4336
13626SOL    HW253352   7.753   7.164   6.763  0.7051 -0.3119  0.3716
13627SOL     OW53353   3.483   3.128   6.152  0.2999 -0.1050  0.3553
13627SOL    HW153354   3.457   3.043   6.198 -2.0989 -0.5900 -1.7521
13627SOL    HW253355   3.560   3.111   6.091 -1.0787 -1.1856 -1.1508
13628SOL     OW53356   6.369   3.126   8.667  0.0686 -0.5920  0.1831
13628SOL    HW153357   6.392   3.176   8.751 -2.0052  0.1311  0.3606
13628SOL    HW253358   6.379   3.187   8.588  1.5819 -1.1426 -0.0707
13629SOL     OW53359   5.946   3.557   0.331 -0.4901 -0.0750 -0.0579
13629SOL    HW153360   5.883   3.603   0.394 -1.0047  0.3942 -0.9092
13629SOL    HW253361   5.935   3.458   0.340 -1.6775  0.0081 -0.5268
13630SOL     OW53362   5.024   3.634   1.093 -0.1384 -0.2716  0.3274
13630SOL    HW153363   4.995   3.716   1.142  0.1766  0.0643 -0.0516
13630SOL    HW253364   4.983   3.633   1.002 -2.6407 -2.0673  1.4007
13631SOL     OW53365   3.598   0.392   3.591  0.2985  0.3744  0.4956
13631SOL    HW153366   3.504   0.378   3.562 -1.3290  2.9204  4.1463
13631SOL    HW253367   3.646   0.448   3.523 -1.5751  1.1536 -0.2283
13632SOL     OW53368   2.007   3.884   4.476 -0.0462  0.6497  0.0292
13632SOL    HW153369   2.002   3.786   4.495 -2.6147  0.4139 -1.6161
13632SOL    HW253370   1.963   3.935   4.550 -1.4721  0.3334 -0.5765
13633SOL     OW53371   6.731   4.496   8.052 -0.2906  0.0474 -0.2518
13633SOL    HW153372   6.696   4.521   7.962  0.9665  0.0691 -0.7390
13633SOL    HW253373   6.698   4.561   8.120  1.7812  2.2311 -1.2751
13634SOL     OW53374   2.571   1.008   2.439 -0.0538 -0.0292  0.2455
13634SOL    HW153375   2.603   0.923   2.398 -0.0803  0.4215 -0.7134
13634SOL    HW253376   2.595   1.085   2.380 -1.9165  0.4244  0.0328
13635SOL     OW53377   2.631   5.062   3.626 -0.5224 -0.1908  0.1331
13635SOL    HW153378   2.654   5.119   3.704 -2.2646  0.8460 -0.0997
13635SOL    HW253379   2.541   5.021   3.639 -0.8110 -0.0347 -1.3066
13636SOL     OW53380   5.938   0.523   0.745 -0.0993  0.7187 -0.5200
13636SOL    HW153381   5.840   0.538   0.758 -0.2129  0.2294 -0.7964
13636SOL    HW253382   5.952   0.452   0.676  0.4259 -0.3143  0.6199
13637SOL     OW53383   0.457   3.958   0.090 -0.0397 -0.0314 -0.5554
13637SOL    HW153384   0.366   3.997   0.076 -0.0962  0.5398  1.2309
13637SOL    HW253385   0.452   3.859   0.087 -0.6310  0.0082 -0.9998
13638SOL     OW53386   3.543   4.156   5.057  0.2524  0.0084  0.2963
13638SOL    HW153387   3.530   4.069   5.009  1.0612  0.4921 -0.8084
13638SOL    HW253388   3.467   4.169   5.122 -0.5686 -0.8989 -0.4576
13639SOL     OW53389   1.693   0.622   4.626  1.5152 -0.6225  0.3856
13639SOL    HW153390   1.769   0.655   4.569 -0.6066  1.3550 -1.3968
13639SOL    HW253391   1.609   0.670   4.600  0.1356 -0.9337  4.0440
13640SOL     OW53392   7.727   6.395   5.628  0.3181  0.2282  0.3302
13640SOL    HW153393   7.738   6.487   5.592  0.7653  0.1700  0.3103
13640SOL    HW253394   7.805   6.339   5.601  0.5797  0.1382  1.2341
13641SOL     OW53395   3.008   3.213   3.610 -0.2300  0.3305 -0.4345
13641SOL    HW153396   3.060   3.199   3.526  0.1479 -1.4741  0.0694
13641SOL    HW253397   2.934   3.279   3.594 -1.4192 -1.5050 -2.7180
13642SOL     OW53398   5.654   1.746   2.196 -0.4665 -0.4257  0.1150
13642SOL    HW153399   5.682   1.825   2.250  1.4191  0.6037 -2.2802
13642SOL    HW253400   5.564   1.715   2.227 -0.6776  1.8523  1.9298
13643SOL     OW53401   3.484   8.611   4.865 -0.3333  0.1463  0.4264
13643SOL    HW153402   3.437   8.688   4.905  0.0400  0.7648 -0.3032
13643SOL    HW253403   3.424   8.564   4.800  0.3704  1.5906 -1.3291
13644SOL     OW53404   1.372   5.924   6.916  0.0755 -0.2084 -0.2742
13644SOL    HW153405   1.287   5.920   6.968  0.3113 -0.8971  0.0682
13644SOL    HW253406   1.353   5.954   6.823 -0.9775 -3.3819 -1.1296
13645SOL     OW53407   6.912   2.958   7.042 -0.2781  0.0551  0.3491
13645SOL    HW153408   6.821   2.984   7.076 -1.4817 -2.7608 -0.5987
13645SOL    HW253409   6.956   2.898   7.109 -0.1812 -0.6614 -0.3557
13646SOL     OW53410   2.479   0.208   4.102 -0.2649 -0.1446 -0.3911
13646SOL    HW153411   2.489   0.280   4.172 -0.7045 -1.3070  0.8845
13646SOL    HW253412   2.443   0.125   4.144 -0.7737 -0.7956 -2.0660
13647SOL     OW53413   3.290   6.280   4.329 -0.1813  0.4734  0.3057
13647SOL    HW153414   3.279   6.372   4.291  2.4783  1.1175  1.0213
13647SOL    HW253415   3.385   6.266   4.356 -0.5845 -2.4502  0.3608
13648SOL     OW53416   4.472   0.957   4.219 -0.6866 -0.2852  0.3838
13648SOL    HW153417   4.440   0.863   4.202  0.3718 -0.7495  0.8932
13648SOL    HW253418   4.572   0.959   4.214 -0.6065  0.4590  2.1017
13649SOL     OW53419   6.288   4.020   6.687  0.1681 -0.1922  0.0718
13649SOL    HW153420   6.260   4.037   6.781  1.4959  1.2551  0.2357
13649SOL    HW253421   6.212   3.982   6.635 -1.8475  2.8132  0.6945
13650SOL     OW53422   1.936   1.532   0.043 -0.3512  0.4493 -0.7109
13650SOL    HW153423   1.884   1.500   0.122 -1.8512  1.1760 -1.3794
13650SOL    HW253424   1.971   1.454  -0.008  0.6928 -0.0238  0.6961
13651SOL     OW53425   5.990   6.625   4.291 -0.3660 -0.6642 -0.2310
13651SOL    HW153426   6.061   6.593   4.355  0.5161 -3.5643 -2.5295
13651SOL    HW253427   5.900   6.610   4.331  0.2276  1.3384  1.9690
13652SOL     OW53428   5.666   2.870   6.040  0.2582 -0.5695 -0.0026
13652SOL    HW153429   5.607   2.936   6.087  0.3748 -0.8895  0.6027
13652SOL    HW253430   5.662   2.886   5.942 -1.5775 -1.1822 -0.0496
13653SOL     OW53431   4.841   7.563   8.228  0.3277  0.3132 -0.0328
13653SOL    HW153432   4.839   7.500   8.305 -0.1648  1.1726  0.6686
13653SOL    HW253433   4.906   7.530   8.159  2.0804  0.4443  1.5350
13654SOL     OW53434   3.968   5.494   2.604 -0.1087 -0.1180  0.2161
13654SOL    HW153435   4.055   5.446   2.619 -0.8041 -1.1115  1.1103
13654SOL    HW253436   3.955   5.561   2.677  0.4691  0.8702 -0.5786
13655SOL     OW53437   3.326   1.039   5.380  0.0356  0.6834 -0.2257
13655SOL    HW153438   3.402   1.089   5.339  0.6749  0.6776  0.9264
13655SOL    HW253439   3.311   1.071   5.474 -0.8662  0.1274 -0.1707
13656SOL     OW53440   6.298   6.712   4.624  0.1122 -0.0963  0.5513
13656SOL    HW153441   6.332   6.684   4.714  3.1801 -0.2387 -0.6132
13656SOL    HW253442   6.352   6.790   4.591 -2.2720  1.2358 -0.3361
13657SOL     OW53443   4.858   0.725   6.491  0.4716 -0.3532 -0.0674
13657SOL    HW153444   4.935   0.736   6.428 -0.3713 -0.1186 -1.0671
13657SOL    HW253445   4.816   0.814   6.508  0.1038 -0.5527  0.0728
13658SOL     OW53446   0.537   3.649   6.765 -0.0704  0.0234 -0.3035
13658SOL    HW153447   0.594   3.589   6.820  1.0180 -1.2855 -2.7481
13658SOL    HW253448   0.578   3.740   6.760  1.0783 -0.5074 -0.8418
13659SOL     OW53449   2.179   5.912   5.221 -0.0994  0.2751  0.2134
13659SOL    HW153450   2.136   5.885   5.307 -0.1916  1.4007  0.5313
13659SOL    HW253451   2.119   5.976   5.173  0.5487  0.6740 -0.0626
13660SOL     OW53452   5.419   7.638   2.125 -0.5360 -0.0372 -0.6746
13660SOL    HW153453   5.470   7.722   2.105  0.0149 -0.9507 -3.2545
13660SOL    HW253454   5.373   7.606   2.042 -1.2419 -1.9520  0.4311
13661SOL     OW53455   3.479   8.225   3.075  0.4057  0.3366 -0.1726
13661SOL    HW153456   3.413   8.299   3.089 -0.5486 -0.2257 -1.6008
13661SOL    HW253457   3.444   8.141   3.115  0.4738  0.1542 -0.4922
13662SOL     OW53458   6.619   8.667   1.685  0.2000  0.1955 -0.9801
13662SOL    HW153459   6.548   8.613   1.730  0.3550  0.3651 -0.5357
13662SOL    HW253460   6.707   8.622   1.695 -0.0234 -0.6038 -2.5242
13663SOL     OW53461   1.614   7.492   2.784 -0.0682 -0.1010 -0.1152
13663SOL    HW153462   1.562   7.441   2.851  2.0884 -0.2270  1.5055
13663SOL    HW253463   1.570   7.580   2.767 -1.2750 -0.5738  0.5367
13664SOL     OW53464   5.186   8.764   1.017  0.4280  1.0454 -0.6626
13664SOL    HW153465   5.090   8.737   1.023  0.7403 -0.2256 -1.2011
13664SOL    HW253466   5.241   8.702   1.073  0.5393  4.0652  2.7285
13665SOL     OW53467   4.341   8.446   7.050 -0.1081  0.0879  0.9852
13665SOL    HW153468   4.255   8.447   7.101  0.6784 -0.2934  2.3381
13665SOL    HW253469   4.409   8.502   7.097  0.2789  0.7060 -0.2842
13666SOL     OW53470   5.572   7.850   7.658 -0.4267 -0.1560 -0.1370
13666SOL    HW153471   5.580   7.936   7.608  0.7224 -0.0220  0.2663
13666SOL    HW253472   5.549   7.868   7.754  1.1720 -0.2012  0.2806
13667SOL     OW53473   8.953   6.058   4.335 -0.6933 -0.6051  0.3028
13667SOL    HW153474   8.894   5.995   4.386  0.2561  0.0053  2.1755
13667SOL    HW253475   9.049   6.034   4.349 -0.3997 -0.1904 -0.8974
13668SOL     OW53476   5.288   3.100   6.510 -0.5470 -0.3356 -0.2052
13668SOL    HW153477   5.294   3.057   6.420 -0.8389  0.2184 -0.4932
13668SOL    HW253478   5.240   3.038   6.573 -1.3262 -0.2723 -0.7206
13669SOL     OW53479   6.045   5.853   6.463 -0.0163  0.6984  1.0347
13669SOL    HW153480   6.044   5.919   6.388  1.1650 -0.3994  0.0451
13669SOL    HW253481   5.951   5.833   6.491 -0.4393  1.4680  0.1690
13670SOL     OW53482   5.314   4.075   8.707  0.1847  0.2315  0.0324
13670SOL    HW153483   5.357   4.118   8.786  2.3213 -1.2900 -0.2472
13670SOL    HW253484   5.218   4.057   8.727 -0.1116  2.8045  1.0512
13671SOL     OW53485   2.990   7.632   7.986 -0.3717  0.2785  0.0556
13671SOL    HW153486   3.001   7.596   8.079 -0.9147  0.2860  0.1240
13671SOL    HW253487   3.071   7.610   7.932  0.0302  0.4417  0.5884
13672SOL     OW53488   5.626   4.063   2.010 -0.7128 -0.3089  0.7245
13672SOL    HW153489   5.539   4.070   2.059 -1.4350 -0.0651 -0.5436
13672SOL    HW253490   5.615   4.101   1.918  0.4723 -1.1720  0.2142
13673SOL     OW53491   2.048   5.239   1.319 -0.3618  0.5694 -0.2955
13673SOL    HW153492   1.976   5.308   1.319 -3.8455 -2.8730  0.5176
13673SOL    HW253493   2.051   5.195   1.229  0.2667  0.1959 -0.0956
13674SOL     OW53494   7.360   0.543   7.055 -0.5832 -0.4246 -0.2530
13674SOL    HW153495   7.262   0.561   7.060 -0.2069  2.0932 -1.4431
13674SOL    HW253496   7.388   0.535   6.960  0.5943  0.1910  0.0346
13675SOL     OW53497   0.541   7.611   0.285 -0.1418  0.3414 -0.1609
13675SOL    HW153498   0.587   7.687   0.238 -1.0102  0.3321 -1.0404
13675SOL    HW253499   0.486   7.647   0.359  0.2679  0.4707  0.0852
13676SOL     OW53500   6.817   1.635   7.632  0.2916 -0.0921  0.2021
13676SOL    HW153501   6.899   1.658   7.579  0.3037  0.7504  0.5770
13676SOL    HW253502   6.804   1.703   7.704 -1.9314  1.0393 -1.1985
13677SOL     OW53503   2.601   3.797   7.884  0.3919  0.0981 -0.6987
13677SOL    HW153504   2.540   3.851   7.826  0.6924  0.7304 -0.4259
13677SOL    HW253505   2.639   3.855   7.956 -0.3279 -0.7783  0.4123
13678SOL     OW53506   8.104   8.966   6.373  0.4642 -0.1456  0.4906
13678SOL    HW153507   8.153   8.886   6.406  0.0561 -1.5057 -2.0533
13678SOL    HW253508   8.155   9.008   6.298 -1.1259 -0.2543 -0.6819
13679SOL     OW53509   4.917   5.433   0.968 -0.0891  0.2197  0.2604
13679SOL    HW153510   5.007   5.439   0.924 -0.9160 -2.2804 -1.8907
13679SOL    HW253511   4.846   5.449   0.899 -1.3424  0.2059  1.5405
13680SOL     OW53512   0.541   1.547   6.746  0.4351 -0.5163 -0.0106
13680SOL    HW153513   0.476   1.553   6.671  0.7738 -0.9689 -0.3470
13680SOL    HW253514   0.545   1.634   6.795 -0.0988 -0.3567 -0.2582
13681SOL     OW53515   3.938   7.206   2.815 -0.2009  0.6616 -0.1403
13681SOL    HW153516   4.011   7.219   2.748 -0.0323  0.7946  0.0659
13681SOL    HW253517   3.976   7.218   2.907  0.1098 -2.0012  0.1126
13682SOL     OW53518   7.887   2.553   7.587  0.8623 -0.5356  0.0353
13682SOL    HW153519   7.799   2.539   7.542  1.2087 -2.3799 -0.0980
13682SOL    HW253520   7.933   2.632   7.546  0.9614 -1.9003 -2.5426
13683SOL     OW53521   3.075   5.170   0.352 -0.1295 -0.2016  0.4333
13683SOL    HW153522   3.082   5.105   0.277 -1.3572  0.8355 -0.5980
13683SOL    HW253523   3.137   5.247   0.336 -0.1250 -0.1532  0.6714
13684SOL     OW53524   1.849   2.597   5.807  0.2893 -0.1457 -0.3376
13684SOL    HW153525   1.947   2.611   5.799  0.6329 -2.7774 -0.8920
13684SOL    HW253526   1.812   2.560   5.722 -0.9658 -0.3650  0.2787
13685SOL     OW53527   2.836   0.502   8.037  0.3202  0.5226 -0.1846
13685SOL    HW153528   2.874   0.440   7.969  0.0995 -1.7285  1.6926
13685SOL    HW253529   2.830   0.456   8.125 -0.7321  2.9213  1.0562
13686SOL     OW53530   6.548   5.561   8.684  0.4698 -0.4950  0.3852
13686SOL    HW153531   6.519   5.585   8.777 -0.1414 -1.2375  0.3892
13686SOL    HW253532   6.581   5.467   8.683  0.2156 -0.5797 -0.2070
13687SOL     OW53533   2.969   3.968   2.464  0.1800  0.3476 -0.2531
13687SOL    HW153534   3.026   4.048   2.481  2.0763 -0.5258 -2.2392
13687SOL    HW253535   2.961   3.914   2.547  1.9345  0.6972  0.1528
13688SOL     OW53536   5.029   0.137   3.458 -0.4406  0.6184  0.7030
13688SOL    HW153537   5.119   0.125   3.499  0.0445 -1.1967 -0.8283
13688SOL    HW253538   4.968   0.065   3.492 -1.1024  1.3681  1.1231
13689SOL     OW53539   5.271   0.088   1.759  0.1205 -0.1739 -0.1401
13689SOL    HW153540   5.286   0.021   1.831 -1.6929  0.5895  0.9658
13689SOL    HW253541   5.335   0.164   1.770 -0.6323  0.2856  1.0931
13690SOL     OW53542   6.343   6.833   5.394  0.1514  0.6542 -0.1594
13690SOL    HW153543   6.413   6.894   5.432 -0.6826  0.7776  1.2365
13690SOL    HW253544   6.383   6.744   5.374  0.7160  0.7260  0.6112
13691SOL     OW53545   5.790   6.998   2.043 -0.1924  0.0462 -0.1623
13691SOL    HW153546   5.711   7.057   2.025 -0.7971 -1.6165 -3.3641
13691SOL    HW253547   5.851   7.000   1.964 -0.3556 -3.7488 -0.4795
13692SOL     OW53548   1.485   0.351   8.125  0.3551 -0.4340 -0.3579
13692SOL    HW153549   1.407   0.410   8.107 -1.3384 -2.4261  0.1902
13692SOL    HW253550   1.546   0.395   8.191 -1.3660  0.2853  0.7911
13693SOL     OW53551   4.278   8.958   8.748 -0.1378 -0.5783  0.2230
13693SOL    HW153552   4.281   8.858   8.760  2.2598 -0.3661  1.8049
13693SOL    HW253553   4.218   8.998   8.817 -0.9203 -0.8875 -0.2681
13694SOL     OW53554   4.768   5.885   2.313 -0.3114 -0.3057 -0.0233
13694SOL    HW153555   4.750   5.831   2.395  0.9056  0.9955  1.1387
13694SOL    HW253556   4.799   5.977   2.340  0.0152  0.1705 -1.9393
13695SOL     OW53557   0.925   2.836   8.904  0.2320  0.2572 -0.4414
13695SOL    HW153558   0.975   2.767   8.853  0.5844 -1.3827  2.0555
13695SOL    HW253559   0.846   2.795   8.950 -0.2009  1.7198  0.1837
13696SOL     OW53560   2.793   6.089   0.029 -0.3626 -0.2571  0.6015
13696SOL    HW153561   2.890   6.107   0.045 -0.8921  2.9441  0.5877
13696SOL    HW253562   2.779   6.065  -0.067  0.4359 -1.1475  0.6921
13697SOL     OW53563   3.765   1.911   1.049  0.0501  0.7057 -0.1939
13697SOL    HW153564   3.748   1.912   0.951 -3.9128  0.4876  0.4315
13697SOL    HW253565   3.787   1.818   1.079 -0.0591  0.5264 -0.6710
13698SOL     OW53566   6.167   3.493   6.085 -0.1804 -0.1686  0.3986
13698SOL    HW153567   6.067   3.492   6.083 -0.2286  1.7928  0.5034
13698SOL    HW253568   6.198   3.570   6.141  1.3838 -0.5533  0.0714
13699SOL     OW53569   2.174   5.942   0.898  0.2050  0.0467 -0.2604
13699SOL    HW153570   2.254   5.947   0.839 -0.3210  0.6504 -0.9338
13699SOL    HW253571   2.186   5.870   0.966  0.7191 -0.8051 -1.2503
13700SOL     OW53572   1.518   8.505   7.234  0.3339  0.2660  0.4354
13700SOL    HW153573   1.549   8.529   7.142 -1.2184  0.6526 -0.0100
13700SOL    HW253574   1.493   8.588   7.284  0.5846  0.0122  0.9957
13701SOL     OW53575   8.385   4.231   2.859 -0.7928 -0.3681  0.1190
13701SOL    HW153576   8.379   4.223   2.959 -1.7546  1.4621  0.2277
13701SOL    HW253577   8.294   4.237   2.820 -0.4049 -0.2873 -0.7977
13702SOL     OW53578   0.795   0.426   0.422  0.3413  0.3625  0.1069
13702SOL    HW153579   0.871   0.438   0.486 -0.1782 -0.1571  0.8270
13702SOL    HW253580   0.777   0.513   0.377  0.8031  0.7064  0.5695
13703SOL     OW53581   2.588   7.697   5.622  0.4344  0.1971 -0.1235
13703SOL    HW153582   2.493   7.691   5.653 -0.2305  0.9155 -1.9407
13703SOL    HW253583   2.633   7.775   5.664  0.5562 -0.7728  1.5766
13704SOL     OW53584   0.792   4.117   3.753 -0.2989  0.2318  0.1789
13704SOL    HW153585   0.851   4.140   3.830  0.5431  0.2838 -0.4738
13704SOL    HW253586   0.698   4.107   3.785  0.3328 -1.6132  1.5358
13705SOL     OW53587   8.118   7.495   2.394 -0.5602  0.3400 -0.4820
13705SOL    HW153588   8.080   7.583   2.421 -1.9906 -0.2079 -0.7158
13705SOL    HW253589   8.046   7.435   2.360  0.1257 -1.5001  1.1551
13706SOL     OW53590   2.909   4.098   4.084 -0.2796  0.1354 -0.2580
13706SOL    HW153591   2.950   4.036   4.151  0.0085 -0.3246 -0.8521
13706SOL    HW253592   2.843   4.158   4.130 -1.3993 -1.3753  0.1408
13707SOL     OW53593   1.526   8.082   8.194  0.1101 -0.1205  0.0420
13707SOL    HW153594   1.603   8.048   8.248 -1.7686 -3.8072  0.5611
13707SOL    HW253595   1.540   8.061   8.098  0.2741  0.2846 -0.0252
13708SOL     OW53596   4.699   7.273   5.149 -0.9588  0.9653 -0.1126
13708SOL    HW153597   4.794   7.254   5.172 -1.0683  0.0664 -0.3603
13708SOL    HW253598   4.652   7.187   5.130 -2.0462  1.3254  0.8744
13709SOL     OW53599   3.361   8.390   1.554 -0.7585  0.3379  1.0154
13709SOL    HW153600   3.382   8.405   1.650 -1.1874  1.3442  0.9556
13709SOL    HW253601   3.446   8.370   1.504 -0.2794  1.7226  1.2586
13710SOL     OW53602   3.237   2.307   2.141 -0.6228  0.5162 -0.1742
13710SOL    HW153603   3.303   2.381   2.125  1.7065 -1.4682  0.0046
13710SOL    HW253604   3.212   2.305   2.238 -1.4517  1.6592 -0.3516
13711SOL     OW53605   3.128   4.700   1.355  0.6570 -0.4091 -0.6875
13711SOL    HW153606   3.047   4.702   1.414  1.2757 -1.1689  0.1829
13711SOL    HW253607   3.199   4.644   1.397  0.8725 -1.4819 -2.4680
13712SOL     OW53608   5.519   2.979   3.700  0.1106 -0.3998 -0.2183
13712SOL    HW153609   5.449   3.051   3.706  0.9590  0.5314 -1.2041
13712SOL    HW253610   5.480   2.897   3.660 -0.2962  0.2912 -1.2403
13713SOL     OW53611   6.364   8.986   7.973 -0.1334 -0.5289 -0.3702
13713SOL    HW153612   6.293   9.047   7.939 -1.6760 -1.6502  0.7760
13713SOL    HW253613   6.333   8.941   8.057  2.0046 -0.9022  0.2636
13714SOL     OW53614   1.312   5.677   2.518 -0.0860 -0.6798 -0.5883
13714SOL    HW153615   1.395   5.624   2.531  0.5095  0.0557 -1.3095
13714SOL    HW253616   1.336   5.768   2.484 -0.9749  0.6352  2.2200
13715SOL     OW53617   2.390   3.190   4.119 -0.1625  0.2113  0.1604
13715SOL    HW153618   2.335   3.260   4.164  0.3580 -0.4607  1.8808
13715SOL    HW253619   2.408   3.115   4.183 -0.1124 -1.1709 -1.4325
13716SOL     OW53620   1.385   6.695   5.754  0.1936  0.6401 -0.1395
13716SOL    HW153621   1.308   6.689   5.690 -0.7844  0.7664  1.0012
13716SOL    HW253622   1.383   6.616   5.816  0.0977  1.4080  0.8481
13717SOL     OW53623   2.696   4.643   8.559  0.8217  0.9715 -0.3881
13717SOL    HW153624   2.795   4.654   8.561  0.9392 -0.2574  1.7400
13717SOL    HW253625   2.673   4.562   8.505  0.9694  1.3602 -1.0335
13718SOL     OW53626   3.954   1.563   2.956  0.6998  0.1386  0.0342
13718SOL    HW153627   3.873   1.622   2.956  0.6924  0.1494  1.5663
13718SOL    HW253628   3.934   1.479   3.007  0.8206 -1.0674 -1.8373
13719SOL     OW53629   1.936   1.268   0.613  0.6494  0.1869 -0.3016
13719SOL    HW153630   2.027   1.243   0.647  0.1200  0.9994  1.8127
13719SOL    HW253631   1.867   1.233   0.676 -0.3675  1.9740 -0.4183
13720SOL     OW53632   2.718   8.557   0.938  0.5316 -0.2027 -0.1533
13720SOL    HW153633   2.756   8.478   0.891 -0.9784 -0.4263 -1.0448
13720SOL    HW253634   2.789   8.627   0.951  1.9939 -1.8565  1.0511
13721SOL     OW53635   7.177   4.926   6.854 -0.2253  0.7078  0.8176
13721SOL    HW153636   7.145   4.954   6.945  0.0944  1.3875  0.7256
13721SOL    HW253637   7.217   4.835   6.859 -0.4466  0.6384  1.3124
13722SOL     OW53638   5.880   2.687   6.071 -0.3861 -0.2091 -0.0688
13722SOL    HW153639   5.791   2.733   6.074 -0.1146  0.3002  0.3202
13722SOL    HW253640   5.888   2.635   5.986 -0.2827  1.3234 -1.0178
13723SOL     OW53641   4.698   0.363   6.447 -0.1936  0.4713  0.3397
13723SOL    HW153642   4.627   0.293   6.455 -0.7754  1.0838  0.5205
13723SOL    HW253643   4.660   0.446   6.407 -0.5792  2.1900  4.0388
13724SOL     OW53644   0.366   7.136   7.764  0.0053 -0.0531 -0.0618
13724SOL    HW153645   0.451   7.117   7.714 -0.1808 -0.0708 -0.3700
13724SOL    HW253646   0.365   7.231   7.794 -0.2602  0.1779 -0.8099
13725SOL     OW53647   1.274   0.053   8.987 -0.8069  0.4530  0.2753
13725SOL    HW153648   1.370   0.065   8.965 -1.1033  1.5627 -0.4772
13725SOL    HW253649   1.220   0.053   8.903 -1.5142  0.4223  0.7199
13726SOL     OW53650   4.091   6.645   3.718  0.1067 -0.2192 -0.3816
13726SOL    HW153651   4.098   6.743   3.733 -0.0007 -0.3779  0.7746
13726SOL    HW253652   4.181   6.603   3.726  0.2276 -0.1553 -1.3601
13727SOL     OW53653   2.395   1.700   7.439 -0.0920 -0.3242  0.2670
13727SOL    HW153654   2.360   1.791   7.418 -0.6987 -0.2673  1.5227
13727SOL    HW253655   2.424   1.696   7.534  3.7290 -0.2558 -0.8024
13728SOL     OW53656   4.908   6.561   3.950  0.0471 -0.1496  0.1052
13728SOL    HW153657   5.003   6.589   3.967  0.5223 -0.5983 -1.7365
13728SOL    HW253658   4.893   6.551   3.852 -2.0019  0.1844  0.3640
13729SOL     OW53659   1.531   6.939   1.686  0.8236  0.1219  0.0775
13729SOL    HW153660   1.451   6.939   1.625  1.2684 -0.4600 -0.5063
13729SOL    HW253661   1.541   6.849   1.728  1.7137 -0.0707 -0.5500
13730SOL     OW53662   2.632   5.717   2.141 -0.1357  0.1014  0.7476
13730SOL    HW153663   2.641   5.699   2.043  1.1016  0.5175  0.7744
13730SOL    HW253664   2.611   5.632   2.189 -1.5922  0.0387  0.0379
13731SOL     OW53665   6.511   5.655   3.239 -0.1169  0.0513  0.2439
13731SOL    HW153666   6.608   5.680   3.243 -0.1314  0.0245  0.8093
13731SOL    HW253667   6.476   5.675   3.147  0.1144  1.2242  0.3955
13732SOL     OW53668   4.182   4.212   1.651 -0.8258  0.0438 -0.5578
13732SOL    HW153669   4.087   4.199   1.624 -1.0380  0.9364 -0.2577
13732SOL    HW253670   4.229   4.124   1.652 -1.7017 -0.4262 -0.5212
13733SOL     OW53671   3.825   1.931   5.889 -0.1633 -0.7597 -0.6944
13733SOL    HW153672   3.770   2.005   5.852 -0.3461  0.3002  1.6089
13733SOL    HW253673   3.921   1.945   5.866  0.0311  1.1378  1.1619
13734SOL     OW53674   3.300   5.430   5.228 -0.1425  0.0070  0.1474
13734SOL    HW153675   3.248   5.361   5.279  1.9063 -0.6973  1.3537
13734SOL    HW253676   3.267   5.521   5.252  0.2915 -0.3526  2.2243
13735SOL     OW53677   1.195   7.983   1.467 -0.0693  0.1614 -0.5504
13735SOL    HW153678   1.111   7.986   1.412 -0.1777 -1.8762 -0.5492
13735SOL    HW253679   1.171   7.989   1.564 -0.4522 -2.5548 -0.4268
13736SOL     OW53680   5.423   4.090   5.783 -0.7784  0.0707 -0.2542
13736SOL    HW153681   5.456   4.179   5.750 -0.9123  0.0565 -0.4272
13736SOL    HW253682   5.484   4.018   5.751  0.4625  0.2842  1.5197
13737SOL     OW53683   2.422   8.134   0.750 -0.3063  0.3844  0.0641
13737SOL    HW153684   2.487   8.179   0.688 -0.9766 -0.7772 -1.5198
13737SOL    HW253685   2.376   8.202   0.806  1.4911  1.3201  0.4397
13738SOL     OW53686   8.540   8.090   1.523  0.3224  0.0334 -0.4904
13738SOL    HW153687   8.550   8.174   1.470 -0.8350 -0.8896 -2.2096
13738SOL    HW253688   8.630   8.049   1.536  0.7722  0.9595 -0.6064
13739SOL     OW53689   7.986   0.376   2.335 -0.3087  0.2218 -0.5004
13739SOL    HW153690   7.963   0.281   2.314  0.7362 -0.0746 -0.3448
13739SOL    HW253691   8.074   0.379   2.382 -0.8066  1.1935  0.3871
13740SOL     OW53692   0.820   2.489   6.115 -0.3148  0.3743 -0.2975
13740SOL    HW153693   0.752   2.445   6.173  0.9939 -0.9031  0.2908
13740SOL    HW253694   0.885   2.540   6.172  0.1561  0.2723 -0.7323
13741SOL     OW53695   8.445   7.732   8.537 -0.2665 -0.2657 -0.2855
13741SOL    HW153696   8.358   7.781   8.535  0.2812  0.7794  0.7619
13741SOL    HW253697   8.429   7.634   8.526 -1.5886 -0.0963  0.0571
13742SOL     OW53698   4.330   3.465   6.517  0.0474 -0.1089 -0.8682
13742SOL    HW153699   4.231   3.464   6.500 -0.1002 -1.5387 -0.0073
13742SOL    HW253700   4.365   3.372   6.510  1.1248  0.2248  0.0596
13743SOL     OW53701   2.239   3.679   8.535  0.6033 -0.0550 -0.0046
13743SOL    HW153702   2.223   3.581   8.543  1.7356 -0.1470  1.3831
13743SOL    HW253703   2.301   3.697   8.459  2.0991 -0.6332  1.0429
13744SOL     OW53704   2.602   6.307   3.034  0.4387 -0.0227 -0.0639
13744SOL    HW153705   2.620   6.306   3.132  1.0462 -0.8835 -0.1797
13744SOL    HW253706   2.686   6.325   2.984 -0.1588  2.0543 -0.3849
13745SOL     OW53707   2.232   3.062   3.945  0.2916  0.0929 -0.2824
13745SOL    HW153708   2.169   3.136   3.920  0.4139 -0.5418 -2.5948
13745SOL    HW253709   2.300   3.097   4.009 -1.0417  1.3765  0.4728
13746SOL     OW53710   4.396   5.683   3.633 -0.2379  0.5778  0.5259
13746SOL    HW153711   4.314   5.661   3.579 -0.5717  0.0370  1.2272
13746SOL    HW253712   4.371   5.745   3.707  0.1799  1.1725  0.1671
13747SOL     OW53713   0.674   4.038   2.582  0.4846  0.0482 -0.4766
13747SOL    HW153714   0.585   4.083   2.587  1.1257  1.4085 -0.8646
13747SOL    HW253715   0.677   3.962   2.647 -1.5255 -1.0486 -1.6119
13748SOL     OW53716   8.983   6.156   3.868  0.5923  0.4440  0.4046
13748SOL    HW153717   8.957   6.095   3.943 -0.1153  0.8346  0.4699
13748SOL    HW253718   8.996   6.249   3.902  1.2008  0.4333  0.2149
13749SOL     OW53719   3.898   5.250   3.187  0.0260 -0.6812 -0.0385
13749SOL    HW153720   3.947   5.214   3.109  0.8445 -0.6470  0.4574
13749SOL    HW253721   3.895   5.350   3.182  1.3002 -0.5902  0.6834
13750SOL     OW53722   4.084   4.428   3.796 -0.5028  0.2312  0.4396
13750SOL    HW153723   3.984   4.421   3.802 -0.5510 -0.0883 -0.6613
13750SOL    HW253724   4.109   4.519   3.762 -0.4232  0.3087  0.7093
13751SOL     OW53725   2.598   5.116   1.549  0.5242  0.6936 -0.2505
13751SOL    HW153726   2.657   5.095   1.471 -0.8502 -0.7759 -0.9289
13751SOL    HW253727   2.650   5.167   1.617  2.3352  0.1868 -1.2090
13752SOL     OW53728   8.659   6.315   5.680 -0.2113 -0.2799  0.1053
13752SOL    HW153729   8.729   6.244   5.687 -0.1995 -0.2200  0.6772
13752SOL    HW253730   8.698   6.403   5.706 -0.8501 -0.4862  1.8398
13753SOL     OW53731   5.424   8.139   8.697 -0.1140 -0.2960 -0.0133
13753SOL    HW153732   5.384   8.157   8.787  0.8771 -0.2145  0.4191
13753SOL    HW253733   5.504   8.080   8.708 -1.6692 -2.6859 -1.1193
13754SOL     OW53734   2.912   2.675   2.747 -0.0353 -0.1904 -0.3327
13754SOL    HW153735   2.857   2.592   2.759 -1.5073  0.5406 -1.8475
13754SOL    HW253736   2.854   2.749   2.712  1.6367  0.9902 -0.6797
13755SOL     OW53737   3.506   5.488   3.957  1.1118 -0.2478 -0.2171
13755SOL    HW153738   3.579   5.538   3.911  0.2005  0.3303 -1.0549
13755SOL    HW253739   3.500   5.395   3.919  1.8978 -0.5575  0.3857
13756SOL     OW53740   3.198   5.018   6.748  0.0982 -0.7697 -0.1621
13756SOL    HW153741   3.205   4.944   6.815  0.6448 -0.8058 -0.2555
13756SOL    HW253742   3.288   5.033   6.706  0.1262  0.3411  0.2782
13757SOL     OW53743   0.983   7.655   1.305  0.0333  0.1282 -0.2258
13757SOL    HW153744   1.071   7.611   1.325  0.4889  0.7745 -0.7960
13757SOL    HW253745   0.991   7.753   1.318 -0.6483  0.1779 -0.1467
13758SOL     OW53746   8.069   5.811   3.748  0.1963  0.3140 -0.1772
13758SOL    HW153747   8.092   5.821   3.845  1.5673  1.1379 -0.5749
13758SOL    HW253748   8.150   5.829   3.693 -0.7020  0.3560 -1.5026
13759SOL     OW53749   8.288   3.189   1.056  0.4333 -0.4433 -0.0257
13759SOL    HW153750   8.307   3.281   1.021 -1.2006 -0.3552 -0.7108
13759SOL    HW253751   8.224   3.143   0.995  0.1128 -1.5016  1.1027
13760SOL     OW53752   2.607   8.619   6.707 -0.0488 -0.3644 -0.1076
13760SOL    HW153753   2.690   8.672   6.695  0.1732 -0.2919  1.6424
13760SOL    HW253754   2.538   8.674   6.754 -0.8784 -0.6323 -0.9880
13761SOL     OW53755   4.649   1.854   8.692 -0.8066  0.2031  0.5283
13761SOL    HW153756   4.734   1.900   8.667 -1.8071  1.3773 -0.8345
13761SOL    HW253757   4.636   1.862   8.791  1.3995 -1.3306  0.9800
13762SOL     OW53758   4.570   7.161   8.405  0.0584  0.0253  0.1457
13762SOL    HW153759   4.567   7.149   8.504  1.6705 -2.7854 -0.0978
13762SOL    HW253760   4.644   7.106   8.367 -0.7162  0.8489 -2.6582
13763SOL     OW53761   4.334   3.825   5.352  0.6706  0.2166  0.1533
13763SOL    HW153762   4.353   3.726   5.347 -1.3696 -0.0912 -3.4564
13763SOL    HW253763   4.382   3.871   5.277  0.2328  1.7399  0.7994
13764SOL     OW53764   8.613   2.208   6.668 -0.1164 -0.0812 -0.0267
13764SOL    HW153765   8.514   2.199   6.659 -0.4324  2.6337  0.3685
13764SOL    HW253766   8.637   2.224   6.763  0.7139 -0.7012 -0.1252
13765SOL     OW53767   5.052   5.718   3.655 -0.2913  0.1215 -0.3101
13765SOL    HW153768   4.982   5.658   3.695  0.3787 -0.6896 -0.3413
13765SOL    HW253769   5.074   5.687   3.563 -0.2279  0.6569 -0.4754
13766SOL     OW53770   8.046   7.803   1.618 -0.1849  0.4179 -0.0035
13766SOL    HW153771   8.063   7.870   1.690 -1.0117  0.3877  0.2161
13766SOL    HW253772   8.071   7.712   1.651 -0.1774  0.4593  0.1066
13767SOL     OW53773   0.757   8.563   0.669  0.2228 -0.0182  0.3941
13767SOL    HW153774   0.735   8.494   0.738 -0.1666 -0.8262 -0.5189
13767SOL    HW253775   0.699   8.549   0.589  0.8286  0.7626 -0.1895
13768SOL     OW53776   3.730   1.453   1.854  0.2447 -0.0317 -0.7865
13768SOL    HW153777   3.794   1.524   1.882  0.0264 -0.2397  0.2643
13768SOL    HW253778   3.658   1.443   1.923 -0.0800 -0.8427 -1.2242
13769SOL     OW53779   4.226   3.013   3.367 -0.3239  0.3770  0.3870
13769SOL    HW153780   4.130   2.993   3.384 -0.5169  0.2404 -0.7623
13769SOL    HW253781   4.235   3.058   3.278  0.6424  0.6588  0.6208
13770SOL     OW53782   7.156   5.180   0.815 -0.0667 -0.4636  0.4508
13770SOL    HW153783   7.113   5.264   0.781 -0.6653 -0.3056  1.5577
13770SOL    HW253784   7.105   5.101   0.781  0.4223 -0.3865 -0.4896
13771SOL     OW53785   5.234   1.708   3.948 -0.1447 -0.3773 -0.0338
13771SOL    HW153786   5.296   1.752   3.882  1.9007  0.9982  2.7066
13771SOL    HW253787   5.221   1.768   4.026 -2.3538 -2.0856  0.9602
13772SOL     OW53788   7.298   7.759   7.096  0.6214 -0.8466  0.0690
13772SOL    HW153789   7.292   7.817   7.177  1.5677  0.4238 -0.7558
13772SOL    HW253790   7.298   7.663   7.125  3.4026 -0.4172  1.8100
13773SOL     OW53791   5.018   7.998   0.496  0.1562  0.9156  0.3865
13773SOL    HW153792   5.075   8.069   0.454  0.3610  0.6584  0.2374
13773SOL    HW253793   5.031   7.998   0.595  1.3137  0.0501  0.2380
13774SOL     OW53794   5.861   5.661   2.534  0.4882 -0.2967 -0.3567
13774SOL    HW153795   5.774   5.635   2.574 -0.1566 -1.5290 -2.4497
13774SOL    HW253796   5.874   5.611   2.448  2.7847  0.6352 -0.5889
13775SOL     OW53797   5.955   2.995   1.827  0.3518 -0.2533  0.0529
13775SOL    HW153798   5.921   3.043   1.746 -0.2250 -0.2017  0.3232
13775SOL    HW253799   6.030   2.934   1.801  0.9163  0.5958 -0.3316
13776SOL     OW53800   1.219   2.739   8.279 -0.4406 -0.4527  0.0904
13776SOL    HW153801   1.162   2.721   8.358 -2.2180  0.3756 -0.9874
13776SOL    HW253802   1.208   2.834   8.249  0.3351 -0.6997 -1.0568
13777SOL     OW53803   6.624   8.480   7.158  0.0429 -0.2258 -0.0472
13777SOL    HW153804   6.717   8.453   7.134  0.4262  0.5129  0.5787
13777SOL    HW253805   6.613   8.475   7.258 -0.1315  1.0781  0.0059
13778SOL     OW53806   0.095   0.218   4.971 -0.2331  0.0866 -0.4823
13778SOL    HW153807   0.052   0.288   4.915 -0.3913  0.2061 -0.2112
13778SOL    HW253808   0.193   0.236   4.979  0.0100 -0.5815 -1.6990
13779SOL     OW53809   1.952   0.304   8.185 -0.1272 -0.5596 -0.6865
13779SOL    HW153810   2.034   0.273   8.136 -0.3597  0.2614 -1.6219
13779SOL    HW253811   1.962   0.401   8.208 -0.7925 -0.4816 -0.7145
13780SOL     OW53812   5.221   6.844   1.640  0.1585  0.0950  0.2508
13780SOL    HW153813   5.195   6.884   1.728  0.2784 -0.6333  0.6160
13780SOL    HW253814   5.319   6.858   1.625  0.0414  0.6752 -0.0092
13781SOL     OW53815   2.702   3.068   2.288 -0.1107 -0.0432 -0.7621
13781SOL    HW153816   2.785   3.019   2.314 -0.3896  0.0213  0.2925
13781SOL    HW253817   2.691   3.066   2.189 -1.0738 -3.6654 -0.6623
13782SOL     OW53818   4.815   8.951   3.650  0.4561  0.7022 -0.2288
13782SOL    HW153819   4.800   8.875   3.714  0.0463  0.4402 -0.6273
13782SOL    HW253820   4.761   9.030   3.679 -0.2189  0.3825 -0.5826
13783SOL     OW53821   5.550   7.417   7.702  0.0518  0.2934 -0.5495
13783SOL    HW153822   5.453   7.435   7.716 -0.1886  0.3470 -2.1173
13783SOL    HW253823   5.584   7.356   7.773 -0.8686  1.1212  0.6166
13784SOL     OW53824   1.312   6.913   1.522  0.4197  0.2855 -0.7006
13784SOL    HW153825   1.255   6.991   1.546 -0.4583 -0.2250 -1.0669
13784SOL    HW253826   1.280   6.874   1.435  0.4002 -0.8918 -0.1834
13785SOL     OW53827   6.125   2.473   0.194  0.0455 -0.1076  0.3715
13785SOL    HW153828   6.155   2.567   0.212 -1.8229  0.3771  1.1285
13785SOL    HW253829   6.033   2.474   0.155  1.1155 -1.5221 -2.2960
13786SOL     OW53830   7.104   2.720   8.234  0.1124  0.6582 -0.5947
13786SOL    HW153831   7.039   2.703   8.308  0.9703 -0.4240 -0.0750
13786SOL    HW253832   7.139   2.814   8.241 -0.3390  0.7882 -0.0526
13787SOL     OW53833   7.946   2.675   4.627 -0.4436  0.6175 -0.2006
13787SOL    HW153834   7.849   2.668   4.650 -0.4628  2.5873  0.4785
13787SOL    HW253835   8.000   2.624   4.694 -0.8463  1.8910  1.1177
13788SOL     OW53836   5.981   7.867   7.105 -0.1899 -0.8655 -0.5979
13788SOL    HW153837   5.898   7.855   7.051 -0.4842 -1.6565  0.0315
13788SOL    HW253838   6.019   7.959   7.088 -0.0479 -1.2520 -2.4618
13789SOL     OW53839   4.095   2.224   5.874 -0.4559  0.1061  0.0226
13789SOL    HW153840   4.150   2.302   5.843 -0.9210  0.3302 -0.2564
13789SOL    HW253841   3.998   2.248   5.867 -0.6045 -0.5989 -0.3356
13790SOL     OW53842   4.365   7.422   8.752 -0.2762  0.4424  0.6422
13790SOL    HW153843   4.305   7.493   8.790 -1.5980 -0.1286 -0.3558
13790SOL    HW253844   4.310   7.344   8.724  1.0267 -0.3879  0.3702
13791SOL     OW53845   7.087   0.090   6.148  0.6396  0.1974 -0.1084
13791SOL    HW153846   7.113  -0.004   6.128  0.4992  0.3241 -0.8790
13791SOL    HW253847   7.080   0.142   6.063 -1.7093  0.2690  0.0936
13792SOL     OW53848   4.595   7.594   4.658 -0.0606  0.5016  0.1216
13792SOL    HW153849   4.680   7.550   4.631 -0.2253 -0.1541  0.6696
13792SOL    HW253850   4.613   7.667   4.724 -0.0263 -0.3245  1.0305
13793SOL     OW53851   4.630   7.346   7.092 -0.5169  0.1473 -0.0735
13793SOL    HW153852   4.695   7.366   7.019 -1.0761  0.4430 -0.4930
13793SOL    HW253853   4.547   7.306   7.053 -0.9339  0.5809  0.3657
13794SOL     OW53854   1.944   1.879   1.243  0.1107 -0.1178  0.9890
13794SOL    HW153855   1.935   1.938   1.324 -1.3994  1.1674 -0.0770
13794SOL    HW253856   1.934   1.934   1.161 -0.0005 -1.6685 -0.0557
13795SOL     OW53857   3.626   5.342   2.006 -0.0008 -0.1309 -0.2280
13795SOL    HW153858   3.654   5.246   2.006  3.6752  0.8707 -1.1167
13795SOL    HW253859   3.638   5.380   1.915  1.1034  1.8272  0.6932
13796SOL     OW53860   2.284   8.320   0.899 -0.3879 -0.4370  0.3899
13796SOL    HW153861   2.191   8.353   0.912  0.8548  2.4454  2.6421
13796SOL    HW253862   2.348   8.381   0.947  3.0085 -0.0623 -4.2934
13797SOL     OW53863   2.211   7.643   6.064 -0.0599 -1.0001 -0.0789
13797SOL    HW153864   2.298   7.660   6.110 -1.0421  3.0280  0.4557
13797SOL    HW253865   2.147   7.602   6.129  0.3642 -0.7763  0.4833
13798SOL     OW53866   8.749   6.554   5.824 -0.5481 -0.0575 -0.2157
13798SOL    HW153867   8.795   6.563   5.912 -0.9203 -0.6027  0.0378
13798SOL    HW253868   8.695   6.636   5.806 -0.5317  0.0198  0.0945
13799SOL     OW53869   8.563   5.854   6.429  0.0544 -0.0185 -0.4889
13799SOL    HW153870   8.586   5.906   6.512 -0.1929 -0.2239 -0.2887
13799SOL    HW253871   8.463   5.850   6.419  0.1122  1.5727 -1.8006
13800SOL     OW53872   2.574   4.080   7.572 -0.1418  0.3955  0.1563
13800SOL    HW153873   2.528   4.053   7.656 -0.4458  0.9019  0.1560
13800SOL    HW253874   2.508   4.117   7.507 -0.0133 -0.6381 -0.5824
13801SOL     OW53875   7.028   2.927   2.012  0.4303 -0.2878  0.0324
13801SOL    HW153876   6.929   2.927   2.007  0.4672  0.1155 -0.6765
13801SOL    HW253877   7.066   2.971   1.931  1.2156 -1.6352 -0.3508
13802SOL     OW53878   1.134   6.831   7.073 -0.1098  0.3434 -0.2208
13802SOL    HW153879   1.190   6.748   7.079  0.7490  0.7847 -1.7381
13802SOL    HW253880   1.184   6.907   7.114 -0.1037  0.4938 -0.5064
13803SOL     OW53881   8.436   7.793   1.719  0.1638 -0.2788  0.4582
13803SOL    HW153882   8.535   7.785   1.711  0.5429  2.4485  1.9148
13803SOL    HW253883   8.399   7.831   1.633  0.9630  2.9381  1.4664
13804SOL     OW53884   6.137   5.888   2.943  0.0495 -0.1445 -0.2711
13804SOL    HW153885   6.102   5.881   2.850 -1.6940 -1.8708  0.4928
13804SOL    HW253886   6.063   5.912   3.006  1.2073  1.0212  0.6946
13805SOL     OW53887   4.267   5.471   8.300  0.3340 -0.1661 -0.7760
13805SOL    HW153888   4.260   5.455   8.399 -0.5258 -0.2897 -0.8519
13805SOL    HW253889   4.320   5.554   8.283  1.3854 -0.7128 -0.2455
13806SOL     OW53890   2.563   8.536   6.181 -0.6717  0.6081 -0.5081
13806SOL    HW153891   2.628   8.611   6.166  0.1582  0.3699  1.7806
13806SOL    HW253892   2.505   8.557   6.259 -0.4420 -1.1294  0.1477
13807SOL     OW53893   2.737   8.423   5.926 -0.8173  0.0917 -0.4391
13807SOL    HW153894   2.698   8.463   5.843 -1.0777 -0.6611 -0.6908
13807SOL    HW253895   2.705   8.473   6.006 -1.1631  0.3630 -0.7469
13808SOL     OW53896   8.560   2.614   2.829  0.0398 -0.1819  0.2578
13808SOL    HW153897   8.511   2.646   2.748  0.4225  2.6726  1.0915
13808SOL    HW253898   8.503   2.550   2.880 -0.2330 -1.9825 -2.1912
13809SOL     OW53899   2.989   6.434   7.984  0.3286 -0.4474 -0.4487
13809SOL    HW153900   2.954   6.340   7.980  1.2979 -0.8007 -0.8630
13809SOL    HW253901   3.000   6.461   8.079  0.0587 -0.7622 -0.3261
13810SOL     OW53902   1.626   7.228   6.257 -0.1215  0.1110 -0.3492
13810SOL    HW153903   1.725   7.231   6.243  0.3784  1.3205  3.0178
13810SOL    HW253904   1.598   7.305   6.315 -2.7846 -1.2062  0.1889
13811SOL     OW53905   2.611   4.121   4.971 -0.0775  1.0131 -0.9024
13811SOL    HW153906   2.578   4.094   4.881 -0.3744 -0.0487 -0.4780
13811SOL    HW253907   2.549   4.087   5.041  1.5928 -0.5131 -0.1275
13812SOL     OW53908   4.673   0.238   0.283 -0.8062 -0.1410  0.1105
13812SOL    HW153909   4.648   0.159   0.227 -1.1935  1.2593 -1.7256
13812SOL    HW253910   4.772   0.254   0.275 -0.9063  0.2208 -0.3671
13813SOL     OW53911   7.969   4.532   7.339 -0.4445 -0.0945  0.1126
13813SOL    HW153912   7.928   4.566   7.423  1.7901  0.8501  0.8536
13813SOL    HW253913   7.897   4.506   7.275 -2.1688 -1.0324  2.3748
13814SOL     OW53914   2.166   4.722   5.190 -0.1229  0.3549  0.0471
13814SOL    HW153915   2.238   4.715   5.259  1.4497 -1.3320 -1.7194
13814SOL    HW253916   2.163   4.816   5.155  2.0030  0.1931 -0.6514
13815SOL     OW53917   8.466   2.010   0.182  0.5761  0.2090  0.1931
13815SOL    HW153918   8.411   2.058   0.249 -1.1572  1.1316 -1.8456
13815SOL    HW253919   8.481   1.916   0.213 -2.0664 -0.0323  0.8465
13816SOL     OW53920   5.442   6.975   8.464 -0.7264 -0.2039  0.3558
13816SOL    HW153921   5.437   6.972   8.364  0.1673 -0.9286  0.3347
13816SOL    HW253922   5.362   6.930   8.502 -1.4084  0.6614 -0.0320
13817SOL     OW53923   3.190   6.176   1.758 -0.5228 -0.1576  0.2834
13817SOL    HW153924   3.152   6.220   1.840  1.0542  0.6189  0.6228
13817SOL    HW253925   3.286   6.202   1.748 -0.3539 -1.2590 -1.1245
13818SOL     OW53926   8.361   1.845   3.295 -0.3023 -0.4463  0.1352
13818SOL    HW153927   8.390   1.754   3.325 -1.4343 -0.9010 -0.1093
13818SOL    HW253928   8.334   1.898   3.375  0.7647 -0.1679  0.3210
13819SOL     OW53929   3.181   7.336   2.952  0.6664 -0.3036  0.6657
13819SOL    HW153930   3.220   7.251   2.988  0.2935  0.1356  2.1358
13819SOL    HW253931   3.082   7.327   2.943  0.7956 -0.5553 -0.6971
13820SOL     OW53932   8.650   7.615   1.087 -0.3852  0.4096  0.1170
13820SOL    HW153933   8.564   7.665   1.089 -0.6352 -0.0418  1.1283
13820SOL    HW253934   8.673   7.585   1.180  0.0833 -0.7738 -0.3702
13821SOL     OW53935   1.791   6.538   5.566  0.0957 -0.5987  0.3090
13821SOL    HW153936   1.729   6.611   5.594  0.2969  0.0518 -0.9469
13821SOL    HW253937   1.875   6.543   5.620 -1.5798 -2.5395  3.2529
13822SOL     OW53938   6.592   4.677   8.210  0.3719  0.0935  0.1723
13822SOL    HW153939   6.556   4.607   8.272  0.2822 -0.4774 -0.5130
13822SOL    HW253940   6.519   4.742   8.189  1.0239  1.6281  2.4916
13823SOL     OW53941   0.423   5.132   5.139 -0.3642 -0.6686 -0.3705
13823SOL    HW153942   0.378   5.203   5.084 -1.4976 -0.5951  0.6434
13823SOL    HW253943   0.355   5.080   5.189  0.5916 -1.4331  0.1595
13824SOL     OW53944   2.314   8.100   6.292  0.2285  0.1425 -0.6418
13824SOL    HW153945   2.389   8.165   6.299  1.4072 -1.5101  3.5066
13824SOL    HW253946   2.346   8.016   6.248  1.0556 -0.8167  1.7319
13825SOL     OW53947   2.111   6.027   2.742 -0.1325 -0.5365 -0.2359
13825SOL    HW153948   2.107   5.927   2.743  1.6357 -0.6311 -1.2579
13825SOL    HW253949   2.189   6.058   2.797 -0.7085  0.3032  0.1282
13826SOL     OW53950   2.804   1.324   8.180 -0.1740 -0.2869  0.4970
13826SOL    HW153951   2.882   1.292   8.233  0.2978 -0.6345 -0.4051
13826SOL    HW253952   2.791   1.265   8.101  0.8478  1.8871 -1.3284
13827SOL     OW53953   1.167   7.127   2.003 -0.0339  0.2573 -0.4720
13827SOL    HW153954   1.149   7.197   2.071  0.4772  0.0314 -0.0994
13827SOL    HW253955   1.265   7.126   1.980 -0.3910  1.1609 -2.1214
13828SOL     OW53956   8.387   5.048   7.771 -0.4932  0.0182 -0.3938
13828SOL    HW153957   8.342   5.015   7.854 -1.5849  1.9818 -0.1603
13828SOL    HW253958   8.332   5.024   7.691  0.5469 -1.8526 -0.5610
13829SOL     OW53959   8.017   7.663   8.898  0.0416 -0.1701 -0.4233
13829SOL    HW153960   8.106   7.709   8.906  1.1555 -2.5191  1.2497
13829SOL    HW253961   8.027   7.582   8.840 -0.7009 -1.2236  0.9191
13830SOL     OW53962   2.348   2.811   7.016  0.5143  0.2480  0.0702
13830SOL    HW153963   2.372   2.729   7.067 -0.3474  0.5090  0.9118
13830SOL    HW253964   2.278   2.862   7.066  1.2671  1.6585 -0.2946
13831SOL     OW53965   7.895   5.399   6.679  0.0639  0.4741  0.2019
13831SOL    HW153966   7.832   5.467   6.718 -1.3945 -1.4594  1.3661
13831SOL    HW253967   7.847   5.346   6.610  0.9319  0.0939 -0.1082
13832SOL     OW53968   0.788   1.206   3.147 -0.0574 -0.1162  0.4535
13832SOL    HW153969   0.793   1.238   3.242 -0.0224  1.2410  0.0137
13832SOL    HW253970   0.824   1.113   3.141  0.9810  0.1917  1.5978
13833SOL     OW53971   7.466   0.551   3.948 -0.2757 -0.0215 -0.1218
13833SOL    HW153972   7.514   0.468   3.975 -2.2089 -0.9707  0.4648
13833SOL    HW253973   7.401   0.577   4.018 -0.4547  1.3998 -0.7872
13834SOL     OW53974   5.240   3.598   6.984 -0.8161 -0.0677 -0.1715
13834SOL    HW153975   5.196   3.659   6.918  0.9968 -1.1322 -2.4698
13834SOL    HW253976   5.171   3.542   7.030 -2.3470  2.5240  0.7823
13835SOL     OW53977   3.094   7.320   2.594 -0.1763  0.2238  0.1928
13835SOL    HW153978   3.030   7.251   2.628 -2.9069  1.4459 -2.2225
13835SOL    HW253979   3.053   7.410   2.602  2.1792  1.2930  0.6096
13836SOL     OW53980   3.364   4.988   6.057  0.1381  0.2277  0.0190
13836SOL    HW153981   3.299   5.001   5.982  0.1767  0.5382  0.0361
13836SOL    HW253982   3.378   5.075   6.104 -0.8087 -0.2148  1.1446
13837SOL     OW53983   4.628   1.263   2.397  0.0967  0.1522 -0.3958
13837SOL    HW153984   4.575   1.344   2.425  0.3703 -0.1627  1.1080
13837SOL    HW253985   4.701   1.291   2.335 -1.0741  0.7627 -1.5223
13838SOL     OW53986   0.763   7.677   2.944 -0.3102 -0.1716  0.1118
13838SOL    HW153987   0.768   7.737   3.023  0.8284  0.3644 -0.3483
13838SOL    HW253988   0.767   7.732   2.860  1.8584 -0.9229 -0.3196
13839SOL     OW53989   2.969   7.112   4.627  0.7727  0.0993 -0.4579
13839SOL    HW153990   2.979   7.107   4.727  1.6722  1.1607 -0.4825
13839SOL    HW253991   3.008   7.030   4.586 -0.1544 -0.6306  0.0934
13840SOL     OW53992   0.114   1.458   7.891 -0.1132  0.5455 -0.5061
13840SOL    HW153993   0.174   1.496   7.962  0.2212  0.0123 -0.5052
13840SOL    HW253994   0.168   1.435   7.810 -0.0233 -1.5670  0.1295
13841SOL     OW53995   4.379   1.139   6.973  0.1208  0.2676  0.2970
13841SOL    HW153996   4.358   1.046   6.943 -0.1463  0.1449  0.8586
13841SOL    HW253997   4.467   1.139   7.019  0.7077  0.5244 -0.8044
13842SOL     OW53998   7.853   3.815   5.292  0.1756 -0.0028  0.0109
13842SOL    HW153999   7.826   3.778   5.381 -2.5940 -0.3929 -0.9479
13842SOL    HW254000   7.780   3.872   5.256  1.5649  0.7377 -1.7146
13843SOL     OW54001   0.162   6.626   1.430 -0.1428  0.0877  1.1933
13843SOL    HW154002   0.181   6.713   1.477  2.1259 -0.4471  1.3164
13843SOL    HW254003   0.150   6.554   1.498 -1.1040  0.1142  1.0585
13844SOL     OW54004   2.573   8.343   6.711  0.3828 -0.4246 -0.0456
13844SOL    HW154005   2.641   8.290   6.762 -0.4886 -1.1980  0.3079
13844SOL    HW254006   2.601   8.440   6.710  1.7361 -0.7978 -0.3092
13845SOL     OW54007   7.819   2.772   3.077  0.4399 -0.0564 -0.8221
13845SOL    HW154008   7.815   2.707   3.153  0.2194  0.4863 -0.3654
13845SOL    HW254009   7.766   2.737   3.000  1.9268 -1.3326 -1.2920
13846SOL     OW54010   5.690   6.793   3.485  0.9564 -0.0071 -0.9345
13846SOL    HW154011   5.713   6.865   3.419  0.2073  1.8801  0.8136
13846SOL    HW254012   5.639   6.832   3.561  0.5047 -2.4199  0.0580
13847SOL     OW54013   0.324   7.325   0.817 -0.0854  0.1224  0.1507
13847SOL    HW154014   0.348   7.247   0.875  1.7088 -0.3391 -1.1725
13847SOL    HW254015   0.286   7.398   0.874 -2.1583 -1.8502  1.3457
13848SOL     OW54016   3.365   6.924   7.041 -0.5568 -0.4055  0.0230
13848SOL    HW154017   3.450   6.920   7.094 -0.4355  2.5645  0.1272
13848SOL    HW254018   3.297   6.864   7.082  1.3141 -2.3980  0.2683
13849SOL     OW54019   5.912   5.091   7.104  1.2848 -0.0772 -0.2992
13849SOL    HW154020   5.896   5.182   7.144  0.6036 -0.6787  0.8332
13849SOL    HW254021   5.865   5.022   7.159  2.2813 -1.1851 -0.8241
13850SOL     OW54022   8.421   0.916   0.244  0.0725 -0.0710  0.4992
13850SOL    HW154023   8.333   0.956   0.216  0.6877  0.5415 -0.5778
13850SOL    HW254024   8.410   0.873   0.334 -1.0103  1.1237  0.9633
13851SOL     OW54025   4.567   2.017   7.096  0.3175  0.1504  0.8794
13851SOL    HW154026   4.537   2.018   7.191  0.4432  0.1361  0.9201
13851SOL    HW254027   4.546   1.928   7.055 -0.4272  0.4187  0.6674
13852SOL     OW54028   6.563   1.908   1.798  0.0450  0.6572 -0.0192
13852SOL    HW154029   6.540   2.004   1.780 -1.2499  0.2560 -0.5289
13852SOL    HW254030   6.650   1.886   1.753  0.2291  1.5211 -0.1032
13853SOL     OW54031   8.202   6.595   3.871  0.0497  0.0633  0.0113
13853SOL    HW154032   8.102   6.589   3.866 -0.1847  2.3303  1.5471
13853SOL    HW254033   8.234   6.547   3.952  0.2147 -0.4903 -0.3741
13854SOL     OW54034   8.593   2.361   2.641  0.0492  0.4869  0.3394
13854SOL    HW154035   8.685   2.365   2.602  0.5246 -1.7314  1.1381
13854SOL    HW254036   8.525   2.374   2.568  0.9750 -0.4308 -0.7172
13855SOL     OW54037   3.513   3.033   0.105  0.6834 -0.2623 -0.8006
13855SOL    HW154038   3.416   3.059   0.102  0.8916  0.5843 -0.4030
13855SOL    HW254039   3.550   3.054   0.196  0.6952 -2.6061 -0.2437
13856SOL     OW54040   6.056   2.988   7.899  0.0644  0.3633  0.0235
13856SOL    HW154041   6.091   3.011   7.808 -2.9775 -2.4263 -1.9786
13856SOL    HW254042   6.113   2.916   7.940  0.5369  0.5201 -0.3590
13857SOL     OW54043   2.389   7.606   7.935  0.3272  0.0643 -0.6319
13857SOL    HW154044   2.325   7.533   7.958  1.9397 -1.3671 -0.6021
13857SOL    HW254045   2.354   7.658   7.857 -1.1011 -0.3671 -0.2887
13858SOL     OW54046   7.041   7.237   2.248 -0.9401 -0.3150  0.1499
13858SOL    HW154047   7.119   7.298   2.254  0.0647 -1.6067  0.6399
13858SOL    HW254048   6.957   7.288   2.263 -0.2217  1.1774 -0.8538
13859SOL     OW54049   7.064   5.869   3.010  0.0983  0.4715 -0.3050
13859SOL    HW154050   7.091   5.919   3.093  1.7157 -1.7113  0.5356
13859SOL    HW254051   7.101   5.917   2.930  1.1044  0.9670  0.4351
13860SOL     OW54052   8.288   1.845   7.341  0.2328  0.3329  0.0732
13860SOL    HW154053   8.209   1.801   7.383 -0.6446 -0.3948 -2.2327
13860SOL    HW254054   8.322   1.918   7.400 -1.3315 -0.2271  1.6917
13861SOL     OW54055   2.797   2.753   8.733 -0.4948  0.5714 -0.0159
13861SOL    HW154056   2.790   2.655   8.751  4.0363  0.4152  1.4286
13861SOL    HW254057   2.794   2.803   8.819  2.9873  1.2060 -0.2080
13862SOL     OW54058   3.574   7.862   5.337 -0.4463  0.0533  0.0994
13862SOL    HW154059   3.616   7.886   5.424  2.4782  1.1311 -1.5631
13862SOL    HW254060   3.562   7.763   5.332  0.8514 -0.1667  1.0722
13863SOL     OW54061   5.797   5.622   4.690 -0.2085  0.1866 -0.2304
13863SOL    HW154062   5.746   5.635   4.775 -1.6723 -1.3059 -0.8275
13863SOL    HW254063   5.734   5.628   4.613  0.7531 -0.3958 -1.0784
13864SOL     OW54064   4.430   2.707   2.566 -0.4322  0.3515  0.1457
13864SOL    HW154065   4.505   2.676   2.624 -0.6744 -0.5084 -0.0028
13864SOL    HW254066   4.398   2.796   2.598  0.0713  0.3151  0.7457
13865SOL     OW54067   8.149   6.025   8.610  0.6254 -0.4395  0.3645
13865SOL    HW154068   8.183   6.115   8.585 -0.1910 -0.6627 -1.5710
13865SOL    HW254069   8.174   6.006   8.705 -0.6910  2.5037  1.3453
13866SOL     OW54070   2.601   2.059   8.179 -0.1660  0.1260 -0.8253
13866SOL    HW154071   2.571   1.964   8.183 -0.8683  0.3514 -0.7039
13866SOL    HW254072   2.524   2.119   8.197  0.5852  0.6874  0.6906
13867SOL     OW54073   0.752   6.845   7.620  0.5234 -0.0224 -0.1551
13867SOL    HW154074   0.727   6.799   7.535 -0.7038 -0.1360  0.2627
13867SOL    HW254075   0.851   6.834   7.636  1.1317  1.5491 -2.4850
13868SOL     OW54076   8.003   0.602   6.266 -0.1539 -0.0776  0.5877
13868SOL    HW154077   8.089   0.574   6.223 -0.2869 -1.1911  1.0286
13868SOL    HW254078   7.926   0.569   6.211 -0.3070  1.4715 -0.1514
13869SOL     OW54079   1.073   1.375   2.123 -0.5079  0.2641 -0.0948
13869SOL    HW154080   1.089   1.335   2.213 -1.9417  1.3377  0.6522
13869SOL    HW254081   1.156   1.422   2.092  1.4160 -3.6518 -1.2471
13870SOL     OW54082   0.403   0.462   4.760 -0.3281  0.2532 -0.1956
13870SOL    HW154083   0.439   0.438   4.669 -1.4868 -1.3404 -0.2476
13870SOL    HW254084   0.316   0.510   4.750  0.0878  1.0683  0.0480
13871SOL     OW54085   2.499   5.748   8.154  0.1775 -0.2717 -0.2780
13871SOL    HW154086   2.553   5.737   8.237 -3.0320  1.7086  2.1670
13871SOL    HW254087   2.467   5.658   8.123  2.2203 -1.1206  0.0195
13872SOL     OW54088   6.351   3.834   4.442  0.2597  0.0922  0.2420
13872SOL    HW154089   6.401   3.775   4.505 -0.0850 -0.8802 -0.3874
13872SOL    HW254090   6.252   3.824   4.457  0.1672 -0.2666 -0.5396
13873SOL     OW54091   6.508   8.222   7.967  0.2196  0.2778 -0.0150
13873SOL    HW154092   6.482   8.144   8.023 -2.1097  1.1333  0.1897
13873SOL    HW254093   6.426   8.259   7.923  1.2497  2.7081  0.0468
13874SOL     OW54094   0.445   5.773   0.743 -0.4375 -0.2588 -0.2113
13874SOL    HW154095   0.544   5.778   0.758 -0.3329  0.4147 -1.1009
13874SOL    HW254096   0.424   5.801   0.650 -1.5562  0.3831  0.2281
13875SOL     OW54097   5.584   5.580   5.628  0.0909  0.1082 -0.3614
13875SOL    HW154098   5.539   5.662   5.592 -2.1857  0.0330  2.1123
13875SOL    HW254099   5.564   5.502   5.569 -1.1918  0.5428 -0.5099
13876SOL     OW54100   4.504   3.134   6.719  0.1756 -0.5384  0.2873
13876SOL    HW154101   4.421   3.081   6.734  1.4507 -2.2478  1.3995
13876SOL    HW254102   4.568   3.082   6.662  1.0957  0.1551  0.6650
13877SOL     OW54103   0.683   1.530   7.638 -0.2012 -0.8106 -0.1600
13877SOL    HW154104   0.633   1.522   7.724 -1.6208  0.6963 -0.8240
13877SOL    HW254105   0.692   1.440   7.596 -0.2379 -1.4311  1.1452
13878SOL     OW54106   2.303   2.747   2.302 -0.1967  0.0444  0.0429
13878SOL    HW154107   2.276   2.652   2.314 -1.0906  0.0247 -2.0664
13878SOL    HW254108   2.221   2.805   2.296  0.2569  0.5100 -2.0969
13879SOL     OW54109   8.268   6.528   5.107 -0.0159 -0.1973 -1.0318
13879SOL    HW154110   8.338   6.480   5.160 -1.0510 -0.1126  0.4361
13879SOL    HW254111   8.240   6.611   5.157 -1.1287 -0.2083 -1.6300
13880SOL     OW54112   5.916   7.017   1.457  0.1625 -0.5807  0.4810
13880SOL    HW154113   5.852   7.086   1.491 -0.0422  0.4428 -1.9505
13880SOL    HW254114   6.003   7.025   1.507 -0.9081 -0.7089  2.4310
13881SOL     OW54115   3.664   0.554   0.278 -0.3279 -0.2258  0.1482
13881SOL    HW154116   3.744   0.496   0.295 -0.5748 -0.2197  1.3735
13881SOL    HW254117   3.669   0.635   0.337 -0.8680  0.1380 -0.3038
13882SOL     OW54118   0.295   7.863   7.577 -0.4193  0.0639 -0.3237
13882SOL    HW154119   0.213   7.812   7.552  0.6205 -1.1684 -1.2680
13882SOL    HW254120   0.268   7.949   7.621 -2.1654 -1.9977  2.8282
13883SOL     OW54121   7.871   8.936   2.227  0.1002  0.1327  0.5122
13883SOL    HW154122   7.926   8.852   2.231 -0.0509  0.0672  1.3503
13883SOL    HW254123   7.778   8.913   2.197 -0.1662 -0.1184  1.5214
13884SOL     OW54124   2.295   7.223   4.840 -0.1178 -0.2056  0.1212
13884SOL    HW154125   2.392   7.238   4.820 -0.3248  0.1467 -0.6670
13884SOL    HW254126   2.274   7.126   4.827 -0.3174  0.0613 -1.7975
13885SOL     OW54127   8.891   5.446   0.962  0.4288  0.6414 -0.5037
13885SOL    HW154128   8.855   5.386   1.034  1.1536  1.2790  0.4145
13885SOL    HW254129   8.846   5.535   0.967 -0.4866  0.2565 -1.7236
13886SOL     OW54130   2.494   0.390   7.662  0.1081 -0.0155  0.1736
13886SOL    HW154131   2.464   0.484   7.647  0.1968 -0.0231 -0.0544
13886SOL    HW254132   2.426   0.327   7.626  0.7636 -0.0289 -1.0801
13887SOL     OW54133   5.049   2.995   2.838  0.4014 -0.5468  0.4059
13887SOL    HW154134   5.019   3.084   2.806 -0.9789 -0.3399  2.2072
13887SOL    HW254135   5.095   2.946   2.763 -3.9420 -0.7012 -2.3182
13888SOL     OW54136   6.551   7.604   2.604  0.4167 -0.6069 -0.3631
13888SOL    HW154137   6.558   7.643   2.696 -0.2655  0.2943 -0.6826
13888SOL    HW254138   6.561   7.504   2.609 -0.3145 -0.6325  0.7714
13889SOL     OW54139   7.813   6.409   5.318 -0.3989  0.3843 -0.3222
13889SOL    HW154140   7.721   6.421   5.355 -0.5023 -0.0991 -0.4117
13889SOL    HW254141   7.810   6.344   5.241  0.1954 -0.5507  0.4276
13890SOL     OW54142   8.249   4.249   7.212 -0.0269  0.8019  0.2111
13890SOL    HW154143   8.242   4.223   7.308 -1.3830  1.0366  0.1898
13890SOL    HW254144   8.324   4.314   7.200 -1.5492  2.8804  1.5899
13891SOL     OW54145   3.514   7.938   8.762 -0.3698  0.2127 -0.3993
13891SOL    HW154146   3.610   7.963   8.746 -0.2344  0.1468  0.2948
13891SOL    HW254147   3.501   7.842   8.737 -0.6328  0.6620 -2.0146
13892SOL     OW54148   0.745   8.844   4.911  0.0913  0.0389 -0.1184
13892SOL    HW154149   0.758   8.935   4.950 -1.2569 -0.8179  2.4249
13892SOL    HW254150   0.831   8.793   4.917  1.0825  1.3681 -2.2868
13893SOL     OW54151   6.058   6.521   5.825 -0.4672 -0.0233 -0.7840
13893SOL    HW154152   5.961   6.503   5.804 -1.0797  0.4867  1.4640
13893SOL    HW254153   6.082   6.613   5.795 -1.5088  0.9383  1.2408
13894SOL     OW54154   2.686   1.191   4.577  0.6662 -0.7940  0.5045
13894SOL    HW154155   2.710   1.231   4.665  1.5690  0.5067 -0.3121
13894SOL    HW254156   2.587   1.179   4.571  0.4340  0.8142  0.9801
13895SOL     OW54157   1.318   0.751   3.287  0.0771  0.2787  0.2552
13895SOL    HW154158   1.257   0.707   3.352  1.5205  0.9265  2.0826
13895SOL    HW254159   1.377   0.815   3.335  1.0020  0.9558 -1.7409
13896SOL     OW54160   7.294   6.584   0.426 -0.1781 -0.1309 -0.5491
13896SOL    HW154161   7.305   6.682   0.411  0.9048  0.2803  2.5625
13896SOL    HW254162   7.366   6.534   0.379 -1.1257  0.4965 -2.6997
13897SOL     OW54163   3.523   5.288   6.483  0.4551  0.1157  0.4857
13897SOL    HW154164   3.437   5.338   6.474 -0.4938 -1.6035 -0.3056
13897SOL    HW254165   3.600   5.352   6.483 -0.8196  1.6809  1.2942
13898SOL     OW54166   7.138   2.152   1.460  0.3351  0.4930  0.5405
13898SOL    HW154167   7.099   2.110   1.379  0.3492  0.1775  0.6929
13898SOL    HW254168   7.066   2.173   1.526 -0.0233  3.4983 -0.7656
13899SOL     OW54169   2.257   8.304   7.727 -0.5215  0.1778 -0.5941
13899SOL    HW154170   2.183   8.308   7.794 -1.0521  1.3902 -1.2415
13899SOL    HW254171   2.238   8.232   7.660  0.6412 -1.9441  1.2539
13900SOL     OW54172   6.594   5.353   3.415 -0.2371 -1.0538 -0.5199
13900SOL    HW154173   6.497   5.375   3.427  0.1781 -0.0765  1.0977
13900SOL    HW254174   6.620   5.369   3.320 -0.6226  2.8408 -0.0164
13901SOL     OW54175   1.689   2.477   3.883 -0.3758 -0.3733  0.2105
13901SOL    HW154176   1.631   2.451   3.806 -0.9748 -0.0147  0.5333
13901SOL    HW254177   1.773   2.423   3.882  0.0778  0.3157 -1.2730
13902SOL     OW54178   6.423   0.948   2.694 -0.0545 -0.0505 -0.2269
13902SOL    HW154179   6.366   0.867   2.676 -0.1395  0.3307 -1.7915
13902SOL    HW254180   6.433   1.000   2.609  0.4051  1.3240  0.6663
13903SOL     OW54181   7.515   0.511   0.743 -0.1803 -0.7215  0.0360
13903SOL    HW154182   7.448   0.453   0.789  0.3186 -0.3649  1.2336
13903SOL    HW254183   7.596   0.457   0.720  0.3497 -0.4961  1.2911
13904SOL     OW54184   3.214   3.788   2.422 -0.2245  0.0507 -0.1619
13904SOL    HW154185   3.115   3.774   2.432 -0.0510 -0.7518  0.4309
13904SOL    HW254186   3.244   3.859   2.485 -0.2486 -0.4316  0.3974
13905SOL     OW54187   5.402   5.865   5.909  0.6960 -0.1064 -0.2706
13905SOL    HW154188   5.492   5.884   5.870  1.0305  1.0818  1.0093
13905SOL    HW254189   5.409   5.864   6.009 -0.5707 -0.7739 -0.1825
13906SOL     OW54190   8.423   6.208   1.942  0.0603 -0.7064  0.3720
13906SOL    HW154191   8.468   6.294   1.964  0.3984 -1.2059  1.6859
13906SOL    HW254192   8.348   6.225   1.879  0.9796  0.3660 -0.4693
13907SOL     OW54193   2.622   5.462   2.251  0.1787 -0.2064  0.4942
13907SOL    HW154194   2.712   5.420   2.244 -0.0087 -0.6525  0.6726
13907SOL    HW254195   2.574   5.424   2.331  0.4814  1.2730  1.3852
13908SOL     OW54196   1.597   3.253   1.794 -0.1737  0.3239 -0.0770
13908SOL    HW154197   1.650   3.333   1.822 -1.5406  1.4511 -0.6818
13908SOL    HW254198   1.507   3.282   1.761 -2.1637 -1.6989  3.2319
13909SOL     OW54199   0.128   8.231   7.370 -0.6278  0.4452  1.0405
13909SOL    HW154200   0.092   8.316   7.407  0.2661 -0.1041  3.2925
13909SOL    HW254201   0.119   8.158   7.439  1.1682 -0.5955  0.2228
13910SOL     OW54202   8.261   5.229   0.042 -0.2518 -0.7011  0.0414
13910SOL    HW154203   8.318   5.294   0.091  0.5993 -0.3586 -1.3811
13910SOL    HW254204   8.174   5.218   0.091  0.3576  0.0409  1.3150
13911SOL     OW54205   2.098   1.242   4.855 -0.0706  0.5562 -0.0579
13911SOL    HW154206   2.028   1.180   4.892 -0.8333  0.7234 -1.2035
13911SOL    HW254207   2.094   1.329   4.903  0.1555  0.1549  0.6971
13912SOL     OW54208   0.877   1.360   2.869 -0.5832  0.1319  0.0239
13912SOL    HW154209   0.892   1.415   2.788 -1.7966  0.2552 -0.1243
13912SOL    HW254210   0.964   1.319   2.898  0.2487  1.7480 -0.1156
13913SOL     OW54211   0.532   6.883   0.212 -1.0929 -0.8323 -0.2513
13913SOL    HW154212   0.614   6.840   0.248 -0.1274  0.5666 -0.7321
13913SOL    HW254213   0.453   6.856   0.267  0.0386 -0.3510  1.6643
13914SOL     OW54214   8.768   6.961   1.301 -0.4377 -0.4769 -0.1691
13914SOL    HW154215   8.837   6.981   1.370 -0.2784  0.7263 -0.6625
13914SOL    HW254216   8.733   6.868   1.314  0.1338 -0.5248  1.0515
13915SOL     OW54217   5.037   7.087   4.019 -0.1716  0.1449  0.6246
13915SOL    HW154218   5.096   7.007   4.028 -1.8420 -0.9777  2.0331
13915SOL    HW254219   4.965   7.069   3.952 -1.3003 -0.0505  1.8480
13916SOL     OW54220   3.528   0.074   6.836 -0.3988  0.2047 -0.4127
13916SOL    HW154221   3.619   0.110   6.859 -0.1303 -0.8184  0.1677
13916SOL    HW254222   3.508  -0.004   6.895 -1.2266 -0.2100 -1.2378
13917SOL     OW54223   1.598   6.796   0.741 -0.7700  0.7231 -0.1664
13917SOL    HW154224   1.675   6.848   0.778 -1.1743  0.7623  0.6328
13917SOL    HW254225   1.598   6.704   0.781 -0.5947  0.4085 -0.8752
13918SOL     OW54226   0.617   4.183   0.101 -0.3064  0.1049  0.3528
13918SOL    HW154227   0.709   4.166   0.136  0.7486 -1.1890 -2.8186
13918SOL    HW254228   0.572   4.096   0.080 -1.8529  0.7539  0.8834
13919SOL     OW54229   1.733   6.374   6.228 -0.2220  0.9658  0.2439
13919SOL    HW154230   1.752   6.320   6.310  1.0263 -0.5301 -0.9889
13919SOL    HW254231   1.703   6.465   6.254 -0.6437  0.2431  2.3646
13920SOL     OW54232   4.560   7.658   5.531 -0.3633  0.1089 -0.0201
13920SOL    HW154233   4.466   7.689   5.547 -1.0395 -1.0516 -1.5694
13920SOL    HW254234   4.559   7.578   5.469  1.4866 -1.3542  1.7617
13921SOL     OW54235   0.247   4.658   6.308  0.6290 -0.2246  0.0928
13921SOL    HW154236   0.191   4.740   6.307  0.2006 -0.5121 -1.2954
13921SOL    HW254237   0.194   4.581   6.272  1.3698 -0.8604  0.3455
13922SOL     OW54238   2.129   8.103   6.494  0.0533 -0.0969 -0.3141
13922SOL    HW154239   2.188   8.113   6.414 -0.8578  0.5297 -0.9199
13922SOL    HW254240   2.063   8.030   6.479 -0.7188  0.6256 -0.5313
13923SOL     OW54241   6.530   8.025   8.718 -0.2185 -0.0392 -0.4928
13923SOL    HW154242   6.590   8.014   8.797 -0.0608 -1.2255 -0.7601
13923SOL    HW254243   6.435   8.015   8.748 -0.1122 -1.5660 -0.6054
13924SOL     OW54244   0.596   5.696   0.311 -0.0446 -0.1482 -0.3423
13924SOL    HW154245   0.504   5.701   0.350  0.2715  0.4065  0.3470
13924SOL    HW254246   0.604   5.614   0.255 -0.1257 -1.6310  1.7578
13925SOL     OW54247   6.271   0.270   3.354  0.6723 -0.1538 -0.4464
13925SOL    HW154248   6.299   0.327   3.277 -0.9771  1.6802  0.2713
13925SOL    HW254249   6.174   0.245   3.344  1.2839 -2.6205 -0.6046
13926SOL     OW54250   0.148   8.497   6.430  0.0243  0.0692  0.3224
13926SOL    HW154251   0.188   8.538   6.512  0.1732  1.0127 -0.2166
13926SOL    HW254252   0.069   8.442   6.456 -1.0305  1.8097  0.9277
13927SOL     OW54253   3.883   3.745   6.531 -0.3343  0.9049  0.2966
13927SOL    HW154254   3.788   3.763   6.508 -1.2022 -0.9789  2.2286
13927SOL    HW254255   3.888   3.693   6.617  2.4646  1.7292  0.7036
13928SOL     OW54256   5.581   3.822   0.334 -0.5416  0.0860 -0.1626
13928SOL    HW154257   5.557   3.765   0.255  0.2977 -1.0558  0.3903
13928SOL    HW254258   5.651   3.776   0.388 -1.9548  0.3267  1.9134
13929SOL     OW54259   4.657   1.383   0.408  0.5850 -0.2154  0.4749
13929SOL    HW154260   4.673   1.461   0.348  0.4441 -3.4477 -4.1157
13929SOL    HW254261   4.561   1.356   0.402  0.6288 -0.7502  1.9850
13930SOL     OW54262   1.700   8.753   4.477 -1.0936 -0.6961  0.2562
13930SOL    HW154263   1.650   8.669   4.498 -0.1018 -0.9521  1.6652
13930SOL    HW254264   1.733   8.794   4.562 -0.4118  0.4060 -0.5273
13931SOL     OW54265   3.675   7.688   8.005  0.1609 -0.1944 -0.0683
13931SOL    HW154266   3.690   7.761   8.072  1.1836  0.6993 -1.2376
13931SOL    HW254267   3.694   7.599   8.047  1.3504  0.3943  0.6722
13932SOL     OW54268   2.396   1.790   2.875 -0.2497  0.3550  0.1229
13932SOL    HW154269   2.362   1.744   2.957  0.5779 -0.7424 -0.1278
13932SOL    HW254270   2.453   1.726   2.823  1.6416  1.9191  0.2083
13933SOL     OW54271   1.970   2.572   7.377  0.0032  0.2377 -0.0294
13933SOL    HW154272   1.941   2.561   7.283  1.8053  2.6807 -0.9368
13933SOL    HW254273   2.060   2.616   7.379  1.0455 -1.8534  2.7772
13934SOL     OW54274   7.604   3.341   0.300  0.1127  0.0335 -0.4267
13934SOL    HW154275   7.697   3.350   0.335  0.6354  0.6220 -1.9067
13934SOL    HW254276   7.544   3.309   0.372  1.4288 -0.1485  0.6042
13935SOL     OW54277   5.030   7.221   8.411 -0.4626  0.0132 -0.3138
13935SOL    HW154278   5.071   7.311   8.428 -2.1231  0.9680 -1.1322
13935SOL    HW254279   4.979   7.191   8.491  0.9823 -0.7063  0.3424
13936SOL     OW54280   3.614   7.996   6.135  0.0139  0.0381 -0.2306
13936SOL    HW154281   3.601   7.980   6.037 -0.4657 -1.7516  0.1074
13936SOL    HW254282   3.651   8.088   6.149  0.2975  0.2308 -2.1009
13937SOL     OW54283   8.879   7.930   4.416 -0.2686 -0.7435 -0.0480
13937SOL    HW154284   8.895   8.029   4.413  1.6711 -0.9776  1.9747
13937SOL    HW254285   8.828   7.906   4.499  0.6545 -1.6268  0.2730
13938SOL     OW54286   7.344   6.826   0.338  0.3449  0.5229 -0.5740
13938SOL    HW154287   7.345   6.813   0.239  0.1544 -0.2373 -0.4750
13938SOL    HW254288   7.430   6.868   0.366  0.5749  0.3495 -1.0095
13939SOL     OW54289   2.193   2.823   6.260 -0.4357 -0.1876 -0.2536
13939SOL    HW154290   2.229   2.916   6.264  1.7193 -0.9944  0.0047
13939SOL    HW254291   2.112   2.816   6.318  1.3503  0.7040  2.4250
13940SOL     OW54292   1.136   0.214   4.303  0.3839  0.0757 -0.6951
13940SOL    HW154293   1.112   0.118   4.289  0.1670  0.0174  0.0147
13940SOL    HW254294   1.219   0.220   4.358  0.4179  0.2937 -0.7703
13941SOL     OW54295   7.642   4.520   2.307  0.0351  0.0213  0.1542
13941SOL    HW154296   7.570   4.579   2.271 -0.2480 -1.4330 -1.6940
13941SOL    HW254297   7.710   4.577   2.354 -1.3922  1.5787  0.3931
13942SOL     OW54298   8.143   1.408   3.756  0.2631  1.0792  0.6305
13942SOL    HW154299   8.193   1.486   3.720 -0.7842  1.0324 -0.9734
13942SOL    HW254300   8.204   1.329   3.763  0.5414  1.1704 -0.7805
13943SOL     OW54301   2.640   5.695   1.875 -0.4304 -0.1658 -0.5075
13943SOL    HW154302   2.556   5.697   1.820 -0.3154  0.4436 -0.6605
13943SOL    HW254303   2.695   5.616   1.847  0.7833  1.4875 -3.0162
13944SOL     OW54304   5.170   8.762   5.249 -0.5133  0.2774 -0.2114
13944SOL    HW154305   5.143   8.810   5.332  1.0688  0.8421 -0.0171
13944SOL    HW254306   5.157   8.821   5.170 -1.2108  0.0310 -0.2923
13945SOL     OW54307   4.908   8.139   1.260 -0.2971 -0.2915 -0.1491
13945SOL    HW154308   4.881   8.229   1.291 -0.5074 -0.4242  0.0513
13945SOL    HW254309   5.006   8.139   1.239 -0.3089 -0.0037 -0.1994
13946SOL     OW54310   5.710   2.557   1.650 -0.1710  0.1249  0.5216
13946SOL    HW154311   5.766   2.570   1.567 -0.8101 -1.2037 -0.1264
13946SOL    HW254312   5.625   2.608   1.641  0.3693  1.1259  0.9731
13947SOL     OW54313   8.333   3.509   7.300  0.2672  0.1552 -0.4796
13947SOL    HW154314   8.370   3.586   7.249  0.3480 -0.4443 -1.3401
13947SOL    HW254315   8.234   3.507   7.290  0.2219  0.4209 -0.0728
13948SOL     OW54316   4.795   7.754   7.968 -0.2139 -0.0638 -0.3058
13948SOL    HW154317   4.876   7.721   8.016 -0.2072 -0.4716 -0.6032
13948SOL    HW254318   4.810   7.750   7.869 -1.0509 -1.2930 -0.3931
13949SOL     OW54319   0.546   6.296   5.869  0.3112  0.0527 -0.9369
13949SOL    HW154320   0.597   6.382   5.870 -0.8040  0.7247  0.1102
13949SOL    HW254321   0.606   6.222   5.839  1.5590  1.0325 -0.9030
13950SOL     OW54322   5.364   1.297   8.953  0.5391  0.0576 -0.0987
13950SOL    HW154323   5.367   1.307   9.052  0.6161 -1.0286  0.0179
13950SOL    HW254324   5.338   1.384   8.911 -0.4377  0.2671  0.9319
13951SOL     OW54325   1.256   2.562   3.757  0.6162  0.7368  0.3682
13951SOL    HW154326   1.325   2.490   3.763 -2.3245 -2.2306 -0.3405
13951SOL    HW254327   1.253   2.599   3.664  0.1305 -0.3185 -0.0453
13952SOL     OW54328   3.107   8.110   3.383 -0.4989  0.5276 -0.1442
13952SOL    HW154329   3.084   8.045   3.311 -0.6289 -0.5499  0.8598
13952SOL    HW254330   3.194   8.084   3.425  0.9131  2.6555 -1.6677
13953SOL     OW54331   0.503   7.699   3.476 -0.3218 -0.0105  0.4744
13953SOL    HW154332   0.419   7.687   3.528 -1.2362 -0.9462 -1.1608
13953SOL    HW254333   0.505   7.791   3.437 -0.0036  0.4238  1.5041
13954SOL     OW54334   4.910   2.367   4.803  0.0314 -0.2010 -0.1805
13954SOL    HW154335   4.984   2.308   4.773 -0.4522 -0.6673 -0.4509
13954SOL    HW254336   4.922   2.388   4.900 -1.2353 -2.9184  0.6170
13955SOL     OW54337   5.562   8.325   7.143 -0.1924 -0.4411  0.1612
13955SOL    HW154338   5.538   8.316   7.240 -3.1352 -3.0131 -0.7290
13955SOL    HW254339   5.494   8.382   7.097  0.0181 -0.9336 -0.7773
13956SOL     OW54340   0.494   2.288   8.410  0.0360  0.2740  0.6626
13956SOL    HW154341   0.457   2.278   8.317 -0.7196 -0.9233  1.0792
13956SOL    HW254342   0.519   2.383   8.425 -2.3390  1.0141  0.1447
13957SOL     OW54343   0.497   8.080   8.413  0.0966  0.3370  0.6056
13957SOL    HW154344   0.535   8.122   8.495  1.0773  2.6250 -0.9701
13957SOL    HW254345   0.407   8.120   8.393  0.5361  0.9008 -0.2753
13958SOL     OW54346   5.753   8.565   0.810  0.7110 -0.3724 -0.2597
13958SOL    HW154347   5.695   8.507   0.867 -0.3067  0.6662 -0.2237
13958SOL    HW254348   5.783   8.513   0.729 -0.4089 -0.8523 -0.3729
13959SOL     OW54349   1.803   3.106   3.572  0.2490 -0.2345  0.1985
13959SOL    HW154350   1.750   3.124   3.489  0.8164 -1.3554 -0.4255
13959SOL    HW254351   1.854   3.188   3.598  1.5988 -0.4424 -1.6878
13960SOL     OW54352   5.532   7.937   7.018  0.3302  0.5761 -0.2419
13960SOL    HW154353   5.515   7.960   7.114  0.2178 -0.5746  0.0228
13960SOL    HW254354   5.578   8.014   6.973 -1.6380  2.0156  0.1401
13961SOL     OW54355   6.606   1.093   2.267 -0.7317  0.0813 -0.2518
13961SOL    HW154356   6.584   1.191   2.272 -1.3988 -0.0370 -0.8219
13961SOL    HW254357   6.611   1.065   2.172 -0.5476 -0.4483 -0.0874
13962SOL     OW54358   2.571   0.278   5.904 -0.4150 -0.8072 -0.5277
13962SOL    HW154359   2.561   0.230   5.991 -1.7164 -1.7493 -1.1646
13962SOL    HW254360   2.512   0.359   5.904 -0.9050 -1.1593 -0.7595
13963SOL     OW54361   6.304   6.475   0.325 -0.5419  0.4011 -0.7561
13963SOL    HW154362   6.206   6.470   0.345  0.1042  1.9783  3.4536
13963SOL    HW254363   6.329   6.571   0.308  0.7266  0.4700  1.2933
13964SOL     OW54364   4.288   6.279   2.200 -0.2244  0.0261  0.3481
13964SOL    HW154365   4.290   6.364   2.147 -0.2067  1.2978  2.3430
13964SOL    HW254366   4.203   6.231   2.182  0.7644 -0.7201 -2.5815
13965SOL     OW54367   3.422   2.165   6.963  0.0670  0.0742 -0.0393
13965SOL    HW154368   3.417   2.220   7.047 -0.0349 -1.5435  1.0457
13965SOL    HW254369   3.518   2.155   6.936  0.2030 -0.4843  0.6316
13966SOL     OW54370   8.425   3.088   4.836 -0.2940 -0.3573  0.2299
13966SOL    HW154371   8.351   3.153   4.856  0.6840  1.5263 -1.9809
13966SOL    HW254372   8.447   3.093   4.738  1.4834 -2.2637  0.5144
13967SOL     OW54373   7.283   7.051   5.371 -0.0864  0.7331 -0.1027
13967SOL    HW154374   7.230   7.081   5.450  0.5486  0.3366  0.4799
13967SOL    HW254375   7.222   7.039   5.292 -0.9208 -0.0379  0.6473
13968SOL     OW54376   4.302   8.200   5.547 -0.3369 -0.4134  0.1429
13968SOL    HW154377   4.287   8.223   5.451 -0.2919 -0.1012  0.2128
13968SOL    HW254378   4.377   8.133   5.554  0.2881  0.2736  0.0374
13969SOL     OW54379   2.096   1.821   3.735  0.0602 -0.7033  0.3532
13969SOL    HW154380   2.004   1.860   3.727  0.1335  0.1903  3.2393
13969SOL    HW254381   2.092   1.739   3.792  1.0758 -0.4395  0.8142
13970SOL     OW54382   3.165   5.676   5.313  0.4703 -0.9465 -0.4588
13970SOL    HW154383   3.210   5.762   5.288 -0.2408 -0.4972 -0.1975
13970SOL    HW254384   3.066   5.685   5.301 -0.1410 -0.0813  4.1698
13971SOL     OW54385   5.705   0.193   3.167  0.3742  0.0009 -0.4275
13971SOL    HW154386   5.630   0.130   3.185 -1.4216  2.3741  0.7071
13971SOL    HW254387   5.688   0.244   3.082  1.3759 -0.3990 -0.8813
13972SOL     OW54388   0.890   7.514   0.025  0.3100  0.2072  0.2923
13972SOL    HW154389   0.912   7.469   0.111 -1.0848 -0.2386  0.4362
13972SOL    HW254390   0.790   7.515   0.013  0.5354 -0.5926 -1.7731
13973SOL     OW54391   6.509   1.242   8.197  0.0282  0.4445 -0.2665
13973SOL    HW154392   6.422   1.208   8.161  0.0725 -0.2348  0.2559
13973SOL    HW254393   6.575   1.168   8.201 -0.3454  0.2001  2.3542
13974SOL     OW54394   2.497   5.369   2.480  0.4195 -0.0256  0.1897
13974SOL    HW154395   2.547   5.296   2.526 -0.5960 -0.6794  0.2874
13974SOL    HW254396   2.458   5.431   2.549 -1.3673 -1.1828  0.2508
13975SOL     OW54397   0.345   5.562   8.925  0.6771  0.1221  0.0079
13975SOL    HW154398   0.361   5.539   8.829 -3.1585 -0.9051 -0.4616
13975SOL    HW254399   0.327   5.478   8.977 -0.6553  0.9338  0.9067
13976SOL     OW54400   3.734   5.621   4.848  0.0583  0.4163  0.2967
13976SOL    HW154401   3.727   5.630   4.948 -1.2300  0.4525  0.2168
13976SOL    HW254402   3.648   5.651   4.806 -0.2618 -1.7838 -0.6817
13977SOL     OW54403   1.012   8.113   6.750 -0.0890  0.0594  0.4060
13977SOL    HW154404   0.991   8.016   6.764 -0.7806  0.1487 -0.0105
13977SOL    HW254405   1.108   8.130   6.774 -0.0212 -0.6834  0.6761
13978SOL     OW54406   1.644   7.343   2.506  0.2423  0.6643 -0.3285
13978SOL    HW154407   1.631   7.411   2.578 -1.5182  1.8519 -1.7372
13978SOL    HW254408   1.626   7.385   2.417 -2.0054 -1.9212 -1.1476
13979SOL     OW54409   3.011   7.895   1.953 -0.4730  0.6236 -0.0565
13979SOL    HW154410   2.998   7.800   1.924  0.0467  0.4814  0.1612
13979SOL    HW254411   2.927   7.947   1.938 -0.4528  0.3654 -1.0943
13980SOL     OW54412   1.546   8.564   6.915 -0.1001 -0.9165 -0.3576
13980SOL    HW154413   1.458   8.546   6.872  0.5921 -0.6411 -1.9021
13980SOL    HW254414   1.592   8.639   6.868 -0.0707  0.5479  1.9277
13981SOL     OW54415   4.932   0.258   2.998  0.2391  0.8028  0.2703
13981SOL    HW154416   4.880   0.334   2.959 -2.0425 -0.5461  0.6131
13981SOL    HW254417   4.910   0.248   3.095  1.5549  0.5335  0.5528
13982SOL     OW54418   5.646   4.725   4.093 -0.1172  0.4958  0.2508
13982SOL    HW154419   5.614   4.717   3.999  2.5289  0.5078 -0.6619
13982SOL    HW254420   5.608   4.808   4.134 -0.8651  0.7613 -0.9493
13983SOL     OW54421   4.182   5.425   4.448  0.8528  0.1560 -0.7422
13983SOL    HW154422   4.118   5.502   4.452  1.7281  0.9957 -2.2649
13983SOL    HW254423   4.147   5.349   4.503 -1.8409  0.3019 -2.1789
13984SOL     OW54424   7.410   7.542   6.747  1.0016  0.4771  0.4241
13984SOL    HW154425   7.473   7.531   6.670  0.0786  0.7842 -0.3824
13984SOL    HW254426   7.371   7.634   6.746 -2.1525 -0.8033 -1.1611
13985SOL     OW54427   2.135   2.397   7.169  0.3547 -0.1759  0.0773
13985SOL    HW154428   2.108   2.339   7.245  0.3422 -1.6872 -1.0699
13985SOL    HW254429   2.053   2.430   7.121  0.3754  0.3556  0.4066
13986SOL     OW54430   4.344   7.557   1.917  0.4907 -0.0679  0.0062
13986SOL    HW154431   4.399   7.482   1.880  0.1078 -0.2923 -0.1070
13986SOL    HW254432   4.253   7.523   1.941  0.1714  0.4562 -0.4479
13987SOL     OW54433   3.977   8.756   1.312 -0.0599 -0.6159 -0.4220
13987SOL    HW154434   3.997   8.772   1.409  0.3426  1.8791 -0.8759
13987SOL    HW254435   3.886   8.792   1.291  0.5075  0.3357 -1.3043
13988SOL     OW54436   1.225   0.461   5.012  0.4520  0.3866 -0.3123
13988SOL    HW154437   1.251   0.524   5.084 -0.3422  0.3370  0.0266
13988SOL    HW254438   1.290   0.384   5.010  1.8779  1.5993 -1.2544
13989SOL     OW54439   5.489   2.324   0.500  0.3832 -0.3480 -0.5945
13989SOL    HW154440   5.408   2.344   0.556  0.7917 -0.2765 -0.0163
13989SOL    HW254441   5.545   2.407   0.494 -0.1811 -0.0618 -1.9918
13990SOL     OW54442   1.091   5.819   2.343 -0.5636 -0.0521  0.1068
13990SOL    HW154443   1.026   5.847   2.413 -0.3497  0.5320  0.0769
13990SOL    HW254444   1.180   5.802   2.384 -0.4214  0.3527 -0.0293
13991SOL     OW54445   0.634   4.943   7.188 -0.2235 -0.2572 -0.2445
13991SOL    HW154446   0.550   4.927   7.137 -0.3527 -0.1347 -0.0722
13991SOL    HW254447   0.627   5.030   7.237 -0.1500 -0.4290  0.0756
13992SOL     OW54448   4.089   2.112   5.627  0.4234 -0.0088 -0.1301
13992SOL    HW154449   4.066   2.140   5.720  1.4424  0.7854 -0.1063
13992SOL    HW254450   4.184   2.137   5.608 -0.3204  1.4795 -2.0038
13993SOL     OW54451   8.744   1.932   0.171 -0.6582  0.1222  0.1655
13993SOL    HW154452   8.696   1.876   0.238  0.7494 -0.0159  1.0923
13993SOL    HW254453   8.753   2.025   0.206  0.1467  0.0303  0.2329
13994SOL     OW54454   1.111   8.608   8.924 -0.4493 -0.1259  0.4923
13994SOL    HW154455   1.169   8.658   8.860 -0.3303 -2.4463 -1.3040
13994SOL    HW254456   1.035   8.667   8.954  0.0326  1.3138 -1.0371
13995SOL     OW54457   5.935   7.020   8.249  0.3577 -0.8793 -0.4357
13995SOL    HW154458   5.994   7.091   8.211 -0.4158  0.6487  1.1460
13995SOL    HW254459   5.864   7.062   8.305 -1.9345 -2.7274 -1.8722
13996SOL     OW54460   3.240   7.458   1.983 -0.0388 -0.0122  0.7351
13996SOL    HW154461   3.249   7.396   1.905  1.0377 -0.1371  0.9454
13996SOL    HW254462   3.323   7.513   1.991 -0.9048  1.3189  0.6805
13997SOL     OW54463   7.054   5.377   8.316 -0.1401 -0.1272 -0.4701
13997SOL    HW154464   7.087   5.441   8.385 -1.4881 -0.7415  0.7538
13997SOL    HW254465   7.086   5.285   8.337  0.3126 -0.1527 -1.2476
13998SOL     OW54466   5.275   7.927   5.724 -0.1017 -0.0935  0.0229
13998SOL    HW154467   5.208   7.868   5.769  0.5324 -0.9688 -0.1565
13998SOL    HW254468   5.242   8.021   5.723 -0.5438 -0.2182  1.4859
13999SOL     OW54469   1.057   2.413   4.027 -0.7460  0.0877 -0.4331
13999SOL    HW154470   1.150   2.425   3.992 -0.6443 -0.4271 -0.3463
13999SOL    HW254471   1.017   2.503   4.047 -0.3775  0.3231 -0.7515
14000SOL     OW54472   2.850   5.795   6.756 -0.2140 -0.0670  0.2225
14000SOL    HW154473   2.926   5.783   6.819  0.0355 -0.1101 -0.0822
14000SOL    HW254474   2.781   5.725   6.773  0.1992 -0.5479 -0.0469
14001SOL     OW54475   6.157   6.128   2.620 -0.5892  0.1864  0.4238
14001SOL    HW154476   6.177   6.084   2.707  2.7553  1.3442  0.3040
14001SOL    HW254477   6.105   6.066   2.562 -0.9058 -1.4195  2.3881
14002SOL     OW54478   4.744   6.339   0.366 -0.2902  0.1108 -0.1463
14002SOL    HW154479   4.712   6.270   0.431  1.9766  0.1678  1.1054
14002SOL    HW254480   4.752   6.427   0.413  0.5162  0.3553 -0.7367
14003SOL     OW54481   7.170   6.325   7.829 -0.1531 -0.2059  0.3586
14003SOL    HW154482   7.181   6.422   7.806  1.3677 -1.3884 -4.5065
14003SOL    HW254483   7.073   6.300   7.821 -0.3841  0.6526  0.4421
14004SOL     OW54484   5.433   6.540   2.684  0.0801 -0.3351 -0.1441
14004SOL    HW154485   5.369   6.604   2.728  0.3906  0.4752 -0.8527
14004SOL    HW254486   5.414   6.536   2.586  0.3001 -1.0602 -0.1621
14005SOL     OW54487   0.614   8.203   6.455  0.5867  0.2899 -0.2842
14005SOL    HW154488   0.706   8.242   6.458  0.7666 -0.0176 -1.2949
14005SOL    HW254489   0.574   8.222   6.365 -0.2010  0.1178  0.0320
14006SOL     OW54490   0.967   5.574   2.249 -0.6697 -0.2388 -0.6319
14006SOL    HW154491   1.023   5.631   2.310  0.1260  0.0109 -1.5681
14006SOL    HW254492   1.010   5.484   2.240 -1.3773 -0.6428  0.0414
14007SOL     OW54493   4.043   8.154   1.290 -0.2076  0.0432  0.6835
14007SOL    HW154494   4.008   8.133   1.381 -0.9428  1.6857  0.7932
14007SOL    HW254495   3.967   8.151   1.224 -0.0749  1.0121  0.4860
14008SOL     OW54496   3.976   3.816   7.305  0.0103  0.3527  0.1738
14008SOL    HW154497   3.902   3.879   7.328  0.4774  0.9087  0.1746
14008SOL    HW254498   4.003   3.830   7.210  0.3318  0.3799  0.2679
14009SOL     OW54499   4.204   3.510   5.060  0.2940  0.8322  0.0993
14009SOL    HW154500   4.284   3.470   5.015  2.5248  4.3265  0.8066
14009SOL    HW254501   4.209   3.493   5.159 -0.0505  0.7198  0.0978
14010SOL     OW54502   6.154   7.785   8.895 -0.4873 -0.0176  0.2163
14010SOL    HW154503   6.227   7.828   8.948  0.4105 -1.9844  0.6335
14010SOL    HW254504   6.069   7.789   8.947 -0.1181  0.0833  0.8210
14011SOL     OW54505   2.945   7.408   1.640 -0.4402 -0.3222  0.2001
14011SOL    HW154506   2.895   7.365   1.565  0.9626 -0.2231 -0.8215
14011SOL    HW254507   3.040   7.422   1.613 -0.2237  0.9297  1.5179
14012SOL     OW54508   2.339   4.560   6.493  0.1285  0.3573  0.6613
14012SOL    HW154509   2.334   4.505   6.577 -1.5014 -0.4427  0.0550
14012SOL    HW254510   2.430   4.601   6.486  0.5885 -0.3191  2.3463
14013SOL     OW54511   0.269   5.816   4.877  0.1599  0.2197  0.5658
14013SOL    HW154512   0.346   5.826   4.941  0.5454  0.7335  0.0268
14013SOL    HW254513   0.184   5.813   4.928  0.5286 -0.1877  1.1629
14014SOL     OW54514   3.133   8.123   1.776 -0.3590 -0.1467 -0.0934
14014SOL    HW154515   3.082   8.042   1.805  0.0741 -1.4524 -2.8038
14014SOL    HW254516   3.070   8.189   1.735 -0.1545 -1.0498 -1.9248
14015SOL     OW54517   8.159   3.424   3.536  0.5321  0.3472 -0.1920
14015SOL    HW154518   8.226   3.352   3.550  2.2933  1.8513 -0.6763
14015SOL    HW254519   8.103   3.404   3.456  1.1816 -0.3566 -0.4711
14016SOL     OW54520   1.387   0.987   7.489  0.0643  0.3917  0.5188
14016SOL    HW154521   1.452   1.061   7.506  0.1656  0.4261 -0.0000
14016SOL    HW254522   1.435   0.910   7.446 -0.5838  1.1568 -1.6707
14017SOL     OW54523   5.774   5.128   2.041  0.3693 -0.2476  0.2403
14017SOL    HW154524   5.788   5.203   2.106  1.3452  1.2636 -1.6521
14017SOL    HW254525   5.855   5.120   1.982 -0.0736 -2.2676 -0.1238
14018SOL     OW54526   5.410   8.289   4.009 -0.3879 -0.0860 -0.0329
14018SOL    HW154527   5.471   8.214   3.983 -0.9882 -0.1649 -1.2456
14018SOL    HW254528   5.338   8.254   4.068 -0.0597 -0.2608  0.2659
14019SOL     OW54529   1.966   0.590   8.209 -0.2650  0.0877  0.3675
14019SOL    HW154530   1.885   0.627   8.253  1.1466  2.7246  0.8439
14019SOL    HW254531   2.010   0.661   8.153  1.7992 -1.2127  0.2608
14020SOL     OW54532   6.376   1.244   6.752  0.0815 -0.0927 -0.0761
14020SOL    HW154533   6.283   1.271   6.729  0.6001  0.1680 -1.9129
14020SOL    HW254534   6.399   1.278   6.843 -1.3544  0.4870  0.0760
14021SOL     OW54535   3.307   1.385   0.354 -0.2433  0.2855  0.2530
14021SOL    HW154536   3.211   1.360   0.339 -0.0919 -0.1199 -0.0319
14021SOL    HW254537   3.359   1.368   0.270  0.4579 -1.2679  0.9931
14022SOL     OW54538   1.007   0.239   7.862 -0.0268 -0.8130  0.0021
14022SOL    HW154539   1.042   0.305   7.795  1.1373  1.1130  2.4569
14022SOL    HW254540   1.079   0.176   7.889 -0.6130 -1.8701 -0.8322
14023SOL     OW54541   3.056   6.078   7.375  0.3098  0.0820 -0.7940
14023SOL    HW154542   3.156   6.078   7.375  0.3501 -0.3188 -3.2651
14023SOL    HW254543   3.022   6.170   7.398  1.2039 -0.1431  1.4966
14024SOL     OW54544   3.454   8.446   5.794 -0.1578 -0.0405  0.1419
14024SOL    HW154545   3.431   8.429   5.890 -1.0998 -0.4005 -0.1364
14024SOL    HW254546   3.474   8.359   5.749  1.7431  0.2674  0.3675
14025SOL     OW54547   4.967   4.515   3.796 -0.3285  0.4658 -0.3728
14025SOL    HW154548   4.891   4.577   3.815 -0.5570 -0.0642  0.4443
14025SOL    HW254549   5.039   4.527   3.864 -0.3380 -0.1021 -0.2589
14026SOL     OW54550   6.504   8.428   8.167  0.9249  0.3738 -0.6929
14026SOL    HW154551   6.487   8.359   8.097  1.8315  0.4860 -1.0290
14026SOL    HW254552   6.459   8.401   8.252 -1.8103  1.1839 -1.8272
14027SOL     OW54553   3.368   1.451   5.639 -0.7850 -0.0145  0.0621
14027SOL    HW154554   3.356   1.427   5.542  0.3326 -0.1164 -0.0497
14027SOL    HW254555   3.285   1.426   5.689 -0.5603 -1.9654 -0.4804
14028SOL     OW54556   0.978   4.123   7.279 -0.8898 -0.5422  0.2139
14028SOL    HW154557   0.898   4.066   7.292 -2.2467  1.2450 -0.0690
14028SOL    HW254558   0.985   4.188   7.355 -0.6265  0.3690 -0.5738
14029SOL     OW54559   5.463   0.245   2.215  0.2586  0.3764  0.1662
14029SOL    HW154560   5.415   0.320   2.169  1.6338  1.3181  0.2401
14029SOL    HW254561   5.508   0.189   2.146 -0.9995 -0.5648  0.0896
14030SOL     OW54562   3.328   3.867   3.917  0.3626 -0.5272 -0.0278
14030SOL    HW154563   3.313   3.895   3.823 -2.4829  1.0872  0.8624
14030SOL    HW254564   3.310   3.769   3.926  1.5070 -0.8804 -1.2912
14031SOL     OW54565   0.181   1.157   0.568 -0.4540  0.0200 -0.2072
14031SOL    HW154566   0.187   1.143   0.667  0.3242  0.4446 -0.1867
14031SOL    HW254567   0.252   1.221   0.539 -0.4746 -0.3407 -1.0868
14032SOL     OW54568   1.800   1.652   0.768  0.3961  0.8273  0.0222
14032SOL    HW154569   1.812   1.613   0.859  0.4761  0.2628 -0.2237
14032SOL    HW254570   1.745   1.589   0.713  1.0189  0.7972 -0.5632
14033SOL     OW54571   4.801   5.613   4.063  0.1735  0.1421  0.3229
14033SOL    HW154572   4.705   5.633   4.085 -0.2535 -1.5511  0.0749
14033SOL    HW254573   4.858   5.634   4.142 -0.6691 -0.7250  1.1851
14034SOL     OW54574   7.319   7.664   3.883  0.8743 -0.1237 -0.6036
14034SOL    HW154575   7.254   7.590   3.902  0.9140  0.3563  1.5802
14034SOL    HW254576   7.278   7.730   3.820 -1.2209  0.7573  1.6297
14035SOL     OW54577   8.209   0.511   4.787  0.3644  0.6298 -0.6584
14035SOL    HW154578   8.218   0.587   4.723 -2.7146  2.0195  0.4428
14035SOL    HW254579   8.121   0.466   4.774 -0.5751  1.2578  2.8237
14036SOL     OW54580   5.494   3.518   4.612 -0.7284 -0.1517 -0.3168
14036SOL    HW154581   5.411   3.569   4.635 -1.3161 -0.9789 -0.5688
14036SOL    HW254582   5.547   3.501   4.696 -0.5405  0.8474 -0.2348
14037SOL     OW54583   5.792   7.182   1.622  0.2461 -0.2053  0.2313
14037SOL    HW154584   5.820   7.275   1.602  1.3252 -1.2761 -3.7771
14037SOL    HW254585   5.702   7.183   1.666 -0.2093  2.6658 -0.6562
14038SOL     OW54586   2.895   8.281   7.196 -0.1073  0.4294 -0.2440
14038SOL    HW154587   2.913   8.186   7.221  3.3004  0.9288 -0.4862
14038SOL    HW254588   2.910   8.340   7.276 -0.2647  0.9257 -0.5781
14039SOL     OW54589   8.407   7.728   2.701 -0.1792 -0.2344  0.4604
14039SOL    HW154590   8.319   7.773   2.689  0.4865  0.7179 -1.0288
14039SOL    HW254591   8.461   7.777   2.769  1.6298  2.9725 -3.1357
14040SOL     OW54592   7.374   1.489   3.173  0.3912 -0.6465  0.2846
14040SOL    HW154593   7.401   1.503   3.268  0.2985  0.1292  0.1988
14040SOL    HW254594   7.283   1.529   3.158 -0.7654 -3.0758  0.5294
14041SOL     OW54595   3.622   5.525   7.266 -0.4508  0.2379 -0.0493
14041SOL    HW154596   3.705   5.477   7.238  0.1508  1.1388  0.1464
14041SOL    HW254597   3.546   5.461   7.271  0.3909 -0.7370  0.4574
14042SOL     OW54598   5.027   4.956   2.399 -0.5987  0.7290 -0.2661
14042SOL    HW154599   4.974   5.037   2.426 -0.2811  0.9120 -0.1846
14042SOL    HW254600   4.966   4.878   2.390 -0.4990  0.2144  2.7812
14043SOL     OW54601   1.136   7.000   0.246  0.0638 -0.6251  0.2708
14043SOL    HW154602   1.094   6.953   0.168  0.0377  1.0066 -0.7094
14043SOL    HW254603   1.110   6.953   0.330 -1.8460 -1.0306 -0.5069
14044SOL     OW54604   7.799   0.947   1.475  0.1139  0.2989 -0.2796
14044SOL    HW154605   7.754   0.862   1.502  2.7235 -0.7383  1.0134
14044SOL    HW254606   7.882   0.925   1.423  1.2394  2.0018  0.7554
14045SOL     OW54607   7.895   7.373   8.341  0.1937 -0.0094 -0.8583
14045SOL    HW154608   7.838   7.342   8.265 -1.0438 -0.2969  0.1690
14045SOL    HW254609   7.961   7.440   8.307  0.0509 -0.5618 -2.2893
14046SOL     OW54610   5.478   2.617   4.695  0.3515  0.0428 -0.2405
14046SOL    HW154611   5.427   2.694   4.732 -0.8749 -1.1219  0.5277
14046SOL    HW254612   5.476   2.541   4.761  0.7982 -0.9452 -1.3526
14047SOL     OW54613   1.707   8.697   8.156  0.8020  0.0337 -0.4820
14047SOL    HW154614   1.664   8.613   8.123 -1.1760  0.7166  0.2909
14047SOL    HW254615   1.678   8.774   8.100 -0.9422  0.8813  1.5076
14048SOL     OW54616   6.603   8.056   8.346 -0.3182  0.0871 -0.8036
14048SOL    HW154617   6.631   8.052   8.250  0.8492  1.9426 -0.5790
14048SOL    HW254618   6.524   8.116   8.356 -1.1577 -1.0328 -0.7628
14049SOL     OW54619   6.361   3.864   8.928 -0.0964 -0.1096  0.3860
14049SOL    HW154620   6.442   3.849   8.985 -1.2249 -0.4947  1.9115
14049SOL    HW254621   6.292   3.796   8.950 -1.1336  0.6861 -0.3594
14050SOL     OW54622   4.732   6.746   4.184 -0.3353  0.1693  0.0501
14050SOL    HW154623   4.728   6.712   4.278 -1.0384  0.0588 -0.0171
14050SOL    HW254624   4.741   6.668   4.121 -0.4571  0.2056 -0.0121
14051SOL     OW54625   5.923   5.208   6.375 -0.2643  0.1959 -0.0547
14051SOL    HW154626   5.928   5.142   6.451  1.5809  0.5017  0.1167
14051SOL    HW254627   5.990   5.182   6.305  1.4908  2.6894  0.6635
14052SOL     OW54628   2.682   7.936   6.075 -0.0805 -0.4022  0.2761
14052SOL    HW154629   2.759   7.891   6.030 -0.8327  0.9588 -2.5366
14052SOL    HW254630   2.673   8.030   6.040 -2.4886 -0.2745  1.1340
14053SOL     OW54631   1.867   7.683   1.280  0.5018  0.2732  0.1086
14053SOL    HW154632   1.932   7.621   1.323  0.1713  0.6414  1.1517
14053SOL    HW254633   1.805   7.630   1.221  0.6700 -0.2924  0.4324
14054SOL     OW54634   0.548   0.834   1.770 -0.4986 -0.5613 -0.2046
14054SOL    HW154635   0.569   0.931   1.754  1.2426 -0.9675 -0.4330
14054SOL    HW254636   0.582   0.779   1.694  1.0192 -1.6593  1.2334
14055SOL     OW54637   0.224   1.788   4.809 -0.1922 -0.0742  0.3182
14055SOL    HW154638   0.269   1.826   4.729 -0.1355  1.0697  0.8789
14055SOL    HW254639   0.168   1.709   4.783  1.0237 -0.6405 -0.5962
14056SOL     OW54640   1.992   0.203   7.821 -0.0431  0.4346  0.4730
14056SOL    HW154641   1.936   0.122   7.835  0.1633  0.3182  0.6307
14056SOL    HW254642   2.084   0.186   7.856 -0.6016  1.5156  2.5169
14057SOL     OW54643   2.298   3.560   0.681 -0.4374  0.0208 -0.2390
14057SOL    HW154644   2.252   3.564   0.770  0.9394  1.6257  0.4457
14057SOL    HW254645   2.236   3.522   0.613 -2.3416  0.9538  0.9147
14058SOL     OW54646   3.912   0.106   3.877 -0.0248  0.1185 -0.0597
14058SOL    HW154647   3.857   0.046   3.820 -0.5772  1.9020 -1.4354
14058SOL    HW254648   3.858   0.137   3.956 -0.6502  0.9938 -0.8233
14059SOL     OW54649   4.856   8.760   0.445  0.0211 -0.3526 -0.7176
14059SOL    HW154650   4.832   8.677   0.496 -0.1999 -0.2726 -0.6912
14059SOL    HW254651   4.866   8.738   0.348 -1.1233 -0.2065 -0.8778
14060SOL     OW54652   4.822   8.189   6.403 -0.2921 -0.3441  0.3576
14060SOL    HW154653   4.775   8.230   6.481  0.6801  0.9014  0.2874
14060SOL    HW254654   4.829   8.090   6.417 -0.7560 -0.2174  1.5031
14061SOL     OW54655   2.565   7.984   2.693  0.1065 -0.0819  0.0030
14061SOL    HW154656   2.534   8.076   2.718  0.4453 -0.0229  0.2197
14061SOL    HW254657   2.625   7.949   2.765  0.6892 -0.1150 -0.4995
14062SOL     OW54658   3.694   8.329   1.910  0.2026  0.1915  0.1340
14062SOL    HW154659   3.687   8.259   1.839 -0.2756 -0.4802  0.8314
14062SOL    HW254660   3.756   8.402   1.880  1.7869 -1.1981 -0.0506
14063SOL     OW54661   0.771   4.097   6.515  0.5113 -0.1489 -0.3414
14063SOL    HW154662   0.796   4.151   6.595 -0.7722  0.3375 -0.2503
14063SOL    HW254663   0.793   4.148   6.432 -1.1819  0.7708 -0.2498
14064SOL     OW54664   4.117   5.514   2.302 -0.2196  0.0754  0.4629
14064SOL    HW154665   4.162   5.454   2.367  0.1393  0.0933  0.2353
14064SOL    HW254666   4.019   5.514   2.319 -0.1667 -0.1890  0.7798
14065SOL     OW54667   6.367   8.137   1.342  0.1181 -0.0646 -0.3476
14065SOL    HW154668   6.338   8.220   1.390 -1.0194 -0.3406 -0.5497
14065SOL    HW254669   6.463   8.119   1.363  0.8786  2.2241 -1.6321
14066SOL     OW54670   5.132   6.909   0.663 -0.0482 -0.4707 -0.1464
14066SOL    HW154671   5.066   6.957   0.604  1.1591 -1.9818 -2.8311
14066SOL    HW254672   5.181   6.976   0.718  0.4376  1.2840 -2.6082
14067SOL     OW54673   1.913   7.944   6.407 -0.7051  0.6202 -0.1066
14067SOL    HW154674   1.839   8.008   6.387 -1.9117 -0.9267 -0.6459
14067SOL    HW254675   1.926   7.882   6.329 -0.3615 -0.5644  0.8742
14068SOL     OW54676   6.179   8.134   1.150  0.2079  0.2667  0.5201
14068SOL    HW154677   6.087   8.136   1.188  0.2013 -2.2279  0.6713
14068SOL    HW254678   6.246   8.121   1.224  0.6596  1.4438  0.3403
14069SOL     OW54679   1.516   7.465   2.296  0.1078  0.0293  0.0723
14069SOL    HW154680   1.534   7.419   2.210 -3.4405 -1.4713  0.0718
14069SOL    HW254681   1.483   7.558   2.278  0.3439  0.0692 -0.1563
14070SOL     OW54682   7.681   5.943   6.560  0.5632 -0.0306  0.0121
14070SOL    HW154683   7.592   5.979   6.533 -0.2757 -0.7297  1.8045
14070SOL    HW254684   7.691   5.849   6.527  0.1777 -0.3472  0.8062
14071SOL     OW54685   0.638   2.260   4.813  0.3544 -0.1451  0.8127
14071SOL    HW154686   0.700   2.182   4.807  0.4951  0.0768 -0.9947
14071SOL    HW254687   0.650   2.318   4.732 -2.2004 -0.0858  0.4465
14072SOL     OW54688   3.303   3.202   4.293  0.0593 -0.3077 -0.5792
14072SOL    HW154689   3.323   3.215   4.390 -0.6676 -0.6366 -0.3781
14072SOL    HW254690   3.220   3.147   4.283 -0.5663  0.7567 -1.3824
14073SOL     OW54691   3.927   5.707   2.160 -0.6764 -0.3962  0.0365
14073SOL    HW154692   3.886   5.668   2.243  0.2357 -1.3161  0.0663
14073SOL    HW254693   3.974   5.793   2.183  0.9230 -1.4431  0.8069
14074SOL     OW54694   8.843   5.333   0.252  0.4288  0.4030 -0.1414
14074SOL    HW154695   8.770   5.380   0.202 -0.9761 -1.3189  0.2259
14074SOL    HW254696   8.835   5.352   0.350 -0.1722 -0.5720  0.0154
14075SOL     OW54697   4.312   2.694   5.192  0.0510  0.1208 -0.3193
14075SOL    HW154698   4.263   2.650   5.117 -0.8447  0.2962  0.1419
14075SOL    HW254699   4.258   2.771   5.226  1.3553  1.2372 -0.7630
14076SOL     OW54700   3.971   7.662   2.922 -0.4618 -0.3464  0.6440
14076SOL    HW154701   3.894   7.724   2.909 -0.5226 -0.6684 -0.6027
14076SOL    HW254702   3.937   7.568   2.929 -0.1434 -0.5560 -0.5288
14077SOL     OW54703   5.027   5.674   8.397 -0.4042 -0.4924  0.4663
14077SOL    HW154704   4.962   5.660   8.470  0.1285 -1.0273  0.8463
14077SOL    HW254705   5.101   5.734   8.428  0.4597 -1.6994  0.7648
14078SOL     OW54706   3.128   4.503   3.899 -0.5270 -0.1171 -0.2914
14078SOL    HW154707   3.084   4.497   3.989 -0.6301  0.4358 -0.2976
14078SOL    HW254708   3.086   4.578   3.847 -0.2510 -0.2288 -0.6772
14079SOL     OW54709   6.795   0.734   7.315  0.0021  0.3493  0.5007
14079SOL    HW154710   6.779   0.726   7.217  1.5295  2.2672  0.0694
14079SOL    HW254711   6.708   0.727   7.363 -1.0980  1.9825 -1.1775
14080SOL     OW54712   5.834   2.654   1.149 -0.1744 -0.0239 -0.4631
14080SOL    HW154713   5.777   2.573   1.162  1.9338 -1.4242  0.3247
14080SOL    HW254714   5.776   2.735   1.140 -2.3345 -1.6800 -1.7876
14081SOL     OW54715   1.211   0.154   2.160  0.2563  0.1249 -0.7525
14081SOL    HW154716   1.239   0.249   2.144  0.8459  0.2050  0.6518
14081SOL    HW254717   1.177   0.114   2.074  0.4078  1.4621 -1.4498
14082SOL     OW54718   0.373   1.436   7.229  0.1268  0.2608  0.1156
14082SOL    HW154719   0.331   1.357   7.185  0.9095  0.2906 -0.6964
14082SOL    HW254720   0.397   1.504   7.160  0.4836  0.7287  0.6936
14083SOL     OW54721   4.287   1.143   5.231 -0.4627  0.1248 -0.1634
14083SOL    HW154722   4.231   1.140   5.148  0.1929 -0.2906 -0.5943
14083SOL    HW254723   4.230   1.170   5.309 -0.9178  1.2853 -0.8842
14084SOL     OW54724   5.380   7.287   6.743 -0.3428 -0.0587 -0.2742
14084SOL    HW154725   5.433   7.243   6.670  1.2445 -0.3361  1.0197
14084SOL    HW254726   5.383   7.230   6.825 -1.5036  0.6059  0.2351
14085SOL     OW54727   7.215   6.724   8.844 -0.3304 -0.2969 -0.4971
14085SOL    HW154728   7.282   6.702   8.914  0.8409  1.8118 -0.9128
14085SOL    HW254729   7.126   6.741   8.887  0.4640  1.3704  0.5570
14086SOL     OW54730   4.359   5.496   5.938  0.3696  0.1412 -0.1452
14086SOL    HW154731   4.387   5.586   5.972 -0.8897  0.5629 -0.2247
14086SOL    HW254732   4.396   5.425   5.999  0.6414  0.7461  0.4026
14087SOL     OW54733   1.600   6.074   5.555  0.0999 -0.0757  0.4891
14087SOL    HW154734   1.508   6.035   5.562 -0.2567  0.8377  0.9027
14087SOL    HW254735   1.636   6.055   5.464 -0.4969 -0.4404  0.3195
14088SOL     OW54736   6.813   1.789   0.379 -0.3732 -0.2377 -0.9838
14088SOL    HW154737   6.825   1.881   0.343 -2.0069  0.3565 -0.0833
14088SOL    HW254738   6.862   1.780   0.465 -2.1219  0.5784  0.1361
14089SOL     OW54739   7.206   3.752   1.484 -0.4491  0.1537  0.0797
14089SOL    HW154740   7.265   3.742   1.565 -1.0073 -2.4710  0.2123
14089SOL    HW254741   7.235   3.688   1.413 -2.2533 -0.1685 -0.4021
14090SOL     OW54742   6.322   0.650   2.205  0.0234 -0.3533 -0.3108
14090SOL    HW154743   6.349   0.579   2.270  1.4463  0.3642 -0.1055
14090SOL    HW254744   6.321   0.739   2.251  0.2553  0.0463 -1.0721
14091SOL     OW54745   4.798   0.989   2.014  0.0163  0.1565 -0.2609
14091SOL    HW154746   4.763   0.953   1.928 -1.4587 -0.1320  0.4523
14091SOL    HW254747   4.725   1.035   2.063  0.9907  0.8368  0.5849
14092SOL     OW54748   4.425   3.572   5.283  0.4643 -0.1586  0.0682
14092SOL    HW154749   4.520   3.569   5.252  0.3413 -0.8419 -0.2601
14092SOL    HW254750   4.398   3.482   5.316 -0.3413 -0.2014 -0.6880
14093SOL     OW54751   5.628   5.745   3.853 -0.5833 -0.4225  0.0592
14093SOL    HW154752   5.572   5.777   3.777  0.0414  3.9127  1.2782
14093SOL    HW254753   5.570   5.717   3.929 -1.1302 -1.2837 -0.6639
14094SOL     OW54754   8.825   5.844   5.786  0.3110 -0.5604 -0.2855
14094SOL    HW154755   8.773   5.772   5.741 -1.6166  0.4388  0.3026
14094SOL    HW254756   8.868   5.808   5.869 -3.2133 -0.3269  1.7261
14095SOL     OW54757   5.315   5.011   8.968 -0.0577 -0.8134 -0.4166
14095SOL    HW154758   5.261   5.071   9.027  2.4341  1.0943 -0.0205
14095SOL    HW254759   5.325   4.922   9.012 -0.0919 -0.1113  1.0372
14096SOL     OW54760   3.315   5.962   2.121  0.2860  0.7351  0.3439
14096SOL    HW154761   3.325   5.868   2.088 -0.7297  0.3247  1.1948
14096SOL    HW254762   3.220   5.980   2.143  0.5931  1.7464  0.8800
14097SOL     OW54763   7.482   7.234   0.516  0.2740  0.5490  0.4791
14097SOL    HW154764   7.573   7.273   0.498 -0.0989 -0.0146 -3.0406
14097SOL    HW254765   7.432   7.292   0.580  2.5618  1.6502  1.3051
14098SOL     OW54766   3.338   1.057   8.212 -0.3069 -0.2282 -0.2150
14098SOL    HW154767   3.275   1.033   8.286  1.1242  0.8204  1.4010
14098SOL    HW254768   3.416   0.994   8.213 -0.5477 -0.5509 -1.1975
14099SOL     OW54769   5.783   5.559   3.208  0.0207 -0.0089  0.3007
14099SOL    HW154770   5.792   5.592   3.114 -1.1279  2.3510  0.9864
14099SOL    HW254771   5.858   5.594   3.264 -0.0278 -0.3147  0.5642
14100SOL     OW54772   3.169   0.839   6.449 -0.8407 -0.5660 -0.7218
14100SOL    HW154773   3.102   0.765   6.461 -0.9062 -0.4448 -0.3517
14100SOL    HW254774   3.179   0.890   6.534  1.8353 -2.3339  0.0798
14101SOL     OW54775   0.367   6.355   1.148 -0.0802 -0.2291 -0.3271
14101SOL    HW154776   0.448   6.414   1.156  1.2466 -2.0949  0.4912
14101SOL    HW254777   0.287   6.403   1.185  0.8632  1.2188 -0.1053
14102SOL     OW54778   6.320   0.322   2.266  0.6441  0.5618  1.0658
14102SOL    HW154779   6.412   0.344   2.234  0.9484 -0.9035  0.9313
14102SOL    HW254780   6.266   0.286   2.190  0.3041  0.3543  1.4013
14103SOL     OW54781   7.109   0.291   7.928  0.1757  0.1395  0.1816
14103SOL    HW154782   7.139   0.217   7.989 -0.5512  1.3942  2.1230
14103SOL    HW254783   7.162   0.374   7.948  1.6795 -0.0695 -2.6524
14104SOL     OW54784   3.015   0.731   8.255  0.4376  0.2883  0.4787
14104SOL    HW154785   2.953   0.733   8.334 -0.5263 -1.2414 -0.2116
14104SOL    HW254786   3.103   0.693   8.283  0.4046  0.6165  1.0275
14105SOL     OW54787   5.687   7.004   0.925 -0.1630 -0.5495  0.6297
14105SOL    HW154788   5.778   7.020   0.962  0.8122 -0.9415 -1.5355
14105SOL    HW254789   5.664   7.076   0.860 -1.4615 -0.3837  1.2567
14106SOL     OW54790   8.505   3.760   5.937 -0.3059  0.1497  0.1304
14106SOL    HW154791   8.491   3.661   5.947  1.1047 -0.0646  0.1408
14106SOL    HW254792   8.471   3.807   6.018  0.5270 -0.4976  0.8725
14107SOL     OW54793   5.257   6.288   6.996 -0.2180 -0.4407  0.4318
14107SOL    HW154794   5.162   6.262   6.977 -0.0203 -1.3581  0.6437
14107SOL    HW254795   5.292   6.231   7.070  0.4278  0.0575  0.5112
14108SOL     OW54796   3.518   5.917   8.460 -0.2401  0.4222  0.0924
14108SOL    HW154797   3.615   5.937   8.452  0.1946 -1.4642  0.3275
14108SOL    HW254798   3.474   5.923   8.370 -0.0275  1.8099  0.0785
14109SOL     OW54799   3.909   2.587   6.270 -0.3665  0.1287  0.7377
14109SOL    HW154800   3.996   2.621   6.234  1.2052 -2.6394  1.7908
14109SOL    HW254801   3.889   2.633   6.357  1.0076 -0.5283  1.4293
14110SOL     OW54802   3.927   5.222   2.582  0.3745 -0.2707  0.0658
14110SOL    HW154803   3.930   5.189   2.488  0.4630  0.0375 -0.0427
14110SOL    HW254804   3.937   5.322   2.582 -1.1901 -0.0865  0.2837
14111SOL     OW54805   4.548   8.561   6.685 -0.4351  0.4667 -0.1316
14111SOL    HW154806   4.491   8.630   6.640  1.2634  3.4726  2.0987
14111SOL    HW254807   4.606   8.606   6.753  1.3314 -3.1169  0.8307
14112SOL     OW54808   6.601   7.454   1.919 -0.1352  0.5774  0.2503
14112SOL    HW154809   6.587   7.503   2.005 -1.8127  0.0620  0.2949
14112SOL    HW254810   6.666   7.380   1.933 -0.5190  0.3960  1.1229
14113SOL     OW54811   3.773   8.690   7.505 -0.6525  0.0268 -0.4299
14113SOL    HW154812   3.688   8.702   7.556  0.1500 -0.1649  0.9690
14113SOL    HW254813   3.765   8.611   7.444 -1.2548 -0.3806  0.1727
14114SOL     OW54814   5.271   4.720   8.483 -0.4776 -0.6031 -0.1728
14114SOL    HW154815   5.258   4.798   8.422  0.4541  1.0499  1.7171
14114SOL    HW254816   5.191   4.710   8.542 -0.5091 -0.9865 -0.2773
14115SOL     OW54817   8.819   2.207   2.554  0.1508 -0.1776 -0.4814
14115SOL    HW154818   8.744   2.143   2.540 -0.1818  0.3154 -0.9677
14115SOL    HW254819   8.893   2.162   2.605 -0.3958 -0.7150 -0.1583
14116SOL     OW54820   3.673   2.903   6.523 -0.4702 -0.3811  0.2393
14116SOL    HW154821   3.634   2.974   6.464  0.0573  1.3776  1.9280
14116SOL    HW254822   3.613   2.823   6.524 -0.7796 -0.2156 -2.1744
14117SOL     OW54823   7.560   3.527   2.935 -0.5662 -0.0835  0.6618
14117SOL    HW154824   7.506   3.605   2.966  1.8302  1.1632  1.8900
14117SOL    HW254825   7.657   3.552   2.936  0.1170 -2.5401 -0.5860
14118SOL     OW54826   1.787   5.098   2.146  0.1289 -0.9243  0.2823
14118SOL    HW154827   1.716   5.083   2.215  0.3286 -1.4664  0.3793
14118SOL    HW254828   1.869   5.134   2.191 -1.1336  2.9181 -0.2823
14119SOL     OW54829   4.037   0.936   2.983 -0.3665  0.1426  0.0267
14119SOL    HW154830   3.973   0.883   3.039 -0.8701 -0.5207 -1.1727
14119SOL    HW254831   4.115   0.878   2.958 -0.9054 -0.0351 -1.2647
14120SOL     OW54832   7.116   0.859   7.095 -0.0778  0.3617  0.2159
14120SOL    HW154833   7.057   0.940   7.092  3.1735  2.7913 -2.5323
14120SOL    HW254834   7.211   0.886   7.076  1.6256 -3.7023  2.2603
14121SOL     OW54835   1.615   0.156   0.312 -0.4941 -0.0485  0.5074
14121SOL    HW154836   1.637   0.064   0.343  0.8506  0.4594  1.1182
14121SOL    HW254837   1.542   0.195   0.368 -2.1281 -1.3011 -0.7293
14122SOL     OW54838   0.866   8.084   8.436 -0.4192 -0.2638 -0.1337
14122SOL    HW154839   0.843   8.014   8.369 -1.7006  0.9626 -0.9908
14122SOL    HW254840   0.787   8.102   8.494  0.1482 -0.0589  0.5904
14123SOL     OW54841   2.807   3.836   1.161 -0.7263 -0.0724  0.3322
14123SOL    HW154842   2.901   3.867   1.146 -1.4398  2.3161  0.5571
14123SOL    HW254843   2.780   3.774   1.088  0.9800 -0.7008  0.2051
14124SOL     OW54844   3.469   7.687   0.386  0.4043  0.0417 -0.5230
14124SOL    HW154845   3.557   7.733   0.396  0.9233 -0.5896 -1.9861
14124SOL    HW254846   3.414   7.735   0.317  0.8035 -1.2891 -1.7900
14125SOL     OW54847   4.489   3.067   8.747 -0.3371 -0.2142 -0.4674
14125SOL    HW154848   4.575   3.036   8.706  0.0838  1.3166 -0.7761
14125SOL    HW254849   4.442   2.989   8.788  2.6308 -0.6237  2.3554
14126SOL     OW54850   3.322   7.850   1.966  0.3224 -0.0377  0.1991
14126SOL    HW154851   3.224   7.838   1.951  0.1872  0.9775  0.2405
14126SOL    HW254852   3.350   7.940   1.931  1.2234 -0.2936  0.2539
14127SOL     OW54853   0.763   2.765   7.434  0.5724 -0.0795  0.3275
14127SOL    HW154854   0.748   2.837   7.501 -1.2458 -1.2810  1.2794
14127SOL    HW254855   0.714   2.682   7.463  0.0185 -0.7327 -2.3055
14128SOL     OW54856   5.616   5.355   6.994 -0.6782  0.4156  0.1611
14128SOL    HW154857   5.556   5.359   7.074  1.0158  0.3575  1.4664
14128SOL    HW254858   5.600   5.270   6.945 -1.9502  0.5866  0.2667
14129SOL     OW54859   3.807   8.483   5.206 -0.1820 -0.4221 -0.0949
14129SOL    HW154860   3.788   8.462   5.110  3.7330  1.1271 -1.3110
14129SOL    HW254861   3.775   8.575   5.227  0.3240 -0.1882 -0.3472
14130SOL     OW54862   8.011   3.659   5.105 -0.2513  0.3595  0.4974
14130SOL    HW154863   7.979   3.727   5.171  0.5388  2.4656 -1.2587
14130SOL    HW254864   7.966   3.673   5.017  1.5527  0.0201 -0.5137
14131SOL     OW54865   3.721   8.966   2.294  0.1760 -0.3746 -0.5763
14131SOL    HW154866   3.685   8.991   2.384  0.3493 -0.7819 -0.3936
14131SOL    HW254867   3.721   8.866   2.285  3.4093 -0.4971  0.3072
14132SOL     OW54868   5.030   5.007   3.235 -0.4698  0.0154 -0.5704
14132SOL    HW154869   4.997   5.083   3.290 -1.1529 -1.1347  0.6411
14132SOL    HW254870   5.127   5.021   3.212  0.0959  0.0615  1.7374
14133SOL     OW54871   7.744   2.963   0.238  0.4564  0.3559 -0.2017
14133SOL    HW154872   7.843   2.971   0.228  0.6785  0.4615  1.7601
14133SOL    HW254873   7.724   2.913   0.322 -1.1481 -1.5807 -1.7067
14134SOL     OW54874   7.193   7.304   0.785 -0.2139 -0.1274 -0.0661
14134SOL    HW154875   7.143   7.322   0.869  0.2593  0.3422  0.1176
14134SOL    HW254876   7.132   7.312   0.707 -0.2363  1.3113  0.0888
14135SOL     OW54877   2.652   3.370   4.968 -0.7156  0.4290 -0.0826
14135SOL    HW154878   2.589   3.444   4.942  0.8570  1.4552 -1.0560
14135SOL    HW254879   2.625   3.285   4.923 -1.5389  0.8115 -0.3202
14136SOL     OW54880   4.044   5.859   3.541 -0.2055  0.3628 -0.4647
14136SOL    HW154881   4.123   5.913   3.569 -1.5231  0.6826  2.8901
14136SOL    HW254882   3.964   5.919   3.529 -0.8942 -0.4380  0.0602
14137SOL     OW54883   3.979   1.865   5.580  0.6936 -0.1317  0.0643
14137SOL    HW154884   4.041   1.944   5.585  1.1288 -0.4384 -0.4154
14137SOL    HW254885   4.018   1.790   5.634  2.1913 -1.2904 -2.5122
14138SOL     OW54886   3.020   3.508   5.245 -0.2612  0.5468  0.1248
14138SOL    HW154887   3.095   3.562   5.206  0.2100  1.1978  1.8959
14138SOL    HW254888   3.031   3.502   5.344 -1.7809 -0.5676  0.2456
14139SOL     OW54889   3.167   3.471   3.818 -0.4119  0.8935 -0.2828
14139SOL    HW154890   3.174   3.512   3.727 -2.2006 -1.0300 -1.3252
14139SOL    HW254891   3.103   3.523   3.874  0.4126  1.8613 -0.2254
14140SOL     OW54892   5.904   0.642   6.131 -0.2557  0.3067 -0.4492
14140SOL    HW154893   5.925   0.734   6.164 -2.3828  1.4802 -2.2195
14140SOL    HW254894   5.990   0.592   6.115  0.9210  1.9783  0.4691
14141SOL     OW54895   2.347   0.037   8.246 -0.5986  0.2124  0.9865
14141SOL    HW154896   2.249   0.018   8.239 -0.0253 -1.7246 -2.3480
14141SOL    HW254897   2.368   0.065   8.340 -4.2231  0.1054  1.9077
14142SOL     OW54898   5.107   7.369   7.032  0.2883 -0.1366 -0.0828
14142SOL    HW154899   5.052   7.376   7.115 -0.0704 -2.0737 -0.1502
14142SOL    HW254900   5.055   7.405   6.955 -0.7145 -1.5014 -0.0608
14143SOL     OW54901   3.081   6.579   0.181 -0.4184 -0.1990  1.1465
14143SOL    HW154902   3.073   6.679   0.180  1.9338  0.0332 -1.0678
14143SOL    HW254903   3.164   6.553   0.231  0.8034 -0.8185 -1.1287
14144SOL     OW54904   2.454   5.478   6.555 -0.4902  0.3046  0.3642
14144SOL    HW154905   2.376   5.538   6.572 -0.8731  0.2915 -1.2836
14144SOL    HW254906   2.505   5.512   6.476  0.4975 -0.3652  0.7076
14145SOL     OW54907   5.947   3.521   8.188 -0.0326 -0.6031  0.4385
14145SOL    HW154908   5.921   3.594   8.251 -0.5480 -1.3772  1.1485
14145SOL    HW254909   6.047   3.519   8.178 -0.1409  1.4956 -1.2119
14146SOL     OW54910   0.511   1.779   6.888  0.1690  0.3105 -0.0047
14146SOL    HW154911   0.567   1.840   6.832 -1.2686  0.8143 -0.9195
14146SOL    HW254912   0.466   1.831   6.960  0.1919  0.0417  0.2090
14147SOL     OW54913   7.819   4.315   4.266 -0.4943 -0.0002  0.0530
14147SOL    HW154914   7.860   4.228   4.293  1.7479  1.5653  1.8745
14147SOL    HW254915   7.722   4.316   4.292 -0.6644 -2.0876 -0.4029
14148SOL     OW54916   4.416   5.145   7.042 -0.1022  0.3901  0.7993
14148SOL    HW154917   4.393   5.065   6.988 -1.6540  0.0474  1.9219
14148SOL    HW254918   4.374   5.226   7.001  2.0827  0.7655 -0.7509
14149SOL     OW54919   6.209   7.680   2.303 -0.0295 -0.2984 -0.5681
14149SOL    HW154920   6.270   7.743   2.350  0.8084 -0.2669 -1.6662
14149SOL    HW254921   6.188   7.603   2.363 -1.6976  1.4022  1.0604
14150SOL     OW54922   2.462   4.510   2.983 -0.3348  0.1695  0.4040
14150SOL    HW154923   2.459   4.579   2.910  0.3978 -0.8270 -0.5960
14150SOL    HW254924   2.371   4.502   3.025 -0.6291  1.1565 -0.0304
14151SOL     OW54925   6.203   7.934   6.346  0.3650 -0.0282 -0.3085
14151SOL    HW154926   6.218   7.862   6.413  3.0618 -0.5368 -1.4145
14151SOL    HW254927   6.129   7.994   6.377 -2.3708 -3.5753  0.3579
14152SOL     OW54928   5.296   0.350   7.964  0.2586  0.0193  0.1136
14152SOL    HW154929   5.270   0.259   7.930  0.0194 -0.6919  2.1281
14152SOL    HW254930   5.396   0.355   7.972  0.1758 -0.8704  2.0683
14153SOL     OW54931   7.218   6.730   3.293  0.5430  0.1728 -0.2329
14153SOL    HW154932   7.235   6.689   3.204 -0.5306 -2.2740  0.6533
14153SOL    HW254933   7.125   6.707   3.323  1.4586 -0.4072  2.2378
14154SOL     OW54934   2.180   8.750   8.826  0.4452 -0.5369 -0.4195
14154SOL    HW154935   2.084   8.726   8.811  0.4820 -0.9759  0.0660
14154SOL    HW254936   2.238   8.685   8.778  0.4758  0.9085 -2.4330
14155SOL     OW54937   5.721   7.065   8.429  0.3603 -0.1937  0.6060
14155SOL    HW154938   5.752   7.009   8.506  0.4217 -1.1915 -0.1406
14155SOL    HW254939   5.629   7.035   8.401  0.9932 -0.9252 -0.7448
14156SOL     OW54940   0.852   1.208   3.408 -0.0527  0.2010 -1.1948
14156SOL    HW154941   0.791   1.131   3.426 -0.8390  0.7584 -1.4580
14156SOL    HW254942   0.926   1.209   3.476 -0.3001 -0.5061 -0.9110
14157SOL     OW54943   3.156   3.612   3.108  0.2921 -0.5153 -0.2951
14157SOL    HW154944   3.069   3.656   3.087  0.9591  0.2905 -1.3767
14157SOL    HW254945   3.206   3.595   3.024  1.3318 -0.6744  0.3530
14158SOL     OW54946   4.096   5.140   8.079 -0.0857 -0.7968 -0.4670
14158SOL    HW154947   4.009   5.104   8.114  0.2735 -1.3123 -0.1018
14158SOL    HW254948   4.168   5.071   8.090  1.4387  1.2747  3.5758
14159SOL     OW54949   2.833   3.329   5.199 -0.1369  0.0962  0.3521
14159SOL    HW154950   2.785   3.335   5.112 -0.6665 -1.7464  0.4957
14159SOL    HW254951   2.898   3.404   5.207 -1.3322  1.2819 -0.8616
14160SOL     OW54952   1.304   7.744   0.012  0.3506  0.3518 -0.3679
14160SOL    HW154953   1.209   7.770  -0.007  0.7389  1.6801 -0.5265
14160SOL    HW254954   1.313   7.644   0.005 -0.9600  0.2402 -0.6535
14161SOL     OW54955   6.037   8.356   2.139  0.4723 -0.2333  0.2898
14161SOL    HW154956   5.962   8.390   2.082  1.7657  0.0381 -1.2631
14161SOL    HW254957   6.069   8.430   2.198  0.9987  0.2708 -0.6322
14162SOL     OW54958   5.817   7.887   4.741  0.8181 -0.1091 -0.1014
14162SOL    HW154959   5.891   7.826   4.711 -0.3549 -1.3962 -0.4349
14162SOL    HW254960   5.771   7.926   4.661  0.4004 -0.2318  0.0758
14163SOL     OW54961   2.767   0.366   3.355 -0.2082  0.2600 -0.8668
14163SOL    HW154962   2.771   0.266   3.351 -1.1662  0.2014 -0.4931
14163SOL    HW254963   2.787   0.396   3.448 -1.6838  0.3088 -0.5480
14164SOL     OW54964   1.954   3.340   5.332 -0.1773  0.4094  0.2901
14164SOL    HW154965   1.925   3.434   5.348  0.0897  0.3921  0.9047
14164SOL    HW254966   1.905   3.279   5.395 -0.1805  0.1658  0.0521
14165SOL     OW54967   3.024   8.499   0.424  0.0670  0.4671 -0.2987
14165SOL    HW154968   3.104   8.441   0.419 -0.8245 -1.1510  2.8668
14165SOL    HW254969   2.941   8.443   0.415 -0.7721  2.0315 -2.9464
14166SOL     OW54970   0.079   1.504   8.551 -0.3880  0.2665 -0.3052
14166SOL    HW154971   0.008   1.489   8.621 -0.2042  1.5413  0.1783
14166SOL    HW254972   0.115   1.416   8.520 -3.2108 -0.4797 -1.6239
14167SOL     OW54973   7.640   4.062   4.573  0.6141  0.2047 -0.0743
14167SOL    HW154974   7.547   4.086   4.548 -0.2676 -1.7044  1.2451
14167SOL    HW254975   7.672   4.125   4.644  0.0501  0.4004  0.0124
14168SOL     OW54976   3.674   6.847   6.500 -0.9004  0.0536 -0.2257
14168SOL    HW154977   3.592   6.867   6.553 -0.1671 -1.9180  1.6836
14168SOL    HW254978   3.754   6.842   6.560  0.2195 -0.6315 -1.7083
14169SOL     OW54979   6.747   2.743   2.889  0.2087  0.0080  0.0249
14169SOL    HW154980   6.810   2.817   2.910 -0.8302  0.5156  1.4194
14169SOL    HW254981   6.797   2.656   2.887  1.5755  0.8089 -2.4404
14170SOL     OW54982   5.372   5.847   2.500 -0.1731 -0.2458  0.1797
14170SOL    HW154983   5.435   5.845   2.423 -0.1185 -1.9892  0.2499
14170SOL    HW254984   5.388   5.930   2.554  1.3791 -0.1943 -0.3461
14171SOL     OW54985   6.641   1.045   6.860  0.8419 -0.5355  0.0856
14171SOL    HW154986   6.708   1.009   6.924 -0.0972 -0.7849  0.9405
14171SOL    HW254987   6.594   1.123   6.901 -0.7017 -1.5315  0.2520
14172SOL     OW54988   2.638   6.863   5.460  1.2665  0.0151 -0.2223
14172SOL    HW154989   2.643   6.958   5.430  1.2449 -0.1622 -0.7992
14172SOL    HW254990   2.566   6.852   5.529  2.0417  0.6390  0.7049
14173SOL     OW54991   3.479   4.128   0.436 -0.2361 -0.0362  0.2933
14173SOL    HW154992   3.545   4.158   0.505  1.5633  0.6764 -1.7195
14173SOL    HW254993   3.499   4.033   0.410  0.8282  0.5907 -1.2452
14174SOL     OW54994   3.462   1.875   2.230  0.3429  0.1007 -0.2683
14174SOL    HW154995   3.530   1.832   2.289  0.3485  2.3638  1.4226
14174SOL    HW254996   3.509   1.922   2.155  0.6035  0.8929  0.3854
14175SOL     OW54997   6.939   4.010   0.514  0.2870  0.0492 -0.0950
14175SOL    HW154998   7.015   4.041   0.570  1.3933 -0.5602 -1.2312
14175SOL    HW254999   6.973   3.983   0.424 -0.7559 -3.6003  0.5413
14176SOL     OW55000   7.843   7.837   1.252 -0.1267  0.2200 -0.2456
14176SOL    HW155001   7.821   7.752   1.300  0.8432  0.9702  1.6123
14176SOL    HW255002   7.787   7.845   1.170 -1.4679 -1.3621  0.4856
14177SOL     OW55003   5.894   1.628   7.294 -0.0416  0.1701  0.0879
14177SOL    HW155004   5.992   1.605   7.291 -0.4758 -1.6020 -1.8687
14177SOL    HW255005   5.879   1.718   7.254  0.7174  0.1503 -0.2412
14178SOL     OW55006   5.401   4.837   6.257 -0.0968  0.7210 -0.3852
14178SOL    HW155007   5.384   4.807   6.351 -1.4616  0.4346 -0.7132
14178SOL    HW255008   5.396   4.759   6.196 -1.3868  1.2373 -0.9592
14179SOL     OW55009   1.830   2.292   0.045  0.1466 -0.0034 -0.1635
14179SOL    HW155010   1.807   2.388   0.030  0.2235  0.0976  0.3564
14179SOL    HW255011   1.865   2.252  -0.040  2.0840  0.9873  0.1525
14180SOL     OW55012   4.335   0.174   7.613 -0.4961 -0.1949  0.5495
14180SOL    HW155013   4.358   0.269   7.590 -3.6196  0.4327 -0.3369
14180SOL    HW255014   4.235   0.163   7.608 -0.3027 -3.0934  2.3811
14181SOL     OW55015   4.040   8.441   7.170 -0.0296 -0.1920  0.2907
14181SOL    HW155016   4.033   8.540   7.179  1.8272  0.1690 -2.0313
14181SOL    HW255017   4.077   8.403   7.255  0.8961  1.2743  0.5578
14182SOL     OW55018   6.049   4.637   1.204 -0.6583  0.6646 -0.3742
14182SOL    HW155019   6.115   4.710   1.184 -0.4308  0.3394 -0.8190
14182SOL    HW255020   5.988   4.626   1.126 -1.4219  1.1623  0.1552
14183SOL     OW55021   3.040   0.846   5.058  0.2986 -0.0391 -0.1740
14183SOL    HW155022   3.097   0.831   5.139 -0.3199  0.4298  0.3465
14183SOL    HW255023   3.001   0.938   5.061  0.7629  0.2106 -1.3144
14184SOL     OW55024   5.593   8.582   7.609  0.2478  0.4130 -0.1111
14184SOL    HW155025   5.618   8.534   7.693  1.4202 -0.4644 -0.9421
14184SOL    HW255026   5.556   8.672   7.632  0.5011  0.1636  1.3407
14185SOL     OW55027   6.008   8.694   1.555  0.0122  0.5975 -0.5016
14185SOL    HW155028   5.913   8.674   1.579  0.3776 -0.7527 -0.1022
14185SOL    HW255029   6.028   8.790   1.573 -0.9082  0.5876  0.6238
14186SOL     OW55030   7.372   4.187   1.879  0.1741 -0.1726  0.1047
14186SOL    HW155031   7.448   4.214   1.939 -0.4187  1.2003  0.2470
14186SOL    HW255032   7.326   4.107   1.917  2.4891 -1.9686 -0.7645
14187SOL     OW55033   3.787   7.279   7.806 -0.3454  0.7911 -0.5531
14187SOL    HW155034   3.854   7.298   7.877 -1.4440 -1.6418  1.2265
14187SOL    HW255035   3.831   7.229   7.731  0.1732  0.6698 -0.1670
14188SOL     OW55036   6.598   0.883   2.891 -0.4655 -0.1275  0.0943
14188SOL    HW155037   6.541   0.911   2.814  2.1206  1.6163 -1.2694
14188SOL    HW255038   6.688   0.854   2.857  0.5501  0.1948  2.4171
14189SOL     OW55039   1.184   4.767   0.231 -0.0034  0.1735 -0.6529
14189SOL    HW155040   1.259   4.809   0.282  0.1625 -0.9973  0.1125
14189SOL    HW255041   1.101   4.822   0.242  0.5130  0.9715 -0.7239
14190SOL     OW55042   7.328   6.314   7.541  0.1324 -0.0018 -0.8017
14190SOL    HW155043   7.333   6.364   7.454  1.1557  1.6870  0.1956
14190SOL    HW255044   7.240   6.268   7.548 -0.5819  1.1301 -2.0587
14191SOL     OW55045   7.002   2.154   0.254 -0.0860  0.1912  0.0357
14191SOL    HW155046   6.990   2.224   0.325 -0.4620 -0.3135  0.4711
14191SOL    HW255047   6.913   2.119   0.225  0.0225  0.9446 -1.2515
14192SOL     OW55048   7.105   0.100   2.126 -0.2275 -0.1438  0.4774
14192SOL    HW155049   7.035   0.034   2.100  0.7256 -0.7171 -0.6576
14192SOL    HW255050   7.176   0.055   2.180  0.1435  0.0667  0.1712
14193SOL     OW55051   6.298   5.929   1.955 -0.5112  0.2420  0.3601
14193SOL    HW155052   6.274   5.845   2.004  0.8140 -0.3974 -0.0531
14193SOL    HW255053   6.396   5.929   1.936 -0.3896  2.1594  0.8636
14194SOL     OW55054   7.080   7.120   8.353 -0.1885 -0.0785 -0.4973
14194SOL    HW155055   7.096   7.065   8.435 -1.0550  0.9276  0.3753
14194SOL    HW255056   6.996   7.090   8.308  0.1894 -0.5099 -0.9161
14195SOL     OW55057   0.958   8.164   7.695  0.1910  0.2572 -0.6580
14195SOL    HW155058   0.901   8.134   7.772  2.6896  0.3835  1.3239
14195SOL    HW255059   0.939   8.260   7.675 -0.9546  0.0380 -0.6404
14196SOL     OW55060   1.325   8.949   4.957 -0.9277 -0.1562  0.2626
14196SOL    HW155061   1.357   8.906   5.041  0.7953 -1.3040 -0.9556
14196SOL    HW255062   1.280   8.880   4.900 -1.1555  0.3835 -0.2136
14197SOL     OW55063   4.265   5.131   4.978 -0.0882 -0.0790  0.4130
14197SOL    HW155064   4.218   5.215   4.950  1.4874  0.4227 -0.7676
14197SOL    HW255065   4.225   5.053   4.930  0.5325  0.3973 -0.8972
14198SOL     OW55066   8.639   3.232   7.780  0.3561  0.0341 -0.1469
14198SOL    HW155067   8.710   3.165   7.803  0.1604 -0.5158 -1.0762
14198SOL    HW255068   8.549   3.194   7.803  0.3640  0.7724  1.1255
14199SOL     OW55069   5.506   6.269   1.243  0.1868 -0.0389 -0.3407
14199SOL    HW155070   5.548   6.222   1.321 -0.8371  1.7967  1.3565
14199SOL    HW255071   5.539   6.364   1.240 -2.4552  0.9122 -0.0190
14200SOL     OW55072   2.644   7.525   5.223  0.1952  0.0819  0.0803
14200SOL    HW155073   2.613   7.436   5.190 -1.0600  0.6784 -0.4040
14200SOL    HW255074   2.720   7.558   5.167  0.9632 -0.8836  0.5502
14201SOL     OW55075   7.377   1.146   0.243 -0.0564  0.2255  0.2101
14201SOL    HW155076   7.375   1.240   0.210  0.9318  0.1785 -0.0015
14201SOL    HW255077   7.359   1.083   0.167  0.0579  0.2112  0.1946
14202SOL     OW55078   0.780   5.938   7.810 -0.4290 -0.2631  0.6300
14202SOL    HW155079   0.691   5.918   7.850 -0.1582  0.9403  1.8955
14202SOL    HW255080   0.852   5.915   7.875  0.1948 -1.1414 -0.3520
14203SOL     OW55081   3.977   6.232   7.797 -0.3231 -0.1655 -0.4197
14203SOL    HW155082   4.053   6.276   7.748 -0.3704  0.7085  0.2763
14203SOL    HW255083   4.010   6.147   7.838  0.2836  0.2074 -0.1203
14204SOL     OW55084   5.496   6.368   0.627 -0.2993 -0.3157 -0.0400
14204SOL    HW155085   5.455   6.277   0.641 -0.5513 -0.0427  1.0680
14204SOL    HW255086   5.577   6.377   0.685  0.2698 -0.1778 -0.8562
14205SOL     OW55087   3.622   7.938   1.370  0.2545  0.2257 -0.1492
14205SOL    HW155088   3.579   7.903   1.453 -1.5083  0.6353 -0.8661
14205SOL    HW255089   3.701   7.994   1.395 -1.6573  2.3710  1.4316
14206SOL     OW55090   0.816   1.053   8.334  0.1243  0.1694 -0.1949
14206SOL    HW155091   0.812   1.105   8.419  2.4452 -1.6304  1.0719
14206SOL    HW255092   0.725   1.016   8.314 -0.3857  0.3505  1.6697
14207SOL     OW55093   0.687   8.692   6.779 -0.0480  0.0521  0.1537
14207SOL    HW155094   0.615   8.753   6.814 -0.3176  0.2324 -0.6974
14207SOL    HW255095   0.667   8.598   6.807 -0.2321  0.2032  0.5301
14208SOL     OW55096   6.891   1.167   8.924 -0.1753  0.0125  0.1073
14208SOL    HW155097   6.956   1.149   8.998 -0.2345  1.4179  0.5160
14208SOL    HW255098   6.803   1.193   8.962 -0.0511  1.2925 -0.4403
14209SOL     OW55099   0.760   7.940   2.778 -0.1316  0.1777 -0.3428
14209SOL    HW155100   0.784   7.929   2.874 -1.0287  1.6124  0.0585
14209SOL    HW255101   0.702   8.021   2.767 -2.2898 -1.4957 -1.6985
14210SOL     OW55102   4.006   2.290   8.432 -0.3791 -0.3956 -0.0015
14210SOL    HW155103   3.963   2.364   8.482 -0.1396 -1.0621  1.2005
14210SOL    HW255104   3.992   2.204   8.480 -0.2620 -1.0747 -1.1436
14211SOL     OW55105   5.340   0.277   3.313  0.4993  0.5396  0.5659
14211SOL    HW155106   5.346   0.228   3.401  0.2884 -0.6186 -0.0552
14211SOL    HW255107   5.310   0.214   3.242  1.8908  1.1624 -0.5924
14212SOL     OW55108   4.271   5.315   6.825 -0.1075 -0.3747 -0.1350
14212SOL    HW155109   4.323   5.384   6.774 -1.3103  1.6107  1.2206
14212SOL    HW255110   4.313   5.225   6.813  2.8795  0.9534 -0.1287
14213SOL     OW55111   5.724   5.251   7.996 -0.3976  0.1144 -0.3826
14213SOL    HW155112   5.785   5.322   8.033  0.2836 -0.3699 -0.5653
14213SOL    HW255113   5.674   5.208   8.071 -0.7291  0.7095 -0.2587
14214SOL     OW55114   2.247   1.750   1.299 -0.4845 -0.0342  0.5201
14214SOL    HW155115   2.221   1.686   1.372 -1.7636  0.3773  0.4388
14214SOL    HW255116   2.170   1.811   1.280 -0.2087 -0.2068 -1.2398
14215SOL     OW55117   7.010   6.756   1.829  0.6220  0.5418 -0.3627
14215SOL    HW155118   6.973   6.759   1.736 -1.3111 -3.7150  0.1070
14215SOL    HW255119   7.107   6.731   1.826  0.9692  1.9702 -1.2670
14216SOL     OW55120   4.796   1.207   8.566  0.3549 -0.2932 -0.0516
14216SOL    HW155121   4.799   1.125   8.623  0.4310  0.0368  0.4170
14216SOL    HW255122   4.704   1.219   8.530  0.0808  0.0141  0.7507
14217SOL     OW55123   7.244   4.653   2.730  0.1528 -0.1264 -0.1059
14217SOL    HW155124   7.201   4.741   2.749 -0.5688 -0.4650 -0.1658
14217SOL    HW255125   7.176   4.590   2.691  1.0973 -0.1087 -1.8443
14218SOL     OW55126   5.004   5.438   6.340  0.2026  0.3901  0.4984
14218SOL    HW155127   4.957   5.446   6.428 -0.1679 -1.7459  0.5323
14218SOL    HW255128   4.976   5.513   6.280 -0.0003  1.5261  1.9940
14219SOL     OW55129   5.796   5.146   2.708 -0.0209 -0.0504  0.1520
14219SOL    HW155130   5.793   5.092   2.624  0.4257 -1.2528  0.9029
14219SOL    HW255131   5.708   5.192   2.721 -0.5639 -0.9686 -0.2425
14220SOL     OW55132   4.328   2.780   0.750 -0.1252 -0.3180 -0.5211
14220SOL    HW155133   4.339   2.763   0.652 -0.6599  0.4983 -0.7253
14220SOL    HW255134   4.395   2.848   0.780  0.8741 -1.4855 -0.0528
14221SOL     OW55135   3.595   4.769   2.947  0.2974  0.3375  0.1541
14221SOL    HW155136   3.529   4.726   3.008  1.7135 -0.3991  1.2068
14221SOL    HW255137   3.649   4.836   2.997 -1.7310  3.2632 -1.4264
14222SOL     OW55138   3.664   1.364   1.182  0.3581 -0.3817  0.1959
14222SOL    HW155139   3.699   1.338   1.092 -1.5483 -2.0482 -0.0931
14222SOL    HW255140   3.719   1.321   1.253  2.6719  1.9576 -0.0838
14223SOL     OW55141   3.204   2.746   8.491  0.1149 -0.2332 -0.3712
14223SOL    HW155142   3.223   2.733   8.588  0.2397 -2.5376 -0.6832
14223SOL    HW255143   3.110   2.780   8.479  0.1607  0.2282  0.5445
14224SOL     OW55144   6.443   1.318   0.809 -0.1720  0.2663 -0.5728
14224SOL    HW155145   6.490   1.403   0.786 -0.5836  0.0877 -2.1308
14224SOL    HW255146   6.468   1.247   0.743  0.0097 -0.7719  0.6017
14225SOL     OW55147   6.130   0.523   3.745 -0.2317 -0.2883  0.2518
14225SOL    HW155148   6.187   0.453   3.702 -0.3494  0.3775 -1.0039
14225SOL    HW255149   6.189   0.597   3.778 -0.5492  1.8935 -3.8144
14226SOL     OW55150   1.894   6.714   4.422 -0.0890  0.3432  0.2876
14226SOL    HW155151   1.840   6.728   4.504  0.3910  0.6499  0.5521
14226SOL    HW255152   1.953   6.634   4.433 -1.7356 -1.0413 -0.6572
14227SOL     OW55153   3.842   6.596   6.602  0.3597 -1.0924 -0.0343
14227SOL    HW155154   3.896   6.661   6.654 -0.2295 -0.8990  0.3490
14227SOL    HW255155   3.890   6.571   6.518  1.8100 -2.2159  1.1075
14228SOL     OW55156   7.225   6.757   6.830 -0.2429 -0.5369 -0.1495
14228SOL    HW155157   7.138   6.805   6.831 -0.7391 -1.2356 -3.2817
14228SOL    HW255158   7.299   6.820   6.854 -1.5105  0.2516  1.7456
14229SOL     OW55159   0.267   6.726   1.213  0.0689  0.8335 -0.2210
14229SOL    HW155160   0.342   6.784   1.243  0.7150  0.1013 -0.3895
14229SOL    HW255161   0.207   6.705   1.290  1.4724 -0.6831  0.4845
14230SOL     OW55162   3.876   8.929   6.999  0.0747 -0.3629  0.2196
14230SOL    HW155163   3.864   8.908   6.902 -1.4195 -0.5752  0.4372
14230SOL    HW255164   3.793   8.905   7.049 -0.2353  2.3369  1.1099
14231SOL     OW55165   3.259   4.383   2.388 -0.5245 -0.0342 -0.7733
14231SOL    HW155166   3.340   4.367   2.444 -1.6303 -0.6169  0.7002
14231SOL    HW255167   3.285   4.429   2.303  1.2717  0.2070 -0.1069
14232SOL     OW55168   6.936   4.997   1.988 -0.5217 -0.1144  0.2192
14232SOL    HW155169   6.989   4.958   1.913 -0.0833 -0.5118  0.7254
14232SOL    HW255170   6.994   5.004   2.070 -0.6746  1.3752  0.2102
14233SOL     OW55171   6.810   6.004   2.705  0.3711 -0.0561  0.5699
14233SOL    HW155172   6.784   5.907   2.703  0.3238 -0.0210 -0.5461
14233SOL    HW255173   6.744   6.055   2.761 -2.0903  0.0391 -2.2743
14234SOL     OW55174   8.677   4.749   5.328 -0.0091  0.1173 -0.1524
14234SOL    HW155175   8.681   4.736   5.229 -1.9407 -2.8323  0.1007
14234SOL    HW255176   8.604   4.814   5.350  0.7280  1.1413 -0.6328
14235SOL     OW55177   6.003   7.435   7.996  0.0521 -0.2285 -0.2115
14235SOL    HW155178   6.029   7.372   7.923  0.2541 -0.5410  0.1275
14235SOL    HW255179   6.016   7.390   8.085 -0.7976 -0.0672 -0.0084
14236SOL     OW55180   0.449   6.541   5.187 -0.1694 -0.3132  0.1107
14236SOL    HW155181   0.380   6.532   5.258 -0.1062  0.1496  0.2327
14236SOL    HW255182   0.532   6.581   5.226 -1.2771  3.1711 -0.9131
14237SOL     OW55183   1.663   7.602   6.973 -0.0605  0.0253  0.2741
14237SOL    HW155184   1.636   7.681   6.919 -0.0265 -0.0983  0.0727
14237SOL    HW255185   1.672   7.628   7.069  0.2358  0.3324  0.1651
14238SOL     OW55186   8.777   5.276   0.731  0.2026  0.1896 -0.2356
14238SOL    HW155187   8.781   5.176   0.738  0.1811 -0.0393 -3.0616
14238SOL    HW255188   8.835   5.317   0.801  1.3949 -1.8317 -0.0068
14239SOL     OW55189   7.022   8.297   7.768 -0.0706  0.1357  0.1887
14239SOL    HW155190   7.028   8.386   7.814  0.1290  0.0171  0.3894
14239SOL    HW255191   6.949   8.300   7.700 -0.4331  0.2816  0.5790
14240SOL     OW55192   4.138   3.629   3.905  0.0732 -0.2377  0.1999
14240SOL    HW155193   4.120   3.727   3.906  1.2873 -0.0179  0.8294
14240SOL    HW255194   4.093   3.588   3.826 -0.5272  0.8058 -0.0129
14241SOL     OW55195   4.273   6.061   1.313  0.1366 -0.2490  0.0626
14241SOL    HW155196   4.288   6.160   1.317  0.2197 -0.2150 -1.1354
14241SOL    HW255197   4.352   6.017   1.271 -0.4573 -0.6950 -0.5894
14242SOL     OW55198   3.072   2.848   0.836 -0.2944  0.3046  0.3576
14242SOL    HW155199   2.972   2.847   0.835 -0.3091 -0.4865  1.7320
14242SOL    HW255200   3.106   2.754   0.831  0.3457  0.4289  2.2467
14243SOL     OW55201   4.162   2.367   0.096  0.3552  0.0853  0.4693
14243SOL    HW155202   4.252   2.355   0.055  0.3316  0.5507  0.2780
14243SOL    HW255203   4.171   2.369   0.195  0.5119 -0.2132  0.4641
14244SOL     OW55204   3.330   5.859   7.269  0.4020  0.4417  0.2527
14244SOL    HW155205   3.245   5.908   7.289  1.5141  0.8184  4.5842
14244SOL    HW255206   3.315   5.796   7.193 -2.8932  2.6301 -1.0340
14245SOL     OW55207   5.083   1.612   0.375 -0.3039 -0.5404  0.4881
14245SOL    HW155208   5.053   1.696   0.421 -0.3786 -0.3159  0.0293
14245SOL    HW255209   5.181   1.598   0.392 -0.0263  0.2682 -0.3972
14246SOL     OW55210   5.513   2.280   8.507 -0.2645  0.2402  0.5226
14246SOL    HW155211   5.478   2.373   8.496  0.4245  0.0653 -3.9945
14246SOL    HW255212   5.606   2.284   8.544 -0.1193  1.3874  0.0750
14247SOL     OW55213   2.865   1.224   5.377  0.1001 -0.2466  0.4141
14247SOL    HW155214   2.888   1.173   5.459  1.2872  1.6082  1.2565
14247SOL    HW255215   2.767   1.246   5.378  0.0223 -0.6222  1.1150
14248SOL     OW55216   8.966   6.807   4.706  0.2620 -1.1793 -0.4615
14248SOL    HW155217   8.969   6.777   4.801 -1.4155 -0.3844 -0.1234
14248SOL    HW255218   8.919   6.738   4.651 -1.4163 -0.3458 -0.1337
14249SOL     OW55219   6.727   6.430   0.644  0.8817  0.4839 -0.3820
14249SOL    HW155220   6.634   6.414   0.611  1.0292  2.5918 -1.8563
14249SOL    HW255221   6.788   6.360   0.607 -0.1522 -1.0916  0.8416
14250SOL     OW55222   4.688   3.534   1.812 -0.3375  0.2684 -0.1471
14250SOL    HW155223   4.755   3.500   1.747 -1.2905 -0.8007 -0.5771
14250SOL    HW255224   4.723   3.522   1.905 -0.6106 -1.8139 -0.2934
14251SOL     OW55225   4.219   7.501   4.476  0.7534 -0.4828 -0.1501
14251SOL    HW155226   4.163   7.437   4.529 -1.8601  3.6602  2.4089
14251SOL    HW255227   4.160   7.556   4.417  2.5243  1.5000 -0.1291
14252SOL     OW55228   2.866   3.704   0.392  0.3375  0.5765 -0.1859
14252SOL    HW155229   2.900   3.782   0.339 -1.1240  1.6052  0.3752
14252SOL    HW255230   2.887   3.717   0.489  0.6851 -0.0582 -0.1713
14253SOL     OW55231   2.603   1.971   3.071  0.0342  0.5464  0.5474
14253SOL    HW155232   2.529   1.908   3.047  0.7395 -0.0686 -0.0251
14253SOL    HW255233   2.660   1.931   3.143 -0.1960  1.0258  1.0015
14254SOL     OW55234   4.568   4.788   6.034  0.0844  0.5066 -0.1611
14254SOL    HW155235   4.535   4.696   6.015  2.1193 -0.6282  1.6282
14254SOL    HW255236   4.658   4.800   5.993  0.3779  1.2693  0.7060
14255SOL     OW55237   2.977   6.957   4.360 -0.4082 -0.0302 -0.0232
14255SOL    HW155238   3.058   7.000   4.321 -0.7521  0.4934 -0.1614
14255SOL    HW255239   2.994   6.859   4.372  0.7292  0.3170  1.2533
14256SOL     OW55240   0.503   2.166   6.344  0.0409  0.2800  0.0574
14256SOL    HW155241   0.595   2.127   6.342 -0.1495 -0.2189  1.0164
14256SOL    HW255242   0.503   2.255   6.298  1.0478  0.3775  0.2474
14257SOL     OW55243   2.594   4.913   3.069  0.4116  0.4763 -0.2142
14257SOL    HW155244   2.686   4.944   3.094  1.1372 -0.4436 -1.6770
14257SOL    HW255245   2.531   4.991   3.069  1.7917  1.6108 -1.9395
14258SOL     OW55246   5.971   7.534   7.150 -0.6949  0.1019 -0.4577
14258SOL    HW155247   5.872   7.523   7.136 -0.7327 -1.0749  0.6409
14258SOL    HW255248   5.991   7.539   7.247  0.1181  2.7410 -0.7220
14259SOL     OW55249   3.840   7.788   0.025 -0.7039  0.0156  0.2407
14259SOL    HW155250   3.878   7.811   0.114  0.4436 -1.7205  0.2266
14259SOL    HW255251   3.905   7.815  -0.047 -1.3321  0.8033 -0.0414
14260SOL     OW55252   2.960   1.127   5.143  0.3937 -0.2440  0.0055
14260SOL    HW155253   2.942   1.144   5.240 -2.0330 -0.2438 -0.4157
14260SOL    HW255254   2.984   1.213   5.098 -2.6661  0.5518 -0.2196
14261SOL     OW55255   0.488   5.170   2.797 -0.3815  0.4675 -0.4658
14261SOL    HW155256   0.481   5.266   2.823 -3.1630  0.5430 -1.3427
14261SOL    HW255257   0.557   5.160   2.724  0.6725  1.6119  0.3560
14262SOL     OW55258   2.058   2.516   2.991  0.0106  0.0254 -0.6830
14262SOL    HW155259   2.150   2.547   3.012  1.2053 -2.3179 -2.2708
14262SOL    HW255260   2.054   2.484   2.896 -2.6233  0.7654 -0.8714
14263SOL     OW55261   8.150   1.007   6.423  0.2829  0.3618 -0.9049
14263SOL    HW155262   8.132   1.073   6.496  0.2708  1.0401 -1.5198
14263SOL    HW255263   8.248   0.985   6.421  0.2778  0.3177 -0.6633
14264SOL     OW55264   5.896   8.182   6.087  1.0673 -0.3187 -0.6327
14264SOL    HW155265   5.964   8.246   6.051 -1.0335  1.0725 -2.2962
14264SOL    HW255266   5.836   8.154   6.012 -2.0962  0.9314  1.3490
14265SOL     OW55267   5.847   8.535   6.979  0.1122  0.2430 -0.3397
14265SOL    HW155268   5.848   8.492   6.888 -1.4283 -0.2227 -0.1402
14265SOL    HW255269   5.761   8.582   6.993  0.0944 -0.2034  1.1322
14266SOL     OW55270   5.925   6.003   3.057 -0.5034 -0.2714 -0.7901
14266SOL    HW155271   5.857   5.955   3.112 -2.2616  0.8528 -1.9487
14266SOL    HW255272   5.945   6.091   3.099  1.0130 -1.0089  0.0867
14267SOL     OW55273   2.194   5.366   2.473  0.1302  0.7301 -0.0714
14267SOL    HW155274   2.155   5.432   2.538  1.2282 -0.0322  1.3869
14267SOL    HW255275   2.293   5.361   2.486  0.1697 -0.5510 -0.7814
14268SOL     OW55276   0.557   0.145   6.841  0.0712  0.3728  0.5340
14268SOL    HW155277   0.478   0.204   6.857 -0.2309  0.2056 -0.3434
14268SOL    HW255278   0.590   0.158   6.747  0.4514 -0.3196  0.5693
14269SOL     OW55279   3.778   6.825   6.973  0.4330 -0.3361  0.2875
14269SOL    HW155280   3.740   6.862   7.057  1.4949  1.8552 -0.1502
14269SOL    HW255281   3.704   6.787   6.917 -0.6763  0.8397  0.9158
14270SOL     OW55282   3.549   6.950   0.999 -0.4502 -0.2804  0.3394
14270SOL    HW155283   3.473   6.947   0.934  0.4720  1.1247 -0.8268
14270SOL    HW255284   3.632   6.915   0.955  0.4384  1.7303  0.3844
14271SOL     OW55285   1.424   1.714   8.368  0.0881  0.4889  0.5624
14271SOL    HW155286   1.456   1.621   8.383  0.9408  0.4422 -1.3753
14271SOL    HW255287   1.453   1.745   8.277  0.5136  2.9457  1.5093
14272SOL     OW55288   1.862   2.776   6.030 -0.1260  0.2654 -0.2613
14272SOL    HW155289   1.807   2.751   5.951  1.2380  0.7566 -1.3763
14272SOL    HW255290   1.910   2.694   6.064 -1.6831 -0.2125  0.8544
14273SOL     OW55291   7.651   7.046   6.672  0.2789  0.7131 -0.3192
14273SOL    HW155292   7.622   7.001   6.757  0.4083  3.7846  1.4168
14273SOL    HW255293   7.576   7.047   6.607  0.7222 -3.3191 -1.0155
14274SOL     OW55294   8.791   5.543   2.691  0.8081 -0.3239 -0.2321
14274SOL    HW155295   8.830   5.618   2.637 -1.3452  0.9724 -0.0463
14274SOL    HW255296   8.792   5.568   2.788  0.7658 -0.8532 -0.0976
14275SOL     OW55297   5.142   8.861   2.768 -0.0148 -0.1740 -0.0242
14275SOL    HW155298   5.167   8.878   2.673  1.2395  0.8379  0.4826
14275SOL    HW255299   5.115   8.765   2.778  1.1561 -0.6303 -1.1065
14276SOL     OW55300   3.652   2.642   2.586  0.0957 -0.1104 -0.5648
14276SOL    HW155301   3.561   2.635   2.628 -0.1841  1.9872 -0.7482
14276SOL    HW255302   3.721   2.608   2.650 -0.5488  1.0377  0.7823
14277SOL     OW55303   0.203   5.515   3.312 -0.7203  0.2688 -0.0958
14277SOL    HW155304   0.287   5.563   3.287 -2.3685  3.4421  0.2042
14277SOL    HW255305   0.197   5.507   3.411 -0.6499 -0.1482 -0.1270
14278SOL     OW55306   1.949   0.556   6.482 -0.4517 -0.1632  0.4757
14278SOL    HW155307   1.855   0.526   6.499 -0.8135  0.9683  0.5160
14278SOL    HW255308   1.994   0.492   6.421 -1.9129  0.3754 -1.2136
14279SOL     OW55309   3.401   2.149   8.706  0.2663 -0.4261 -0.3976
14279SOL    HW155310   3.491   2.139   8.664  1.2504  1.7403  1.0782
14279SOL    HW255311   3.369   2.243   8.693 -0.5970 -0.4583  1.3794
14280SOL     OW55312   2.228   3.399   8.517  0.1015  0.9801 -0.2732
14280SOL    HW155313   2.134   3.366   8.527  0.5676  0.0089  1.0904
14280SOL    HW255314   2.264   3.373   8.427  0.1179 -1.3802  0.3924
14281SOL     OW55315   3.585   3.940   3.979  0.2023  0.5108  0.3919
14281SOL    HW155316   3.645   3.867   4.011 -1.5833 -0.0914  2.4850
14281SOL    HW255317   3.500   3.901   3.944 -0.3065  1.4942  0.4880
14282SOL     OW55318   2.909   1.851   0.207  0.0898 -0.4777  0.1496
14282SOL    HW155319   2.941   1.788   0.136 -0.5420 -0.3319 -0.2688
14282SOL    HW255320   2.970   1.847   0.286 -0.6838 -2.6196  0.6763
14283SOL     OW55321   8.374   1.221   5.345 -0.2445 -0.0075  0.3677
14283SOL    HW155322   8.338   1.310   5.374  0.1092  0.5759 -0.9148
14283SOL    HW255323   8.308   1.177   5.284  0.3226  0.1743 -0.3926
14284SOL     OW55324   1.641   3.390   2.985 -0.4293  0.2347  0.1469
14284SOL    HW155325   1.656   3.488   2.989 -0.8565  0.2533  1.6999
14284SOL    HW255326   1.550   3.368   3.021 -0.0892 -0.7815  0.4255
14285SOL     OW55327   1.343   1.238   6.746  0.1736 -0.7829  0.2354
14285SOL    HW155328   1.358   1.240   6.845 -0.9453 -0.7600  0.4097
14285SOL    HW255329   1.245   1.230   6.727  0.2348  0.9619 -0.8865
14286SOL     OW55330   8.274   5.244   4.460  0.8753  0.4885  0.2431
14286SOL    HW155331   8.196   5.305   4.445  0.9056  0.0242 -2.0155
14286SOL    HW255332   8.275   5.174   4.388  1.4645 -1.5254  2.1558
14287SOL     OW55333   1.503   7.660   2.500 -0.3520  0.0995 -0.1341
14287SOL    HW155334   1.542   7.734   2.445  1.7524 -0.6567  0.3178
14287SOL    HW255335   1.533   7.572   2.464  0.2104 -0.4326  1.5946
14288SOL     OW55336   3.297   6.367   5.512 -0.5747 -0.3518 -0.1890
14288SOL    HW155337   3.226   6.356   5.442 -1.8934  0.8916  0.9107
14288SOL    HW255338   3.289   6.293   5.579 -2.3367  1.0054  1.1684
14289SOL     OW55339   5.080   6.585   5.763  0.0511 -0.0245 -0.3199
14289SOL    HW155340   4.996   6.606   5.814 -0.5530  0.8364 -1.6200
14289SOL    HW255341   5.151   6.554   5.826 -1.6483 -2.0427  0.6363
14290SOL     OW55342   6.245   1.275   2.519  0.0086  0.4715 -0.2450
14290SOL    HW155343   6.191   1.263   2.435  1.2271 -0.3094 -0.9381
14290SOL    HW255344   6.199   1.231   2.595 -0.8117  0.6485 -0.6336
14291SOL     OW55345   5.407   7.192   0.551  0.2045  0.0362 -0.1618
14291SOL    HW155346   5.307   7.192   0.542  0.2358  0.2311 -0.5038
14291SOL    HW255347   5.442   7.101   0.527  0.0359 -0.2912  0.8034
14292SOL     OW55348   1.232   7.619   8.706  0.4501  0.1182 -0.0733
14292SOL    HW155349   1.312   7.674   8.682 -0.3783  1.7924  0.8371
14292SOL    HW255350   1.248   7.571   8.792 -0.1466  1.8790  1.0544
14293SOL     OW55351   7.594   0.420   8.862 -0.1557  0.9315 -0.6511
14293SOL    HW155352   7.502   0.445   8.834  0.0177  0.2766 -1.7825
14293SOL    HW255353   7.638   0.365   8.792  0.4328 -0.3571  0.6911
14294SOL     OW55354   5.051   6.111   8.959  0.3438  0.2925  0.4076
14294SOL    HW155355   5.137   6.070   8.929  0.2241 -0.4553  1.0754
14294SOL    HW255356   5.059   6.139   9.055 -0.5083 -0.7582  0.7919
14295SOL     OW55357   0.630   7.797   2.147 -0.1232 -0.4614 -0.4472
14295SOL    HW155358   0.564   7.862   2.110  0.0045 -0.3361 -0.4575
14295SOL    HW255359   0.680   7.840   2.223 -0.8672 -0.9501  0.3286
14296SOL     OW55360   4.628   2.008   4.839 -0.1731  0.4990 -0.2898
14296SOL    HW155361   4.565   1.988   4.914 -0.3056  0.4853 -0.4038
14296SOL    HW255362   4.643   2.106   4.833 -0.0312  0.4861 -0.1397
14297SOL     OW55363   4.981   0.439   4.934 -0.1561 -0.1536  0.1486
14297SOL    HW155364   4.937   0.435   5.023 -0.4550  1.1643  0.0786
14297SOL    HW255365   4.976   0.349   4.890  0.2348 -0.8781  1.5580
14298SOL     OW55366   2.512   1.582   4.566  0.2369  0.1806  0.1264
14298SOL    HW155367   2.593   1.619   4.519  0.7088 -0.4627  0.4425
14298SOL    HW255368   2.437   1.574   4.500  0.7896 -0.3716 -0.4432
14299SOL     OW55369   2.459   6.421   0.932 -0.0300  0.3593 -0.1972
14299SOL    HW155370   2.501   6.500   0.888 -1.2538  2.3397  2.0498
14299SOL    HW255371   2.526   6.375   0.991  0.3209  0.5324 -0.4624
14300SOL     OW55372   2.278   1.506   6.035  0.0049  0.0410 -0.0724
14300SOL    HW155373   2.264   1.489   5.937 -0.3866  0.7913 -0.1516
14300SOL    HW255374   2.318   1.425   6.077  0.1449 -0.3034 -0.8482
14301SOL     OW55375   0.868   0.729   0.283 -0.1499 -0.4194  0.1354
14301SOL    HW155376   0.868   0.710   0.185  3.6089 -0.2604  0.0641
14301SOL    HW255377   0.824   0.817   0.300 -0.8853 -0.4830 -1.3759
14302SOL     OW55378   0.188   7.362   7.461 -0.3608  0.6514 -0.2513
14302SOL    HW155379   0.157   7.267   7.466 -0.6180  0.7610  0.3116
14302SOL    HW255380   0.284   7.368   7.490  0.1988  0.3104 -1.9952
14303SOL     OW55381   2.377   7.707   2.785  0.0822 -0.5978 -0.2089
14303SOL    HW155382   2.293   7.755   2.810  0.8492  1.6523 -1.8181
14303SOL    HW255383   2.407   7.737   2.695  2.6733 -1.2831  0.3765
14304SOL     OW55384   6.074   0.413   8.363  0.3096 -0.2591  0.4527
14304SOL    HW155385   6.106   0.507   8.367 -2.0692  0.5601  0.9720
14304SOL    HW255386   6.050   0.389   8.269  2.7077 -1.0167 -0.0147
14305SOL     OW55387   2.922   8.593   2.572 -0.0240 -0.7097  0.1652
14305SOL    HW155388   3.002   8.653   2.561 -1.7690  1.5161 -0.5890
14305SOL    HW255389   2.886   8.570   2.481 -0.8914 -0.8556  0.5474
14306SOL     OW55390   8.101   6.439   0.986  0.0308  0.0120  0.2850
14306SOL    HW155391   8.133   6.531   0.964 -1.4019  0.0069 -1.9996
14306SOL    HW255392   8.007   6.443   1.018  0.5647 -0.4978  1.9956
14307SOL     OW55393   6.026   6.719   5.314 -0.1843 -0.1575  0.7007
14307SOL    HW155394   6.076   6.676   5.239 -2.0469 -0.0613 -0.6488
14307SOL    HW255395   5.984   6.648   5.371  0.6069 -0.2163  1.2123
14308SOL     OW55396   2.557   4.660   7.860  0.1461 -0.3527 -0.1078
14308SOL    HW155397   2.497   4.726   7.814 -0.1938  0.6240  1.6701
14308SOL    HW255398   2.639   4.707   7.893  0.2440 -0.9637  0.5382
14309SOL     OW55399   4.022   2.270   5.137 -0.0692  0.0005  0.5553
14309SOL    HW155400   4.006   2.213   5.217 -0.9353  0.2666  0.5778
14309SOL    HW255401   3.935   2.293   5.094  0.4424 -0.9760 -1.0564
14310SOL     OW55402   1.784   6.166   4.448 -0.5356 -0.0756 -0.1268
14310SOL    HW155403   1.821   6.074   4.460 -1.0907 -0.1737  0.8696
14310SOL    HW255404   1.846   6.220   4.392  1.0572 -0.2774  1.4243
14311SOL     OW55405   7.747   0.261   5.387 -0.3823 -0.4784  0.2250
14311SOL    HW155406   7.699   0.208   5.458  0.6518  0.2518  1.4874
14311SOL    HW255407   7.839   0.226   5.375 -0.9374 -1.3630 -1.6390
14312SOL     OW55408   5.651   4.739   4.551 -0.5986  0.0078 -0.5909
14312SOL    HW155409   5.676   4.767   4.644  1.2629 -1.1868 -0.7110
14312SOL    HW255410   5.623   4.643   4.551 -1.6666  0.3144 -1.0871
14313SOL     OW55411   6.477   6.867   3.371  0.0973  0.3527 -0.5555
14313SOL    HW155412   6.524   6.816   3.300  0.1185 -0.1704 -0.1686
14313SOL    HW255413   6.535   6.943   3.402  1.1983 -0.9912  0.7482
14314SOL     OW55414   4.820   1.518   3.965  1.0422 -0.5258 -0.1544
14314SOL    HW155415   4.839   1.479   4.055  2.6433  0.6814  0.0556
14314SOL    HW255416   4.868   1.465   3.895  1.7373 -0.0331 -0.0529
14315SOL     OW55417   7.725   4.065   8.514 -0.0797  0.0547 -0.4940
14315SOL    HW155418   7.800   4.066   8.580 -0.9514 -2.0860  0.5401
14315SOL    HW255419   7.747   4.001   8.440 -0.6262 -0.1274 -0.4992
14316SOL     OW55420   0.142   5.776   4.275  0.3000 -0.6896 -0.0569
14316SOL    HW155421   0.191   5.707   4.329  0.1711 -0.1045  0.8158
14316SOL    HW255422   0.150   5.865   4.320 -0.0801 -0.2534 -0.8439
14317SOL     OW55423   3.537   3.881   0.660 -0.0637  0.2065  0.1596
14317SOL    HW155424   3.527   3.918   0.752 -0.8057 -0.6470  0.4290
14317SOL    HW255425   3.606   3.934   0.610  0.7570  0.3183  1.3830
14318SOL     OW55426   4.745   5.790   3.696 -0.2175  0.3262 -0.0408
14318SOL    HW155427   4.652   5.791   3.732 -0.3751  1.2519 -0.4395
14318SOL    HW255428   4.792   5.708   3.726 -1.1114 -0.0638  0.3087
14319SOL     OW55429   3.736   7.059   4.628  0.5933  0.1352  0.6892
14319SOL    HW155430   3.685   6.978   4.658  1.2577 -0.2509  0.7702
14319SOL    HW255431   3.812   7.031   4.571  0.4990  0.7440  0.2653
14320SOL     OW55432   0.189   1.932   6.927  0.6763 -0.2030  0.2215
14320SOL    HW155433   0.283   1.966   6.927  0.9096 -0.7997 -1.1836
14320SOL    HW255434   0.185   1.848   6.872 -0.9511  0.6157 -0.9373
14321SOL     OW55435   5.241   6.413   1.309 -0.5338  0.0725 -0.6935
14321SOL    HW155436   5.273   6.442   1.399 -0.5759 -1.2739 -0.2397
14321SOL    HW255437   5.313   6.362   1.263 -1.1334 -0.7765 -0.6987
14322SOL     OW55438   1.353   4.867   1.931  0.2556 -0.1102 -0.2955
14322SOL    HW155439   1.427   4.803   1.908 -0.4315 -0.9212 -0.2587
14322SOL    HW255440   1.392   4.957   1.949  1.0048  0.0718 -2.7048
14323SOL     OW55441   3.073   2.358   8.828  0.3803 -0.2117 -0.3258
14323SOL    HW155442   3.140   2.424   8.793  0.8833 -1.0698 -1.0271
14323SOL    HW255443   3.116   2.301   8.898 -0.4101  1.0032  1.1848
14324SOL     OW55444   2.016   0.863   8.830  0.1829 -0.3900 -0.3279
14324SOL    HW155445   1.965   0.795   8.777  1.2735 -0.4346 -1.3181
14324SOL    HW255446   2.093   0.819   8.876  0.2202 -0.0339 -0.0425
14325SOL     OW55447   2.412   2.680   5.048 -0.0812 -0.3102  0.6690
14325SOL    HW155448   2.367   2.769   5.055 -0.1088 -0.2703 -0.0179
14325SOL    HW255449   2.345   2.611   5.020  0.2140 -0.3124 -0.0269
14326SOL     OW55450   0.690   7.666   8.768  0.0068 -0.1500  0.5744
14326SOL    HW155451   0.773   7.712   8.737 -0.0385  0.8815  1.9469
14326SOL    HW255452   0.711   7.614   8.851 -0.3968 -1.0640  0.1156
14327SOL     OW55453   8.665   7.836   5.379 -0.3666 -0.3721 -0.3406
14327SOL    HW155454   8.698   7.776   5.451  2.9362 -1.1630 -2.3804
14327SOL    HW255455   8.709   7.926   5.388 -2.7248  0.7351  0.7123
14328SOL     OW55456   7.033   0.609   7.177 -0.3417  0.4801 -0.0077
14328SOL    HW155457   7.067   0.697   7.145  0.1307 -0.5942 -2.5963
14328SOL    HW255458   6.934   0.612   7.185 -0.3085  1.3090  0.1293
14329SOL     OW55459   8.318   2.095   5.137 -0.4167  0.0524 -0.5148
14329SOL    HW155460   8.351   2.008   5.099 -0.3473  0.0529 -0.4564
14329SOL    HW255461   8.350   2.170   5.079  0.0470  0.0837 -0.2223
14330SOL     OW55462   0.906   6.924   4.812  0.4282  0.0197 -0.5009
14330SOL    HW155463   0.824   6.906   4.866  0.1805  2.3157 -0.0519
14330SOL    HW255464   0.987   6.900   4.866  0.1262  0.6011  0.2324
14331SOL     OW55465   5.738   0.632   2.167  0.2385  0.1684  0.0207
14331SOL    HW155466   5.830   0.601   2.143 -0.1201 -0.6616 -0.3204
14331SOL    HW255467   5.719   0.610   2.263  0.1911 -0.1824 -0.0671
14332SOL     OW55468   3.548   3.887   0.967 -0.3485  0.1334 -0.0541
14332SOL    HW155469   3.472   3.829   0.941 -0.3267 -0.0632  0.3094
14332SOL    HW255470   3.552   3.893   1.067 -0.0188  0.3123 -0.0780
14333SOL     OW55471   1.036   5.468   2.748  0.4251  0.2201  0.0164
14333SOL    HW155472   0.957   5.411   2.726  0.1827  0.6657 -0.2828
14333SOL    HW255473   1.021   5.560   2.711  1.5016  0.0482 -0.8850
14334SOL     OW55474   4.577   1.378   1.957 -0.1847  0.0258 -0.2380
14334SOL    HW155475   4.484   1.344   1.968 -0.2930  0.5220  0.4278
14334SOL    HW255476   4.576   1.456   1.894 -0.3416  0.5572  0.4204
14335SOL     OW55477   2.377   4.136   1.862  0.5422 -0.2287  0.6112
14335SOL    HW155478   2.448   4.137   1.792  0.5150 -0.0922  0.5845
14335SOL    HW255479   2.340   4.043   1.871  0.3223 -0.1783  0.2161
14336SOL     OW55480   5.113   1.268   0.383 -0.5760  0.0339  0.7075
14336SOL    HW155481   5.096   1.305   0.475 -2.1701  1.9682 -0.3285
14336SOL    HW255482   5.052   1.191   0.366  0.1393 -0.7153  1.4756
14337SOL     OW55483   3.285   2.611   6.240 -0.0619  1.1562 -0.2592
14337SOL    HW155484   3.222   2.650   6.307 -0.8261 -0.7054  0.1217
14337SOL    HW255485   3.284   2.512   6.247 -0.7063  0.8676 -3.4866
14338SOL     OW55486   4.042   6.745   2.886  0.4732  0.2889 -0.4326
14338SOL    HW155487   3.976   6.752   2.811 -0.1759  0.5879  0.1639
14338SOL    HW255488   4.020   6.666   2.943 -0.0328  1.0241  0.4005
14339SOL     OW55489   4.179   5.516   3.091 -0.1928  0.0436 -0.2405
14339SOL    HW155490   4.248   5.588   3.080  0.7103 -0.9120 -0.9444
14339SOL    HW255491   4.222   5.435   3.133 -1.4319  0.2662  1.5204
14340SOL     OW55492   1.381   2.619   6.676  0.3896 -0.1513  0.0437
14340SOL    HW155493   1.356   2.674   6.757 -0.3536  0.0719 -0.3296
14340SOL    HW255494   1.478   2.596   6.680  0.6935  1.1271  0.2501
14341SOL     OW55495   1.219   7.849   8.245 -0.3407 -0.2600  0.0827
14341SOL    HW155496   1.264   7.904   8.315  0.8566 -0.2074 -0.7276
14341SOL    HW255497   1.133   7.812   8.282  0.1891 -0.0833  1.5072
14342SOL     OW55498   2.354   0.627   3.833 -0.3250 -0.0545  0.0598
14342SOL    HW155499   2.399   0.698   3.780  1.4170 -0.3060  1.1786
14342SOL    HW255500   2.401   0.615   3.920 -2.0140 -0.9577  0.8742
14343SOL     OW55501   7.564   3.599   3.869  0.7489 -0.4397  0.5039
14343SOL    HW155502   7.550   3.637   3.960 -0.2057 -1.1286  0.6503
14343SOL    HW255503   7.550   3.671   3.800 -1.0985 -0.5380  0.7765
14344SOL     OW55504   4.892   4.693   6.184 -0.1460 -0.4786 -0.4109
14344SOL    HW155505   4.889   4.786   6.221 -1.2585 -0.4046 -0.6503
14344SOL    HW255506   4.986   4.661   6.181  0.3569  1.0131 -1.2256
14345SOL     OW55507   8.947   2.865   0.997  0.6425  0.0260  0.3191
14345SOL    HW155508   8.863   2.866   1.052 -0.2158  2.7076 -0.9377
14345SOL    HW255509   9.025   2.885   1.056  0.3387 -1.7841  1.3784
14346SOL     OW55510   8.452   0.858   6.135 -0.0659 -0.1141  0.3351
14346SOL    HW155511   8.499   0.923   6.194  2.0372 -1.9866  0.7805
14346SOL    HW255512   8.511   0.834   6.058 -1.6374  0.0468 -0.9700
14347SOL     OW55513   6.823   3.291   1.508 -0.1762  0.0972 -0.0268
14347SOL    HW155514   6.920   3.316   1.511  0.1321 -1.0694 -0.0672
14347SOL    HW255515   6.803   3.222   1.578 -0.3354 -1.7732 -1.8433
14348SOL     OW55516   6.587   7.952   2.610 -0.7166  0.3558  0.1030
14348SOL    HW155517   6.495   7.975   2.640 -0.4112  2.5938 -0.5815
14348SOL    HW255518   6.654   8.007   2.660  0.1133  0.2961 -0.9122
14349SOL     OW55519   3.760   2.582   7.453 -0.3182 -0.5906  0.2502
14349SOL    HW155520   3.725   2.495   7.418  1.2172 -1.3768  0.6596
14349SOL    HW255521   3.716   2.602   7.541 -1.6564 -0.2795 -0.4721
14350SOL     OW55522   5.274   0.702   1.636 -0.0521  0.1944 -0.1914
14350SOL    HW155523   5.234   0.744   1.554  0.2916  2.1515  0.6434
14350SOL    HW255524   5.248   0.755   1.717  0.3349 -1.2387  0.8875
14351SOL     OW55525   1.252   7.713   1.123  0.3344 -0.4788 -0.1293
14351SOL    HW155526   1.152   7.706   1.119  0.2708  0.1921  0.2983
14351SOL    HW255527   1.288   7.720   1.030  0.0072 -0.9564 -0.3010
14352SOL     OW55528   3.033   1.125   7.915  0.0185  0.3497  0.6414
14352SOL    HW155529   3.000   1.055   7.979  0.3566 -0.5398 -0.1480
14352SOL    HW255530   3.123   1.156   7.944  1.0971 -1.5603 -0.5347
14353SOL     OW55531   6.373   6.702   2.857 -0.8213 -0.6549  0.0389
14353SOL    HW155532   6.446   6.642   2.891 -1.9614 -2.2658 -0.2834
14353SOL    HW255533   6.389   6.795   2.889  0.3446 -1.3507  1.5643
14354SOL     OW55534   6.802   8.301   7.614  0.3884 -0.1246 -0.4296
14354SOL    HW155535   6.705   8.291   7.636  0.5684  0.2349  0.5450
14354SOL    HW255536   6.815   8.383   7.558  0.3475  0.8154  0.9088
14355SOL     OW55537   4.020   2.612   2.607  0.0781 -0.0450 -0.4449
14355SOL    HW155538   3.970   2.606   2.693  1.7864 -0.3241  0.5433
14355SOL    HW255539   3.965   2.572   2.534 -2.2412  2.0337  0.1163
14356SOL     OW55540   4.875   2.890   5.405  0.2669 -0.6255 -0.8316
14356SOL    HW155541   4.956   2.852   5.451  0.0591  0.5694  0.5713
14356SOL    HW255542   4.891   2.987   5.386 -0.7685 -0.4144 -0.6708
14357SOL     OW55543   0.821   5.341   7.005 -0.7550 -0.0423  0.2776
14357SOL    HW155544   0.859   5.380   7.088  0.0934 -0.7745  0.2421
14357SOL    HW255545   0.814   5.412   6.935 -0.1325  0.2634  0.5194
14358SOL     OW55546   5.140   7.537   6.010  0.1477 -0.6966 -0.0609
14358SOL    HW155547   5.213   7.494   6.063 -0.5078 -0.7319  0.8129
14358SOL    HW255548   5.179   7.582   5.930  1.2645  0.2697  1.0205
14359SOL     OW55549   5.953   0.141   3.515 -0.1803 -0.8274 -0.5671
14359SOL    HW155550   5.962   0.088   3.430  2.7638  0.1708 -0.9421
14359SOL    HW255551   5.901   0.224   3.498  1.1746 -0.1812 -1.6524
14360SOL     OW55552   2.199   5.845   3.081 -0.1315 -0.1634 -0.2017
14360SOL    HW155553   2.103   5.872   3.086 -0.1479 -0.2459 -0.0502
14360SOL    HW255554   2.206   5.746   3.094  0.0110 -0.0980  0.2382
14361SOL     OW55555   0.258   8.571   4.465 -0.1469  0.3767 -0.4119
14361SOL    HW155556   0.271   8.472   4.462  0.8154  0.4459  1.1693
14361SOL    HW255557   0.178   8.595   4.410 -0.0926 -1.2117 -1.2313
14362SOL     OW55558   2.488   3.551   6.029 -0.8370 -0.4854 -0.2978
14362SOL    HW155559   2.561   3.617   6.050 -1.9879  0.5256  0.6054
14362SOL    HW255560   2.410   3.600   5.990 -2.7174 -0.8987  2.7775
14363SOL     OW55561   5.720   2.182   0.591 -0.0420  0.2027 -0.2031
14363SOL    HW155562   5.622   2.186   0.570 -0.2165 -0.4906  0.4632
14363SOL    HW255563   5.748   2.086   0.597  0.5477  0.4050  0.2299
14364SOL     OW55564   2.987   0.215   7.509 -0.3349  0.2204 -0.2012
14364SOL    HW155565   3.034   0.297   7.476 -2.1423  1.0601 -0.6898
14364SOL    HW255566   2.889   0.231   7.512 -0.8328 -2.4002 -1.6140
14365SOL     OW55567   3.437   0.424   8.991  0.0638 -0.6119 -0.3643
14365SOL    HW155568   3.345   0.405   8.957 -0.5543  2.2657 -0.4608
14365SOL    HW255569   3.443   0.399   9.087 -0.7085 -1.1765 -0.4629
14366SOL     OW55570   4.432   6.853   7.483  0.4590 -0.1196 -0.4328
14366SOL    HW155571   4.433   6.926   7.414 -0.2567 -0.5436 -0.9024
14366SOL    HW255572   4.347   6.801   7.474  0.5701 -0.4562  0.4816
14367SOL     OW55573   0.172   0.620   4.866 -0.0043 -0.9896  0.2152
14367SOL    HW155574   0.093   0.584   4.817 -0.9673 -1.3583  2.0094
14367SOL    HW255575   0.152   0.626   4.964  1.5103  0.7246  0.4644
14368SOL     OW55576   1.105   4.370   6.798 -0.4453 -0.0423 -0.0216
14368SOL    HW155577   1.174   4.317   6.847 -1.3962 -2.7226 -1.4506
14368SOL    HW255578   1.086   4.455   6.848  1.7598 -0.6183  1.8862
14369SOL     OW55579   5.349   3.425   1.433 -0.2583 -0.3778 -0.1870
14369SOL    HW155580   5.296   3.427   1.348  0.9360  0.5096 -0.9098
14369SOL    HW255581   5.345   3.333   1.472 -0.9455 -0.7458 -1.1111
14370SOL     OW55582   3.901   8.768   1.658 -0.2764 -0.1523  0.0312
14370SOL    HW155583   3.820   8.808   1.615  1.2405 -0.0419 -2.8220
14370SOL    HW255584   3.932   8.827   1.732 -0.8441  1.5229 -1.0351
14371SOL     OW55585   4.184   1.121   8.871 -0.9776  0.1527 -0.0047
14371SOL    HW155586   4.175   1.041   8.811 -1.3172  1.0276 -1.1481
14371SOL    HW255587   4.221   1.198   8.818 -1.2564  0.9401  0.9263
14372SOL     OW55588   8.805   3.584   8.089  0.2175 -0.4775 -0.4746
14372SOL    HW155589   8.710   3.569   8.115  0.7608 -0.8400  1.3982
14372SOL    HW255590   8.862   3.514   8.133  1.3778 -0.0841 -1.3465
14373SOL     OW55591   8.794   8.732   8.776  0.0433  0.1995  0.1731
14373SOL    HW155592   8.829   8.663   8.712  0.5233  1.7217 -1.2437
14373SOL    HW255593   8.697   8.715   8.794  0.6395 -2.0100  1.4019
14374SOL     OW55594   0.812   6.712   4.440 -0.2632 -0.2598  0.0605
14374SOL    HW155595   0.879   6.776   4.479 -0.9691  1.2114 -1.1280
14374SOL    HW255596   0.853   6.620   4.438  3.1813  1.1946 -4.0293
14375SOL     OW55597   1.268   5.815   6.181  0.5828 -0.0824 -0.4111
14375SOL    HW155598   1.334   5.741   6.170 -0.3905 -0.5718 -3.4159
14375SOL    HW255599   1.203   5.814   6.105 -1.4433  1.8635  1.2154
14376SOL     OW55600   8.727   7.359   4.027  0.0166  0.2869  0.5858
14376SOL    HW155601   8.768   7.295   3.962 -0.0362  1.2849 -0.4469
14376SOL    HW255602   8.784   7.363   4.110  0.4299 -0.5065  0.3482
14377SOL     OW55603   2.979   7.568   3.963 -0.4152 -0.5076 -0.4776
14377SOL    HW155604   3.053   7.502   3.944  0.4287  0.4726 -0.6375
14377SOL    HW255605   2.996   7.652   3.912 -0.8756  0.2571  0.6160
14378SOL     OW55606   5.256   7.414   4.782  0.0563 -0.1103  0.1576
14378SOL    HW155607   5.191   7.475   4.736  0.5847  0.9245  0.7567
14378SOL    HW255608   5.207   7.356   4.846 -0.5711 -0.9507 -1.0601
14379SOL     OW55609   4.839   6.490   3.627  0.1662 -0.4243  0.2475
14379SOL    HW155610   4.805   6.578   3.660  0.6986 -0.1734  0.1261
14379SOL    HW255611   4.764   6.423   3.627  0.1149 -0.3837  1.7751
14380SOL     OW55612   2.772   4.138   2.060  0.3703  0.6871 -0.1490
14380SOL    HW155613   2.789   4.092   2.148  2.1554  1.1035 -0.2556
14380SOL    HW255614   2.773   4.070   1.987 -2.0683  0.1962  0.2134
14381SOL     OW55615   2.796   3.017   4.631  0.3783 -0.6944  0.4859
14381SOL    HW155616   2.858   2.944   4.602  1.0678  0.5773 -1.2601
14381SOL    HW255617   2.788   3.085   4.559 -2.0789 -0.1971  1.2010
14382SOL     OW55618   8.022   7.131   7.443  0.1769  0.0896 -0.5590
14382SOL    HW155619   8.061   7.089   7.525 -0.0046 -0.0246 -0.5310
14382SOL    HW255620   8.040   7.229   7.444 -0.3965  0.1977 -0.0546
14383SOL     OW55621   4.209   1.670   6.340  0.3825 -0.0746 -0.2667
14383SOL    HW155622   4.170   1.583   6.308  0.7059 -0.4966  0.4760
14383SOL    HW255623   4.304   1.676   6.307  0.6045 -0.3525  0.3143
14384SOL     OW55624   2.352   3.047   5.592  0.5505 -0.3951  0.2757
14384SOL    HW155625   2.281   3.115   5.575  0.3116 -0.5167  0.7619
14384SOL    HW255626   2.431   3.091   5.636  0.7384 -0.2767 -0.1808
14385SOL     OW55627   0.518   3.978   8.386 -0.1628 -0.0571 -0.1565
14385SOL    HW155628   0.487   4.069   8.414 -2.4678 -1.1562  1.0398
14385SOL    HW255629   0.557   3.930   8.464  1.2794 -0.0184 -0.8438
14386SOL     OW55630   6.210   6.402   2.670  0.3945  0.5242 -0.1468
14386SOL    HW155631   6.185   6.305   2.667  1.9867  0.0974 -0.3180
14386SOL    HW255632   6.234   6.427   2.763 -2.6076  1.4681  0.4228
14387SOL     OW55633   6.919   3.946   7.590  0.0312 -0.5094 -0.1239
14387SOL    HW155634   6.980   4.018   7.623 -0.4324 -0.1634 -0.0152
14387SOL    HW255635   6.841   3.938   7.652 -0.8338  0.1311 -1.1207
14388SOL     OW55636   1.704   8.415   0.401  0.4024  0.2649 -0.4822
14388SOL    HW155637   1.710   8.357   0.482  2.8107  2.0995  0.7033
14388SOL    HW255638   1.775   8.388   0.336 -0.4501 -0.0978 -1.2804
14389SOL     OW55639   4.052   8.900   6.156  0.1122  0.1847  0.0833
14389SOL    HW155640   4.097   8.811   6.157 -0.2941 -0.0248  0.7968
14389SOL    HW255641   4.116   8.971   6.125  0.8566 -0.1407  0.8657
14390SOL     OW55642   4.163   2.575   7.998 -0.2209  0.1347  0.1687
14390SOL    HW155643   4.092   2.628   7.951 -1.3716 -0.8157  0.7927
14390SOL    HW255644   4.120   2.500   8.048  1.2911 -0.7485  0.1586
14391SOL     OW55645   2.858   0.850   7.054 -0.3833 -0.4334  0.5892
14391SOL    HW155646   2.891   0.861   6.960  4.1035  1.2215  2.2394
14391SOL    HW255647   2.795   0.925   7.075 -0.8971 -0.4307 -0.8721
14392SOL     OW55648   8.972   3.940   5.616  0.5914 -0.3238  0.7052
14392SOL    HW155649   9.007   3.993   5.538  0.0074 -0.8121  0.1007
14392SOL    HW255650   9.034   3.863   5.634  1.1648  0.2601  1.2537
14393SOL     OW55651   8.722   5.482   7.003  0.4254 -0.5205 -0.1059
14393SOL    HW155652   8.710   5.438   7.093  0.7031  1.1404  0.7668
14393SOL    HW255653   8.815   5.519   6.997 -0.5561  2.1282  0.2035
14394SOL     OW55654   1.652   7.697   0.511  0.2398 -0.0859  0.6725
14394SOL    HW155655   1.612   7.615   0.553 -0.4334  0.6216  1.4114
14394SOL    HW255656   1.600   7.778   0.539 -0.8586  0.2941 -2.3378
14395SOL     OW55657   7.748   1.087   0.282 -0.1209 -0.4784  0.4235
14395SOL    HW155658   7.699   1.113   0.366  0.3884 -1.2450  0.9667
14395SOL    HW255659   7.685   1.089   0.205 -1.3494 -2.6530  1.3026
14396SOL     OW55660   3.200   5.395   1.805 -0.4626 -0.4360 -0.1654
14396SOL    HW155661   3.247   5.371   1.890 -0.6940 -0.1675  0.0389
14396SOL    HW255662   3.191   5.494   1.799  0.6356 -0.3842 -1.0873
14397SOL     OW55663   5.690   1.337   0.731  0.1175  0.5845  0.6897
14397SOL    HW155664   5.778   1.299   0.703  0.7468  2.0959  0.5756
14397SOL    HW255665   5.695   1.369   0.826 -1.1226 -1.7732  1.5958
14398SOL     OW55666   1.467   6.742   8.921  0.2673 -0.1256 -0.6337
14398SOL    HW155667   1.486   6.774   9.014  2.3826 -1.3736 -0.6050
14398SOL    HW255668   1.383   6.688   8.921  0.2951 -0.1898  0.5734
14399SOL     OW55669   2.770   0.121   2.150 -0.2852 -0.2127 -0.5939
14399SOL    HW155670   2.736   0.032   2.180 -1.4570 -0.6312 -3.0054
14399SOL    HW255671   2.811   0.111   2.059 -2.1884  2.0413 -1.7590
14400SOL     OW55672   8.455   0.537   5.395  0.0529 -0.1594  0.1867
14400SOL    HW155673   8.539   0.514   5.346 -0.0497  1.0690 -0.5865
14400SOL    HW255674   8.450   0.485   5.480  0.8209 -1.4111 -0.5367
14401SOL     OW55675   8.818   2.106   7.616 -0.7727  0.3565 -0.5794
14401SOL    HW155676   8.817   2.201   7.648 -2.1515  0.2983 -0.4204
14401SOL    HW255677   8.856   2.047   7.688 -0.6392  0.6814 -0.3821
14402SOL     OW55678   6.840   3.375   3.324 -0.1351  0.2025  0.3269
14402SOL    HW155679   6.802   3.463   3.353 -0.0323 -0.2636  1.9759
14402SOL    HW255680   6.915   3.350   3.385 -0.0302 -0.9233 -0.2567
14403SOL     OW55681   6.434   6.581   5.312 -0.1680 -0.2466  0.8089
14403SOL    HW155682   6.360   6.514   5.316  0.3890 -0.9206 -0.3324
14403SOL    HW255683   6.470   6.595   5.404 -1.4607 -0.1865  1.3257
14404SOL     OW55684   2.723   1.079   5.004  0.2550 -0.3773  0.3121
14404SOL    HW155685   2.787   1.097   5.078  0.4775 -1.4273  0.3786
14404SOL    HW255686   2.765   1.019   4.936 -0.4417 -0.5721  0.0445
14405SOL     OW55687   5.971   3.456   2.718  0.2056  0.2660  0.2308
14405SOL    HW155688   5.898   3.522   2.734 -0.2389 -0.4378  1.1799
14405SOL    HW255689   5.978   3.437   2.620 -2.6251 -1.5798  0.3089
14406SOL     OW55690   1.474   4.627   8.358 -0.0333 -0.0078  0.3306
14406SOL    HW155691   1.414   4.674   8.294 -0.3135  0.5763  1.0107
14406SOL    HW255692   1.570   4.645   8.333 -0.1405 -0.6650 -0.5507
14407SOL     OW55693   1.224   8.038   2.545 -0.8483 -0.1799 -0.1165
14407SOL    HW155694   1.208   7.945   2.514 -0.0702  0.1577 -1.5962
14407SOL    HW255695   1.319   8.046   2.578 -0.2154  0.6042 -2.0489
14408SOL     OW55696   5.890   3.428   6.035 -0.0041  0.3303 -0.5546
14408SOL    HW155697   5.803   3.464   6.001 -0.3166  0.6518  0.5559
14408SOL    HW255698   5.887   3.328   6.032  0.0910  0.3588 -1.7474
14409SOL     OW55699   8.525   0.590   1.585 -0.2980  0.0820  0.8310
14409SOL    HW155700   8.618   0.573   1.618  0.1333 -0.4880 -0.6355
14409SOL    HW255701   8.462   0.592   1.662  0.8173 -0.3616  1.7649
14410SOL     OW55702   3.707   1.281   5.752 -0.1590  0.0929 -0.9333
14410SOL    HW155703   3.622   1.297   5.701  0.0411 -0.5895 -1.4970
14410SOL    HW255704   3.745   1.192   5.726 -1.1598 -1.2473  1.9575
14411SOL     OW55705   2.851   6.565   1.220 -0.9350 -0.4787  0.4623
14411SOL    HW155706   2.781   6.504   1.257 -1.5017  0.5640  1.1647
14411SOL    HW255707   2.931   6.564   1.279 -0.5340 -1.3381 -0.0989
14412SOL     OW55708   6.077   0.744   1.591 -0.3290 -0.4960 -0.0418
14412SOL    HW155709   6.042   0.684   1.520  0.5548 -0.4397 -0.5201
14412SOL    HW255710   6.040   0.715   1.680 -1.3524 -0.6199 -0.4978
14413SOL     OW55711   8.932   2.658   6.391 -0.0932  0.2135  0.0776
14413SOL    HW155712   8.987   2.718   6.332  0.0171  0.3830  0.3538
14413SOL    HW255713   8.838   2.655   6.357 -0.0681  0.4376 -0.0119
14414SOL     OW55714   8.978   8.977   0.993 -0.0234 -0.1864  0.1385
14414SOL    HW155715   8.968   8.953   0.897 -1.2217 -1.8606  0.6496
14414SOL    HW255716   9.011   9.071   1.001 -0.4014  0.1385 -1.8846
14415SOL     OW55717   4.638   5.529   8.437 -0.1346 -0.0146 -0.1897
14415SOL    HW155718   4.685   5.467   8.374 -0.4611  0.2512 -0.6915
14415SOL    HW255719   4.706   5.583   8.488  0.1599 -0.9441  0.4193
14416SOL     OW55720   0.205   3.613   3.631 -0.0260  0.2605  0.2838
14416SOL    HW155721   0.149   3.558   3.693 -1.5734  0.0557 -1.2432
14416SOL    HW255722   0.155   3.696   3.605  1.8777  1.9292  1.7786
14417SOL     OW55723   6.902   7.296   5.638 -0.0530  0.2593 -0.5163
14417SOL    HW155724   6.837   7.372   5.632 -0.5591 -0.2599 -1.8971
14417SOL    HW255725   6.908   7.264   5.733 -1.0980  0.9351 -0.2138
14418SOL     OW55726   1.909   3.177   0.817  0.0659  0.2917  0.4947
14418SOL    HW155727   2.001   3.139   0.809 -0.3521 -0.5382 -0.4962
14418SOL    HW255728   1.910   3.273   0.787  0.3320 -0.1449 -0.9507
14419SOL     OW55729   4.956   7.251   5.224  0.2354 -0.2791 -0.5180
14419SOL    HW155730   4.963   7.342   5.265  1.3271 -0.0467 -1.2022
14419SOL    HW255731   5.012   7.187   5.274  1.7471  0.0536 -1.7525
14420SOL     OW55732   1.235   6.991   8.333 -0.0351  0.2568  0.5678
14420SOL    HW155733   1.194   7.011   8.244 -0.7369  0.5464  0.9521
14420SOL    HW255734   1.204   6.901   8.365 -0.1092  0.3300  0.7039
14421SOL     OW55735   5.028   6.292   8.355  0.7644 -0.5443  0.1088
14421SOL    HW155736   5.011   6.390   8.342  0.7374 -0.3486  1.5600
14421SOL    HW255737   5.117   6.279   8.400  0.3935 -1.1450  0.6770
14422SOL     OW55738   6.394   8.596   2.446 -0.5146  0.5687 -0.5508
14422SOL    HW155739   6.351   8.684   2.427 -2.1054 -0.1930 -0.5040
14422SOL    HW255740   6.329   8.536   2.490  0.7126 -0.4875 -0.1526
14423SOL     OW55741   3.642   7.508   8.500  0.2312 -0.0187 -0.1417
14423SOL    HW155742   3.735   7.532   8.473  0.2824 -0.8292 -0.7160
14423SOL    HW255743   3.577   7.563   8.448  0.3643 -0.4260 -0.7400
14424SOL     OW55744   4.859   7.293   8.690 -0.0439 -0.1436  0.1908
14424SOL    HW155745   4.931   7.271   8.757  0.8876  2.9082  0.2580
14424SOL    HW255746   4.782   7.337   8.737 -0.2121  0.2648 -0.4678
14425SOL     OW55747   5.618   0.114   2.002 -0.0136  0.8819 -0.1055
14425SOL    HW155748   5.558   0.159   1.936  1.1632  1.6482 -0.6769
14425SOL    HW255749   5.702   0.166   2.011  1.0686 -0.8013 -0.1989
14426SOL     OW55750   2.769   8.820   3.433 -0.1278 -0.0315 -0.8926
14426SOL    HW155751   2.699   8.880   3.473 -0.7697 -0.5179 -1.2741
14426SOL    HW255752   2.725   8.756   3.370  0.7229 -0.0579 -1.4613
14427SOL     OW55753   0.325   5.441   5.400  0.0456 -0.3959 -0.6083
14427SOL    HW155754   0.397   5.440   5.331  0.5409 -0.9291 -0.0892
14427SOL    HW255755   0.311   5.348   5.435  0.6188  0.0559  0.8603
14428SOL     OW55756   8.496   7.317   1.794  0.2180 -0.0776 -1.0232
14428SOL    HW155757   8.411   7.318   1.848 -0.0987 -0.5184 -1.5089
14428SOL    HW255758   8.557   7.389   1.827 -0.2789  0.1383 -0.5626
14429SOL     OW55759   3.110   0.388   0.793  0.1167 -1.2128  0.3431
14429SOL    HW155760   3.107   0.359   0.698 -0.4948 -1.6790  0.5027
14429SOL    HW255761   3.178   0.335   0.843 -0.6849 -2.0744  0.5307
14430SOL     OW55762   4.535   5.341   8.608  0.1648  0.1296  0.0438
14430SOL    HW155763   4.436   5.331   8.615 -0.0349 -2.1177 -4.3168
14430SOL    HW255764   4.556   5.421   8.552  0.8384  0.3554  0.6104
14431SOL     OW55765   8.973   4.565   7.291  0.1265  0.1633 -0.3376
14431SOL    HW155766   8.918   4.641   7.324  0.5024 -0.3193  1.4142
14431SOL    HW255767   9.009   4.513   7.368 -0.9775 -2.4346 -1.4887
14432SOL     OW55768   1.245   7.184   7.967  0.1529 -0.0150  0.4739
14432SOL    HW155769   1.181   7.215   7.898 -0.1245 -0.5296  0.5026
14432SOL    HW255770   1.244   7.084   7.972  0.0624  0.0246  1.3217
14433SOL     OW55771   8.932   1.112   0.822 -0.6813 -0.0824 -0.7637
14433SOL    HW155772   9.022   1.124   0.864 -1.5646 -0.4370  1.2670
14433SOL    HW255773   8.941   1.120   0.723  1.4491  0.7616 -0.5403
14434SOL     OW55774   3.443   2.584   3.613 -0.1622  0.2001  0.5940
14434SOL    HW155775   3.398   2.589   3.524 -2.1354 -0.4569  1.5531
14434SOL    HW255776   3.409   2.657   3.672  0.6742  0.2376  1.0455
14435SOL     OW55777   4.808   6.503   4.551  0.3147  0.6059  0.0046
14435SOL    HW155778   4.765   6.416   4.526  0.5216 -0.0202  1.7386
14435SOL    HW255779   4.744   6.558   4.605  0.9607  0.5512  0.8377
14436SOL     OW55780   3.133   7.132   0.979 -0.2618 -0.0725  0.4679
14436SOL    HW155781   3.111   7.229   0.969 -2.3418 -0.4976  0.7460
14436SOL    HW255782   3.193   7.103   0.904  0.6875  1.4973  0.6030
14437SOL     OW55783   2.832   4.532   6.318  0.1172 -0.0159 -0.1726
14437SOL    HW155784   2.881   4.538   6.231  0.1877 -0.2427 -0.1474
14437SOL    HW255785   2.772   4.612   6.328 -0.9947 -0.7266 -1.0942
14438SOL     OW55786   5.795   3.178   1.635 -0.4383  0.2713 -0.3644
14438SOL    HW155787   5.720   3.228   1.592 -0.0875  0.5474 -0.6606
14438SOL    HW255788   5.880   3.230   1.625  0.0337 -0.6419 -1.1575
14439SOL     OW55789   3.058   3.850   7.410  0.3770  0.0697  0.0089
14439SOL    HW155790   3.005   3.869   7.327 -1.2417  0.2684  1.0799
14439SOL    HW255791   3.022   3.769   7.456  1.6937 -0.4361  0.1863
14440SOL     OW55792   0.493   0.552   2.684 -0.5331 -0.3822  0.0699
14440SOL    HW155793   0.401   0.520   2.660 -0.5898 -0.0712 -0.1382
14440SOL    HW255794   0.552   0.547   2.604 -1.5939  3.7562 -1.1000
14441SOL     OW55795   7.173   5.659   0.750 -0.0582  0.2333 -0.6244
14441SOL    HW155796   7.258   5.702   0.781  0.1020 -0.9195  0.5566
14441SOL    HW255797   7.107   5.731   0.726  0.8104  1.1321 -0.3694
14442SOL     OW55798   8.576   3.402   3.556 -0.5675 -0.1602  0.4855
14442SOL    HW155799   8.663   3.419   3.508 -0.5949 -2.9809 -0.6891
14442SOL    HW255800   8.504   3.456   3.514 -0.1035 -0.7216 -1.0954
14443SOL     OW55801   2.165   6.085   7.689  0.3053 -0.2772 -0.6822
14443SOL    HW155802   2.168   6.058   7.593 -0.4033 -2.0932 -0.2066
14443SOL    HW255803   2.189   6.007   7.747  1.1987  0.9190  0.6143
14444SOL     OW55804   0.916   5.952   5.768  0.0902  0.8779  0.6738
14444SOL    HW155805   0.833   6.006   5.758 -0.1640  0.3010 -0.3943
14444SOL    HW255806   0.904   5.863   5.723  1.5519  1.0911 -0.1832
14445SOL     OW55807   3.959   7.047   8.458  0.1081  0.3556 -0.1816
14445SOL    HW155808   3.938   7.107   8.536  0.3893 -0.3222  0.4187
14445SOL    HW255809   3.959   6.952   8.488 -0.6120  0.0298 -1.2012
14446SOL     OW55810   1.043   2.930   8.476  0.3311 -0.4704  0.2684
14446SOL    HW155811   1.061   2.833   8.490  1.1261 -0.4336 -0.4765
14446SOL    HW255812   1.044   2.977   8.565  1.3119 -0.9141  0.5049
14447SOL     OW55813   3.006   6.845   0.511 -0.1387  0.2544  0.2623
14447SOL    HW155814   3.032   6.890   0.596  0.7478 -1.3205  0.8427
14447SOL    HW255815   3.012   6.746   0.522  0.9394  0.0426 -1.9215
14448SOL     OW55816   6.541   8.992   1.199 -0.8904  0.0563 -0.3815
14448SOL    HW155817   6.602   8.933   1.146 -2.2549 -0.9865 -0.8242
14448SOL    HW255818   6.484   9.045   1.138 -0.2298  1.2526  0.0312
14449SOL     OW55819   5.699   4.235   8.630 -0.1525  0.1761 -0.2776
14449SOL    HW155820   5.637   4.179   8.576 -3.0648  2.1262  0.9221
14449SOL    HW255821   5.768   4.177   8.673 -2.3503 -2.3168 -0.0211
14450SOL     OW55822   1.103   5.672   3.879 -0.1575 -0.2155 -0.2516
14450SOL    HW155823   1.109   5.698   3.782 -0.2887 -0.5599 -0.3535
14450SOL    HW255824   1.017   5.623   3.894 -1.3123  1.9833  0.5429
14451SOL     OW55825   7.373   5.833   4.884 -0.2499  0.3822 -0.1360
14451SOL    HW155826   7.359   5.922   4.927 -0.7973 -0.6405  1.8390
14451SOL    HW255827   7.308   5.824   4.808 -2.0311  0.6243  1.3053
14452SOL     OW55828   1.128   1.775   7.943  0.0162 -0.6021  0.0112
14452SOL    HW155829   1.033   1.802   7.928  0.4637  1.2140  0.3045
14452SOL    HW255830   1.142   1.751   8.039 -0.3744 -1.8042 -0.2377
14453SOL     OW55831   5.458   6.277   2.805  0.5247 -0.5015 -0.4732
14453SOL    HW155832   5.455   6.272   2.905  1.2519 -1.8131 -0.5065
14453SOL    HW255833   5.472   6.372   2.777 -3.1575  0.4390  0.5679
14454SOL     OW55834   4.050   3.725   5.302  0.5361  0.4042  0.4912
14454SOL    HW155835   4.138   3.771   5.307  1.0143 -0.3673 -0.6081
14454SOL    HW255836   3.985   3.771   5.362  1.4887  1.4069  0.7756
14455SOL     OW55837   8.534   8.150   8.847 -0.2673  0.4699 -0.0627
14455SOL    HW155838   8.443   8.110   8.847 -0.1965  0.2959 -0.8315
14455SOL    HW255839   8.527   8.250   8.849 -0.4664  0.4491  0.2261
14456SOL     OW55840   6.416   4.895   8.185  0.1431 -0.3956 -0.1890
14456SOL    HW155841   6.498   4.952   8.192  1.3172 -1.8201 -1.9528
14456SOL    HW255842   6.343   4.934   8.242  1.7935  1.3043  0.8068
14457SOL     OW55843   4.248   7.692   2.876  0.6906 -0.3420 -0.3587
14457SOL    HW155844   4.302   7.629   2.932 -0.5144 -1.1485 -0.0822
14457SOL    HW255845   4.151   7.673   2.890  0.3557  0.4839 -1.5475
14458SOL     OW55846   3.423   1.145   1.945 -0.0934  0.1077 -0.1424
14458SOL    HW155847   3.362   1.140   1.866  0.4218 -0.2458 -0.5262
14458SOL    HW255848   3.495   1.213   1.928  1.3681 -1.5960 -0.9503
14459SOL     OW55849   8.565   7.826   0.725  0.0627 -0.8477  0.0420
14459SOL    HW155850   8.478   7.844   0.679 -0.0987 -0.0482  0.6454
14459SOL    HW255851   8.630   7.787   0.660 -0.3531 -0.2857 -0.7172
14460SOL     OW55852   4.988   8.079   8.144  0.0632  0.2577  0.2022
14460SOL    HW155853   5.034   8.028   8.216 -0.3756  0.3675  0.5618
14460SOL    HW255854   4.891   8.058   8.145 -0.5551  2.8527  1.8919
14461SOL     OW55855   1.661   8.282   7.466 -0.0043 -0.2239 -0.0354
14461SOL    HW155856   1.630   8.188   7.446 -0.1731 -0.0718 -0.5093
14461SOL    HW255857   1.581   8.341   7.479  0.1063 -0.3389  1.2218
14462SOL     OW55858   3.011   5.532   4.264  0.5352  0.4853 -0.0435
14462SOL    HW155859   3.063   5.562   4.344  0.8350  0.8585 -0.3772
14462SOL    HW255860   2.998   5.609   4.201  3.2455 -0.5512 -1.9651
14463SOL     OW55861   3.803   8.795   2.949  0.0396 -0.1862  0.1478
14463SOL    HW155862   3.880   8.821   2.890 -2.0276  2.1585 -1.5803
14463SOL    HW255863   3.785   8.869   3.014  0.5545 -1.6271  1.9856
14464SOL     OW55864   7.746   3.910   4.352 -0.0980 -0.6331  0.3671
14464SOL    HW155865   7.711   3.952   4.436  1.2084  0.3328  0.4437
14464SOL    HW255866   7.835   3.951   4.329  0.2499 -1.9452 -0.6654
14465SOL     OW55867   1.617   1.472   5.054  0.5000 -0.7429  0.2298
14465SOL    HW155868   1.716   1.463   5.058  0.7858  1.3296 -1.3332
14465SOL    HW255869   1.593   1.558   5.008 -2.0128 -1.0127  0.9501
14466SOL     OW55870   4.327   6.698   8.846  0.1572 -0.1541 -0.2474
14466SOL    HW155871   4.377   6.780   8.873 -2.4202  0.3906  3.1601
14466SOL    HW255872   4.297   6.707   8.751  1.0016  2.2832 -0.3034
14467SOL     OW55873   1.870   5.766   3.589 -0.6470  0.3433 -0.2880
14467SOL    HW155874   1.944   5.719   3.638 -1.0219 -0.5662 -0.5740
14467SOL    HW255875   1.904   5.800   3.502 -0.7175 -0.6435 -0.7088
14468SOL     OW55876   3.464   1.975   1.570 -0.1253  0.0232  0.2973
14468SOL    HW155877   3.508   1.988   1.481 -0.2331  1.5196  0.4529
14468SOL    HW255878   3.365   1.986   1.560 -0.0800  0.7875  0.7219
14469SOL     OW55879   0.119   8.261   1.600 -0.2986  0.2945  0.1479
14469SOL    HW155880   0.195   8.276   1.537 -0.8933 -0.8918 -0.8500
14469SOL    HW255881   0.067   8.346   1.609  0.2869  0.7060 -0.2774
14470SOL     OW55882   4.980   0.039   8.091  0.4905  0.0117  0.1534
14470SOL    HW155883   4.893   0.046   8.141  0.0807  3.0001 -0.9150
14470SOL    HW255884   5.047   0.099   8.133  1.0473  0.2429 -1.0649
14471SOL     OW55885   3.773   5.057   6.925 -0.2992 -0.3991  0.0853
14471SOL    HW155886   3.751   4.988   6.993 -1.0809 -0.8979 -0.6566
14471SOL    HW255887   3.690   5.111   6.905 -0.1348 -0.4052 -0.6275
14472SOL     OW55888   7.733   0.222   8.508  0.4075 -0.2049 -0.9477
14472SOL    HW155889   7.738   0.178   8.597 -0.6194  1.4013 -0.0628
14472SOL    HW255890   7.820   0.265   8.487 -0.0490  1.4337  0.3883
14473SOL     OW55891   7.702   0.845   7.140 -0.3470  0.1442  0.2031
14473SOL    HW155892   7.694   0.902   7.058 -2.9889 -0.7640 -0.2089
14473SOL    HW255893   7.659   0.892   7.217  2.6830  1.2876  1.3149
14474SOL     OW55894   3.218   8.754   8.097  0.3595  0.1702 -0.2642
14474SOL    HW155895   3.156   8.684   8.059  1.0765 -1.5222  1.6103
14474SOL    HW255896   3.262   8.803   8.022 -1.1016 -0.5407 -1.6194
14475SOL     OW55897   4.155   8.387   4.213 -0.3150 -0.0680  0.4279
14475SOL    HW155898   4.061   8.412   4.190  0.0582 -1.9016 -3.4622
14475SOL    HW255899   4.156   8.296   4.254 -0.1810 -0.2562  0.0041
14476SOL     OW55900   7.268   5.287   5.323 -0.2657  0.1325 -0.6225
14476SOL    HW155901   7.321   5.350   5.266  0.7444  0.9032  1.1098
14476SOL    HW255902   7.195   5.337   5.369 -0.6238 -0.3328 -0.6844
14477SOL     OW55903   5.145   6.040   5.856  0.2678 -0.5991 -0.1854
14477SOL    HW155904   5.098   6.035   5.944 -0.6714 -0.4910 -0.6725
14477SOL    HW255905   5.244   6.030   5.870  0.3282  1.4127  1.1138
14478SOL     OW55906   5.973   8.968   1.527 -0.4824  0.1701 -0.2959
14478SOL    HW155907   6.007   9.043   1.583  1.7409 -2.3084  1.8185
14478SOL    HW255908   5.875   8.980   1.511 -0.5458  2.5258  1.5198
14479SOL     OW55909   3.982   2.657   4.516 -0.0338  0.4376  0.4741
14479SOL    HW155910   3.954   2.676   4.611  0.8680 -0.5477  0.9444
14479SOL    HW255911   3.902   2.628   4.464 -0.0207 -2.0398  1.7310
14480SOL     OW55912   7.717   7.417   0.508  0.6196 -0.5217 -0.3984
14480SOL    HW155913   7.767   7.374   0.433  0.7412 -0.2252 -0.4856
14480SOL    HW255914   7.775   7.421   0.589 -0.1841 -2.7141  0.3320
14481SOL     OW55915   7.270   6.850   7.895 -0.1965  0.2528 -0.1806
14481SOL    HW155916   7.350   6.834   7.953  0.5213 -2.0502 -1.7767
14481SOL    HW255917   7.291   6.921   7.828  0.2269  0.2000 -0.1029
14482SOL     OW55918   7.469   0.815   1.679 -0.8573 -0.3698 -0.1159
14482SOL    HW155919   7.510   0.859   1.759 -3.9262  0.6199  0.9748
14482SOL    HW255920   7.416   0.883   1.627 -2.0689 -1.8285 -0.8305
14483SOL     OW55921   7.962   2.446   5.905 -0.0726 -0.0059  0.0905
14483SOL    HW155922   7.911   2.409   5.828  0.0180 -1.3635  0.6730
14483SOL    HW255923   7.914   2.425   5.990 -0.0817  1.3198  0.4203
14484SOL     OW55924   3.379   0.040   8.877  0.0676  0.6555  0.8504
14484SOL    HW155925   3.340  -0.023   8.810  0.4582  0.0241  1.2094
14484SOL    HW255926   3.445   0.101   8.832  1.0280 -0.3833  0.8200
14485SOL     OW55927   2.144   1.246   6.717  0.1725  0.6169  0.0723
14485SOL    HW155928   2.188   1.258   6.806 -1.4077  1.5604  0.7716
14485SOL    HW255929   2.200   1.289   6.646  1.5727 -0.3695  0.5652
14486SOL     OW55930   4.519   6.495   8.968 -0.2250 -0.1892 -0.4680
14486SOL    HW155931   4.476   6.578   9.001  1.6903  0.3753  0.7096
14486SOL    HW255932   4.538   6.504   8.870 -1.4806  0.0962 -0.6930
14487SOL     OW55933   2.225   1.559   7.684  0.8185  0.3592  0.0963
14487SOL    HW155934   2.199   1.654   7.699 -1.3040 -0.1022 -0.4693
14487SOL    HW255935   2.323   1.553   7.667  1.0319  2.3891  0.5268
14488SOL     OW55936   1.111   2.406   8.337  0.1666 -0.1035  0.8221
14488SOL    HW155937   1.054   2.429   8.258 -0.2385  1.2752  1.4988
14488SOL    HW255938   1.096   2.311   8.363 -0.8405 -0.1257  0.1750
14489SOL     OW55939   2.301   2.596   7.602  0.0887 -0.2523 -0.4285
14489SOL    HW155940   2.338   2.646   7.679  0.4029 -1.6349  0.3454
14489SOL    HW255941   2.342   2.505   7.598 -1.7736 -1.1194 -0.7043
14490SOL     OW55942   5.625   2.700   7.665 -0.4247  0.4647  0.1023
14490SOL    HW155943   5.619   2.625   7.599 -1.2728  0.4998  0.1427
14490SOL    HW255944   5.537   2.712   7.711  0.0010  0.8062  0.8438
14491SOL     OW55945   5.705   5.855   2.403  0.1380 -0.2363  0.1329
14491SOL    HW155946   5.622   5.823   2.357 -0.4395 -0.4648  1.3267
14491SOL    HW255947   5.750   5.778   2.448  0.9328 -0.0890 -0.4076
14492SOL     OW55948   7.014   2.290   0.474 -0.0809  0.3644 -0.1455
14492SOL    HW155949   6.988   2.373   0.524  0.0653  1.6865 -2.1918
14492SOL    HW255950   6.994   2.210   0.530 -0.0682  1.7732  1.9539
14493SOL     OW55951   1.265   6.607   0.519  0.8496 -0.2072  0.0221
14493SOL    HW155952   1.190   6.669   0.542 -0.0591 -0.7763 -1.3119
14493SOL    HW255953   1.290   6.620   0.423  1.3545 -1.1771  0.0108
14494SOL     OW55954   5.618   7.536   2.269  0.5216 -0.1099 -0.1120
14494SOL    HW155955   5.621   7.436   2.276 -0.1919 -0.1044  0.3360
14494SOL    HW255956   5.545   7.563   2.207  0.6299  0.1377 -0.1313
14495SOL     OW55957   1.457   7.628   5.411 -0.0470  0.4218  0.3801
14495SOL    HW155958   1.433   7.567   5.487 -2.9061 -0.7460 -1.3722
14495SOL    HW255959   1.529   7.587   5.356 -2.6409 -1.9722 -1.3697
14496SOL     OW55960   6.676   5.359   4.837  0.6146 -0.0850  0.8821
14496SOL    HW155961   6.697   5.278   4.893  1.7337  0.0327  0.6395
14496SOL    HW255962   6.754   5.380   4.779 -0.0990  0.5108  0.1274
14497SOL     OW55963   6.219   4.490   1.645  0.3631  0.9106  0.1945
14497SOL    HW155964   6.286   4.436   1.594 -0.7085 -2.0767  1.8207
14497SOL    HW255965   6.261   4.522   1.731  0.5772  1.5629 -0.1450
14498SOL     OW55966   6.096   3.260   1.631  0.0956  0.3962  0.2090
14498SOL    HW155967   6.182   3.218   1.602  0.2300  0.8032  0.0101
14498SOL    HW255968   6.100   3.282   1.728 -0.6570 -1.7152  0.7264
14499SOL     OW55969   1.619   1.053   8.705 -0.3094 -0.6448  0.4174
14499SOL    HW155970   1.672   0.970   8.689  0.2639 -0.7332  2.6961
14499SOL    HW255971   1.608   1.102   8.618 -0.7502 -3.1263 -0.9872
14500SOL     OW55972   0.524   5.997   1.822  0.5905  0.2622 -0.6820
14500SOL    HW155973   0.536   6.086   1.778  0.8409  0.0524 -1.0388
14500SOL    HW255974   0.582   5.929   1.777  1.0355  0.0995  0.1389
14501SOL     OW55975   1.593   0.489   0.405 -0.0485  0.7166 -0.0249
14501SOL    HW155976   1.641   0.434   0.337 -0.8771  0.9259 -0.7870
14501SOL    HW255977   1.586   0.584   0.373 -1.2062  0.6325 -0.0536
14502SOL     OW55978   0.088   7.505   6.034 -0.5529  0.0954  0.4523
14502SOL    HW155979   0.047   7.469   6.117 -0.6150  0.1325  0.4377
14502SOL    HW255980   0.166   7.448   6.008  0.3094  0.8821  1.2933
14503SOL     OW55981   0.524   4.261   7.640 -0.5681 -0.1358  0.3011
14503SOL    HW155982   0.427   4.258   7.619 -0.5592 -0.5383  0.3111
14503SOL    HW255983   0.568   4.333   7.586 -0.9586  0.3863  0.6781
14504SOL     OW55984   3.482   7.969   8.447  0.0986  0.7462 -0.1628
14504SOL    HW155985   3.547   7.969   8.522 -0.2926  1.3390  0.1791
14504SOL    HW255986   3.415   7.896   8.461 -0.2519  1.1620  0.3015
14505SOL     OW55987   8.548   3.992   7.005  0.0023  0.4472 -0.2081
14505SOL    HW155988   8.451   3.984   7.029 -0.1605  1.9373 -0.2864
14505SOL    HW255989   8.604   3.959   7.081 -0.5619  1.1193  0.5088
14506SOL     OW55990   7.833   5.317   2.986  0.2327 -0.3008  0.1087
14506SOL    HW155991   7.821   5.402   3.037  2.2648  0.9591 -1.4105
14506SOL    HW255992   7.753   5.300   2.929  1.2175  2.4319 -2.1514
14507SOL     OW55993   2.131   5.643   3.424 -0.2084 -0.3779  0.0363
14507SOL    HW155994   2.131   5.710   3.499 -0.9227  1.3723 -1.4749
14507SOL    HW255995   2.143   5.551   3.461 -3.0846  0.1714  2.5884
14508SOL     OW55996   3.483   3.379   3.118  0.7914 -0.5006 -0.4525
14508SOL    HW155997   3.580   3.368   3.094  0.6338  0.2183 -1.4392
14508SOL    HW255998   3.427   3.329   3.052  0.5608 -2.6994  1.3374
14509SOL     OW55999   5.436   3.753   1.151  0.9107  0.2351 -0.2535
14509SOL    HW156000   5.434   3.853   1.150 -0.6643  0.2376 -2.0996
14509SOL    HW256001   5.423   3.720   1.244 -0.9033  1.7688  0.0724
14510SOL     OW56002   6.891   7.894   5.711 -0.6292  0.4531 -0.3023
14510SOL    HW156003   6.801   7.861   5.740 -0.8363  2.5441  1.5900
14510SOL    HW256004   6.879   7.966   5.642 -0.3472 -0.0236 -0.8580
14511SOL     OW56005   0.684   4.117   1.865  0.1996 -0.0716  0.1999
14511SOL    HW156006   0.681   4.038   1.805  0.1541 -0.6334  0.9276
14511SOL    HW256007   0.606   4.113   1.928  1.3459 -0.5689  1.6266
14512SOL     OW56008   1.039   1.992   2.298 -0.5759  0.5392 -0.4534
14512SOL    HW156009   0.953   1.980   2.349 -1.2508  1.5536 -1.3308
14512SOL    HW256010   1.037   1.935   2.216  0.2400 -0.6045  0.3149
14513SOL     OW56011   2.207   6.781   2.576  0.1055  0.4061  0.8147
14513SOL    HW156012   2.137   6.828   2.521 -0.1015  0.0044  0.7308
14513SOL    HW256013   2.272   6.848   2.612  1.0795  0.5352 -1.1097
14514SOL     OW56014   3.564   3.463   4.478  0.7285 -1.0198 -0.1380
14514SOL    HW156015   3.565   3.524   4.398  0.0914  0.5474  1.0235
14514SOL    HW256016   3.601   3.511   4.557 -1.7054 -1.4141  1.2918
14515SOL     OW56017   2.530   1.639   2.125  0.2961  0.0777  0.1640
14515SOL    HW156018   2.465   1.563   2.114  1.3092 -0.9683  1.2300
14515SOL    HW256019   2.505   1.692   2.205 -1.3047  1.8061 -1.4402
14516SOL     OW56020   8.596   5.623   5.059  0.1076 -0.5059 -0.4921
14516SOL    HW156021   8.545   5.582   4.984  1.1807 -0.5045 -1.2256
14516SOL    HW256022   8.694   5.612   5.044  0.3354 -0.9494  1.1535
14517SOL     OW56023   4.982   6.264   3.522 -0.3723 -0.0573 -0.2408
14517SOL    HW156024   4.946   6.353   3.549 -2.1627 -0.5327 -1.0253
14517SOL    HW256025   4.978   6.254   3.423 -0.1019 -0.9735 -0.1691
14518SOL     OW56026   2.131   2.673   0.204  0.5285  0.2709 -0.2658
14518SOL    HW156027   2.222   2.712   0.216  1.2547 -1.2000 -0.8846
14518SOL    HW256028   2.124   2.630   0.113 -0.9492  0.8311 -0.4360
14519SOL     OW56029   3.567   5.656   7.016  0.3711  0.3561  0.1044
14519SOL    HW156030   3.478   5.697   7.036  0.9961  1.1319  1.3581
14519SOL    HW256031   3.589   5.588   7.086 -0.0309 -1.1489 -1.1970
14520SOL     OW56032   5.049   4.694   8.649  0.5375  0.2120 -0.3763
14520SOL    HW156033   5.000   4.712   8.734  0.3784 -1.2447 -0.1492
14520SOL    HW256034   4.987   4.706   8.572 -0.1020 -1.2365 -0.1119
14521SOL     OW56035   3.116   4.208   2.525  0.1360  0.2245 -0.1625
14521SOL    HW156036   3.150   4.287   2.473  0.5931 -1.2780 -2.2148
14521SOL    HW256037   3.099   4.235   2.619 -1.1341  3.1652 -1.1693
14522SOL     OW56038   4.561   4.445   5.660 -0.7394 -0.0111  0.0355
14522SOL    HW156039   4.483   4.505   5.641 -2.3295 -2.6282 -1.9817
14522SOL    HW256040   4.609   4.425   5.574  0.9599 -0.0531  0.9768
14523SOL     OW56041   3.819   3.255   2.388  0.3529 -0.2983  0.2783
14523SOL    HW156042   3.728   3.272   2.349  1.2260  0.0201 -1.6881
14523SOL    HW256043   3.878   3.333   2.369  0.9125 -0.2914  1.9876
14524SOL     OW56044   4.109   4.140   3.813 -0.3483  0.2029  0.0827
14524SOL    HW156045   4.194   4.116   3.766 -0.7037  0.3559 -0.6363
14524SOL    HW256046   4.074   4.226   3.777 -0.5053  0.4312  0.7825
14525SOL     OW56047   2.380   3.507   1.535 -0.0265  0.3775 -0.2840
14525SOL    HW156048   2.293   3.508   1.485  0.3743  2.1905 -0.9787
14525SOL    HW256049   2.397   3.415   1.569 -2.6624  0.1677  0.6212
14526SOL     OW56050   4.245   1.787   3.487  0.5965 -0.0238 -0.4087
14526SOL    HW156051   4.334   1.744   3.501 -0.0743 -0.5864  2.4670
14526SOL    HW256052   4.244   1.835   3.399  4.3799  1.6043  0.3722
14527SOL     OW56053   1.432   2.130   7.486 -0.1946  0.5127  0.0876
14527SOL    HW156054   1.441   2.039   7.525 -0.8593  0.5744  0.3872
14527SOL    HW256055   1.467   2.198   7.551  3.2014  0.2552 -1.3570
14528SOL     OW56056   0.856   1.810   1.274  0.1501  0.1036  0.3284
14528SOL    HW156057   0.850   1.711   1.283  2.0692  0.1798  2.8335
14528SOL    HW256058   0.951   1.839   1.280 -0.3751  2.1023 -0.5588
14529SOL     OW56059   1.663   7.674   0.230 -0.1713  0.5559  0.0305
14529SOL    HW156060   1.680   7.665   0.328 -0.7517  3.2098  0.4122
14529SOL    HW256061   1.576   7.722   0.216 -0.4792 -0.4823 -1.7997
14530SOL     OW56062   6.574   1.928   8.532  0.0458 -0.1538  0.4237
14530SOL    HW156063   6.617   1.979   8.607 -2.9041 -0.2421  2.2750
14530SOL    HW256064   6.587   1.830   8.548  2.0042 -0.1180 -0.8279
14531SOL     OW56065   1.548   1.457   1.596 -0.2027  0.1190 -0.9234
14531SOL    HW156066   1.588   1.474   1.687 -1.5001  0.6440 -0.4374
14531SOL    HW256067   1.512   1.543   1.559 -1.1552 -0.3949 -1.2097
14532SOL     OW56068   3.158   2.944   0.564  0.1791  0.5824  0.0403
14532SOL    HW156069   3.242   2.889   0.562  0.2100  0.5925  1.0316
14532SOL    HW256070   3.110   2.927   0.649 -0.4207  1.2006 -0.1782
14533SOL     OW56071   2.573   8.196   8.341  0.1004 -0.3679 -0.2492
14533SOL    HW156072   2.603   8.289   8.318  2.6591 -0.9867  0.4302
14533SOL    HW256073   2.563   8.188   8.440 -1.3334 -0.4639 -0.4045
14534SOL     OW56074   6.619   6.422   1.848  0.1436  0.5359  0.4180
14534SOL    HW156075   6.577   6.451   1.762  1.5783  0.9243 -0.1678
14534SOL    HW256076   6.709   6.465   1.857  0.5924 -0.6005  1.4503
14535SOL     OW56077   3.434   6.430   5.998 -0.2150 -0.3281 -0.3216
14535SOL    HW156078   3.526   6.418   6.034 -0.1939 -2.7489 -1.0838
14535SOL    HW256079   3.367   6.418   6.071  0.0543  1.6856  0.2845
14536SOL     OW56080   3.885   7.257   4.751  0.2075 -0.4858 -0.5863
14536SOL    HW156081   3.840   7.184   4.699 -1.6985  0.0964  0.1962
14536SOL    HW256082   3.874   7.240   4.848  0.7008  0.2846 -0.3916
14537SOL     OW56083   2.369   5.357   8.728 -0.6925 -0.4894  0.3011
14537SOL    HW156084   2.289   5.357   8.789 -0.2518  0.7662  0.8862
14537SOL    HW256085   2.451   5.379   8.781  0.1476 -2.3942 -0.1823
14538SOL     OW56086   2.061   4.524   1.475  0.2078 -0.0684  0.3123
14538SOL    HW156087   2.087   4.449   1.414 -0.3273 -0.5957  0.7303
14538SOL    HW256088   1.969   4.507   1.512 -1.0253  2.0948 -1.6509
14539SOL     OW56089   0.719   5.136   6.348 -0.1053  0.7238  0.8168
14539SOL    HW156090   0.690   5.228   6.373 -0.4458  0.3229  1.9409
14539SOL    HW256091   0.643   5.072   6.358 -0.1849  0.4957 -1.0584
14540SOL     OW56092   1.745   8.875   4.210  0.3691 -0.0899  0.0765
14540SOL    HW156093   1.832   8.835   4.178 -0.2823 -0.3567 -1.3966
14540SOL    HW256094   1.721   8.834   4.298  0.1480 -2.3513 -0.9963
14541SOL     OW56095   5.327   6.652   0.309 -0.1367 -0.0553  0.0306
14541SOL    HW156096   5.362   6.621   0.398  1.7656  1.6424 -0.0854
14541SOL    HW256097   5.389   6.720   0.271 -0.2845 -1.6187 -3.1809
14542SOL     OW56098   6.380   5.639   8.237  0.5739 -0.2393 -0.3535
14542SOL    HW156099   6.381   5.566   8.306  0.7807 -0.1434 -0.2539
14542SOL    HW256100   6.450   5.621   8.168 -0.9859 -1.4185 -1.6819
14543SOL     OW56101   0.145   8.043   1.746  0.0918  0.5086 -0.1542
14543SOL    HW156102   0.244   8.035   1.736  0.3636  2.5495  0.8221
14543SOL    HW256103   0.111   8.118   1.689 -0.5752  1.2978  1.2535
14544SOL     OW56104   0.151   2.892   7.059 -0.3026  0.3794 -0.0893
14544SOL    HW156105   0.096   2.809   7.068  2.6608 -1.5931  0.5653
14544SOL    HW256106   0.189   2.897   6.967 -1.4849  1.6784 -0.5104
14545SOL     OW56107   7.444   1.810   1.181 -0.0636  0.0454 -0.4425
14545SOL    HW156108   7.471   1.816   1.085 -0.1151 -1.0152 -0.5297
14545SOL    HW256109   7.497   1.876   1.235 -0.6611  1.2629 -1.3290
14546SOL     OW56110   5.776   8.023   6.286 -0.5594 -0.2193  0.5893
14546SOL    HW156111   5.845   8.069   6.229 -0.0736  0.2847  1.5739
14546SOL    HW256112   5.728   7.955   6.231  0.7261 -0.5734 -0.1152
14547SOL     OW56113   0.769   3.519   5.108 -0.2587  0.0629  0.4184
14547SOL    HW156114   0.742   3.598   5.053  1.3717  0.5403  0.2640
14547SOL    HW256115   0.776   3.546   5.205  2.4575  0.7296  0.0895
14548SOL     OW56116   3.335   7.448   3.859  0.4148 -0.1788 -0.5543
14548SOL    HW156117   3.278   7.403   3.927 -0.7885  0.2436 -1.2708
14548SOL    HW256118   3.407   7.386   3.829  0.3029 -0.7309  0.3215
14549SOL     OW56119   3.400   3.114   8.692  0.2034 -0.2236  0.3030
14549SOL    HW156120   3.338   3.037   8.698  0.3715 -0.6243 -2.6245
14549SOL    HW256121   3.355   3.190   8.645  0.1491  1.4037  2.8562
14550SOL     OW56122   5.140   8.984   4.527  0.1527  0.1974  0.1388
14550SOL    HW156123   5.173   9.079   4.522  0.3597  0.1576  0.7446
14550SOL    HW256124   5.061   8.973   4.467  1.0791  0.3613 -1.1195
14551SOL     OW56125   3.241   7.782   8.472  0.4777 -0.2743  0.2615
14551SOL    HW156126   3.186   7.744   8.546 -1.9068  0.3126 -1.1559
14551SOL    HW256127   3.188   7.852   8.424  1.7347 -1.0556 -2.3473
14552SOL     OW56128   8.641   4.593   7.980  0.2605  0.1162  1.1772
14552SOL    HW156129   8.716   4.630   8.036 -1.4424  0.9759  2.9366
14552SOL    HW256130   8.581   4.668   7.952  0.5309 -0.4435 -1.0016
14553SOL     OW56131   7.574   8.536   4.167  0.3795 -0.3484 -0.5855
14553SOL    HW156132   7.660   8.546   4.219  0.1083 -0.1340 -0.1735
14553SOL    HW256133   7.577   8.451   4.115  0.9650 -0.2012 -0.7999
14554SOL     OW56134   1.430   6.664   7.044 -0.0510 -0.5207 -0.2731
14554SOL    HW156135   1.431   6.578   6.994  0.7049  0.5651 -2.1966
14554SOL    HW256136   1.520   6.708   7.036 -0.5277  0.6018  0.3959
14555SOL     OW56137   6.708   2.529   1.858  0.0963 -0.0317  0.3049
14555SOL    HW156138   6.637   2.477   1.906 -2.0675  0.9078 -1.8145
14555SOL    HW256139   6.795   2.518   1.907 -1.6392 -0.5316  3.4134
14556SOL     OW56140   0.733   7.635   3.569 -0.1443 -0.5486 -0.6127
14556SOL    HW156141   0.643   7.653   3.529 -0.6585  0.4787  0.9672
14556SOL    HW256142   0.797   7.611   3.496 -0.8949  1.9292 -2.1544
14557SOL     OW56143   2.335   3.661   7.716  0.1659  0.2542  0.6790
14557SOL    HW156144   2.292   3.608   7.790 -2.3254  1.3603  0.0886
14557SOL    HW256145   2.393   3.732   7.755 -0.7847  0.5475  1.5822
14558SOL     OW56146   2.739   8.344   3.955 -0.4707 -0.8941 -0.5527
14558SOL    HW156147   2.746   8.256   4.002  0.4933 -2.3699 -3.3016
14558SOL    HW256148   2.644   8.374   3.953 -0.6465 -1.2561  1.4280
14559SOL     OW56149   3.573   3.092   7.359 -0.7604  0.3470  0.4426
14559SOL    HW156150   3.527   3.070   7.273 -0.6997 -0.2328  0.5532
14559SOL    HW256151   3.669   3.112   7.341 -0.1291 -2.3220  0.6644
14560SOL     OW56152   6.225   7.558   5.919 -0.1888  0.2741  0.0517
14560SOL    HW156153   6.220   7.467   5.878  1.8846  0.4286 -0.5906
14560SOL    HW256154   6.151   7.615   5.884 -0.3780 -0.5950 -0.9847
14561SOL     OW56155   3.945   1.329   5.929 -0.2511 -0.2753  0.9314
14561SOL    HW156156   3.871   1.273   5.891 -0.4259  0.7981 -0.3382
14561SOL    HW256157   4.018   1.269   5.961 -1.2671 -1.3107  1.3739
14562SOL     OW56158   5.745   3.984   0.084 -0.1795 -0.1013  0.0721
14562SOL    HW156159   5.719   4.074   0.121 -1.1883 -1.0612  1.7835
14562SOL    HW256160   5.841   3.986   0.057  0.1996  1.0942  1.3963
14563SOL     OW56161   6.700   0.459   0.136 -0.6790  0.2787  0.0559
14563SOL    HW156162   6.628   0.430   0.074 -0.3914  0.6080 -0.4303
14563SOL    HW256163   6.702   0.559   0.141  1.6830  0.3828 -2.2429
14564SOL     OW56164   5.757   4.515   5.880  0.4507 -0.2662  0.8329
14564SOL    HW156165   5.657   4.517   5.874  0.5675  0.0500 -1.6139
14564SOL    HW256166   5.787   4.580   5.951 -0.9594  2.0422 -0.6123
14565SOL     OW56167   2.627   2.272   6.135 -0.2557  0.3889 -0.2904
14565SOL    HW156168   2.569   2.191   6.141 -0.8216  0.8861  1.3689
14565SOL    HW256169   2.580   2.349   6.178  0.7095  1.3492 -0.9295
14566SOL     OW56170   3.013   5.273   1.643  0.2569 -0.5422  0.3460
14566SOL    HW156171   3.094   5.292   1.699 -0.5323 -1.2070  1.7324
14566SOL    HW256172   2.931   5.291   1.696 -0.5437  0.9984 -1.3449
14567SOL     OW56173   1.984   5.371   3.415  0.5792  0.3138  0.4258
14567SOL    HW156174   2.061   5.368   3.479 -0.5876 -0.3675  1.8434
14567SOL    HW256175   1.992   5.296   3.349  1.4042  0.5648  0.2413
14568SOL     OW56176   2.818   8.154   2.875  0.9051  0.3002  0.0887
14568SOL    HW156177   2.860   8.077   2.828 -1.4162 -0.7058 -0.3910
14568SOL    HW256178   2.786   8.221   2.808  0.1445  0.2148  0.3601
14569SOL     OW56179   0.484   4.339   3.753 -0.2593  0.2300  0.0019
14569SOL    HW156180   0.538   4.405   3.806 -0.5307 -0.0282  0.6013
14569SOL    HW256181   0.484   4.251   3.800  1.5058 -0.6859 -1.6431
14570SOL     OW56182   5.759   3.838   3.319 -0.0337  0.3713  0.1446
14570SOL    HW156183   5.807   3.856   3.405  0.7215  0.1456 -0.2323
14570SOL    HW256184   5.715   3.922   3.287 -0.0949  0.5194  0.6087
14571SOL     OW56185   4.331   2.715   0.477  0.3793  0.3255 -0.3429
14571SOL    HW156186   4.252   2.654   0.470  1.8403 -1.5152 -1.2621
14571SOL    HW256187   4.324   2.787   0.408  0.9756 -1.5900 -2.4560
14572SOL     OW56188   3.948   2.932   6.571 -0.5044 -0.5801 -0.5821
14572SOL    HW156189   3.984   2.974   6.487  0.4593 -1.5152 -0.6421
14572SOL    HW256190   3.852   2.908   6.558 -1.0546  1.4785 -0.5946
14573SOL     OW56191   4.680   7.852   3.698  0.4827  0.2452 -0.5621
14573SOL    HW156192   4.651   7.851   3.793  1.3591  0.7248 -0.2921
14573SOL    HW256193   4.755   7.788   3.684  0.6139  0.4556 -0.8451
14574SOL     OW56194   8.884   6.474   6.072 -0.1855  0.3353 -0.3162
14574SOL    HW156195   8.969   6.463   6.123  0.0480  1.2613 -0.4953
14574SOL    HW256196   8.810   6.427   6.121 -0.0904  1.7264  1.2222
14575SOL     OW56197   5.411   5.630   4.508 -0.7298 -0.1313  0.0105
14575SOL    HW156198   5.495   5.580   4.489 -1.0922 -0.4037 -0.8825
14575SOL    HW256199   5.434   5.723   4.536 -0.1681  0.2528 -1.6512
14576SOL     OW56200   8.497   6.833   5.341 -0.4628 -1.0802 -0.0841
14576SOL    HW156201   8.402   6.809   5.319 -0.3321  0.3675 -2.4171
14576SOL    HW256202   8.534   6.891   5.268  1.5933 -0.0008  1.7750
14577SOL     OW56203   5.008   5.242   2.361 -0.4026 -0.5791 -0.2319
14577SOL    HW156204   5.076   5.232   2.288 -0.7454 -0.3717 -0.5834
14577SOL    HW256205   4.972   5.335   2.361 -0.0817 -0.4517  0.4928
14578SOL     OW56206   1.672   8.691   0.372  0.0919 -0.2758  0.1255
14578SOL    HW156207   1.671   8.694   0.272 -1.6885 -0.8933  0.1086
14578SOL    HW256208   1.651   8.598   0.403  0.8779 -0.1505  1.0828
14579SOL     OW56209   6.233   8.732   2.020 -0.1720  0.0760 -0.1480
14579SOL    HW156210   6.253   8.740   1.922  2.1695 -0.7402  0.2363
14579SOL    HW256211   6.244   8.636   2.048 -0.1306  0.4357  1.0741
14580SOL     OW56212   4.509   5.811   0.186  0.0178 -0.0429 -0.4162
14580SOL    HW156213   4.530   5.739   0.252 -2.7934  0.0510  0.6529
14580SOL    HW256214   4.592   5.861   0.163  1.9207 -3.1769 -0.6824
14581SOL     OW56215   2.381   0.061   1.559  0.1488 -0.7074  0.1460
14581SOL    HW156216   2.329   0.119   1.496  2.0504  1.0819  0.1744
14581SOL    HW256217   2.446   0.006   1.507  1.3682  0.4007  0.4629
14582SOL     OW56218   3.028   4.965   0.067  0.0879 -0.3341  0.2541
14582SOL    HW156219   3.101   5.002   0.010 -0.0604 -0.9367 -0.3305
14582SOL    HW256220   2.999   4.876   0.031  1.8410 -1.9846  2.7647
14583SOL     OW56221   5.613   4.408   1.735  0.1968  0.0629 -0.4543
14583SOL    HW156222   5.659   4.496   1.737 -0.2776  0.3025  0.0297
14583SOL    HW256223   5.514   4.421   1.745  0.0130 -0.4404 -1.5424
14584SOL     OW56224   1.212   0.249   2.837 -0.3125  0.3002 -0.1611
14584SOL    HW156225   1.148   0.198   2.896 -0.4218  0.2368 -0.3345
14584SOL    HW256226   1.300   0.256   2.883  0.4576 -2.1984 -1.1715
14585SOL     OW56227   7.932   4.208   0.487  0.3954 -0.0151 -0.4879
14585SOL    HW156228   8.022   4.183   0.452  0.9785  0.1284  0.8928
14585SOL    HW256229   7.885   4.265   0.419  0.2668 -2.2677 -2.3415
14586SOL     OW56230   4.263   6.891   2.995  0.0085 -0.7638 -0.3752
14586SOL    HW156231   4.186   6.882   2.933 -0.8530  3.2566  0.0212
14586SOL    HW256232   4.349   6.887   2.944 -0.6007 -0.3073 -1.4258
14587SOL     OW56233   1.936   0.492   1.506 -0.3990  0.2863 -0.0183
14587SOL    HW156234   1.914   0.464   1.412 -2.9163 -0.6225  0.8116
14587SOL    HW256235   1.982   0.416   1.553 -2.2690 -0.5483  0.5231
14588SOL     OW56236   4.510   5.372   4.511  0.8184  0.5840  0.4790
14588SOL    HW156237   4.519   5.339   4.605 -1.0710 -1.0036  0.1380
14588SOL    HW256238   4.436   5.440   4.507 -1.5439 -1.9239 -0.4256
14589SOL     OW56239   4.615   2.969   8.190 -0.0783 -0.1248 -0.1112
14589SOL    HW156240   4.633   3.053   8.242 -2.2209  0.9388 -1.0082
14589SOL    HW256241   4.542   2.917   8.234 -0.2714 -0.4060 -0.7456
14590SOL     OW56242   7.477   1.439   7.566  0.3506  0.6232  0.1723
14590SOL    HW156243   7.396   1.382   7.563  0.5242  0.4165 -0.7344
14590SOL    HW256244   7.454   1.528   7.604 -0.5527  0.9604 -1.1300
14591SOL     OW56245   2.695   6.121   8.790 -0.1942  0.3148 -0.0243
14591SOL    HW156246   2.613   6.067   8.768 -0.2288 -0.6636  2.3727
14591SOL    HW256247   2.681   6.216   8.761 -1.0424 -0.4209 -2.1949
14592SOL     OW56248   2.992   8.833   3.566 -0.0585 -0.5202 -0.1733
14592SOL    HW156249   2.913   8.812   3.508  1.8363 -0.6405 -2.7651
14592SOL    HW256250   3.072   8.853   3.509  2.0391 -1.2490  2.4042
14593SOL     OW56251   5.084   5.571   8.702 -0.0250 -0.2922 -0.2080
14593SOL    HW156252   5.111   5.517   8.782  3.1034  1.2962 -0.1488
14593SOL    HW256253   5.032   5.513   8.640 -0.3209 -2.2399  1.7739
14594SOL     OW56254   7.876   8.913   7.383 -0.1472 -0.2390  0.6125
14594SOL    HW156255   7.910   8.891   7.474 -0.6095  1.1737  1.1349
14594SOL    HW256256   7.843   9.007   7.381 -1.7691 -0.8019 -0.5341
14595SOL     OW56257   0.478   8.002   2.953 -0.3021  1.1138 -0.0139
14595SOL    HW156258   0.469   7.965   3.046  1.2518  1.1392  0.1748
14595SOL    HW256259   0.428   7.944   2.889  1.5898 -1.0258  0.3512
14596SOL     OW56260   1.726   2.267   1.909 -0.1109 -0.0383 -0.2497
14596SOL    HW156261   1.678   2.354   1.901  0.2919  0.2147  0.0663
14596SOL    HW256262   1.723   2.236   2.004  2.6318  1.3007  0.3330
14597SOL     OW56263   2.824   7.197   7.916  0.0676 -0.1439  0.3671
14597SOL    HW156264   2.874   7.168   7.834  0.8213  1.4024  0.2722
14597SOL    HW256265   2.791   7.116   7.965 -1.4082 -1.0740 -2.0802
14598SOL     OW56266   1.170   8.497   3.170  0.6277 -0.1018  0.0212
14598SOL    HW156267   1.243   8.522   3.234  0.4805  4.0159 -1.2562
14598SOL    HW256268   1.209   8.477   3.081  0.2731  2.3471 -0.7291
14599SOL     OW56269   3.630   8.198   0.767 -0.2158 -0.4432 -0.5712
14599SOL    HW156270   3.594   8.106   0.780 -0.2343 -0.4249 -0.4930
14599SOL    HW256271   3.601   8.256   0.844  3.1122 -1.3752  1.4999
14600SOL     OW56272   0.475   4.181   8.140 -0.2995 -0.3446 -0.0007
14600SOL    HW156273   0.487   4.127   8.057 -1.0775  0.7845 -0.8680
14600SOL    HW256274   0.563   4.189   8.187  0.0537 -1.3736 -0.4753
14601SOL     OW56275   4.120   7.427   2.728  0.6188 -0.0353  0.2461
14601SOL    HW156276   4.035   7.478   2.717 -1.0178 -2.0851  2.7719
14601SOL    HW256277   4.191   7.488   2.764 -0.8544  0.8852  1.6655
14602SOL     OW56278   1.767   0.318   6.721 -0.2540  0.8530 -0.0431
14602SOL    HW156279   1.745   0.406   6.677 -0.0444  0.7645 -0.3323
14602SOL    HW256280   1.684   0.278   6.758 -0.6481  0.3654 -1.4123
14603SOL     OW56281   5.538   2.394   0.208 -0.3859 -0.0814 -0.3623
14603SOL    HW156282   5.612   2.332   0.182  0.8847  0.3352  2.0814
14603SOL    HW256283   5.502   2.368   0.297 -1.0319  1.6326 -0.0959
14604SOL     OW56284   1.993   7.821   0.814  0.4738 -0.2389 -0.3520
14604SOL    HW156285   1.983   7.894   0.746 -0.1565 -0.1561 -0.1804
14604SOL    HW256286   1.986   7.861   0.906  0.3302 -0.4864 -0.2556
14605SOL     OW56287   5.181   4.472   8.267 -0.4975  0.3234  0.3902
14605SOL    HW156288   5.168   4.516   8.356 -2.0920  0.9485 -0.1243
14605SOL    HW256289   5.258   4.409   8.272 -0.3195  0.6438  2.1054
14606SOL     OW56290   2.036   7.349   0.858  0.3334 -0.2753  0.6721
14606SOL    HW156291   1.956   7.367   0.914 -1.6483 -2.0450 -1.4481
14606SOL    HW256292   2.064   7.433   0.810 -2.7329 -0.4767 -1.6045
14607SOL     OW56293   3.979   6.203   8.880  0.2716 -0.1322 -0.8198
14607SOL    HW156294   4.062   6.236   8.926 -1.0013  0.0568  1.4018
14607SOL    HW256295   3.927   6.146   8.943 -1.4716  0.0072 -2.1030
14608SOL     OW56296   5.702   2.406   1.210  0.2774 -0.7138  0.6627
14608SOL    HW156297   5.631   2.452   1.264  0.7658 -0.4778  1.1047
14608SOL    HW256298   5.690   2.307   1.217 -1.3484 -0.6640 -1.0399
14609SOL     OW56299   3.462   5.107   0.866  0.4192 -0.0688  0.4801
14609SOL    HW156300   3.421   5.030   0.817 -3.2962  1.1033  1.5387
14609SOL    HW256301   3.475   5.082   0.962 -0.4491  0.4695  0.7451
14610SOL     OW56302   5.807   1.836   2.472 -0.1692  0.0690 -0.6208
14610SOL    HW156303   5.814   1.868   2.566  0.8002 -1.4940 -0.1385
14610SOL    HW256304   5.788   1.913   2.411  2.3839  1.5747  0.4382
14611SOL     OW56305   2.689   6.224   5.370  0.1687 -0.1578  0.4682
14611SOL    HW156306   2.619   6.271   5.424 -0.1852 -1.7124  1.4025
14611SOL    HW256307   2.671   6.126   5.372  1.5075 -0.4270 -0.5589
14612SOL     OW56308   1.710   6.544   6.564  0.7009 -0.0557 -0.1642
14612SOL    HW156309   1.733   6.561   6.468  0.8855  2.7885  0.3367
14612SOL    HW256310   1.794   6.544   6.618  0.5107 -0.7526  0.1354
14613SOL     OW56311   1.029   1.076   7.122  0.3272  0.0750 -0.5728
14613SOL    HW156312   1.059   1.070   7.217 -0.7455 -0.0016 -0.2412
14613SOL    HW256313   0.960   1.007   7.104 -1.1635  1.6021 -0.7817
14614SOL     OW56314   6.240   3.788   8.015  0.2128  0.3282 -0.4309
14614SOL    HW156315   6.317   3.793   7.951  1.0074 -1.3468  0.3852
14614SOL    HW256316   6.181   3.868   8.001  1.2381  0.8224 -2.1432
14615SOL     OW56317   4.667   7.232   2.126  0.0676 -0.4347 -0.4813
14615SOL    HW156318   4.592   7.297   2.140  0.4320  0.1835 -1.2806
14615SOL    HW256319   4.659   7.191   2.035  0.3482 -0.8371 -0.3266
14616SOL     OW56320   8.334   1.373   3.456  0.1874  0.6981  0.3029
14616SOL    HW156321   8.331   1.417   3.546  0.4632  3.0994 -0.8237
14616SOL    HW256322   8.428   1.355   3.430  0.1406  0.5071  0.2615
14617SOL     OW56323   8.737   3.361   0.861  0.2435  0.1955  0.0483
14617SOL    HW156324   8.702   3.368   0.767  0.3324  0.2529  0.0203
14617SOL    HW256325   8.816   3.300   0.862 -0.9245 -1.3791  0.3879
14618SOL     OW56326   6.820   5.191   3.557 -0.4838  0.1443  0.4033
14618SOL    HW156327   6.875   5.115   3.525 -0.9554 -0.1397  0.2556
14618SOL    HW256328   6.753   5.216   3.486 -1.2046 -0.1641  0.9666
14619SOL     OW56329   2.231   5.889   0.284 -0.3398  0.1029 -0.2282
14619SOL    HW156330   2.271   5.799   0.265 -0.5443 -0.0492  0.0589
14619SOL    HW256331   2.136   5.892   0.253  0.0620  0.6568 -1.4333
14620SOL     OW56332   8.524   7.919   3.393 -0.1120  0.0929  0.1857
14620SOL    HW156333   8.623   7.932   3.381  0.5226 -3.5473  0.7750
14620SOL    HW256334   8.506   7.887   3.486 -1.7785 -0.0092 -0.1593
14621SOL     OW56335   3.221   1.105   1.212  0.0824 -0.5639  0.8288
14621SOL    HW156336   3.184   1.039   1.278  0.3627 -1.9280 -0.3703
14621SOL    HW256337   3.321   1.099   1.211  0.1107 -0.1211  0.6918
14622SOL     OW56338   6.896   5.932   7.742 -0.3737  0.0945 -0.2560
14622SOL    HW156339   6.982   5.920   7.693 -1.0790 -0.1072 -1.4748
14622SOL    HW256340   6.888   5.862   7.813  1.7018  1.7826  1.7168
14623SOL     OW56341   4.410   0.299   8.152 -0.1529  0.2920  0.3700
14623SOL    HW156342   4.382   0.229   8.218 -0.7928  0.7468  0.5855
14623SOL    HW256343   4.428   0.256   8.064 -0.6218 -0.1427  0.4783
14624SOL     OW56344   0.500   0.892   7.918  0.1267 -0.1756 -0.1846
14624SOL    HW156345   0.435   0.913   7.845 -2.5959 -0.0519  2.1845
14624SOL    HW256346   0.546   0.805   7.898 -3.3111 -2.0379 -0.2477
14625SOL     OW56347   7.277   7.433   1.568 -0.4461  0.1441 -0.3117
14625SOL    HW156348   7.338   7.465   1.496 -1.4645  0.3961 -1.0663
14625SOL    HW256349   7.218   7.360   1.534 -2.2162  1.5226 -0.3019
14626SOL     OW56350   3.246   6.848   3.782 -0.0416 -0.1545  0.1150
14626SOL    HW156351   3.300   6.809   3.707  0.3692 -0.0703  0.3713
14626SOL    HW256352   3.306   6.890   3.849 -0.4992  1.3602 -0.3939
14627SOL     OW56353   6.255   2.259   8.667 -0.4020 -0.8204 -0.2969
14627SOL    HW156354   6.323   2.224   8.602 -1.5565 -2.5538 -0.5895
14627SOL    HW256355   6.187   2.189   8.685 -0.8381  0.0992  1.7899
14628SOL     OW56356   8.436   2.656   7.953 -0.2184 -0.3601  0.4143
14628SOL    HW156357   8.512   2.661   7.887 -0.1275 -0.2946  0.5239
14628SOL    HW256358   8.420   2.560   7.977 -2.3082 -0.7151 -2.0929
14629SOL     OW56359   4.684   0.153   4.654  0.5452 -0.1392 -0.8351
14629SOL    HW156360   4.637   0.229   4.698  0.3966 -0.2677 -0.7704
14629SOL    HW256361   4.618   0.097   4.604 -0.0090 -2.4238  2.2693
14630SOL     OW56362   3.178   1.261   8.524 -0.0601  0.7854 -0.5231
14630SOL    HW156363   3.270   1.298   8.518 -0.2342  1.1772 -0.7591
14630SOL    HW256364   3.112   1.327   8.489 -0.7184  1.5851  2.1009
14631SOL     OW56365   3.514   1.652   0.890  0.6162 -0.1248  0.1276
14631SOL    HW156366   3.582   1.633   0.962  1.3794  1.2200 -0.2142
14631SOL    HW256367   3.547   1.615   0.803  0.7230  0.1667  0.0432
14632SOL     OW56368   3.133   1.626   0.227  0.1085 -0.2184 -0.0311
14632SOL    HW156369   3.094   1.667   0.309 -1.1169  0.6280 -1.0077
14632SOL    HW256370   3.104   1.531   0.219  0.0964 -0.2508  0.4387
14633SOL     OW56371   2.631   8.150   7.217 -0.6328  0.3884 -0.2214
14633SOL    HW156372   2.686   8.216   7.166 -0.4408  0.1015 -0.3893
14633SOL    HW256373   2.586   8.088   7.153 -0.3732  0.0126 -0.0439
14634SOL     OW56374   7.500   6.824   5.358 -0.0665  0.6215 -1.2142
14634SOL    HW156375   7.582   6.879   5.371  0.3259 -0.2105 -0.0352
14634SOL    HW256376   7.419   6.881   5.377  0.3161  0.8996 -0.4000
14635SOL     OW56377   1.992   4.013   5.401  0.0473 -0.1784 -0.1227
14635SOL    HW156378   2.031   3.969   5.320 -1.0867  0.2262 -0.9018
14635SOL    HW256379   2.006   4.111   5.396  0.8233 -0.2477  0.6481
14636SOL     OW56380   6.802   0.765   8.284 -0.2856  0.6177  0.0424
14636SOL    HW156381   6.867   0.825   8.237 -0.4504 -0.5671 -1.7418
14636SOL    HW256382   6.808   0.781   8.383  2.1314  1.1410 -0.1401
14637SOL     OW56383   0.267   4.033   7.830  0.5130  0.9252 -0.4139
14637SOL    HW156384   0.264   4.132   7.820  0.5394  1.2384  2.2698
14637SOL    HW256385   0.189   4.002   7.884  1.5435 -0.2856  0.4201
14638SOL     OW56386   2.589   6.306   8.540  0.7230  0.8766 -0.3885
14638SOL    HW156387   2.581   6.219   8.492  2.3231  0.5217 -0.0542
14638SOL    HW256388   2.521   6.311   8.613 -0.5493  0.6732 -1.5407
14639SOL     OW56389   7.924   7.174   6.440 -0.1734  0.7582  0.0568
14639SOL    HW156390   8.020   7.149   6.431  0.1792  2.0171  0.2256
14639SOL    HW256391   7.867   7.093   6.427  0.9538 -0.2410  1.2656
14640SOL     OW56392   5.208   2.492   8.651 -0.3401 -0.8326 -0.3382
14640SOL    HW156393   5.251   2.493   8.741 -0.8705 -2.9221 -0.0204
14640SOL    HW256394   5.112   2.517   8.660 -0.2695 -0.5387 -0.3990
14641SOL     OW56395   4.606   6.715   5.872 -0.0399 -0.4082  0.3745
14641SOL    HW156396   4.543   6.707   5.949  1.9774 -1.5645  1.9585
14641SOL    HW256397   4.691   6.667   5.894  1.2531  0.8035 -1.8578
14642SOL     OW56398   1.273   0.448   8.685  0.0163 -0.3390 -0.5493
14642SOL    HW156399   1.281   0.395   8.601 -0.0988 -0.5163 -0.4484
14642SOL    HW256400   1.354   0.507   8.695 -0.5544  0.5926 -1.4139
14643SOL     OW56401   5.958   8.761   0.465 -0.4361 -0.8122 -0.0752
14643SOL    HW156402   6.031   8.803   0.411  0.3472 -0.4806  1.2198
14643SOL    HW256403   5.997   8.706   0.538 -1.4898 -0.3793  0.8329
14644SOL     OW56404   7.596   2.739   7.626  0.5820  0.5692 -0.4318
14644SOL    HW156405   7.531   2.811   7.606  0.1624  0.5366  0.8020
14644SOL    HW256406   7.665   2.773   7.690 -0.6437 -0.6335  1.5667
14645SOL     OW56407   8.772   3.576   7.595  0.0128  0.7762  0.4629
14645SOL    HW156408   8.775   3.494   7.537  0.9941  2.1112 -1.4597
14645SOL    HW256409   8.854   3.578   7.653 -0.7718 -0.3612  1.6331
14646SOL     OW56410   3.560   2.687   0.922  0.1475 -0.4381  0.5177
14646SOL    HW156411   3.581   2.722   1.013  0.7219  0.1306  0.1757
14646SOL    HW256412   3.638   2.634   0.887 -0.3727 -1.3150  0.6702
14647SOL     OW56413   7.414   0.987   8.318  0.1228 -0.2131 -0.5510
14647SOL    HW156414   7.505   1.023   8.295  0.2108 -0.1574 -0.1253
14647SOL    HW256415   7.422   0.893   8.350 -0.0260 -0.3724 -0.9797
14648SOL     OW56416   8.765   2.714   5.000  0.3276  0.2798 -0.0712
14648SOL    HW156417   8.834   2.777   4.964 -0.8586  1.1343 -0.9013
14648SOL    HW256418   8.719   2.757   5.078  1.1832 -0.5596  0.9056
14649SOL     OW56419   5.998   7.424   5.437  0.1300 -0.1279  0.2042
14649SOL    HW156420   6.084   7.374   5.446 -0.5397 -1.2059  0.7049
14649SOL    HW256421   5.957   7.403   5.348  0.5142  0.6037 -0.1505
14650SOL     OW56422   4.799   5.943   0.404  0.2677  0.0873 -0.0314
14650SOL    HW156423   4.743   5.872   0.447 -0.0704  0.5181  0.2474
14650SOL    HW256424   4.757   5.969   0.317  0.6478 -0.3876 -0.3575
14651SOL     OW56425   6.343   7.330   5.676  0.5412  0.2594  0.3930
14651SOL    HW156426   6.260   7.341   5.730  1.0606  0.0510  1.2441
14651SOL    HW256427   6.319   7.324   5.579 -0.3667  0.9881  0.5632
14652SOL     OW56428   5.316   8.349   1.839  0.0294  0.7675 -0.1554
14652SOL    HW156429   5.365   8.387   1.761 -1.3754  1.9496 -0.4774
14652SOL    HW256430   5.219   8.340   1.816 -0.1725 -0.1092  1.0081
14653SOL     OW56431   6.531   3.611   1.249  0.4442  0.2061  0.2908
14653SOL    HW156432   6.565   3.609   1.343 -0.9924 -0.2573  0.8206
14653SOL    HW256433   6.456   3.678   1.242  0.8209  0.5428 -0.6209
14654SOL     OW56434   1.164   0.774   7.992 -0.3677 -0.0035  0.0656
14654SOL    HW156435   1.075   0.732   7.975 -0.0680  0.2190 -2.1201
14654SOL    HW256436   1.156   0.873   7.984  0.7167 -0.1366 -3.4025
14655SOL     OW56437   1.227   3.718   6.197 -1.1719 -0.5812 -0.2782
14655SOL    HW156438   1.195   3.813   6.196  1.8885  0.5050  1.2502
14655SOL    HW256439   1.202   3.675   6.283 -1.1743 -0.6771 -0.3266
14656SOL     OW56440   4.313   1.220   7.492  0.2457 -0.2094  0.0115
14656SOL    HW156441   4.300   1.125   7.464 -0.3554 -0.0869 -0.1133
14656SOL    HW256442   4.330   1.277   7.411 -0.0504 -0.1010  0.0241
14657SOL     OW56443   6.574   7.102   8.703  0.3492  0.0975  0.3189
14657SOL    HW156444   6.581   7.019   8.759  2.5321  1.8758  2.8100
14657SOL    HW256445   6.618   7.085   8.614 -0.5814 -1.8585  0.1946
14658SOL     OW56446   3.336   8.379   8.771  0.0948  0.3943 -0.0742
14658SOL    HW156447   3.358   8.428   8.856 -2.9966  0.7057  0.5991
14658SOL    HW256448   3.325   8.282   8.792 -1.8511  0.6399  0.1527
14659SOL     OW56449   4.623   6.305   3.633 -0.4601 -0.5757  0.0877
14659SOL    HW156450   4.551   6.373   3.650  0.0799 -0.0148  0.1508
14659SOL    HW256451   4.624   6.238   3.707 -0.9007 -0.5729  0.1003
14660SOL     OW56452   7.513   7.931   7.087  0.1525  0.6670  0.3810
14660SOL    HW156453   7.445   7.857   7.086  0.4597  0.3743 -0.9933
14660SOL    HW256454   7.540   7.951   7.181 -0.8162 -0.1638  0.8441
14661SOL     OW56455   1.376   1.973   5.261 -0.1198 -0.0508  0.0648
14661SOL    HW156456   1.349   2.051   5.318 -0.7498 -0.1012 -0.1604
14661SOL    HW256457   1.474   1.957   5.270  0.5431  2.5071 -1.9982
14662SOL     OW56458   4.534   0.961   6.393 -0.3679  0.5952  0.1207
14662SOL    HW156459   4.543   0.887   6.326  0.0972 -0.0319  0.8714
14662SOL    HW256460   4.621   0.975   6.440 -1.1128 -0.0514  1.7124
14663SOL     OW56461   8.097   5.230   4.767  0.3672  0.6182  0.3312
14663SOL    HW156462   8.037   5.310   4.763  1.5975  1.5199 -0.4281
14663SOL    HW256463   8.181   5.249   4.716  1.5239 -0.4369  1.8102
14664SOL     OW56464   4.891   5.558   2.880  0.3107  0.2364  0.3785
14664SOL    HW156465   4.885   5.468   2.924  0.5389  0.8294  1.6520
14664SOL    HW256466   4.983   5.594   2.891  0.2449  0.5850 -0.2176
14665SOL     OW56467   4.072   2.293   4.348 -0.0875  0.1324  0.4963
14665SOL    HW156468   4.016   2.241   4.414  0.1052 -1.6003 -0.6641
14665SOL    HW256469   4.115   2.370   4.395 -0.5048 -0.6648  2.2587
14666SOL     OW56470   7.925   1.163   1.948 -0.4357 -0.1159 -0.6397
14666SOL    HW156471   7.930   1.092   1.878 -2.9459  0.7394 -1.7314
14666SOL    HW256472   7.830   1.187   1.965  0.3098  2.1141  0.6028
14667SOL     OW56473   3.320   5.973   4.488 -0.1103  0.1754  0.0751
14667SOL    HW156474   3.273   5.897   4.533 -2.1560  0.1764 -1.9811
14667SOL    HW256475   3.274   5.996   4.403  3.5965  0.2757 -2.0077
14668SOL     OW56476   0.731   0.014   0.489 -0.2122  0.0112 -0.3115
14668SOL    HW156477   0.671   0.061   0.554  1.0491  1.0815  0.1028
14668SOL    HW256478   0.824   0.015   0.524  0.5055  0.6727 -2.1733
14669SOL     OW56479   0.828   0.861   8.741  0.0885  0.1227  0.1202
14669SOL    HW156480   0.920   0.880   8.778  0.2335 -1.2464  0.5072
14669SOL    HW256481   0.836   0.833   8.646  0.1531 -0.6494  0.3447
14670SOL     OW56482   5.394   3.901   5.986 -0.2749  0.1003  0.1070
14670SOL    HW156483   5.422   3.961   5.911  0.2132  0.9395  0.9570
14670SOL    HW256484   5.386   3.807   5.952  0.4019  0.3964 -0.8878
14671SOL     OW56485   8.858   2.470   2.407  0.3728 -0.4733  0.5183
14671SOL    HW156486   8.915   2.432   2.334  0.1765 -1.9198  1.0960
14671SOL    HW256487   8.902   2.454   2.495  1.1815  2.3127  0.6494
14672SOL     OW56488   8.555   0.730   8.740  0.1532 -0.2746  0.3684
14672SOL    HW156489   8.580   0.790   8.664  0.7126 -0.4926  0.3791
14672SOL    HW256490   8.497   0.779   8.804 -0.6026 -0.1842 -0.3710
14673SOL     OW56491   6.542   0.245   0.785 -0.5850 -0.8054 -0.0944
14673SOL    HW156492   6.529   0.294   0.699  0.8885 -0.4232 -0.1125
14673SOL    HW256493   6.453   0.226   0.826 -1.1765  1.9786 -0.0247
14674SOL     OW56494   5.063   3.775   3.916  0.0509  0.5000  0.3788
14674SOL    HW156495   5.157   3.787   3.884  0.6775 -1.6728  1.2583
14674SOL    HW256496   5.015   3.862   3.913  1.7106  1.3946 -1.2880
14675SOL     OW56497   6.811   3.281   8.432  0.3011  0.3599 -0.2145
14675SOL    HW156498   6.804   3.230   8.518 -0.9665 -1.3714 -1.2960
14675SOL    HW256499   6.722   3.284   8.387  0.4439  3.1939 -0.4195
14676SOL     OW56500   8.386   7.720   7.282 -0.0442 -0.3483  0.5183
14676SOL    HW156501   8.459   7.724   7.214  1.1358 -2.8623  1.5662
14676SOL    HW256502   8.353   7.812   7.301  1.3186  0.6103 -1.6244
14677SOL     OW56503   7.053   8.682   8.341  0.2537  0.0814 -0.2460
14677SOL    HW156504   7.063   8.583   8.329 -0.4994 -0.2002  1.3412
14677SOL    HW256505   7.105   8.729   8.270 -0.7533 -1.4583 -2.0751
14678SOL     OW56506   3.480   5.403   8.616 -0.1526 -0.2913  0.7489
14678SOL    HW156507   3.530   5.469   8.671  1.9112 -1.1638 -0.0306
14678SOL    HW256508   3.391   5.441   8.590  0.8953  2.0710  0.5434
14679SOL     OW56509   2.377   4.889   7.183 -0.3126 -0.5488  0.8464
14679SOL    HW156510   2.278   4.884   7.169 -0.1410 -0.7619 -0.2930
14679SOL    HW256511   2.411   4.976   7.147 -0.4580  0.6580  3.5326
14680SOL     OW56512   1.632   0.777   5.612  0.0499 -0.2893  0.0789
14680SOL    HW156513   1.673   0.809   5.526  0.4329  0.2415  0.4524
14680SOL    HW256514   1.592   0.686   5.599 -1.0015  0.3119 -0.9898
14681SOL     OW56515   7.814   0.657   3.269  0.2790 -0.5148 -0.0803
14681SOL    HW156516   7.745   0.689   3.334 -0.0681 -1.7907  0.1871
14681SOL    HW256517   7.811   0.558   3.263  1.3343 -0.5068 -0.9235
14682SOL     OW56518   0.694   5.799   0.834  0.1364 -0.1665 -0.4557
14682SOL    HW156519   0.718   5.783   0.929 -0.1498 -0.9352 -0.5095
14682SOL    HW256520   0.778   5.807   0.779  0.2926 -0.3410 -0.2420
14683SOL     OW56521   0.131   0.838   7.216 -0.1207 -0.2085 -0.2943
14683SOL    HW156522   0.177   0.776   7.153 -0.3038  0.7287 -1.3673
14683SOL    HW256523   0.085   0.785   7.287  1.6860 -1.1981  0.1707
14684SOL     OW56524   4.215   3.683   0.707  0.2964 -0.3168 -0.6312
14684SOL    HW156525   4.205   3.587   0.683 -0.3329 -0.8471  1.7012
14684SOL    HW256526   4.312   3.708   0.704  0.4398 -0.9396 -1.4866
14685SOL     OW56527   7.973   4.855   1.079 -0.0034 -0.4400 -0.3004
14685SOL    HW156528   7.905   4.900   1.136  0.3208  1.1902 -1.1737
14685SOL    HW256529   8.064   4.867   1.120  0.2984  1.1763 -1.3791
14686SOL     OW56530   0.579   4.135   6.892 -0.2897 -0.0396 -0.0737
14686SOL    HW156531   0.487   4.114   6.859 -1.1407  2.6462  0.4723
14686SOL    HW256532   0.596   4.087   6.977 -2.3049  1.6309  1.3318
14687SOL     OW56533   2.095   7.572   0.695 -0.3627 -0.0352  0.4209
14687SOL    HW156534   2.055   7.658   0.726 -0.8806  0.6040 -1.8995
14687SOL    HW256535   2.153   7.589   0.615 -0.3203 -1.8029  0.0455
14688SOL     OW56536   8.938   3.857   6.394  0.0692  0.2466  0.0651
14688SOL    HW156537   8.923   3.875   6.296  0.3804  0.5110  0.0673
14688SOL    HW256538   8.851   3.868   6.443 -0.1425 -0.1293 -0.2151
14689SOL     OW56539   8.452   5.222   8.517  0.6812  0.1665  0.3769
14689SOL    HW156540   8.459   5.320   8.495  0.4204  0.0092 -0.4391
14689SOL    HW256541   8.362   5.203   8.555 -1.0028 -0.5275 -3.7048
14690SOL     OW56542   4.816   1.144   3.958 -0.3199  0.3914  0.2093
14690SOL    HW156543   4.869   1.190   3.887  0.2390  0.4893  0.6910
14690SOL    HW256544   4.823   1.194   4.044  1.2760 -1.2250  1.0469
14691SOL     OW56545   8.009   5.400   6.254  0.8501 -0.6978  0.0488
14691SOL    HW156546   8.057   5.463   6.194 -1.0338 -0.0527 -0.8064
14691SOL    HW256547   8.055   5.398   6.344  1.9946  0.4774 -0.4911
14692SOL     OW56548   1.070   0.667   6.812  0.5338 -0.3656 -0.0216
14692SOL    HW156549   1.026   0.756   6.801 -1.0918 -1.2083 -0.5896
14692SOL    HW256550   1.004   0.595   6.789  2.6218 -1.6335 -2.2479
14693SOL     OW56551   6.461   4.384   1.552 -0.1399  0.8835  0.1775
14693SOL    HW156552   6.472   4.389   1.652 -2.3991  1.0275  0.4398
14693SOL    HW256553   6.486   4.472   1.512 -2.5312  1.9989  0.9956
14694SOL     OW56554   6.938   8.077   7.547 -0.2508  0.4475 -0.1107
14694SOL    HW156555   6.955   8.016   7.625  4.1846  2.2651  0.4830
14694SOL    HW256556   6.879   8.152   7.577 -0.4111 -0.0548  0.8789
14695SOL     OW56557   4.724   6.627   0.179 -0.1575  0.0314 -0.7646
14695SOL    HW156558   4.729   6.689   0.101 -0.1110 -2.3556 -2.7219
14695SOL    HW256559   4.803   6.566   0.178  0.0637  0.2316  1.4143
14696SOL     OW56560   7.171   8.556   8.004  0.2340 -0.3878  0.0002
14696SOL    HW156561   7.088   8.539   7.951 -0.2931  1.7420  0.0852
14696SOL    HW256562   7.190   8.654   8.005  3.9298 -0.9892 -1.7925
14697SOL     OW56563   1.881   7.027   8.079  0.1961  0.2847 -0.3631
14697SOL    HW156564   1.917   6.939   8.049 -1.4491 -0.7588  0.6260
14697SOL    HW256565   1.907   7.044   8.174 -0.0858  0.5300 -0.3259
14698SOL     OW56566   8.562   7.285   7.817 -0.1003 -0.0693  0.0838
14698SOL    HW156567   8.532   7.303   7.724 -2.4167 -2.3649  0.3166
14698SOL    HW256568   8.592   7.370   7.860 -1.3243  1.4214 -1.9421
14699SOL     OW56569   0.567   7.827   0.531 -0.5503 -0.2103 -0.1166
14699SOL    HW156570   0.584   7.745   0.585 -1.8991 -0.3005  0.1762
14699SOL    HW256571   0.617   7.821   0.445  1.9530  0.1026  1.2421
14700SOL     OW56572   6.809   7.684   6.291  0.4050  0.6375 -0.0220
14700SOL    HW156573   6.813   7.778   6.327  0.5735  1.4628 -2.1215
14700SOL    HW256574   6.826   7.619   6.365  1.3359  2.3044  1.2640
14701SOL     OW56575   5.055   7.529   4.648 -0.6007 -0.3097 -0.9014
14701SOL    HW156576   5.063   7.451   4.585  2.8982 -1.8011  1.2561
14701SOL    HW256577   4.971   7.520   4.701 -0.9884 -1.8145 -1.7202
14702SOL     OW56578   3.178   0.255   2.070  0.0282 -0.2989  0.0808
14702SOL    HW156579   3.267   0.256   2.115 -0.3400 -0.4881  0.8187
14702SOL    HW256580   3.112   0.307   2.125 -0.0404  0.8494 -1.0473
14703SOL     OW56581   3.174   6.381   2.259  0.3148 -0.2744 -0.1569
14703SOL    HW156582   3.208   6.327   2.182  0.7014 -0.6759  0.2919
14703SOL    HW256583   3.248   6.395   2.325  0.1609  0.6416 -0.1835
14704SOL     OW56584   4.419   7.278   0.377 -0.0319 -0.7304  0.0383
14704SOL    HW156585   4.388   7.370   0.402 -1.1403 -0.4660 -2.1480
14704SOL    HW256586   4.405   7.216   0.454 -1.6815  0.4068  0.6905
14705SOL     OW56587   3.990   8.179   6.753  0.2492  0.2834 -0.1007
14705SOL    HW156588   3.918   8.111   6.770 -0.3089  1.2280  1.3678
14705SOL    HW256589   3.965   8.234   6.673  1.2031 -1.8879 -1.9465
14706SOL     OW56590   6.488   5.852   2.797  0.2129  0.8070  0.0463
14706SOL    HW156591   6.566   5.801   2.760 -0.8493 -3.2686  3.1620
14706SOL    HW256592   6.404   5.799   2.786 -1.0602  2.1254  2.8282
14707SOL     OW56593   2.149   8.245   6.117  0.0744 -0.2587 -0.3845
14707SOL    HW156594   2.076   8.283   6.174 -0.9953  0.8817 -2.4793
14707SOL    HW256595   2.200   8.177   6.171 -1.9584 -0.4519  1.4042
14708SOL     OW56596   1.886   2.779   0.287 -0.5053 -0.1204 -0.4066
14708SOL    HW156597   1.859   2.845   0.216 -0.8723 -1.5889 -1.6690
14708SOL    HW256598   1.966   2.728   0.256 -0.2731 -0.3280  0.5280
14709SOL     OW56599   7.496   7.332   5.905 -0.1860 -0.4054  0.2325
14709SOL    HW156600   7.555   7.253   5.924  0.8386  0.1416 -0.6280
14709SOL    HW256601   7.463   7.326   5.811 -0.6793 -0.1682  0.3886
14710SOL     OW56602   7.247   1.586   7.844 -0.3941  0.2004 -0.1840
14710SOL    HW156603   7.268   1.647   7.767 -0.4535  1.3042  0.6525
14710SOL    HW256604   7.317   1.598   7.915 -1.1395  0.2718  0.5475
14711SOL     OW56605   2.564   3.933   0.181  0.3896  0.5099  0.2265
14711SOL    HW156606   2.575   3.840   0.215 -0.9339  0.0257 -0.6068
14711SOL    HW256607   2.622   3.947   0.101 -1.5075 -0.5691 -1.4081
14712SOL     OW56608   3.954   1.742   6.992 -0.7247  0.4675 -0.8710
14712SOL    HW156609   3.970   1.826   7.043  1.9237 -0.0507 -0.7663
14712SOL    HW256610   3.946   1.665   7.056  1.8875 -0.0775 -1.1705
14713SOL     OW56611   2.338   1.985   3.723 -0.0876 -0.6180  0.1973
14713SOL    HW156612   2.302   2.053   3.788 -2.3185  0.9418 -2.5325
14713SOL    HW256613   2.291   1.898   3.738  1.9784 -1.3305  2.9715
14714SOL     OW56614   7.646   5.885   1.001 -0.3712  0.2135  0.3379
14714SOL    HW156615   7.584   5.825   0.951 -0.9259  1.1450 -0.1085
14714SOL    HW256616   7.675   5.840   1.085 -0.0439 -1.0571 -0.4290
14715SOL     OW56617   3.161   4.709   5.828 -0.1981  0.5022  0.0419
14715SOL    HW156618   3.120   4.759   5.905  0.7860  1.8201 -0.2720
14715SOL    HW256619   3.103   4.632   5.804 -1.2312  0.8968  1.2064
14716SOL     OW56620   1.178   0.071   8.535  0.4442 -0.2500  0.0877
14716SOL    HW156621   1.113   0.072   8.459  0.0328 -1.2711  0.4254
14716SOL    HW256622   1.137   0.026   8.614  0.6988  1.2381  1.0886
14717SOL     OW56623   2.692   2.555   3.488  0.1606 -0.4091  0.1010
14717SOL    HW156624   2.597   2.528   3.501  0.7272 -1.2019  2.8720
14717SOL    HW256625   2.718   2.539   3.392 -2.7654  0.8725 -0.9675
14718SOL     OW56626   1.816   2.384   8.070  0.4837 -0.0222 -0.5365
14718SOL    HW156627   1.788   2.359   7.978 -1.2642 -2.0352  0.5118
14718SOL    HW256628   1.867   2.471   8.067  0.7772 -0.2519 -3.3995
14719SOL     OW56629   6.995   2.066   0.638  0.9807 -0.0579  0.4845
14719SOL    HW156630   6.901   2.053   0.671  1.1110 -0.8375  0.5672
14719SOL    HW256631   7.036   1.976   0.620  1.5248  0.3039 -0.0668
14720SOL     OW56632   2.062   5.229   4.833 -0.4536 -0.1682 -0.1502
14720SOL    HW156633   2.106   5.245   4.922  1.0814 -1.5100 -0.6442
14720SOL    HW256634   1.971   5.271   4.833 -0.1749  0.4990  1.7829
14721SOL     OW56635   3.448   6.219   8.078  0.8865  0.4193  0.4738
14721SOL    HW156636   3.438   6.243   8.174  1.1481  1.3629  0.2699
14721SOL    HW256637   3.465   6.302   8.024  0.4258 -0.0547 -0.4278
14722SOL     OW56638   6.293   7.750   6.545 -0.5327 -0.1336  0.0041
14722SOL    HW156639   6.351   7.691   6.489 -1.1971 -1.5656  0.7951
14722SOL    HW256640   6.341   7.776   6.629  0.0469  1.1026 -0.6974
14723SOL     OW56641   0.216   6.247   1.624 -0.0274 -0.2831  0.3718
14723SOL    HW156642   0.262   6.238   1.712  1.1633  2.1175  0.0341
14723SOL    HW256643   0.275   6.210   1.552  1.3037  2.4782 -0.0182
14724SOL     OW56644   2.740   8.534   1.480 -0.1846  0.4138  0.1237
14724SOL    HW156645   2.741   8.477   1.398 -1.4178  0.8975 -0.2307
14724SOL    HW256646   2.651   8.578   1.490  0.3904  1.4129  1.0027
14725SOL     OW56647   5.164   1.528   8.385  0.4420  0.5527 -0.9680
14725SOL    HW156648   5.201   1.466   8.316  0.4381 -1.0154  0.3936
14725SOL    HW256649   5.065   1.538   8.371  0.4102  0.0896 -1.0759
14726SOL     OW56650   6.443   1.966   2.484  0.6790 -0.0766  0.4595
14726SOL    HW156651   6.358   1.919   2.507 -0.0040  0.3739 -1.0530
14726SOL    HW256652   6.472   2.023   2.561  0.0730 -0.8827  1.2975
14727SOL     OW56653   8.571   2.664   8.903 -0.0949 -0.2797 -0.5584
14727SOL    HW156654   8.505   2.701   8.838  0.9811 -0.1490 -1.5884
14727SOL    HW256655   8.642   2.731   8.921 -0.7885 -0.0273  1.3644
14728SOL     OW56656   4.982   5.172   8.091  0.4053  0.5102  0.2191
14728SOL    HW156657   4.915   5.102   8.117 -0.1141  1.1325  0.5811
14728SOL    HW256658   5.000   5.167   7.993  0.2331 -0.0173  0.2182
14729SOL     OW56659   6.206   5.177   0.030 -0.1662  0.2233 -0.4009
14729SOL    HW156660   6.120   5.226   0.016 -0.3888 -0.1730 -0.4446
14729SOL    HW256661   6.219   5.111  -0.044 -0.9600 -1.3151  0.7895
14730SOL     OW56662   7.251   1.196   2.358 -0.0428 -0.2820  0.9229
14730SOL    HW156663   7.288   1.220   2.448  1.9262 -3.6869  1.1011
14730SOL    HW256664   7.322   1.207   2.288 -1.1678  1.0431 -0.0462
14731SOL     OW56665   7.567   8.453   2.153 -0.7034  0.2444 -0.0999
14731SOL    HW156666   7.518   8.383   2.205 -1.2969  1.0042  0.3867
14731SOL    HW256667   7.640   8.410   2.100 -0.4192 -0.6164  0.9547
14732SOL     OW56668   3.183   6.106   8.628  0.4443 -0.3535 -0.2767
14732SOL    HW156669   3.094   6.143   8.652  1.5566  1.3724  1.3059
14732SOL    HW256670   3.196   6.017   8.671 -0.3861 -0.4792 -0.2817
14733SOL     OW56671   2.773   3.341   3.539  0.1244  0.3879 -0.3745
14733SOL    HW156672   2.781   3.332   3.439 -1.0696  0.5306 -0.4894
14733SOL    HW256673   2.680   3.318   3.567  0.4358  0.4225  0.7059
14734SOL     OW56674   6.292   2.225   3.088  0.4731 -0.1248  0.6319
14734SOL    HW156675   6.271   2.314   3.128  0.4359 -0.1929  0.7631
14734SOL    HW256676   6.365   2.182   3.141  1.6856  0.5707 -0.4367
14735SOL     OW56677   1.238   2.716   1.764 -0.6051 -0.0983  0.7728
14735SOL    HW156678   1.304   2.734   1.837  0.4634  0.2596 -0.2735
14735SOL    HW256679   1.157   2.774   1.778 -0.1667  0.3786  1.3605
14736SOL     OW56680   8.918   8.001   1.896 -0.2445  0.7990 -0.4419
14736SOL    HW156681   9.007   8.006   1.850  0.2860  1.7674  0.6527
14736SOL    HW256682   8.926   7.940   1.975 -0.5990  0.7684 -0.4307
14737SOL     OW56683   1.317   7.360   1.029  0.8908 -0.4760 -0.2538
14737SOL    HW156684   1.228   7.327   0.999 -0.3501  0.8208  1.8228
14737SOL    HW256685   1.365   7.403   0.953 -1.7722  1.9381 -0.6639
14738SOL     OW56686   2.031   8.876   0.616 -0.5302  0.3900  0.2349
14738SOL    HW156687   1.947   8.929   0.629 -0.1597  1.2296 -0.6922
14738SOL    HW256688   2.039   8.850   0.520  1.2997  2.0801 -0.0907
14739SOL     OW56689   0.640   7.214   7.656 -1.1161 -0.9008  0.2736
14739SOL    HW156690   0.690   7.259   7.730 -1.7484 -2.3612  1.6139
14739SOL    HW256691   0.703   7.158   7.602 -1.0495 -1.6248  1.0976
14740SOL     OW56692   1.064   6.163   8.243 -0.4086  0.1215  0.6482
14740SOL    HW156693   1.158   6.196   8.235  0.1580 -1.3878  0.9348
14740SOL    HW256694   1.061   6.083   8.303 -1.5554 -1.1294 -1.0019
14741SOL     OW56695   1.839   6.926   1.234  0.0661 -0.1065 -0.6366
14741SOL    HW156696   1.799   7.004   1.186  0.8017  0.0993 -0.9243
14741SOL    HW256697   1.769   6.881   1.288 -0.2587  1.0372 -0.0925
14742SOL     OW56698   2.274   8.802   1.582  0.8590 -0.4379  0.0709
14742SOL    HW156699   2.304   8.782   1.676 -0.1082  1.6966  0.8595
14742SOL    HW256700   2.272   8.901   1.568  0.4982 -0.7297 -2.0563
14743SOL     OW56701   4.365   6.089   6.525 -0.3480 -0.5177  0.1118
14743SOL    HW156702   4.425   6.142   6.464 -0.3184 -2.7217 -1.8472
14743SOL    HW256703   4.298   6.039   6.470  0.2166 -3.2503  1.8153
14744SOL     OW56704   4.790   1.771   2.655  0.2881 -0.1505  0.6743
14744SOL    HW156705   4.807   1.698   2.722  1.1702  0.6231  1.3111
14744SOL    HW256706   4.697   1.806   2.668  0.5442  0.1836  1.6945
14745SOL     OW56707   0.341   8.676   6.239  0.0628  0.0352 -0.6790
14745SOL    HW156708   0.253   8.674   6.288  0.2043  1.2304 -0.3422
14745SOL    HW256709   0.333   8.738   6.161  0.2480 -0.8199 -1.3832
14746SOL     OW56710   3.759   5.946   3.825  0.4195 -0.2450 -0.1655
14746SOL    HW156711   3.759   6.044   3.840  1.1798 -0.2077 -0.3804
14746SOL    HW256712   3.839   5.905   3.869 -0.9291 -1.0390  1.6119
14747SOL     OW56713   7.225   7.268   7.341  0.1799  0.3188 -0.1090
14747SOL    HW156714   7.279   7.189   7.369 -0.4884 -0.5482 -1.2192
14747SOL    HW256715   7.132   7.261   7.379  0.6172  1.4458  1.2072
14748SOL     OW56716   3.212   0.291   8.917 -0.3185  0.2027  1.0249
14748SOL    HW156717   3.122   0.333   8.928 -0.7631 -0.8441  1.4236
14748SOL    HW256718   3.219   0.251   8.826 -0.3824 -0.0162  1.1159
14749SOL     OW56719   1.084   6.430   7.780  0.2176  0.6114  0.2472
14749SOL    HW156720   1.179   6.399   7.778  0.2198  0.6951 -1.8429
14749SOL    HW256721   1.023   6.351   7.773  0.1808  0.7703 -1.3707
14750SOL     OW56722   2.519   3.297   6.735 -0.1392 -0.2078  0.2241
14750SOL    HW156723   2.583   3.373   6.737  0.7400 -0.8963 -1.0180
14750SOL    HW256724   2.463   3.298   6.818  0.5669  1.1734  0.6954
14751SOL     OW56725   7.022   2.858   8.666 -0.6651  0.5299  0.3577
14751SOL    HW156726   7.113   2.825   8.643 -0.9438 -0.6501  0.8545
14751SOL    HW256727   7.028   2.936   8.728  0.0180  1.2373 -0.5994
14752SOL     OW56728   4.534   4.314   1.296  0.3801 -0.1712 -0.2354
14752SOL    HW156729   4.540   4.410   1.270 -2.0949 -0.1588 -0.8770
14752SOL    HW256730   4.498   4.306   1.388 -0.6462 -0.5187 -0.6620
14753SOL     OW56731   2.143   8.491   3.865 -0.3279 -0.0576 -0.2832
14753SOL    HW156732   2.195   8.573   3.889  1.2894 -1.1853  0.1996
14753SOL    HW256733   2.141   8.429   3.944 -2.6986  0.0901 -0.1920
14754SOL     OW56734   7.482   2.572   8.985 -0.2258  0.3186  0.5618
14754SOL    HW156735   7.487   2.526   9.074  1.4040  1.3123  0.9892
14754SOL    HW256736   7.569   2.562   8.938 -1.0507 -0.0978 -0.8918
14755SOL     OW56737   3.490   7.277   7.911  0.2598 -0.1946  0.0479
14755SOL    HW156738   3.486   7.332   7.827 -2.3424  0.8741  0.7979
14755SOL    HW256739   3.583   7.275   7.945  1.3347 -0.5313 -2.7808
14756SOL     OW56740   3.076   3.058   4.352  0.0580 -0.2144  0.0783
14756SOL    HW156741   3.050   2.989   4.420  1.2035  0.6374  1.4070
14756SOL    HW256742   3.013   3.054   4.275 -1.4833 -0.9700  1.3516
14757SOL     OW56743   2.210   3.766   2.314  0.4139  0.3554  0.0953
14757SOL    HW156744   2.199   3.795   2.409  1.6649  0.8192  0.1137
14757SOL    HW256745   2.227   3.846   2.257 -4.2256  0.5768 -1.1813
14758SOL     OW56746   3.850   2.027   8.329  0.1252 -0.2494 -0.2546
14758SOL    HW156747   3.938   1.980   8.333 -0.4408 -1.4331 -1.5836
14758SOL    HW256748   3.815   2.026   8.236 -0.6339  1.4756 -0.0170
14759SOL     OW56749   5.974   6.975   0.999  0.0202 -0.1990  0.4204
14759SOL    HW156750   6.005   6.969   0.904  0.0282 -0.1140  0.4172
14759SOL    HW256751   6.018   7.054   1.043  1.4539 -1.3087  1.0339
14760SOL     OW56752   4.799   8.502   2.019 -0.5807 -0.0720  0.4284
14760SOL    HW156753   4.848   8.416   2.010  0.4681  0.7000 -1.4524
14760SOL    HW256754   4.727   8.508   1.950 -0.0817  0.9105 -0.0208
14761SOL     OW56755   2.223   0.427   0.481 -0.1752 -0.5099  0.6426
14761SOL    HW156756   2.289   0.391   0.548 -1.6559  0.4132  2.6544
14761SOL    HW256757   2.248   0.520   0.457 -1.0841  0.0658  1.8940
14762SOL     OW56758   3.513   8.525   2.679 -0.3011  0.7641 -0.7852
14762SOL    HW156759   3.479   8.546   2.771 -4.6099 -4.3136 -0.9937
14762SOL    HW256760   3.439   8.538   2.613  1.9863  1.7265 -3.2381
14763SOL     OW56761   7.968   4.862   8.042 -0.0598  0.0997 -0.5163
14763SOL    HW156762   8.022   4.941   8.015 -0.5198  0.3100 -0.8434
14763SOL    HW256763   7.949   4.866   8.140  3.1073 -1.5838  0.2399
14764SOL     OW56764   8.483   6.752   7.044  0.3128 -0.1666  0.2221
14764SOL    HW156765   8.477   6.752   6.944 -1.5715 -0.4402  0.3189
14764SOL    HW256766   8.425   6.824   7.081 -1.9339 -2.4050  1.2421
14765SOL     OW56767   1.973   8.891   5.152 -0.0483 -0.1015 -0.5904
14765SOL    HW156768   2.057   8.927   5.111  0.0601 -0.2146 -0.4696
14765SOL    HW256769   1.989   8.796   5.182  0.2367  0.3661  0.7885
14766SOL     OW56770   3.937   5.421   8.445 -0.6909  0.3636  0.1667
14766SOL    HW156771   3.879   5.341   8.432 -2.1987  1.6185 -1.0593
14766SOL    HW256772   3.881   5.498   8.477  0.3460  1.4989 -0.7038
14767SOL     OW56773   4.267   8.097   0.540  0.0426 -0.3651 -0.0386
14767SOL    HW156774   4.304   8.040   0.613 -1.4021 -0.4712  0.6187
14767SOL    HW256775   4.342   8.134   0.485  1.1116 -0.7014  1.1818
14768SOL     OW56776   6.764   6.871   3.641  0.6707 -0.4606  0.3226
14768SOL    HW156777   6.678   6.834   3.676  0.3963  0.5232  0.6880
14768SOL    HW256778   6.773   6.848   3.544  1.0200 -2.4270  0.7855
14769SOL     OW56779   0.353   0.926   0.853  0.4493  0.3086  0.0427
14769SOL    HW156780   0.391   1.019   0.846 -0.2828  0.6013 -0.0271
14769SOL    HW256781   0.254   0.931   0.856  0.3817 -0.5297 -0.7927
14770SOL     OW56782   2.314   7.878   2.058 -0.3128 -0.5803  0.2363
14770SOL    HW156783   2.356   7.833   1.979 -2.0667 -2.0940  0.1272
14770SOL    HW256784   2.377   7.876   2.135  1.1913  0.3774 -0.9394
14771SOL     OW56785   4.113   5.755   8.505  0.2477 -0.2118 -0.4344
14771SOL    HW156786   4.032   5.697   8.520 -1.1088  1.1824 -2.2308
14771SOL    HW256787   4.109   5.796   8.414  2.6125  0.4939 -0.2509
14772SOL     OW56788   3.756   0.202   6.888  0.5217  0.2717 -0.1445
14772SOL    HW156789   3.840   0.152   6.913  0.9197 -0.4193 -2.7160
14772SOL    HW256790   3.779   0.297   6.869  0.7863  0.0346 -1.0570
14773SOL     OW56791   3.119   6.787   6.083  0.2019 -0.1079  0.2291
14773SOL    HW156792   3.073   6.719   6.141  0.7048  1.0009  1.9754
14773SOL    HW256793   3.177   6.741   6.016  0.5363 -1.4054  1.3908
14774SOL     OW56794   4.847   0.532   3.589 -0.2210 -0.0735 -0.1734
14774SOL    HW156795   4.838   0.433   3.601  0.1853 -0.2688 -1.3897
14774SOL    HW256796   4.935   0.562   3.626 -0.4442 -0.1253  0.4044
14775SOL     OW56797   2.682   7.952   4.763 -0.1885  0.4776  0.5539
14775SOL    HW156798   2.754   8.010   4.802  1.1457 -0.9447  0.2767
14775SOL    HW256799   2.680   7.865   4.812 -1.9929  0.6362  0.7906
14776SOL     OW56800   2.619   3.502   8.339 -0.3391  0.2905 -0.4527
14776SOL    HW156801   2.679   3.528   8.415  1.5150 -1.4203 -1.2645
14776SOL    HW256802   2.632   3.405   8.318 -4.2799 -0.4241  0.0797
14777SOL     OW56803   3.402   5.401   5.562  0.0682 -0.0533 -0.2018
14777SOL    HW156804   3.425   5.319   5.615 -1.5693  0.5683  1.5510
14777SOL    HW256805   3.416   5.384   5.465  1.3163 -1.8612  0.2760
14778SOL     OW56806   2.709   0.926   5.693 -0.1117  0.2640 -0.2018
14778SOL    HW156807   2.683   0.835   5.661 -2.5230  0.9212 -0.2349
14778SOL    HW256808   2.677   0.939   5.787  0.0538  1.1520 -0.2651
14779SOL     OW56809   2.910   1.937   6.791  0.1585  0.0007 -0.5752
14779SOL    HW156810   2.851   1.978   6.722 -0.0692  0.7596  0.0703
14779SOL    HW256811   2.997   1.986   6.795  0.4518 -0.5011 -0.8411
14780SOL     OW56812   1.083   3.211   3.808  0.1309  0.0261  0.5100
14780SOL    HW156813   1.049   3.117   3.816  0.9869 -0.2391  1.0815
14780SOL    HW256814   1.053   3.250   3.721  2.3219 -1.8470 -1.1379
14781SOL     OW56815   0.232   1.901   5.385 -0.1301  0.0139  0.0188
14781SOL    HW156816   0.292   1.840   5.436  2.4574  2.0875 -0.4207
14781SOL    HW256817   0.150   1.922   5.439  0.7462 -0.8467  1.6865
14782SOL     OW56818   8.396   6.965   8.176  0.1363  0.5430  0.3348
14782SOL    HW156819   8.454   7.019   8.116  1.2072  0.0890  0.9387
14782SOL    HW256820   8.382   6.874   8.136  0.4800  0.3923  0.5548
14783SOL     OW56821   1.652   8.364   6.409  0.4559  0.5124  0.1475
14783SOL    HW156822   1.661   8.367   6.509 -0.0250 -0.6464  0.2386
14783SOL    HW256823   1.590   8.436   6.378 -1.4640 -0.7698  0.9431
14784SOL     OW56824   5.174   6.223   6.550  0.1520 -0.1588  0.4175
14784SOL    HW156825   5.199   6.169   6.469  1.0809  0.3767  0.3352
14784SOL    HW256826   5.257   6.261   6.591 -0.6117  2.6834 -0.5633
14785SOL     OW56827   3.484   8.012   5.055 -0.2123  0.0396  0.9150
14785SOL    HW156828   3.516   7.935   5.111  0.3004 -1.0544 -0.8388
14785SOL    HW256829   3.552   8.085   5.056  1.2390 -1.2508 -0.7619
14786SOL     OW56830   4.213   5.578   0.651  0.0408 -0.7341  0.4651
14786SOL    HW156831   4.201   5.549   0.746 -3.6406 -3.6597 -0.7604
14786SOL    HW256832   4.233   5.499   0.594  0.6374  0.7611 -1.4539
14787SOL     OW56833   4.626   3.277   5.218  0.1067 -0.6128  0.4282
14787SOL    HW156834   4.626   3.209   5.145 -0.0208  1.7502 -1.8709
14787SOL    HW256835   4.541   3.270   5.271 -0.5720 -1.2494 -0.7306
14788SOL     OW56836   8.976   7.763   5.557  0.0397 -0.1089  0.2151
14788SOL    HW156837   8.892   7.711   5.544 -0.8432  1.5782 -1.0003
14788SOL    HW256838   9.020   7.734   5.642 -0.6302 -2.5290 -0.2087
14789SOL     OW56839   8.241   6.784   5.207 -0.2176  0.1621  0.3227
14789SOL    HW156840   8.150   6.779   5.247 -0.3805  1.2120  0.0853
14789SOL    HW256841   8.242   6.851   5.133  0.2745 -1.1963 -0.9366
14790SOL     OW56842   1.337   6.656   0.273  0.3569  0.6201 -0.2146
14790SOL    HW156843   1.393   6.701   0.203  0.8897 -2.6493 -1.9775
14790SOL    HW256844   1.242   6.650   0.241 -0.1049  2.0465  0.8091
14791SOL     OW56845   8.261   0.559   3.199  0.0836 -0.2627 -0.3995
14791SOL    HW156846   8.239   0.619   3.275 -1.9221  0.0907 -1.2269
14791SOL    HW256847   8.327   0.490   3.229 -2.4272 -1.6023  2.3416
14792SOL     OW56848   1.683   3.195   3.336  0.0544 -0.2176 -0.3845
14792SOL    HW156849   1.741   3.212   3.257  0.7589 -1.6836 -0.1862
14792SOL    HW256850   1.611   3.130   3.312 -1.2077  1.1536 -0.4712
14793SOL     OW56851   1.670   3.127   7.376 -0.2580  0.2143  0.2829
14793SOL    HW156852   1.715   3.215   7.395  0.8148 -0.3664  0.4641
14793SOL    HW256853   1.577   3.129   7.412 -1.2851  2.3630 -2.2684
14794SOL     OW56854   5.341   3.422   6.280  0.0513 -0.1508  0.0000
14794SOL    HW156855   5.322   3.520   6.270  0.5469  0.0048  0.5315
14794SOL    HW256856   5.313   3.393   6.372  0.2924 -0.4154 -0.0115
14795SOL     OW56857   1.223   0.343   5.654 -0.3726  0.4935  0.5026
14795SOL    HW156858   1.248   0.408   5.726 -0.9882  1.6860 -0.3371
14795SOL    HW256859   1.271   0.366   5.569  0.1549 -0.7507  0.4535
14796SOL     OW56860   1.438   6.522   2.911  0.1770  0.2056 -0.4678
14796SOL    HW156861   1.434   6.427   2.944 -1.4691  0.0852 -0.9987
14796SOL    HW256862   1.399   6.582   2.981  2.1681  0.6206  0.3088
14797SOL     OW56863   1.630   2.984   1.753 -0.3240 -0.3863 -0.6866
14797SOL    HW156864   1.570   2.973   1.674  0.6291 -0.8248 -1.3708
14797SOL    HW256865   1.648   3.081   1.768 -0.3419 -0.3092 -1.1471
14798SOL     OW56866   0.372   5.535   3.668  0.2670 -0.3863 -0.4980
14798SOL    HW156867   0.385   5.519   3.766 -1.1417 -0.1536 -0.2649
14798SOL    HW256868   0.305   5.470   3.632  0.0346  0.1803 -1.0960
14799SOL     OW56869   0.438   8.967   8.603  0.1579 -0.1576 -0.4612
14799SOL    HW156870   0.344   8.956   8.636  0.1262 -0.2435 -0.5779
14799SOL    HW256871   0.442   8.941   8.506  0.3806 -0.5380 -0.3538
14800SOL     OW56872   2.241   1.955   7.487  0.2558  0.0724  0.1621
14800SOL    HW156873   2.269   2.031   7.544  2.1083  0.1396 -0.7905
14800SOL    HW256874   2.226   1.987   7.393 -1.3843 -0.2853  0.2958
14801SOL     OW56875   2.538   8.383   0.380 -0.0206  0.3637 -0.1026
14801SOL    HW156876   2.497   8.460   0.428 -0.4586  0.4229 -0.5668
14801SOL    HW256877   2.493   8.371   0.292 -1.4235 -1.7497  0.8567
14802SOL     OW56878   6.545   5.851   8.710  0.1465 -0.2465  0.5583
14802SOL    HW156879   6.460   5.862   8.762  1.6815  0.1670  3.0906
14802SOL    HW256880   6.567   5.754   8.702  0.1178 -0.2961  1.0640
14803SOL     OW56881   2.824   7.756   3.112  0.1731 -0.1723 -0.3027
14803SOL    HW156882   2.876   7.702   3.178 -1.4509 -0.6908  0.5725
14803SOL    HW256883   2.836   7.853   3.132 -0.5804 -0.3327  0.9784
14804SOL     OW56884   6.671   1.041   4.041  0.2247  0.6584  0.0433
14804SOL    HW156885   6.722   1.087   3.969 -0.9134 -0.2812 -1.4006
14804SOL    HW256886   6.660   0.944   4.018  1.7124 -0.1522  2.5416
14805SOL     OW56887   5.514   4.040   8.520  0.3820  0.5721 -0.0677
14805SOL    HW156888   5.443   4.051   8.590 -1.1293 -1.8774 -1.1541
14805SOL    HW256889   5.574   3.964   8.546 -0.2079 -0.3671 -1.4256
14806SOL     OW56890   0.874   4.948   8.021  0.0136 -0.0742  0.1104
14806SOL    HW156891   0.940   4.901   7.962 -0.6433  0.5774 -1.1645
14806SOL    HW256892   0.916   5.032   8.057  0.6719 -0.8536  1.1863
14807SOL     OW56893   4.110   8.091   5.895 -0.5207 -0.6760 -0.3510
14807SOL    HW156894   4.205   8.084   5.926 -0.3802 -0.1002 -0.6367
14807SOL    HW256895   4.048   8.083   5.973 -0.1652  1.0230  0.1270
14808SOL     OW56896   1.806   0.343   7.559 -0.1852  0.0550 -0.1971
14808SOL    HW156897   1.832   0.336   7.655 -0.4165 -0.0911 -0.1448
14808SOL    HW256898   1.792   0.440   7.536 -0.7439  0.0416  0.0789
14809SOL     OW56899   1.459   7.376   2.970 -0.2019  0.3783  0.5795
14809SOL    HW156900   1.376   7.428   2.989  0.3733  1.0501  1.3042
14809SOL    HW256901   1.449   7.283   3.006 -1.6938 -0.4107 -1.7818
14810SOL     OW56902   6.743   7.637   3.904 -0.5865  0.1330  0.0797
14810SOL    HW156903   6.670   7.671   3.963 -0.7452  1.1339 -0.6887
14810SOL    HW256904   6.704   7.594   3.823 -0.3163  1.1696 -0.6069
14811SOL     OW56905   6.488   3.631   4.623 -0.2491 -0.1338 -0.2808
14811SOL    HW156906   6.508   3.680   4.707 -0.2598 -0.1018 -0.2973
14811SOL    HW256907   6.544   3.548   4.617 -0.2242 -0.1184 -0.2583
14812SOL     OW56908   7.334   8.197   6.677 -0.1780 -0.3781 -0.0692
14812SOL    HW156909   7.254   8.256   6.666 -0.2619 -0.4826 -0.0195
14812SOL    HW256910   7.409   8.233   6.622  0.2003  0.5535  1.0278
14813SOL     OW56911   3.798   0.511   2.077 -0.1987 -0.1378 -0.3685
14813SOL    HW156912   3.861   0.541   2.150 -1.5228  0.8567  0.3781
14813SOL    HW256913   3.744   0.433   2.110 -1.4511  0.8994  0.0465
14814SOL     OW56914   8.386   3.062   3.883 -0.1067 -0.6119  0.1666
14814SOL    HW156915   8.401   2.966   3.859  1.0555 -0.0964 -1.2107
14814SOL    HW256916   8.372   3.116   3.800  0.8187  0.6697  0.8357
14815SOL     OW56917   5.236   0.361   5.386 -0.4814 -0.2444 -0.0717
14815SOL    HW156918   5.213   0.280   5.333 -2.0786  0.1676 -0.0556
14815SOL    HW256919   5.314   0.407   5.345  0.0448 -1.4499 -0.4403
14816SOL     OW56920   2.250   5.114   3.833  0.0885  0.4832  0.6316
14816SOL    HW156921   2.331   5.055   3.830 -0.5006 -0.2634 -0.4366
14816SOL    HW256922   2.197   5.104   3.749 -1.0250  1.1143  1.2441
14817SOL     OW56923   8.708   2.683   2.471  0.5483  0.5977  0.3635
14817SOL    HW156924   8.767   2.607   2.443 -0.1138  0.5150 -0.8087
14817SOL    HW256925   8.632   2.648   2.525  0.4408  0.4706  0.1290
14818SOL     OW56926   1.060   2.651   2.606  0.3754  0.2060  0.3718
14818SOL    HW156927   1.102   2.716   2.542  1.1074 -0.6415 -0.0116
14818SOL    HW256928   1.050   2.695   2.695 -0.2454  1.2485 -0.2023
14819SOL     OW56929   2.498   3.175   2.420  0.0057 -0.3214 -0.3595
14819SOL    HW156930   2.454   3.231   2.350  0.4913  0.8609  0.2569
14819SOL    HW256931   2.587   3.144   2.385  0.8634  1.4045  0.2050
14820SOL     OW56932   5.181   7.290   3.906  0.6721  0.5002  0.2088
14820SOL    HW156933   5.280   7.302   3.916  0.6321  1.3480 -0.2627
14820SOL    HW256934   5.149   7.217   3.966  1.8062 -0.7659 -0.6900
14821SOL     OW56935   2.693   3.658   2.487 -0.5297 -0.6946 -0.1520
14821SOL    HW156936   2.644   3.652   2.574 -0.4698 -0.2629 -0.0857
14821SOL    HW256937   2.630   3.638   2.412 -0.4338 -1.6679  0.0265
14822SOL     OW56938   8.792   5.543   6.720  0.0331 -0.0094  0.0456
14822SOL    HW156939   8.860   5.514   6.787  0.9029  0.5000 -0.6060
14822SOL    HW256940   8.710   5.575   6.768  0.2647 -0.5800  0.8373
14823SOL     OW56941   3.462   6.696   0.494 -0.4677 -0.0299  0.5363
14823SOL    HW156942   3.488   6.701   0.590 -0.3092 -0.0700  0.4959
14823SOL    HW256943   3.425   6.784   0.465 -0.5822 -0.0404  0.6533
14824SOL     OW56944   3.418   5.986   2.685 -0.1687 -0.2330  0.0453
14824SOL    HW156945   3.426   5.922   2.761 -0.3326  1.5577  1.6097
14824SOL    HW256946   3.371   5.942   2.609 -0.4512 -1.8999  1.1589
14825SOL     OW56947   0.984   5.627   1.307  0.1491 -0.0642  0.2629
14825SOL    HW156948   1.042   5.559   1.262 -1.8828 -1.0538 -0.9157
14825SOL    HW256949   0.986   5.611   1.406 -0.3383 -1.8814 -0.0014
14826SOL     OW56950   5.190   4.824   5.992  0.2982 -0.0387  0.1238
14826SOL    HW156951   5.171   4.745   6.050 -0.5260 -0.6201 -0.9181
14826SOL    HW256952   5.112   4.886   5.993  0.9687  0.7935  0.9826
14827SOL     OW56953   2.881   0.649   8.923 -0.3289 -0.5778  0.8012
14827SOL    HW156954   2.910   0.725   8.981 -0.3871 -0.0826  0.1815
14827SOL    HW256955   2.801   0.676   8.870  0.5593 -0.5509 -0.5551
14828SOL     OW56956   1.479   7.082   0.677  0.7025 -0.8502  0.2547
14828SOL    HW156957   1.451   7.021   0.751  2.6941 -2.9809 -0.6981
14828SOL    HW256958   1.546   7.148   0.712 -0.7196  0.2004  1.0548
14829SOL     OW56959   5.500   5.265   4.853 -0.1373  0.3755  0.0372
14829SOL    HW156960   5.495   5.181   4.798 -2.6225  0.5328  0.0057
14829SOL    HW256961   5.554   5.247   4.935 -0.5081 -1.2096 -0.0485
14830SOL     OW56962   6.705   3.812   0.416  0.0990  0.6117 -0.2978
14830SOL    HW156963   6.723   3.863   0.332  0.6598  1.7973  0.5093
14830SOL    HW256964   6.607   3.794   0.424  0.2830 -1.2898 -2.1843
14831SOL     OW56965   1.757   1.090   7.564 -0.1986 -0.3907  0.2272
14831SOL    HW156966   1.732   1.006   7.613  0.5148 -2.4972 -2.8964
14831SOL    HW256967   1.856   1.101   7.564 -0.3224  0.9093  1.2792
14832SOL     OW56968   7.293   2.259   0.257 -0.0494  0.1444 -0.5084
14832SOL    HW156969   7.199   2.248   0.225  0.3352 -0.9720 -1.2589
14832SOL    HW256970   7.301   2.222   0.350 -0.0413 -0.9792 -0.9508
14833SOL     OW56971   4.258   5.959   6.777 -0.6540  0.0910  0.0881
14833SOL    HW156972   4.172   5.936   6.732 -0.9031  1.5046 -0.2101
14833SOL    HW256973   4.324   5.991   6.708  0.1749 -1.1516  0.2893
14834SOL     OW56974   3.418   7.809   6.205  0.0858  0.4133 -0.0154
14834SOL    HW156975   3.472   7.876   6.153  1.7281 -1.1631 -0.3743
14834SOL    HW256976   3.337   7.783   6.152 -0.8664  2.4805  0.3560
14835SOL     OW56977   8.949   0.887   0.160 -0.3184 -0.1645 -0.4074
14835SOL    HW156978   8.968   0.815   0.093 -0.0689  0.1669 -0.6987
14835SOL    HW256979   8.863   0.868   0.207 -0.4056 -0.4919 -0.6998
14836SOL     OW56980   5.055   5.649   3.308 -0.1733 -0.5836  0.0230
14836SOL    HW156981   4.980   5.619   3.367  0.0761  0.2755  0.8041
14836SOL    HW256982   5.026   5.727   3.254 -0.0098 -0.5872 -0.0718
14837SOL     OW56983   0.370   6.375   0.880 -0.3075 -0.0994 -0.0291
14837SOL    HW156984   0.358   6.356   0.978  1.6661  0.7158  0.3793
14837SOL    HW256985   0.336   6.467   0.860 -1.2555 -0.4874 -0.2355
14838SOL     OW56986   5.909   6.009   4.752 -0.0069 -1.0186  0.0208
14838SOL    HW156987   5.859   5.974   4.673 -1.3874 -0.6333  0.7083
14838SOL    HW256988   5.983   5.945   4.776  0.8637 -0.7952 -1.9800
14839SOL     OW56989   1.421   2.737   1.037 -0.5188 -0.1028 -0.0787
14839SOL    HW156990   1.396   2.828   1.070 -1.1991 -0.9175  1.7208
14839SOL    HW256991   1.521   2.727   1.042 -0.5071  0.2524  0.5292
14840SOL     OW56992   4.332   7.221   7.519  0.3517  0.4413 -0.2382
14840SOL    HW156993   4.268   7.146   7.500  0.7021  0.4055 -1.3014
14840SOL    HW256994   4.289   7.308   7.496 -0.6291  0.7218  2.4509
14841SOL     OW56995   5.775   7.911   8.485  0.0671 -0.6898  0.4059
14841SOL    HW156996   5.685   7.868   8.471  0.5733 -2.5250  2.5293
14841SOL    HW256997   5.839   7.876   8.417 -0.7123  0.2996 -0.8499
14842SOL     OW56998   6.773   7.180   6.664  0.4609  0.0816 -0.1884
14842SOL    HW156999   6.792   7.261   6.608 -0.4545  0.3430 -0.1363
14842SOL    HW257000   6.797   7.199   6.759  2.9950 -0.7134 -0.6302
14843SOL     OW57001   4.588   8.138   6.726 -0.0294 -0.4578 -0.7379
14843SOL    HW157002   4.529   8.080   6.669 -0.0899  0.5935 -1.7705
14843SOL    HW257003   4.537   8.166   6.808 -0.1404 -1.5035 -0.4380
14844SOL     OW57004   4.626   7.556   0.419  0.6787 -0.1205 -0.5196
14844SOL    HW157005   4.601   7.524   0.328  0.0651  0.3911 -0.5393
14844SOL    HW257006   4.550   7.541   0.482  0.7262  0.4374 -0.3208
14845SOL     OW57007   2.979   0.529   1.031  0.0511 -0.6023 -0.0825
14845SOL    HW157008   3.010   0.537   0.937  0.6765 -0.3992  0.1382
14845SOL    HW257009   3.010   0.443   1.070  2.2634  0.5629  0.8323
14846SOL     OW57010   1.284   8.582   6.807  0.5619  0.0765 -0.1522
14846SOL    HW157011   1.199   8.529   6.802  0.5717 -0.1906  1.9461
14846SOL    HW257012   1.271   8.670   6.763 -1.3279  0.6785  1.5341
14847SOL     OW57013   7.331   8.712   0.308  0.5975 -0.1238  0.2470
14847SOL    HW157014   7.403   8.718   0.239  0.6751  0.1331  0.3517
14847SOL    HW257015   7.253   8.768   0.280  1.0870  0.9127  0.9281
14848SOL     OW57016   4.248   2.212   6.981  0.5689 -0.4961 -0.4107
14848SOL    HW157017   4.232   2.254   6.892 -1.1817 -0.5531 -0.1399
14848SOL    HW257018   4.277   2.118   6.969  0.0563 -0.5909 -0.9286
14849SOL     OW57019   4.769   5.787   7.151 -0.1324 -0.8227  0.3460
14849SOL    HW157020   4.735   5.815   7.241 -0.8637 -0.0851 -0.1448
14849SOL    HW257021   4.861   5.824   7.137 -0.3302 -0.2648  0.4808
14850SOL     OW57022   1.111   5.911   1.684  0.2567 -0.3228  0.6061
14850SOL    HW157023   1.072   5.820   1.696  2.4658 -1.2719  0.8698
14850SOL    HW257024   1.167   5.934   1.764  0.9082  0.6341 -0.1123
14851SOL     OW57025   1.951   6.743   8.172  0.3257  0.0615  0.4590
14851SOL    HW157026   1.899   6.660   8.191 -0.5631  0.3410 -0.7128
14851SOL    HW257027   2.041   6.720   8.137  0.2194 -0.4147  0.5034
14852SOL     OW57028   5.071   1.412   0.120 -0.0443  0.0735  0.4265
14852SOL    HW157029   5.109   1.364   0.199 -0.0104  1.4761  1.2798
14852SOL    HW257030   5.039   1.345   0.053  0.2917 -1.1365  1.4473
14853SOL     OW57031   8.890   4.173   3.361 -0.5215  0.4162  0.3936
14853SOL    HW157032   8.801   4.199   3.401 -0.4125  0.2990  0.7160
14853SOL    HW257033   8.962   4.190   3.428 -0.0371  2.5770 -0.6193
14854SOL     OW57034   4.892   1.527   1.342  0.2159 -0.9631 -0.4272
14854SOL    HW157035   4.905   1.441   1.391 -2.3749 -1.1437  0.0127
14854SOL    HW257036   4.946   1.599   1.386 -1.9197 -1.1443  2.6512
14855SOL     OW57037   2.536   0.944   3.553  0.4860  0.4415  0.3657
14855SOL    HW157038   2.542   0.867   3.617  1.2828  0.1363 -0.0705
14855SOL    HW257039   2.539   1.030   3.604 -1.6607  0.1803  0.9591
14856SOL     OW57040   3.057   7.099   1.664 -0.1947  0.6432 -0.3568
14856SOL    HW157041   3.129   7.163   1.693 -0.1700  0.8092 -0.7881
14856SOL    HW257042   3.073   7.073   1.569 -0.0769 -0.1748 -0.1186
14857SOL     OW57043   4.541   0.676   2.613 -0.3892 -0.1673 -0.0255
14857SOL    HW157044   4.519   0.710   2.704 -0.5356  1.0987 -0.5218
14857SOL    HW257045   4.558   0.753   2.552  0.7698 -1.0229 -0.8076
14858SOL     OW57046   3.962   2.182   0.976  0.1184 -0.1292 -0.0443
14858SOL    HW157047   4.022   2.249   0.933  0.8219  0.2303  1.4712
14858SOL    HW257048   4.006   2.093   0.976 -0.0907 -0.2378 -0.4872
14859SOL     OW57049   1.393   8.106   1.666 -0.3619  0.4504  0.2703
14859SOL    HW157050   1.413   8.008   1.660 -0.6212  0.5178 -2.1303
14859SOL    HW257051   1.452   8.156   1.604 -4.6934  1.1151 -3.6061
14860SOL     OW57052   4.704   5.033   6.640 -0.0522  0.5612  0.1439
14860SOL    HW157053   4.737   5.127   6.636 -2.2198  1.3345 -0.0434
14860SOL    HW257054   4.616   5.030   6.689 -0.2273 -1.2854 -0.2525
14861SOL     OW57055   5.170   0.897   0.497 -0.2305 -0.1914  0.4960
14861SOL    HW157056   5.153   0.975   0.438  0.0040 -0.0788  0.5739
14861SOL    HW257057   5.155   0.812   0.446 -0.9435 -0.0997  0.5484
14862SOL     OW57058   3.502   7.951   2.244 -0.1304  0.2457  0.1077
14862SOL    HW157059   3.446   8.008   2.305 -0.6838  2.3648 -2.2809
14862SOL    HW257060   3.449   7.929   2.162  1.4091 -0.5757 -0.6747
14863SOL     OW57061   8.052   1.954   3.553  0.2533 -0.0747  0.5992
14863SOL    HW157062   8.078   1.858   3.560 -2.4569 -0.8165  1.3462
14863SOL    HW257063   7.967   1.961   3.499  1.8086  2.1804 -1.6737
14864SOL     OW57064   8.059   2.264   8.933  0.0389 -0.0544  0.0074
14864SOL    HW157065   8.091   2.193   8.997  1.8081  2.3179  1.8456
14864SOL    HW257066   7.968   2.295   8.961  0.0813 -0.2465  0.3671
14865SOL     OW57067   5.055   0.416   7.791 -0.4476 -0.4884 -0.2282
14865SOL    HW157068   5.136   0.455   7.749 -0.8434  0.3181 -0.2392
14865SOL    HW257069   5.029   0.470   7.871 -1.0068 -0.7184 -0.2528
14866SOL     OW57070   7.775   8.742   1.160  0.3620 -0.1916 -0.2186
14866SOL    HW157071   7.807   8.680   1.088  0.6637 -0.9381  0.5591
14866SOL    HW257072   7.753   8.831   1.119  0.4195 -0.6440 -1.2557
14867SOL     OW57073   2.953   1.938   1.454 -0.0304  0.0405 -0.1381
14867SOL    HW157074   2.887   1.978   1.518 -0.3651 -1.3932  0.4322
14867SOL    HW257075   2.905   1.886   1.383  0.4177  0.1596 -0.5318
14868SOL     OW57076   3.613   2.345   7.326  0.1318 -0.1362 -0.1844
14868SOL    HW157077   3.618   2.286   7.406  3.0226 -0.6335 -0.6601
14868SOL    HW257078   3.529   2.327   7.275  1.0361 -3.9826 -0.4242
14869SOL     OW57079   2.267   0.463   7.416  0.0215 -0.2178  0.0373
14869SOL    HW157080   2.246   0.385   7.476 -2.2755 -0.5395 -1.1025
14869SOL    HW257081   2.292   0.429   7.325  2.0298  0.3101  0.3698
14870SOL     OW57082   4.939   8.192   6.151  0.0064 -0.0083  1.0684
14870SOL    HW157083   4.898   8.189   6.242  0.5759  1.1775  1.3656
14870SOL    HW257084   4.914   8.278   6.106  0.0804 -0.4006  0.2716
14871SOL     OW57085   8.732   6.010   6.676  0.0665  0.2240 -0.2949
14871SOL    HW157086   8.696   6.081   6.615 -2.1125 -0.4119  0.1965
14871SOL    HW257087   8.832   6.009   6.671 -0.0110  1.2882 -2.5828
14872SOL     OW57088   2.050   0.211   6.842  0.5883  0.4636  0.4096
14872SOL    HW157089   2.137   0.192   6.795 -0.5536 -1.8461 -0.8402
14872SOL    HW257090   1.977   0.218   6.775 -0.4362  1.0375  1.5689
14873SOL     OW57091   4.448   7.732   4.381 -0.0759 -0.3316  0.3924
14873SOL    HW157092   4.485   7.677   4.456  1.7958  0.9481  0.4198
14873SOL    HW257093   4.370   7.785   4.414 -0.3389 -1.0734  0.9861
14874SOL     OW57094   2.658   8.144   5.914 -0.5480 -0.2964 -1.0265
14874SOL    HW157095   2.675   8.241   5.898  2.9744 -0.7593 -0.3817
14874SOL    HW257096   2.573   8.118   5.868 -3.3761  3.7643  1.5303
14875SOL     OW57097   6.373   7.053   6.209 -0.0353  0.3659 -0.5288
14875SOL    HW157098   6.338   7.147   6.214 -0.6811  0.1771 -1.3730
14875SOL    HW257099   6.382   7.016   6.301  0.9148  1.5077 -0.1482
14876SOL     OW57100   4.007   5.149   7.008  0.4605 -0.3808  0.2182
14876SOL    HW157101   3.926   5.101   6.977  1.9927 -0.4755 -3.9262
14876SOL    HW257102   3.998   5.247   6.988  1.2486 -0.3508 -0.0181
14877SOL     OW57103   6.328   0.350   0.512 -0.4099 -0.3334 -0.2890
14877SOL    HW157104   6.290   0.403   0.589  0.3793  1.0394 -0.8201
14877SOL    HW257105   6.345   0.411   0.435  0.4293 -1.3939 -0.9624
14878SOL     OW57106   7.530   5.976   6.266 -0.1027 -0.4148 -0.0313
14878SOL    HW157107   7.613   6.030   6.259  0.5650 -1.3929  0.2124
14878SOL    HW257108   7.526   5.911   6.189 -1.7226  1.0975 -1.2650
14879SOL     OW57109   2.432   8.977   6.931  0.3077 -0.8961  0.2596
14879SOL    HW157110   2.407   8.880   6.924 -0.3869 -0.6097 -1.7639
14879SOL    HW257111   2.449   9.013   6.839 -0.7084  1.2094  0.8592
14880SOL     OW57112   3.881   1.526   7.149 -0.6867  0.6178 -0.2010
14880SOL    HW157113   3.888   1.431   7.118 -0.2218  0.6416 -0.1721
14880SOL    HW257114   3.785   1.554   7.147 -0.8448  0.1039 -0.0719
14881SOL     OW57115   6.824   8.117   0.208 -0.2638  0.8178  0.6117
14881SOL    HW157116   6.884   8.177   0.156 -0.2571  0.7403  0.5301
14881SOL    HW257117   6.868   8.094   0.295 -0.0662  0.5588  0.4453
14882SOL     OW57118   7.720   7.961   7.389 -0.8750  0.8159 -0.8991
14882SOL    HW157119   7.708   7.979   7.291 -0.2646 -1.6389 -1.4557
14882SOL    HW257120   7.776   8.033   7.429  1.6794  0.1169 -3.0707
14883SOL     OW57121   1.870   6.974   5.286  0.1371  0.0492  0.0058
14883SOL    HW157122   1.927   7.004   5.210  0.0937  1.0726  0.3728
14883SOL    HW257123   1.910   6.893   5.328  1.3963  0.8248  0.3288
14884SOL     OW57124   6.625   0.159   6.900 -0.1176  0.5644  0.1101
14884SOL    HW157125   6.543   0.200   6.941  0.0447  0.1996  0.8117
14884SOL    HW257126   6.704   0.182   6.956 -0.3572 -2.8477  1.9887
14885SOL     OW57127   6.265   8.371   8.814  0.1600 -0.5273  1.1937
14885SOL    HW157128   6.358   8.358   8.780 -0.7479 -0.2099 -1.5517
14885SOL    HW257129   6.207   8.296   8.784 -1.0849  0.6950  0.4682
14886SOL     OW57130   7.479   4.390   4.868  0.3793 -0.4963  0.3837
14886SOL    HW157131   7.451   4.416   4.776 -0.3971  2.5450  1.4506
14886SOL    HW257132   7.398   4.372   4.924  0.6725  1.9810  1.6676
14887SOL     OW57133   4.350   7.953   8.793 -0.0569  0.4594  0.3003
14887SOL    HW157134   4.303   7.878   8.747  0.9856 -0.6884  1.0543
14887SOL    HW257135   4.356   8.032   8.731 -2.0854  0.3035 -0.1319
14888SOL     OW57136   4.600   4.093   0.777 -0.1193  0.2501  0.2514
14888SOL    HW157137   4.511   4.118   0.815  0.0495  0.0379  0.7956
14888SOL    HW257138   4.673   4.137   0.830  0.1177  0.0047  0.1354
14889SOL     OW57139   3.385   3.929   4.962  0.4285 -0.0130  0.0802
14889SOL    HW157140   3.459   3.862   4.965 -0.3955 -0.9144  0.7832
14889SOL    HW257141   3.319   3.903   4.892  0.8530  0.8773 -0.6572
14890SOL     OW57142   1.276   0.814   5.855  0.0497  0.1255 -0.1267
14890SOL    HW157143   1.199   0.865   5.893 -0.3635 -0.2284 -0.4808
14890SOL    HW257144   1.357   0.871   5.854 -0.3809  0.7323 -0.4049
14891SOL     OW57145   4.182   0.826   0.230  0.2148  0.1275  0.0670
14891SOL    HW157146   4.234   0.772   0.296 -0.7173 -0.4917  0.2989
14891SOL    HW257147   4.140   0.765   0.162 -2.9334  0.2764  1.7815
14892SOL     OW57148   5.637   7.106   4.061  0.0732 -0.9197  0.1173
14892SOL    HW157149   5.691   7.137   4.139  1.3166 -0.5600 -0.8727
14892SOL    HW257150   5.648   7.007   4.050  1.7709 -0.6305 -0.9908
14893SOL     OW57151   1.958   1.126   5.302  0.5895 -0.1070 -0.7214
14893SOL    HW157152   1.938   1.219   5.333 -1.4489 -0.1181 -1.9813
14893SOL    HW257153   2.047   1.125   5.256  0.1088  1.4426 -1.7003
14894SOL     OW57154   2.020   0.082   0.209  0.1171  0.0714  0.2062
14894SOL    HW157155   1.966   0.076   0.126  0.6151 -2.1476  0.0197
14894SOL    HW257156   2.117   0.081   0.187  0.2658 -1.5796  0.8425
14895SOL     OW57157   8.316   5.377   0.295 -0.0026 -0.1861 -0.5267
14895SOL    HW157158   8.352   5.452   0.350 -1.2508 -0.7267  1.0754
14895SOL    HW257159   8.271   5.311   0.355 -1.9082 -0.5031 -2.2723
14896SOL     OW57160   6.525   8.311   0.029 -0.3268  0.6411  0.3285
14896SOL    HW157161   6.551   8.317  -0.067  0.5631  1.9872  0.6282
14896SOL    HW257162   6.568   8.386   0.080 -1.3618  0.3694  1.6454
14897SOL     OW57163   5.083   7.284   7.618  0.3916 -0.3132 -0.0445
14897SOL    HW157164   5.037   7.371   7.601  0.2417 -0.6239 -1.2786
14897SOL    HW257165   5.040   7.212   7.564  0.2301 -1.2493  1.3166
14898SOL     OW57166   7.127   7.765   0.061  0.3083  0.6919 -0.1352
14898SOL    HW157167   7.109   7.684   0.116  0.7870 -0.7068 -1.9620
14898SOL    HW257168   7.226   7.779   0.055  0.3597 -0.2880 -2.1319
14899SOL     OW57169   4.696   2.361   7.474 -0.0844 -0.2753 -0.4130
14899SOL    HW157170   4.791   2.328   7.474  0.2135  0.5598 -1.5920
14899SOL    HW257171   4.641   2.302   7.533  1.1400 -0.8419  0.2035
14900SOL     OW57172   2.676   7.370   0.944 -0.3613  0.0749 -0.6921
14900SOL    HW157173   2.699   7.353   0.848 -0.2756 -2.7557 -0.2311
14900SOL    HW257174   2.625   7.291   0.980  1.3801  0.1648  2.1451
14901SOL     OW57175   0.182   5.793   2.018  0.7837  0.0167  0.1420
14901SOL    HW157176   0.246   5.856   2.061  0.7864 -0.1704  0.4131
14901SOL    HW257177   0.177   5.813   1.920  2.8991 -1.3207 -0.2919
14902SOL     OW57178   1.478   7.503   0.597  0.0974  0.7517  0.6141
14902SOL    HW157179   1.495   7.443   0.675  2.3495 -0.7589 -0.9801
14902SOL    HW257180   1.423   7.453   0.529  1.8079  0.5376 -0.6305
14903SOL     OW57181   0.820   5.630   5.993 -0.3284 -0.0523 -0.3508
14903SOL    HW157182   0.762   5.644   6.073 -0.8946 -0.0357 -0.7573
14903SOL    HW257183   0.879   5.551   6.008  0.4755  0.7233  0.5884
14904SOL     OW57184   2.777   6.938   0.322  0.2754 -0.4583 -0.2800
14904SOL    HW157185   2.840   6.934   0.245  0.7536  0.8677  0.0167
14904SOL    HW257186   2.828   6.926   0.407 -0.5042 -3.7931 -0.2215
14905SOL     OW57187   5.564   8.343   8.522  0.1411  0.4118 -0.2477
14905SOL    HW157188   5.530   8.272   8.584  0.8585 -0.4330 -0.8081
14905SOL    HW257189   5.602   8.418   8.576  3.5704 -1.6776  0.3857
14906SOL     OW57190   3.744   8.556   2.993 -0.0929  0.3935  0.7839
14906SOL    HW157191   3.788   8.482   2.943 -2.8270 -0.4154 -0.4915
14906SOL    HW257192   3.784   8.644   2.965  0.3163 -0.2723 -0.7550
14907SOL     OW57193   5.681   4.998   1.777  0.4100  0.0497  0.3499
14907SOL    HW157194   5.743   5.057   1.829  0.0501  0.2065  0.6077
14907SOL    HW257195   5.618   5.055   1.723 -0.3750 -0.0762  1.1128
14908SOL     OW57196   2.459   2.395   6.748 -0.5847  0.2778  0.4573
14908SOL    HW157197   2.397   2.443   6.686  1.1236 -0.6217 -2.0110
14908SOL    HW257198   2.542   2.450   6.760 -0.1908 -0.3443  0.5702
14909SOL     OW57199   3.547   1.657   4.519 -0.4349 -0.1834  0.7787
14909SOL    HW157200   3.588   1.745   4.545 -0.3148 -0.0777  0.2209
14909SOL    HW257201   3.513   1.662   4.426  1.2241 -1.3136  0.0924
14910SOL     OW57202   5.262   6.896   3.986  0.1929  0.6525 -0.2092
14910SOL    HW157203   5.357   6.878   4.011 -0.6638 -2.2478  1.1190
14910SOL    HW257204   5.250   6.886   3.888  0.9483 -0.5369 -0.1845
14911SOL     OW57205   6.151   3.092   0.220 -0.1089  0.0971 -0.2709
14911SOL    HW157206   6.241   3.060   0.251  0.6306  1.3429 -1.0985
14911SOL    HW257207   6.159   3.134   0.130 -1.5979 -0.1260 -0.5276
14912SOL     OW57208   1.906   3.414   7.258  0.1706 -0.4583 -0.6937
14912SOL    HW157209   1.895   3.499   7.207 -0.1626 -0.9759 -1.5006
14912SOL    HW257210   1.905   3.433   7.356 -0.8466  0.3542 -0.8581
14913SOL     OW57211   2.014   5.091   8.867 -0.7857 -0.3796  0.0646
14913SOL    HW157212   2.030   5.102   8.769  1.0583  1.6532  0.5624
14913SOL    HW257213   2.081   5.027   8.905 -0.6342 -0.1316  0.2227
14914SOL     OW57214   1.324   8.323   0.993 -0.5683 -0.0146 -0.1286
14914SOL    HW157215   1.355   8.291   1.083  0.3739 -0.1329 -0.4924
14914SOL    HW257216   1.363   8.265   0.922 -0.7772  0.4905 -0.6587
14915SOL     OW57217   7.864   3.698   0.166 -0.6025 -0.2790  0.0597
14915SOL    HW157218   7.862   3.640   0.085 -0.7225  0.3976 -0.4316
14915SOL    HW257219   7.842   3.644   0.247  2.3185 -1.5705  0.0396
14916SOL     OW57220   4.942   8.755   1.915  0.2850  0.2707 -0.1789
14916SOL    HW157221   4.866   8.692   1.934  0.5699  0.5009  1.8395
14916SOL    HW257222   4.963   8.807   1.997  2.0459  0.8703 -0.9847
14917SOL     OW57223   1.533   4.326   2.230  0.3962  0.3712  0.1473
14917SOL    HW157224   1.515   4.260   2.303  0.5878  0.0739 -0.0689
14917SOL    HW257225   1.447   4.352   2.186  0.6569 -2.8213 -2.4232
14918SOL     OW57226   6.679   2.568   7.336  0.0629  0.9378  0.1374
14918SOL    HW157227   6.735   2.596   7.413 -1.4596  4.5755  0.0086
14918SOL    HW257228   6.686   2.469   7.324  2.1228  0.6131  3.4634
14919SOL     OW57229   8.707   2.931   2.346 -0.0964 -0.0733  0.0660
14919SOL    HW157230   8.629   2.926   2.284  2.0253  0.6473 -2.7715
14919SOL    HW257231   8.721   2.841   2.388 -1.8783 -0.4515 -0.1187
14920SOL     OW57232   7.048   1.455   1.801  0.3921  0.0982  0.2752
14920SOL    HW157233   7.003   1.522   1.861  0.0861  0.5914 -0.4936
14920SOL    HW257234   6.982   1.420   1.736  0.5474 -0.9993  0.7027
14921SOL     OW57235   1.433   5.271   4.933 -0.1412  0.8143  0.3824
14921SOL    HW157236   1.391   5.244   4.846  0.2424 -0.7394  0.6669
14921SOL    HW257237   1.513   5.214   4.951  0.7102  2.1637  1.0098
14922SOL     OW57238   5.260   5.178   2.194  0.3191  0.3271  0.1740
14922SOL    HW157239   5.193   5.119   2.150 -0.0086  0.0350  1.0562
14922SOL    HW257240   5.351   5.137   2.187  0.2108  0.1006  0.1019
14923SOL     OW57241   0.874   8.737   8.665 -0.0002 -0.0468 -0.0833
14923SOL    HW157242   0.868   8.837   8.661  1.8301  0.1026  0.1020
14923SOL    HW257243   0.872   8.700   8.572  0.6958  0.2852 -0.2415
14924SOL     OW57244   4.812   5.176   7.676  0.7799 -0.2576 -0.5825
14924SOL    HW157245   4.780   5.270   7.683 -0.2679 -0.6634  0.2608
14924SOL    HW257246   4.846   5.159   7.584 -1.3513  0.2307 -1.4815
14925SOL     OW57247   6.742   3.088   7.747  0.6627 -0.3953  0.0937
14925SOL    HW157248   6.750   3.182   7.782 -1.1318 -0.0656 -0.3764
14925SOL    HW257249   6.756   3.024   7.822  1.2201  0.2539  0.5549
14926SOL     OW57250   3.362   6.965   0.428 -0.1879  0.0032  0.1286
14926SOL    HW157251   3.411   7.016   0.357 -0.8943 -1.1200 -1.1832
14926SOL    HW257252   3.290   7.023   0.467  1.0325  1.0660  0.8651
14927SOL     OW57253   6.487   6.618   6.616 -0.5062 -0.2345  0.1653
14927SOL    HW157254   6.445   6.611   6.525 -0.4907  2.1601 -0.0487
14927SOL    HW257255   6.422   6.659   6.679  0.4189  0.5795  0.5949
14928SOL     OW57256   4.071   8.869   4.332  0.1938 -0.1561  0.0713
14928SOL    HW157257   4.105   8.808   4.403  1.2526  1.2593  0.7903
14928SOL    HW257258   4.147   8.917   4.289 -0.4961 -0.4826 -1.5640
14929SOL     OW57259   5.558   0.196   2.641  0.8617 -0.4894 -0.7208
14929SOL    HW157260   5.557   0.119   2.706 -1.9969 -1.2779 -1.6091
14929SOL    HW257261   5.464   0.224   2.621  1.8246  2.4994 -1.3407
14930SOL     OW57262   5.486   2.062   2.533  0.2444 -0.3679  0.7184
14930SOL    HW157263   5.462   2.159   2.540 -0.5755 -0.5566  0.6130
14930SOL    HW257264   5.571   2.045   2.583 -0.2002  0.1940  1.6876
14931SOL     OW57265   5.620   5.492   7.577  0.1173  0.3029 -0.1307
14931SOL    HW157266   5.714   5.513   7.551  0.1820  0.1883  0.0079
14931SOL    HW257267   5.608   5.507   7.676  0.3656 -1.0175  0.1055
14932SOL     OW57268   4.905   0.619   6.735  0.1264  0.6665 -0.5257
14932SOL    HW157269   4.869   0.663   6.653 -3.6065 -0.1288  0.6013
14932SOL    HW257270   4.933   0.526   6.714 -1.5205  0.2154 -0.7854
14933SOL     OW57271   5.631   7.065   0.127 -0.0177 -0.0528  0.3735
14933SOL    HW157272   5.629   7.037   0.031 -0.4673  0.6472  0.1718
14933SOL    HW257273   5.690   7.145   0.137 -0.9741  0.6412  0.4707
14934SOL     OW57274   0.927   2.886   7.002 -0.3652  0.7217 -0.0486
14934SOL    HW157275   0.848   2.844   7.046 -0.7040  1.9223  0.5243
14934SOL    HW257276   1.004   2.885   7.066 -0.4047  1.0672  0.0030
14935SOL     OW57277   5.777   5.270   2.285  0.6678  0.0657  0.1129
14935SOL    HW157278   5.872   5.253   2.309  0.3637 -0.0687  1.2217
14935SOL    HW257279   5.757   5.368   2.296  0.4344 -0.0525  0.7594
14936SOL     OW57280   2.080   3.755   8.091 -0.4327  0.3271  0.1931
14936SOL    HW157281   2.039   3.789   8.006 -4.0972 -2.1154  0.8995
14936SOL    HW257282   2.103   3.658   8.081  1.9763  0.7685  1.0377
14937SOL     OW57283   0.366   8.111   6.957  0.3744 -0.4919 -0.4298
14937SOL    HW157284   0.423   8.124   6.876  0.2279 -1.6113 -0.7237
14937SOL    HW257285   0.294   8.045   6.936 -0.1363 -0.1888  0.3763
14938SOL     OW57286   7.043   7.989   8.901  0.2997 -0.1748  0.1789
14938SOL    HW157287   7.078   7.910   8.952 -1.2544  0.0611  1.6651
14938SOL    HW257288   7.009   7.958   8.812  1.1797 -0.9286  0.0991
14939SOL     OW57289   2.722   0.098   5.781 -0.0587 -0.2991  1.0297
14939SOL    HW157290   2.647   0.143   5.829  0.7380  0.4220  1.6136
14939SOL    HW257291   2.754   0.158   5.707 -0.2302 -0.7250  0.6030
14940SOL     OW57292   1.330   4.473   3.271  0.1043 -0.0125  0.0539
14940SOL    HW157293   1.349   4.402   3.340  0.7592 -0.7765 -0.9029
14940SOL    HW257294   1.238   4.510   3.286 -0.6393 -1.7788 -0.0516
14941SOL     OW57295   3.201   8.102   6.392  0.0003 -0.2464 -0.0504
14941SOL    HW157296   3.119   8.045   6.393 -0.8405  0.8276 -2.8694
14941SOL    HW257297   3.223   8.127   6.298  2.0750  1.6505  0.8889
14942SOL     OW57298   3.410   6.679   4.218 -0.4454  0.1673 -0.2224
14942SOL    HW157299   3.447   6.747   4.282  0.3166  0.0220 -0.5024
14942SOL    HW257300   3.457   6.688   4.130  0.5003 -1.5320  0.1000
14943SOL     OW57301   3.730   7.533   6.401  0.3741  0.8585 -0.0190
14943SOL    HW157302   3.654   7.587   6.436  0.3129  1.3982 -0.9643
14943SOL    HW257303   3.804   7.532   6.468 -0.3798  0.4982  0.8189
14944SOL     OW57304   4.956   2.162   6.950 -0.2452 -0.3453  0.6272
14944SOL    HW157305   5.015   2.203   6.880  0.4607 -0.6737  1.0329
14944SOL    HW257306   4.878   2.223   6.967 -0.6744 -0.4753 -0.7783
14945SOL     OW57307   4.965   6.899   6.924 -0.1512 -0.0303  0.0958
14945SOL    HW157308   4.909   6.971   6.883 -1.2957 -0.4650  0.8452
14945SOL    HW257309   5.044   6.939   6.970 -0.4726  0.6954  0.0196
14946SOL     OW57310   5.328   4.471   1.777 -0.2495 -0.2129 -0.2456
14946SOL    HW157311   5.294   4.493   1.686  2.1312 -0.1720 -1.1616
14946SOL    HW257312   5.287   4.386   1.808  0.5621 -1.4005 -2.3072
14947SOL     OW57313   4.117   6.983   7.679  0.1397  0.8407  0.1013
14947SOL    HW157314   4.104   7.082   7.674  1.8307  1.0880  0.4081
14947SOL    HW257315   4.059   6.946   7.750 -1.8972  1.3482 -1.2527
14948SOL     OW57316   1.648   2.446   3.250 -0.1325 -0.2217  0.8870
14948SOL    HW157317   1.739   2.407   3.236 -0.9709 -2.2690  0.8679
14948SOL    HW257318   1.580   2.373   3.243 -1.7746  1.2788  0.9194
14949SOL     OW57319   2.513   7.520   0.111 -0.4653  0.0435  0.1226
14949SOL    HW157320   2.539   7.490   0.020 -1.5461 -0.9191  0.1221
14949SOL    HW257321   2.567   7.470   0.179 -0.2935  0.1264  0.0501
14950SOL     OW57322   4.634   7.470   1.636 -0.0921  0.8423  0.0529
14950SOL    HW157323   4.573   7.407   1.684 -0.4722  0.5866 -0.7592
14950SOL    HW257324   4.728   7.456   1.669 -0.4730  1.2996  1.3625
14951SOL     OW57325   4.173   8.086   0.111 -0.6558 -0.1906 -0.4697
14951SOL    HW157326   4.193   8.172   0.158  0.3097 -1.3924  1.3504
14951SOL    HW257327   4.075   8.084   0.088 -1.2953  0.1629  2.0448
14952SOL     OW57328   2.570   8.569   2.302  0.2992 -0.3702  0.1298
14952SOL    HW157329   2.481   8.598   2.338 -0.0642  0.0335 -1.0533
14952SOL    HW257330   2.561   8.545   2.205  1.5976  0.2991 -0.1794
14953SOL     OW57331   7.270   3.321   0.411 -0.2855 -0.0591 -0.0798
14953SOL    HW157332   7.174   3.296   0.427 -0.6956  0.9088 -1.0145
14953SOL    HW257333   7.274   3.412   0.369  0.9727 -0.8092 -1.6108
14954SOL     OW57334   4.205   6.410   7.765  0.2408  0.4511  0.1873
14954SOL    HW157335   4.253   6.442   7.683  0.0891 -0.2728 -0.1839
14954SOL    HW257336   4.257   6.437   7.846  0.2767  1.3667 -0.1323
14955SOL     OW57337   8.698   4.024   7.894 -0.2929 -0.0671  0.2092
14955SOL    HW157338   8.722   4.121   7.890  2.0340 -0.6422 -0.7947
14955SOL    HW257339   8.729   3.986   7.981  0.2826 -0.2800 -0.0899
14956SOL     OW57340   0.333   2.829   2.331 -0.1053 -0.4861  0.0586
14956SOL    HW157341   0.379   2.791   2.251 -0.0482 -1.3481  0.4908
14956SOL    HW257342   0.234   2.832   2.315 -0.0693 -0.4156 -0.1458
14957SOL     OW57343   8.985   2.788   8.905 -0.4112 -0.2468  0.2011
14957SOL    HW157344   8.898   2.836   8.896  0.3486  1.3194  1.0510
14957SOL    HW257345   8.997   2.760   9.000 -0.7732 -2.0107 -0.2552
14958SOL     OW57346   3.139   0.947   1.435  0.0839 -0.0382 -0.0341
14958SOL    HW157347   3.133   0.850   1.412  0.0428  0.4656 -2.2576
14958SOL    HW257348   3.225   0.965   1.483 -0.4060 -1.3415  1.3511
14959SOL     OW57349   2.360   2.863   7.772 -0.7949  1.1237  0.6582
14959SOL    HW157350   2.350   2.932   7.700 -0.3730  1.2329  0.7021
14959SOL    HW257351   2.433   2.890   7.834 -0.4268  0.4902  0.5053
14960SOL     OW57352   4.674   3.741   3.937  0.1708  0.2913 -0.5361
14960SOL    HW157353   4.608   3.669   3.917 -0.9274  0.1819  3.0123
14960SOL    HW257354   4.755   3.702   3.980 -0.3421  1.0765  1.2187
14961SOL     OW57355   2.755   6.191   6.212  0.2619  0.2097  0.1714
14961SOL    HW157356   2.669   6.207   6.262 -0.3775 -0.3349 -0.7382
14961SOL    HW257357   2.777   6.272   6.158 -0.8285 -0.4263 -1.2671
14962SOL     OW57358   4.692   4.101   7.348  0.0459 -0.3659 -0.1210
14962SOL    HW157359   4.701   4.033   7.275 -0.4081 -1.4338  0.7990
14962SOL    HW257360   4.782   4.131   7.378  0.2380 -0.1316 -0.9293
14963SOL     OW57361   5.313   4.582   1.279 -0.1239  0.2033 -0.0899
14963SOL    HW157362   5.303   4.584   1.180 -0.7997 -1.0868 -0.0615
14963SOL    HW257363   5.371   4.504   1.305  3.2954  2.7590  0.2897
14964SOL     OW57364   5.459   2.837   8.842  0.3536  0.0866  0.0667
14964SOL    HW157365   5.468   2.798   8.934  0.2469 -0.0542  0.0173
14964SOL    HW257366   5.457   2.937   8.848  0.2833  0.0760  0.2241
14965SOL     OW57367   6.069   6.750   2.385  0.6387  0.6423  0.0421
14965SOL    HW157368   6.066   6.685   2.309  1.0336 -0.4515  0.9426
14965SOL    HW257369   6.164   6.767   2.410  0.4890  0.1072  1.0172
14966SOL     OW57370   5.183   1.363   8.149  0.2813  0.4732  0.0545
14966SOL    HW157371   5.207   1.386   8.055  0.3068 -0.0492 -0.0667
14966SOL    HW257372   5.157   1.267   8.155  0.3300  0.4882  0.5901
14967SOL     OW57373   6.142   7.696   1.776 -0.0008  0.3115  0.4196
14967SOL    HW157374   6.235   7.661   1.764 -0.8347 -1.5046 -0.9980
14967SOL    HW257375   6.103   7.659   1.860 -0.3979 -1.0970 -0.3788
14968SOL     OW57376   4.096   7.539   4.777  0.2963 -0.7322  0.5521
14968SOL    HW157377   4.063   7.449   4.807  0.4892 -1.5655 -1.6470
14968SOL    HW257378   4.192   7.531   4.749  0.1359  0.0300 -0.2240
14969SOL     OW57379   8.124   6.576   3.402  0.9322  0.2510 -0.1703
14969SOL    HW157380   8.152   6.632   3.324  1.5008  0.9352  0.5215
14969SOL    HW257381   8.198   6.575   3.470 -0.0064  0.5827  0.8614
14970SOL     OW57382   4.442   3.144   6.194 -0.3073  0.3858  0.2720
14970SOL    HW157383   4.368   3.117   6.256 -0.2315 -1.5619 -0.4647
14970SOL    HW257384   4.412   3.133   6.099  1.5275 -2.2950 -0.0606
14971SOL     OW57385   8.502   6.265   1.050  0.0064 -0.2881  0.0386
14971SOL    HW157386   8.537   6.174   1.069  0.2843 -0.2003 -0.0586
14971SOL    HW257387   8.555   6.333   1.102  0.2264 -0.1209 -0.4032
14972SOL     OW57388   3.661   0.571   0.941 -1.1488  0.4423  0.4451
14972SOL    HW157389   3.760   0.567   0.923 -1.4922  2.1935 -2.0253
14972SOL    HW257390   3.644   0.634   1.016 -0.4016 -0.0309  1.0302
14973SOL     OW57391   7.590   4.312   5.365  0.6959 -0.0079  0.1276
14973SOL    HW157392   7.663   4.297   5.297  1.0165 -1.0172  0.6821
14973SOL    HW257393   7.629   4.357   5.445  0.9873 -1.6468  0.9325
14974SOL     OW57394   4.758   8.612   5.124  0.5295 -0.4800 -0.0589
14974SOL    HW157395   4.663   8.580   5.124  0.4034 -0.1150 -0.1699
14974SOL    HW257396   4.773   8.673   5.201 -0.4821  2.7434 -2.3022
14975SOL     OW57397   4.230   6.014   8.442 -0.3001  0.5583 -0.9507
14975SOL    HW157398   4.220   5.932   8.499 -1.4396  1.3794  0.0458
14975SOL    HW257399   4.175   6.004   8.359 -1.0718  0.6483 -0.4522
14976SOL     OW57400   5.454   3.429   7.347  0.5094  0.1439 -0.1254
14976SOL    HW157401   5.356   3.447   7.354  0.5273  0.2676 -0.2020
14976SOL    HW257402   5.482   3.432   7.251  0.7353  0.8689 -0.0356
14977SOL     OW57403   4.588   8.229   0.739 -0.0802  0.7910  0.1334
14977SOL    HW157404   4.639   8.241   0.825  1.9331 -1.5131 -0.6796
14977SOL    HW257405   4.504   8.178   0.757  0.4210  0.1570  0.7299
14978SOL     OW57406   3.113   8.586   0.099  0.1368 -0.0938 -0.8474
14978SOL    HW157407   3.035   8.649   0.098 -0.6992 -1.0824  0.8230
14978SOL    HW257408   3.198   8.638   0.086 -0.4396  1.5309  1.5682
14979SOL     OW57409   2.234   8.981   2.202 -0.2067 -0.0905  0.3304
14979SOL    HW157410   2.299   8.940   2.266  0.2858  0.2765  0.0696
14979SOL    HW257411   2.160   8.917   2.184 -1.1197  0.3414  2.3947
14980SOL     OW57412   7.752   8.178   2.349 -0.3813 -0.6708  0.5216
14980SOL    HW157413   7.794   8.209   2.264 -1.3564  2.5452  1.1066
14980SOL    HW257414   7.818   8.187   2.424 -0.3712 -0.9314  0.5448
14981SOL     OW57415   8.961   7.739   3.020  0.5891  0.0872  0.0126
14981SOL    HW157416   8.996   7.742   2.926 -0.7244 -1.1421 -0.5304
14981SOL    HW257417   8.975   7.648   3.058  2.6869  1.0772  1.6366
14982SOL     OW57418   5.489   0.023   3.167 -0.4874  0.2009 -0.7883
14982SOL    HW157419   5.504  -0.060   3.221 -0.4346 -0.0146 -1.1266
14982SOL    HW257420   5.413   0.007   3.103 -1.0914  0.7348 -0.2028
14983SOL     OW57421   2.076   0.990   0.839  0.0084  0.6501 -0.2187
14983SOL    HW157422   2.091   1.076   0.888  1.1821  0.3439 -0.0209
14983SOL    HW257423   1.998   0.942   0.879  0.6269  0.6597  1.0067
14984SOL     OW57424   6.717   1.512   0.298 -0.4313 -0.4304 -0.0895
14984SOL    HW157425   6.675   1.500   0.208  1.1780 -3.1047 -0.5522
14984SOL    HW257426   6.760   1.602   0.303 -2.0056  0.4278 -1.3507
14985SOL     OW57427   2.843   8.123   0.819  0.4712 -0.4886 -0.5202
14985SOL    HW157428   2.844   8.112   0.719 -1.7877  1.0573 -0.7565
14985SOL    HW257429   2.751   8.104   0.853  0.3537  2.3335  0.8456
14986SOL     OW57430   7.898   2.805   1.462  0.0018  0.4207 -0.1354
14986SOL    HW157431   7.804   2.826   1.435 -0.4070 -0.6310  0.4106
14986SOL    HW257432   7.896   2.756   1.549  1.0363  0.0698 -0.3125
14987SOL     OW57433   4.418   2.953   2.206  0.2338 -0.3124 -0.1797
14987SOL    HW157434   4.479   3.010   2.152  0.5659  1.5158  2.0159
14987SOL    HW257435   4.323   2.981   2.189  0.4177  1.2762  1.2183
14988SOL     OW57436   1.891   0.340   4.684 -0.0793 -0.3556 -0.2809
14988SOL    HW157437   1.794   0.362   4.687 -0.2882 -1.3497  1.0762
14988SOL    HW257438   1.944   0.417   4.719 -0.5002 -0.3873  0.4448
14989SOL     OW57439   4.309   0.891   6.860  0.1548  0.3948  0.1393
14989SOL    HW157440   4.246   0.870   6.935 -1.2990  1.8061 -0.6698
14989SOL    HW257441   4.262   0.945   6.790  2.2632  1.5272 -0.4596
14990SOL     OW57442   3.713   3.098   6.005 -0.9263  0.1612 -0.5337
14990SOL    HW157443   3.731   3.114   5.908 -1.5063 -3.3824 -1.3042
14990SOL    HW257444   3.799   3.077   6.051 -0.6330  1.9667 -0.2056
14991SOL     OW57445   4.343   1.363   0.883 -0.6811 -0.0099  0.2993
14991SOL    HW157446   4.345   1.291   0.952 -1.6124  0.5366  0.9143
14991SOL    HW257447   4.331   1.452   0.928 -2.2661  0.2614 -0.6154
14992SOL     OW57448   8.770   4.802   6.287 -0.1138  0.2529  0.3535
14992SOL    HW157449   8.746   4.839   6.197 -1.9070 -0.2180  0.6293
14992SOL    HW257450   8.705   4.731   6.313 -0.0983  0.9240  2.3643
14993SOL     OW57451   2.721   6.319   1.616 -0.1413  0.5452  0.5460
14993SOL    HW157452   2.819   6.307   1.603 -0.6305 -2.9169 -0.5713
14993SOL    HW257453   2.703   6.348   1.710  2.0070  2.6722  0.3323
14994SOL     OW57454   1.405   1.101   0.992 -0.2070  0.0236 -0.9204
14994SOL    HW157455   1.398   1.085   0.893 -0.9075  1.7392 -1.1634
14994SOL    HW257456   1.448   1.190   1.008 -2.8464  1.1110  0.2666
14995SOL     OW57457   2.388   6.282   6.897 -0.0007  0.0683  0.1523
14995SOL    HW157458   2.477   6.306   6.937 -0.5234  1.3959  0.5652
14995SOL    HW257459   2.381   6.183   6.888  0.9159 -0.1384  1.5325
14996SOL     OW57460   1.969   2.622   8.279 -0.3496  0.0107  0.2109
14996SOL    HW157461   2.023   2.699   8.245  1.3237 -1.1196  0.2294
14996SOL    HW257462   1.879   2.623   8.236 -0.2383  1.7699 -0.0422
14997SOL     OW57463   5.818   0.914   6.755  0.2496  0.8835 -0.1888
14997SOL    HW157464   5.907   0.953   6.777  0.2926  1.0828 -0.7007
14997SOL    HW257465   5.830   0.819   6.724  0.2771  0.8851 -0.1829
14998SOL     OW57466   2.050   6.542   7.116  0.3584 -0.0225  0.2761
14998SOL    HW157467   2.039   6.641   7.108  1.4065 -0.0719 -2.0649
14998SOL    HW257468   1.961   6.501   7.140 -0.5263  1.2878 -0.6871
14999SOL     OW57469   0.621   6.319   6.865 -0.3493 -0.3638  0.1193
14999SOL    HW157470   0.680   6.290   6.940 -0.2783  0.5189  0.4190
14999SOL    HW257471   0.544   6.372   6.902 -0.4274 -0.1058 -0.4036
15000SOL     OW57472   0.717   8.096   1.359 -0.5039 -0.1440  0.4302
15000SOL    HW157473   0.755   8.079   1.450 -0.4002  3.4499  1.1315
15000SOL    HW257474   0.618   8.083   1.362 -0.2833 -1.9521  0.5251
15001SOL     OW57475   0.545   1.952   6.102 -0.2076 -0.4391  0.2977
15001SOL    HW157476   0.623   2.007   6.133  0.0283  0.5045 -1.9081
15001SOL    HW257477   0.578   1.869   6.058 -0.3548  0.6667 -1.9811
15002SOL     OW57478   2.081   5.823   5.463 -0.3096  0.1644  0.0671
15002SOL    HW157479   2.080   5.743   5.524 -0.0448 -0.5630 -0.8641
15002SOL    HW257480   2.136   5.896   5.504 -0.0596 -0.3476  0.6588
15003SOL     OW57481   6.400   7.386   4.484  0.2782 -0.1817 -0.2972
15003SOL    HW157482   6.359   7.295   4.480 -0.9953  0.3397  0.4611
15003SOL    HW257483   6.333   7.454   4.454  0.5422  0.6889  1.0459
15004SOL     OW57484   6.154   0.686   8.348 -0.3221 -0.6329 -0.2655
15004SOL    HW157485   6.172   0.742   8.429  2.1628 -1.4609 -0.1989
15004SOL    HW257486   6.119   0.744   8.274  0.5656  0.7053  0.3411
15005SOL     OW57487   0.870   5.633   7.159 -0.3493 -0.2902 -0.5502
15005SOL    HW157488   0.808   5.601   7.231 -0.3260  0.7831 -0.0464
15005SOL    HW257489   0.818   5.674   7.085 -0.2633  0.2925 -0.2891
15006SOL     OW57490   4.598   1.114   3.811 -0.8060  0.5604  0.0912
15006SOL    HW157491   4.694   1.119   3.838 -0.8953  3.2359  0.0946
15006SOL    HW257492   4.588   1.057   3.730  0.7451  0.0558  0.2523
15007SOL     OW57493   6.445   6.269   3.491 -0.4433  0.8611 -0.1021
15007SOL    HW157494   6.478   6.175   3.500 -0.8032  0.9979  3.2500
15007SOL    HW257495   6.516   6.325   3.447  0.3655 -0.6337 -0.7531
15008SOL     OW57496   1.564   0.046   4.114 -0.5330 -0.3600 -0.0898
15008SOL    HW157497   1.606   0.132   4.086 -0.3673  0.5545  2.8097
15008SOL    HW257498   1.634  -0.017   4.146 -0.7141 -1.4000 -1.6709
15009SOL     OW57499   4.290   4.752   5.066 -0.3506  0.4012  0.1290
15009SOL    HW157500   4.374   4.805   5.054  0.5269 -1.0569 -0.4076
15009SOL    HW257501   4.275   4.695   4.985 -1.9030  0.6998  0.1921
15010SOL     OW57502   7.743   4.328   0.641  0.2274 -0.3073 -0.0310
15010SOL    HW157503   7.768   4.393   0.713 -1.2607  0.4386 -0.1769
15010SOL    HW257504   7.826   4.292   0.599  1.0919  2.0374 -0.4219
15011SOL     OW57505   2.914   8.270   6.098  0.0467 -0.1735  0.2615
15011SOL    HW157506   2.967   8.212   6.036 -1.0578  0.4447 -1.3151
15011SOL    HW257507   2.816   8.261   6.076 -0.3118  0.4746  1.5607
15012SOL     OW57508   4.210   5.644   3.448  0.3256 -0.1549  0.3722
15012SOL    HW157509   4.122   5.686   3.426  0.7660 -0.7589 -2.7531
15012SOL    HW257510   4.204   5.545   3.438  1.1223 -0.2857  1.1006
15013SOL     OW57511   2.734   0.447   8.483  0.1003  0.6569  0.0521
15013SOL    HW157512   2.823   0.434   8.527 -0.1641  0.4936  0.5477
15013SOL    HW257513   2.734   0.533   8.433 -0.6113  2.4059  2.9504
15014SOL     OW57514   1.227   3.539   7.995  0.6676 -0.5982  0.4000
15014SOL    HW157515   1.137   3.515   8.030  0.3821 -1.0152 -0.5968
15014SOL    HW257516   1.244   3.636   8.009  0.3426 -0.6608  1.2084
15015SOL     OW57517   3.044   7.343   4.500 -0.4923  0.4872  0.6717
15015SOL    HW157518   2.961   7.397   4.509 -1.0658 -0.3608  0.5697
15015SOL    HW257519   3.035   7.258   4.552  1.0505  1.2328  2.2048
15016SOL     OW57520   7.291   6.507   1.197 -0.0491 -0.3374  0.1222
15016SOL    HW157521   7.354   6.547   1.264 -0.4786  0.2662  0.1723
15016SOL    HW257522   7.343   6.469   1.121  0.4345 -0.8335  0.6941
15017SOL     OW57523   5.383   3.910   8.219  0.2685 -0.6077 -0.0301
15017SOL    HW157524   5.345   3.868   8.137 -0.5201 -1.6261  0.8394
15017SOL    HW257525   5.383   3.843   8.294 -0.9505  0.8982  1.3639
15018SOL     OW57526   4.499   4.671   4.642  0.4904  0.2816  0.0488
15018SOL    HW157527   4.463   4.607   4.574 -1.2068  0.2367  0.9561
15018SOL    HW257528   4.440   4.751   4.647 -0.1442 -0.2880  2.3520
15019SOL     OW57529   8.513   1.752   0.289  0.4241  0.4388  0.2611
15019SOL    HW157530   8.439   1.688   0.307  0.1062  0.6757 -0.1714
15019SOL    HW257531   8.595   1.725   0.339  0.3635 -0.4431 -0.1188
15020SOL     OW57532   5.825   6.744   1.429  0.1113 -0.2551  0.3039
15020SOL    HW157533   5.850   6.841   1.424  0.5367 -0.2757  1.7404
15020SOL    HW257534   5.834   6.703   1.339  1.9998  0.5547  0.0822
15021SOL     OW57535   0.005   3.050   1.947  0.3135 -0.8357  0.0619
15021SOL    HW157536   0.100   3.070   1.970  0.0859  0.7157 -0.2839
15021SOL    HW257537  -0.027   3.117   1.880 -1.7488  0.0919  1.9311
15022SOL     OW57538   0.264   5.703   0.299  0.0104 -0.1431 -0.4504
15022SOL    HW157539   0.301   5.735   0.211 -0.0856 -0.4360 -0.5983
15022SOL    HW257540   0.182   5.649   0.282  0.5738 -1.0696 -0.2539
15023SOL     OW57541   3.710   6.697   2.491 -0.4515  1.0595 -0.6481
15023SOL    HW157542   3.788   6.702   2.430  0.0647  2.0399  0.0684
15023SOL    HW257543   3.738   6.726   2.583 -1.5153  0.8672 -0.2565
15024SOL     OW57544   3.676   7.751   0.795 -0.1710  0.1065 -0.2522
15024SOL    HW157545   3.649   7.674   0.737  0.7562 -0.2756 -0.1859
15024SOL    HW257546   3.703   7.716   0.885  1.3614  0.3778 -0.5874
15025SOL     OW57547   3.090   2.571   0.741  0.6499 -0.2457  0.0390
15025SOL    HW157548   3.182   2.585   0.778  1.0901 -0.0424 -1.1188
15025SOL    HW257549   3.095   2.556   0.643 -0.6451  0.9577 -0.2345
15026SOL     OW57550   6.837   8.650   6.780 -0.0785 -0.3885  0.5232
15026SOL    HW157551   6.912   8.623   6.839  0.4842 -0.5392 -0.2587
15026SOL    HW257552   6.750   8.640   6.829  0.4931  1.0707  1.8978
15027SOL     OW57553   6.368   5.358   8.214  0.3097 -0.6001 -0.2666
15027SOL    HW157554   6.436   5.397   8.153 -0.5590  1.6410  0.1568
15027SOL    HW257555   6.413   5.322   8.296  1.0674  0.1169 -0.3621
15028SOL     OW57556   5.659   3.512   7.510 -0.3736 -0.5807  0.4859
15028SOL    HW157557   5.631   3.506   7.606 -0.1537  0.3261  0.6191
15028SOL    HW257558   5.590   3.469   7.452 -0.0716 -1.9436  1.1154
15029SOL     OW57559   0.271   6.718   2.014 -0.0555 -0.3817 -0.3722
15029SOL    HW157560   0.233   6.797   1.966  2.2231  0.3230 -1.1170
15029SOL    HW257561   0.332   6.668   1.952  1.7585 -0.3355  1.3257
15030SOL     OW57562   3.742   8.131   0.488  0.4843 -0.9675 -0.7023
15030SOL    HW157563   3.830   8.091   0.515  0.2815 -0.8100  0.1794
15030SOL    HW257564   3.702   8.180   0.565 -0.4621 -1.1780 -1.0551
15031SOL     OW57565   1.589   1.251   8.460 -0.0616 -0.2571 -0.2987
15031SOL    HW157566   1.558   1.341   8.429  0.4696  0.0671  0.1156
15031SOL    HW257567   1.605   1.192   8.380 -1.6316 -0.3960 -0.5175
15032SOL     OW57568   4.536   5.459   3.788 -0.2645 -0.3922  0.1611
15032SOL    HW157569   4.514   5.362   3.777  3.2163 -1.5525  2.6675
15032SOL    HW257570   4.545   5.502   3.697 -0.7077 -2.6773 -0.9965
15033SOL     OW57571   8.147   0.490   1.536 -0.2870 -0.0086  0.2004
15033SOL    HW157572   8.189   0.405   1.507  0.5061  0.2724  0.5286
15033SOL    HW257573   8.052   0.472   1.564  0.6467 -1.2517  2.7573
15034SOL     OW57574   2.282   2.652   8.299  0.2956 -0.0779  0.3155
15034SOL    HW157575   2.376   2.683   8.304  0.9784 -1.5365 -2.3361
15034SOL    HW257576   2.228   2.717   8.245  0.7620 -1.2377 -1.6208
15035SOL     OW57577   0.334   8.441   7.315  0.1384  0.0172 -0.5568
15035SOL    HW157578   0.398   8.371   7.284 -0.7815 -1.3210  0.5256
15035SOL    HW257579   0.289   8.482   7.236 -0.4099 -1.6534 -1.1355
15036SOL     OW57580   3.367   7.992   3.181 -0.2623  0.7001 -0.5350
15036SOL    HW157581   3.293   7.969   3.118  0.8790 -1.7672 -1.0231
15036SOL    HW257582   3.331   7.995   3.275 -1.2785  1.0459 -0.9336
15037SOL     OW57583   4.459   0.719   6.584  0.3505 -0.6039  0.3564
15037SOL    HW157584   4.416   0.794   6.534 -0.1457 -0.3357  1.1649
15037SOL    HW257585   4.504   0.756   6.666  0.5694 -1.1170  0.4670
15038SOL     OW57586   8.913   5.062   8.510  0.5524 -0.3282 -0.1783
15038SOL    HW157587   8.945   5.024   8.596  0.2897 -2.4033 -0.9831
15038SOL    HW257588   8.969   5.142   8.486 -0.1823  1.0628  2.5229
15039SOL     OW57589   1.329   1.139   5.788 -0.4237  0.3396 -0.1600
15039SOL    HW157590   1.356   1.205   5.858 -0.7667  0.3623 -0.0472
15039SOL    HW257591   1.404   1.076   5.771 -0.4709  0.0862  0.5226
15040SOL     OW57592   3.924   7.324   8.589 -0.2108  0.0918  0.5950
15040SOL    HW157593   3.928   7.424   8.583  0.1531  0.0277 -0.1770
15040SOL    HW257594   3.843   7.298   8.641 -1.8745  0.7051 -1.6039
15041SOL     OW57595   4.370   3.901   7.195 -0.4831 -0.8447  0.1355
15041SOL    HW157596   4.462   3.863   7.208  0.2268  0.1516 -1.7929
15041SOL    HW257597   4.320   3.844   7.131 -0.9770 -0.9784  0.6341
15042SOL     OW57598   3.538   7.694   8.327  0.5352  0.0480 -0.2120
15042SOL    HW157599   3.457   7.645   8.296  0.5883 -1.2042  1.5471
15042SOL    HW257600   3.573   7.751   8.253 -1.3369 -0.1880 -1.3163
15043SOL     OW57601   1.547   4.173   8.577  0.1735 -0.8984  0.2592
15043SOL    HW157602   1.500   4.223   8.504  0.2219 -1.6151 -0.2702
15043SOL    HW257603   1.570   4.081   8.545 -2.2867 -2.2333  2.0948
15044SOL     OW57604   3.582   7.257   4.113 -0.1525  0.2719  0.3419
15044SOL    HW157605   3.519   7.180   4.126  0.3252 -0.2736 -0.5321
15044SOL    HW257606   3.533   7.343   4.129 -0.4952 -0.2228  2.1197
15045SOL     OW57607   2.184   4.598   1.724  0.2437 -0.2753 -0.2151
15045SOL    HW157608   2.260   4.660   1.705  1.2058 -1.2473  0.4461
15045SOL    HW257609   2.138   4.575   1.638  1.0689 -0.1520 -0.6915
15046SOL     OW57610   3.799   8.550   7.937 -0.7169 -0.0405 -0.0664
15046SOL    HW157611   3.745   8.625   7.898  0.1145 -0.1805 -1.5256
15046SOL    HW257612   3.892   8.581   7.955 -1.0689  0.0078  1.8303
15047SOL     OW57613   4.197   8.099   8.376 -0.1629  1.0743  0.0213
15047SOL    HW157614   4.275   8.049   8.339 -1.3640 -0.9741  0.1732
15047SOL    HW257615   4.123   8.102   8.308 -1.3713 -0.3717  1.2204
15048SOL     OW57616   1.178   7.537   2.276 -0.1972 -0.3132  0.2873
15048SOL    HW157617   1.199   7.462   2.338 -0.5649  0.2687  1.1171
15048SOL    HW257618   1.263   7.585   2.252 -0.0127 -0.7507  0.0631
15049SOL     OW57619   5.973   7.683   1.552  0.5660  0.7473  0.2100
15049SOL    HW157620   6.019   7.741   1.485 -0.5270  1.3567 -0.0243
15049SOL    HW257621   6.027   7.681   1.637  2.5335 -0.9169 -1.0197
15050SOL     OW57622   7.531   3.636   2.107 -0.9708 -0.3097  0.2823
15050SOL    HW157623   7.615   3.598   2.069 -0.2619  0.9782  0.5553
15050SOL    HW257624   7.518   3.602   2.200 -0.6220 -0.2863  0.3388
15051SOL     OW57625   2.935   8.568   2.839 -0.2165 -0.3763 -0.0780
15051SOL    HW157626   2.950   8.558   2.741  0.2658 -0.1592 -0.0298
15051SOL    HW257627   2.991   8.501   2.888  0.1746  0.0662  0.0820
15052SOL     OW57628   7.478   8.102   6.248 -0.1899  0.8709 -0.1377
15052SOL    HW157629   7.425   8.104   6.164  1.3024  1.0174 -1.0982
15052SOL    HW257630   7.447   8.026   6.305 -0.4836  0.0927 -1.3147
15053SOL     OW57631   8.703   5.646   0.957 -0.0978 -0.6947  0.3577
15053SOL    HW157632   8.720   5.625   0.861  0.2688 -0.5375  0.3849
15053SOL    HW257633   8.610   5.681   0.968 -0.4263 -1.4917  0.1879
15054SOL     OW57634   5.961   6.092   2.389 -0.9129 -0.1283 -0.2432
15054SOL    HW157635   6.012   6.165   2.343 -0.0712  1.4888  3.1236
15054SOL    HW257636   5.866   6.120   2.398 -0.9800 -0.2453 -0.5760
15055SOL     OW57637   8.999   5.463   7.300  0.3823  0.1432  0.6966
15055SOL    HW157638   9.038   5.383   7.254 -0.6831 -0.7980  1.4117
15055SOL    HW257639   8.904   5.445   7.324  0.0159  1.7766  0.5300
15056SOL     OW57640   8.048   8.261   2.376  0.0393 -0.0627  0.2274
15056SOL    HW157641   8.126   8.201   2.362  0.1778  0.4999 -1.4264
15056SOL    HW257642   8.035   8.320   2.296 -2.1254 -0.2128  0.4373
15057SOL     OW57643   0.947   2.095   4.286 -0.1278 -0.9726  0.7323
15057SOL    HW157644   1.003   2.172   4.318  0.4746 -1.4444  0.8304
15057SOL    HW257645   0.965   2.015   4.343  0.8541 -1.7815 -0.6734
15058SOL     OW57646   4.587   2.156   7.652  0.0218  0.3143  0.2653
15058SOL    HW157647   4.508   2.110   7.693  0.8887 -1.9289 -0.5344
15058SOL    HW257648   4.671   2.122   7.694  0.7300  0.4448 -1.0354
15059SOL     OW57649   0.418   3.451   4.528  0.1542  0.4687  0.0395
15059SOL    HW157650   0.403   3.375   4.466 -3.9564  1.4071 -0.2496
15059SOL    HW257651   0.421   3.417   4.622 -2.0989 -0.0300 -0.0537
15060SOL     OW57652   6.777   3.360   7.840 -0.0867  0.4539 -0.1932
15060SOL    HW157653   6.856   3.392   7.787 -0.4851  0.2804 -0.8984
15060SOL    HW257654   6.798   3.366   7.938  1.0770 -0.2794 -0.3834
15061SOL     OW57655   4.215   4.608   1.906  0.2077 -0.3886  0.4556
15061SOL    HW157656   4.163   4.669   1.847  0.4855 -0.6417 -0.0584
15061SOL    HW257657   4.303   4.588   1.863  0.2434 -0.9041  0.7651
15062SOL     OW57658   3.138   7.385   8.737 -0.2529 -0.6824  0.0286
15062SOL    HW157659   3.194   7.383   8.820  0.5103 -0.1819 -0.4619
15062SOL    HW257660   3.150   7.300   8.687  0.0860 -0.5697 -0.0828
15063SOL     OW57661   0.277   5.364   7.614  0.5550  0.3164  0.1896
15063SOL    HW157662   0.275   5.461   7.636 -1.6813  0.5283 -0.8524
15063SOL    HW257663   0.285   5.352   7.515 -0.9822 -0.5321  0.1553
15064SOL     OW57664   7.617   7.088   5.952  0.4212  0.6345  0.1905
15064SOL    HW157665   7.701   7.117   5.998  0.9233  0.0571 -0.3602
15064SOL    HW257666   7.606   6.989   5.961  1.5579  0.2228 -2.6064
15065SOL     OW57667   4.625   5.460   5.640  0.5754  0.6924  0.0350
15065SOL    HW157668   4.545   5.418   5.683  0.6740 -0.2521 -0.7028
15065SOL    HW257669   4.621   5.447   5.541  2.4200 -0.7668  0.1166
15066SOL     OW57670   4.821   6.659   1.648  0.3976  0.3213  0.0397
15066SOL    HW157671   4.825   6.675   1.549 -1.6542  0.6701  0.0105
15066SOL    HW257672   4.913   6.635   1.681  1.1767  0.5919 -1.8723
15067SOL     OW57673   3.047   3.048   5.290 -0.1683  0.3959  0.6403
15067SOL    HW157674   3.066   2.992   5.209 -1.3459  0.0105  0.6167
15067SOL    HW257675   2.972   3.112   5.270 -0.0539  0.7260  1.2350
15068SOL     OW57676   3.173   8.088   4.519  0.0311  0.6255  0.3673
15068SOL    HW157677   3.273   8.078   4.515  0.0669  1.3679 -0.9274
15068SOL    HW257678   3.131   7.998   4.520  0.6830  0.3122 -0.2355
15069SOL     OW57679   7.605   6.163   8.014 -0.5735  0.2493 -0.5998
15069SOL    HW157680   7.551   6.242   7.986 -1.5268 -0.3720 -0.5467
15069SOL    HW257681   7.663   6.134   7.938 -0.2421  0.9773 -0.6277
15070SOL     OW57682   5.750   3.268   1.948 -0.8784 -0.3267 -0.3543
15070SOL    HW157683   5.813   3.215   2.004 -1.0369  1.2243  1.3335
15070SOL    HW257684   5.748   3.230   1.855 -0.6710 -2.9651  0.6841
15071SOL     OW57685   0.385   5.868   7.593 -1.2974  0.4078 -0.3062
15071SOL    HW157686   0.356   5.962   7.574 -2.3899 -0.2237 -1.8489
15071SOL    HW257687   0.477   5.854   7.557 -0.7570  1.1535  0.7622
15072SOL     OW57688   1.496   3.384   5.138 -0.1768  1.0998 -0.3040
15072SOL    HW157689   1.542   3.471   5.156 -0.5794  1.1554  0.4553
15072SOL    HW257690   1.564   3.312   5.126  0.1880  1.6525 -1.6823
15073SOL     OW57691   4.896   8.517   0.837  0.1293  0.1895  0.6073
15073SOL    HW157692   4.928   8.445   0.899  0.7655  0.7143  0.8891
15073SOL    HW257693   4.883   8.602   0.888  0.6711  0.6283  0.0193
15074SOL     OW57694   0.022   2.400   3.783  0.4574  0.3383  0.0659
15074SOL    HW157695   0.060   2.314   3.750  0.7916 -0.1478  1.6643
15074SOL    HW257696   0.041   2.472   3.717  0.8967 -0.6400 -0.9000
15075SOL     OW57697   4.617   4.943   7.780  0.6564 -0.7502  0.5921
15075SOL    HW157698   4.690   4.973   7.719  0.5416 -0.8901  0.3876
15075SOL    HW257699   4.566   4.869   7.738 -0.1555 -0.0695  0.3728
15076SOL     OW57700   3.575   2.224   4.081  0.1734 -0.2647  0.3291
15076SOL    HW157701   3.505   2.284   4.042 -0.6746 -0.3280  1.6938
15076SOL    HW257702   3.628   2.182   4.008 -0.4819  0.6755 -0.6950
15077SOL     OW57703   2.333   5.996   2.907  0.4224 -0.2221 -0.5466
15077SOL    HW157704   2.392   5.942   2.847  1.3933 -0.9059  0.9942
15077SOL    HW257705   2.305   5.941   2.985 -0.5001  0.7810 -0.1532
15078SOL     OW57706   4.274   7.560   8.479  0.3514  0.3429  0.1270
15078SOL    HW157707   4.357   7.605   8.446  1.1927 -0.2098  1.4478
15078SOL    HW257708   4.292   7.462   8.491 -1.0959 -0.1607 -1.5067
15079SOL     OW57709   2.222   0.107   6.589 -0.0355  0.4632 -0.4395
15079SOL    HW157710   2.277   0.035   6.631  0.7121  1.1430 -0.2104
15079SOL    HW257711   2.208   0.086   6.492  1.5124  0.7575 -0.7562
15080SOL     OW57712   3.000   1.408   4.905 -0.2457 -0.6302 -0.2270
15080SOL    HW157713   3.035   1.419   4.998 -0.0650  0.7909 -0.4475
15080SOL    HW257714   2.992   1.498   4.862 -0.0592 -1.2975 -1.6823
15081SOL     OW57715   2.022   7.053   7.481  0.1609 -0.6863 -0.7203
15081SOL    HW157716   2.086   7.086   7.411  1.6326 -2.6549 -0.3464
15081SOL    HW257717   1.976   7.131   7.524  2.7065  0.8415 -0.6537
15082SOL     OW57718   2.498   1.516   5.518 -0.0003  0.7319  0.3653
15082SOL    HW157719   2.449   1.438   5.557  0.5763 -0.0037 -0.3586
15082SOL    HW257720   2.453   1.545   5.434  1.0033 -0.1969 -0.5143
15083SOL     OW57721   3.195   4.565   2.098  0.0267  0.2887  0.2114
15083SOL    HW157722   3.261   4.491   2.111 -0.7577 -0.3153  0.7642
15083SOL    HW257723   3.182   4.613   2.185  0.0365  0.6713  0.0050
15084SOL     OW57724   5.240   0.359   6.898 -0.1055 -0.4463 -0.1187
15084SOL    HW157725   5.252   0.282   6.836  0.0776 -1.1344  0.7495
15084SOL    HW257726   5.144   0.388   6.897  0.0880  0.1929 -1.4448
15085SOL     OW57727   5.506   0.060   8.235 -0.0675  0.4723 -0.5351
15085SOL    HW157728   5.442  -0.009   8.199  2.2224 -0.6841 -2.5749
15085SOL    HW257729   5.595   0.048   8.191  1.2989  2.6615  1.5443
15086SOL     OW57730   6.501   6.449   3.004  0.2917  0.4174  0.4584
15086SOL    HW157731   6.477   6.485   3.093 -0.1739 -0.2369  0.6051
15086SOL    HW257732   6.422   6.402   2.964  0.6078  0.3693 -0.1259
15087SOL     OW57733   6.223   8.629   8.867 -0.2077 -0.0978 -0.2883
15087SOL    HW157734   6.258   8.541   8.835 -0.0707 -0.3833  0.6457
15087SOL    HW257735   6.298   8.682   8.906 -0.2722  0.4738 -0.9328
15088SOL     OW57736   8.660   3.515   7.310  0.0937 -0.0055  0.8590
15088SOL    HW157737   8.577   3.565   7.287 -0.3132 -1.0997 -0.0826
15088SOL    HW257738   8.739   3.564   7.275 -0.3954 -0.7203 -1.3428
15089SOL     OW57739   6.474   5.209   7.680 -0.0034  0.1163  0.9728
15089SOL    HW157740   6.518   5.258   7.605  2.1464 -1.8742  0.8964
15089SOL    HW257741   6.391   5.259   7.708  0.2980  1.9781 -1.2981
15090SOL     OW57742   5.462   1.385   8.148 -0.0141 -0.1467  0.0159
15090SOL    HW157743   5.488   1.348   8.237 -2.2094 -0.8221  0.4133
15090SOL    HW257744   5.362   1.385   8.140  0.1604 -1.2207 -2.9249
15091SOL     OW57745   4.476   1.517   2.239 -0.5366 -0.2569  0.2742
15091SOL    HW157746   4.391   1.553   2.200 -0.3282 -1.1274 -1.0182
15091SOL    HW257747   4.550   1.527   2.173 -0.1498 -1.6492  0.4835
15092SOL     OW57748   1.764   5.305   7.396 -0.6872 -0.3282 -0.2367
15092SOL    HW157749   1.739   5.209   7.404  0.7062 -0.6067  1.0388
15092SOL    HW257750   1.746   5.352   7.482  0.7096  0.0285 -0.1199
15093SOL     OW57751   6.114   2.722   6.638  0.3725  0.1655 -0.3882
15093SOL    HW157752   6.116   2.622   6.648 -0.6817  0.2506  0.8087
15093SOL    HW257753   6.183   2.750   6.571 -0.1242 -1.4641 -1.6170
15094SOL     OW57754   7.976   5.826   4.587 -0.0130  0.8686  0.1981
15094SOL    HW157755   8.062   5.774   4.593 -0.1504  0.5219 -0.8119
15094SOL    HW257756   7.996   5.923   4.600  0.6622  0.8887 -0.9254
15095SOL     OW57757   7.287   4.234   0.408 -0.0458 -0.4059  0.3018
15095SOL    HW157758   7.337   4.301   0.463 -2.4364  0.8914  0.9362
15095SOL    HW257759   7.331   4.145   0.417  1.2039  0.3586  2.1300
15096SOL     OW57760   7.112   7.475   6.097 -0.4304  0.0279  0.6654
15096SOL    HW157761   7.210   7.478   6.114 -0.2540 -1.7640 -0.0048
15096SOL    HW257762   7.089   7.537   6.022  0.5835 -1.5724 -0.9884
15097SOL     OW57763   7.559   1.153   1.101  0.1694 -0.4605  0.6649
15097SOL    HW157764   7.648   1.189   1.127  1.0819 -2.1409 -0.0642
15097SOL    HW257765   7.534   1.186   1.010 -0.6072  1.1143  1.4186
15098SOL     OW57766   1.349   0.174   4.784  0.3485  0.2068 -0.5601
15098SOL    HW157767   1.392   0.160   4.695 -1.1016  0.0298 -1.2584
15098SOL    HW257768   1.316   0.086   4.819 -2.0376  0.7076 -1.4182
15099SOL     OW57769   2.853   1.106   6.584 -0.3445  0.4498 -0.4261
15099SOL    HW157770   2.914   1.170   6.537  0.8053  0.4286  1.0252
15099SOL    HW257771   2.762   1.147   6.594  0.0305  1.3263 -0.6486
15100SOL     OW57772   4.907   5.388   6.876  0.0513 -0.0061  0.6996
15100SOL    HW157773   4.829   5.341   6.917  0.4720  0.6695  2.3227
15100SOL    HW257774   4.992   5.339   6.897  0.1407 -0.3525 -0.4524
15101SOL     OW57775   8.340   0.494   1.144  0.4390  1.2010 -0.5580
15101SOL    HW157776   8.318   0.590   1.157  0.0989  1.0114  0.3431
15101SOL    HW257777   8.414   0.468   1.207 -0.6895  0.4508  0.4951
15102SOL     OW57778   0.692   0.731   1.535  0.2157 -0.0600  0.1500
15102SOL    HW157779   0.761   0.798   1.509 -1.2712  1.0341 -1.0712
15102SOL    HW257780   0.622   0.726   1.464 -1.3351 -0.6223  1.6832
15103SOL     OW57781   5.831   8.439   6.725  0.4033  0.1890  0.8448
15103SOL    HW157782   5.811   8.534   6.701 -0.0090  0.2027  1.2366
15103SOL    HW257783   5.893   8.400   6.657  0.1256  0.5630  0.3722
15104SOL     OW57784   8.963   8.684   0.656 -0.0960  0.0625  0.3863
15104SOL    HW157785   9.047   8.671   0.602 -0.0324  1.7274  0.0472
15104SOL    HW257786   8.892   8.623   0.622  0.6112 -0.4815 -0.1433
15105SOL     OW57787   3.805   8.235   1.180 -0.1600 -0.7231  0.0726
15105SOL    HW157788   3.754   8.187   1.252  1.0472 -0.5092  1.0850
15105SOL    HW257789   3.743   8.298   1.132 -0.5503  0.6155  2.2442
15106SOL     OW57790   5.759   1.508   2.071  0.3622  0.3133  0.0588
15106SOL    HW157791   5.750   1.583   2.136 -0.3395  0.9447 -0.7528
15106SOL    HW257792   5.670   1.488   2.030  0.9270  0.4347 -1.2610
15107SOL     OW57793   4.630   5.863   7.762  0.0630 -0.4610  0.7933
15107SOL    HW157794   4.710   5.922   7.755 -1.3054  1.3589 -0.2032
15107SOL    HW257795   4.634   5.810   7.846  2.2220 -0.2728  0.8184
15108SOL     OW57796   4.302   0.403   6.488 -0.0932  0.5473  0.4815
15108SOL    HW157797   4.205   0.391   6.509 -0.8255  1.3679 -2.1427
15108SOL    HW257798   4.324   0.500   6.487  0.5042  0.4141  0.1026
15109SOL     OW57799   2.436   1.358   7.652  0.0883  0.1331  0.6979
15109SOL    HW157800   2.367   1.339   7.721 -0.7723  1.1787  0.1301
15109SOL    HW257801   2.463   1.272   7.608 -0.8464 -0.2691  0.9009
15110SOL     OW57802   5.345   2.828   4.806 -0.2464 -0.6283  0.1235
15110SOL    HW157803   5.323   2.884   4.727  1.4504 -1.7961 -1.1977
15110SOL    HW257804   5.261   2.805   4.855 -1.0126  2.7961  0.5464
15111SOL     OW57805   4.719   6.790   5.058  0.5200  0.0758  0.1993
15111SOL    HW157806   4.772   6.829   5.133  1.0679 -0.7539  0.2651
15111SOL    HW257807   4.739   6.692   5.051  0.7185  0.1978 -1.2223
15112SOL     OW57808   3.350   7.896   0.178  0.1699  0.1656  0.4387
15112SOL    HW157809   3.422   7.873   0.113 -1.4466 -1.3293 -0.8725
15112SOL    HW257810   3.328   7.993   0.171  1.9484  0.6092  0.7701
15113SOL     OW57811   1.144   3.349   4.635 -0.5027 -0.3606  0.2393
15113SOL    HW157812   1.242   3.336   4.655 -0.3751 -0.9436 -0.7664
15113SOL    HW257813   1.097   3.377   4.719  0.9851  2.5470  0.1447
15114SOL     OW57814   7.295   0.028   5.418 -0.5857  0.6895  0.7467
15114SOL    HW157815   7.249   0.015   5.506  1.2701 -1.9115  1.3879
15114SOL    HW257816   7.348   0.112   5.419 -0.1467  0.4007  2.3285
15115SOL     OW57817   5.150   2.512   5.415 -0.1706 -0.0464 -0.7711
15115SOL    HW157818   5.066   2.506   5.469  0.0706  0.4002 -0.3450
15115SOL    HW257819   5.193   2.421   5.410  0.7989  0.2626  1.3882
15116SOL     OW57820   4.584   5.090   8.253 -0.6263 -0.2263  0.1578
15116SOL    HW157821   4.556   5.092   8.158  1.0408 -4.0454 -0.5310
15116SOL    HW257822   4.636   5.173   8.275 -1.8969  1.1560 -1.9443
15117SOL     OW57823   1.073   6.846   7.499  0.3544  0.7299 -0.5589
15117SOL    HW157824   1.106   6.917   7.561 -0.1532 -0.9301  1.7014
15117SOL    HW257825   1.041   6.888   7.414  2.1866  2.9565 -0.2152
15118SOL     OW57826   4.834   8.937   1.256  0.7164 -0.4448 -0.0727
15118SOL    HW157827   4.870   8.846   1.235  0.9593  0.1780 -2.5684
15118SOL    HW257828   4.756   8.956   1.197  0.3831  0.7728  0.7539
15119SOL     OW57829   4.975   6.049   5.625 -0.1002  0.9639  0.6720
15119SOL    HW157830   5.042   6.020   5.694 -0.8137 -0.2836  0.8590
15119SOL    HW257831   4.883   6.038   5.662 -0.4762  0.5694 -0.3842
15120SOL     OW57832   1.929   2.083   1.048 -0.0813  0.5338  0.0072
15120SOL    HW157833   1.921   2.113   0.953  1.0247  0.4866 -0.1151
15120SOL    HW257834   1.895   2.155   1.109  0.9125  1.3252 -0.3583
15121SOL     OW57835   0.295   7.897   1.067  0.3922  0.2381 -0.0043
15121SOL    HW157836   0.292   7.878   1.165  3.3877 -1.2252 -0.1212
15121SOL    HW257837   0.319   7.993   1.052 -2.0927  0.9932  0.6511
15122SOL     OW57838   3.069   0.699   7.112 -0.2838 -0.0931  0.2197
15122SOL    HW157839   3.148   0.733   7.061 -0.2666 -0.1167  0.2301
15122SOL    HW257840   2.994   0.766   7.107  0.1696  0.5139  1.2634
15123SOL     OW57841   0.296   7.125   1.066 -0.5461 -1.0377 -0.0952
15123SOL    HW157842   0.306   7.036   1.021 -0.7674 -1.1342  0.0458
15123SOL    HW257843   0.200   7.138   1.092 -0.1678 -1.6301  1.6757
15124SOL     OW57844   1.982   2.767   2.672 -0.8754  0.4559  0.4309
15124SOL    HW157845   2.038   2.818   2.738  0.6944  0.3501 -0.7943
15124SOL    HW257846   1.979   2.671   2.699 -0.4038  0.4510  0.4813
15125SOL     OW57847   7.983   0.317   1.770  0.0425 -0.4728 -0.0355
15125SOL    HW157848   8.037   0.234   1.760 -2.1912 -1.9692 -0.0474
15125SOL    HW257849   7.961   0.332   1.866 -0.4722 -0.5081 -0.1444
15126SOL     OW57850   0.525   0.194   0.454  0.5926  0.2598  0.0934
15126SOL    HW157851   0.574   0.261   0.509  1.9593 -0.9040  0.3112
15126SOL    HW257852   0.589   0.127   0.418 -0.8322 -1.2468  0.3182
15127SOL     OW57853   0.195   4.243   7.180  0.2382 -0.5497 -0.5132
15127SOL    HW157854   0.284   4.288   7.179  0.7594 -1.5733 -1.7742
15127SOL    HW257855   0.134   4.287   7.115 -0.4063  0.5567  0.8088
15128SOL     OW57856   6.520   5.260   8.403 -0.0967 -0.6283 -0.1520
15128SOL    HW157857   6.523   5.166   8.436  1.3142 -0.8429 -0.8510
15128SOL    HW257858   6.582   5.317   8.458  0.3011 -0.4527 -0.7813
15129SOL     OW57859   0.428   3.378   3.988 -0.3264 -0.2329  0.0813
15129SOL    HW157860   0.407   3.440   3.913 -0.9395 -0.7444 -0.1735
15129SOL    HW257861   0.513   3.329   3.968 -0.0230  0.2675  0.1287
15130SOL     OW57862   1.409   8.726   4.145 -0.0507 -0.0119 -0.0267
15130SOL    HW157863   1.315   8.725   4.110  0.1002  0.5879 -0.4428
15130SOL    HW257864   1.437   8.633   4.168 -2.0787  0.1895  3.6514
15131SOL     OW57865   1.155   2.645   1.473 -0.1655  0.1947 -0.2742
15131SOL    HW157866   1.185   2.628   1.567 -0.0275  0.7195 -0.2196
15131SOL    HW257867   1.231   2.631   1.411  0.7975  3.4808  0.0503
15132SOL     OW57868   3.018   8.620   8.488 -0.1943 -0.4489  0.0590
15132SOL    HW157869   3.081   8.590   8.416 -1.6027 -0.2374 -1.2997
15132SOL    HW257870   3.030   8.562   8.569  1.4732 -0.6332 -0.3032
15133SOL     OW57871   1.789   6.546   0.473  0.1743 -0.4196  0.0445
15133SOL    HW157872   1.793   6.523   0.570 -0.0337  1.0075  0.3983
15133SOL    HW257873   1.784   6.462   0.419 -0.4886 -1.2042  1.3066
15134SOL     OW57874   4.855   1.381   8.140  0.0840  0.3703  0.5142
15134SOL    HW157875   4.859   1.429   8.052  0.4731  1.7208  1.2559
15134SOL    HW257876   4.876   1.445   8.214  0.8043 -0.9977  1.5112
15135SOL     OW57877   4.930   0.403   6.589 -0.2502 -0.6045 -0.1879
15135SOL    HW157878   4.855   0.404   6.523  0.0196  1.5227 -0.4840
15135SOL    HW257879   5.012   0.365   6.545 -0.4731 -0.5934 -0.6192
15136SOL     OW57880   6.877   0.862   7.947  0.2963  0.2035  0.7114
15136SOL    HW157881   6.789   0.892   7.983  0.9034  0.8110  1.7174
15136SOL    HW257882   6.875   0.764   7.929 -1.4076  0.6444 -1.7016
15137SOL     OW57883   1.598   2.173   0.136 -0.6290  0.4010  0.4892
15137SOL    HW157884   1.552   2.130   0.058 -1.8611  2.2748  0.1476
15137SOL    HW257885   1.680   2.221   0.105  1.2697 -2.3942  1.0045
15138SOL     OW57886   7.921   6.519   0.427 -0.5138  0.3214 -0.0168
15138SOL    HW157887   7.981   6.576   0.482  0.4256  0.2070 -0.9102
15138SOL    HW257888   7.931   6.423   0.456 -1.5874  0.5223  1.0270
15139SOL     OW57889   5.559   6.353   0.021  0.1319  0.0955  0.3076
15139SOL    HW157890   5.633   6.415  -0.005 -0.2841  0.2910 -0.4158
15139SOL    HW257891   5.480   6.406   0.053  0.3989 -0.1205  1.3597
15140SOL     OW57892   6.171   4.090   6.919 -0.3179  0.2769  0.2313
15140SOL    HW157893   6.090   4.055   6.870  1.1095 -0.8710 -1.3707
15140SOL    HW257894   6.141   4.143   6.998 -2.6372 -0.9123  0.2068
15141SOL     OW57895   0.425   0.694   8.905  0.1297 -0.2139 -0.1201
15141SOL    HW157896   0.403   0.743   8.990 -0.4529 -0.3368 -0.1950
15141SOL    HW257897   0.523   0.698   8.889  0.1941  0.1706  0.3439
15142SOL     OW57898   4.803   2.579   7.070  0.3284  0.1241 -0.4287
15142SOL    HW157899   4.730   2.520   7.104  1.6844 -1.5112 -0.2975
15142SOL    HW257900   4.765   2.667   7.043 -1.4513 -0.1436  1.1160
15143SOL     OW57901   5.841   0.267   2.030  0.2674  0.1697 -0.4673
15143SOL    HW157902   5.930   0.256   1.987 -0.0504  1.7145 -1.5359
15143SOL    HW257903   5.850   0.325   2.111  0.3220 -0.1281 -0.2591
15144SOL     OW57904   0.339   3.312   6.553  0.2069  0.3690  0.4745
15144SOL    HW157905   0.359   3.333   6.649  1.6672  1.2254 -0.0048
15144SOL    HW257906   0.292   3.389   6.511  2.2090  1.2252 -0.2724
15145SOL     OW57907   1.389   1.870   8.007  0.0762  0.7916 -0.8262
15145SOL    HW157908   1.343   1.929   8.073  1.7124  1.2652 -0.1032
15145SOL    HW257909   1.321   1.813   7.961 -1.0572  0.1596  1.5533
15146SOL     OW57910   1.360   8.357   6.502 -0.2436 -0.0341 -0.3419
15146SOL    HW157911   1.399   8.420   6.436 -0.8073  2.0253  1.2550
15146SOL    HW257912   1.412   8.361   6.588  0.8782 -3.1411 -0.8160
15147SOL     OW57913   3.182   8.339   8.551  0.4732  0.2878  0.7301
15147SOL    HW157914   3.112   8.268   8.544 -0.8841  1.5170  1.4529
15147SOL    HW257915   3.220   8.339   8.643  0.4502  0.5058  0.7398
15148SOL     OW57916   3.898   2.363   6.429 -0.6723  0.0727  0.1254
15148SOL    HW157917   3.873   2.294   6.361 -0.3586 -0.4784  0.5682
15148SOL    HW257918   3.903   2.453   6.385  1.2001 -0.5273 -0.9374
15149SOL     OW57919   6.960   3.602   7.249 -0.3773 -0.5725 -0.1278
15149SOL    HW157920   6.920   3.624   7.339 -2.7002 -1.3936 -0.9229
15149SOL    HW257921   7.018   3.521   7.258 -0.7031 -0.7341  0.6045
15150SOL     OW57922   5.419   4.383   0.508 -0.1064  0.0955 -0.5916
15150SOL    HW157923   5.472   4.316   0.560  1.7649  2.1669  0.2305
15150SOL    HW257924   5.480   4.440   0.454 -1.5520  1.9260 -0.3503
15151SOL     OW57925   4.486   7.439   7.332  0.0342 -0.5443  0.5223
15151SOL    HW157926   4.459   7.433   7.236 -2.2848 -0.9731  1.1698
15151SOL    HW257927   4.586   7.440   7.338  0.2334 -1.4297 -1.8395
15152SOL     OW57928   0.161   5.220   4.559  0.0668  0.4477  0.2182
15152SOL    HW157929   0.260   5.212   4.551 -0.0937 -0.7588 -0.7981
15152SOL    HW257930   0.137   5.308   4.599  1.6120  0.1031  1.9187
15153SOL     OW57931   7.388   1.405   2.027 -0.7219  0.1040 -0.1963
15153SOL    HW157932   7.376   1.484   2.087  2.1107  1.0174 -0.7745
15153SOL    HW257933   7.429   1.330   2.080 -0.2716  0.1658 -0.4589
15154SOL     OW57934   2.140   6.914   5.075 -0.0926 -0.0128 -0.2210
15154SOL    HW157935   2.176   6.869   5.157  2.0771  0.4767 -0.8619
15154SOL    HW257936   2.144   7.013   5.087 -0.4039  0.0528 -0.6643
15155SOL     OW57937   0.449   3.494   2.010  0.3962  0.8935 -0.0309
15155SOL    HW157938   0.356   3.531   2.015 -0.3450 -0.9651  0.5404
15155SOL    HW257939   0.482   3.475   2.102  0.3893 -0.7220 -0.3492
15156SOL     OW57940   6.455   7.319   6.848 -0.1632  0.0812 -0.3373
15156SOL    HW157941   6.494   7.241   6.801  0.6029 -0.3859  1.0352
15156SOL    HW257942   6.475   7.312   6.946 -2.7971  0.3588  0.2569
15157SOL     OW57943   0.426   5.376   4.332  0.3100  0.2529  0.6050
15157SOL    HW157944   0.500   5.349   4.270 -1.4578 -0.0702 -1.4465
15157SOL    HW257945   0.437   5.329   4.420  0.3568 -2.9137 -1.0245
15158SOL     OW57946   6.670   3.621   2.353 -0.2318  0.1915  0.6029
15158SOL    HW157947   6.578   3.583   2.364 -0.0534 -0.4111  0.0511
15158SOL    HW257948   6.735   3.547   2.339  0.3681  0.6057  1.1294
15159SOL     OW57949   5.390   6.321   6.665  0.2477 -0.5049  0.4381
15159SOL    HW157950   5.482   6.291   6.643  0.2083 -0.8394  0.7202
15159SOL    HW257951   5.387   6.354   6.759  0.3009  0.4291  0.1180
15160SOL     OW57952   6.271   4.601   0.284 -0.1083  0.0282 -0.4055
15160SOL    HW157953   6.361   4.644   0.293 -0.0972 -0.1412  0.3009
15160SOL    HW257954   6.264   4.558   0.194  0.5788 -0.0956 -0.4058
15161SOL     OW57955   7.711   6.972   8.513  0.1409  0.0697 -0.0213
15161SOL    HW157956   7.687   6.895   8.571  0.3093 -0.1894 -0.2912
15161SOL    HW257957   7.682   7.057   8.556  2.0728  0.0499  1.4116
15162SOL     OW57958   6.591   7.139   0.826  0.1906 -0.4949 -0.4495
15162SOL    HW157959   6.619   7.089   0.744  0.1601  0.0030 -0.7646
15162SOL    HW257960   6.551   7.076   0.892  2.3673 -1.3116  0.1609
15163SOL     OW57961   2.575   7.925   8.545 -0.0997 -0.5558  0.0861
15163SOL    HW157962   2.649   7.858   8.541 -0.3405 -0.8306  0.2906
15163SOL    HW257963   2.538   7.939   8.453  1.3162  0.8161 -0.3189
15164SOL     OW57964   6.399   5.379   4.917  0.4775  0.4049  0.3432
15164SOL    HW157965   6.498   5.369   4.909  0.4834  1.1178 -0.6100
15164SOL    HW257966   6.363   5.415   4.831 -0.4662  1.2565  1.0881
15165SOL     OW57967   4.625   3.998   5.331  0.0746  0.0788  0.1492
15165SOL    HW157968   4.588   4.083   5.293 -1.8245 -0.3064  1.0958
15165SOL    HW257969   4.710   4.018   5.381  1.0559  0.9991 -1.8408
15166SOL     OW57970   5.754   2.412   2.607 -0.3034 -0.1374 -0.3013
15166SOL    HW157971   5.669   2.387   2.561 -0.0030  0.2579 -1.0868
15166SOL    HW257972   5.770   2.510   2.597  1.4110 -0.5654 -2.1826
15167SOL     OW57973   2.869   6.290   7.402 -0.3820 -0.2010 -0.0932
15167SOL    HW157974   2.838   6.359   7.337 -0.8452 -0.4694 -0.1612
15167SOL    HW257975   2.905   6.335   7.484 -1.7265  0.1124  0.3417
15168SOL     OW57976   6.316   2.480   3.185 -0.1814 -0.0633 -0.3072
15168SOL    HW157977   6.232   2.506   3.233  0.3834  0.5178  0.3940
15168SOL    HW257978   6.343   2.555   3.125 -0.9863 -0.8669 -1.6763
15169SOL     OW57979   3.331   4.179   0.717 -0.0913 -0.1047  0.7751
15169SOL    HW157980   3.249   4.234   0.732 -0.7642 -0.7417 -0.5291
15169SOL    HW257981   3.341   4.159   0.619  0.6238 -1.5756  1.1345
15170SOL     OW57982   6.805   1.359   2.128 -0.5470  0.5071 -0.6214
15170SOL    HW157983   6.882   1.355   2.192 -0.7240 -1.2011 -0.5100
15170SOL    HW257984   6.750   1.440   2.148  0.8747  1.4377 -0.3298
15171SOL     OW57985   0.353   4.604   0.144 -0.0534 -0.0677  0.3124
15171SOL    HW157986   0.449   4.606   0.173  0.3665  1.6244 -1.0759
15171SOL    HW257987   0.343   4.542   0.066 -0.1194 -0.3797  0.5691
15172SOL     OW57988   2.772   3.929   6.449  0.5167  0.2432  0.2414
15172SOL    HW157989   2.704   3.974   6.390  0.7248  0.9040  0.4948
15172SOL    HW257990   2.726   3.868   6.513  0.1051  1.1215  0.7955
15173SOL     OW57991   8.863   5.973   0.153  0.1352  0.2318 -0.3705
15173SOL    HW157992   8.828   6.029   0.228  0.6235 -1.0360  0.8287
15173SOL    HW257993   8.963   5.973   0.156  0.1915  1.5385 -2.0475
15174SOL     OW57994   8.220   4.230   1.160  0.5770  0.3462 -0.0202
15174SOL    HW157995   8.160   4.178   1.100 -2.2898  0.7355  2.3596
15174SOL    HW257996   8.281   4.168   1.208 -1.4916 -0.6945  1.3522
15175SOL     OW57997   8.638   8.357   1.877 -0.0954  0.2753 -0.1691
15175SOL    HW157998   8.696   8.438   1.889 -0.0729  0.2118  0.1564
15175SOL    HW257999   8.685   8.276   1.913 -1.3113  0.5805  2.1653
15176SOL     OW58000   8.447   2.790   7.336  0.4091  0.3335 -0.0432
15176SOL    HW158001   8.499   2.840   7.266  0.9748  1.5915  1.2440
15176SOL    HW258002   8.498   2.708   7.363  1.2572  1.0199  0.4805
15177SOL     OW58003   8.689   0.075   6.901  0.3424  0.0928 -0.4018
15177SOL    HW158004   8.701   0.066   6.802  0.0448 -0.4420 -0.3902
15177SOL    HW258005   8.625   0.005   6.934 -0.8226  1.2938 -0.0787
15178SOL     OW58006   1.412   3.719   0.434 -0.4957 -0.1070 -0.0203
15178SOL    HW158007   1.312   3.708   0.436 -0.5245  0.2173  0.4367
15178SOL    HW258008   1.436   3.814   0.453 -0.1455  0.1007 -1.4650
15179SOL     OW58009   4.001   6.292   3.518 -0.5748 -0.5298 -0.0120
15179SOL    HW158010   4.015   6.264   3.423 -0.9606 -1.2493  0.1371
15179SOL    HW258011   4.088   6.321   3.558 -0.4732  0.1162 -0.6863
15180SOL     OW58012   8.687   3.245   7.306  0.1694 -0.6034 -0.2490
15180SOL    HW158013   8.597   3.200   7.303  0.4023 -0.9619 -2.6971
15180SOL    HW258014   8.676   3.343   7.289 -0.1231  0.0264  3.1667
15181SOL     OW58015   6.745   5.257   1.405  0.5749  0.4611  0.1427
15181SOL    HW158016   6.692   5.185   1.450  1.9232  0.0285  1.0790
15181SOL    HW258017   6.831   5.219   1.370  0.1259  1.0803 -1.6659
15182SOL     OW58018   3.148   3.555   6.565  0.5156  0.6501  0.6977
15182SOL    HW158019   3.067   3.603   6.534  0.1869 -0.3103  0.0580
15182SOL    HW258020   3.155   3.466   6.519  1.7074  0.5511  1.0382
15183SOL     OW58021   4.336   5.686   2.195  0.2981  0.3914  0.4519
15183SOL    HW158022   4.275   5.741   2.138  1.3192  1.4373  0.3597
15183SOL    HW258023   4.284   5.647   2.270 -0.8751 -0.2595 -0.6769
15184SOL     OW58024   0.012   0.687   6.761 -0.1233  0.2020  0.2019
15184SOL    HW158025   0.075   0.685   6.683 -1.7340  1.4343 -1.1638
15184SOL    HW258026  -0.080   0.662   6.730 -0.9875  1.7326  1.5024
15185SOL     OW58027   6.726   2.428   3.879  0.2230  0.1917  0.2437
15185SOL    HW158028   6.631   2.419   3.908 -0.1504  0.8089 -0.7393
15185SOL    HW258029   6.768   2.338   3.871 -0.4330 -0.1110  0.1945
15186SOL     OW58030   3.554   3.260   4.190  0.4988 -0.9205  0.1937
15186SOL    HW158031   3.617   3.246   4.266 -0.8849 -1.3764  1.2894
15186SOL    HW258032   3.460   3.257   4.225 -0.1117  0.0858 -1.3495
15187SOL     OW58033   6.319   2.344   0.076 -0.1561  0.3590 -0.2601
15187SOL    HW158034   6.275   2.256   0.057 -0.4030 -0.0076  1.8903
15187SOL    HW258035   6.255   2.404   0.124  0.5200  1.1246 -0.3114
15188SOL     OW58036   8.834   6.062   3.665 -0.0397  0.4931 -0.4765
15188SOL    HW158037   8.844   6.110   3.578  1.4259  1.5022  0.2187
15188SOL    HW258038   8.906   6.093   3.728 -0.1664 -1.3182  0.5843
15189SOL     OW58039   4.075   5.427   3.593 -0.7752 -0.7092 -0.4095
15189SOL    HW158040   4.138   5.420   3.671 -1.1982  0.3918  0.0570
15189SOL    HW258041   4.018   5.509   3.605 -0.9857 -0.6533 -1.7810
15190SOL     OW58042   6.232   7.943   2.178 -0.1403 -0.3020 -0.2287
15190SOL    HW158043   6.223   7.848   2.207 -1.6182  0.1312  0.7686
15190SOL    HW258044   6.327   7.973   2.189  0.3058 -1.6114 -0.4376
15191SOL     OW58045   7.666   4.260   7.044 -0.1772  0.2445 -0.4908
15191SOL    HW158046   7.614   4.274   7.128  0.9923 -1.4012  0.5275
15191SOL    HW258047   7.652   4.339   6.983 -3.4038  0.1181 -0.0305
15192SOL     OW58048   0.357   0.494   5.928  0.0053 -0.0227  0.3339
15192SOL    HW158049   0.317   0.586   5.929  0.7364  0.3019  0.5369
15192SOL    HW258050   0.321   0.441   6.005 -2.3381 -0.7635 -1.2150
15193SOL     OW58051   4.346   6.324   1.323 -0.2260  0.0782  0.0990
15193SOL    HW158052   4.394   6.378   1.392 -0.4895 -0.2943  0.5789
15193SOL    HW258053   4.251   6.355   1.317 -0.5975 -0.8672  0.9585
15194SOL     OW58054   6.845   3.002   2.930  0.5573  0.1867 -0.0105
15194SOL    HW158055   6.796   3.085   2.901 -0.2963 -0.1923  0.3112
15194SOL    HW258056   6.894   3.020   3.015  1.4995  0.7546 -0.6720
15195SOL     OW58057   3.896   7.251   8.254  0.8372 -0.1198  0.1731
15195SOL    HW158058   3.957   7.188   8.205  2.2811  0.3211  1.3648
15195SOL    HW258059   3.895   7.226   8.351 -1.5128 -0.6060  0.0548
15196SOL     OW58060   0.085   6.684   6.997  0.7901 -0.5919 -0.0102
15196SOL    HW158061   0.148   6.737   7.055  1.1838 -0.3788 -0.6294
15196SOL    HW258062  -0.004   6.679   7.041  1.5282 -1.8145  1.4046
15197SOL     OW58063   8.798   0.335   0.805  0.6403 -0.7304 -0.2916
15197SOL    HW158064   8.787   0.431   0.832  1.1168 -0.7563 -0.0053
15197SOL    HW258065   8.854   0.330   0.723  2.1745 -0.8723  0.7367
15198SOL     OW58066   5.205   1.529   1.124 -0.3331 -0.2028  0.5101
15198SOL    HW158067   5.172   1.617   1.090 -0.6029 -0.3923  0.2831
15198SOL    HW258068   5.305   1.532   1.135 -0.2228 -0.2161 -0.5092
15199SOL     OW58069   6.631   6.231   7.201  0.0392  0.1047  0.0301
15199SOL    HW158070   6.637   6.235   7.101  1.0321 -0.5574  0.0553
15199SOL    HW258071   6.570   6.303   7.234  1.1923  1.5407 -0.9311
15200SOL     OW58072   2.052   2.175   4.824  0.6984 -0.2229  0.4062
15200SOL    HW158073   1.998   2.225   4.756 -1.5659 -1.7762  1.0279
15200SOL    HW258074   2.060   2.230   4.907 -1.3285 -0.6133  0.8923
15201SOL     OW58075   8.704   7.324   8.457 -0.0436 -0.6714 -0.3299
15201SOL    HW158076   8.622   7.267   8.467 -1.4071  1.3217  0.2238
15201SOL    HW258077   8.706   7.392   8.531  2.0190 -0.5638 -0.4601
15202SOL     OW58078   5.059   5.023   7.262 -0.3203 -0.4528  0.5559
15202SOL    HW158079   5.107   5.054   7.181  0.4761 -0.4848  1.0103
15202SOL    HW258080   5.104   4.941   7.298 -1.5008 -1.2571  0.2295
15203SOL     OW58081   1.817   3.407   6.418 -0.0310 -0.0490  0.0510
15203SOL    HW158082   1.873   3.454   6.486 -1.6410  0.8854  0.7592
15203SOL    HW258083   1.764   3.335   6.462  0.2781 -0.6390 -0.5368
15204SOL     OW58084   1.659   1.251   0.160 -0.3085 -0.0781 -0.4273
15204SOL    HW158085   1.698   1.341   0.179  1.3568 -1.0529  0.9268
15204SOL    HW258086   1.708   1.209   0.083  1.4488 -1.3318  1.3171
15205SOL     OW58087   4.819   4.337   5.780 -0.3442  0.3064 -0.0778
15205SOL    HW158088   4.732   4.383   5.762 -0.9580 -0.8163 -0.0465
15205SOL    HW258089   4.812   4.241   5.752  1.1804  0.4325 -0.9289
15206SOL     OW58090   0.493   6.875   5.937  0.3334 -0.4639  0.0527
15206SOL    HW158091   0.502   6.782   5.901  2.2146  0.4861 -2.0908
15206SOL    HW258092   0.417   6.921   5.890  0.8233 -0.2179 -0.5073
15207SOL     OW58093   8.999   4.643   3.284  0.7483 -0.5352  0.6368
15207SOL    HW158094   9.074   4.648   3.219  0.4279 -1.9750  0.1257
15207SOL    HW258095   8.923   4.700   3.253 -0.2477 -2.8571 -1.4372
15208SOL     OW58096   1.296   4.560   8.553 -1.0762 -0.6113  0.1056
15208SOL    HW158097   1.303   4.462   8.574 -1.4392 -0.7458 -0.3948
15208SOL    HW258098   1.376   4.588   8.499 -0.3356 -0.3489  1.3277
15209SOL     OW58099   8.389   2.619   0.255 -0.3050 -0.3272  0.5356
15209SOL    HW158100   8.374   2.579   0.165 -1.3639  0.8345  0.1801
15209SOL    HW258101   8.322   2.581   0.319  0.7866 -1.5504  0.9747
15210SOL     OW58102   5.824   3.088   6.948  0.5727 -0.4684  0.4115
15210SOL    HW158103   5.758   3.047   6.886 -0.1206  0.0546  0.7892
15210SOL    HW258104   5.785   3.172   6.987  2.2302  0.9675 -0.9241
15211SOL     OW58105   4.848   2.164   8.200 -0.1764  0.1827  0.2244
15211SOL    HW158106   4.893   2.090   8.150 -1.9020 -0.5503 -0.2737
15211SOL    HW258107   4.884   2.252   8.169  0.5166 -0.3593 -0.5382
15212SOL     OW58108   8.533   4.780   7.081 -0.1165 -0.1309 -0.0133
15212SOL    HW158109   8.541   4.713   7.155  0.6919 -0.6439 -0.5656
15212SOL    HW258110   8.623   4.817   7.059 -0.8036  2.8746  1.8751
15213SOL     OW58111   0.800   5.771   5.045 -0.0801  0.3749 -0.0267
15213SOL    HW158112   0.865   5.846   5.059 -1.3896  1.7984 -1.2818
15213SOL    HW258113   0.845   5.696   4.996  1.1151  0.5463  0.7938
15214SOL     OW58114   5.259   0.838   2.249 -0.1140 -0.1300 -0.2326
15214SOL    HW158115   5.328   0.902   2.284  0.7020 -1.4886  0.6947
15214SOL    HW258116   5.233   0.774   2.322 -1.1616 -0.6576 -1.0550
15215SOL     OW58117   6.366   8.956   2.094  0.7353 -0.0028  0.0648
15215SOL    HW158118   6.361   8.857   2.076 -0.5140 -0.0743  0.7455
15215SOL    HW258119   6.458   8.979   2.126  1.5105 -0.6768 -1.5848
15216SOL     OW58120   4.868   3.843   3.366  0.7917  0.0257 -0.0886
15216SOL    HW158121   4.901   3.864   3.458 -0.5556  1.3305  0.1232
15216SOL    HW258122   4.837   3.748   3.362  0.0267  0.2218  1.0673
15217SOL     OW58123   5.252   6.481   5.957 -0.1958 -0.2225 -1.0330
15217SOL    HW158124   5.334   6.443   5.913 -0.0390 -0.2968 -0.6740
15217SOL    HW258125   5.274   6.569   5.998  0.2199 -1.1838  0.8503
15218SOL     OW58126   5.776   3.843   5.335  0.1314 -0.4764  1.1240
15218SOL    HW158127   5.817   3.766   5.286 -0.6220 -0.2390  0.1028
15218SOL    HW258128   5.834   3.868   5.412  1.4775 -0.6948  0.1945
15219SOL     OW58129   0.455   2.779   4.688  0.3396  0.1750  0.4284
15219SOL    HW158130   0.368   2.750   4.649  0.5548  1.7053 -1.2504
15219SOL    HW258131   0.443   2.867   4.735  1.1568  0.8622 -0.6255
15220SOL     OW58132   8.436   1.152   1.455  0.1113 -0.1504 -0.3400
15220SOL    HW158133   8.358   1.205   1.489  0.4865 -0.0418  0.3518
15220SOL    HW258134   8.404   1.062   1.425 -0.1798 -0.3526  0.5626
15221SOL     OW58135   5.330   7.170   7.619  0.7904  0.5069 -0.3081
15221SOL    HW158136   5.238   7.209   7.624  1.2936  1.5121  1.5012
15221SOL    HW258137   5.324   7.073   7.598 -0.8168  0.0531  2.1040
15222SOL     OW58138   6.984   1.373   7.195 -0.1332 -0.3772 -0.0730
15222SOL    HW158139   6.916   1.394   7.265 -1.0104  1.3563 -1.3932
15222SOL    HW258140   7.074   1.361   7.238 -0.7397  0.1704  1.3810
15223SOL     OW58141   0.176   4.829   1.322  0.3594 -0.3921  0.2217
15223SOL    HW158142   0.083   4.830   1.358  0.2363 -0.1209 -0.1046
15223SOL    HW258143   0.237   4.785   1.388 -0.0079 -0.6143  0.4136
15224SOL     OW58144   4.911   0.744   2.082 -0.1823 -0.4593  0.2116
15224SOL    HW158145   4.889   0.723   2.177  0.2377 -2.4500 -0.1169
15224SOL    HW258146   4.877   0.835   2.060 -1.4860 -0.5146  1.8674
15225SOL     OW58147   0.255   1.617   6.368  0.0059 -0.5442  0.3652
15225SOL    HW158148   0.220   1.528   6.337 -2.4605 -0.0919  1.6869
15225SOL    HW258149   0.284   1.670   6.288 -4.0353 -0.3090 -1.0823
15226SOL     OW58150   5.904   5.296   3.119  0.1071 -0.5023  0.6925
15226SOL    HW158151   5.841   5.364   3.157  0.5308 -0.5363  1.4601
15226SOL    HW258152   5.858   5.208   3.110 -0.3523 -0.1916 -0.0170
15227SOL     OW58153   6.392   4.043   5.538 -0.5662  0.4250  0.3540
15227SOL    HW158154   6.474   4.051   5.594 -0.4852  0.0967  0.2831
15227SOL    HW258155   6.338   3.964   5.568 -0.8865  0.6764  0.4415
15228SOL     OW58156   6.209   6.851   8.529 -0.0997 -0.4344 -0.3462
15228SOL    HW158157   6.202   6.950   8.534 -2.4838 -0.6820  3.1058
15228SOL    HW258158   6.298   6.825   8.490  1.0221  2.9992 -0.2081
15229SOL     OW58159   8.379   8.886   6.673  0.3423  0.1670  0.0334
15229SOL    HW158160   8.455   8.847   6.621  2.7772  0.5192  3.1090
15229SOL    HW258161   8.342   8.816   6.734  0.4012  0.8808  0.8965
15230SOL     OW58162   2.214   3.151   7.889  0.2210  0.1868 -0.1844
15230SOL    HW158163   2.174   3.205   7.814 -1.4163  1.9096  1.8776
15230SOL    HW258164   2.308   3.181   7.904 -0.0231  1.0819 -0.3907
15231SOL     OW58165   6.290   1.744   3.051 -0.0228  0.1691  0.8850
15231SOL    HW158166   6.200   1.767   3.088 -0.4196 -0.0394  0.0677
15231SOL    HW258167   6.296   1.778   2.957 -0.7970 -3.3880 -0.5487
15232SOL     OW58168   6.658   4.075   3.595 -0.5497  0.5386 -0.4291
15232SOL    HW158169   6.733   4.134   3.565 -2.3354  2.6506 -0.9642
15232SOL    HW258170   6.685   4.023   3.675  1.6294  0.9131 -0.9111
15233SOL     OW58171   6.384   7.934   4.834 -0.2508 -0.5553 -0.1061
15233SOL    HW158172   6.413   7.966   4.925  1.8430 -0.8566 -0.6366
15233SOL    HW258173   6.382   8.012   4.771 -0.1252 -0.6039 -0.1720
15234SOL     OW58174   0.099   6.446   6.834  0.2521  0.3798  0.2480
15234SOL    HW158175   0.100   6.535   6.879  2.0371  0.5442 -0.0977
15234SOL    HW258176   0.143   6.453   6.745  0.4816 -0.8666  0.2570
15235SOL     OW58177   6.580   2.388   8.459  0.2497  0.0316 -0.0189
15235SOL    HW158178   6.538   2.476   8.481 -0.7986 -0.4362 -0.1161
15235SOL    HW258179   6.639   2.398   8.378 -1.6236  0.1819 -1.4054
15236SOL     OW58180   8.111   7.664   7.021 -0.1071 -0.0294 -0.3774
15236SOL    HW158181   8.130   7.743   7.079  0.5360  0.3839 -1.1369
15236SOL    HW258182   8.183   7.655   6.952 -0.0136 -1.4757 -0.0975
15237SOL     OW58183   5.687   7.501   6.865 -0.4919 -0.3278 -0.1335
15237SOL    HW158184   5.706   7.585   6.916  0.4169  1.3820 -3.1402
15237SOL    HW258185   5.591   7.477   6.875 -1.0586  1.7886 -0.1572
15238SOL     OW58186   2.892   6.991   8.136  0.5807 -0.4961 -0.1353
15238SOL    HW158187   2.877   6.902   8.178 -0.3984 -0.2513  0.0265
15238SOL    HW258188   2.988   6.998   8.108  0.3266 -2.2051 -1.5838
15239SOL     OW58189   4.846   5.044   2.817  0.1928 -0.0705  0.1655
15239SOL    HW158190   4.886   5.124   2.862  2.5910  0.1538 -2.2570
15239SOL    HW258191   4.915   4.972   2.810 -1.4021 -1.6707  0.6405
15240SOL     OW58192   5.743   4.668   1.707 -0.0975 -0.1487 -0.2608
15240SOL    HW158193   5.702   4.732   1.771  0.0154 -0.8412  0.5047
15240SOL    HW258194   5.842   4.682   1.704  0.0405 -0.8769  0.5825
15241SOL     OW58195   4.580   4.345   6.728  0.4146 -0.4826 -0.5438
15241SOL    HW158196   4.545   4.407   6.657 -0.0813 -0.7420 -0.5246
15241SOL    HW258197   4.504   4.311   6.783  0.9764  1.3129  1.4190
15242SOL     OW58198   7.943   4.407   6.180  0.2202  0.6525 -0.6172
15242SOL    HW158199   7.855   4.454   6.165 -0.3487 -0.1798  0.0918
15242SOL    HW258200   7.999   4.462   6.243  0.2976  1.2866 -1.2286
15243SOL     OW58201   2.396   8.381   6.002  0.2143  0.5935 -0.2058
15243SOL    HW158202   2.302   8.365   6.031  0.0958 -0.4152 -1.1229
15243SOL    HW258203   2.447   8.424   6.077 -0.1363 -1.7510  1.4446
15244SOL     OW58204   5.810   3.258   7.586 -0.7488  0.0637  0.1417
15244SOL    HW158205   5.760   3.279   7.670  0.7171  1.0247  0.8071
15244SOL    HW258206   5.750   3.268   7.507 -1.3127  2.3423  0.8245
15245SOL     OW58207   6.069   3.647   6.631  0.1425 -0.3878  0.2060
15245SOL    HW158208   6.139   3.673   6.697  0.8263 -0.1422 -0.6072
15245SOL    HW258209   6.012   3.574   6.669 -1.0402  1.4393  2.0357
15246SOL     OW58210   6.403   5.617   3.668  0.8779  0.1502  0.4296
15246SOL    HW158211   6.477   5.671   3.628  0.0392  1.4886  0.6279
15246SOL    HW258212   6.417   5.609   3.767  0.4781  0.9039  0.5576
15247SOL     OW58213   3.794   8.318   8.211  0.2116  0.7239  0.1119
15247SOL    HW158214   3.872   8.257   8.202  1.9609  2.6400  1.7346
15247SOL    HW258215   3.813   8.405   8.165 -1.9968  0.3275 -1.6564
15248SOL     OW58216   2.385   8.674   3.360  0.0404  0.2121  0.0400
15248SOL    HW158217   2.293   8.636   3.370 -0.7228  1.4852 -1.8806
15248SOL    HW258218   2.406   8.733   3.437 -1.1500  0.6903  0.0049
15249SOL     OW58219   4.656   5.523   6.403 -0.5719 -0.5080  0.2306
15249SOL    HW158220   4.630   5.495   6.310  1.9376 -1.0049 -0.3498
15249SOL    HW258221   4.610   5.609   6.425 -0.6784 -0.0187 -1.7511
15250SOL     OW58222   6.814   7.041   0.310 -0.3707 -0.1629 -0.0501
15250SOL    HW158223   6.863   6.965   0.353  1.1755  1.5416  1.3010
15250SOL    HW258224   6.868   7.076   0.234 -0.3989  0.4670  0.2153
15251SOL     OW58225   5.323   1.739   8.338 -0.6399  0.6819  1.0559
15251SOL    HW158226   5.255   1.669   8.319 -0.0289  0.5533 -0.7238
15251SOL    HW258227   5.398   1.733   8.272 -0.7670  3.2373  0.6210
15252SOL     OW58228   8.814   8.161   0.631 -0.2317 -0.1816  0.1770
15252SOL    HW158229   8.813   8.190   0.727  0.5617 -0.4593  0.2744
15252SOL    HW258230   8.905   8.176   0.593 -0.8884  1.1278 -0.9088
15253SOL     OW58231   5.141   5.427   8.938  0.1089 -0.2747 -0.2344
15253SOL    HW158232   5.058   5.373   8.949  0.7537 -1.7378 -2.2146
15253SOL    HW258233   5.168   5.467   9.026 -1.5765 -1.4001  0.8060
15254SOL     OW58234   8.832   2.845   3.164 -0.0468 -0.3146 -0.2715
15254SOL    HW158235   8.877   2.836   3.253 -1.1551  0.3448  0.3609
15254SOL    HW258236   8.772   2.767   3.149  1.7817 -1.5394 -1.4118
15255SOL     OW58237   6.803   6.075   2.444  0.1512  0.3718 -0.4142
15255SOL    HW158238   6.815   6.066   2.543  1.0327 -0.6468 -0.6085
15255SOL    HW258239   6.709   6.050   2.420 -0.0205  0.4696  0.1458
15256SOL     OW58240   0.649   5.097   5.294 -0.6274  0.3897 -0.0994
15256SOL    HW158241   0.568   5.116   5.239 -0.2952  0.7178 -0.4831
15256SOL    HW258242   0.625   5.093   5.391 -1.3286 -0.7940 -0.3154
15257SOL     OW58243   8.997   8.791   0.236 -0.0679 -0.1969 -0.4207
15257SOL    HW158244   9.001   8.873   0.293  0.8481  0.2228 -1.0671
15257SOL    HW258245   8.997   8.818   0.139  1.2213 -0.9806 -0.6559
15258SOL     OW58246   2.087   3.824   6.948  1.0447  0.7451  0.1983
15258SOL    HW158247   2.130   3.914   6.941  0.5687  1.0495  1.1444
15258SOL    HW258248   2.129   3.762   6.880 -0.0696  2.2278 -1.8996
15259SOL     OW58249   7.048   3.940   8.454  0.2991  0.0248 -0.0293
15259SOL    HW158250   7.071   4.022   8.505  0.2960 -0.0713  0.1265
15259SOL    HW258251   7.110   3.931   8.376  0.1461  0.3029 -0.1849
15260SOL     OW58252   0.650   8.121   0.020  0.0419 -0.1105  0.0512
15260SOL    HW158253   0.644   8.121   0.120  0.8646 -3.3316  0.1466
15260SOL    HW258254   0.560   8.099  -0.017 -0.2332  0.9546  0.0792
15261SOL     OW58255   3.984   1.967   4.991 -0.4058 -0.2377 -0.4709
15261SOL    HW158256   3.978   2.067   4.988 -3.2273 -0.3801 -1.1858
15261SOL    HW258257   4.060   1.936   4.934 -0.6913  1.4014 -1.7823
15262SOL     OW58258   6.857   1.235   1.691 -0.0711  0.2012  0.0817
15262SOL    HW158259   6.814   1.218   1.780 -0.9767  1.8159 -0.0226
15262SOL    HW258260   6.833   1.161   1.628  0.0765 -0.6385  0.9889
15263SOL     OW58261   1.731   4.587   8.266 -0.1631  0.0010  0.2948
15263SOL    HW158262   1.786   4.558   8.345 -1.7141 -1.6623  0.7878
15263SOL    HW258263   1.788   4.642   8.205  1.7582 -0.7930  1.3220
15264SOL     OW58264   5.859   6.886   2.492  0.5646  0.0117 -0.4890
15264SOL    HW158265   5.801   6.810   2.523 -0.7152 -0.1600 -3.1868
15264SOL    HW258266   5.936   6.850   2.438  0.5396  0.5503 -0.8898
15265SOL     OW58267   6.495   2.485   0.942 -0.0342 -0.2620 -0.3082
15265SOL    HW158268   6.410   2.502   0.991 -0.1024  1.9554 -1.0928
15265SOL    HW258269   6.567   2.545   0.978  1.2895 -2.3193  0.5439
15266SOL     OW58270   2.180   4.082   6.865 -0.7234 -0.2951 -0.4942
15266SOL    HW158271   2.272   4.116   6.847 -0.5657 -0.0025  0.8167
15266SOL    HW258272   2.114   4.155   6.846 -0.3610  0.9114  2.6182
15267SOL     OW58273   0.567   2.244   7.553  0.0120 -0.1100 -0.2323
15267SOL    HW158274   0.622   2.325   7.572 -1.2620  0.5357  0.7640
15267SOL    HW258275   0.613   2.163   7.592 -0.6512  0.6851  2.3314
15268SOL     OW58276   6.897   3.914   3.881 -0.1017  0.2228 -0.6705
15268SOL    HW158277   6.950   3.832   3.856 -1.4710 -1.4596  1.7403
15268SOL    HW258278   6.802   3.901   3.852 -0.1994  1.2269 -0.8051
15269SOL     OW58279   5.129   0.873   0.038  0.3927  0.3902  0.6096
15269SOL    HW158280   5.064   0.898   0.110 -0.0371  2.3042 -0.3878
15269SOL    HW258281   5.215   0.923   0.051  0.8538 -0.4120  0.6528
15270SOL     OW58282   0.162   4.114   0.945  0.0833  0.2732  0.2232
15270SOL    HW158283   0.074   4.161   0.941 -0.8576 -1.4046  0.4032
15270SOL    HW258284   0.153   4.024   0.901  1.9610  0.4672 -0.5923
15271SOL     OW58285   5.873   6.649   6.642 -0.1951  0.2488 -0.4173
15271SOL    HW158286   5.949   6.622   6.582 -0.9150 -0.9576 -0.7962
15271SOL    HW258287   5.806   6.575   6.647 -0.1527  0.3339  1.9011
15272SOL     OW58288   8.045   5.235   6.895 -0.4923  0.1482 -0.2763
15272SOL    HW158289   7.970   5.209   6.955 -0.7512  0.5875 -0.4069
15272SOL    HW258290   8.015   5.307   6.833 -0.2671 -0.4042 -1.0370
15273SOL     OW58291   8.079   3.765   3.809 -0.2809 -0.1650 -0.4213
15273SOL    HW158292   8.024   3.682   3.811 -0.6324  0.0509 -1.0228
15273SOL    HW258293   8.143   3.765   3.886 -1.8525  0.0908  0.9012
15274SOL     OW58294   5.106   4.728   6.793  0.0079  0.5721  0.3511
15274SOL    HW158295   5.187   4.669   6.802  0.5007  1.0972 -0.5951
15274SOL    HW258296   5.067   4.717   6.702 -0.5088  0.9343  0.5314
15275SOL     OW58297   2.274   3.867   1.903  0.1417 -0.6707 -0.4130
15275SOL    HW158298   2.243   3.873   1.998 -0.6845  1.9413 -0.7936
15275SOL    HW258299   2.208   3.814   1.851  0.6309 -2.1733  0.4699
15276SOL     OW58300   8.740   7.303   0.414  0.2213  0.6836 -0.2516
15276SOL    HW158301   8.788   7.370   0.357  0.2805  0.7756 -0.0938
15276SOL    HW258302   8.729   7.340   0.506  1.2001  0.0489  0.1348
15277SOL     OW58303   0.830   3.894   1.210 -0.1215  0.3413  0.3515
15277SOL    HW158304   0.822   3.904   1.309 -1.4615 -0.2741  0.3195
15277SOL    HW258305   0.799   3.977   1.165 -1.0661  0.0316  0.4118
15278SOL     OW58306   8.338   3.804   8.425 -0.1006  0.3860 -0.1825
15278SOL    HW158307   8.396   3.876   8.388  0.7143 -1.2657 -2.2037
15278SOL    HW258308   8.389   3.751   8.493  0.9480 -1.3181 -2.2493
15279SOL     OW58309   6.844   7.255   8.114 -0.1073 -0.2020  0.2499
15279SOL    HW158310   6.881   7.346   8.133 -1.1097  0.0759  0.9167
15279SOL    HW258311   6.807   7.252   8.022 -0.6463  0.2650  0.4470
15280SOL     OW58312   6.111   6.222   5.125  0.2617  0.2740 -0.0327
15280SOL    HW158313   6.076   6.228   5.031 -0.5370 -0.0584  0.2433
15280SOL    HW258314   6.167   6.140   5.134 -2.4503 -1.5562  0.6870
15281SOL     OW58315   0.802   1.605   4.253 -0.5541 -0.5137  0.0606
15281SOL    HW158316   0.748   1.648   4.181 -0.9622 -1.5023 -0.2329
15281SOL    HW258317   0.878   1.664   4.278  1.6341 -1.6338 -3.6082
15282SOL     OW58318   2.451   5.506   0.137 -0.0812  0.4304 -0.0658
15282SOL    HW158319   2.468   5.469   0.045  0.8473  0.1633  0.2050
15282SOL    HW258320   2.509   5.457   0.203 -1.8018 -0.3729  0.8659
15283SOL     OW58321   5.525   1.361   7.253 -0.1101 -0.4006 -0.1365
15283SOL    HW158322   5.531   1.262   7.258  0.1354 -0.4157 -0.6970
15283SOL    HW258323   5.437   1.387   7.213  0.1633 -0.4107 -0.7408
15284SOL     OW58324   8.872   1.602   6.478 -0.0803 -0.2726  0.3727
15284SOL    HW158325   8.965   1.579   6.505 -0.0415  0.8747  1.2689
15284SOL    HW258326   8.852   1.697   6.503 -0.6876  0.2635 -1.9902
15285SOL     OW58327   5.479   4.075   0.371 -0.0326 -0.0083  0.1412
15285SOL    HW158328   5.507   3.982   0.350  0.9424  0.2914  0.1057
15285SOL    HW258329   5.486   4.091   0.470 -1.3539 -0.3466  0.2972
15286SOL     OW58330   6.717   4.676   7.828  0.1532  0.6364  0.1391
15286SOL    HW158331   6.723   4.731   7.912 -3.6185  2.2619 -0.5565
15286SOL    HW258332   6.752   4.730   7.751  1.7656 -0.1147  0.3317
15287SOL     OW58333   7.022   8.620   6.987  0.1424  0.1814  0.5951
15287SOL    HW158334   7.033   8.695   7.052 -1.5609 -1.1069  2.4628
15287SOL    HW258335   7.112   8.588   6.957  0.9055  2.1545  0.7139
15288SOL     OW58336   6.915   7.098   4.946 -0.0229 -0.0242 -0.6954
15288SOL    HW158337   6.985   7.086   5.016 -1.0982 -0.9385  0.2507
15288SOL    HW258338   6.957   7.132   4.862  1.3925  0.3903  0.1653
15289SOL     OW58339   2.299   3.090   6.622 -0.2059  0.3217  0.1695
15289SOL    HW158340   2.272   3.018   6.685 -0.1527  0.1744  0.0262
15289SOL    HW258341   2.363   3.153   6.667 -0.7489  0.6429  0.4917
15290SOL     OW58342   0.707   7.729   5.106 -0.3211 -0.0820 -0.7853
15290SOL    HW158343   0.707   7.829   5.109  0.0529 -0.0449 -1.9035
15290SOL    HW258344   0.757   7.698   5.025 -1.7573 -1.1348 -1.3005
15291SOL     OW58345   6.090   2.433   0.755  0.1866 -0.2177  0.6360
15291SOL    HW158346   6.142   2.505   0.711 -1.0460  1.0945  1.2846
15291SOL    HW258347   6.153   2.363   0.790  1.2054 -1.1539 -2.8723
15292SOL     OW58348   0.182   4.698   4.537 -0.6130  0.4416 -0.8655
15292SOL    HW158349   0.254   4.748   4.586 -2.3069  1.0185  1.1083
15292SOL    HW258350   0.160   4.614   4.586  0.8142 -1.3200 -3.1149
15293SOL     OW58351   4.649   6.918   3.941 -0.1352  0.6635  0.1230
15293SOL    HW158352   4.724   6.943   3.879 -1.3909 -0.1561 -1.7455
15293SOL    HW258353   4.675   6.837   3.993  0.3842  0.5543 -0.2983
15294SOL     OW58354   4.190   0.032   7.837 -0.2524 -0.2459  0.1249
15294SOL    HW158355   4.138   0.086   7.770 -1.5937 -0.9518  0.5609
15294SOL    HW258356   4.282   0.070   7.847 -0.3957  0.5202 -1.3140
15295SOL     OW58357   8.657   6.904   4.584  0.0729 -0.0733 -1.0200
15295SOL    HW158358   8.734   6.870   4.531 -0.5241 -0.7089 -1.4972
15295SOL    HW258359   8.682   6.990   4.628  1.5399 -1.0431  0.0615
15296SOL     OW58360   7.696   5.258   3.308 -0.3698 -0.2190 -0.6570
15296SOL    HW158361   7.774   5.287   3.252 -0.1080 -1.6878 -1.0771
15296SOL    HW258362   7.687   5.159   3.304 -2.7746 -0.0265 -1.2899
15297SOL     OW58363   0.474   4.080   3.847  0.0210  0.1654  0.1958
15297SOL    HW158364   0.388   4.034   3.827  0.6819 -1.2910  0.6486
15297SOL    HW258365   0.514   4.042   3.930  0.6875  1.4215  0.4702
15298SOL     OW58366   6.488   4.049   7.682 -0.0164  0.0201 -0.0924
15298SOL    HW158367   6.420   4.084   7.747  0.5016  0.9008 -0.0136
15298SOL    HW258368   6.494   4.111   7.604  1.9406  0.8732  0.7186
15299SOL     OW58369   7.246   5.340   3.950 -0.2672 -0.5310  0.5877
15299SOL    HW158370   7.175   5.348   4.020 -0.9285 -0.6483 -0.0661
15299SOL    HW258371   7.295   5.254   3.961 -1.1607 -1.0954  0.1723
15300SOL     OW58372   8.341   5.813   8.549 -0.3188 -0.3218  0.2785
15300SOL    HW158373   8.283   5.893   8.562  1.3929  0.7563  1.4143
15300SOL    HW258374   8.375   5.781   8.637  0.0230 -1.5399 -0.2809
15301SOL     OW58375   6.838   3.883   4.211  0.7501  0.2932  0.0205
15301SOL    HW158376   6.851   3.887   4.112 -0.1822  0.5190 -0.1057
15301SOL    HW258377   6.751   3.838   4.231  1.5045 -0.8282  0.7816
15302SOL     OW58378   2.770   7.739   5.366 -0.3282 -0.0153 -0.0355
15302SOL    HW158379   2.677   7.719   5.337 -0.4279  1.1101 -0.5388
15302SOL    HW258380   2.807   7.662   5.418 -1.4034 -0.6117 -0.1521
15303SOL     OW58381   5.538   0.289   0.916  0.2176  0.6994  0.0902
15303SOL    HW158382   5.555   0.329   1.006  0.8287 -1.6664  1.0929
15303SOL    HW258383   5.440   0.286   0.898  0.1185  1.6041  0.4725
15304SOL     OW58384   8.448   5.743   1.043  0.1918 -0.1823 -0.8554
15304SOL    HW158385   8.443   5.723   1.141  2.5356 -0.4373 -0.7587
15304SOL    HW258386   8.356   5.743   1.004 -0.6611 -1.2817  1.1021
15305SOL     OW58387   3.615   1.758   5.972  0.0962 -0.6124  0.3910
15305SOL    HW158388   3.683   1.827   5.946  0.4412 -0.6290  1.2468
15305SOL    HW258389   3.653   1.667   5.959  0.9330 -0.6140  2.6677
15306SOL     OW58390   1.285   0.026   0.541 -0.5417  0.1847  0.2349
15306SOL    HW158391   1.218   0.097   0.519 -1.5812 -1.1133 -0.8926
15306SOL    HW258392   1.373   0.050   0.501 -1.2324  0.1892 -1.3342
15307SOL     OW58393   5.554   7.101   6.587  0.0322 -0.1235 -0.5001
15307SOL    HW158394   5.573   7.009   6.552  0.0086  0.5683 -2.3709
15307SOL    HW258395   5.628   7.129   6.647  0.4821 -1.0188 -0.6232
15308SOL     OW58396   3.636   1.315   0.653  0.2036 -0.6164  0.2286
15308SOL    HW158397   3.706   1.339   0.585  0.0434 -0.8948 -0.0318
15308SOL    HW258398   3.679   1.307   0.743  0.0169  2.2199  0.6176
15309SOL     OW58399   4.570   0.151   1.395 -0.0790 -0.4038  0.2058
15309SOL    HW158400   4.586   0.107   1.306  2.2110 -0.4838  0.6383
15309SOL    HW258401   4.624   0.105   1.465 -0.7478  0.5902  1.3860
15310SOL     OW58402   4.353   4.243   6.493 -0.3076 -0.3953 -0.1109
15310SOL    HW158403   4.262   4.218   6.458 -0.2315 -1.0216  0.1225
15310SOL    HW258404   4.387   4.169   6.552 -0.1237  0.3291  0.6997
15311SOL     OW58405   8.589   6.708   8.180 -0.4207 -0.0794 -0.6642
15311SOL    HW158406   8.686   6.728   8.166 -0.2310 -0.6518 -0.1868
15311SOL    HW258407   8.579   6.616   8.219 -1.2314 -0.5365 -1.9075
15312SOL     OW58408   6.251   4.086   2.902 -0.5446  0.0440 -0.1084
15312SOL    HW158409   6.227   4.001   2.949 -0.3714  0.8555  1.4770
15312SOL    HW258410   6.309   4.142   2.962  0.2944  0.7801 -1.5707
15313SOL     OW58411   4.611   1.160   8.873  0.1597 -0.6625 -0.1623
15313SOL    HW158412   4.612   1.250   8.830  2.6898 -0.1434  0.8709
15313SOL    HW258413   4.649   1.092   8.810  0.6950 -0.5176 -0.0001
15314SOL     OW58414   1.204   7.514   3.026 -0.4532 -0.0043  0.4656
15314SOL    HW158415   1.126   7.460   2.994  1.4993 -4.0624  2.2266
15314SOL    HW258416   1.203   7.519   3.126  0.1792  2.0999  0.3892
15315SOL     OW58417   2.451   3.999   5.148  0.1809 -0.1428  0.6993
15315SOL    HW158418   2.397   4.052   5.213 -1.7542 -1.6781  0.3859
15315SOL    HW258419   2.479   3.913   5.191  1.7039  0.2952  0.5905
15316SOL     OW58420   2.121   4.487   0.848  0.2994  0.0809  0.0667
15316SOL    HW158421   2.186   4.562   0.855 -0.8934  1.5301 -3.4933
15316SOL    HW258422   2.057   4.504   0.772 -1.9178 -3.0586  1.1155
15317SOL     OW58423   5.952   4.718   2.434 -0.0468 -0.3451 -0.1355
15317SOL    HW158424   6.003   4.633   2.423  2.8211  1.1988  0.6979
15317SOL    HW258425   5.990   4.770   2.510 -1.8450  1.6324 -0.5308
15318SOL     OW58426   8.254   5.143   7.506 -0.3087 -0.5812  0.4851
15318SOL    HW158427   8.252   5.044   7.521  1.0897 -0.7319 -0.2982
15318SOL    HW258428   8.233   5.163   7.410 -1.4450 -0.0556  0.8292
15319SOL     OW58429   4.772   4.733   2.829  0.4590 -0.3311  0.5120
15319SOL    HW158430   4.807   4.666   2.895  0.9386  0.1396  0.7412
15319SOL    HW258431   4.706   4.793   2.875 -0.0763 -0.7301  0.2720
15320SOL     OW58432   2.435   6.323   8.747 -0.4172 -0.8717  0.5313
15320SOL    HW158433   2.360   6.300   8.808 -0.6648  2.9003  1.7479
15320SOL    HW258434   2.506   6.372   8.798  0.7485 -0.2847 -1.5885
15321SOL     OW58435   2.954   6.918   1.330  0.4311 -0.6076  0.0883
15321SOL    HW158436   2.939   7.007   1.288  1.0225  0.0495  1.2462
15321SOL    HW258437   2.871   6.889   1.377  0.6218 -0.1135  0.7292
15322SOL     OW58438   8.937   0.504   0.205  0.0571 -0.0285  0.2002
15322SOL    HW158439   8.875   0.425   0.201  0.5957 -0.3959 -0.9808
15322SOL    HW258440   9.005   0.489   0.276  0.5853 -0.9516 -0.4941
15323SOL     OW58441   2.224   2.693   3.392 -0.0064 -0.1158  0.5648
15323SOL    HW158442   2.134   2.650   3.402  0.3819 -1.0398  0.1414
15323SOL    HW258443   2.226   2.748   3.309  0.5312 -1.9319 -0.6580
15324SOL     OW58444   8.978   2.801   4.299 -0.2889  0.1120  0.5217
15324SOL    HW158445   9.046   2.727   4.301 -0.5682 -0.1639 -0.0087
15324SOL    HW258446   8.910   2.786   4.370  0.6838  0.8561  1.6337
15325SOL     OW58447   0.733   3.451   4.002 -0.2558 -0.4805 -0.2416
15325SOL    HW158448   0.699   3.528   4.057 -0.8596 -1.3179  0.5711
15325SOL    HW258449   0.742   3.481   3.907 -2.3725  0.0670 -0.3072
15326SOL     OW58450   5.778   0.585   6.386  0.2124 -0.1504 -0.1578
15326SOL    HW158451   5.835   0.582   6.304  0.1778 -2.5312 -0.1279
15326SOL    HW258452   5.682   0.589   6.360  0.2951  2.1075 -0.2069
15327SOL     OW58453   5.652   0.308   3.952 -0.5480  0.4389 -0.0774
15327SOL    HW158454   5.627   0.394   3.997 -0.8948  1.2261 -1.7405
15327SOL    HW258455   5.678   0.327   3.857 -0.5168 -1.2924 -0.4222
15328SOL     OW58456   8.613   4.252   7.581  0.2419 -0.7125  0.2310
15328SOL    HW158457   8.529   4.294   7.545  1.0066  1.9081  1.4170
15328SOL    HW258458   8.679   4.242   7.507 -0.1660 -0.3699 -0.1836
15329SOL     OW58459   4.658   8.622   4.620 -0.3661 -0.8102  0.1290
15329SOL    HW158460   4.610   8.659   4.700  0.8256 -2.1439  1.4682
15329SOL    HW258461   4.751   8.658   4.617  0.0509 -1.8687  0.1381
15330SOL     OW58462   5.711   3.332   8.144 -0.0665  0.0260  0.4290
15330SOL    HW158463   5.798   3.381   8.153  0.2118 -0.7940  2.3971
15330SOL    HW258464   5.724   3.236   8.166 -0.8594 -0.7516 -2.2996
15331SOL     OW58465   2.880   6.393   8.501  0.2761 -0.4015  0.0924
15331SOL    HW158466   2.788   6.377   8.467  0.0925 -1.7942  1.2179
15331SOL    HW258467   2.876   6.425   8.596  0.9828 -1.7439  0.5934
15332SOL     OW58468   1.942   0.059   5.543  0.2962 -0.2757 -0.3664
15332SOL    HW158469   1.933  -0.020   5.603 -0.5289  0.3749  0.3869
15332SOL    HW258470   1.863   0.064   5.481 -0.1333  0.4834  0.2336
15333SOL     OW58471   0.381   5.376   1.606 -0.0429 -0.3023 -0.7995
15333SOL    HW158472   0.409   5.469   1.632 -0.0837 -0.3771 -0.4890
15333SOL    HW258473   0.397   5.314   1.682  0.8348 -0.7228 -1.3182
15334SOL     OW58474   5.461   5.186   8.805 -0.1616  0.2078  0.5900
15334SOL    HW158475   5.409   5.132   8.871 -0.3253 -0.2418  0.0967
15334SOL    HW258476   5.399   5.249   8.757  0.0019  0.7311  1.0487
15335SOL     OW58477   1.414   3.068   7.087  0.1679  0.2517  0.0644
15335SOL    HW158478   1.509   3.044   7.108  0.3458  2.3841  1.8416
15335SOL    HW258479   1.365   3.085   7.173 -1.6696 -0.2434 -0.8759
15336SOL     OW58480   4.762   6.030   5.972  0.0832  0.5972 -0.1538
15336SOL    HW158481   4.837   6.030   6.039 -0.5750 -1.1767  0.6136
15336SOL    HW258482   4.737   6.125   5.950  1.5435  1.2021  0.7148
15337SOL     OW58483   7.673   4.642   1.856  0.2081  0.3469  0.0667
15337SOL    HW158484   7.733   4.715   1.890 -0.9985  0.4823  1.9781
15337SOL    HW258485   7.716   4.553   1.871  0.5914  0.5267  0.0324
15338SOL     OW58486   7.708   7.838   1.517 -0.5467 -0.4701  0.1566
15338SOL    HW158487   7.807   7.825   1.516 -0.3014  1.3201  0.5277
15338SOL    HW258488   7.670   7.793   1.598 -0.0606 -1.2957 -0.0696
15339SOL     OW58489   5.575   5.021   4.737  0.8613 -0.4285 -0.0410
15339SOL    HW158490   5.617   4.975   4.815 -2.1839 -0.8422  1.4268
15339SOL    HW258491   5.495   4.969   4.706 -0.3204  1.8031 -0.8597
15340SOL     OW58492   4.734   7.698   2.344  0.8358  0.4086 -0.4922
15340SOL    HW158493   4.732   7.614   2.398  0.8582 -0.1707 -1.3823
15340SOL    HW258494   4.771   7.772   2.400 -1.4594  0.4195  1.1085
15341SOL     OW58495   3.330   2.456   2.446  0.3594 -0.1739 -0.2289
15341SOL    HW158496   3.358   2.505   2.529  1.1357 -0.0741 -0.5434
15341SOL    HW258497   3.233   2.472   2.429  0.4590  0.7304  0.0287
15342SOL     OW58498   5.049   4.853   0.060 -0.2788 -0.1539  0.4583
15342SOL    HW158499   5.130   4.812   0.103 -0.1384 -0.4250 -0.0642
15342SOL    HW258500   5.064   4.951   0.047  0.5597 -0.4624 -0.9988
15343SOL     OW58501   7.871   3.149   7.511 -0.0416 -0.0666 -0.0336
15343SOL    HW158502   7.797   3.132   7.576  0.6178  0.8704  0.9750
15343SOL    HW258503   7.954   3.174   7.560  1.0526 -1.4199 -1.1466
15344SOL     OW58504   3.510   2.752   5.894 -0.2423 -0.1894 -1.1300
15344SOL    HW158505   3.519   2.778   5.990  1.0580  0.5599 -1.4352
15344SOL    HW258506   3.427   2.792   5.856  1.5728  3.3840 -1.5217
15345SOL     OW58507   3.972   3.395   6.143 -0.2399 -0.0657  0.1061
15345SOL    HW158508   4.031   3.351   6.076  0.9545  0.3144  0.8936
15345SOL    HW258509   4.026   3.457   6.200 -1.8308  2.2657 -0.8224
15346SOL     OW58510   2.131   3.399   3.329  0.2479  0.3028  0.8753
15346SOL    HW158511   2.063   3.460   3.369 -1.1250 -0.5700 -0.0353
15346SOL    HW258512   2.145   3.423   3.233  1.8916  1.0155  1.2755
15347SOL     OW58513   6.364   6.331   5.924 -0.1007  0.3713  0.7060
15347SOL    HW158514   6.451   6.361   5.885 -1.1038  1.3712 -0.8117
15347SOL    HW258515   6.380   6.291   6.015  2.0345 -0.2601  0.0853
15348SOL     OW58516   0.853   4.485   4.518  0.5090 -0.6092  0.0657
15348SOL    HW158517   0.856   4.562   4.582  2.8126 -1.2788  0.8113
15348SOL    HW258518   0.845   4.520   4.424  1.5797  0.5641  0.3971
15349SOL     OW58519   1.228   1.769   1.677  0.0473 -0.0157  0.0712
15349SOL    HW158520   1.195   1.862   1.690  1.4544  0.3953  0.8556
15349SOL    HW258521   1.174   1.706   1.732 -0.7443  0.3624 -0.2652
15350SOL     OW58522   8.099   6.846   8.541 -0.0005 -0.2647 -0.3590
15350SOL    HW158523   8.019   6.789   8.561  0.6767 -1.7551 -1.7499
15350SOL    HW258524   8.069   6.940   8.523 -1.3145 -0.5427  0.2874
15351SOL     OW58525   2.895   7.452   8.280  0.7313 -0.3596 -0.7723
15351SOL    HW158526   2.909   7.399   8.196  1.0494 -0.5628 -0.5929
15351SOL    HW258527   2.849   7.537   8.258 -1.0243 -1.3215 -0.8799
15352SOL     OW58528   8.260   6.806   1.563  0.5306  0.1555 -0.1796
15352SOL    HW158529   8.284   6.802   1.465 -2.0250 -1.3737 -0.8021
15352SOL    HW258530   8.283   6.896   1.600 -0.5614  1.5611 -2.7810
15353SOL     OW58531   0.803   7.925   4.007 -0.9176 -0.1192 -0.1071
15353SOL    HW158532   0.840   7.869   3.933 -0.4869 -1.1827  0.8976
15353SOL    HW258533   0.810   8.022   3.983  0.0845 -0.4201 -1.0537
15354SOL     OW58534   0.369   0.420   5.038 -0.0761 -0.0595  0.2921
15354SOL    HW158535   0.279   0.458   5.060 -0.4713 -0.6782 -0.2654
15354SOL    HW258536   0.397   0.450   4.946  0.2648  0.0847  0.4386
15355SOL     OW58537   1.826   6.546   5.905  0.0945  0.3745  0.1051
15355SOL    HW158538   1.759   6.541   5.831 -2.5718  0.7440  2.4020
15355SOL    HW258539   1.856   6.641   5.916 -0.2614  0.4861  0.1277
15356SOL     OW58540   4.001   4.636   1.738 -0.7573 -0.0449  0.7248
15356SOL    HW158541   3.910   4.596   1.730 -0.0835 -1.3684 -0.6897
15356SOL    HW258542   4.070   4.566   1.717  0.4666  1.6575 -1.1446
15357SOL     OW58543   8.653   4.516   5.978  0.5258 -0.8114 -0.2295
15357SOL    HW158544   8.686   4.422   5.986 -0.3144 -0.9970  1.0704
15357SOL    HW258545   8.583   4.521   5.907 -0.1408 -1.3583  0.3897
15358SOL     OW58546   0.239   2.404   6.381 -0.1133  0.2681 -1.2528
15358SOL    HW158547   0.240   2.323   6.322 -2.1330  1.4141 -2.9105
15358SOL    HW258548   0.145   2.422   6.410  0.5843  0.9342  0.6720
15359SOL     OW58549   0.945   7.945   1.282 -0.4822 -0.4972 -0.2420
15359SOL    HW158550   0.987   7.975   1.197  0.1841  1.4555  0.7328
15359SOL    HW258551   0.858   7.992   1.295 -0.5545 -0.7409  0.1888
15360SOL     OW58552   4.071   8.187   5.092 -0.0056 -0.5478 -0.0014
15360SOL    HW158553   4.063   8.104   5.037  1.7923  0.4378 -1.8236
15360SOL    HW258554   4.038   8.265   5.039  0.7070  0.2673  0.7363
15361SOL     OW58555   7.174   1.725   1.285  0.1626 -0.3474  0.5059
15361SOL    HW158556   7.153   1.702   1.380 -0.0239 -1.2548  0.2438
15361SOL    HW258557   7.246   1.796   1.284 -0.9003  0.7709  1.3358
15362SOL     OW58558   1.881   8.247   8.321  0.2532 -0.0176 -0.1425
15362SOL    HW158559   1.972   8.206   8.316  0.5004  0.0604  2.9468
15362SOL    HW258560   1.860   8.271   8.416 -3.3370 -0.8312 -0.6534
15363SOL     OW58561   5.044   2.071   8.026  0.4841 -0.5636 -0.3683
15363SOL    HW158562   5.061   2.169   8.022  1.6029 -0.7194  0.2691
15363SOL    HW258563   5.082   2.034   8.111  0.0220 -1.5361 -0.5753
15364SOL     OW58564   6.915   2.955   6.582 -0.1845 -0.4623  0.1362
15364SOL    HW158565   6.897   3.032   6.521 -1.0507 -0.1745  0.7399
15364SOL    HW258566   6.866   2.969   6.668 -1.1160 -2.1508 -0.1120
15365SOL     OW58567   6.015   1.865   0.790  0.9206  0.0081 -0.6571
15365SOL    HW158568   6.037   1.955   0.828  0.4483  1.1469 -2.9899
15365SOL    HW258569   6.099   1.812   0.778  1.1159 -0.2589  1.5873
15366SOL     OW58570   7.939   8.943   7.647  0.3256 -0.6449 -0.0598
15366SOL    HW158571   7.851   8.985   7.625  0.1254 -0.8989  0.2658
15366SOL    HW258572   8.002   9.014   7.678  0.1597 -0.5001 -0.0553
15367SOL     OW58573   5.129   0.898   0.975  0.1489 -0.7212 -0.2286
15367SOL    HW158574   5.034   0.865   0.968  0.1382 -0.6672 -0.3450
15367SOL    HW258575   5.129   0.994   1.001  0.1856 -0.8745  0.3379
15368SOL     OW58576   0.924   3.353   8.921  0.0610 -1.0607 -0.4506
15368SOL    HW158577   0.958   3.262   8.945  1.8091  0.0600  1.5518
15368SOL    HW258578   0.896   3.401   9.004  1.6907  1.1831 -1.1432
15369SOL     OW58579   3.936   3.214   0.742  0.0627 -0.3800  0.2589
15369SOL    HW158580   3.870   3.218   0.668  0.2278 -1.6083  0.0412
15369SOL    HW258581   4.009   3.149   0.719  1.0307  0.5141  0.7453
15370SOL     OW58582   4.525   6.583   1.124 -0.0106 -0.1814  0.2092
15370SOL    HW158583   4.583   6.600   1.044 -0.7267  0.7348 -0.1186
15370SOL    HW258584   4.448   6.525   1.098  0.1687 -0.5058  0.4030
15371SOL     OW58585   0.269   5.499   6.128 -0.0109 -0.1002 -0.0481
15371SOL    HW158586   0.299   5.440   6.203  0.6039  1.1004  0.6621
15371SOL    HW258587   0.314   5.471   6.044  1.3776  0.2689  0.5701
15372SOL     OW58588   4.270   1.112   5.817  0.0580 -0.1461  0.7500
15372SOL    HW158589   4.253   1.198   5.771 -2.3113 -0.8674  0.2465
15372SOL    HW258590   4.317   1.049   5.754  0.1553  0.1531  0.5260
15373SOL     OW58591   8.659   3.782   0.118 -0.4797  1.4639  0.5061
15373SOL    HW158592   8.559   3.786   0.108 -0.5686 -1.3797 -0.1619
15373SOL    HW258593   8.701   3.769   0.028  0.4634  1.8452  0.8845
15374SOL     OW58594   4.806   1.862   1.164  0.3567  0.2117  0.4212
15374SOL    HW158595   4.755   1.778   1.184  0.6405 -0.3777 -1.1860
15374SOL    HW258596   4.759   1.913   1.091  0.4195  1.2317  1.0878
15375SOL     OW58597   5.641   3.868   6.776  0.0563 -0.0207 -0.1457
15375SOL    HW158598   5.643   3.813   6.693  1.5869  0.7251 -0.6163
15375SOL    HW258599   5.601   3.814   6.851  0.1429 -1.2392 -0.9677
15376SOL     OW58600   2.079   8.362   7.358 -0.5446  0.0867 -0.0005
15376SOL    HW158601   1.985   8.397   7.362 -0.8504 -0.7526  0.2811
15376SOL    HW258602   2.077   8.263   7.343  0.2849 -0.0003  0.4230
15377SOL     OW58603   2.153   2.837   4.291  0.2678 -0.7204 -0.0353
15377SOL    HW158604   2.187   2.757   4.340 -0.5242 -1.1937 -0.2690
15377SOL    HW258605   2.209   2.917   4.316  1.6977 -1.5321 -0.5837
15378SOL     OW58606   3.678   0.743   2.743 -0.3349  0.2227 -0.0455
15378SOL    HW158607   3.617   0.667   2.718  0.7847 -0.7725  0.2151
15378SOL    HW258608   3.658   0.822   2.685 -1.6341 -0.2075 -0.2042
15379SOL     OW58609   0.883   6.245   7.802  0.1458 -0.3013  0.1119
15379SOL    HW158610   0.837   6.285   7.881 -0.2064  0.2350 -0.3615
15379SOL    HW258611   0.857   6.149   7.794 -0.2046 -0.2297  0.3654
15380SOL     OW58612   0.342   2.688   3.718 -0.4119 -0.3584 -0.1655
15380SOL    HW158613   0.406   2.738   3.777  2.4070 -1.1279 -2.4437
15380SOL    HW258614   0.361   2.590   3.725 -1.4054 -0.5984 -0.8155
15381SOL     OW58615   5.988   2.703   8.723  0.3919 -0.1970  0.1360
15381SOL    HW158616   6.013   2.797   8.744  3.1200 -0.8784  0.1711
15381SOL    HW258617   5.915   2.702   8.655 -0.3342  1.9406  0.8513
15382SOL     OW58618   3.590   3.883   8.733 -0.1078 -0.1718 -0.5977
15382SOL    HW158619   3.653   3.812   8.764  0.0154 -0.3503 -1.2323
15382SOL    HW258620   3.539   3.849   8.653 -2.5468 -0.8224  1.1808
15383SOL     OW58621   8.150   3.039   1.790 -0.5352  0.0692  0.0570
15383SOL    HW158622   8.185   3.103   1.722 -1.2551  2.3037  1.7387
15383SOL    HW258623   8.144   2.948   1.750  1.1900  0.8931 -2.1676
15384SOL     OW58624   5.985   0.332   0.538 -0.2647 -0.1425  0.2348
15384SOL    HW158625   6.057   0.262   0.534  1.1810  1.3466 -0.7364
15384SOL    HW258626   5.896   0.288   0.543  0.7687 -2.0335  2.8083
15385SOL     OW58627   8.008   6.194   6.459  0.0045  0.0185  0.1911
15385SOL    HW158628   7.966   6.135   6.529 -1.9903  1.1451 -0.0098
15385SOL    HW258629   8.008   6.147   6.371 -1.5855  0.3027  0.0307
15386SOL     OW58630   0.219   2.418   4.831 -0.2512 -0.0890  0.4429
15386SOL    HW158631   0.154   2.494   4.833  2.4333  2.3371 -1.4957
15386SOL    HW258632   0.294   2.436   4.894  0.0950 -1.4458  0.4362
15387SOL     OW58633   0.074   2.875   0.526  0.9559 -0.2852 -0.6567
15387SOL    HW158634   0.116   2.786   0.509  2.2149 -0.0812  1.2386
15387SOL    HW258635   0.037   2.877   0.619  1.2060  1.2785 -0.5804
15388SOL     OW58636   2.699   7.014   1.078 -0.0436 -0.4361  0.3184
15388SOL    HW158637   2.702   6.917   1.054 -2.0992 -0.3328 -0.4566
15388SOL    HW258638   2.627   7.059   1.025  0.7280  1.4636  0.8556
15389SOL     OW58639   0.456   8.120   7.903 -0.5195 -0.7859 -0.2366
15389SOL    HW158640   0.396   8.115   7.983 -0.2921  2.0643  0.1706
15389SOL    HW258641   0.541   8.073   7.922 -1.4683 -2.3278  0.2630
15390SOL     OW58642   5.903   8.080   1.156 -0.4522  0.0732  0.7706
15390SOL    HW158643   5.893   8.169   1.201  2.5913  0.8324 -0.0029
15390SOL    HW258644   5.891   8.090   1.057 -0.2832 -0.4041  0.6972
15391SOL     OW58645   3.234   1.257   4.872  0.4200 -0.4865 -0.2423
15391SOL    HW158646   3.242   1.169   4.825  0.7607 -0.2034 -0.7165
15391SOL    HW258647   3.146   1.299   4.852  0.1756 -0.8113  0.1460
15392SOL     OW58648   6.157   7.637   2.048  0.5338  0.4606 -0.5890
15392SOL    HW158649   6.059   7.649   2.068  0.7941  3.3465 -0.8433
15392SOL    HW258650   6.209   7.648   2.132  0.5959 -2.0348 -0.2798
15393SOL     OW58651   8.680   4.904   2.064  0.0587  0.0753  0.5865
15393SOL    HW158652   8.691   4.890   2.162  0.7991  1.5583  0.7155
15393SOL    HW258653   8.609   4.972   2.047 -0.2515 -0.3685  0.0830
15394SOL     OW58654   2.455   8.522   6.467  0.1752  0.0836 -0.1197
15394SOL    HW158655   2.455   8.422   6.465  0.7171  0.0910 -0.8622
15394SOL    HW258656   2.521   8.554   6.535 -0.1316 -0.0606  0.2506
15395SOL     OW58657   3.601   7.113   3.666  0.4799  0.2524  0.5002
15395SOL    HW158658   3.689   7.089   3.625  0.2061 -0.6509  0.4318
15395SOL    HW258659   3.551   7.029   3.688 -1.4388  0.7337 -1.7569
15396SOL     OW58660   0.285   1.394   7.700  0.3848 -0.3846  0.7401
15396SOL    HW158661   0.366   1.425   7.651  0.5365 -0.2638  1.0646
15396SOL    HW258662   0.251   1.309   7.659  0.9547 -0.6915  0.9006
15397SOL     OW58663   1.497   0.847   7.121 -0.3467  0.5285 -0.1576
15397SOL    HW158664   1.503   0.943   7.094  0.6365 -0.0719 -2.1661
15397SOL    HW258665   1.537   0.836   7.212  0.8278  1.7977 -0.4874
15398SOL     OW58666   8.659   2.477   5.116  0.5917  0.0680  0.3772
15398SOL    HW158667   8.723   2.536   5.067  0.2122  0.4223  0.3039
15398SOL    HW258668   8.602   2.533   5.176 -0.2580 -0.1391 -0.2285
15399SOL     OW58669   8.438   4.218   8.130 -0.4566  0.2405  0.1890
15399SOL    HW158670   8.410   4.271   8.050 -0.9784 -0.0154  0.1985
15399SOL    HW258671   8.398   4.126   8.124 -0.0654  0.0501  0.4799
15400SOL     OW58672   5.375   8.913   4.409 -0.1653  0.1496  0.4268
15400SOL    HW158673   5.312   8.902   4.485 -1.2700 -1.3885 -0.6720
15400SOL    HW258674   5.323   8.931   4.325  0.9983  1.2455 -0.0692
15401SOL     OW58675   2.942   1.442   1.687 -0.3449 -0.1902 -0.3192
15401SOL    HW158676   2.911   1.512   1.623 -0.3596 -0.7116 -0.8843
15401SOL    HW258677   2.879   1.365   1.686  0.6737 -1.0275 -1.0867
15402SOL     OW58678   2.133   3.285   7.640  0.0473 -0.3151  0.3926
15402SOL    HW158679   2.193   3.340   7.582  0.1215 -1.0129 -0.2062
15402SOL    HW258680   2.037   3.307   7.619  0.0617 -1.2026 -0.6311
15403SOL     OW58681   1.742   6.209   8.281 -0.1219  0.0135  0.5002
15403SOL    HW158682   1.764   6.158   8.198  2.1628  2.5439 -0.4912
15403SOL    HW258683   1.643   6.205   8.297 -0.5371 -0.7831 -2.1315
15404SOL     OW58684   5.672   1.956   3.670  0.2282  0.0191 -0.3089
15404SOL    HW158685   5.772   1.952   3.666  0.3163  0.8946  0.8924
15404SOL    HW258686   5.634   1.900   3.596  1.6049  0.1714 -1.1529
15405SOL     OW58687   1.617   0.123   8.045  0.2765  0.1797  0.8463
15405SOL    HW158688   1.565   0.038   8.042  1.2667 -0.4857  2.0425
15405SOL    HW258689   1.562   0.195   8.088 -1.1794  0.6311 -1.6320
15406SOL     OW58690   4.330   7.290   8.372  0.5200 -0.5330 -0.3525
15406SOL    HW158691   4.362   7.320   8.283  3.1957 -0.2736  0.6569
15406SOL    HW258692   4.369   7.201   8.393  0.4313 -0.3046  0.8176
15407SOL     OW58693   3.380   0.263   8.010  0.5955 -0.2811  0.1332
15407SOL    HW158694   3.419   0.173   8.032 -0.7688 -0.7294  0.7547
15407SOL    HW258695   3.285   0.266   8.039  0.2823  0.9557 -0.9808
15408SOL     OW58696   4.323   7.941   2.978 -0.7894  0.0016  0.4651
15408SOL    HW158697   4.324   7.855   2.927 -0.1253  0.1802  0.1697
15408SOL    HW258698   4.320   7.921   3.076 -2.5409 -0.3322  0.3526
15409SOL     OW58699   7.933   4.809   6.327  0.5235  0.1542 -0.3868
15409SOL    HW158700   7.840   4.820   6.364  0.4832 -0.3452 -0.3374
15409SOL    HW258701   7.992   4.880   6.364  0.5213 -0.4421  0.8012
15410SOL     OW58702   1.996   5.861   4.091 -0.5352  0.5086  0.0522
15410SOL    HW158703   2.005   5.876   4.190  1.1408  2.2284 -0.3335
15410SOL    HW258704   2.063   5.793   4.062  1.5528  2.7172 -0.4664
15411SOL     OW58705   8.706   2.063   6.148  0.3625 -0.2977  0.3008
15411SOL    HW158706   8.742   1.989   6.205 -1.6893 -1.3116  0.3429
15411SOL    HW258707   8.626   2.103   6.193  1.0385  1.4986 -0.0598
15412SOL     OW58708   2.712   1.045   7.160 -0.3571  0.7595  0.3258
15412SOL    HW158709   2.636   0.999   7.206  0.0521  0.2333  0.4714
15412SOL    HW258710   2.798   1.016   7.201 -0.0001  0.4219 -0.6638
15413SOL     OW58711   8.863   6.092   3.173  0.1966  0.4926 -0.1903
15413SOL    HW158712   8.947   6.058   3.132 -0.9384  1.2510 -3.2367
15413SOL    HW258713   8.784   6.057   3.123 -1.3202  0.3985  2.1588
15414SOL     OW58714   5.569   3.246   4.673  0.0623  0.3957 -0.2764
15414SOL    HW158715   5.599   3.194   4.592 -2.1280 -0.5994 -0.4853
15414SOL    HW258716   5.506   3.318   4.644 -0.5454  0.1832  0.5302
15415SOL     OW58717   0.201   6.696   4.450  0.0916 -0.6652  0.7863
15415SOL    HW158718   0.225   6.729   4.541  0.4926  0.7196  0.2014
15415SOL    HW258719   0.257   6.744   4.382 -2.1723  0.3936 -0.3947
15416SOL     OW58720   2.294   8.689   3.957  0.1286 -0.0728 -0.0008
15416SOL    HW158721   2.316   8.701   4.054  0.0920 -2.0353  0.2811
15416SOL    HW258722   2.252   8.772   3.921 -2.9351 -0.4541  2.5148
15417SOL     OW58723   6.253   6.923   6.004 -0.1806 -0.2169  0.8991
15417SOL    HW158724   6.315   6.949   6.078  1.3166  0.1484 -0.4507
15417SOL    HW258725   6.293   6.949   5.916 -1.0674 -2.3140 -0.1657
15418SOL     OW58726   0.026   2.199   5.261  0.3312 -0.4631 -0.2149
15418SOL    HW158727   0.018   2.260   5.182 -0.5139 -1.2991 -0.7893
15418SOL    HW258728   0.012   2.105   5.232 -0.9418 -0.6975  1.0835
15419SOL     OW58729   8.512   5.801   3.324 -0.1635 -0.4302 -0.2600
15419SOL    HW158730   8.469   5.842   3.243 -0.4132 -0.5200 -0.1732
15419SOL    HW258731   8.611   5.798   3.311 -0.1216  0.4310 -0.1702
15420SOL     OW58732   1.090   5.671   6.696 -0.3480  0.5293  0.3844
15420SOL    HW158733   1.094   5.572   6.696 -3.0681  0.3477  3.5742
15420SOL    HW258734   1.072   5.704   6.603 -0.2469 -1.9681 -0.5510
15421SOL     OW58735   7.627   0.963   2.288  0.3187  0.1810 -0.6574
15421SOL    HW158736   7.646   0.885   2.228  0.0987 -0.9801  0.7500
15421SOL    HW258737   7.695   0.966   2.361 -0.7619  0.1674  0.3746
15422SOL     OW58738   4.719   3.542   4.874  0.3928  0.2513 -0.4592
15422SOL    HW158739   4.707   3.539   4.974  1.1450  0.1373 -0.3702
15422SOL    HW258740   4.652   3.482   4.831  2.1146 -2.2168  0.1727
15423SOL     OW58741   5.903   0.049   7.678  0.2470 -0.3077  0.0793
15423SOL    HW158742   5.830   0.022   7.615  0.0120 -0.9569  0.6150
15423SOL    HW258743   5.946  -0.033   7.715  0.7928  0.0742  0.2894
15424SOL     OW58744   6.634   0.350   2.352 -0.4941 -0.2768 -0.2427
15424SOL    HW158745   6.705   0.281   2.359 -0.3184  0.0254  1.1170
15424SOL    HW258746   6.614   0.368   2.256  0.6980 -0.9440 -0.6232
15425SOL     OW58747   4.802   5.157   5.301 -0.4811 -0.7548 -0.2352
15425SOL    HW158748   4.769   5.077   5.351 -0.6734 -0.7224 -0.3082
15425SOL    HW258749   4.884   5.133   5.249  0.3446 -0.5200  0.9267
15426SOL     OW58750   1.917   5.864   0.992 -0.2863 -0.6838  0.1348
15426SOL    HW158751   2.008   5.890   0.959 -0.1094 -1.2856  0.1325
15426SOL    HW258752   1.902   5.903   1.083 -0.1484 -0.3252  0.0021
15427SOL     OW58753   0.537   8.972   6.487 -0.9195 -0.0600  0.6171
15427SOL    HW158754   0.604   9.034   6.528 -0.2577 -0.8792  0.7972
15427SOL    HW258755   0.585   8.892   6.451 -1.7633 -0.4469  0.3613
15428SOL     OW58756   7.411   8.331   5.896  0.1062 -0.5858 -0.0635
15428SOL    HW158757   7.417   8.295   5.803 -0.4414  1.0816 -0.7668
15428SOL    HW258758   7.502   8.358   5.928 -0.2557  2.8534 -1.7790
15429SOL     OW58759   5.990   7.517   0.365  0.3630  0.6249  0.0880
15429SOL    HW158760   6.051   7.475   0.298  0.6188  1.6865 -0.3616
15429SOL    HW258761   5.912   7.458   0.382  1.6681 -0.9206  0.9105
15430SOL     OW58762   7.578   7.687   4.037 -0.0377  0.0292  0.5267
15430SOL    HW158763   7.490   7.713   3.996 -0.1620  0.8590  1.3089
15430SOL    HW258764   7.628   7.628   3.973 -0.4878  0.8032 -0.5641
15431SOL     OW58765   3.169   7.022   7.686 -0.5100 -0.1399  0.2263
15431SOL    HW158766   3.192   7.110   7.644  0.5073  0.8468  2.7831
15431SOL    HW258767   3.069   7.009   7.684 -0.8468  2.0330  1.6348
15432SOL     OW58768   3.039   1.544   6.244 -0.0876  0.1764 -0.0758
15432SOL    HW158769   2.993   1.566   6.330 -1.6364  0.3427 -0.9323
15432SOL    HW258770   3.116   1.606   6.231 -1.2121  1.6304  0.1052
15433SOL     OW58771   3.289   3.197   5.365 -0.2135  0.3879 -0.7872
15433SOL    HW158772   3.249   3.146   5.441  0.2013  0.6329 -0.4052
15433SOL    HW258773   3.216   3.244   5.315 -0.5851 -0.4659 -1.0653
15434SOL     OW58774   7.843   2.850   7.445  0.3918  0.2118  0.2088
15434SOL    HW158775   7.768   2.819   7.504  0.8080 -0.8136  0.2184
15434SOL    HW258776   7.881   2.935   7.481 -1.3259  1.2145 -0.2757
15435SOL     OW58777   3.821   5.717   6.480  0.1749  0.3807  0.3163
15435SOL    HW158778   3.911   5.706   6.522 -0.5349 -0.0735  1.7780
15435SOL    HW258779   3.809   5.811   6.450  1.4665  0.2360 -0.6739
15436SOL     OW58780   1.203   3.695   5.393  0.5066 -0.4627  0.0675
15436SOL    HW158781   1.127   3.703   5.329  0.5336 -1.2981 -0.0683
15436SOL    HW258782   1.289   3.704   5.344  0.5382 -1.7143 -0.0992
15437SOL     OW58783   2.811   8.654   7.987  0.3055  0.2472 -0.2750
15437SOL    HW158784   2.774   8.586   7.924  1.0440 -2.4976  2.1740
15437SOL    HW258785   2.871   8.610   8.053  0.6656  3.2586  1.5180
15438SOL     OW58786   5.130   5.026   5.642 -0.3404  0.1112 -0.5537
15438SOL    HW158787   5.131   4.966   5.722  0.7979  0.7209 -0.1010
15438SOL    HW258788   5.209   5.088   5.646  0.1234 -0.3224 -2.4983
15439SOL     OW58789   5.398   5.489   5.986  0.2459  0.2443  0.1435
15439SOL    HW158790   5.494   5.509   5.970  0.1962  0.3741  0.0004
15439SOL    HW258791   5.349   5.491   5.898  0.5055 -1.9631 -0.0579
15440SOL     OW58792   3.101   0.668   1.233  0.3460 -0.5424  0.0213
15440SOL    HW158793   3.043   0.619   1.168  1.8636 -2.2253 -0.0841
15440SOL    HW258794   3.060   0.663   1.324 -0.1686 -0.8896 -0.2286
15441SOL     OW58795   7.413   5.741   5.358 -0.4269  0.0580 -0.0280
15441SOL    HW158796   7.419   5.643   5.339 -0.5687  0.1784 -0.7057
15441SOL    HW258797   7.504   5.782   5.351 -0.2585 -0.1508  0.9439
15442SOL     OW58798   3.416   5.597   1.931 -0.2171  0.2260 -0.3802
15442SOL    HW158799   3.393   5.512   1.978 -1.2337  0.9842  0.5279
15442SOL    HW258800   3.512   5.619   1.948 -0.3494  0.0479  0.6715
15443SOL     OW58801   8.917   6.680   1.251  0.5492 -0.2764  0.2337
15443SOL    HW158802   8.992   6.642   1.305 -0.1434 -2.7683 -0.4840
15443SOL    HW258803   8.836   6.688   1.309  0.7257  0.2302  0.4140
15444SOL     OW58804   1.765   6.171   1.031 -0.4749 -0.0307 -0.3245
15444SOL    HW158805   1.696   6.111   0.992 -0.1709 -0.2913 -0.4617
15444SOL    HW258806   1.818   6.214   0.957 -1.2997  1.1233 -0.2549
15445SOL     OW58807   0.247   8.407   6.901  0.2538  0.4531 -0.0483
15445SOL    HW158808   0.254   8.354   6.817 -2.3480  0.2780 -0.2152
15445SOL    HW258809   0.235   8.344   6.979 -0.0190  0.6980  0.1074
15446SOL     OW58810   0.517   4.399   1.857  0.0488  0.2130 -0.4893
15446SOL    HW158811   0.609   4.363   1.872 -0.0168 -0.0930 -0.8120
15446SOL    HW258812   0.500   4.404   1.758 -0.7156 -0.8268 -0.4155
15447SOL     OW58813   8.245   3.378   8.419  0.0295 -0.4666 -0.2122
15447SOL    HW158814   8.258   3.283   8.449  1.0126 -0.8603 -1.7905
15447SOL    HW258815   8.211   3.433   8.495 -0.5131 -2.0796  0.7327
15448SOL     OW58816   8.337   3.716   7.590  0.1173 -0.2036 -0.2670
15448SOL    HW158817   8.420   3.663   7.608  0.1861  0.2147  0.6763
15448SOL    HW258818   8.333   3.794   7.653 -0.4959  0.3312 -0.9664
15449SOL     OW58819   8.495   4.678   8.795 -0.1030 -0.2030  0.1556
15449SOL    HW158820   8.484   4.599   8.856 -0.8463  1.0163  1.6381
15449SOL    HW258821   8.460   4.655   8.704  1.1215 -2.0849  0.1180
15450SOL     OW58822   7.074   2.424   3.584 -0.0749  0.0069  0.3650
15450SOL    HW158823   7.002   2.493   3.579  2.1400  2.4321  0.4964
15450SOL    HW258824   7.086   2.396   3.679 -2.0383 -1.7759  0.1183
15451SOL     OW58825   7.639   5.017   4.659  0.4720  0.5848 -0.5771
15451SOL    HW158826   7.597   5.055   4.742 -1.4297  0.1236 -1.3101
15451SOL    HW258827   7.689   5.089   4.612 -0.1177  1.3366 -0.0753
15452SOL     OW58828   2.979   7.244   0.650  0.3858 -0.1487  0.2650
15452SOL    HW158829   2.995   7.342   0.653  4.7504 -0.6852 -1.5557
15452SOL    HW258830   2.978   7.207   0.743  0.6751  1.3356  0.8655
15453SOL     OW58831   4.482   6.755   3.695  0.5187  0.1523  0.6250
15453SOL    HW158832   4.491   6.808   3.611 -1.5965  0.5893  0.6504
15453SOL    HW258833   4.417   6.800   3.757  1.5139 -0.5351  2.2060
15454SOL     OW58834   8.782   6.000   6.087  0.1178  0.1716 -0.2364
15454SOL    HW158835   8.854   6.046   6.035  0.7346  0.0445  0.4969
15454SOL    HW258836   8.792   5.901   6.078  1.7459  0.0714  2.1046
15455SOL     OW58837   0.439   2.128   3.367 -0.2423  0.1815  0.2503
15455SOL    HW158838   0.342   2.149   3.382 -0.6620 -0.4923 -1.4506
15455SOL    HW258839   0.457   2.120   3.269  1.5436  0.2846  0.5509
15456SOL     OW58840   1.402   4.802   7.768 -0.3584  0.4444 -0.0743
15456SOL    HW158841   1.407   4.872   7.696 -0.2686  0.2355 -0.2748
15456SOL    HW258842   1.320   4.816   7.823 -0.2063  0.8625  0.0473
15457SOL     OW58843   1.356   4.578   7.331 -0.3860  0.4331  0.5762
15457SOL    HW158844   1.451   4.600   7.353 -0.1875 -0.4940  0.6538
15457SOL    HW258845   1.346   4.480   7.319 -0.9526  0.7036 -1.3276
15458SOL     OW58846   7.690   8.613   1.804 -0.1239 -0.4274 -0.0905
15458SOL    HW158847   7.591   8.598   1.810 -0.2547  0.3086 -0.3864
15458SOL    HW258848   7.708   8.699   1.756  0.6318  0.0127  0.9662
15459SOL     OW58849   1.023   4.686   2.626 -0.6941 -0.2535  0.1420
15459SOL    HW158850   0.992   4.767   2.677  0.2876 -0.3857  0.9462
15459SOL    HW258851   1.117   4.664   2.651 -0.8790 -1.5215 -0.2339
15460SOL     OW58852   0.457   0.939   3.021 -0.3819 -0.3075 -0.1333
15460SOL    HW158853   0.458   0.842   2.995 -0.8205 -0.3409 -0.0213
15460SOL    HW258854   0.530   0.987   2.973  0.5912 -0.9259  0.7018
15461SOL     OW58855   8.156   5.768   2.722  0.8759 -0.6618  0.4582
15461SOL    HW158856   8.095   5.803   2.652 -0.0181 -0.6759  1.2102
15461SOL    HW258857   8.231   5.833   2.738  0.3711 -0.0675  0.4049
15462SOL     OW58858   6.798   1.639   6.747  0.4591 -0.2815 -0.0942
15462SOL    HW158859   6.885   1.631   6.698  0.3168 -1.7840 -0.1247
15462SOL    HW258860   6.725   1.599   6.691  0.2690 -1.8989  1.2548
15463SOL     OW58861   5.323   5.157   4.055 -0.5967  0.1175 -0.2719
15463SOL    HW158862   5.262   5.110   3.991  0.0873  0.0557 -0.8934
15463SOL    HW258863   5.405   5.101   4.069 -0.9748 -0.1064  1.0671
15464SOL     OW58864   7.959   4.740   5.965 -0.3460  0.3922  0.0537
15464SOL    HW158865   7.946   4.834   5.932 -4.2140 -0.0275  0.1143
15464SOL    HW258866   7.875   4.708   6.009  0.8818 -3.1382  0.0246
15465SOL     OW58867   8.976   5.368   8.526 -0.2712  0.2211  0.3038
15465SOL    HW158868   8.964   5.351   8.428  0.7289  1.7963 -0.1055
15465SOL    HW258869   8.889   5.398   8.566 -0.2311  1.3922 -0.4859
15466SOL     OW58870   7.987   5.472   4.229 -0.6932 -0.3470 -0.0198
15466SOL    HW158871   7.917   5.540   4.205 -0.1072 -0.6913 -2.8212
15466SOL    HW258872   7.947   5.380   4.225 -0.4681 -0.4399 -0.1483
15467SOL     OW58873   5.565   7.579   1.097 -0.0913  0.5158  0.4469
15467SOL    HW158874   5.567   7.636   1.015  0.2153 -0.7248 -0.4243
15467SOL    HW258875   5.508   7.498   1.080 -0.2848  0.4046  1.5644
15468SOL     OW58876   4.480   5.687   8.286 -0.9496 -0.1129  0.0262
15468SOL    HW158877   4.464   5.782   8.314 -1.8830 -0.3308  0.2096
15468SOL    HW258878   4.516   5.635   8.363 -0.2524  0.1345 -0.1272
15469SOL     OW58879   7.918   1.789   3.102  0.3087 -0.5518  0.3402
15469SOL    HW158880   7.985   1.862   3.118  0.1010 -0.7675  2.2814
15469SOL    HW258881   7.837   1.827   3.057  0.5847  0.2318  0.5025
15470SOL     OW58882   4.591   2.501   4.618  0.0310  0.2804  0.2865
15470SOL    HW158883   4.624   2.595   4.607 -1.5684  0.6920 -1.2914
15470SOL    HW258884   4.517   2.499   4.685  1.0290 -0.1191  1.4067
15471SOL     OW58885   2.820   6.319   5.142 -0.2327 -0.4097  0.1933
15471SOL    HW158886   2.783   6.405   5.107 -2.0078 -1.0828  0.3309
15471SOL    HW258887   2.777   6.298   5.230  0.7764 -1.0344  0.5356
15472SOL     OW58888   5.179   3.889   0.832  0.0784  0.1129  0.8129
15472SOL    HW158889   5.215   3.795   0.833  0.1131  0.1351  2.4055
15472SOL    HW258890   5.167   3.921   0.926  1.3736  2.2104  0.2906
15473SOL     OW58891   1.012   6.803   0.920  0.2439  0.0577 -0.2336
15473SOL    HW158892   1.073   6.724   0.927  0.8505  0.5755  0.3421
15473SOL    HW258893   0.925   6.774   0.880 -0.0840 -1.1976  1.3628
15474SOL     OW58894   4.582   1.234   2.930 -0.1200  0.4788 -0.2440
15474SOL    HW158895   4.565   1.146   2.886  0.3670 -0.7407  1.9310
15474SOL    HW258896   4.641   1.290   2.872  0.9442 -1.2942 -0.9092
15475SOL     OW58897   3.402   8.096   1.892 -0.0471  0.3309 -0.0450
15475SOL    HW158898   3.430   8.189   1.915  2.4764  0.5009 -3.4620
15475SOL    HW258899   3.311   8.099   1.850  0.4838  1.3998 -1.1517
15476SOL     OW58900   5.121   7.292   1.039 -0.1766  0.0242 -0.1086
15476SOL    HW158901   5.081   7.214   1.086 -0.0981  0.2994  0.4152
15476SOL    HW258902   5.097   7.288   0.942  1.5423 -1.7298 -0.4694
15477SOL     OW58903   7.978   6.271   2.921  0.5954 -0.5339 -0.5304
15477SOL    HW158904   7.980   6.248   2.823 -0.5317  0.4308 -0.7950
15477SOL    HW258905   8.021   6.198   2.973 -1.2299 -2.3782 -1.5116
15478SOL     OW58906   2.650   4.295   7.262 -0.3281 -0.5629 -0.1908
15478SOL    HW158907   2.579   4.248   7.315  0.1538 -0.7457  0.2964
15478SOL    HW258908   2.612   4.325   7.174 -1.7770  1.6925  1.1315
15479SOL     OW58909   0.572   6.073   4.167 -0.2739  0.5852 -0.0600
15479SOL    HW158910   0.665   6.035   4.165 -0.7420 -0.6017  0.5635
15479SOL    HW258911   0.517   6.031   4.094 -1.0800 -0.7035  1.2697
15480SOL     OW58912   0.760   4.624   8.171  0.5883  0.4227  0.1382
15480SOL    HW158913   0.751   4.707   8.117 -2.2371 -0.3232 -0.5940
15480SOL    HW258914   0.720   4.638   8.262  2.1161  0.5389  0.8143
15481SOL     OW58915   1.380   6.241   0.741  0.1240  0.1608  0.2467
15481SOL    HW158916   1.337   6.234   0.651 -1.0214  0.1756  0.7835
15481SOL    HW258917   1.467   6.192   0.741 -1.0124 -1.9039 -0.1774
15482SOL     OW58918   8.997   1.662   6.023  0.5437 -0.5946  0.6765
15482SOL    HW158919   8.976   1.576   6.070  0.2014 -0.4854  0.7184
15482SOL    HW258920   8.935   1.674   5.946  0.5610 -0.3551  0.7023
15483SOL     OW58921   1.076   7.237   1.000 -0.6690  0.3248 -0.1047
15483SOL    HW158922   1.110   7.148   1.029 -0.0177  0.1183 -1.5000
15483SOL    HW258923   0.980   7.230   0.975 -0.5031 -0.0800 -0.6326
15484SOL     OW58924   1.424   3.669   8.366 -0.0730 -0.5247  0.5515
15484SOL    HW158925   1.492   3.612   8.319  0.1347  0.1105  0.0761
15484SOL    HW258926   1.412   3.754   8.316  0.4411  0.3361  1.8523
15485SOL     OW58927   3.077   2.385   7.302 -0.5627  0.2573  0.0892
15485SOL    HW158928   3.024   2.406   7.221  0.4934 -1.1120 -0.9926
15485SOL    HW258929   3.033   2.311   7.353 -0.8027  0.5747  0.3487
15486SOL     OW58930   3.872   8.015   4.310 -0.2052  0.3205  0.1538
15486SOL    HW158931   3.837   7.965   4.389  0.3439 -1.0418 -0.4488
15486SOL    HW258932   3.812   7.998   4.231 -0.0086  0.6097 -0.0593
15487SOL     OW58933   8.768   8.096   8.572  0.3197  0.1073  0.5326
15487SOL    HW158934   8.824   8.079   8.653 -0.4237  1.5968  1.3814
15487SOL    HW258935   8.672   8.089   8.597  0.1031 -1.5096 -0.7082
15488SOL     OW58936   4.751   4.306   4.984  0.4485 -0.3216 -0.5047
15488SOL    HW158937   4.737   4.401   4.956 -0.4876 -0.7822 -1.6299
15488SOL    HW258938   4.816   4.263   4.923  1.3081 -0.2489  0.3532
15489SOL     OW58939   6.816   7.035   8.231  0.0854  0.1592 -0.3843
15489SOL    HW158940   6.819   7.126   8.190  0.9009  0.0791 -0.4981
15489SOL    HW258941   6.797   6.967   8.161 -2.8898  0.4659  0.0491
15490SOL     OW58942   6.470   2.611   8.603  0.6481 -0.6857  0.2327
15490SOL    HW158943   6.446   2.539   8.668  1.2900 -0.2480  0.9628
15490SOL    HW258944   6.427   2.697   8.631  0.2822 -0.6740 -0.3660
15491SOL     OW58945   0.104   8.645   5.450 -0.7316  0.3494  0.3013
15491SOL    HW158946   0.129   8.625   5.356  1.7428 -2.1863  1.4102
15491SOL    HW258947   0.152   8.726   5.481  0.3754 -0.2279  0.1169
15492SOL     OW58948   8.695   2.361   7.290 -0.4433  0.0385  0.3853
15492SOL    HW158949   8.717   2.270   7.257 -0.3986 -0.2497  1.2015
15492SOL    HW258950   8.746   2.429   7.236 -0.7925 -0.3838 -0.4905
15493SOL     OW58951   8.024   2.441   8.737  0.2451 -0.3067 -0.3138
15493SOL    HW158952   7.953   2.405   8.676 -1.3167  0.7910  0.8233
15493SOL    HW258953   8.041   2.376   8.811 -1.6996  0.7186  1.0568
15494SOL     OW58954   6.499   6.819   3.721 -0.1649  0.8766  0.0137
15494SOL    HW158955   6.491   6.748   3.650  0.4143 -0.6147  1.4106
15494SOL    HW258956   6.410   6.836   3.761  0.0180 -0.4987  1.0301
15495SOL     OW58957   4.890   6.443   5.375  0.2750  0.0465 -0.1103
15495SOL    HW158958   4.885   6.396   5.287 -0.2644  2.2631 -1.3146
15495SOL    HW258959   4.797   6.465   5.405  0.4097 -1.4329  1.4434
15496SOL     OW58960   1.199   8.899   6.042  0.2062 -0.8120 -0.3384
15496SOL    HW158961   1.238   8.991   6.046  0.1624 -0.8740  4.0005
15496SOL    HW258962   1.132   8.894   5.968  0.9632  2.3208 -1.2928
15497SOL     OW58963   1.035   4.741   3.674  0.2161 -0.7674  0.0618
15497SOL    HW158964   1.079   4.694   3.598  2.5202 -0.1800  0.9876
15497SOL    HW258965   1.033   4.840   3.656 -0.7959 -0.7913  0.0019
15498SOL     OW58966   2.330   6.044   1.169  0.5366  0.1084  0.0716
15498SOL    HW158967   2.306   6.086   1.256  1.9488  1.8981 -0.3755
15498SOL    HW258968   2.286   5.955   1.162 -1.3277  0.8812  1.6638
15499SOL     OW58969   1.115   6.946   7.964 -0.4266  0.1619 -0.1638
15499SOL    HW158970   1.056   6.968   8.041 -0.1594  0.3056  0.0022
15499SOL    HW258971   1.136   6.849   7.965  1.6698  0.5937  1.4419
15500SOL     OW58972   1.295   3.878   1.374 -0.2955 -0.3463 -0.2123
15500SOL    HW158973   1.263   3.922   1.290 -1.8077 -0.3304  0.3623
15500SOL    HW258974   1.384   3.915   1.399 -0.6793  0.9768 -0.7917
15501SOL     OW58975   7.630   2.965   2.229 -0.3730  0.3293  0.5651
15501SOL    HW158976   7.547   2.961   2.173  0.8421 -2.0801 -1.1241
15501SOL    HW258977   7.690   2.888   2.207  1.7236  1.2547  2.7406
15502SOL     OW58978   4.222   4.352   0.796  0.6834 -0.0174 -0.2034
15502SOL    HW158979   4.151   4.414   0.762  1.6615  0.7501 -0.8965
15502SOL    HW258980   4.236   4.368   0.893  2.2646  2.2577 -0.7575
15503SOL     OW58981   0.628   2.440   5.064 -0.4737  0.1055 -0.0407
15503SOL    HW158982   0.678   2.521   5.035 -0.0978 -0.1411 -0.0811
15503SOL    HW258983   0.633   2.370   4.992  1.9375 -1.1678  1.3224
15504SOL     OW58984   3.839   6.306   1.313  0.3145 -0.1870  0.8339
15504SOL    HW158985   3.769   6.377   1.307  0.0624 -0.3192  1.9976
15504SOL    HW258986   3.808   6.235   1.376  0.8078 -1.0465  0.1133
15505SOL     OW58987   6.820   7.231   6.918  0.0051  0.1403  0.2746
15505SOL    HW158988   6.780   7.160   6.976 -1.4520  0.2066 -0.6237
15505SOL    HW258989   6.859   7.303   6.976 -0.5494 -0.2652  1.1612
15506SOL     OW58990   6.865   4.533   4.066  0.2287  0.0158 -0.4341
15506SOL    HW158991   6.908   4.482   3.991 -1.3066 -0.2499 -1.1403
15506SOL    HW258992   6.864   4.630   4.043 -1.1830 -0.1779 -1.2419
15507SOL     OW58993   6.831   2.575   7.565 -0.0652  0.2662 -0.8635
15507SOL    HW158994   6.813   2.606   7.658  1.4290  0.4718 -0.6313
15507SOL    HW258995   6.905   2.508   7.566  0.2260  0.5592 -1.9349
15508SOL     OW58996   1.818   7.692   6.237  0.2528 -0.1663 -0.5041
15508SOL    HW158997   1.821   7.653   6.329 -0.6027  0.4918 -0.1900
15508SOL    HW258998   1.724   7.693   6.204  0.0627  2.6344 -0.0374
15509SOL     OW58999   7.777   2.400   8.614  0.7210  0.4434  0.0979
15509SOL    HW159000   7.808   2.479   8.561 -0.3678  0.7893 -0.0541
15509SOL    HW259001   7.743   2.330   8.553 -0.5400  0.8432  0.3128
15510SOL     OW59002   6.320   6.337   4.006 -0.0017 -0.2170 -0.0140
15510SOL    HW159003   6.232   6.379   4.026  0.0400 -0.7686  1.3942
15510SOL    HW259004   6.328   6.320   3.907 -2.0784 -1.4902  0.0259
15511SOL     OW59005   1.042   1.053   6.221 -0.1191 -0.2705  0.5353
15511SOL    HW159006   1.026   0.959   6.250 -2.1538 -0.4296 -0.9994
15511SOL    HW259007   1.090   1.054   6.134  0.9230  0.1484  1.1001
15512SOL     OW59008   2.859   2.821   4.832  0.2020 -0.6524 -0.5249
15512SOL    HW159009   2.789   2.884   4.800  0.7891  0.5526  0.5238
15512SOL    HW259010   2.946   2.870   4.843  0.4754 -1.4485  1.0532
15513SOL     OW59011   0.917   6.653   7.069 -0.2365  0.5444 -0.5201
15513SOL    HW159012   0.826   6.673   7.035 -0.2401 -0.0230 -0.8344
15513SOL    HW259013   0.977   6.731   7.050 -0.7706  1.1179  0.1211
15514SOL     OW59014   2.989   0.047   0.795  0.5278 -0.1918  0.3383
15514SOL    HW159015   3.051   0.113   0.754  3.1214 -2.3296  0.6807
15514SOL    HW259016   2.955  -0.015   0.725 -0.1606  0.1329  0.3789
15515SOL     OW59017   8.563   1.869   8.361 -0.1236 -0.4097 -0.4017
15515SOL    HW159018   8.471   1.899   8.338  0.6370 -0.0463 -3.1491
15515SOL    HW259019   8.596   1.919   8.441 -1.7735  0.4606 -0.2544
15516SOL     OW59020   4.723   6.597   2.109 -0.2705 -0.4551  0.3556
15516SOL    HW159021   4.751   6.561   2.198  1.4924  1.3867  0.5770
15516SOL    HW259022   4.802   6.638   2.064 -1.5922  0.4318 -1.1849
15517SOL     OW59023   3.374   7.440   7.244  0.2432 -0.7143 -0.1087
15517SOL    HW159024   3.431   7.467   7.166 -0.1895 -0.3820 -0.3122
15517SOL    HW259025   3.374   7.340   7.253 -0.8643 -0.8392 -1.4101
15518SOL     OW59026   0.562   0.057   5.559  0.2014  0.1676  0.0789
15518SOL    HW159027   0.617   0.099   5.631  1.1613 -0.2341 -0.4037
15518SOL    HW259028   0.617   0.050   5.475  0.3021 -2.6265  0.3189
15519SOL     OW59029   7.046   6.149   2.652  0.1947  0.1211 -0.3194
15519SOL    HW159030   6.960   6.099   2.668 -0.8264  1.6728 -0.9077
15519SOL    HW259031   7.115   6.085   2.618 -0.3036 -1.4180  1.4737
15520SOL     OW59032   3.110   0.336   8.323  0.2455 -0.0730  0.3154
15520SOL    HW159033   3.129   0.242   8.350  1.5231 -0.3985 -1.5649
15520SOL    HW259034   3.054   0.336   8.240 -1.5622  0.8701  1.4881
15521SOL     OW59035   0.570   6.546   7.694  0.0111  0.1644 -0.7685
15521SOL    HW159036   0.648   6.572   7.638  0.6976 -0.0455  0.0913
15521SOL    HW259037   0.518   6.627   7.720 -1.2307  0.1379 -3.0344
15522SOL     OW59038   3.695   0.994   0.040 -0.1605  0.7049  0.7653
15522SOL    HW159039   3.668   0.984  -0.056  1.0818  0.6895  0.4134
15522SOL    HW259040   3.613   0.996   0.097 -0.8363 -2.2421 -0.0020
15523SOL     OW59041   8.491   6.198   2.785 -0.7350 -0.1032  0.5734
15523SOL    HW159042   8.555   6.274   2.774 -1.1924  0.1076 -0.7015
15523SOL    HW259043   8.421   6.202   2.713 -3.7046  1.1930  3.3808
15524SOL     OW59044   5.347   3.841   6.406 -0.6718 -0.5727 -0.3986
15524SOL    HW159045   5.377   3.902   6.480  1.4492 -2.0915  0.0409
15524SOL    HW259046   5.336   3.749   6.442 -0.8829 -1.0724 -1.7205
15525SOL     OW59047   5.435   3.971   2.977  0.6126 -0.2511  0.2284
15525SOL    HW159048   5.395   4.000   3.064 -1.4420  0.5474 -0.9477
15525SOL    HW259049   5.455   4.051   2.921  3.7088 -0.6475  0.6725
15526SOL     OW59050   0.930   0.633   1.058 -0.3853  0.4018 -0.1584
15526SOL    HW159051   0.878   0.705   1.103  0.7347  1.9785 -1.3529
15526SOL    HW259052   0.979   0.579   1.127 -0.8511  1.0596  0.6955
15527SOL     OW59053   3.571   8.343   1.390  0.6200 -0.1709 -0.0104
15527SOL    HW159054   3.549   8.266   1.330 -1.0972 -0.5984  1.1098
15527SOL    HW259055   3.567   8.429   1.337 -0.6071 -0.5615 -0.5910
15528SOL     OW59056   8.756   2.522   0.093  0.3038  0.0584  0.0297
15528SOL    HW159057   8.719   2.536   0.185  0.4923  1.2813 -0.0669
15528SOL    HW259058   8.715   2.588   0.030  0.0936 -0.8448 -0.7919
15529SOL     OW59059   5.087   2.797   4.892 -0.3040  0.5982 -0.4878
15529SOL    HW159060   5.034   2.841   4.965 -1.5735  0.4199 -1.2900
15529SOL    HW259061   5.059   2.701   4.885 -0.6919  0.7914 -1.6706
15530SOL     OW59062   6.306   4.556   1.076  0.4664  0.2914 -0.6012
15530SOL    HW159063   6.221   4.515   1.043  1.3273 -1.4410 -0.6932
15530SOL    HW259064   6.369   4.484   1.105  1.3480  1.6258  0.8482
15531SOL     OW59065   5.991   0.149   7.064 -0.1406  0.0966 -0.3289
15531SOL    HW159066   6.019   0.197   6.981 -0.2866 -0.4021 -0.6646
15531SOL    HW259067   6.072   0.105   7.105 -0.0774  0.3027 -0.2306
15532SOL     OW59068   8.479   2.026   3.120 -0.2437  0.2034  0.4440
15532SOL    HW159069   8.423   1.949   3.149 -0.4138  0.2478  0.2300
15532SOL    HW259070   8.462   2.104   3.181  0.6282 -0.2166  1.2434
15533SOL     OW59071   4.531   0.356   6.052  0.0027 -0.0497  0.3020
15533SOL    HW159072   4.448   0.352   6.108 -1.1124 -1.1431 -1.3934
15533SOL    HW259073   4.509   0.332   5.958  2.0648  0.7011 -0.3973
15534SOL     OW59074   3.127   4.132   7.209 -0.2224 -0.1200  0.2946
15534SOL    HW159075   3.063   4.200   7.245 -0.9298 -1.8298  2.4171
15534SOL    HW259076   3.126   4.051   7.268  1.2546 -1.6235 -1.6612
15535SOL     OW59077   3.533   6.867   5.912 -0.0523 -0.4358 -0.3849
15535SOL    HW159078   3.511   6.926   5.833 -0.8867  0.6494  0.6339
15535SOL    HW259079   3.613   6.904   5.960 -0.8095  0.0901  0.4792
15536SOL     OW59080   1.118   7.968   7.980  0.1597 -0.0040 -0.7453
15536SOL    HW159081   1.096   7.883   7.932  2.1477 -0.0740 -1.5591
15536SOL    HW259082   1.158   7.947   8.069  0.8677  0.0758 -1.0443
15537SOL     OW59083   6.741   5.457   1.217  0.1433 -0.0837  0.0643
15537SOL    HW159084   6.709   5.391   1.285  1.1238 -0.9102 -0.2490
15537SOL    HW259085   6.839   5.443   1.201  0.0722  0.5613 -0.9942
15538SOL     OW59086   0.595   3.833   8.583 -0.2302 -0.2671 -0.3952
15538SOL    HW159087   0.602   3.893   8.663  0.0192 -0.4587 -0.2697
15538SOL    HW259088   0.687   3.804   8.556 -0.3482 -0.5578 -0.4797
15539SOL     OW59089   6.743   2.789   0.665 -0.0487 -0.6231 -0.4503
15539SOL    HW159090   6.661   2.732   0.676  0.1265 -1.0022 -1.1030
15539SOL    HW259091   6.716   2.880   0.633 -0.2557 -0.5963 -0.2029
15540SOL     OW59092   7.643   1.542   6.868  0.1345  0.2628  0.4216
15540SOL    HW159093   7.741   1.560   6.877 -0.0732  1.0898  1.1384
15540SOL    HW259094   7.627   1.482   6.790  1.1922  0.3257  0.1481
15541SOL     OW59095   3.209   7.608   6.214 -0.0107  0.2201  0.4749
15541SOL    HW159096   3.218   7.545   6.291  1.1925  1.3216  1.2630
15541SOL    HW259097   3.287   7.595   6.152  0.3513  1.0349  0.7428
15542SOL     OW59098   2.039   6.775   5.389  0.8465 -0.2947 -0.2130
15542SOL    HW159099   2.003   6.731   5.471  0.3882 -0.3111 -0.4193
15542SOL    HW259100   2.139   6.775   5.392  0.8288  1.7218  1.4259
15543SOL     OW59101   0.851   7.103   7.560  0.0687  0.3261  0.4804
15543SOL    HW159102   0.817   7.009   7.560 -0.7668  0.6236 -0.2396
15543SOL    HW259103   0.951   7.102   7.566 -0.0734 -0.5263  4.0873
15544SOL     OW59104   0.199   2.630   8.989  0.4166  0.7773 -0.1482
15544SOL    HW159105   0.130   2.663   8.925 -0.0062 -0.9475 -0.6141
15544SOL    HW259106   0.289   2.663   8.962  0.2554 -0.0252 -1.7182
15545SOL     OW59107   3.463   5.078   6.667  0.3925  0.1796 -0.1238
15545SOL    HW159108   3.508   5.123   6.745 -0.2574  0.6871 -0.0351
15545SOL    HW259109   3.459   5.142   6.590 -0.2089  0.1534 -0.1176
15546SOL     OW59110   7.976   5.344   5.490  0.1146  0.1774 -0.3175
15546SOL    HW159111   8.035   5.277   5.535 -1.3993 -2.4197 -2.0947
15546SOL    HW259112   7.887   5.346   5.535 -0.2887  0.0302 -1.1063
15547SOL     OW59113   0.036   4.760   1.680 -0.3388  0.0814 -0.0218
15547SOL    HW159114  -0.054   4.716   1.680  0.1859 -1.0306 -0.4797
15547SOL    HW259115   0.076   4.754   1.771 -0.4449 -0.0270  0.0177
15548SOL     OW59116   0.464   1.139   8.597  0.9575  0.8415  0.5435
15548SOL    HW159117   0.513   1.128   8.510  1.4020 -0.0592  0.8997
15548SOL    HW259118   0.377   1.186   8.581  1.2575  1.1178 -0.3149
15549SOL     OW59119   7.901   5.861   2.604  0.3791 -0.3107  0.2586
15549SOL    HW159120   7.912   5.878   2.702  0.6398 -0.6289  0.2851
15549SOL    HW259121   7.812   5.818   2.587  1.2840 -2.3974  0.6240
15550SOL     OW59122   4.129   2.921   8.127  0.1045 -0.7297 -0.3664
15550SOL    HW159123   4.102   2.934   8.223  0.1484  0.2739 -0.4817
15550SOL    HW259124   4.181   2.837   8.118 -0.4701 -1.1744  0.3790
15551SOL     OW59125   0.642   3.925   7.094  0.2615  0.2857  0.3441
15551SOL    HW159126   0.543   3.922   7.078 -0.0287 -0.8856  2.1507
15551SOL    HW259127   0.686   3.850   7.044 -0.1427 -0.9473  1.7937
15552SOL     OW59128   0.983   7.758   8.704 -0.5956  0.0812  0.2951
15552SOL    HW159129   1.017   7.839   8.657 -2.6550  0.3099 -0.8803
15552SOL    HW259130   1.052   7.686   8.702 -0.2740  0.4322 -2.2109
15553SOL     OW59131   0.862   6.277   5.618  0.3324 -0.1961 -0.2782
15553SOL    HW159132   0.903   6.187   5.600 -0.8126 -0.4679 -1.6807
15553SOL    HW259133   0.801   6.300   5.542  1.8578  2.5018 -0.7200
15554SOL     OW59134   2.898   4.577   7.605  0.3292 -0.8065 -0.9234
15554SOL    HW159135   2.928   4.482   7.601 -0.3968 -1.1542  1.4352
15554SOL    HW259136   2.808   4.585   7.561  0.0725 -1.3527 -0.5063
15555SOL     OW59137   1.045   6.809   0.099  0.2683  0.7860 -0.8352
15555SOL    HW159138   1.053   6.807  -0.000  0.7789 -1.3276 -0.7839
15555SOL    HW259139   1.089   6.727   0.138 -0.6493  1.1557  1.0674
15556SOL     OW59140   0.928   5.623   1.960  0.1425 -0.4555 -0.4294
15556SOL    HW159141   0.993   5.566   1.909  0.2811  1.1749 -2.1139
15556SOL    HW259142   0.957   5.629   2.055  1.8226 -0.7269 -0.8991
15557SOL     OW59143   8.599   7.284   1.393  0.1132  0.0637  0.5158
15557SOL    HW159144   8.536   7.340   1.339  2.1506  1.3610 -0.5637
15557SOL    HW259145   8.583   7.188   1.373 -2.5670  0.2752  1.4323
15558SOL     OW59146   5.439   3.195   7.582 -0.5907 -0.0822 -0.3848
15558SOL    HW159147   5.352   3.181   7.535 -0.9665  0.7854  0.0294
15558SOL    HW259148   5.430   3.167   7.677 -0.1620 -0.7810 -0.5471
15559SOL     OW59149   2.137   6.176   7.235  0.3864 -0.1451  0.1240
15559SOL    HW159150   2.113   6.101   7.173  0.8620  0.1549 -0.4240
15559SOL    HW259151   2.063   6.243   7.235  0.9137  0.4522 -1.0607
15560SOL     OW59152   7.606   4.912   1.045 -0.6631  0.3333 -0.1691
15560SOL    HW159153   7.671   4.854   0.994  1.3688  0.9811  1.5904
15560SOL    HW259154   7.630   5.008   1.031 -0.1056  0.5277  1.8905
15561SOL     OW59155   5.995   0.039   8.018 -0.4551  0.6330  0.2496
15561SOL    HW159156   5.998   0.042   8.118  1.7851  1.0115  0.1965
15561SOL    HW259157   6.073   0.090   7.981  1.3133 -3.2617 -1.6443
15562SOL     OW59158   7.077   1.567   2.198  0.2167  0.4423  0.2751
15562SOL    HW159159   7.167   1.551   2.237 -0.1783  2.6559  2.2399
15562SOL    HW259160   7.009   1.511   2.246  0.5769 -1.4989 -1.4501
15563SOL     OW59161   6.625   3.087   7.475 -0.3407 -0.1088 -0.0991
15563SOL    HW159162   6.659   3.110   7.566  0.1882  1.4913 -0.6908
15563SOL    HW259163   6.597   3.170   7.428 -0.9540 -0.9678 -1.2713
15564SOL     OW59164   4.123   0.164   8.429 -0.6376  0.3503  0.2785
15564SOL    HW159165   4.148   0.128   8.339 -0.9545 -0.1008  0.3700
15564SOL    HW259166   4.188   0.132   8.498  0.5806  2.0255 -0.0377
15565SOL     OW59167   3.199   6.009   5.242  0.2742 -0.8053  0.1536
15565SOL    HW159168   3.177   6.104   5.219 -2.7459 -1.2994  0.7984
15565SOL    HW259169   3.118   5.952   5.227  1.3550 -2.8845  2.0058
15566SOL     OW59170   0.728   1.859   8.900 -0.4768  0.5911 -0.4106
15566SOL    HW159171   0.730   1.884   8.803 -2.0735 -0.2601 -0.6843
15566SOL    HW259172   0.638   1.822   8.922  0.3408 -0.5406  1.0692
15567SOL     OW59173   2.150   2.893   2.860 -0.7526 -0.6352 -0.6224
15567SOL    HW159174   2.130   2.980   2.905  1.6551 -0.4395  0.1387
15567SOL    HW259175   2.239   2.899   2.815 -0.1111 -3.0010  0.2602
15568SOL     OW59176   6.577   5.022   7.834  0.2474  0.1310 -0.2678
15568SOL    HW159177   6.523   5.074   7.767 -0.6016  0.7464  0.8819
15568SOL    HW259178   6.521   4.947   7.870  1.4346 -1.5860 -1.8624
15569SOL     OW59179   7.681   7.688   0.535 -0.2643  0.0970 -0.3859
15569SOL    HW159180   7.614   7.753   0.498 -1.1731  0.4406  1.7868
15569SOL    HW259181   7.646   7.595   0.525  0.2063  0.0546 -1.7897
15570SOL     OW59182   7.150   5.827   7.687 -0.3078  0.3038  0.4152
15570SOL    HW159183   7.213   5.905   7.684 -0.3204  0.3425  1.1171
15570SOL    HW259184   7.150   5.787   7.778  1.2096 -1.8001 -0.4927
15571SOL     OW59185   1.117   4.060   7.987 -0.2460  0.4154 -0.1361
15571SOL    HW159186   1.029   4.028   7.950  0.5227 -1.5908 -0.3113
15571SOL    HW259187   1.161   3.986   8.037  0.7580  1.8039  1.0738
15572SOL     OW59188   8.099   0.888   3.228 -0.3202 -0.3237  0.0436
15572SOL    HW159189   8.059   0.833   3.155  1.8569  0.0985 -1.5196
15572SOL    HW259190   8.081   0.985   3.211  1.0401 -0.1573 -0.4754
15573SOL     OW59191   3.538   0.675   1.656 -0.6905 -0.2579 -0.6765
15573SOL    HW159192   3.623   0.708   1.698 -0.9853 -0.4708  0.0991
15573SOL    HW259193   3.460   0.719   1.701 -0.9763  0.3323 -1.7397
15574SOL     OW59194   7.875   3.802   3.074  0.0825 -0.3452 -0.2114
15574SOL    HW159195   7.972   3.821   3.091  0.2609 -2.1439  0.9786
15574SOL    HW259196   7.820   3.838   3.150 -0.2985  1.5606 -1.3724
15575SOL     OW59197   2.643   6.159   7.266 -0.7623 -0.1877 -0.4545
15575SOL    HW159198   2.721   6.195   7.318  0.5054 -0.8773 -1.8337
15575SOL    HW259199   2.569   6.225   7.267 -1.1102 -0.5834  3.0033
15576SOL     OW59200   4.171   4.503   8.271  0.1065 -0.1731 -0.7219
15576SOL    HW159201   4.190   4.516   8.174  3.2158 -0.6942 -0.2591
15576SOL    HW259202   4.255   4.518   8.323 -1.8334  1.5914  2.0694
15577SOL     OW59203   0.942   8.606   1.404 -0.0473  0.4408 -0.0735
15577SOL    HW159204   0.917   8.621   1.499  0.2132  2.3609 -0.2960
15577SOL    HW259205   0.897   8.523   1.370  0.5994 -0.7657  1.9770
15578SOL     OW59206   7.761   6.915   5.389 -0.5167  0.6642 -0.3193
15578SOL    HW159207   7.777   7.013   5.377  3.4853  0.4537  2.3010
15578SOL    HW259208   7.781   6.867   5.304  2.0333  1.7112 -0.3527
15579SOL     OW59209   8.322   6.464   7.511  0.0435 -0.5580 -0.8233
15579SOL    HW159210   8.344   6.369   7.489  1.0243  0.0451 -2.5503
15579SOL    HW259211   8.224   6.479   7.496 -0.0278 -1.1561 -1.0009
15580SOL     OW59212   4.474   5.838   2.851 -0.1185  0.3695  0.0724
15580SOL    HW159213   4.565   5.799   2.862 -1.1338 -1.9632  0.4942
15580SOL    HW259214   4.479   5.920   2.793  2.2260  0.2940  0.1421
15581SOL     OW59215   8.080   5.790   5.489 -0.2816  0.1504  0.1884
15581SOL    HW159216   8.133   5.707   5.510  0.0556 -0.5865 -3.3331
15581SOL    HW259217   8.141   5.859   5.449 -0.7961  1.7055  2.0280
15582SOL     OW59218   5.713   2.928   3.513  0.0316 -0.5111  0.2563
15582SOL    HW159219   5.641   2.964   3.573 -0.7437 -0.5812 -0.6235
15582SOL    HW259220   5.778   3.001   3.492 -1.5780  0.4464 -1.5899
15583SOL     OW59221   3.169   1.198   2.211  0.5012  0.1939  0.0381
15583SOL    HW159222   3.132   1.252   2.286  1.0776 -0.4878  0.8252
15583SOL    HW259223   3.113   1.211   2.130 -0.2212  0.8128  0.6266
15584SOL     OW59224   5.304   6.687   0.770 -0.2309 -0.4796  0.4254
15584SOL    HW159225   5.392   6.730   0.788  0.2570 -0.8053 -1.1173
15584SOL    HW259226   5.231   6.755   0.777  0.2415 -0.0078  0.7434
15585SOL     OW59227   0.184   4.257   8.115 -0.8134  0.4483  0.1659
15585SOL    HW159228   0.136   4.294   8.195 -1.0004 -1.7963  1.1352
15585SOL    HW259229   0.280   4.243   8.136 -0.5676  1.1657 -0.4644
15586SOL     OW59230   7.377   3.857   3.657 -0.0847  0.3259 -0.6479
15586SOL    HW159231   7.290   3.808   3.658  0.1637 -0.2842  4.1059
15586SOL    HW259232   7.452   3.791   3.656  0.2411  0.5378  2.7333
15587SOL     OW59233   5.786   2.599   2.377 -0.6099  0.2284  0.1728
15587SOL    HW159234   5.740   2.688   2.386  1.2255  1.2583 -0.4903
15587SOL    HW259235   5.824   2.590   2.286  3.7798  1.0081  1.8186
15588SOL     OW59236   2.531   3.919   2.459 -1.1212 -0.0288 -0.0747
15588SOL    HW159237   2.536   3.829   2.415 -1.5522 -0.5308  0.8995
15588SOL    HW259238   2.441   3.959   2.442 -0.5581  0.7129 -1.4387
15589SOL     OW59239   1.201   2.884   0.201  0.3971  0.4707 -0.0739
15589SOL    HW159240   1.146   2.890   0.284 -1.9233 -0.2582 -1.5232
15589SOL    HW259241   1.202   2.973   0.155  1.4680  0.8053  0.5721
15590SOL     OW59242   3.651   8.187   4.852  0.1109 -0.4902 -0.7813
15590SOL    HW159243   3.686   8.259   4.912  0.3385 -1.5820  0.3940
15590SOL    HW259244   3.552   8.200   4.840 -0.5248 -2.0523  2.3461
15591SOL     OW59245   2.270   2.240   4.651 -0.4377 -0.2623  0.6680
15591SOL    HW159246   2.252   2.179   4.574 -1.4705 -1.4667  1.8581
15591SOL    HW259247   2.191   2.243   4.711  0.6777 -0.0207  2.1573
15592SOL     OW59248   1.300   0.354   6.866 -0.5438 -0.3442  0.2643
15592SOL    HW159249   1.226   0.399   6.916 -1.3751 -2.2507  0.7983
15592SOL    HW259250   1.269   0.263   6.836  0.8168 -0.2457 -1.4928
15593SOL     OW59251   8.049   7.320   0.884  0.1617 -0.1440 -0.1686
15593SOL    HW159252   8.088   7.328   0.976  2.7830  3.2401 -1.4160
15593SOL    HW259253   8.120   7.343   0.817 -2.6829  1.1962 -2.8230
15594SOL     OW59254   1.411   0.183   3.257  0.5002  0.0363  0.5282
15594SOL    HW159255   1.485   0.184   3.325  0.2477  0.2298  0.8018
15594SOL    HW259256   1.449   0.201   3.166  0.9319 -0.8915  0.5267
15595SOL     OW59257   8.690   6.385   2.734  0.2522 -0.2294 -0.2118
15595SOL    HW159258   8.729   6.476   2.746 -1.3472  0.5665 -0.9035
15595SOL    HW259259   8.752   6.317   2.773  1.8922  1.0647 -0.5038
15596SOL     OW59260   3.999   5.967   2.163  0.4189  0.6293 -0.1026
15596SOL    HW159261   4.083   5.959   2.109  0.7988  1.0375  0.4269
15596SOL    HW259262   3.953   6.052   2.140  0.1567  0.4162 -0.3768
15597SOL     OW59263   1.185   8.062   0.384  1.1001 -0.9807  0.7243
15597SOL    HW159264   1.219   8.138   0.440 -0.2042  0.4197 -0.3382
15597SOL    HW259265   1.251   8.042   0.312 -0.1258  1.5390 -1.1617
15598SOL     OW59266   1.357   8.055   8.394 -0.2370  0.4103 -0.4420
15598SOL    HW159267   1.393   8.113   8.467  0.7042 -1.3129  0.5069
15598SOL    HW259268   1.409   8.071   8.310  0.7360  0.1492  0.1074
15599SOL     OW59269   6.814   7.030   1.480  0.2400 -0.3538 -0.9568
15599SOL    HW159270   6.746   7.040   1.407 -0.0474  1.5256 -0.4511
15599SOL    HW259271   6.850   7.119   1.504 -0.8181 -0.7376  2.3178
15600SOL     OW59272   5.540   6.697   1.473  0.1351  0.7222  0.0653
15600SOL    HW159273   5.484   6.756   1.531 -0.0713  0.2958  0.2982
15600SOL    HW259274   5.636   6.718   1.487  0.0091  1.9157 -0.8234
15601SOL     OW59275   7.017   6.441   1.111 -0.0797 -0.6995 -0.1396
15601SOL    HW159276   7.019   6.479   1.019 -1.8555 -0.4120 -0.0761
15601SOL    HW259277   7.105   6.456   1.155  0.9348 -1.2115 -1.9282
15602SOL     OW59278   2.866   3.382   7.869 -0.1042 -0.5284 -0.2002
15602SOL    HW159279   2.818   3.337   7.794  0.9265 -1.7716 -0.1325
15602SOL    HW259280   2.867   3.481   7.853 -2.3609 -0.5047 -0.3667
15603SOL     OW59281   8.052   7.490   8.719  0.1423 -0.3299 -0.4281
15603SOL    HW159282   7.968   7.473   8.668  0.1875 -1.1765 -0.2205
15603SOL    HW259283   8.131   7.463   8.664  0.1902 -1.2689  0.0980
15604SOL     OW59284   7.170   3.994   1.995 -0.4408 -0.4132  0.2168
15604SOL    HW159285   7.232   3.917   1.978 -1.8768 -1.0606 -2.1547
15604SOL    HW259286   7.112   3.973   2.074 -0.2611 -1.4087  0.0883
15605SOL     OW59287   5.301   0.736   8.872 -0.4757 -0.0562 -0.3340
15605SOL    HW159288   5.252   0.738   8.785  0.6301 -1.0774 -1.0032
15605SOL    HW259289   5.244   0.776   8.944 -1.1420  1.3740 -1.6442
15606SOL     OW59290   2.875   3.565   5.572 -0.7679 -0.1490  0.4638
15606SOL    HW159291   2.826   3.501   5.631 -0.6330 -0.8089 -0.1323
15606SOL    HW259292   2.967   3.530   5.554 -1.2188 -0.5279 -1.0937
15607SOL     OW59293   2.973   0.420   2.195 -0.2223 -0.4519 -0.3032
15607SOL    HW159294   2.975   0.497   2.259 -0.5818 -0.9343  0.2856
15607SOL    HW259295   2.891   0.366   2.210 -0.3862 -0.4936 -1.2691
15608SOL     OW59296   2.680   7.057   1.593  0.0092  0.0915 -0.0735
15608SOL    HW159297   2.645   7.096   1.508 -1.7603 -2.7541 -0.7523
15608SOL    HW259298   2.708   6.962   1.576  2.8815  0.5623  1.7790
15609SOL     OW59299   0.980   0.759   0.839  0.4298 -0.6349 -0.0992
15609SOL    HW159300   0.897   0.765   0.784  0.4445 -1.4927 -0.2241
15609SOL    HW259301   0.965   0.695   0.914  1.0487 -0.9720 -0.2599
15610SOL     OW59302   2.306   0.258   1.397  0.0843  0.0854  0.3790
15610SOL    HW159303   2.397   0.291   1.421 -0.0935  0.5915  0.3449
15610SOL    HW259304   2.269   0.311   1.322 -0.6006  0.4537  0.9700
15611SOL     OW59305   6.112   3.698   3.436  0.0163  0.4932 -0.5091
15611SOL    HW159306   6.143   3.606   3.460 -1.8508  0.5242  2.3028
15611SOL    HW259307   6.189   3.751   3.400  0.8875 -2.4095 -3.0703
15612SOL     OW59308   1.568   5.072   2.317  0.6694  0.2528  0.0150
15612SOL    HW159309   1.531   5.000   2.375  0.6624  0.6387  0.4953
15612SOL    HW259310   1.599   5.149   2.374 -1.2904  1.5329 -0.5702
15613SOL     OW59311   0.914   0.395   6.777 -0.5086  0.5479 -0.0615
15613SOL    HW159312   0.900   0.300   6.752  0.9444 -0.4712  2.7118
15613SOL    HW259313   0.827   0.444   6.773 -1.1896 -0.7606 -1.9241
15614SOL     OW59314   1.316   2.263   8.045 -0.5160  0.1762  0.8455
15614SOL    HW159315   1.255   2.326   7.998 -1.6561  0.7650  3.0179
15614SOL    HW259316   1.391   2.314   8.088 -0.1724 -0.2064  0.7052
15615SOL     OW59317   8.580   2.470   6.363 -0.4206  0.9294 -0.1444
15615SOL    HW159318   8.629   2.481   6.277  0.4562  0.2052  0.2487
15615SOL    HW259319   8.564   2.559   6.405  0.2112  1.2014 -0.4753
15616SOL     OW59320   5.296   3.095   1.944 -0.4159  0.6923  0.6994
15616SOL    HW159321   5.364   3.068   1.876 -0.9417 -1.5127  0.9789
15616SOL    HW259322   5.205   3.065   1.915 -0.7125  0.1356  2.1225
15617SOL     OW59323   2.149   0.384   4.481  0.1743  0.1239 -0.1144
15617SOL    HW159324   2.168   0.460   4.543  0.1562 -0.7019  0.9077
15617SOL    HW259325   2.085   0.321   4.524  0.7342 -0.8400 -0.6781
15618SOL     OW59326   4.191   6.366   1.649  0.0842 -0.0044 -0.3995
15618SOL    HW159327   4.249   6.420   1.588 -0.1498  0.7672  0.0496
15618SOL    HW259328   4.226   6.273   1.656 -0.1625 -0.2453 -2.1083
15619SOL     OW59329   5.139   1.050   8.677  0.5017  0.5654  0.0595
15619SOL    HW159330   5.148   1.111   8.598  0.4654 -1.3187 -1.4231
15619SOL    HW259331   5.214   0.985   8.678 -0.9013 -1.1020  0.0768
15620SOL     OW59332   8.222   5.633   3.072 -0.6182 -0.0702 -0.2904
15620SOL    HW159333   8.149   5.685   3.028  0.1917 -0.7866 -2.5712
15620SOL    HW259334   8.202   5.536   3.064 -0.9840 -0.1831  1.9101
15621SOL     OW59335   2.918   0.051   0.162  0.6080  1.3428 -0.3832
15621SOL    HW159336   2.877   0.040   0.252  3.3495 -1.1301  0.6622
15621SOL    HW259337   3.015   0.071   0.172  1.3368 -0.7521 -2.7375
15622SOL     OW59338   7.202   6.057   5.189  0.3938  0.3344  0.2322
15622SOL    HW159339   7.218   5.971   5.237 -1.7080  0.5705  1.3884
15622SOL    HW259340   7.105   6.069   5.172  0.9725  0.9029 -2.9512
15623SOL     OW59341   8.886   4.197   1.792 -0.1068 -0.3953  0.2042
15623SOL    HW159342   8.944   4.268   1.832 -0.6836 -1.2956  2.7417
15623SOL    HW259343   8.938   4.111   1.785  0.2189 -0.0503 -1.7053
15624SOL     OW59344   3.349   8.245   4.850 -0.1803 -0.5669  0.2876
15624SOL    HW159345   3.345   8.294   4.937  0.2945 -0.4478  0.2406
15624SOL    HW259346   3.295   8.161   4.858 -0.3041 -0.4595  0.6328
15625SOL     OW59347   2.450   4.253   0.136  0.4765 -0.2183  0.1889
15625SOL    HW159348   2.394   4.283   0.213 -0.6886 -0.0747 -0.6934
15625SOL    HW259349   2.480   4.158   0.151 -0.4522 -0.4821  0.4340
15626SOL     OW59350   1.157   3.288   8.370  0.0246 -0.2576  0.6672
15626SOL    HW159351   1.081   3.350   8.347 -0.0637 -0.4427  0.4613
15626SOL    HW259352   1.193   3.313   8.460 -0.3589 -0.2454  0.8215
15627SOL     OW59353   2.556   2.162   6.815  0.6783 -0.3857  0.4500
15627SOL    HW159354   2.509   2.245   6.785 -0.5696 -0.8021  1.2193
15627SOL    HW259355   2.572   2.167   6.914 -0.2489 -1.4631  0.6676
15628SOL     OW59356   0.962   8.291   3.085 -0.4937 -0.3293 -0.0244
15628SOL    HW159357   0.995   8.362   3.147  0.6272 -1.3330  0.5476
15628SOL    HW259358   1.037   8.229   3.062 -0.5515  0.7626 -3.4106
15629SOL     OW59359   3.934   4.076   1.119 -0.0498 -0.3599 -0.1123
15629SOL    HW159360   3.990   3.996   1.093  0.2417 -0.1348 -0.1823
15629SOL    HW259361   3.856   4.083   1.057 -0.3985 -0.9307  0.2579
15630SOL     OW59362   3.626   7.360   6.202  0.1674 -0.0736  0.0943
15630SOL    HW159363   3.670   7.271   6.193 -0.8249 -0.5043 -0.5293
15630SOL    HW259364   3.680   7.417   6.264  1.0901 -0.9179  0.0839
15631SOL     OW59365   6.674   6.450   5.276  0.4831 -0.5720 -0.1006
15631SOL    HW159366   6.714   6.488   5.359 -0.1040 -1.9942  0.8555
15631SOL    HW259367   6.591   6.501   5.252  2.2518  1.7524 -1.5297
15632SOL     OW59368   1.036   5.618   1.663 -0.0339  0.0760  0.1676
15632SOL    HW159369   1.009   5.566   1.582 -1.9589 -0.8473  1.3578
15632SOL    HW259370   1.111   5.570   1.709 -0.8449 -0.9341  0.4720
15633SOL     OW59371   6.117   2.955   8.816  0.1499  0.3035 -0.5262
15633SOL    HW159372   6.145   3.012   8.893  0.7085 -0.0291 -0.4779
15633SOL    HW259373   6.091   3.013   8.739  1.9499  0.6193 -0.9141
15634SOL     OW59374   0.754   3.327   0.377  0.0786  0.9039  0.1057
15634SOL    HW159375   0.720   3.395   0.442  1.1670  0.4425  1.1530
15634SOL    HW259376   0.838   3.286   0.411 -0.7700 -1.2670 -0.3344
15635SOL     OW59377   4.316   7.629   1.379 -0.3183 -0.6127 -0.1343
15635SOL    HW159378   4.382   7.618   1.305  0.8762 -0.0096  0.8197
15635SOL    HW259379   4.224   7.640   1.341  0.1816 -1.0010 -1.4904
15636SOL     OW59380   8.984   5.523   6.982  0.6638  0.4554 -0.1803
15636SOL    HW159381   9.065   5.505   6.926  0.2846 -0.2786 -0.5099
15636SOL    HW259382   9.003   5.497   7.077  0.3884 -1.0185 -0.5046
15637SOL     OW59383   5.659   8.000   0.832  0.0486  0.0239 -0.0315
15637SOL    HW159384   5.618   7.981   0.743 -0.6178 -2.3945  0.7307
15637SOL    HW259385   5.744   8.051   0.821 -1.0538  1.4878 -1.9125
15638SOL     OW59386   7.170   1.699   8.247  0.5982 -0.4448  0.1448
15638SOL    HW159387   7.141   1.695   8.151  0.8942 -0.2928  0.0481
15638SOL    HW259388   7.140   1.786   8.286  0.8056 -0.3442  0.0820
15639SOL     OW59389   4.595   8.136   8.561 -0.0397  0.6100  0.4224
15639SOL    HW159390   4.604   8.088   8.648  2.6514  1.5309  0.6861
15639SOL    HW259391   4.610   8.233   8.574  1.7144  0.5978 -1.2658
15640SOL     OW59392   1.275   3.185   5.796  0.1705  0.1289 -0.1236
15640SOL    HW159393   1.352   3.172   5.859  0.2134  0.9220 -0.0142
15640SOL    HW259394   1.253   3.282   5.789 -0.2466 -0.0160 -0.8502
15641SOL     OW59395   8.235   4.667   7.302  0.0880 -0.1288  0.1311
15641SOL    HW159396   8.157   4.604   7.298  0.5210 -0.5925 -1.3015
15641SOL    HW259397   8.207   4.757   7.270 -0.1682  0.0128  0.7648
15642SOL     OW59398   2.482   7.164   7.100  0.5968  0.2004  0.0180
15642SOL    HW159399   2.555   7.164   7.169  1.8564  2.4460 -1.2669
15642SOL    HW259400   2.476   7.254   7.058 -1.4622 -0.5964 -1.4791
15643SOL     OW59401   6.997   1.762   2.685  0.1055  0.0613 -0.2094
15643SOL    HW159402   6.946   1.764   2.771  2.9562  1.3163  1.5115
15643SOL    HW259403   6.933   1.773   2.609 -2.3743 -0.1767  1.7515
15644SOL     OW59404   6.669   6.281   7.891  0.2570  0.2870 -0.5065
15644SOL    HW159405   6.574   6.263   7.865  0.5181 -1.9029 -0.0629
15644SOL    HW259406   6.680   6.267   7.989  1.2282 -0.3533 -0.7016
15645SOL     OW59407   6.314   6.112   8.105  0.7360 -0.3145  0.4749
15645SOL    HW159408   6.249   6.080   8.174  1.5672 -1.4737  0.7309
15645SOL    HW259409   6.329   6.040   8.037 -0.1597  0.8544 -0.9908
15646SOL     OW59410   4.518   2.039   7.406 -0.0688  0.1526  0.0440
15646SOL    HW159411   4.516   2.101   7.485 -1.9212 -0.9402  0.8813
15646SOL    HW259412   4.613   2.026   7.377  0.5174  1.7233  1.1595
15647SOL     OW59413   2.371   4.331   3.866 -0.5290 -0.5621  0.3841
15647SOL    HW159414   2.439   4.260   3.883  0.3409  0.6324  1.9696
15647SOL    HW259415   2.367   4.351   3.768  0.2074 -1.8169  0.1014
15648SOL     OW59416   6.843   2.925   6.065 -0.3265  0.2216  0.3212
15648SOL    HW159417   6.938   2.950   6.045 -0.5063  2.3311  1.9060
15648SOL    HW259418   6.834   2.905   6.162 -1.3532 -0.7614  0.0312
15649SOL     OW59419   3.193   5.406   8.596  0.2089 -0.1054 -0.3557
15649SOL    HW159420   3.159   5.316   8.570 -0.5815 -0.1612  0.8405
15649SOL    HW259421   3.208   5.409   8.695  0.9746  0.8302 -0.4910
15650SOL     OW59422   1.141   4.332   3.991  0.1017 -0.1394 -0.0838
15650SOL    HW159423   1.173   4.292   3.905  1.1016 -1.1396  0.7438
15650SOL    HW259424   1.164   4.271   4.067 -0.6492  0.8043  0.9165
15651SOL     OW59425   1.017   4.560   8.052 -0.3625  0.1067  0.5794
15651SOL    HW159426   0.961   4.535   8.132  2.0530  1.9772  2.9580
15651SOL    HW259427   1.073   4.483   8.025  0.2961  0.0485  2.0321
15652SOL     OW59428   2.545   3.029   7.044 -0.2305  0.1894  0.1270
15652SOL    HW159429   2.644   3.016   7.040  0.1413  1.4685  3.6123
15652SOL    HW259430   2.500   2.940   7.035  1.2658 -0.5147 -0.5715
15653SOL     OW59431   3.059   4.308   0.765 -0.2700  0.3463  0.1808
15653SOL    HW159432   3.000   4.228   0.753  0.7577 -0.6176  1.4575
15653SOL    HW259433   3.003   4.389   0.781 -1.2729 -0.4694  0.8592
15654SOL     OW59434   5.885   6.577   3.896 -0.3055  0.0577  0.1196
15654SOL    HW159435   5.917   6.632   3.820 -0.1768 -0.4230 -0.1770
15654SOL    HW259436   5.887   6.631   3.980  1.8552 -0.1530  0.2235
15655SOL     OW59437   5.153   3.597   2.737 -0.2512 -0.0393  0.0573
15655SOL    HW159438   5.091   3.655   2.790 -2.2303 -0.9492 -1.1906
15655SOL    HW259439   5.146   3.503   2.769  0.3083 -0.1871 -0.2547
15656SOL     OW59440   8.040   6.403   7.491 -0.1179 -0.1718  0.0596
15656SOL    HW159441   7.949   6.442   7.501 -0.0663  0.4403 -1.7131
15656SOL    HW259442   8.032   6.305   7.471 -0.4560  0.1936 -1.6734
15657SOL     OW59443   2.372   0.675   7.544  0.1471  0.4340 -0.2246
15657SOL    HW159444   2.339   0.591   7.500 -2.5955  1.3512 -0.0236
15657SOL    HW259445   2.418   0.733   7.477 -1.2349  0.4150 -1.1925
15658SOL     OW59446   2.487   8.612   1.477  0.0948  0.8643 -0.3254
15658SOL    HW159447   2.484   8.579   1.383  1.1046 -4.4724  1.3728
15658SOL    HW259448   2.395   8.639   1.506 -0.7308 -0.2061 -1.9170
15659SOL     OW59449   7.371   4.163   5.337 -0.1507  0.1808 -0.2713
15659SOL    HW159450   7.454   4.217   5.352 -0.8174  1.6111 -1.6513
15659SOL    HW259451   7.290   4.219   5.355 -0.8380 -1.0716  0.6209
15660SOL     OW59452   0.407   4.797   1.943  0.2987 -0.1357  0.3910
15660SOL    HW159453   0.316   4.775   1.978  0.3646  0.4180  0.9094
15660SOL    HW259454   0.444   4.717   1.896 -0.4063 -0.4010  0.2747
15661SOL     OW59455   0.783   4.427   1.778  0.1108  0.3621 -0.0426
15661SOL    HW159456   0.855   4.401   1.841 -0.3538  0.6238  0.6047
15661SOL    HW259457   0.793   4.523   1.752 -0.9028  0.8495  1.2914
15662SOL     OW59458   7.502   0.737   6.804  0.2482 -0.1871  0.1548
15662SOL    HW159459   7.466   0.655   6.759  0.2458  0.4056 -0.9556
15662SOL    HW259460   7.601   0.730   6.814  0.3935  0.1147 -0.9219
15663SOL     OW59461   0.468   1.373   5.513  0.1876 -0.4732 -0.4915
15663SOL    HW159462   0.416   1.433   5.573  1.1195  0.8009 -0.9402
15663SOL    HW259463   0.417   1.358   5.429  0.3215  0.3872 -0.7314
15664SOL     OW59464   5.048   6.966   1.441  0.2880 -0.3054 -0.6827
15664SOL    HW159465   5.124   6.946   1.502 -0.1137  0.9912  0.2511
15664SOL    HW259466   4.998   6.881   1.421  1.8235 -1.1244 -1.1208
15665SOL     OW59467   1.404   1.764   1.963 -0.3640  0.2221 -0.0060
15665SOL    HW159468   1.449   1.792   1.878  0.4113  0.3404  0.4367
15665SOL    HW259469   1.314   1.725   1.942  1.1096 -2.7279 -1.1949
15666SOL     OW59470   0.189   8.426   7.998  0.0413  0.3067  0.1890
15666SOL    HW159471   0.109   8.369   7.981  0.5115 -0.5545  0.8122
15666SOL    HW259472   0.164   8.522   7.992 -1.3229  0.0582  1.7457
15667SOL     OW59473   3.698   7.326   3.868 -0.3506 -0.1645  0.2091
15667SOL    HW159474   3.695   7.260   3.793 -0.3978 -1.5811  1.4459
15667SOL    HW259475   3.657   7.286   3.950  2.1401  0.3777  1.7710
15668SOL     OW59476   8.065   3.396   1.687 -0.1575 -0.4368 -0.3864
15668SOL    HW159477   8.117   3.311   1.689 -0.0063 -0.4308 -2.4204
15668SOL    HW259478   8.037   3.415   1.592 -1.2680  1.1189  0.2336
15669SOL     OW59479   1.977   8.933   1.057 -0.2963 -0.2332  0.0426
15669SOL    HW159480   2.032   9.007   1.094  0.8275  0.4211 -2.8702
15669SOL    HW259481   1.913   8.969   0.989 -1.2503 -1.6259  0.1746
15670SOL     OW59482   1.360   4.266   0.333 -0.8165 -0.1136  0.2825
15670SOL    HW159483   1.377   4.252   0.430  0.0044 -1.1227 -0.0017
15670SOL    HW259484   1.324   4.358   0.318 -0.0669  0.3674  1.4299
15671SOL     OW59485   7.890   6.099   4.430  0.3363  0.0250  0.0877
15671SOL    HW159486   7.913   6.038   4.354 -1.6796 -1.7337  0.8585
15671SOL    HW259487   7.819   6.163   4.400  0.6019  0.3161  0.0696
15672SOL     OW59488   7.144   2.952   7.527  0.3164 -0.4762 -0.4105
15672SOL    HW159489   7.067   2.893   7.550  1.0156 -1.6668 -1.0444
15672SOL    HW259490   7.195   2.912   7.450  2.1436 -0.2525  0.6464
15673SOL     OW59491   2.277   0.050   0.610 -0.2645 -0.0376 -0.1498
15673SOL    HW159492   2.200   0.092   0.561 -1.2983 -1.1890  0.4723
15673SOL    HW259493   2.262  -0.049   0.618  1.5942 -0.3869 -0.5952
15674SOL     OW59494   4.572   7.030   6.635  0.1268  0.5810  0.4608
15674SOL    HW159495   4.557   7.129   6.643 -1.2894  0.3591  0.6645
15674SOL    HW259496   4.651   7.014   6.576 -0.7258  1.8046 -1.0808
15675SOL     OW59497   7.882   5.192   8.679  0.0891  0.7863 -0.2915
15675SOL    HW159498   7.955   5.165   8.741  1.0054  1.6994 -0.9631
15675SOL    HW259499   7.814   5.246   8.730  0.7213  1.3388 -0.0244
15676SOL     OW59500   6.422   4.110   1.445 -0.2867  0.4785 -0.1481
15676SOL    HW159501   6.521   4.104   1.435 -0.1950 -1.1817  1.6101
15676SOL    HW259502   6.399   4.186   1.507  0.0419 -0.7448  1.5116
15677SOL     OW59503   0.471   5.052   4.814  0.3726  0.0663 -0.2854
15677SOL    HW159504   0.566   5.082   4.802 -0.0786  1.7418  0.3353
15677SOL    HW259505   0.414   5.130   4.838 -0.7952 -1.2997  1.4808
15678SOL     OW59506   3.694   4.752   8.025 -0.0405 -0.0579  0.2030
15678SOL    HW159507   3.637   4.833   8.033  1.7522  1.2953 -0.3358
15678SOL    HW259508   3.764   4.753   8.096  2.1522  0.7034 -1.8757
15679SOL     OW59509   0.531   5.813   5.009  0.2970  0.5488  0.3941
15679SOL    HW159510   0.628   5.790   4.998  0.1528 -0.6665  1.4379
15679SOL    HW259511   0.517   5.855   5.098 -0.2357  0.0522  0.5538
15680SOL     OW59512   8.850   1.958   4.959 -0.3534 -0.0354  0.0784
15680SOL    HW159513   8.935   1.947   5.010 -1.0228 -0.7663  1.0620
15680SOL    HW259514   8.830   1.874   4.908 -0.3028  0.2627 -0.4365
15681SOL     OW59515   0.206   2.389   2.524 -0.7294 -0.7757  0.0471
15681SOL    HW159516   0.142   2.312   2.523 -0.3227 -1.1030 -0.4230
15681SOL    HW259517   0.252   2.393   2.613 -0.0478 -1.6501 -0.2584
15682SOL     OW59518   4.574   0.876   6.791  0.4540  0.2112 -0.6032
15682SOL    HW159519   4.479   0.873   6.822  0.6928  3.3510  0.5916
15682SOL    HW259520   4.634   0.845   6.866  0.5767  1.2178 -0.2845
15683SOL     OW59521   2.235   3.513   3.092 -0.8923  0.1144 -0.4584
15683SOL    HW159522   2.308   3.561   3.141 -1.1186  0.2605 -0.2632
15683SOL    HW259523   2.154   3.571   3.087 -0.8157  0.1645 -1.1597
15684SOL     OW59524   6.590   1.201   0.590  0.4081  0.0381 -0.1518
15684SOL    HW159525   6.622   1.108   0.571  1.9028  0.7156 -1.0950
15684SOL    HW259526   6.655   1.266   0.552  0.0176  1.4784  1.5735
15685SOL     OW59527   0.280   1.533   4.507 -0.3529 -0.1995  0.0188
15685SOL    HW159528   0.243   1.440   4.513 -0.1050 -0.2611  0.7636
15685SOL    HW259529   0.379   1.527   4.494  0.0649 -0.0671  2.8291
15686SOL     OW59530   2.223   7.181   1.051  0.3881 -0.5773 -0.2151
15686SOL    HW159531   2.186   7.094   1.082  0.6104 -0.0061  1.6927
15686SOL    HW259532   2.151   7.235   1.007 -0.3760 -0.6545  0.9312
15687SOL     OW59533   3.826   8.761   0.515  0.2630  1.0331 -0.0786
15687SOL    HW159534   3.912   8.775   0.563  0.6461  4.1004 -1.5757
15687SOL    HW259535   3.789   8.848   0.485 -1.4261 -0.5337 -2.8037
15688SOL     OW59536   4.060   8.591   5.575  0.5669 -0.3141 -0.1907
15688SOL    HW159537   4.115   8.533   5.634 -0.1301 -1.7556 -0.9204
15688SOL    HW259538   3.970   8.549   5.561  0.4418  0.3819 -1.6207
15689SOL     OW59539   6.684   2.685   8.772  0.6809 -0.3253 -0.5516
15689SOL    HW159540   6.683   2.640   8.862  0.7905  1.3521  0.3187
15689SOL    HW259541   6.617   2.643   8.712  0.1672 -1.0633  0.5368
15690SOL     OW59542   5.393   6.026   4.031  0.2105  0.3672  0.1934
15690SOL    HW159543   5.355   5.937   4.059  0.9990  0.4538  1.5951
15690SOL    HW259544   5.491   6.029   4.052  0.4928  1.0395 -1.1833
15691SOL     OW59545   8.703   4.624   0.340 -0.9581 -0.6494  0.3414
15691SOL    HW159546   8.698   4.530   0.306  0.1408  0.4207 -3.0223
15691SOL    HW259547   8.799   4.649   0.355 -1.1332  0.3999 -0.2411
15692SOL     OW59548   1.697   6.034   5.003 -0.6554 -0.4139  0.4527
15692SOL    HW159549   1.599   6.048   4.988 -1.4256 -2.2758  3.1146
15692SOL    HW259550   1.738   5.992   4.922 -2.1445  0.0653 -0.5648
15693SOL     OW59551   1.783   1.864   8.579  0.0080  0.3740 -0.2037
15693SOL    HW159552   1.829   1.872   8.490  0.4356  0.8083  0.0536
15693SOL    HW259553   1.826   1.792   8.633  0.2352  0.6153 -0.0586
15694SOL     OW59554   5.430   7.348   7.415  0.3390  0.3813  0.0105
15694SOL    HW159555   5.420   7.443   7.443  1.2384  0.9696 -1.6534
15694SOL    HW259556   5.412   7.288   7.494 -0.7383  1.8917  0.9292
15695SOL     OW59557   4.833   4.299   3.642 -0.4725 -0.6469 -0.0001
15695SOL    HW159558   4.887   4.367   3.691 -1.2553  0.3365 -0.4771
15695SOL    HW259559   4.856   4.303   3.545 -2.1837  0.5723 -0.3864
15696SOL     OW59560   1.135   6.586   8.269 -0.4533 -0.0502 -0.6378
15696SOL    HW159561   1.191   6.539   8.200 -1.5078 -0.6290 -1.1067
15696SOL    HW259562   1.065   6.641   8.223 -2.4310 -1.9778 -0.0469
15697SOL     OW59563   4.919   3.827   4.623  0.3851 -0.0019 -0.1257
15697SOL    HW159564   4.911   3.799   4.527 -1.6518 -0.6856  0.2063
15697SOL    HW259565   4.979   3.906   4.630  0.2055  0.3320 -2.0297
15698SOL     OW59566   4.246   6.505   2.044 -0.3861  0.0212  0.5789
15698SOL    HW159567   4.316   6.567   2.010 -0.0491 -0.2294  0.8119
15698SOL    HW259568   4.211   6.539   2.132  0.9265 -0.9405  1.5017
15699SOL     OW59569   7.267   2.322   0.561  0.7799 -0.0618 -0.1790
15699SOL    HW159570   7.262   2.286   0.653 -0.2331 -2.5240 -1.1602
15699SOL    HW259571   7.176   2.319   0.519  1.3487  0.3974 -1.4848
15700SOL     OW59572   1.730   0.718   6.967  0.1849 -0.3228 -0.8308
15700SOL    HW159573   1.641   0.762   6.964 -0.0470 -0.8561 -2.9953
15700SOL    HW259574   1.725   0.634   7.020 -0.1977  0.4786  0.4141
15701SOL     OW59575   5.066   1.896   0.126 -0.6577  0.1565  0.1456
15701SOL    HW159576   4.998   1.825   0.143  0.0265 -0.5730 -0.1389
15701SOL    HW259577   5.156   1.854   0.115  0.1883  1.2787  2.5835
15702SOL     OW59578   5.658   5.103   6.856  0.5092  0.1339  0.7107
15702SOL    HW159579   5.755   5.087   6.837  0.1813 -2.4375  1.0214
15702SOL    HW259580   5.603   5.031   6.813 -1.1795  0.9331  1.4790
15703SOL     OW59581   5.319   1.299   1.782  0.1209 -0.2876 -0.2673
15703SOL    HW159582   5.307   1.256   1.872  1.8467 -1.3758 -0.5336
15703SOL    HW259583   5.406   1.349   1.781 -0.5795  0.9162 -0.8674
15704SOL     OW59584   1.628   4.685   6.939 -0.3020  0.4778  0.4464
15704SOL    HW159585   1.627   4.781   6.967 -0.1196  0.9471 -1.0868
15704SOL    HW259586   1.556   4.636   6.988 -0.7713  1.5214  0.8304
15705SOL     OW59587   1.728   3.171   6.509  0.5353 -0.0525 -0.3188
15705SOL    HW159588   1.669   3.184   6.589  0.9629 -1.4903  0.2465
15705SOL    HW259589   1.729   3.074   6.485  3.3632 -0.1807  0.2121
15706SOL     OW59590   0.264   4.703   4.284 -0.1613  0.0582  0.1113
15706SOL    HW159591   0.231   4.684   4.376  1.1154 -0.3173  0.5124
15706SOL    HW259592   0.286   4.800   4.275 -1.6153  0.3552 -0.2426
15707SOL     OW59593   2.158   0.637   1.043  0.4156  0.0163 -0.0256
15707SOL    HW159594   2.233   0.622   1.107 -0.0114 -0.0087  0.4723
15707SOL    HW259595   2.189   0.615   0.951  0.8884 -0.4224  0.2295
15708SOL     OW59596   6.604   3.405   4.620 -0.1561  0.5281 -0.0228
15708SOL    HW159597   6.700   3.389   4.642  0.0255 -0.8849 -1.7125
15708SOL    HW259598   6.547   3.334   4.661 -0.1582 -0.2341 -1.3022
15709SOL     OW59599   1.228   6.766   1.741 -0.2550  0.2271 -0.2108
15709SOL    HW159600   1.261   6.803   1.653  1.1817 -0.9847 -0.2087
15709SOL    HW259601   1.162   6.829   1.781  0.9388  1.9919 -0.9778
15710SOL     OW59602   2.396   1.043   5.715 -0.3201 -0.3014  0.2047
15710SOL    HW159603   2.457   1.085   5.781  0.1139 -0.0611 -0.3411
15710SOL    HW259604   2.409   0.944   5.717 -1.1140 -0.3859  1.2650
15711SOL     OW59605   2.507   3.263   4.519  0.2346  0.4030 -0.6749
15711SOL    HW159606   2.471   3.322   4.447  0.1558  1.7217  0.4193
15711SOL    HW259607   2.607   3.259   4.512  0.0426 -1.9985 -2.7518
15712SOL     OW59608   1.276   8.736   7.867  0.1075  0.2784  0.0457
15712SOL    HW159609   1.281   8.798   7.788  0.4719  0.2882  0.0760
15712SOL    HW259610   1.187   8.747   7.912 -0.3096 -0.0992 -0.6684
15713SOL     OW59611   2.339   5.002   0.657 -0.3608  0.3015 -0.0220
15713SOL    HW159612   2.270   4.931   0.668  2.1152 -2.1365  0.3781
15713SOL    HW259613   2.344   5.058   0.739  0.2904 -1.5332  1.2203
15714SOL     OW59614   2.737   2.551   6.820 -0.3784 -1.1061 -0.2154
15714SOL    HW159615   2.742   2.612   6.899 -1.8232 -0.0663 -0.9050
15714SOL    HW259616   2.823   2.501   6.811  0.0217 -0.7934  1.6467
15715SOL     OW59617   7.828   1.350   0.512  0.1061  0.3160 -0.7277
15715SOL    HW159618   7.734   1.317   0.507  0.0938  0.1062  0.8543
15715SOL    HW259619   7.890   1.277   0.482 -0.1198 -0.1331 -0.1064
15716SOL     OW59620   3.003   4.423   1.917 -0.1930  0.5399 -0.1272
15716SOL    HW159621   3.066   4.500   1.918 -0.1407  0.4957 -0.0230
15716SOL    HW259622   3.055   4.338   1.922 -0.1815  0.4605 -1.4549
15717SOL     OW59623   8.072   5.463   0.619 -0.0477  0.3539 -1.0149
15717SOL    HW159624   8.085   5.423   0.709 -1.2584 -2.2705 -1.9556
15717SOL    HW259625   8.113   5.404   0.550 -1.5238  0.9287 -2.4268
15718SOL     OW59626   8.568   3.920   3.689  0.2612  0.4670  0.7257
15718SOL    HW159627   8.668   3.918   3.695  0.3589 -0.0884 -0.9676
15718SOL    HW259628   8.536   4.014   3.686  0.7812  0.6314  0.3832
15719SOL     OW59629   5.237   5.136   4.540  0.3067  0.1782  0.2204
15719SOL    HW159630   5.291   5.182   4.470  0.3279 -2.6632 -1.7072
15719SOL    HW259631   5.295   5.074   4.593 -0.4646 -0.6177  0.1535
15720SOL     OW59632   7.355   1.642   1.559 -0.4170 -0.4068  0.0706
15720SOL    HW159633   7.341   1.589   1.642 -0.8652 -0.9493 -0.3446
15720SOL    HW259634   7.399   1.584   1.490 -0.9689 -0.2651 -0.4041
15721SOL     OW59635   8.682   2.308   8.048 -0.7999 -0.1099 -0.7604
15721SOL    HW159636   8.607   2.313   8.114 -2.0265  0.1272 -2.1290
15721SOL    HW259637   8.646   2.325   7.956  0.7105 -1.3741 -1.6118
15722SOL     OW59638   4.529   3.788   1.557  0.1482 -0.5150 -0.0676
15722SOL    HW159639   4.624   3.777   1.525  0.3250  0.0678  0.2646
15722SOL    HW259640   4.485   3.698   1.558  1.0261 -0.9474  0.8099
15723SOL     OW59641   4.430   0.425   7.597  0.2225 -0.2053 -0.5143
15723SOL    HW159642   4.511   0.480   7.579  0.4305 -0.8003 -1.4461
15723SOL    HW259643   4.370   0.473   7.661  1.4795  0.0680  0.4647
15724SOL     OW59644   2.060   6.606   7.762 -0.1045 -0.3578 -0.2791
15724SOL    HW159645   2.026   6.675   7.698  0.2428 -0.4724 -0.5900
15724SOL    HW259646   1.993   6.532   7.771  0.3089 -0.8716 -1.3412
15725SOL     OW59647   5.869   0.890   7.249 -0.3522  0.0579 -0.4274
15725SOL    HW159648   5.803   0.929   7.313 -1.5867 -0.0423 -1.6193
15725SOL    HW259649   5.837   0.903   7.156  0.4553 -1.5785 -0.9572
15726SOL     OW59650   3.164   1.025   6.669  0.1116 -0.1314  0.2353
15726SOL    HW159651   3.156   1.100   6.604  1.4497 -0.4975 -0.3457
15726SOL    HW259652   3.246   1.037   6.724 -0.1200 -0.7342  0.7177
15727SOL     OW59653   1.147   3.264   2.200 -0.2798  0.2111 -0.0289
15727SOL    HW159654   1.186   3.250   2.109  1.1277 -0.7590  0.6956
15727SOL    HW259655   1.048   3.255   2.196 -0.0626 -2.1572 -1.0550
15728SOL     OW59656   8.600   2.397   4.777  0.1737  0.1391 -0.1286
15728SOL    HW159657   8.566   2.337   4.849 -1.5967 -0.1435 -1.1798
15728SOL    HW259658   8.525   2.450   4.739  1.1143  0.4060 -1.6689
15729SOL     OW59659   5.224   7.426   0.353 -0.7080  1.1137  0.1860
15729SOL    HW159660   5.212   7.525   0.363 -1.7319  0.9431  0.8251
15729SOL    HW259661   5.317   7.401   0.380 -1.0338  1.6718  1.8853
15730SOL     OW59662   5.737   4.409   7.253  0.4096 -0.1556  0.5982
15730SOL    HW159663   5.776   4.475   7.318 -1.0346  0.3899  0.9509
15730SOL    HW259664   5.739   4.318   7.293  1.8805 -0.2466  0.3517
15731SOL     OW59665   7.980   6.437   8.635 -0.0690  0.2995  0.7688
15731SOL    HW159666   7.960   6.404   8.542 -0.4830  1.0399  0.5853
15731SOL    HW259667   7.935   6.377   8.702  0.7110 -0.5747  0.5169
15732SOL     OW59668   2.794   2.373   0.374 -0.1821  0.5741 -0.0680
15732SOL    HW159669   2.786   2.472   0.381  1.1824  0.7251 -0.5367
15732SOL    HW259670   2.855   2.350   0.298 -1.4609 -0.6540 -0.7532
15733SOL     OW59671   0.128   8.173   5.469 -0.0045  0.3885  0.7127
15733SOL    HW159672   0.138   8.271   5.487  1.5753  0.0823  1.5926
15733SOL    HW259673   0.064   8.134   5.535 -0.5594  0.8089  0.4240
15734SOL     OW59674   7.009   5.463   4.955  0.0993 -0.3616 -0.6585
15734SOL    HW159675   7.104   5.477   4.981 -0.1428 -0.2119  0.1749
15734SOL    HW259676   6.971   5.387   5.007 -0.8970  1.0577  0.7391
15735SOL     OW59677   7.998   3.497   3.753 -0.0562  0.1226  0.0794
15735SOL    HW159678   7.980   3.418   3.811 -0.4935  0.5954  0.6000
15735SOL    HW259679   8.065   3.473   3.684  0.0289 -0.6216  0.4140
15736SOL     OW59680   4.052   2.704   1.374 -0.2704  0.0532  0.2892
15736SOL    HW159681   4.008   2.794   1.367 -0.2311  0.3764  3.5316
15736SOL    HW259682   4.140   2.714   1.421 -0.1416 -1.6606  0.4275
15737SOL     OW59683   7.121   5.918   4.436 -0.0794 -0.2138  0.5296
15737SOL    HW159684   7.141   6.015   4.443  0.7019 -0.2560 -0.9835
15737SOL    HW259685   7.029   5.905   4.398  1.4890 -0.0217 -3.6481
15738SOL     OW59686   2.968   6.222   1.591 -0.5047 -0.7333  0.3645
15738SOL    HW159687   3.029   6.232   1.670 -0.3239  0.0272  0.1317
15738SOL    HW259688   2.947   6.125   1.578  1.9237 -1.1923 -0.4895
15739SOL     OW59689   8.568   0.888   7.984 -0.3399  0.6469  0.2417
15739SOL    HW159690   8.489   0.827   7.989  0.3621 -0.3031 -0.0901
15739SOL    HW259691   8.641   0.854   8.043 -0.1633  1.5015  0.5295
15740SOL     OW59692   1.226   2.492   6.311  0.0975  0.3813 -0.3924
15740SOL    HW159693   1.212   2.407   6.260 -0.6070  0.7859 -0.8896
15740SOL    HW259694   1.292   2.477   6.384 -0.1745 -0.6479 -0.3525
15741SOL     OW59695   2.846   4.853   7.373 -0.0872  0.8617  0.2764
15741SOL    HW159696   2.886   4.785   7.312  0.2576  1.8676 -0.6445
15741SOL    HW259697   2.919   4.911   7.411 -0.2331 -0.1147  2.1068
15742SOL     OW59698   7.097   3.976   4.841 -0.4950 -0.0512 -0.0023
15742SOL    HW159699   7.131   4.044   4.776 -1.4121  0.3411 -0.0767
15742SOL    HW259700   7.003   3.951   4.817 -0.3635 -0.9296  0.3593
15743SOL     OW59701   1.007   7.692   8.302 -0.8820  0.3411 -0.3049
15743SOL    HW159702   1.071   7.659   8.372 -0.2655  3.2473  0.5472
15743SOL    HW259703   0.948   7.616   8.274  1.3410 -1.8133  0.6104
15744SOL     OW59704   2.871   0.912   0.059  0.4352 -0.6802 -0.0052
15744SOL    HW159705   2.849   0.886   0.153 -0.7403 -1.9375 -0.6131
15744SOL    HW259706   2.799   0.970   0.023  0.5324 -0.7864 -0.3744
15745SOL     OW59707   6.450   4.906   4.996  0.1710 -0.0195 -0.5814
15745SOL    HW159708   6.407   4.976   4.938  1.7646 -0.4551 -2.3192
15745SOL    HW259709   6.505   4.952   5.066  0.4783  0.4890 -1.1449
15746SOL     OW59710   2.932   5.212   0.010  0.9684  0.0084  0.4248
15746SOL    HW159711   2.970   5.123   0.034 -0.0872 -0.1205  1.6968
15746SOL    HW259712   2.836   5.216   0.037  1.0089  1.5380  0.4341
15747SOL     OW59713   0.559   8.031   0.832 -0.3654  0.3564  0.2921
15747SOL    HW159714   0.506   8.033   0.747 -1.3195  0.2302  0.8755
15747SOL    HW259715   0.499   8.051   0.909  0.4787  0.3833  0.9511
15748SOL     OW59716   5.028   3.456   3.217  0.0863 -0.4820 -0.4099
15748SOL    HW159717   5.025   3.515   3.298  0.9069 -1.2469  0.1858
15748SOL    HW259718   4.965   3.491   3.148 -0.3161  0.4106  0.4019
15749SOL     OW59719   0.253   2.158   6.215 -0.0581 -0.5385  0.2938
15749SOL    HW159720   0.202   2.095   6.274 -0.3774 -2.1034 -1.6048
15749SOL    HW259721   0.351   2.145   6.228 -0.1010  0.6941  2.0795
15750SOL     OW59722   6.613   8.044   0.028 -0.7412  0.1949  0.0348
15750SOL    HW159723   6.704   8.015   0.059 -0.8814  0.5542  0.8050
15750SOL    HW259724   6.587   8.128   0.076 -2.9418 -1.7785  2.4454
15751SOL     OW59725   7.704   2.721   7.091  0.2859  0.4084  0.1138
15751SOL    HW159726   7.721   2.806   7.041 -0.6849  1.2533  1.1962
15751SOL    HW259727   7.792   2.683   7.123  0.6931  1.2089 -0.0406
15752SOL     OW59728   7.487   5.897   3.395  0.2126 -0.4042 -0.1874
15752SOL    HW159729   7.526   5.898   3.487  0.1627  1.7573 -0.1627
15752SOL    HW259730   7.525   5.972   3.342 -0.2222 -1.2665 -1.7524
15753SOL     OW59731   2.605   4.246   8.908  0.1218 -0.3090  0.5596
15753SOL    HW159732   2.542   4.260   8.985 -0.7621 -0.1685 -0.1946
15753SOL    HW259733   2.591   4.318   8.840  0.4466 -0.8132 -0.0441
15754SOL     OW59734   1.286   2.337   4.930  0.3077  0.2646  0.5495
15754SOL    HW159735   1.256   2.376   5.017  1.2037 -0.5674  1.2486
15754SOL    HW259736   1.384   2.318   4.935  0.3298  0.0778 -0.5957
15755SOL     OW59737   3.618   5.022   8.077  0.0792 -0.5154 -0.2992
15755SOL    HW159738   3.694   5.022   8.013  0.3357 -1.4965 -0.0109
15755SOL    HW259739   3.616   5.108   8.127  0.2076  0.0326 -1.2327
15756SOL     OW59740   5.013   5.748   5.828 -0.3766  1.1811 -0.4174
15756SOL    HW159741   5.088   5.807   5.857  0.5377  0.5477 -1.4514
15756SOL    HW259742   5.026   5.657   5.866 -1.4191  1.4576  0.6128
15757SOL     OW59743   3.206   1.729   5.360  0.2079 -0.8720 -0.1573
15757SOL    HW159744   3.129   1.735   5.297  1.2965 -0.1899 -1.4697
15757SOL    HW259745   3.217   1.816   5.408  0.8716 -0.5657 -0.8513
15758SOL     OW59746   8.198   4.891   2.040 -0.1067 -0.1767 -0.6271
15758SOL    HW159747   8.146   4.823   2.091 -0.6410  1.2653  0.7675
15758SOL    HW259748   8.194   4.869   1.942 -3.0585 -0.2794 -0.5268
15759SOL     OW59749   8.489   8.377   0.585  0.0449 -0.5083  0.2329
15759SOL    HW159750   8.453   8.470   0.590  2.4733  0.4480  0.9477
15759SOL    HW259751   8.451   8.322   0.659  0.8435  0.7791  1.6294
15760SOL     OW59752   0.139   2.579   4.320 -0.2777 -0.1239  0.0769
15760SOL    HW159753   0.199   2.525   4.260  1.7639  0.4693  1.5193
15760SOL    HW259754   0.110   2.522   4.397 -0.6651 -0.0726 -0.0317
15761SOL     OW59755   4.327   0.672   0.431 -0.5358  0.2126 -0.1981
15761SOL    HW159756   4.425   0.652   0.425 -1.0630 -2.4714 -0.6065
15761SOL    HW259757   4.300   0.677   0.527 -0.1082  0.3123 -0.0810
15762SOL     OW59758   1.898   3.254   8.120  0.5408  0.3173 -0.3251
15762SOL    HW159759   1.805   3.271   8.151  0.1018 -2.5638  0.0654
15762SOL    HW259760   1.896   3.220   8.026  1.1820  0.0728 -0.2547
15763SOL     OW59761   7.671   4.454   7.566 -0.0082  0.0446 -0.1568
15763SOL    HW159762   7.753   4.509   7.576 -0.9198  1.4849 -0.4083
15763SOL    HW259763   7.657   4.399   7.649 -0.1354  1.6818  0.9378
15764SOL     OW59764   6.847   0.766   8.554 -0.1658 -0.1036  0.5847
15764SOL    HW159765   6.878   0.852   8.593 -1.5187  0.3510  0.6837
15764SOL    HW259766   6.808   0.708   8.625  0.0419 -0.4814  0.3946
15765SOL     OW59767   6.717   2.347   0.805 -0.4045  0.1629 -0.0745
15765SOL    HW159768   6.735   2.249   0.796  1.0110  0.3077  1.0956
15765SOL    HW259769   6.635   2.361   0.860 -1.7151 -0.3912 -1.8344
15766SOL     OW59770   7.648   4.504   6.393  0.1848 -0.0736  0.0679
15766SOL    HW159771   7.715   4.518   6.466 -0.7413  1.1111  0.7045
15766SOL    HW259772   7.577   4.441   6.424  1.0793 -1.4860 -0.6771
15767SOL     OW59773   6.744   6.548   6.686 -0.2576  0.2945 -0.4723
15767SOL    HW159774   6.650   6.573   6.663 -0.9959 -1.1097  0.8919
15767SOL    HW259775   6.805   6.575   6.611 -1.8377  0.5530 -1.7062
15768SOL     OW59776   4.421   4.562   5.962 -0.1177  0.0550 -0.2977
15768SOL    HW159777   4.442   4.464   5.967  2.2293  0.5405 -0.1702
15768SOL    HW259778   4.361   4.579   5.884 -2.4708 -1.7702  1.0150
15769SOL     OW59779   1.972   2.658   2.169  0.2038  0.3809 -0.3290
15769SOL    HW159780   2.038   2.585   2.183  0.4580  0.5618 -0.5905
15769SOL    HW259781   1.881   2.626   2.195  0.5769  0.5099  1.1893
15770SOL     OW59782   3.418   4.831   2.426  0.3645  0.0053  0.2949
15770SOL    HW159783   3.466   4.817   2.512 -1.3618  0.6103  1.3731
15770SOL    HW259784   3.371   4.746   2.400 -1.1459  0.5298  1.2418
15771SOL     OW59785   4.076   5.407   1.783  0.5725 -0.4394 -0.0393
15771SOL    HW159786   4.065   5.464   1.864 -0.4735 -0.5713 -0.0808
15771SOL    HW259787   4.161   5.432   1.736  1.7785 -1.1524  1.7177
15772SOL     OW59788   1.445   0.284   0.482  1.0733 -0.5825 -0.0140
15772SOL    HW159789   1.496   0.362   0.445  0.4651 -0.6988 -1.1339
15772SOL    HW259790   1.352   0.285   0.445  0.0222  0.0460  2.5657
15773SOL     OW59791   7.654   4.043   2.411 -0.3010  0.2319 -0.2836
15773SOL    HW159792   7.600   4.018   2.491  0.8197  1.3852  0.8432
15773SOL    HW259793   7.708   3.964   2.381  1.8813  0.7291  2.1953
15774SOL     OW59794   8.714   7.844   1.618 -0.5506 -0.0230 -0.1206
15774SOL    HW159795   8.743   7.755   1.652 -1.4360 -0.2240  0.1245
15774SOL    HW259796   8.790   7.889   1.571 -0.1074 -0.9149 -0.2534
15775SOL     OW59797   4.647   1.549   7.384  0.0480  0.0626 -0.2025
15775SOL    HW159798   4.691   1.639   7.380  1.1643 -0.5613 -2.3940
15775SOL    HW259799   4.699   1.490   7.446  2.2996 -0.6327 -2.6846
15776SOL     OW59800   8.333   4.272   1.666 -0.3833  0.1511 -0.3477
15776SOL    HW159801   8.332   4.332   1.746 -2.7801  0.9341 -0.9178
15776SOL    HW259802   8.359   4.325   1.585  3.0788 -0.8697  0.0477
15777SOL     OW59803   8.727   4.495   2.138 -0.0261 -0.8604 -0.1788
15777SOL    HW159804   8.646   4.436   2.131 -1.0956  0.5491  0.1075
15777SOL    HW259805   8.734   4.531   2.231 -0.7472  1.3800 -0.9687
15778SOL     OW59806   6.156   4.079   5.842 -0.2014  0.0154  0.2690
15778SOL    HW159807   6.204   4.165   5.858  0.0621  0.0028 -0.4192
15778SOL    HW259808   6.175   4.016   5.917 -0.7556  0.7097  1.0016
15779SOL     OW59809   4.872   8.666   0.196  0.1740 -0.0714 -0.1395
15779SOL    HW159810   4.910   8.591   0.250 -1.7302 -0.4702  0.6934
15779SOL    HW259811   4.800   8.630   0.136 -0.9063  1.1221  0.4317
15780SOL     OW59812   7.263   6.148   4.144  0.2064 -0.0060 -0.6678
15780SOL    HW159813   7.231   6.231   4.190  1.6473 -0.4063  1.1078
15780SOL    HW259814   7.334   6.171   4.078  1.1469  0.1269  0.3666
15781SOL     OW59815   4.520   6.692   8.520  0.6614 -0.0063  0.0761
15781SOL    HW159816   4.552   6.715   8.428  0.5649 -1.0902 -0.2284
15781SOL    HW259817   4.595   6.656   8.575  1.2641  2.7513  1.1672
15782SOL     OW59818   3.897   5.410   7.267 -0.0075 -0.5497  0.2624
15782SOL    HW159819   3.865   5.387   7.359  0.9152  0.4181  0.8427
15782SOL    HW259820   3.997   5.423   7.269 -0.0989  0.3609 -0.6858
15783SOL     OW59821   1.852   3.973   8.954  0.2171  0.6144  0.1533
15783SOL    HW159822   1.865   3.874   8.961 -0.1566  0.6636  1.7776
15783SOL    HW259823   1.940   4.018   8.941  0.5561  0.1722  0.8828
15784SOL     OW59824   3.041   1.160   8.736 -0.2978 -0.2779  0.9858
15784SOL    HW159825   3.105   1.195   8.668 -0.6885 -0.7419  0.3673
15784SOL    HW259826   3.012   1.068   8.710  0.4304 -0.9171  2.3968
15785SOL     OW59827   6.221   5.216   4.649  0.3255 -0.3086  0.5703
15785SOL    HW159828   6.263   5.307   4.640 -0.8156  0.3189  1.5478
15785SOL    HW259829   6.178   5.191   4.562 -0.9881  0.9125  0.8478
15786SOL     OW59830   4.036   3.646   8.427 -0.4438  0.1457  0.1589
15786SOL    HW159831   4.134   3.626   8.435 -0.4025  0.4849  0.5228
15786SOL    HW259832   4.024   3.743   8.405 -0.7704  0.6784  2.5646
15787SOL     OW59833   4.824   4.899   8.074  0.1470 -1.0173 -0.2147
15787SOL    HW159834   4.874   4.844   8.008 -0.3987 -0.6863 -0.9171
15787SOL    HW259835   4.728   4.903   8.048  0.4768  1.7230 -1.1830
15788SOL     OW59836   6.749   3.928   6.772 -0.4871 -0.0953 -0.5061
15788SOL    HW159837   6.791   4.016   6.796  0.4030  0.1952 -3.0059
15788SOL    HW259838   6.796   3.854   6.820 -0.9878  0.7400  1.3174
15789SOL     OW59839   7.294   3.553   3.976  0.1704  0.4663  0.4100
15789SOL    HW159840   7.330   3.633   4.023  1.0668 -0.7532  1.8492
15789SOL    HW259841   7.359   3.523   3.906 -0.3880  1.2717 -0.4637
15790SOL     OW59842   5.234   6.343   6.279  0.3737 -0.3044 -0.0400
15790SOL    HW159843   5.142   6.351   6.239  0.4211  0.4698  0.0066
15790SOL    HW259844   5.287   6.276   6.227  1.7272  3.4248 -3.7427
15791SOL     OW59845   0.370   7.430   1.691  0.3346 -0.7032 -0.1108
15791SOL    HW159846   0.329   7.339   1.697  2.2300 -1.5108  0.9367
15791SOL    HW259847   0.465   7.422   1.663  0.5777  0.9566  0.1957
15792SOL     OW59848   1.683   1.198   7.312 -0.5182 -0.3990 -0.1748
15792SOL    HW159849   1.738   1.280   7.295 -1.2274 -0.4074 -2.7413
15792SOL    HW259850   1.726   1.144   7.384  1.0675  1.2008  0.1329
15793SOL     OW59851   3.232   2.022   5.392 -0.7184 -0.3441 -0.0290
15793SOL    HW159852   3.288   2.062   5.464 -1.0878 -0.7583  0.4940
15793SOL    HW259853   3.138   2.009   5.426 -1.2482  0.7524 -1.0316
15794SOL     OW59854   6.941   1.251   7.712  0.4202  0.4251 -0.2701
15794SOL    HW159855   6.901   1.160   7.716  0.6371  0.3593  0.5755
15794SOL    HW259856   6.869   1.319   7.698  0.4706 -0.0353 -2.9320
15795SOL     OW59857   1.361   6.066   7.856 -0.9021 -0.0182  0.6086
15795SOL    HW159858   1.264   6.044   7.872 -1.1179 -0.6828 -1.3810
15795SOL    HW259859   1.373   6.165   7.856 -1.4956  0.0589  1.3825
15796SOL     OW59860   6.733   2.603   1.023  0.6480 -0.2498  0.0122
15796SOL    HW159861   6.784   2.675   0.976 -0.7107  1.1328  0.6131
15796SOL    HW259862   6.795   2.551   1.081  1.3831  1.4475  0.7869
15797SOL     OW59863   3.809   1.892   0.776  0.0180  0.2745 -0.1154
15797SOL    HW159864   3.808   1.808   0.722 -1.2985  0.9020 -1.0754
15797SOL    HW259865   3.845   1.967   0.720 -0.5841  0.7551  0.1435
15798SOL     OW59866   4.692   1.010   0.341 -0.2980  0.9258 -0.7949
15798SOL    HW159867   4.725   1.004   0.247  1.3249  2.2442 -0.3296
15798SOL    HW259868   4.594   1.028   0.340 -0.5869 -0.5861 -2.2171
15799SOL     OW59869   5.080   3.927   3.526 -0.8161  0.4355 -0.2468
15799SOL    HW159870   4.995   3.971   3.554 -0.7943  0.7598 -0.6795
15799SOL    HW259871   5.155   3.958   3.585 -0.8373  0.8234 -0.4250
15800SOL     OW59872   0.420   0.683   2.920 -0.3498 -0.4417 -0.0982
15800SOL    HW159873   0.456   0.635   2.840  1.1310 -1.5905  1.2196
15800SOL    HW259874   0.321   0.668   2.926 -1.1092  2.4048 -3.5231
15801SOL     OW59875   0.960   8.408   1.811 -0.5657 -0.2147 -0.4842
15801SOL    HW159876   1.034   8.352   1.775  0.8860  0.1762  1.8118
15801SOL    HW259877   0.936   8.378   1.903 -1.2327  1.5409 -0.0507
15802SOL     OW59878   8.024   3.683   1.996 -0.8847 -0.0743 -0.3678
15802SOL    HW159879   7.967   3.739   2.056  0.7813  0.9309  0.3321
15802SOL    HW259880   7.973   3.660   1.913 -2.0277  1.4406 -0.1100
15803SOL     OW59881   2.495   1.535   7.933 -0.4718  0.2685 -0.1308
15803SOL    HW159882   2.505   1.516   7.835  1.9320  3.1619 -0.5019
15803SOL    HW259883   2.435   1.614   7.947 -1.7214 -0.8118  0.8433
15804SOL     OW59884   2.486   4.761   2.849 -0.4011 -1.0168  0.4639
15804SOL    HW159885   2.514   4.821   2.924  1.3167 -1.0439 -0.1082
15804SOL    HW259886   2.545   4.779   2.770 -1.7973 -1.4053 -0.6834
15805SOL     OW59887   4.700   3.493   7.182  0.2831 -0.3966 -0.3350
15805SOL    HW159888   4.685   3.398   7.211 -0.8440 -0.0634  0.2078
15805SOL    HW259889   4.682   3.554   7.259  1.5020  0.2282 -0.5393
15806SOL     OW59890   2.453   0.705   0.948 -0.3370 -0.0319  0.7286
15806SOL    HW159891   2.406   0.784   0.909  0.4761  0.9002  1.5990
15806SOL    HW259892   2.409   0.681   1.035 -0.5928 -0.5538  0.4575
15807SOL     OW59893   5.881   6.609   3.556  0.8727 -0.2873  0.6703
15807SOL    HW159894   5.855   6.519   3.523  0.8870 -0.1005  0.1400
15807SOL    HW259895   5.808   6.674   3.536  1.3000  0.0272  0.1060
15808SOL     OW59896   2.983   2.931   8.621 -0.4141  0.5076  0.0383
15808SOL    HW159897   2.917   3.001   8.594  0.0528  0.3641 -1.5555
15808SOL    HW259898   2.935   2.850   8.654 -0.9826  1.1996  0.8986
15809SOL     OW59899   0.879   2.082   0.003 -0.5705  0.1467 -0.6345
15809SOL    HW159900   0.944   2.055   0.074  0.2154  0.8011 -1.0919
15809SOL    HW259901   0.816   2.006  -0.015 -0.1921 -0.3505  0.1086
15810SOL     OW59902   2.830   0.794   0.303 -0.2836 -0.3343 -0.0606
15810SOL    HW159903   2.858   0.871   0.360 -0.5832 -0.9604  0.9397
15810SOL    HW259904   2.841   0.709   0.354  1.8389 -1.1554 -1.7795
15811SOL     OW59905   2.336   1.760   1.023  0.0878  0.1329 -0.2744
15811SOL    HW159906   2.328   1.858   1.003  0.1632  0.1386 -0.2774
15811SOL    HW259907   2.323   1.746   1.121  2.1704  0.3958  0.0752
15812SOL     OW59908   0.021   2.858   6.783  0.5291  0.1336 -0.4243
15812SOL    HW159909  -0.028   2.840   6.868 -1.3882 -1.8660 -1.9020
15812SOL    HW259910   0.011   2.954   6.758  1.1316  0.7516  1.5882
15813SOL     OW59911   5.850   2.876   3.078  0.2750  0.0503 -0.1964
15813SOL    HW159912   5.835   2.942   3.004  2.7713  1.2478  0.3102
15813SOL    HW259913   5.947   2.875   3.102 -0.1467 -1.9797  1.5495
15814SOL     OW59914   3.274   5.144   8.396  0.3429 -0.5177 -0.3505
15814SOL    HW159915   3.188   5.100   8.423  0.5131 -0.7347 -0.1676
15814SOL    HW259916   3.342   5.131   8.467  1.0553 -1.8128 -1.2506
15815SOL     OW59917   3.087   2.145   0.785 -0.2599  0.2584 -0.1034
15815SOL    HW159918   3.100   2.179   0.878  0.4188 -2.1290  0.7063
15815SOL    HW259919   3.167   2.169   0.729  1.5352 -2.4685  1.2288
15816SOL     OW59920   0.606   0.615   1.042 -0.5004  0.6115  0.1111
15816SOL    HW159921   0.702   0.595   1.026 -1.0755 -1.7486 -0.6295
15816SOL    HW259922   0.566   0.655   0.960 -0.0137  2.1508  0.6223
15817SOL     OW59923   2.262   1.434   3.078 -0.2486 -0.0490  0.1001
15817SOL    HW159924   2.330   1.506   3.062  0.1775 -0.8459 -1.7172
15817SOL    HW259925   2.172   1.466   3.048  0.3243 -1.0612 -2.8622
15818SOL     OW59926   0.688   3.468   4.702 -0.3990  0.2362  0.1893
15818SOL    HW159927   0.628   3.533   4.655 -1.6735 -1.1083 -0.0884
15818SOL    HW259928   0.746   3.422   4.635  0.4025  0.9735  0.3706
15819SOL     OW59929   0.773   5.326   1.127 -0.0420 -0.1889  0.2773
15819SOL    HW159930   0.709   5.365   1.060 -0.7157 -0.2233  0.8991
15819SOL    HW259931   0.815   5.245   1.088 -0.0608  0.0730 -0.3001
15820SOL     OW59932   3.413   8.824   6.200  0.5538  0.5055  0.0673
15820SOL    HW159933   3.358   8.774   6.133  1.0963 -0.3926  0.2929
15820SOL    HW259934   3.383   8.800   6.293  1.3440 -0.0089  0.1925
15821SOL     OW59935   0.294   4.967   4.243  0.0945  0.5404  0.0373
15821SOL    HW159936   0.272   5.018   4.159  0.6886 -0.1460 -0.5394
15821SOL    HW259937   0.323   5.031   4.314 -1.0837  1.1999 -0.0531
15822SOL     OW59938   2.585   4.801   5.311  0.0661 -0.3811 -0.5693
15822SOL    HW159939   2.497   4.777   5.269 -0.0868 -2.2012  0.7138
15822SOL    HW259940   2.569   4.858   5.392  0.1249  0.0319 -0.8485
15823SOL     OW59941   0.111   7.552   1.602  0.0364 -0.4726 -0.3984
15823SOL    HW159942   0.083   7.460   1.575  0.9157 -0.8084 -0.1930
15823SOL    HW259943   0.210   7.554   1.615 -0.2808 -0.1660  2.1754
15824SOL     OW59944   5.552   8.986   2.847  0.2535 -0.2891  0.2349
15824SOL    HW159945   5.526   9.025   2.935  0.3258  1.9975 -0.7064
15824SOL    HW259946   5.570   8.889   2.857 -3.1863 -0.8130  2.0134
15825SOL     OW59947   3.498   7.602   7.440 -0.3124  0.5624  0.2241
15825SOL    HW159948   3.449   7.533   7.385  2.1736 -0.4533 -0.7923
15825SOL    HW259949   3.468   7.693   7.413 -0.2884  0.0177 -1.7365
15826SOL     OW59950   6.837   4.881   3.426 -0.3415  0.1513  0.0128
15826SOL    HW159951   6.905   4.866   3.354  2.0953 -0.9969  2.4850
15826SOL    HW259952   6.746   4.889   3.384  0.9223 -1.0148 -3.1310
15827SOL     OW59953   3.734   0.327   5.250  0.2220  0.9037  0.0901
15827SOL    HW159954   3.759   0.307   5.345  2.3237  2.4626 -0.1125
15827SOL    HW259955   3.773   0.257   5.190 -1.5899 -0.4121  0.3784
15828SOL     OW59956   1.986   4.077   8.558  0.0438 -0.2963 -0.0455
15828SOL    HW159957   1.911   4.117   8.609 -1.1175  0.8839 -2.6016
15828SOL    HW259958   2.073   4.109   8.595 -0.8031  1.4811  0.4275
15829SOL     OW59959   6.293   6.240   8.865  0.2224  0.9819 -0.5365
15829SOL    HW159960   6.391   6.244   8.846  0.3421  0.0113 -0.1319
15829SOL    HW259961   6.278   6.248   8.963 -0.1224  1.3712 -0.6194
15830SOL     OW59962   5.783   5.808   6.510 -0.1493 -0.0036 -0.2332
15830SOL    HW159963   5.757   5.715   6.537  1.2026 -0.2375  0.3126
15830SOL    HW259964   5.733   5.833   6.427  0.3623 -1.7089 -1.1003
15831SOL     OW59965   4.686   4.944   3.419  0.1073 -0.3652 -0.2070
15831SOL    HW159966   4.701   4.851   3.385 -0.9891 -1.9084  3.2549
15831SOL    HW259967   4.762   4.970   3.480 -0.6896  0.1377  0.5836
15832SOL     OW59968   4.168   1.445   3.468 -0.0003  0.2035  0.0461
15832SOL    HW159969   4.233   1.488   3.405 -0.0957 -1.9153 -1.5685
15832SOL    HW259970   4.103   1.513   3.501  0.8826  1.6291 -1.1023
15833SOL     OW59971   5.331   6.599   4.847  0.1064  0.0525 -0.3340
15833SOL    HW159972   5.316   6.501   4.859 -0.5521 -0.0712 -2.0942
15833SOL    HW259973   5.304   6.648   4.930  2.0450 -1.3959  1.2098
15834SOL     OW59974   8.163   0.264   5.631 -0.0648 -0.1589 -0.0213
15834SOL    HW159975   8.253   0.304   5.648 -0.0964 -0.8997  2.0119
15834SOL    HW259976   8.092   0.326   5.663 -0.2288 -0.3215 -0.0668
15835SOL     OW59977   6.644   6.237   1.556 -0.1755  0.1180 -0.0144
15835SOL    HW159978   6.616   6.204   1.646  1.3979  1.8328  1.1432
15835SOL    HW259979   6.605   6.327   1.540  0.8219  0.4857 -0.3939
15836SOL     OW59980   1.337   2.226   2.406 -0.0741  0.7880  0.6003
15836SOL    HW159981   1.247   2.267   2.420 -0.1343  1.5536 -1.7948
15836SOL    HW259982   1.326   2.133   2.371  0.0357  0.8809  0.3076
15837SOL     OW59983   7.945   2.647   7.302  0.0522  0.2668 -0.3738
15837SOL    HW159984   8.043   2.649   7.318 -0.2224  1.0122  1.3033
15837SOL    HW259985   7.904   2.733   7.333 -1.1536 -0.1140 -0.8690
15838SOL     OW59986   5.286   5.585   7.165 -0.4488 -0.6894 -0.0355
15838SOL    HW159987   5.310   5.605   7.260  1.4791 -2.0894 -0.2010
15838SOL    HW259988   5.266   5.488   7.156 -0.2983 -0.6203 -1.1379
15839SOL     OW59989   1.154   3.173   4.401  0.0641  0.2508 -0.0582
15839SOL    HW159990   1.214   3.123   4.464  0.4489 -0.4394 -0.9639
15839SOL    HW259991   1.185   3.268   4.395  0.5852  0.0943  0.0957
15840SOL     OW59992   3.712   3.264   6.264  0.4030 -0.2185 -0.2292
15840SOL    HW159993   3.614   3.240   6.267  0.6366 -1.1261  0.5196
15840SOL    HW259994   3.736   3.295   6.172 -0.1723 -1.8674 -0.9679
15841SOL     OW59995   7.676   5.491   5.259  0.0760  0.7086 -0.3891
15841SOL    HW159996   7.706   5.421   5.325  0.1909  2.0838  1.0486
15841SOL    HW259997   7.748   5.560   5.250 -0.7152  1.5268 -0.5097
15842SOL     OW59998   8.873   6.304   7.304 -0.6599 -0.0991 -0.3966
15842SOL    HW159999   8.951   6.327   7.364 -1.2831  0.2558  0.2879
15842SOL    HW260000   8.895   6.329   7.210 -0.3642  1.0281 -0.0387
15843SOL     OW60001   2.044   5.171   6.999 -0.4110 -0.9630 -0.3956
15843SOL    HW160002   2.119   5.168   6.933  0.7822  0.9522  0.8004
15843SOL    HW260003   1.957   5.180   6.952  0.3899 -0.0049 -1.7021
15844SOL     OW60004   6.693   3.006   7.199  0.5046  0.5689  0.6017
15844SOL    HW160005   6.677   3.036   7.292 -2.7791  0.0903  0.2782
15844SOL    HW260006   6.627   2.933   7.176  1.2236  0.6995 -2.0731
15845SOL     OW60007   5.414   8.848   4.842  0.3242  0.1524  0.0048
15845SOL    HW160008   5.377   8.783   4.776 -0.3583 -1.5179  1.9899
15845SOL    HW260009   5.396   8.941   4.810 -3.0419 -0.6201 -0.5060
15846SOL     OW60010   4.911   7.464   5.409  0.4030 -0.2227 -0.2824
15846SOL    HW160011   4.814   7.451   5.427  0.4379  0.6477  0.5813
15846SOL    HW260012   4.964   7.436   5.489  0.6456  2.3603  0.5144
15847SOL     OW60013   3.269   3.440   3.288 -0.2674 -0.0193 -0.9512
15847SOL    HW160014   3.355   3.416   3.243 -0.7931 -2.2395 -0.8213
15847SOL    HW260015   3.227   3.517   3.241  1.2083  0.3187 -1.7405
15848SOL     OW60016   5.123   4.595   6.114 -0.0563  0.4183 -0.8032
15848SOL    HW160017   5.185   4.522   6.140  1.1392  2.0506  1.0625
15848SOL    HW260018   5.036   4.557   6.084  0.1429 -1.7008  1.2438
15849SOL     OW60019   1.873   6.002   4.762 -0.0879  0.1761  0.1899
15849SOL    HW160020   1.966   5.983   4.794  0.2819  0.4555 -0.6932
15849SOL    HW260021   1.868   5.988   4.664 -1.4080 -1.4058  0.4629
15850SOL     OW60022   8.796   2.812   1.306 -0.5529 -0.0242  0.0879
15850SOL    HW160023   8.707   2.832   1.264 -0.8747  0.1898  0.8695
15850SOL    HW260024   8.782   2.758   1.389  0.1977 -2.0742 -1.0683
15851SOL     OW60025   5.189   3.775   0.331 -0.4296 -0.1883  0.2419
15851SOL    HW160026   5.117   3.831   0.370 -0.2722 -1.2726  2.1183
15851SOL    HW260027   5.261   3.834   0.294 -0.6602  0.8528  1.4363
15852SOL     OW60028   7.379   4.604   2.975  0.2622  0.2687  0.1506
15852SOL    HW160029   7.350   4.588   2.881  2.5488  0.5863 -0.6640
15852SOL    HW260030   7.325   4.548   3.038 -2.0207  0.8778 -1.2508
15853SOL     OW60031   1.430   3.861   1.685 -0.2141  0.7030 -0.4527
15853SOL    HW160032   1.510   3.880   1.630  1.3606 -0.0517  1.5091
15853SOL    HW260033   1.374   3.943   1.694  0.0269  1.0836 -2.2857
15854SOL     OW60034   5.215   4.744   4.960 -0.3103  0.2618  0.8286
15854SOL    HW160035   5.301   4.696   4.978  0.2899  0.5707 -1.0826
15854SOL    HW260036   5.159   4.691   4.897 -0.3529  1.2904 -0.0183
15855SOL     OW60037   3.238   3.868   6.278  0.2171 -0.2539  0.0034
15855SOL    HW160038   3.305   3.889   6.207  1.8081 -2.1420  0.9030
15855SOL    HW260039   3.146   3.889   6.245  1.0906  0.5442 -1.9598
15856SOL     OW60040   8.027   7.433   6.268  0.1277 -0.3088  0.1258
15856SOL    HW160041   8.001   7.522   6.304  1.4462 -0.7106  2.1623
15856SOL    HW260042   7.962   7.364   6.299  1.4406 -0.7067  2.0748
15857SOL     OW60043   7.469   0.099   8.244  0.2334  0.2573  0.4626
15857SOL    HW160044   7.547   0.040   8.266 -1.2696 -1.3762  1.5197
15857SOL    HW260045   7.432   0.074   8.154 -0.4533 -0.4851  0.9455
15858SOL     OW60046   2.383   6.381   8.284  0.1581 -0.0670  0.0656
15858SOL    HW160047   2.474   6.340   8.277  0.5733  0.1535  3.3516
15858SOL    HW260048   2.331   6.335   8.356 -2.1782  0.1446 -1.4453
15859SOL     OW60049   1.371   6.973   8.779  0.3876 -0.0305  0.6377
15859SOL    HW160050   1.436   6.987   8.704  0.5941 -2.7596  0.2335
15859SOL    HW260051   1.412   6.916   8.849  0.1953  2.5344  2.9179
15860SOL     OW60052   5.393   4.439   4.305  0.5359  0.6101 -0.3202
15860SOL    HW160053   5.346   4.408   4.388 -1.4574 -0.8230 -1.9323
15860SOL    HW260054   5.342   4.515   4.264  1.0311  0.7391 -0.6997
15861SOL     OW60055   8.231   2.676   8.417 -0.1787 -0.1022  0.0756
15861SOL    HW160056   8.197   2.617   8.344  0.7741  1.0140 -1.3072
15861SOL    HW260057   8.325   2.652   8.439  0.1051  0.6563 -0.2671
15862SOL     OW60058   7.140   7.078   5.123  0.2539 -0.1337 -0.1989
15862SOL    HW160059   7.144   6.979   5.112 -0.2125 -0.2027  0.2191
15862SOL    HW260060   7.209   7.121   5.065 -0.1965 -0.6529 -1.1290
15863SOL     OW60061   7.686   8.656   1.397 -0.2790  0.2521  0.6930
15863SOL    HW160062   7.760   8.601   1.435 -1.3676 -0.8127  1.3225
15863SOL    HW260063   7.718   8.703   1.315  1.8750  1.9533  2.4535
15864SOL     OW60064   3.638   0.257   3.832 -0.5152  0.2158  0.5208
15864SOL    HW160065   3.649   0.167   3.790  0.7432  0.2340  0.7721
15864SOL    HW260066   3.640   0.327   3.761 -0.4440  0.1051  0.4122
15865SOL     OW60067   1.874   3.215   1.089  0.8969 -0.6914 -0.1166
15865SOL    HW160068   1.793   3.268   1.116  0.8960 -1.1875  0.9150
15865SOL    HW260069   1.892   3.228   0.992  0.9262  1.2346  0.1182
15866SOL     OW60070   7.934   4.103   7.638  0.5235 -0.1748 -0.2428
15866SOL    HW160071   8.020   4.152   7.626  0.9799 -0.8042  0.4177
15866SOL    HW260072   7.868   4.133   7.569  0.5807  1.8241  0.5217
15867SOL     OW60073   1.734   3.380   2.719 -0.0130  0.0295  0.2007
15867SOL    HW160074   1.676   3.435   2.659 -0.5356 -0.6170  0.1093
15867SOL    HW260075   1.691   3.373   2.810  0.7996  1.0491  0.6713
15868SOL     OW60076   4.390   7.486   7.038  0.2998 -0.6313  0.1509
15868SOL    HW160077   4.361   7.463   6.945 -1.2554  0.6423  0.3051
15868SOL    HW260078   4.490   7.495   7.040  0.4583 -1.8305 -1.1212
15869SOL     OW60079   8.814   4.283   7.178 -0.0259 -0.3655  0.1445
15869SOL    HW160080   8.767   4.353   7.123  1.9080 -0.0573 -1.1577
15869SOL    HW260081   8.805   4.194   7.133 -1.7571 -0.8396  1.3668
15870SOL     OW60082   6.886   8.559   0.707 -0.2396  0.1945 -0.4278
15870SOL    HW160083   6.792   8.589   0.723 -0.8780 -1.3528 -1.1570
15870SOL    HW260084   6.906   8.561   0.609  0.7976  1.3786 -0.2046
15871SOL     OW60085   8.221   1.048   5.771  0.2608  0.9010  0.1968
15871SOL    HW160086   8.207   1.022   5.867  0.4866  0.4138  0.0991
15871SOL    HW260087   8.315   1.029   5.744 -0.2918 -0.7977 -0.6690
15872SOL     OW60088   8.187   7.067   6.406 -0.7263  0.2247  0.4365
15872SOL    HW160089   8.210   6.994   6.472 -0.2248 -0.1335 -0.1302
15872SOL    HW260090   8.247   7.146   6.422 -0.0194 -0.1876 -0.1408
15873SOL     OW60091   3.879   8.169   2.588  0.1114  0.3394 -0.1016
15873SOL    HW160092   3.933   8.109   2.647  2.3036  2.1662 -0.1905
15873SOL    HW260093   3.937   8.204   2.514 -0.8217  3.3547  0.5223
15874SOL     OW60094   5.556   3.067   6.208  0.2167  0.6031  0.3612
15874SOL    HW160095   5.605   3.150   6.233 -0.1469  1.1967 -0.8829
15874SOL    HW260096   5.542   3.011   6.290  1.0259  1.4576  1.0927
15875SOL     OW60097   2.890   8.773   0.966  0.2648 -0.5553 -0.5261
15875SOL    HW160098   2.984   8.786   0.996  0.0270  1.1715 -0.4850
15875SOL    HW260099   2.876   8.820   0.879 -1.3698  1.9674  1.0135
15876SOL     OW60100   0.759   3.360   2.816  0.2279 -0.1160  0.1842
15876SOL    HW160101   0.726   3.449   2.783  1.1968  0.7486  1.5228
15876SOL    HW260102   0.812   3.316   2.744 -0.0922  0.4672 -0.4182
15877SOL     OW60103   3.606   7.801   2.560 -0.2804 -0.1205 -0.0525
15877SOL    HW160104   3.522   7.758   2.526 -0.0905 -0.2779 -0.3220
15877SOL    HW260105   3.677   7.796   2.490 -0.2035  0.4779 -0.0225
15878SOL     OW60106   7.686   2.822   0.459 -0.7028 -0.3865 -1.1271
15878SOL    HW160107   7.628   2.741   0.462 -0.0130 -0.8356  0.2505
15878SOL    HW260108   7.679   2.872   0.545  0.4442 -0.0805 -1.2087
15879SOL     OW60109   7.929   0.798   8.585 -0.0472  0.4125  0.1405
15879SOL    HW160110   7.910   0.726   8.518  0.5624  1.6683 -1.3769
15879SOL    HW260111   7.861   0.793   8.658 -0.7532 -0.9131 -0.5807
15880SOL     OW60112   5.150   4.003   4.181 -0.1052  0.3464  0.3857
15880SOL    HW160113   5.094   3.975   4.102 -1.4392  1.3396  0.9498
15880SOL    HW260114   5.122   4.094   4.210  1.5252  0.6717  0.9813
15881SOL     OW60115   2.281   7.688   7.682  0.0598 -0.7133  0.3602
15881SOL    HW160116   2.232   7.702   7.595 -0.5322  0.5400  0.8854
15881SOL    HW260117   2.346   7.613   7.671 -0.6819 -1.2045 -0.8944
15882SOL     OW60118   8.122   5.475   4.464 -0.1725  0.4892 -0.2405
15882SOL    HW160119   8.067   5.485   4.381  0.9511 -1.0657 -1.2130
15882SOL    HW260120   8.142   5.564   4.503 -1.6489  1.1736 -1.0334
15883SOL     OW60121   3.162   6.572   5.679 -0.1533 -0.0174 -0.0304
15883SOL    HW160122   3.220   6.512   5.623 -0.7180 -1.8726  1.3117
15883SOL    HW260123   3.218   6.618   5.748 -0.1617 -1.2952  0.8376
15884SOL     OW60124   0.031   8.073   7.840  0.4888 -0.3482  0.0340
15884SOL    HW160125   0.117   8.117   7.814  0.4903 -0.0197  0.6105
15884SOL    HW260126   0.048   7.976   7.859  0.3376 -0.8166 -2.0832
15885SOL     OW60127   6.550   5.803   5.478  0.2369 -0.4031  0.1359
15885SOL    HW160128   6.582   5.713   5.507  0.2392  0.0354  1.5420
15885SOL    HW260129   6.462   5.794   5.431  0.2936 -1.1525  0.1718
15886SOL     OW60130   2.725   7.856   1.189 -0.4052  0.4318 -0.4622
15886SOL    HW160131   2.735   7.759   1.214  2.2085  0.8818  0.3819
15886SOL    HW260132   2.690   7.863   1.096 -1.3749 -1.3203 -0.2498
15887SOL     OW60133   5.881   5.340   2.831 -0.4883 -0.9555 -0.1840
15887SOL    HW160134   5.871   5.260   2.772 -0.1260 -1.5132  0.5038
15887SOL    HW260135   5.899   5.311   2.925 -0.3159 -0.0674  0.0676
15888SOL     OW60136   3.242   4.616   0.624  0.5380 -0.4084  0.6444
15888SOL    HW160137   3.257   4.715   0.631  0.9520 -0.3474 -0.8290
15888SOL    HW260138   3.210   4.594   0.532 -0.2483 -1.5678  1.1821
15889SOL     OW60139   8.462   3.414   6.395 -0.6749  0.4242  0.0892
15889SOL    HW160140   8.385   3.357   6.424 -0.5680  1.0096  1.5657
15889SOL    HW260141   8.543   3.391   6.448 -0.1187  0.6065 -0.6717
15890SOL     OW60142   1.242   5.088   1.281 -0.8217 -0.2174  0.1246
15890SOL    HW160143   1.239   5.075   1.182 -0.9143  0.6596  0.0042
15890SOL    HW260144   1.149   5.100   1.316 -0.6811  0.9860  0.1004
15891SOL     OW60145   8.802   7.943   4.149  0.4547 -0.2341 -0.5985
15891SOL    HW160146   8.848   7.934   4.238 -0.5381 -1.3258 -0.1883
15891SOL    HW260147   8.711   7.903   4.155  0.2325  0.0659 -2.0001
15892SOL     OW60148   2.625   6.369   7.002 -0.2667 -0.3240 -0.4511
15892SOL    HW160149   2.673   6.449   6.967 -0.3755  0.6279  1.4973
15892SOL    HW260150   2.685   6.289   7.000  0.8182  0.4722  0.3587
15893SOL     OW60151   2.820   1.613   7.575  0.2116  0.1792  0.0285
15893SOL    HW160152   2.906   1.629   7.526 -1.1619 -1.5753 -3.1263
15893SOL    HW260153   2.814   1.516   7.600 -1.3332  0.0307 -0.8438
15894SOL     OW60154   6.768   4.408   0.090 -0.4598 -0.0605  0.3405
15894SOL    HW160155   6.856   4.370   0.062  0.1063  1.7403 -0.4188
15894SOL    HW260156   6.704   4.334   0.108  0.4549 -1.3537 -1.5938
15895SOL     OW60157   8.670   7.513   8.003 -0.3227 -0.2231 -0.4998
15895SOL    HW160158   8.756   7.564   8.008  0.0731 -0.2712 -4.5428
15895SOL    HW260159   8.593   7.576   7.997 -0.0773 -0.0540 -2.3170
15896SOL     OW60160   0.049   5.807   5.036  0.7200 -0.3622 -0.2778
15896SOL    HW160161   0.045   5.717   5.080 -0.6155 -0.8651 -1.3990
15896SOL    HW260162  -0.041   5.832   5.002  1.1284  1.3163 -0.1923
15897SOL     OW60163   6.613   5.361   7.496 -0.4337 -0.4763  0.2773
15897SOL    HW160164   6.710   5.380   7.479 -0.4073 -0.5889  0.3048
15897SOL    HW260165   6.559   5.391   7.417 -0.3097 -1.0262 -0.0169
15898SOL     OW60166   0.165   3.120   2.742  0.6856 -0.2769  0.1488
15898SOL    HW160167   0.116   3.033   2.754 -2.3967  1.4266  0.5432
15898SOL    HW260168   0.169   3.168   2.830 -1.4002  1.8544 -0.8793
15899SOL     OW60169   6.284   1.093   8.153  0.0703 -0.2316  0.1666
15899SOL    HW160170   6.279   0.994   8.141  0.0356 -0.3011  0.7453
15899SOL    HW260171   6.207   1.124   8.208  1.3929 -0.2008  2.0440
15900SOL     OW60172   8.277   6.165   5.660 -0.4845  0.3572  0.2095
15900SOL    HW160173   8.344   6.175   5.733 -2.0524  1.5162  1.5437
15900SOL    HW260174   8.189   6.136   5.699 -1.2660  0.6776 -1.2534
15901SOL     OW60175   8.339   4.790   8.102 -0.3057  0.2239  0.1838
15901SOL    HW160176   8.409   4.795   8.173  0.7798  0.6059 -0.8894
15901SOL    HW260177   8.383   4.781   8.013 -1.6629 -0.9146 -0.3907
15902SOL     OW60178   5.683   5.199   5.078  0.4215  0.4888 -0.0076
15902SOL    HW160179   5.697   5.181   5.176  0.8436  0.2673 -0.1067
15902SOL    HW260180   5.748   5.269   5.048 -0.6508  1.5812  0.1881
15903SOL     OW60181   3.978   3.665   5.056  0.0410  0.0097  0.0336
15903SOL    HW160182   4.055   3.602   5.046 -1.1508 -1.2965 -1.1840
15903SOL    HW260183   3.983   3.710   5.145  2.1721 -0.0947 -0.0107
15904SOL     OW60184   3.305   7.456   4.460  0.0753 -0.0287 -0.3578
15904SOL    HW160185   3.348   7.500   4.539 -0.5723 -0.9184  0.5207
15904SOL    HW260186   3.211   7.431   4.484 -0.1611 -0.2097 -1.4588
15905SOL     OW60187   8.343   2.134   5.400 -0.4699  0.0122 -0.8597
15905SOL    HW160188   8.405   2.066   5.439  2.1203  1.5350 -2.1207
15905SOL    HW260189   8.337   2.121   5.301 -1.4266  0.4702 -0.8674
15906SOL     OW60190   1.619   7.989   5.703 -0.1002  0.5976  0.3102
15906SOL    HW160191   1.527   7.959   5.729  0.8523 -0.1552  3.0611
15906SOL    HW260192   1.644   7.950   5.615 -1.6405 -0.8203  0.4796
15907SOL     OW60193   4.824   4.704   8.468  0.0022 -0.0526 -0.1113
15907SOL    HW160194   4.813   4.658   8.380 -1.8583 -0.8111  0.4971
15907SOL    HW260195   4.820   4.803   8.454 -3.6176 -0.2075 -0.5149
15908SOL     OW60196   3.444   5.779   2.867 -0.2461  0.1877  0.2900
15908SOL    HW160197   3.462   5.757   2.963  1.7580 -1.9599 -0.5327
15908SOL    HW260198   3.387   5.707   2.827  2.7367 -1.3787 -1.2909
15909SOL     OW60199   7.498   4.625   7.455  0.0414  0.2535  0.1323
15909SOL    HW160200   7.567   4.563   7.494 -0.4589 -1.3408 -1.4526
15909SOL    HW260201   7.430   4.572   7.406  1.2967  2.2216 -3.9547
15910SOL     OW60202   3.110   4.221   6.138  0.4001  0.1402 -0.0740
15910SOL    HW160203   3.144   4.311   6.112 -0.4452  0.3950 -0.2895
15910SOL    HW260204   3.121   4.157   6.062  1.3171 -0.0374  0.1930
15911SOL     OW60205   7.659   5.094   1.868  0.1969  0.2224  0.4008
15911SOL    HW160206   7.638   5.189   1.845 -0.2970  0.1942  0.7042
15911SOL    HW260207   7.682   5.044   1.785 -1.3474  0.1703 -0.0179
15912SOL     OW60208   8.828   6.520   7.861  0.7869  0.5639  0.0691
15912SOL    HW160209   8.915   6.535   7.815  0.0017 -0.2098 -1.7485
15912SOL    HW260210   8.832   6.435   7.914  0.6611 -0.2877 -1.2653
15913SOL     OW60211   7.286   5.863   5.578  0.0169 -0.0981  0.0436
15913SOL    HW160212   7.250   5.955   5.560 -2.0936 -0.7291  1.0303
15913SOL    HW260213   7.330   5.829   5.495 -0.9011  1.0253 -0.9296
15914SOL     OW60214   8.364   4.636   5.135  0.4772 -0.4477  0.1672
15914SOL    HW160215   8.359   4.555   5.076 -1.6289 -0.0209 -0.2888
15914SOL    HW260216   8.456   4.674   5.131  0.7209 -1.1759 -1.8581
15915SOL     OW60217   2.502   8.294   6.322  0.5408 -0.4308  0.3630
15915SOL    HW160218   2.529   8.372   6.265 -0.7275 -0.6204 -0.5200
15915SOL    HW260219   2.582   8.238   6.342  1.4755  1.1051  1.0240
15916SOL     OW60220   5.144   7.001   3.526 -0.4239 -0.8268 -0.5192
15916SOL    HW160221   5.151   7.101   3.534  1.4052 -0.9804 -0.0222
15916SOL    HW260222   5.177   6.959   3.610  2.1596 -1.9635 -2.0537
15917SOL     OW60223   8.079   3.749   8.422 -0.3413  0.2111  0.0096
15917SOL    HW160224   8.169   3.782   8.397  0.9353 -0.9966  2.7722
15917SOL    HW260225   8.062   3.660   8.380 -0.0522  0.2362 -0.1571
15918SOL     OW60226   2.802   4.743   7.955 -0.2159  0.1194  0.1907
15918SOL    HW160227   2.821   4.737   8.053  1.0134 -1.2232 -0.1071
15918SOL    HW260228   2.888   4.759   7.905 -0.4167 -1.9996 -0.8775
15919SOL     OW60229   2.132   6.913   7.040 -0.1484 -0.2102  0.3789
15919SOL    HW160230   2.085   6.872   6.961 -0.1925 -2.6148  1.6178
15919SOL    HW260231   2.225   6.938   7.014 -0.6465  0.3940 -0.8490
15920SOL     OW60232   6.754   5.747   3.191 -0.0626  0.3540 -0.2346
15920SOL    HW160233   6.842   5.706   3.217  0.2445  0.2801 -1.3968
15920SOL    HW260234   6.760   5.847   3.202 -1.1129  0.0858  3.5169
15921SOL     OW60235   8.905   7.808   7.157  0.5356  0.2018  0.3627
15921SOL    HW160236   8.900   7.738   7.085 -2.1607  1.1666 -0.4857
15921SOL    HW260237   8.984   7.866   7.142  1.6228 -1.3792 -0.1360
15922SOL     OW60238   4.508   6.032   6.156 -0.0744 -0.1747 -0.5733
15922SOL    HW160239   4.453   6.041   6.073  0.9272  1.1425 -1.1029
15922SOL    HW260240   4.591   5.980   6.135 -0.7899 -1.6265  0.0888
15923SOL     OW60241   1.810   2.927   5.245  0.3756 -0.0312  0.1405
15923SOL    HW160242   1.870   2.858   5.205 -0.1892 -0.6950  0.4286
15923SOL    HW260243   1.846   2.954   5.335 -0.6577 -1.6728  1.0670
15924SOL     OW60244   7.030   4.565   0.509 -0.2150 -0.2822  0.1757
15924SOL    HW160245   6.973   4.560   0.591 -0.3990 -0.4118  0.0412
15924SOL    HW260246   7.097   4.638   0.520 -2.8549  2.4699 -1.1682
15925SOL     OW60247   0.129   2.974   3.628 -0.4296 -0.4156 -0.4261
15925SOL    HW160248   0.197   2.902   3.617  0.9685  0.7917  0.1607
15925SOL    HW260249   0.142   3.043   3.557 -1.3840 -0.4355 -0.6290
15926SOL     OW60250   3.496   4.425   3.431  0.2339 -0.5548  0.1657
15926SOL    HW160251   3.411   4.386   3.466  0.2206 -2.1630 -1.5338
15926SOL    HW260252   3.476   4.483   3.352  0.6431 -0.3978  0.1748
15927SOL     OW60253   2.834   2.868   0.403 -0.4504  0.6563  0.2431
15927SOL    HW160254   2.752   2.879   0.347 -0.0984 -0.2079 -0.4560
15927SOL    HW260255   2.885   2.954   0.404 -1.0756  1.0350  0.2340
15928SOL     OW60256   4.165   2.388   2.807 -0.3930 -0.0516  0.3202
15928SOL    HW160257   4.250   2.338   2.823  0.2183  0.6783 -0.5771
15928SOL    HW260258   4.155   2.460   2.877 -0.7477 -0.7472  0.9850
15929SOL     OW60259   7.370   4.704   7.038  0.3601 -0.3076 -0.1276
15929SOL    HW160260   7.277   4.677   7.014  0.1798  0.3184 -0.1285
15929SOL    HW260261   7.401   4.651   7.117 -0.5277  0.5350  0.7893
15930SOL     OW60262   0.913   5.601   3.498  0.2473 -0.4672  0.4237
15930SOL    HW160263   0.978   5.676   3.510  1.5061 -1.2966 -1.1943
15930SOL    HW260264   0.827   5.624   3.546  0.8142  1.7413  0.4183
15931SOL     OW60265   0.056   4.141   8.675  0.0050 -0.0796  0.4330
15931SOL    HW160266   0.053   4.111   8.580  0.4865  0.6571  0.1778
15931SOL    HW260267  -0.023   4.200   8.694  1.7778  2.7045 -0.5406
15932SOL     OW60268   1.772   4.059   0.570  0.3243 -0.0380  0.2174
15932SOL    HW160269   1.711   4.085   0.494 -1.9033 -0.4985  1.7925
15932SOL    HW260270   1.803   4.141   0.617  0.4440  0.1823 -0.2447
15933SOL     OW60271   1.925   7.012   1.569  0.2581  0.3556  0.1603
15933SOL    HW160272   1.921   6.966   1.480  2.3047 -0.1479  0.3119
15933SOL    HW260273   1.917   6.944   1.642  2.0865  0.3369  0.3711
15934SOL     OW60274   0.642   1.053   7.531  0.0249  0.0385  0.3828
15934SOL    HW160275   0.573   1.046   7.603  0.4340 -2.1594  0.5962
15934SOL    HW260276   0.638   0.972   7.473  1.1328  0.8009 -0.7959
15935SOL     OW60277   6.468   5.143   1.401  0.0159 -0.1310  0.4110
15935SOL    HW160278   6.436   5.097   1.319  0.6207  1.5101 -0.7595
15935SOL    HW260279   6.437   5.239   1.401  0.2653 -0.0259  1.9421
15936SOL     OW60280   8.584   3.036   8.181 -0.1308 -0.1848  0.1168
15936SOL    HW160281   8.666   2.994   8.143 -0.8752 -2.5027  1.0106
15936SOL    HW260282   8.521   3.058   8.106  1.3555  1.8138 -0.5977
15937SOL     OW60283   1.097   5.763   7.075  0.3197  0.5670  0.0539
15937SOL    HW160284   1.015   5.720   7.112 -0.9500  3.2463  0.5128
15937SOL    HW260285   1.071   5.832   7.007  2.3519 -0.4642 -1.8032
15938SOL     OW60286   1.273   2.917   5.842  0.0618  0.1100  0.4313
15938SOL    HW160287   1.298   3.011   5.818  2.0079 -0.7964 -1.2633
15938SOL    HW260288   1.265   2.863   5.758 -0.3062 -1.3959  1.4360
15939SOL     OW60289   7.432   3.086   1.072  0.1254 -0.1095 -0.8634
15939SOL    HW160290   7.423   3.019   1.146  0.1245 -0.9090 -1.5830
15939SOL    HW260291   7.341   3.113   1.041  0.0482  2.0284  1.0062
15940SOL     OW60292   8.041   1.229   2.171 -0.2490  0.3398  0.6416
15940SOL    HW160293   8.054   1.328   2.174 -0.2693  0.3402  0.7266
15940SOL    HW260294   8.006   1.202   2.082  2.7358  0.0610 -0.4813
15941SOL     OW60295   5.854   2.999   2.339 -0.0574  1.0650  0.5528
15941SOL    HW160296   5.881   2.950   2.256 -0.8655  1.3674  0.1032
15941SOL    HW260297   5.906   3.084   2.345 -0.0066  1.0496  0.3502
15942SOL     OW60298   3.254   3.898   2.003  0.1295  0.6030 -0.2572
15942SOL    HW160299   3.257   3.942   1.913 -1.2732 -0.9407 -1.0956
15942SOL    HW260300   3.161   3.867   2.022  0.8686 -1.0999  0.7319
15943SOL     OW60301   8.902   3.594   7.158  0.5172 -0.3640 -0.7618
15943SOL    HW160302   8.964   3.670   7.140 -1.8913  1.5344 -1.3948
15943SOL    HW260303   8.874   3.553   7.072 -2.2140  1.4354 -0.8048
15944SOL     OW60304   4.840   4.730   5.905  0.3766  0.2662 -0.3955
15944SOL    HW160305   4.888   4.659   5.852 -0.8937  0.3278 -1.6562
15944SOL    HW260306   4.866   4.723   6.001  2.2477 -0.2603 -0.9213
15945SOL     OW60307   3.771   5.427   6.516  0.3539 -0.1879  0.8450
15945SOL    HW160308   3.795   5.521   6.494  0.6879 -0.4326  0.1440
15945SOL    HW260309   3.819   5.399   6.599 -2.3990  1.3660  3.0570
15946SOL     OW60310   6.259   2.122   6.428 -0.0288 -0.0955 -0.0516
15946SOL    HW160311   6.249   2.204   6.371 -1.2366 -0.4950 -0.4324
15946SOL    HW260312   6.354   2.113   6.458  0.9601 -0.7119 -3.2220
15947SOL     OW60313   4.910   2.652   8.062 -0.0364  0.3930 -0.1635
15947SOL    HW160314   4.902   2.748   8.088  1.4424  0.2766  0.7456
15947SOL    HW260315   4.832   2.627   8.005 -0.4220  2.1427 -0.4463
15948SOL     OW60316   6.584   3.702   5.336  0.3880 -1.1127 -0.2772
15948SOL    HW160317   6.504   3.754   5.306  0.5262 -0.5302  0.3688
15948SOL    HW260318   6.612   3.640   5.262 -0.1914 -0.7728 -0.7923
15949SOL     OW60319   7.249   4.352   0.734 -0.1132  0.2739  0.0072
15949SOL    HW160320   7.245   4.418   0.809 -1.8820  1.1864 -0.8425
15949SOL    HW260321   7.292   4.395   0.654  0.0963 -0.0959 -0.0798
15950SOL     OW60322   6.826   2.429   1.617 -0.0145  0.2166 -0.0121
15950SOL    HW160323   6.773   2.468   1.541 -0.8118 -0.0969  0.3831
15950SOL    HW260324   6.780   2.450   1.704  0.9264  0.6274  0.3980
15951SOL     OW60325   7.172   0.647   1.488  0.3513  0.0185  0.6146
15951SOL    HW160326   7.106   0.607   1.552  0.5744 -0.2802  0.6578
15951SOL    HW260327   7.255   0.591   1.486 -0.3235 -0.9615 -1.2318
15952SOL     OW60328   8.290   3.291   4.962  0.0894  0.1828 -0.3241
15952SOL    HW160329   8.197   3.318   4.987 -0.0230 -1.5034  1.1905
15952SOL    HW260330   8.340   3.371   4.930 -1.7441  1.1945 -0.7360
15953SOL     OW60331   2.814   4.275   2.644  0.5642  0.0772 -0.6663
15953SOL    HW160332   2.911   4.281   2.669 -0.1906 -0.0595  2.4856
15953SOL    HW260333   2.777   4.367   2.632  0.1039  0.3346  2.3363
15954SOL     OW60334   5.508   6.924   0.516  0.2275 -0.6317 -0.7059
15954SOL    HW160335   5.472   6.892   0.428  1.7285 -0.9737 -1.2152
15954SOL    HW260336   5.607   6.935   0.509  0.3594 -0.6663  0.9547
15955SOL     OW60337   4.793   5.935   6.429 -0.0731 -0.2300 -0.0938
15955SOL    HW160338   4.699   5.902   6.435  0.0135 -0.4522  0.0607
15955SOL    HW260339   4.834   5.906   6.342  0.0082 -0.5533  0.0482
15956SOL     OW60340   4.879   4.065   5.411 -0.6766  0.1858  0.0016
15956SOL    HW160341   4.888   4.138   5.344  0.5295 -0.1324 -0.2020
15956SOL    HW260342   4.958   4.004   5.404 -1.1210 -0.5076  0.9213
15957SOL     OW60343   8.103   4.853   0.406  0.4932  0.1036 -0.0190
15957SOL    HW160344   8.093   4.916   0.483  1.9732 -0.2540  0.4946
15957SOL    HW260345   8.200   4.843   0.384 -0.0077  1.4059 -2.9556
15958SOL     OW60346   6.837   2.749   2.224  0.0084  0.3309  0.4603
15958SOL    HW160347   6.766   2.819   2.215  1.2285  1.3928 -1.3047
15958SOL    HW260348   6.913   2.785   2.278  0.1144 -0.0623  0.5752
15959SOL     OW60349   0.730   8.792   2.700 -0.1348  0.0548  0.7285
15959SOL    HW160350   0.671   8.755   2.770 -0.3585  0.5859  0.8214
15959SOL    HW260351   0.772   8.877   2.732  0.5679 -0.2440  0.6135
15960SOL     OW60352   8.816   0.878   8.661 -0.1684  0.1848 -0.2036
15960SOL    HW160353   8.910   0.914   8.657  0.5049 -1.2875  1.7689
15960SOL    HW260354   8.783   0.880   8.755 -1.7502 -0.2871 -0.7328
15961SOL     OW60355   3.360   5.843   6.475  0.2197 -0.0542 -0.4451
15961SOL    HW160356   3.377   5.918   6.411  0.7869 -0.2196 -0.4973
15961SOL    HW260357   3.428   5.771   6.460  1.5161  0.7025  1.5604
15962SOL     OW60358   3.737   3.952   7.398 -0.0747 -0.7456  0.3722
15962SOL    HW160359   3.681   4.000   7.465 -0.7547  1.1096 -1.4613
15962SOL    HW260360   3.684   3.938   7.314  2.4249  1.8949 -1.7622
15963SOL     OW60361   7.452   0.571   1.477  0.2366 -0.0411 -0.1184
15963SOL    HW160362   7.500   0.658   1.494  1.0553 -0.3323 -0.8859
15963SOL    HW260363   7.464   0.546   1.381 -0.7899 -0.5312 -0.1118
15964SOL     OW60364   3.751   3.630   4.305  0.1189  0.3163  0.0776
15964SOL    HW160365   3.734   3.713   4.358  2.9096  1.6901 -1.1048
15964SOL    HW260366   3.822   3.576   4.350  2.1477  1.2474 -1.9370
15965SOL     OW60367   8.550   1.786   5.987 -0.7200  0.3489 -0.2550
15965SOL    HW160368   8.549   1.796   6.087 -2.5823 -1.0315 -0.1286
15965SOL    HW260369   8.563   1.876   5.945 -0.3968  0.9987  1.2263
15966SOL     OW60370   2.361   6.153   4.330  0.6279 -0.1494  0.1177
15966SOL    HW160371   2.359   6.251   4.310 -2.5087 -0.4515 -1.3052
15966SOL    HW260372   2.382   6.139   4.427 -1.8486  2.0757  1.0352
15967SOL     OW60373   7.606   3.329   8.400  0.5087 -0.4336 -0.1658
15967SOL    HW160374   7.686   3.389   8.404 -0.3563  0.7326  0.2030
15967SOL    HW260375   7.565   3.323   8.491  0.2664 -1.1476 -0.3218
15968SOL     OW60376   3.501   5.111   0.063  0.1584  0.5160  0.4538
15968SOL    HW160377   3.497   5.172  -0.015 -0.8514 -1.1763 -0.8502
15968SOL    HW260378   3.564   5.036   0.044 -2.0062 -1.2926  0.2032
15969SOL     OW60379   6.197   7.760   5.281 -0.0425  0.0026  0.0346
15969SOL    HW160380   6.285   7.773   5.328 -0.5374  1.7124  0.5048
15969SOL    HW260381   6.202   7.800   5.190 -0.2882 -0.0421  0.0034
15970SOL     OW60382   0.898   0.390   7.085  0.0314 -0.1435 -0.1856
15970SOL    HW160383   0.882   0.411   6.989 -0.4506 -0.3752 -0.1564
15970SOL    HW260384   0.839   0.315   7.113  0.8292 -0.6831  0.0544
15971SOL     OW60385   6.869   2.844   1.314  0.3026  0.3894 -0.3652
15971SOL    HW160386   6.964   2.861   1.340 -0.2898  1.6989  1.0027
15971SOL    HW260387   6.858   2.859   1.216  1.2920  1.2195 -0.3609
15972SOL     OW60388   0.838   0.058   2.668 -0.2939  0.4241 -0.3134
15972SOL    HW160389   0.762   0.083   2.727  0.7774 -1.9301  2.1666
15972SOL    HW260390   0.894   0.140   2.649 -1.1631  1.3834  1.1778
15973SOL     OW60391   7.614   6.563   4.210 -0.3742  0.2518  0.0416
15973SOL    HW160392   7.638   6.545   4.305 -0.1630 -0.5455 -0.1665
15973SOL    HW260393   7.540   6.630   4.207  0.5620  1.3381  0.7309
15974SOL     OW60394   3.170   7.692   7.308 -0.0254 -0.0578 -0.2437
15974SOL    HW160395   3.241   7.751   7.348  0.9365 -0.9160 -0.6604
15974SOL    HW260396   3.190   7.677   7.212 -0.9242 -0.1066 -0.4240
15975SOL     OW60397   1.127   4.087   0.282  0.1615 -0.5662  0.0710
15975SOL    HW160398   1.207   4.144   0.299  0.9022 -1.5972  0.0798
15975SOL    HW260399   1.156   3.991   0.272 -0.8950 -0.7499 -1.3582
15976SOL     OW60400   4.599   6.559   8.114  0.4623  0.5214  0.0839
15976SOL    HW160401   4.656   6.551   8.032  2.1941 -0.9064  1.3666
15976SOL    HW260402   4.614   6.649   8.155  0.5958  0.7507 -0.4605
15977SOL     OW60403   2.132   3.001   0.621 -0.0467 -0.5226 -0.7098
15977SOL    HW160404   2.184   2.929   0.575 -0.6186 -1.0015 -0.6153
15977SOL    HW260405   2.174   3.020   0.710  1.8432  1.3396 -1.9587
15978SOL     OW60406   0.931   1.128   4.186  0.3222 -0.0582  0.1498
15978SOL    HW160407   0.906   1.101   4.278  0.2759 -0.7124 -0.0514
15978SOL    HW260408   0.903   1.222   4.169 -1.4089 -0.5638  0.1426
15979SOL     OW60409   8.118   7.645   5.793  0.4055 -0.1437  0.3318
15979SOL    HW160410   8.097   7.668   5.888  1.6803  0.0270  0.5791
15979SOL    HW260411   8.123   7.546   5.783 -2.3038 -0.2795 -0.1340
15980SOL     OW60412   0.053   3.212   7.537  0.7790 -0.3438  0.3542
15980SOL    HW160413  -0.046   3.222   7.553  1.0367 -0.2595  1.9851
15980SOL    HW260414   0.080   3.272   7.462 -0.6910 -1.5851 -1.2282
15981SOL     OW60415   2.806   1.763   3.734  0.1008  0.2796  0.8701
15981SOL    HW160416   2.863   1.725   3.661 -0.4338 -0.0167  0.6039
15981SOL    HW260417   2.791   1.694   3.804 -0.8271  0.0023  0.4124
15982SOL     OW60418   1.242   4.951   2.976 -0.1980 -0.3878  0.4982
15982SOL    HW160419   1.197   4.910   3.056 -1.1468 -0.6849 -0.1815
15982SOL    HW260420   1.273   5.043   3.000  1.1951 -1.1678  1.7690
15983SOL     OW60421   3.248   8.538   3.385  0.0706  0.1880  0.0374
15983SOL    HW160422   3.340   8.535   3.426  0.1280 -0.4801 -0.1355
15983SOL    HW260423   3.180   8.539   3.458  0.2313  1.7197  0.1871
15984SOL     OW60424   3.081   7.401   0.939  1.0506  0.0940 -0.0251
15984SOL    HW160425   3.101   7.430   0.846  1.0496 -0.0931 -0.0840
15984SOL    HW260426   3.002   7.452   0.974 -0.7568 -1.8869 -1.1528
15985SOL     OW60427   3.543   3.638   2.350  0.5623  0.3552  0.3104
15985SOL    HW160428   3.514   3.731   2.329  0.9305  0.3509 -0.2134
15985SOL    HW260429   3.486   3.601   2.423  1.4624  1.5635  1.6458
15986SOL     OW60430   2.007   8.674   1.012 -0.5132 -0.3291  0.1490
15986SOL    HW160431   2.006   8.651   1.109  0.1055  1.6544  0.6414
15986SOL    HW260432   1.990   8.772   1.000 -3.0820 -0.9319 -1.8865
15987SOL     OW60433   1.090   2.348   1.129  0.6535 -0.4797  0.6362
15987SOL    HW160434   1.038   2.392   1.202  1.3267 -1.4193  1.6918
15987SOL    HW260435   1.141   2.417   1.079 -0.7239  0.3166  0.2881
15988SOL     OW60436   5.755   0.145   0.382  0.1817  0.3128  0.3580
15988SOL    HW160437   5.734   0.048   0.373  0.4046  0.4026 -1.1913
15988SOL    HW260438   5.733   0.175   0.475 -0.8765 -0.9785  0.5403
15989SOL     OW60439   7.799   5.678   4.232 -0.3067 -0.3575 -0.0141
15989SOL    HW160440   7.821   5.776   4.226 -1.2482 -0.2121 -1.3721
15989SOL    HW260441   7.779   5.654   4.326 -1.0490  0.9859  0.1919
15990SOL     OW60442   7.712   0.788   0.561  0.0134 -0.1636  0.2913
15990SOL    HW160443   7.708   0.715   0.493  0.2269  1.5388 -1.6085
15990SOL    HW260444   7.744   0.751   0.648 -0.2484 -2.3888 -0.5270
15991SOL     OW60445   1.403   0.689   7.876 -0.9950  0.1881 -0.0220
15991SOL    HW160446   1.316   0.722   7.914 -1.7562  1.5198 -2.8376
15991SOL    HW260447   1.470   0.762   7.878 -1.3642  0.6222 -2.1775
15992SOL     OW60448   5.883   1.503   7.525  0.5208 -0.2734 -0.0970
15992SOL    HW160449   5.891   1.547   7.436  2.0430 -2.1410 -0.9218
15992SOL    HW260450   5.791   1.464   7.536  0.6438 -0.8953 -1.2662
15993SOL     OW60451   4.572   1.218   7.182  0.3387 -0.1453 -0.2501
15993SOL    HW160452   4.624   1.139   7.214 -0.8257 -1.2972 -1.1279
15993SOL    HW260453   4.483   1.221   7.227  0.5225  0.8911  0.0607
15994SOL     OW60454   1.273   5.357   2.851 -0.5071 -0.6874  0.1351
15994SOL    HW160455   1.330   5.305   2.788  0.8325  0.2928  0.5309
15994SOL    HW260456   1.201   5.404   2.800  1.1664  0.9061 -0.8294
15995SOL     OW60457   8.802   3.716   8.904 -0.3933  0.1215 -0.4176
15995SOL    HW160458   8.753   3.665   8.834 -0.2736  2.5452 -2.3229
15995SOL    HW260459   8.877   3.767   8.862  0.0631  1.1304  1.5567
15996SOL     OW60460   4.262   5.785   5.956  0.1779 -0.1950  0.1697
15996SOL    HW160461   4.266   5.727   6.038 -0.6180 -0.1678  0.2322
15996SOL    HW260462   4.174   5.832   5.953 -0.2910 -1.1539 -1.3512
15997SOL     OW60463   1.079   3.884   4.008 -0.3678  0.4842 -0.1742
15997SOL    HW160464   1.017   3.939   4.064  0.0323  0.4136  0.3372
15997SOL    HW260465   1.074   3.788   4.036  0.5043  0.5888  0.3525
15998SOL     OW60466   2.261   6.116   1.422 -0.0503  0.4495  0.0037
15998SOL    HW160467   2.299   6.062   1.497  1.9520  1.0557 -0.5320
15998SOL    HW260468   2.161   6.117   1.428  0.0030 -1.2564  1.4226
15999SOL     OW60469   2.777   7.257   7.187 -0.1982  0.1074 -0.1802
15999SOL    HW160470   2.848   7.322   7.213  0.0097 -0.2180  0.0654
15999SOL    HW260471   2.783   7.238   7.089 -0.9861  1.3403 -0.4718
16000SOL     OW60472   6.711   4.761   1.938  0.6265 -0.0250 -0.0862
16000SOL    HW160473   6.620   4.802   1.929  0.6366  0.0403  0.0981
16000SOL    HW260474   6.780   4.834   1.936  0.7304 -0.1472 -1.1076
16001SOL     OW60475   0.605   0.373   5.524  0.1010 -0.2095 -0.1082
16001SOL    HW160476   0.508   0.359   5.506 -0.4956  0.9889  2.0466
16001SOL    HW260477   0.638   0.301   5.587  0.9296 -1.3448 -1.7985
16002SOL     OW60478   0.009   0.507   8.769 -0.5116  0.4019  0.0727
16002SOL    HW160479   0.031   0.413   8.745 -0.8217 -0.1163  1.7219
16002SOL    HW260480  -0.090   0.520   8.764 -0.8475 -0.4304  3.3657
16003SOL     OW60481   6.613   6.667   0.048  0.0310  0.1782  0.4511
16003SOL    HW160482   6.597   6.630  -0.043  0.3455  0.4161  0.2986
16003SOL    HW260483   6.607   6.593   0.116  1.5945 -0.3437  0.0565
16004SOL     OW60484   8.016   5.780   2.964  0.0071 -0.3392 -0.2156
16004SOL    HW160485   8.050   5.743   2.877 -1.8501  1.7171 -1.9015
16004SOL    HW260486   7.917   5.793   2.957  0.1627  1.9701  1.3821
16005SOL     OW60487   2.803   1.751   1.188 -0.0428 -0.3396  0.3192
16005SOL    HW160488   2.854   1.731   1.104 -0.0524  0.5576  0.1025
16005SOL    HW260489   2.728   1.813   1.168  1.4991  1.9603  1.4387
16006SOL     OW60490   5.201   8.147   0.385 -0.0240 -0.5926 -0.3101
16006SOL    HW160491   5.208   8.227   0.445  2.4328 -1.1368  0.2067
16006SOL    HW260492   5.285   8.140   0.331 -0.4432 -2.5294 -0.7152
16007SOL     OW60493   0.269   1.226   4.475 -0.0491  0.1004  0.2631
16007SOL    HW160494   0.186   1.219   4.421  0.3066 -0.3648 -0.2307
16007SOL    HW260495   0.324   1.143   4.463  1.9834  1.6722 -1.9131
16008SOL     OW60496   0.729   0.140   8.839 -0.4184 -0.5633  0.4151
16008SOL    HW160497   0.648   0.158   8.894 -0.5837  1.2693 -0.4112
16008SOL    HW260498   0.808   0.186   8.879 -0.4791  0.5354 -0.7095
16009SOL     OW60499   8.221   0.411   7.877 -0.2344  0.1118  0.2326
16009SOL    HW160500   8.321   0.406   7.873 -0.2029  1.6013 -1.2142
16009SOL    HW260501   8.193   0.492   7.928 -0.6887  1.0188 -1.4218
16010SOL     OW60502   8.563   2.272   0.061 -0.0738 -0.3621  0.3977
16010SOL    HW160503   8.532   2.183   0.094 -0.6119 -0.5712 -0.6700
16010SOL    HW260504   8.553   2.277  -0.038 -1.4229  1.4029  0.5754
16011SOL     OW60505   7.781   4.774   5.647  0.2130  0.1737 -0.1554
16011SOL    HW160506   7.801   4.871   5.636  0.2618  0.2004  0.1605
16011SOL    HW260507   7.682   4.760   5.640  0.1802  0.2850  0.0853
16012SOL     OW60508   0.687   3.860   6.694 -0.0847  0.0759 -0.0893
16012SOL    HW160509   0.745   3.886   6.771  1.7754 -2.0956 -0.7086
16012SOL    HW260510   0.705   3.922   6.617  2.0888 -1.1067 -0.5661
16013SOL     OW60511   1.778   4.166   2.788  0.1231 -0.6584  0.1912
16013SOL    HW160512   1.683   4.146   2.813  0.4439 -0.5191  1.6087
16013SOL    HW260513   1.802   4.258   2.822  1.7530 -1.9842  2.8199
16014SOL     OW60514   7.244   4.518   4.427  0.1122 -0.1308  0.7903
16014SOL    HW160515   7.198   4.591   4.478  1.3601  1.7976 -0.7943
16014SOL    HW260516   7.179   4.475   4.364 -0.7842 -0.8568  2.1631
16015SOL     OW60517   4.231   2.942   7.754 -0.7759  0.2979 -0.0658
16015SOL    HW160518   4.180   2.935   7.840 -0.9516  2.0364 -0.0052
16015SOL    HW260519   4.249   3.039   7.734  0.8828 -0.1980 -1.0376
16016SOL     OW60520   6.741   6.269   6.626  0.3486  0.0935  0.1734
16016SOL    HW160521   6.649   6.246   6.659 -0.0884 -0.1890 -1.2093
16016SOL    HW260522   6.768   6.357   6.665 -0.1715 -0.1923  1.2227
16017SOL     OW60523   7.133   2.940   7.990 -0.5789 -0.3376  0.1457
16017SOL    HW160524   7.196   3.001   8.038 -0.7087 -0.9937  1.1695
16017SOL    HW260525   7.072   2.896   8.056 -1.8983  0.0373 -0.8074
16018SOL     OW60526   4.133   5.075   4.315  0.1839  0.2123  0.0400
16018SOL    HW160527   4.068   5.051   4.242  0.3763 -1.4025  0.3765
16018SOL    HW260528   4.084   5.119   4.390 -0.2744  0.4398 -0.3911
16019SOL     OW60529   4.308   2.152   1.118  0.1782 -0.6294  0.0876
16019SOL    HW160530   4.312   2.055   1.096 -2.5643 -0.7101 -0.3574
16019SOL    HW260531   4.371   2.203   1.059  0.4584 -1.9664 -0.7731
16020SOL     OW60532   6.688   6.830   7.279 -0.0327  0.4382 -0.5425
16020SOL    HW160533   6.588   6.828   7.282 -0.0199  1.3487  0.5693
16020SOL    HW260534   6.723   6.743   7.314 -0.4206  0.3687 -0.3193
16021SOL     OW60535   7.304   4.173   7.491  0.1005 -0.5400  0.5437
16021SOL    HW160536   7.384   4.113   7.490  0.9665  0.5783 -0.9976
16021SOL    HW260537   7.332   4.266   7.467 -1.4299  0.2070  1.5353
16022SOL     OW60538   2.065   1.848   0.963 -0.2739  0.7312  0.3250
16022SOL    HW160539   2.093   1.865   0.869 -0.3453  2.3399  0.5801
16022SOL    HW260540   1.992   1.912   0.988 -0.7072 -0.1255  1.2527
16023SOL     OW60541   6.721   3.212   2.506  0.2090 -0.2449 -0.7198
16023SOL    HW160542   6.758   3.226   2.598  1.5026  0.9592 -1.4005
16023SOL    HW260543   6.632   3.256   2.498 -0.9539 -2.2559  0.6160
16024SOL     OW60544   6.053   4.110   3.294 -0.1035  0.7126  0.5250
16024SOL    HW160545   5.961   4.100   3.329  0.2028  0.6966  1.3216
16024SOL    HW260546   6.115   4.048   3.342 -0.0076 -0.5838 -1.2441
16025SOL     OW60547   2.098   3.485   7.002  0.2442  0.0696  0.3956
16025SOL    HW160548   2.021   3.536   7.040 -0.1548 -0.0994 -0.1840
16025SOL    HW260549   2.167   3.470   7.074  0.1106  0.9280  0.6998
16026SOL     OW60550   6.287   8.464   1.256 -0.1537 -0.2245 -0.0123
16026SOL    HW160551   6.203   8.490   1.207 -0.2640 -1.6716 -0.5941
16026SOL    HW260552   6.263   8.430   1.347 -0.1199  0.1630  0.1461
16027SOL     OW60553   7.322   0.660   4.145  0.0311 -0.4166  0.1926
16027SOL    HW160554   7.235   0.708   4.143  0.1256 -0.2356  0.3922
16027SOL    HW260555   7.370   0.681   4.231  0.1414 -0.7430  0.2128
16028SOL     OW60556   6.640   5.002   5.176  0.0424 -0.2063 -0.2222
16028SOL    HW160557   6.693   4.917   5.177  0.3987  0.0151  0.9139
16028SOL    HW260558   6.653   5.049   5.263 -0.2307  0.9644 -0.8150
16029SOL     OW60559   5.764   2.591   3.078  0.0290  0.1915 -0.0738
16029SOL    HW160560   5.794   2.685   3.090 -1.5496  0.4031  2.5993
16029SOL    HW260561   5.825   2.544   3.014  1.4229  2.7197 -0.6528
16030SOL     OW60562   8.002   3.385   2.022  0.4234 -1.0002  0.1474
16030SOL    HW160563   8.020   3.404   1.926  0.0099  0.6450  0.3915
16030SOL    HW260564   8.071   3.431   2.079 -1.1821  0.6676  0.7953
16031SOL     OW60565   5.306   5.574   2.640  0.6078  0.0282 -0.4910
16031SOL    HW160566   5.288   5.493   2.585 -0.4764 -0.6956  0.9234
16031SOL    HW260567   5.333   5.650   2.580  1.9687 -1.4534 -1.7864
16032SOL     OW60568   1.444   0.853   1.477 -0.9143  0.3330 -0.2737
16032SOL    HW160569   1.437   0.795   1.395  0.9987  1.3133 -1.1605
16032SOL    HW260570   1.416   0.946   1.454 -0.2060  0.6486  0.1464
16033SOL     OW60571   8.976   5.294   6.281  0.0812  0.0647  0.0937
16033SOL    HW160572   8.879   5.283   6.305 -0.6772  0.3351 -2.7357
16033SOL    HW260573   8.990   5.383   6.238  1.8381  0.5179  1.5489
16034SOL     OW60574   7.832   4.365   3.133  0.2041 -0.2008  0.1264
16034SOL    HW160575   7.746   4.381   3.084  0.8979  0.7790 -0.7794
16034SOL    HW260576   7.900   4.432   3.105  1.5730 -1.5703  0.1185
16035SOL     OW60577   7.953   7.406   1.265  0.1739 -0.9407 -0.1346
16035SOL    HW160578   7.878   7.469   1.282 -0.0749 -0.8877 -1.3782
16035SOL    HW260579   7.918   7.323   1.223  0.7871 -0.9785 -0.5841
16036SOL     OW60580   1.183   3.445   5.516  0.4584 -0.1054  0.4014
16036SOL    HW160581   1.158   3.534   5.478  1.4026 -0.5337 -1.2714
16036SOL    HW260582   1.176   3.448   5.616 -0.8692  1.4146  0.2828
16037SOL     OW60583   5.064   1.169   4.992  0.0877  0.4089 -0.0168
16037SOL    HW160584   5.084   1.238   4.922 -0.0071 -0.7221 -1.1858
16037SOL    HW260585   4.966   1.153   4.996  0.0910  0.4898  0.3979
16038SOL     OW60586   7.786   6.465   2.471  0.0632  0.0139 -0.2363
16038SOL    HW160587   7.796   6.538   2.404 -0.7671  0.4472  0.1142
16038SOL    HW260588   7.877   6.440   2.506  0.2464  1.6542  0.4795
16039SOL     OW60589   0.669   8.091   8.616 -0.5655  0.2685 -0.7687
16039SOL    HW160590   0.683   8.174   8.669  0.8266 -0.5586  0.1700
16039SOL    HW260591   0.629   8.020   8.675 -1.3185  0.1212 -1.4459
16040SOL     OW60592   5.799   6.327   4.110  0.0513  0.5079 -0.0454
16040SOL    HW160593   5.743   6.296   4.188 -0.4646  0.1934 -0.5376
16040SOL    HW260594   5.799   6.427   4.107 -2.2799  0.4963 -1.3136
16041SOL     OW60595   6.465   4.509   7.476  0.0694  0.4782  0.5501
16041SOL    HW160596   6.551   4.539   7.434  0.4186  0.7025  1.4245
16041SOL    HW260597   6.390   4.561   7.437  0.4027  0.7529  0.2683
16042SOL     OW60598   0.722   4.658   7.677 -0.0258  0.0703 -0.3317
16042SOL    HW160599   0.704   4.747   7.637 -1.4719  0.0778  0.2915
16042SOL    HW260600   0.638   4.621   7.716  0.3448 -1.9410 -1.3214
16043SOL     OW60601   2.771   2.412   5.934  0.3366 -0.1812  0.0773
16043SOL    HW160602   2.750   2.351   6.010  1.0034  0.0802  0.4788
16043SOL    HW260603   2.758   2.507   5.962  2.5948  0.0187  0.5320
16044SOL     OW60604   8.788   3.506   4.141  0.7090 -0.5269 -0.1972
16044SOL    HW160605   8.715   3.573   4.134  0.9051 -0.5140 -2.7614
16044SOL    HW260606   8.870   3.540   4.094  1.7781 -1.3175  1.0436
16045SOL     OW60607   3.645   7.411   4.406 -0.3668  0.1792  0.7484
16045SOL    HW160608   3.684   7.503   4.395  0.7463 -0.4178 -0.4069
16045SOL    HW260609   3.681   7.351   4.335  0.0157 -1.5289  2.3460
16046SOL     OW60610   0.890   6.407   0.129 -0.2058  0.8519  0.5642
16046SOL    HW160611   0.830   6.469   0.179 -0.3087 -0.0325  1.5584
16046SOL    HW260612   0.887   6.317   0.172 -0.5153 -0.0027 -1.2145
16047SOL     OW60613   1.113   7.763   7.088 -0.5849  0.3903 -0.2650
16047SOL    HW160614   1.064   7.782   7.002 -0.1345 -2.2483 -1.1408
16047SOL    HW260615   1.207   7.798   7.081 -0.1521 -0.9635 -1.3612
16048SOL     OW60616   8.064   4.175   5.531 -0.3681 -0.4395  0.6365
16048SOL    HW160617   7.988   4.145   5.472 -1.5202 -1.1839  2.4624
16048SOL    HW260618   8.027   4.212   5.616  1.2092  2.3397  0.1579
16049SOL     OW60619   7.619   8.018   4.290 -0.1341 -0.4285  0.0822
16049SOL    HW160620   7.668   8.095   4.330 -1.7173 -0.5552  2.3161
16049SOL    HW260621   7.686   7.949   4.259  1.1671  0.1706  1.4837
16050SOL     OW60622   8.068   6.136   7.453 -0.2013 -0.1760  0.6095
16050SOL    HW160623   8.107   6.141   7.545 -1.5653 -2.0513  1.3181
16050SOL    HW260624   8.093   6.049   7.411 -0.8734  0.0237 -0.2050
16051SOL     OW60625   5.365   2.703   6.497  0.2100  0.2367 -0.2687
16051SOL    HW160626   5.339   2.738   6.587  1.7672  1.3165 -0.2221
16051SOL    HW260627   5.285   2.662   6.453 -0.6116 -0.0971  1.5043
16052SOL     OW60628   1.304   7.780   6.078  0.2563  0.3400 -0.1570
16052SOL    HW160629   1.251   7.708   6.122  0.3776  0.6486  0.4978
16052SOL    HW260630   1.328   7.850   6.145  1.3073  0.3106 -0.4845
16053SOL     OW60631   8.558   3.462   7.977  0.3998  0.5463  0.0567
16053SOL    HW160632   8.574   3.372   7.937  0.3679  0.7083 -0.3236
16053SOL    HW260633   8.497   3.454   8.056  0.0282  0.2937 -0.2576
16054SOL     OW60634   8.598   7.450   2.351 -0.0454  0.0076  0.3041
16054SOL    HW160635   8.627   7.535   2.307 -0.9449 -0.1388 -0.6102
16054SOL    HW260636   8.569   7.469   2.445  2.3122  0.2542  1.0120
16055SOL     OW60637   7.596   1.367   8.029 -0.0311 -0.1115  0.0811
16055SOL    HW160638   7.582   1.373   7.930 -0.6146  0.1396  0.1803
16055SOL    HW260639   7.528   1.307   8.070 -0.0355  0.0997  0.3863
16056SOL     OW60640   0.400   1.018   7.676  0.3168  0.8084 -0.4153
16056SOL    HW160641   0.335   1.048   7.745  0.5038  0.1452  0.0508
16056SOL    HW260642   0.374   1.056   7.587 -0.6850  0.5717 -0.2291
16057SOL     OW60643   6.655   8.676   8.444 -0.4697 -0.1421  0.2293
16057SOL    HW160644   6.736   8.663   8.501  1.3518 -0.5119 -2.3489
16057SOL    HW260645   6.642   8.774   8.428 -1.9751  0.0883  2.5783
16058SOL     OW60646   0.885   4.295   6.367 -0.0093  1.4422 -0.4072
16058SOL    HW160647   0.882   4.279   6.269 -1.6659 -1.5886  0.0708
16058SOL    HW260648   0.798   4.334   6.397  0.3675  2.0408 -0.0724
16059SOL     OW60649   4.061   5.652   8.045 -0.5008 -0.4022  0.0085
16059SOL    HW160650   3.972   5.691   8.020 -0.5702 -0.7720 -0.3272
16059SOL    HW260651   4.048   5.562   8.087 -0.3901  0.2566  1.4925
16060SOL     OW60652   7.245   8.881   2.762 -0.4219 -0.9070  0.0594
16060SOL    HW160653   7.255   8.844   2.854 -1.1948 -0.4303  0.3342
16060SOL    HW260654   7.300   8.964   2.753 -0.1962 -1.0607  0.0315
16061SOL     OW60655   3.930   4.666   5.567  0.2679  0.6008  0.1718
16061SOL    HW160656   3.923   4.635   5.662 -1.9322 -2.0718 -0.8077
16061SOL    HW260657   4.022   4.644   5.533  0.4250 -0.2280  1.0773
16062SOL     OW60658   1.941   3.214   0.523  0.0967  0.0492 -0.2887
16062SOL    HW160659   1.856   3.163   0.533  0.0696 -0.0023 -0.7686
16062SOL    HW260660   2.016   3.164   0.567  0.2548 -0.8868 -1.5734
16063SOL     OW60661   7.416   2.002   3.672  0.1589  0.5500 -0.3938
16063SOL    HW160662   7.342   2.066   3.655  0.4113  1.7218  2.5608
16063SOL    HW260663   7.503   2.044   3.646  0.2070  0.9854  0.4399
16064SOL     OW60664   0.071   2.790   6.210  0.3209 -0.1346  0.5085
16064SOL    HW160665   0.117   2.713   6.167 -0.3565 -0.3549  0.1759
16064SOL    HW260666   0.110   2.875   6.177  2.4201 -0.3438  2.3485
16065SOL     OW60667   2.825   2.337   2.570  0.0445  0.0132 -0.1316
16065SOL    HW160668   2.818   2.238   2.586  2.0251 -0.2490 -0.7140
16065SOL    HW260669   2.756   2.365   2.503 -0.6484 -0.9372  0.1749
16066SOL     OW60670   1.476   4.941   8.520 -0.1625  0.2130  0.2837
16066SOL    HW160671   1.557   4.887   8.544 -0.9947 -2.1204 -1.9083
16066SOL    HW260672   1.397   4.904   8.567 -0.4087  0.7491  0.2893
16067SOL     OW60673   4.015   8.031   2.775  0.7295  0.2029 -0.5324
16067SOL    HW160674   3.947   7.978   2.826  1.2922 -0.1122 -0.1023
16067SOL    HW260675   4.048   8.106   2.832  0.6380  0.4498 -0.7983
16068SOL     OW60676   0.495   7.492   0.661  0.0175 -0.0878 -0.4497
16068SOL    HW160677   0.436   7.431   0.713 -0.3798 -0.8836 -1.8190
16068SOL    HW260678   0.454   7.510   0.572  0.9411  0.8494 -0.6945
16069SOL     OW60679   1.892   4.073   0.989 -0.4590  0.1220  0.5915
16069SOL    HW160680   1.965   4.133   1.019 -0.2919  0.0616  0.3143
16069SOL    HW260681   1.929   3.981   0.973 -0.3779  0.3411 -0.5408
16070SOL     OW60682   0.044   3.148   4.646 -0.1149 -0.0791 -0.0366
16070SOL    HW160683   0.009   3.181   4.558  1.1610 -1.9804 -1.2798
16070SOL    HW260684  -0.033   3.135   4.709 -1.3778 -1.3615 -1.7750
16071SOL     OW60685   8.162   5.881   2.215 -0.0693 -0.3910  0.2828
16071SOL    HW160686   8.161   5.791   2.259 -0.2442 -1.0497 -1.0600
16071SOL    HW260687   8.085   5.887   2.151 -0.1950  0.8042  0.5440
16072SOL     OW60688   8.299   0.274   1.432 -0.3001 -0.3207  0.0186
16072SOL    HW160689   8.345   0.204   1.487  0.7661 -0.5417 -1.1317
16072SOL    HW260690   8.216   0.235   1.392  0.1095 -0.8441 -0.3351
16073SOL     OW60691   0.630   7.483   0.920  0.6948 -0.4933 -0.2042
16073SOL    HW160692   0.611   7.495   0.823  0.1681  0.3510 -0.0051
16073SOL    HW260693   0.673   7.566   0.956  1.8551 -1.2008  0.0568
16074SOL     OW60694   3.448   1.309   6.293 -0.1648 -0.3667 -0.3877
16074SOL    HW160695   3.375   1.351   6.239 -1.2112  2.5622  3.0895
16074SOL    HW260696   3.411   1.231   6.344  0.5577 -2.4179 -2.8934
16075SOL     OW60697   2.405   2.769   1.350  0.5843 -0.0570  0.0513
16075SOL    HW160698   2.486   2.783   1.294 -0.5064  0.2264 -1.4786
16075SOL    HW260699   2.419   2.810   1.440  1.4182  1.6539 -0.8359
16076SOL     OW60700   0.589   5.578   6.662 -0.3326  0.1883  0.2133
16076SOL    HW160701   0.536   5.647   6.713  1.0345  1.4434 -0.0555
16076SOL    HW260702   0.679   5.568   6.704  0.7428  1.1031 -1.8360
16077SOL     OW60703   1.329   5.879   2.086  0.1740  0.1034 -0.1785
16077SOL    HW160704   1.361   5.862   1.993  2.9346  0.4424  0.6737
16077SOL    HW260705   1.303   5.793   2.129  1.5415 -0.3849 -0.3234
16078SOL     OW60706   0.341   7.398   7.900  0.3662 -0.6016 -0.4038
16078SOL    HW160707   0.388   7.477   7.940 -1.3825  0.2816 -0.0459
16078SOL    HW260708   0.319   7.332   7.971 -0.8800  0.0069 -0.2087
16079SOL     OW60709   7.668   6.192   4.841  0.7274  0.2885 -0.6078
16079SOL    HW160710   7.634   6.275   4.886  0.5464  0.2968 -0.7592
16079SOL    HW260711   7.633   6.111   4.889  0.1013  0.2922 -1.0465
16080SOL     OW60712   4.881   6.959   4.233  0.3275 -0.9326  0.5520
16080SOL    HW160713   4.841   7.047   4.206 -1.0314 -1.4952  0.7579
16080SOL    HW260714   4.828   6.884   4.193  0.8272 -1.6868  1.3073
16081SOL     OW60715   0.142   2.160   3.440 -0.6316 -0.0267  0.1428
16081SOL    HW160716   0.062   2.133   3.385  0.5770 -3.0636 -0.1778
16081SOL    HW260717   0.122   2.147   3.537 -1.3750  1.6156  0.2330
16082SOL     OW60718   2.564   7.145   0.476 -0.2001  0.4701  0.5384
16082SOL    HW160719   2.473   7.134   0.435 -0.5160 -2.2029  1.8329
16082SOL    HW260720   2.625   7.074   0.441  0.6567  0.6879  1.5778
16083SOL     OW60721   1.347   6.349   7.831 -0.2273  0.6082 -0.9224
16083SOL    HW160722   1.433   6.372   7.877  0.7619  0.3829 -2.5995
16083SOL    HW260723   1.347   6.390   7.740 -1.7287  0.2636 -1.0807
16084SOL     OW60724   6.288   7.130   8.590 -0.2404  0.0173  0.0885
16084SOL    HW160725   6.363   7.112   8.654  0.6609 -0.7293 -1.1678
16084SOL    HW260726   6.231   7.203   8.627 -0.6743 -1.4933  2.5217
16085SOL     OW60727   8.154   7.302   0.618 -0.4111 -0.3918  0.0751
16085SOL    HW160728   8.184   7.215   0.658  1.3361 -0.0335 -0.4149
16085SOL    HW260729   8.224   7.334   0.553 -1.0412  1.3839  0.2717
16086SOL     OW60730   2.057   3.029   3.381 -0.2001  0.1283 -0.2207
16086SOL    HW160731   2.010   3.117   3.379 -0.6001 -0.0739  0.2580
16086SOL    HW260732   2.063   2.996   3.475 -0.5002 -0.6020 -0.4529
16087SOL     OW60733   7.055   1.133   2.158  0.6728  0.3451  0.3051
16087SOL    HW160734   7.127   1.141   2.227  0.3402 -0.6817  0.7730
16087SOL    HW260735   7.089   1.170   2.071  1.9153 -0.4935  0.4074
16088SOL     OW60736   5.622   7.898   7.321  0.1865 -0.1794  0.2686
16088SOL    HW160737   5.697   7.832   7.317  0.9333  0.4596  2.7159
16088SOL    HW260738   5.539   7.852   7.352  0.4960 -0.1641  1.1377
16089SOL     OW60739   3.034   6.597   4.722  1.0650  0.0180 -0.0484
16089SOL    HW160740   3.053   6.523   4.787  3.7902 -0.3694 -1.2534
16089SOL    HW260741   2.987   6.559   4.642  1.1083 -0.1529  0.0050
16090SOL     OW60742   4.093   8.240   2.960 -0.2675 -0.2715 -0.7041
16090SOL    HW160743   4.166   8.239   2.892  0.2644 -0.4837 -0.1357
16090SOL    HW260744   4.116   8.303   3.033 -0.8674  0.0071 -0.7499
16091SOL     OW60745   3.331   5.311   2.293 -0.9122 -0.4585 -0.1157
16091SOL    HW160746   3.416   5.313   2.345  0.0249 -0.7653 -1.5976
16091SOL    HW260747   3.273   5.387   2.322  0.0790  0.0621  0.5505
16092SOL     OW60748   3.438   3.832   7.511  0.2882  0.6341  0.1028
16092SOL    HW160749   3.453   3.796   7.418  1.2176 -0.2133  0.5749
16092SOL    HW260750   3.372   3.774   7.559  0.6753  0.4119  0.3648
16093SOL     OW60751   5.861   4.358   1.066  0.1501 -0.2237 -0.8947
16093SOL    HW160752   5.845   4.266   1.030 -1.0527  0.6453 -2.6457
16093SOL    HW260753   5.841   4.358   1.164  0.7794 -1.9710 -0.7369
16094SOL     OW60754   8.646   4.997   8.468 -0.0801  0.3399 -0.3881
16094SOL    HW160755   8.743   5.016   8.475 -0.2431  1.0562 -0.0580
16094SOL    HW260756   8.594   5.065   8.520 -0.6831 -0.8233  0.5499
16095SOL     OW60757   5.990   0.386   8.112 -0.0429 -0.3768  0.3915
16095SOL    HW160758   5.896   0.412   8.136 -0.7254 -1.6464 -0.8450
16095SOL    HW260759   5.993   0.289   8.092  1.3058 -0.1022 -0.7682
16096SOL     OW60760   8.484   3.677   6.456 -0.2082  0.0216 -0.0401
16096SOL    HW160761   8.464   3.732   6.375  1.0165  2.4027  1.2120
16096SOL    HW260762   8.487   3.580   6.431 -0.2050  0.6856 -2.7609
16097SOL     OW60763   5.921   3.631   7.553  0.1893  0.2905  0.2494
16097SOL    HW160764   5.982   3.556   7.578  0.0752 -0.2370 -1.0293
16097SOL    HW260765   5.828   3.597   7.544 -0.0114  0.7593  0.5225
16098SOL     OW60766   8.269   6.905   1.072 -0.3451 -0.0318  0.2018
16098SOL    HW160767   8.344   6.954   1.027 -1.4323  0.9575 -0.5586
16098SOL    HW260768   8.250   6.820   1.024  2.3267 -1.8438  2.1971
16099SOL     OW60769   6.610   8.747   2.080 -0.2665  0.3449 -0.0852
16099SOL    HW160770   6.584   8.693   2.159 -2.1893  1.6732  0.2285
16099SOL    HW260771   6.631   8.841   2.109 -1.2888  0.9213 -1.1638
16100SOL     OW60772   0.147   3.803   0.535 -0.0558  0.4534  0.1140
16100SOL    HW160773   0.133   3.833   0.629 -1.2043  2.2916 -0.5940
16100SOL    HW260774   0.243   3.816   0.510  0.5972 -1.4870  1.4739
16101SOL     OW60775   8.103   2.763   2.130 -0.0250  0.0971  0.1229
16101SOL    HW160776   8.018   2.766   2.078  1.2665 -0.4988 -2.0442
16101SOL    HW260777   8.174   2.815   2.083  0.6946  1.0391  2.1815
16102SOL     OW60778   1.199   6.761   8.459  0.7789 -0.0271 -0.3389
16102SOL    HW160779   1.285   6.731   8.502  0.8781  0.9734  0.1732
16102SOL    HW260780   1.177   6.700   8.383  2.0436 -0.1994 -0.5856
16103SOL     OW60781   8.915   3.471   2.729 -0.4586 -0.3625 -0.0471
16103SOL    HW160782   8.897   3.427   2.641  1.6554 -1.8705  0.2140
16103SOL    HW260783   8.868   3.422   2.802 -1.1777  0.1181 -0.1855
16104SOL     OW60784   1.416   3.214   0.332 -0.3605 -0.0624 -0.3701
16104SOL    HW160785   1.421   3.150   0.408  0.6801 -0.7193 -0.9801
16104SOL    HW260786   1.498   3.271   0.330 -2.0280  2.4831  1.1825
16105SOL     OW60787   4.195   7.870   2.633 -0.3906  0.6762 -0.5616
16105SOL    HW160788   4.126   7.932   2.671 -1.1249  0.5024 -1.6012
16105SOL    HW260789   4.222   7.804   2.703  1.5420  3.0861  1.0860
16106SOL     OW60790   5.751   7.033   0.440 -0.1942  0.1939 -0.1140
16106SOL    HW160791   5.847   7.061   0.437 -0.1361 -0.1382 -2.1880
16106SOL    HW260792   5.708   7.052   0.352 -1.2896 -2.2482 -0.1469
16107SOL     OW60793   3.818   3.480   0.850  0.1757 -0.1652 -0.5719
16107SOL    HW160794   3.879   3.405   0.824 -0.4322 -0.8966  0.0812
16107SOL    HW260795   3.850   3.565   0.808  0.9693 -0.7550 -1.1834
16108SOL     OW60796   6.740   7.946   8.543 -0.2765 -0.2129 -0.4863
16108SOL    HW160797   6.692   7.967   8.458 -1.0304 -0.8186 -0.2255
16108SOL    HW260798   6.677   7.955   8.620  0.0826 -0.8096 -0.1130
16109SOL     OW60799   5.021   1.806   7.922 -0.2259  0.5306  0.1808
16109SOL    HW160800   5.081   1.810   7.842  0.6800 -0.8919  0.7717
16109SOL    HW260801   5.024   1.893   7.971  0.3352  0.9139 -0.5222
16110SOL     OW60802   4.501   5.961   8.153 -0.0429  0.1981  0.2743
16110SOL    HW160803   4.432   5.911   8.101  0.6359  0.2499 -0.6886
16110SOL    HW260804   4.592   5.928   8.129  0.3390  1.0017  0.5876
16111SOL     OW60805   3.964   2.620   4.859 -0.2788  0.5093  0.3776
16111SOL    HW160806   3.976   2.719   4.865 -1.6737  0.7976 -1.2137
16111SOL    HW260807   3.867   2.597   4.868  0.0811 -0.7703  1.2350
16112SOL     OW60808   6.563   4.797   8.527  0.3035  0.0242  0.5195
16112SOL    HW160809   6.465   4.817   8.533  0.7838  2.0070  2.7242
16112SOL    HW260810   6.580   4.703   8.554 -1.1727 -0.9104 -1.6906
16113SOL     OW60811   0.983   1.808   5.550  0.0971 -0.5849 -1.1509
16113SOL    HW160812   0.999   1.794   5.648  2.6902 -1.5301 -1.6643
16113SOL    HW260813   0.908   1.749   5.520 -1.2545  0.3063  0.4015
16114SOL     OW60814   7.740   0.675   5.457  0.1528 -0.1512  0.0685
16114SOL    HW160815   7.654   0.686   5.407 -1.0900  0.5765  2.2907
16114SOL    HW260816   7.809   0.636   5.397 -2.0344 -1.7640 -1.4758
16115SOL     OW60817   6.392   7.133   8.337  0.0125 -0.1645 -0.7804
16115SOL    HW160818   6.332   7.056   8.312  2.6660 -2.0209 -1.7131
16115SOL    HW260819   6.374   7.160   8.432 -2.3632 -0.5748 -1.0820
16116SOL     OW60820   3.860   8.368   2.816 -0.6182 -0.8020  0.5975
16116SOL    HW160821   3.952   8.328   2.820 -0.5646 -0.5400  2.7971
16116SOL    HW260822   3.792   8.298   2.836 -0.7490 -0.5409  1.0792
16117SOL     OW60823   6.724   1.869   8.995 -0.1227 -0.1465  0.0652
16117SOL    HW160824   6.819   1.846   9.019 -0.2209  0.8867  1.5046
16117SOL    HW260825   6.668   1.787   8.998  0.6756 -0.7293 -0.5757
16118SOL     OW60826   5.444   2.763   3.580 -0.1246 -0.0103 -0.2312
16118SOL    HW160827   5.363   2.720   3.619  1.2213  0.0487  2.7768
16118SOL    HW260828   5.497   2.695   3.529 -1.7175 -0.1691 -1.7351
16119SOL     OW60829   3.927   2.096   1.893 -0.5454  0.2790  0.5397
16119SOL    HW160830   4.000   2.033   1.921 -1.1296 -0.7078 -0.1437
16119SOL    HW260831   3.933   2.180   1.947  1.1375  0.2342  0.4534
16120SOL     OW60832   0.244   3.328   5.814  0.1998 -0.4696 -0.5629
16120SOL    HW160833   0.244   3.410   5.871  0.0622  0.0062 -1.2353
16120SOL    HW260834   0.194   3.347   5.729 -1.2738 -1.7507  0.0047
16121SOL     OW60835   4.872   8.371   4.233 -0.0144  0.2386  0.8031
16121SOL    HW160836   4.849   8.385   4.137 -0.5080  0.6511  0.9763
16121SOL    HW260837   4.789   8.380   4.289  0.1146 -0.8462  1.1847
16122SOL     OW60838   7.460   3.446   1.650  0.1852  0.1827  0.4947
16122SOL    HW160839   7.543   3.395   1.671  0.1115 -0.1266  0.0467
16122SOL    HW260840   7.471   3.541   1.679  1.3845  0.5749 -1.2051
16123SOL     OW60841   4.980   7.538   2.249  0.3187 -0.2579  0.4697
16123SOL    HW160842   5.037   7.571   2.324  1.1197 -1.1766  0.2774
16123SOL    HW260843   4.885   7.561   2.267  0.3101 -1.7292  2.4578
16124SOL     OW60844   7.294   4.454   1.600  0.2423  0.0880 -0.4449
16124SOL    HW160845   7.332   4.409   1.519  1.8016  0.1119  0.2371
16124SOL    HW260846   7.359   4.444   1.676 -2.6683 -2.9576  1.8086
16125SOL     OW60847   4.062   0.607   7.509  0.2035  0.2007  0.2975
16125SOL    HW160848   4.011   0.542   7.566 -0.8598 -0.3610 -1.2491
16125SOL    HW260849   4.158   0.606   7.535  0.0917 -1.5193  0.7431
16126SOL     OW60850   2.859   5.746   8.175 -0.1259  0.5818  0.5833
16126SOL    HW160851   2.851   5.811   8.100 -1.6271  1.3883  1.4327
16126SOL    HW260852   2.788   5.763   8.242  1.0599 -0.2788  2.0909
16127SOL     OW60853   1.986   2.217   7.650 -0.1086 -0.4032 -0.0473
16127SOL    HW160854   1.935   2.286   7.701 -0.4624 -0.6196 -0.1037
16127SOL    HW260855   2.041   2.162   7.714 -0.3487 -0.5053  0.0701
16128SOL     OW60856   5.140   7.157   2.409  0.4063  0.3273  0.5744
16128SOL    HW160857   5.176   7.082   2.353  0.9629  1.4752 -0.6427
16128SOL    HW260858   5.057   7.193   2.367  1.2158  1.6595  0.0713
16129SOL     OW60859   7.619   3.912   2.651  0.3303  0.2343  0.6642
16129SOL    HW160860   7.537   3.854   2.653 -0.2616  1.0569  0.5054
16129SOL    HW260861   7.656   3.921   2.743  2.3056 -3.0224  0.2572
16130SOL     OW60862   0.654   3.127   0.236 -0.3887 -0.6372  0.1413
16130SOL    HW160863   0.706   3.196   0.286 -0.8295 -1.0519  1.2036
16130SOL    HW260864   0.579   3.171   0.186 -0.1312 -0.2452  0.1035
16131SOL     OW60865   2.509   0.371   1.164 -0.9097  0.4423  0.4884
16131SOL    HW160866   2.564   0.394   1.243  0.0322  0.2715 -0.1124
16131SOL    HW260867   2.554   0.403   1.081 -1.0657 -0.8636 -0.1163
16132SOL     OW60868   6.667   3.839   2.107  0.4376  0.4205 -0.0673
16132SOL    HW160869   6.652   3.784   2.189 -0.4283 -0.0621 -0.5364
16132SOL    HW260870   6.591   3.903   2.096  0.1600 -0.0436 -0.9009
16133SOL     OW60871   8.754   4.009   8.637  0.3898 -0.1241 -0.6539
16133SOL    HW160872   8.712   3.952   8.566 -1.3815 -0.4895  0.6404
16133SOL    HW260873   8.835   3.963   8.673 -0.8261 -1.7333  0.1390
16134SOL     OW60874   6.695   1.925   7.521  0.2668 -0.2332  0.4041
16134SOL    HW160875   6.671   1.875   7.437  1.1520 -1.5701  0.9344
16134SOL    HW260876   6.673   2.022   7.509 -0.9911 -0.6557 -0.8321
16135SOL     OW60877   6.571   6.998   5.539  0.1407  0.1216  0.1916
16135SOL    HW160878   6.633   6.949   5.478 -0.1403  0.2963 -0.2371
16135SOL    HW260879   6.534   7.078   5.491  1.8478  1.7012  1.3980
16136SOL     OW60880   6.683   2.822   1.801 -0.5839  0.2222  0.0690
16136SOL    HW160881   6.711   2.729   1.826  0.1502  0.9100  1.9280
16136SOL    HW260882   6.729   2.849   1.716 -1.3200 -1.3355 -0.8446
16137SOL     OW60883   0.014   8.178   4.455  0.2494  0.5993 -0.2457
16137SOL    HW160884  -0.001   8.248   4.385  1.1639  1.7712  0.7040
16137SOL    HW260885  -0.025   8.208   4.541 -1.0289 -0.9204 -0.2762
16138SOL     OW60886   0.712   0.736   2.008  0.1647 -0.3394  0.5977
16138SOL    HW160887   0.645   0.736   1.934  0.4644  0.5004  0.3129
16138SOL    HW260888   0.710   0.825   2.055  0.8000 -0.4421  0.8281
16139SOL     OW60889   1.210   3.707   2.108  0.0209  0.3750 -0.7151
16139SOL    HW160890   1.164   3.794   2.126  0.1778  0.0352  1.4095
16139SOL    HW260891   1.293   3.724   2.054 -0.6666  1.3728 -1.4917
16140SOL     OW60892   5.639   7.467   4.418 -0.6754  0.0491  0.1305
16140SOL    HW160893   5.550   7.509   4.439 -0.5812  0.7942 -0.9077
16140SOL    HW260894   5.660   7.397   4.486 -2.3197 -0.5155  0.0806
16141SOL     OW60895   5.088   6.659   0.550 -0.5324  0.0928  0.4307
16141SOL    HW160896   5.124   6.740   0.597  0.7232 -0.0355 -0.2839
16141SOL    HW260897   5.156   6.626   0.484 -1.2905 -1.1759  0.2731
16142SOL     OW60898   4.873   6.065   3.696  0.1897  0.0773 -0.0264
16142SOL    HW160899   4.860   5.971   3.663 -4.5592  1.0544 -1.4123
16142SOL    HW260900   4.899   6.124   3.619  2.4764  0.0626  0.7066
16143SOL     OW60901   7.631   2.855   1.812 -0.0707 -0.0129  0.7475
16143SOL    HW160902   7.592   2.808   1.891  1.0740 -0.6025  0.9746
16143SOL    HW260903   7.587   2.821   1.729  0.2560 -0.9918  0.9662
16144SOL     OW60904   0.069   5.263   3.830 -0.3297 -0.0772 -0.1979
16144SOL    HW160905   0.037   5.185   3.777 -0.0762 -1.5840  1.8266
16144SOL    HW260906  -0.009   5.310   3.871 -0.3057 -0.9753  0.9061
16145SOL     OW60907   8.893   7.627   6.977 -0.1440  0.5633 -0.1393
16145SOL    HW160908   8.813   7.572   6.954  0.2317 -0.0069 -0.0836
16145SOL    HW260909   8.970   7.600   6.918  0.1543  0.7440  0.1664
16146SOL     OW60910   4.970   2.943   5.114 -0.7314  0.0437  0.0883
16146SOL    HW160911   4.924   2.882   5.179 -0.1688 -0.8937 -0.3785
16146SOL    HW260912   5.012   3.019   5.163  0.8016 -1.3427  0.9979
16147SOL     OW60913   1.637   6.908   2.150 -0.5939  0.0894  0.3294
16147SOL    HW160914   1.588   6.879   2.068  0.6059 -2.3188  0.4094
16147SOL    HW260915   1.571   6.934   2.221 -1.6687  0.4529 -0.7967
16148SOL     OW60916   1.723   4.461   6.296  0.0192  0.8093 -0.5348
16148SOL    HW160917   1.652   4.426   6.358  0.2957  1.4400  0.1434
16148SOL    HW260918   1.687   4.465   6.203  0.2108 -2.0005 -0.7790
16149SOL     OW60919   1.655   2.974   1.165  0.2409  0.0449  0.4471
16149SOL    HW160920   1.588   2.993   1.237 -0.4198 -0.5013 -0.0183
16149SOL    HW260921   1.710   2.893   1.190 -0.2026 -0.3371  0.1972
16150SOL     OW60922   2.922   2.806   2.105  0.0958 -0.0455  0.1762
16150SOL    HW160923   2.837   2.771   2.066 -0.0149 -0.1336  0.4942
16150SOL    HW260924   2.991   2.734   2.103  0.2255  0.0890 -0.2716
16151SOL     OW60925   5.317   5.932   8.614  0.0556  0.0044 -0.4488
16151SOL    HW160926   5.380   5.855   8.600 -1.6171 -2.1671  3.0944
16151SOL    HW260927   5.237   5.921   8.556  0.8548  0.2841 -1.6047
16152SOL     OW60928   1.500   4.181   4.050  0.7263 -0.2659  0.2058
16152SOL    HW160929   1.464   4.121   3.978  1.5580  0.7784 -1.0930
16152SOL    HW260930   1.519   4.271   4.012  2.4621 -0.0978  1.4156
16153SOL     OW60931   7.506   4.907   4.420 -0.7553 -0.9044  0.4537
16153SOL    HW160932   7.546   4.956   4.343 -0.9972 -1.0197  0.2551
16153SOL    HW260933   7.529   4.954   4.505  0.2585 -1.2715  0.3862
16154SOL     OW60934   5.990   3.907   3.543 -0.1347 -0.5895  0.1662
16154SOL    HW160935   6.058   3.979   3.560  1.3190 -1.6602 -1.0120
16154SOL    HW260936   6.034   3.829   3.498 -1.6792 -2.2549  1.4613
16155SOL     OW60937   6.964   7.101   0.936 -0.3923 -0.2348  0.3807
16155SOL    HW160938   7.014   7.017   0.957 -1.9805 -1.0702  0.9548
16155SOL    HW260939   6.959   7.113   0.837  1.8845  0.4654  0.3332
16156SOL     OW60940   5.451   4.866   4.358  0.6153 -0.2284 -0.9465
16156SOL    HW160941   5.499   4.932   4.301  1.4921  0.3320  0.4161
16156SOL    HW260942   5.493   4.863   4.448 -1.6864  0.0353  0.1892
16157SOL     OW60943   5.274   5.347   8.714  0.0814 -0.8138 -0.1811
16157SOL    HW160944   5.304   5.431   8.669 -0.7399 -1.0450 -1.1817
16157SOL    HW260945   5.222   5.370   8.796  2.4080 -0.3999  1.2129
16158SOL     OW60946   0.908   8.344   3.714  0.2711 -0.0850  0.2132
16158SOL    HW160947   0.819   8.389   3.718  1.1982  2.0693 -2.1594
16158SOL    HW260948   0.980   8.412   3.702  2.1925 -1.8646  1.1757
16159SOL     OW60949   3.468   7.612   1.991  0.2882 -0.3924  0.0288
16159SOL    HW160950   3.547   7.626   2.049  0.9335  2.1450 -1.4213
16159SOL    HW260951   3.428   7.700   1.966 -0.8159 -1.4907 -2.2222
16160SOL     OW60952   6.274   2.789   8.997  0.8383 -0.0205  0.1240
16160SOL    HW160953   6.355   2.802   8.940  0.6038 -1.1843 -0.4883
16160SOL    HW260954   6.192   2.803   8.942  0.6125 -1.0052  0.1939
16161SOL     OW60955   5.910   4.110   8.135 -0.7189 -0.1822 -0.2488
16161SOL    HW160956   5.978   4.118   8.208 -0.9315  1.2251 -0.1928
16161SOL    HW260957   5.826   4.068   8.171 -1.1009  1.2248  0.5006
16162SOL     OW60958   7.918   6.482   3.882 -0.3865 -0.3798  0.3308
16162SOL    HW160959   7.875   6.445   3.801 -0.0939 -1.2834  0.5834
16162SOL    HW260960   7.906   6.419   3.959 -0.1273  0.1727  0.8364
16163SOL     OW60961   2.735   5.041   4.351  0.2759  0.8232  0.3634
16163SOL    HW160962   2.741   5.132   4.390  3.7887  0.7521  0.1305
16163SOL    HW260963   2.776   5.040   4.260 -0.2675 -0.8693  0.1000
16164SOL     OW60964   1.395   0.873   1.971  0.3496  0.3976 -0.3556
16164SOL    HW160965   1.459   0.937   1.927  1.7093  0.0093  1.0181
16164SOL    HW260966   1.347   0.820   1.900  2.1461  0.1243 -1.3992
16165SOL     OW60967   4.969   5.661   8.127  0.1404 -0.5237 -0.7825
16165SOL    HW160968   4.976   5.654   8.226 -0.8359 -0.4926 -0.7116
16165SOL    HW260969   5.041   5.721   8.093 -1.0564  1.4955  0.1635
16166SOL     OW60970   5.909   4.708   4.202 -0.4048 -0.5709 -0.0660
16166SOL    HW160971   5.928   4.643   4.276 -0.2711  0.3010  0.6819
16166SOL    HW260972   5.811   4.709   4.183 -0.4797 -0.6042  0.3034
16167SOL     OW60973   5.784   6.907   6.587  0.1100 -0.0804  0.1359
16167SOL    HW160974   5.822   6.815   6.600  0.0543 -0.3137 -1.3179
16167SOL    HW260975   5.722   6.907   6.509 -0.4957  1.0263  0.6062
16168SOL     OW60976   7.222   1.347   7.354  0.2330 -0.5196 -0.2413
16168SOL    HW160977   7.191   1.331   7.448 -0.8597  1.0699 -0.3175
16168SOL    HW260978   7.261   1.262   7.318  1.0885 -1.0246  1.7850
16169SOL     OW60979   2.636   8.970   7.129  0.2211  0.4654 -0.2449
16169SOL    HW160980   2.565   8.966   7.058  1.3295  0.6480 -1.3995
16169SOL    HW260981   2.616   8.904   7.201  0.2362 -1.3353 -1.8433
16170SOL     OW60982   1.085   3.722   1.474  0.3239  0.0826  0.0871
16170SOL    HW160983   1.163   3.772   1.435  0.1561  0.0762 -0.2560
16170SOL    HW260984   1.116   3.669   1.553  0.5398  0.5817  0.3374
16171SOL     OW60985   8.378   8.164   0.728  0.0868  0.1769 -0.2599
16171SOL    HW160986   8.336   8.096   0.667  0.8406  0.5769 -1.2451
16171SOL    HW260987   8.444   8.118   0.788  0.9957  0.1077 -1.2966
16172SOL     OW60988   8.269   4.042   7.034  0.6505 -0.7249  0.1089
16172SOL    HW160989   8.272   4.112   7.106  0.1642 -0.5127 -0.0789
16172SOL    HW260990   8.203   4.069   6.964 -0.0610 -1.7187  0.3916
16173SOL     OW60991   2.254   8.958   7.371 -0.0607 -0.3129 -0.2609
16173SOL    HW160992   2.251   9.005   7.282 -2.5845 -1.5709 -0.8822
16173SOL    HW260993   2.272   8.861   7.357 -0.4022 -0.5091  0.6178
16174SOL     OW60994   7.987   7.232   1.716  0.2266 -0.0862  0.6264
16174SOL    HW160995   7.987   7.162   1.645 -1.1709 -0.5687  1.0748
16174SOL    HW260996   7.911   7.215   1.779  0.6728  1.0735  1.4968
16175SOL     OW60997   8.689   4.823   2.331 -0.4481  0.7187 -0.3280
16175SOL    HW160998   8.688   4.857   2.425 -1.5627  1.4110 -0.5876
16175SOL    HW260999   8.606   4.771   2.313  0.2472 -0.3064 -0.6139
16176SOL     OW61000   8.495   5.658   6.706  0.5050 -0.2329 -0.7103
16176SOL    HW161001   8.475   5.619   6.617 -1.2910 -0.4970 -0.2117
16176SOL    HW261002   8.412   5.698   6.745  1.1532 -0.5265  1.0396
16177SOL     OW61003   7.606   7.343   1.010 -0.2593  0.4304  0.4592
16177SOL    HW161004   7.573   7.290   0.932  1.3967  0.6112 -0.3916
16177SOL    HW261005   7.683   7.295   1.053  0.3476  1.4476  0.5345
16178SOL     OW61006   1.402   8.883   8.355 -0.2519 -0.2295 -0.0359
16178SOL    HW161007   1.498   8.877   8.382 -0.6077 -1.0308  1.0695
16178SOL    HW261008   1.384   8.973   8.315  0.9542 -0.0751 -0.2414
16179SOL     OW61009   7.347   1.451   1.755  0.1830 -0.1421  0.0814
16179SOL    HW161010   7.251   1.425   1.765 -0.2814  1.5783  0.3082
16179SOL    HW261011   7.401   1.410   1.829 -0.4729 -0.6871  0.2548
16180SOL     OW61012   3.648   5.711   2.713  0.4463 -0.4485  1.1376
16180SOL    HW161013   3.656   5.611   2.707 -0.1376 -0.4812  0.9065
16180SOL    HW261014   3.569   5.735   2.769 -0.2615 -0.1174  0.0114
16181SOL     OW61015   3.654   0.081   5.522 -0.1448 -0.5609  0.1232
16181SOL    HW161016   3.665  -0.010   5.480 -1.3842 -0.1545 -1.1007
16181SOL    HW261017   3.565   0.086   5.567  0.8867 -0.7507  2.2702
16182SOL     OW61018   4.366   1.579   7.505 -0.1791 -0.2178  0.0835
16182SOL    HW161019   4.299   1.599   7.435  0.6292 -0.2806 -0.7156
16182SOL    HW261020   4.452   1.550   7.462 -0.3888 -2.5027  1.1310
16183SOL     OW61021   5.996   6.775   1.719 -0.1461  0.6927 -0.4774
16183SOL    HW161022   6.004   6.774   1.619  1.6745  0.5474 -0.3446
16183SOL    HW261023   6.033   6.689   1.756 -1.7913  0.2847  0.2607
16184SOL     OW61024   1.512   1.137   7.105  0.1536 -0.3664  0.2571
16184SOL    HW161025   1.553   1.128   7.015 -0.2406  0.2451  0.0171
16184SOL    HW261026   1.585   1.139   7.174  0.5650  1.4338 -0.2227
16185SOL     OW61027   3.007   7.499   0.303 -0.1095  0.1199 -0.6151
16185SOL    HW161028   3.029   7.408   0.337  1.9437  1.0786  0.7611
16185SOL    HW261029   3.015   7.501   0.204  3.4488 -0.3338 -0.3945
16186SOL     OW61030   6.238   0.174   1.435 -0.0168 -0.4416 -0.0470
16186SOL    HW161031   6.209   0.151   1.528 -1.3712  0.6375 -0.1966
16186SOL    HW261032   6.332   0.142   1.421  0.0916 -0.8830  1.5817
16187SOL     OW61033   7.774   0.550   6.083 -0.1390  0.4577  0.5373
16187SOL    HW161034   7.701   0.491   6.048 -0.0020 -0.4921  1.8311
16187SOL    HW261035   7.737   0.641   6.101 -0.4565  0.6620 -1.0296
16188SOL     OW61036   8.959   4.217   4.035  0.7776 -0.2301 -0.1602
16188SOL    HW161037   9.014   4.294   4.004 -0.3293  0.2872 -0.8662
16188SOL    HW261038   8.874   4.214   3.983 -0.2845 -0.4531  1.5429
16189SOL     OW61039   2.717   2.438   3.170 -0.3990 -0.1615  0.2767
16189SOL    HW161040   2.789   2.422   3.104 -1.2251  0.3915 -0.7637
16189SOL    HW261041   2.708   2.357   3.229 -0.0104 -0.8589 -0.6086
16190SOL     OW61042   2.483   7.140   4.495 -0.0209  0.2437 -0.0019
16190SOL    HW161043   2.403   7.093   4.531 -0.3321 -0.0201 -1.0179
16190SOL    HW261044   2.503   7.106   4.403  0.5357  1.1704 -0.2301
16191SOL     OW61045   2.646   2.953   7.565 -0.1692  0.0898  0.0558
16191SOL    HW161046   2.698   2.980   7.483  1.0142 -1.4626  0.2735
16191SOL    HW261047   2.570   3.017   7.578  0.8327  1.5667 -1.0894
16192SOL     OW61048   6.693   5.721   1.085 -0.1235 -0.3216 -0.3886
16192SOL    HW161049   6.653   5.701   0.996 -0.6952 -2.3190  0.2963
16192SOL    HW261050   6.709   5.636   1.134  1.7589  0.6585  0.7546
16193SOL     OW61051   4.297   2.143   3.874  0.2094 -0.6059  0.0026
16193SOL    HW161052   4.216   2.129   3.817  0.1406  1.0885 -0.3309
16193SOL    HW261053   4.376   2.159   3.816  0.6012 -1.2817  0.3466
16194SOL     OW61054   4.721   5.920   4.107  0.2255  0.1091  0.2556
16194SOL    HW161055   4.705   5.843   4.045  1.7248  0.0122 -0.0264
16194SOL    HW261056   4.712   5.890   4.202  0.8872 -0.4434  0.1471
16195SOL     OW61057   8.272   6.215   5.076 -0.5672 -0.1454 -0.5680
16195SOL    HW161058   8.275   6.315   5.072 -1.4487 -0.0574  0.7186
16195SOL    HW261059   8.227   6.186   5.160  1.2875 -1.6652 -0.0674
16196SOL     OW61060   4.331   0.857   3.674  0.0898 -0.3085  0.0055
16196SOL    HW161061   4.389   0.776   3.663  0.3251 -0.2811  0.9227
16196SOL    HW261062   4.235   0.829   3.678  0.0840 -0.4235 -0.8315
16197SOL     OW61063   8.129   8.327   7.422 -0.3481  0.1004  0.3753
16197SOL    HW161064   8.049   8.381   7.394  0.1023  0.8841  0.5619
16197SOL    HW261065   8.139   8.333   7.522  2.6611  3.9453 -0.0353
16198SOL     OW61066   1.607   2.709   4.170 -0.0678  0.4614 -0.2500
16198SOL    HW161067   1.704   2.694   4.149 -0.2363 -0.1491 -0.6167
16198SOL    HW261068   1.552   2.637   4.126 -0.5086 -0.3585  1.5964
16199SOL     OW61069   8.509   3.369   1.495 -0.5411  0.0327  0.2814
16199SOL    HW161070   8.492   3.461   1.529  1.1801  1.2746 -2.1306
16199SOL    HW261071   8.531   3.309   1.572 -0.3244  1.9383  1.7394
16200SOL     OW61072   8.400   3.876   1.763  0.4355 -0.4949 -0.3151
16200SOL    HW161073   8.417   3.823   1.847  0.0560  1.2151  0.8504
16200SOL    HW261074   8.304   3.866   1.737  0.8716 -2.1914 -1.3869
16201SOL     OW61075   8.393   1.324   6.075 -0.2712  0.1549 -0.1255
16201SOL    HW161076   8.389   1.405   6.016  0.0451 -1.4824 -2.4702
16201SOL    HW261077   8.303   1.309   6.116 -0.7712  0.7667 -0.9762
16202SOL     OW61078   3.295   5.519   3.062 -0.3019  0.4660 -0.1246
16202SOL    HW161079   3.295   5.521   2.962  0.7660 -0.3113 -0.1435
16202SOL    HW261080   3.379   5.561   3.096 -0.5068  0.4212  0.4430
16203SOL     OW61081   0.876   8.366   8.005 -0.3683  0.0402 -0.1602
16203SOL    HW161082   0.794   8.415   7.973 -0.0534  1.7180  1.5196
16203SOL    HW261083   0.944   8.432   8.036  0.3116 -1.4658  1.6127
16204SOL     OW61084   4.764   5.201   1.870  0.2779  0.5200  0.3579
16204SOL    HW161085   4.756   5.183   1.968  0.0647  1.2002  0.4698
16204SOL    HW261086   4.678   5.181   1.824  0.2535  0.5821  0.3763
16205SOL     OW61087   6.219   5.865   8.314 -0.4227 -0.6705  0.3457
16205SOL    HW161088   6.258   5.783   8.273 -1.2078 -1.2481  0.7534
16205SOL    HW261089   6.158   5.839   8.389  0.2473  0.3234  1.2559
16206SOL     OW61090   7.086   1.581   8.902  0.4621 -0.2482  0.2917
16206SOL    HW161091   7.104   1.637   8.821  0.6670  0.3784  0.7633
16206SOL    HW261092   6.998   1.607   8.943 -0.9493 -2.4038 -1.2502
16207SOL     OW61093   8.830   3.501   5.418 -0.5098  0.1137 -0.1192
16207SOL    HW161094   8.880   3.581   5.384 -0.3547  0.3781  0.7207
16207SOL    HW261095   8.869   3.418   5.378  0.6864  0.3065  0.6038
16208SOL     OW61096   8.633   3.147   2.709  0.4876 -0.0416  0.5035
16208SOL    HW161097   8.595   3.234   2.675  0.7968 -0.2846 -0.5034
16208SOL    HW261098   8.717   3.127   2.659 -0.7280 -2.0120 -0.8209
16209SOL     OW61099   0.804   3.198   6.713 -0.0622 -0.0399 -0.0704
16209SOL    HW161100   0.776   3.281   6.665  1.0082  0.7415  0.6285
16209SOL    HW261101   0.903   3.199   6.726 -0.0651 -1.3418  0.1096
16210SOL     OW61102   4.078   8.610   7.891  0.2214 -0.5057 -0.4643
16210SOL    HW161103   4.117   8.520   7.912  3.3548  0.2899 -2.5397
16210SOL    HW261104   4.044   8.610   7.796 -0.0942  0.3932 -0.3562
16211SOL     OW61105   8.828   6.775   4.371  0.4032  0.2634  0.9007
16211SOL    HW161106   8.879   6.708   4.426  0.0999 -0.9975 -0.3124
16211SOL    HW261107   8.811   6.736   4.280  1.4435  2.5382 -0.3142
16212SOL     OW61108   7.115   3.874   0.260 -0.8211 -0.1368  0.1652
16212SOL    HW161109   7.197   3.849   0.209 -1.7934  0.2048 -1.6169
16212SOL    HW261110   7.058   3.794   0.273  0.2279 -0.5858  2.2932
16213SOL     OW61111   2.564   6.071   8.413 -0.6378  0.0228  0.1588
16213SOL    HW161112   2.619   5.988   8.422  0.6786  0.9947  1.4555
16213SOL    HW261113   2.497   6.059   8.340  2.1439 -0.7587 -2.3786
16214SOL     OW61114   3.124   7.927   3.094  0.3359 -0.2025 -0.4002
16214SOL    HW161115   3.110   7.829   3.078 -2.9040  0.1502 -0.0294
16214SOL    HW261116   3.036   7.974   3.092  1.8255  2.6974 -0.3310
16215SOL     OW61117   7.302   0.345   0.830 -0.0859 -0.0747  0.4639
16215SOL    HW161118   7.240   0.420   0.852 -0.9403 -0.8729  0.8072
16215SOL    HW261119   7.347   0.313   0.913  0.5745  0.3069  0.2594
16216SOL     OW61120   5.955   1.192   8.464  0.2437  0.3252  0.6224
16216SOL    HW161121   5.892   1.116   8.478 -0.9140  1.2783  0.6675
16216SOL    HW261122   5.943   1.228   8.372  1.3591 -0.0514  0.3226
16217SOL     OW61123   5.264   3.580   0.158 -0.3403 -0.2038 -0.0482
16217SOL    HW161124   5.269   3.579   0.058 -0.7947  1.1084 -0.0906
16217SOL    HW261125   5.234   3.670   0.189 -1.4988 -1.0071  1.2153
16218SOL     OW61126   0.277   8.107   7.696  0.4284 -0.4651  0.0192
16218SOL    HW161127   0.349   8.122   7.764 -0.6956  1.4397  0.8551
16218SOL    HW261128   0.273   8.186   7.634 -1.0606 -0.4408  0.1264
16219SOL     OW61129   4.722   5.502   0.812  0.2206 -0.2159  0.0748
16219SOL    HW161130   4.674   5.541   0.890 -0.8913 -0.2280 -0.5809
16219SOL    HW261131   4.743   5.574   0.746  0.5522 -0.3053  0.0852
16220SOL     OW61132   6.579   2.277   0.151 -0.2552 -0.6418 -0.9591
16220SOL    HW161133   6.480   2.286   0.139 -0.2746  0.4088 -0.0575
16220SOL    HW261134   6.606   2.317   0.239  1.0979 -0.0004 -1.6470
16221SOL     OW61135   7.398   1.603   2.214  0.4301  0.1420  0.2735
16221SOL    HW161136   7.406   1.566   2.306 -0.3183  0.8623  0.6384
16221SOL    HW261137   7.436   1.696   2.212  0.9514 -0.0793 -0.2753
16222SOL     OW61138   6.821   3.609   0.097  0.2936  0.0042  0.2735
16222SOL    HW161139   6.755   3.683   0.102  0.3262  0.0172  0.5335
16222SOL    HW261140   6.869   3.601   0.185 -0.3639 -0.9255  0.5480
16223SOL     OW61141   5.091   6.028   3.266 -0.1735  0.1766  0.8015
16223SOL    HW161142   5.174   6.014   3.213  0.1834  1.8023  0.8843
16223SOL    HW261143   5.106   6.000   3.360  0.7259  1.6550  1.1214
16224SOL     OW61144   3.345   8.854   3.647  0.5611  0.1623  0.0641
16224SOL    HW161145   3.318   8.888   3.556 -0.9502 -1.3832 -0.0889
16224SOL    HW261146   3.297   8.768   3.666  1.1173  0.2990  2.2019
16225SOL     OW61147   8.799   7.122   5.713 -0.3159 -0.1533 -0.5706
16225SOL    HW161148   8.749   7.059   5.772 -0.1067  0.4422  0.2516
16225SOL    HW261149   8.892   7.134   5.748 -0.8018  1.7712  0.1629
16226SOL     OW61150   0.760   6.562   5.043  0.4471  0.5665 -0.3533
16226SOL    HW161151   0.700   6.482   5.043 -1.4394  1.9115  1.5537
16226SOL    HW261152   0.794   6.579   5.135  3.6183 -0.0027 -1.3578
16227SOL     OW61153   8.087   6.145   5.915 -0.2945  0.3239  0.3117
16227SOL    HW161154   8.087   6.057   5.867  1.6534  1.0477 -1.0731
16227SOL    HW261155   8.132   6.133   6.004  0.9014  0.1304 -0.3083
16228SOL     OW61156   0.778   5.260   3.489  0.3999  0.0623  0.5234
16228SOL    HW161157   0.747   5.189   3.427  0.3465  0.3898  0.1739
16228SOL    HW261158   0.729   5.345   3.471  1.6063  0.6328 -0.1581
16229SOL     OW61159   8.470   4.969   2.922  0.0533  0.5930 -0.4292
16229SOL    HW161160   8.563   4.939   2.902 -0.0189  0.0231  0.0591
16229SOL    HW261161   8.418   4.974   2.837 -0.0682 -1.1769 -0.4869
16230SOL     OW61162   7.703   3.134   1.155 -0.7037 -0.2321 -0.9001
16230SOL    HW161163   7.612   3.121   1.115 -0.5307 -0.3101 -1.2750
16230SOL    HW261164   7.771   3.083   1.101 -0.3395  0.3880 -1.0336
16231SOL     OW61165   7.183   4.254   2.221 -0.5330 -0.4857  0.8977
16231SOL    HW161166   7.268   4.205   2.238  0.4586  1.4407  1.6762
16231SOL    HW261167   7.121   4.196   2.169  1.0992 -2.0641  0.6576
16232SOL     OW61168   3.924   3.756   0.761 -0.3961  0.4152  0.2319
16232SOL    HW161169   4.023   3.753   0.744 -0.1838  1.6447  1.1607
16232SOL    HW261170   3.884   3.834   0.712 -1.2291 -1.1608 -1.6460
16233SOL     OW61171   2.215   2.898   6.779  0.3140  0.0626  0.3481
16233SOL    HW161172   2.234   2.904   6.877 -0.1950  0.9755  0.4013
16233SOL    HW261173   2.179   2.808   6.757  0.0730 -0.0187  1.0686
16234SOL     OW61174   6.485   3.745   6.557  0.1485 -0.1694 -0.4325
16234SOL    HW161175   6.446   3.751   6.649  1.9662 -0.0749  0.3542
16234SOL    HW261176   6.519   3.835   6.530  1.3638 -0.6164 -0.4043
16235SOL     OW61177   3.774   8.972   1.509 -1.0010 -0.2064 -0.3939
16235SOL    HW161178   3.737   8.972   1.602  0.3595 -1.1210  0.1685
16235SOL    HW261179   3.793   9.066   1.481 -1.5169  0.0829  0.2110
16236SOL     OW61180   1.174   0.456   8.117  0.0883 -0.9741 -0.2759
16236SOL    HW161181   1.096   0.474   8.057 -0.0600 -3.0365 -0.7496
16236SOL    HW261182   1.143   0.400   8.195  1.0058 -1.4703 -0.2571
16237SOL     OW61183   0.081   8.405   3.915  0.4151  0.1409  0.4387
16237SOL    HW161184   0.101   8.460   3.834  0.4451 -0.3643  0.1002
16237SOL    HW261185   0.163   8.397   3.971  1.4627 -2.6554 -1.3852
16238SOL     OW61186   2.720   6.946   6.096 -0.0232  0.6164 -0.3508
16238SOL    HW161187   2.759   6.890   6.023  1.3200 -1.5569  1.9513
16238SOL    HW261188   2.656   7.012   6.057  1.7115  0.4800 -3.6349
16239SOL     OW61189   4.954   3.195   1.040 -0.7358  0.0165 -0.0699
16239SOL    HW161190   5.026   3.214   0.973 -0.1030  1.5466  1.0164
16239SOL    HW261191   4.878   3.148   0.994  0.8237 -1.4133 -1.2694
16240SOL     OW61192   0.494   4.123   2.049 -0.2319 -0.1480 -0.3145
16240SOL    HW161193   0.465   4.143   2.143 -1.2285  2.2037 -1.0897
16240SOL    HW261194   0.450   4.187   1.986  2.0625 -0.3297 -2.1759
16241SOL     OW61195   4.616   3.903   5.754 -0.2120  0.0432  0.4593
16241SOL    HW161196   4.703   3.854   5.753  1.1108  2.3140 -1.4184
16241SOL    HW261197   4.580   3.906   5.847  2.5609  0.4866  1.5692
16242SOL     OW61198   4.546   5.743   3.898 -0.3344 -0.3495  0.5441
16242SOL    HW161199   4.562   5.654   3.853  1.1097 -0.9132  2.1005
16242SOL    HW261200   4.454   5.745   3.937 -1.3221 -0.1538 -1.7209
16243SOL     OW61201   4.341   5.812   0.530 -0.2359 -0.0769  0.1518
16243SOL    HW161202   4.276   5.751   0.575 -0.3710 -0.3348 -0.3834
16243SOL    HW261203   4.291   5.880   0.476 -0.0962  0.9184  1.2689
16244SOL     OW61204   8.143   1.618   1.981 -0.4990 -0.3950  0.2826
16244SOL    HW161205   8.172   1.547   2.046 -0.6099 -0.7514 -0.0528
16244SOL    HW261206   8.201   1.699   1.991  0.0570 -0.7812  0.2086
16245SOL     OW61207   0.519   3.064   6.424 -0.2601  0.9630  0.2704
16245SOL    HW161208   0.464   3.031   6.347  1.0781  2.1832 -1.2465
16245SOL    HW261209   0.535   3.162   6.414 -1.2224  1.4067  2.8670
16246SOL     OW61210   8.953   2.128   4.735 -0.1222 -0.0590 -0.0215
16246SOL    HW161211   8.988   2.076   4.658 -1.3463 -0.7560 -0.1160
16246SOL    HW261212   8.884   2.075   4.783  0.4530  0.4562  1.4249
16247SOL     OW61213   2.902   0.455   1.924  0.1286  0.5739 -0.0856
16247SOL    HW161214   2.920   0.437   2.021 -0.0669 -2.1387 -0.5115
16247SOL    HW261215   2.808   0.427   1.902  0.6747 -0.3068 -1.3837
16248SOL     OW61216   6.290   6.448   2.404  0.1099 -0.2777 -0.2761
16248SOL    HW161217   6.276   6.434   2.502  0.2796 -0.7358 -0.3154
16248SOL    HW261218   6.231   6.385   2.353  0.4589 -0.4584 -0.4596
16249SOL     OW61219   1.229   8.240   7.396  0.4527  0.0554  0.1261
16249SOL    HW161220   1.284   8.230   7.313 -0.1926 -0.2205 -0.2621
16249SOL    HW261221   1.289   8.270   7.471  2.0690 -4.6687  0.8897
16250SOL     OW61222   0.816   8.187   4.828  0.0288 -0.3200  0.2788
16250SOL    HW161223   0.913   8.208   4.840 -0.3811  0.3921  2.7002
16250SOL    HW261224   0.761   8.269   4.848 -1.1317 -1.0368  0.0749
16251SOL     OW61225   4.316   7.213   5.788  0.7638  0.8714 -0.7182
16251SOL    HW161226   4.385   7.151   5.824 -0.4379  0.0239  0.1921
16251SOL    HW261227   4.319   7.214   5.688  1.8264  0.5596 -0.6870
16252SOL     OW61228   4.869   5.055   7.029  0.2578 -0.4496 -0.4419
16252SOL    HW161229   4.907   5.021   7.116 -1.9256 -0.4894  0.5378
16252SOL    HW261230   4.829   4.979   6.978 -3.0585  0.2876  0.9358
16253SOL     OW61231   1.604   7.863   5.951  0.1181 -0.0996 -0.2017
16253SOL    HW161232   1.603   7.916   5.866 -1.0828 -0.7820 -0.6307
16253SOL    HW261233   1.586   7.767   5.930 -0.2231 -0.2642  0.8305
16254SOL     OW61234   6.230   3.463   8.082 -0.1837 -0.3957  0.8231
16254SOL    HW161235   6.164   3.432   8.014 -0.4297 -0.0733  0.9107
16254SOL    HW261236   6.274   3.547   8.050 -0.7973  0.1389  1.3584
16255SOL     OW61237   3.349   1.894   4.180 -0.2116  0.5702  0.3395
16255SOL    HW161238   3.386   1.820   4.236 -0.5823  0.6250  0.6553
16255SOL    HW261239   3.403   1.902   4.096  0.7097  0.8606  0.9521
16256SOL     OW61240   1.525   5.673   0.829 -0.2852 -0.5660  0.3391
16256SOL    HW161241   1.497   5.681   0.733  0.4885  1.0625  0.2336
16256SOL    HW261242   1.623   5.651   0.833  0.1848  1.4533  0.7382
16257SOL     OW61243   0.920   3.926   7.816 -1.5052  0.1816  0.1827
16257SOL    HW161244   0.991   3.959   7.754  0.2923 -0.1594  1.9823
16257SOL    HW261245   0.834   3.915   7.767 -0.4532  1.1640 -1.9188
16258SOL     OW61246   5.461   5.305   5.467 -0.2844 -0.2102 -0.0803
16258SOL    HW161247   5.445   5.374   5.396 -0.5307 -0.1996 -0.0143
16258SOL    HW261248   5.374   5.282   5.511 -0.3115 -1.0655 -0.5646
16259SOL     OW61249   7.294   8.619   7.017 -0.0641  0.5161 -0.0808
16259SOL    HW161250   7.323   8.711   6.992  0.5281  0.4458  0.3158
16259SOL    HW261251   7.375   8.560   7.025 -0.2830  0.3629  1.2363
16260SOL     OW61252   7.557   6.108   2.705  0.5719  0.7778  0.3809
16260SOL    HW161253   7.539   6.063   2.793  1.5478 -2.8865 -1.1933
16260SOL    HW261254   7.624   6.181   2.718  2.4392 -1.2125  2.3052
16261SOL     OW61255   5.178   1.476   3.793  0.1768  0.3907 -0.8765
16261SOL    HW161256   5.179   1.552   3.858  0.2511 -0.8401  0.6086
16261SOL    HW261257   5.272   1.446   3.776  0.0730 -0.1887 -0.4498
16262SOL     OW61258   1.906   0.477   3.460 -0.6129  0.1970 -0.0935
16262SOL    HW161259   1.980   0.461   3.396 -1.5222  0.7635 -1.2958
16262SOL    HW261260   1.895   0.396   3.519  0.2967 -0.2762 -0.5681
16263SOL     OW61261   7.100   0.086   3.373  0.5919 -0.4775  0.4041
16263SOL    HW161262   7.078   0.043   3.286  2.8434  1.5274 -1.2355
16263SOL    HW261263   7.016   0.117   3.417 -0.4368  0.5746 -2.1965
16264SOL     OW61264   0.489   1.258   3.150  0.7188  0.0683 -0.1579
16264SOL    HW161265   0.586   1.276   3.132  0.6030 -1.0773 -2.0369
16264SOL    HW261266   0.481   1.177   3.209  0.9366  1.1729  1.4352
16265SOL     OW61267   3.282   1.950   0.570  0.0879 -0.2292  0.0568
16265SOL    HW161268   3.300   1.882   0.641 -1.4740 -1.5612 -0.7646
16265SOL    HW261269   3.281   2.042   0.610  2.1168 -0.6914  1.2033
16266SOL     OW61270   7.908   6.038   6.679  0.4107  0.3434 -0.3065
16266SOL    HW161271   7.825   6.007   6.634 -0.1322 -0.4668  1.1982
16266SOL    HW261272   7.975   5.964   6.680  0.0971  0.0629  0.9465
16267SOL     OW61273   2.531   4.160   1.612 -0.4420  0.4192  0.5110
16267SOL    HW161274   2.533   4.094   1.537 -0.8288 -0.3617  1.1858
16267SOL    HW261275   2.609   4.222   1.603 -2.5438  2.7467 -2.6787
16268SOL     OW61276   2.820   7.321   1.405 -0.0708 -0.7274 -0.1156
16268SOL    HW161277   2.878   7.269   1.342 -0.3011 -1.6561  0.4269
16268SOL    HW261278   2.727   7.282   1.404 -1.1442  1.7675 -2.2135
16269SOL     OW61279   1.178   5.273   5.049 -0.2193 -0.3389  0.7742
16269SOL    HW161280   1.162   5.363   5.090 -0.0406  0.2521 -0.4200
16269SOL    HW261281   1.272   5.269   5.015 -0.2752 -0.9224  0.6925
16270SOL     OW61282   6.893   2.607   3.754 -0.2949 -0.1124 -0.4896
16270SOL    HW161283   6.842   2.675   3.702 -0.9308  0.6938  1.1406
16270SOL    HW261284   6.830   2.555   3.812  0.3653 -1.1835 -0.7061
16271SOL     OW61285   8.915   8.918   8.629 -0.5835  0.0653  0.5743
16271SOL    HW161286   8.909   8.895   8.532  0.1852 -1.2949  0.8370
16271SOL    HW261287   8.862   8.851   8.681 -0.8392  0.6853  1.1090
16272SOL     OW61288   3.141   7.677   8.836  0.0220 -0.8035 -0.3226
16272SOL    HW161289   3.102   7.596   8.792 -0.7249 -1.3321  1.2594
16272SOL    HW261290   3.128   7.670   8.935 -2.0372  2.2650 -0.3263
16273SOL     OW61291   0.656   5.871   7.550 -0.3129  0.1913  0.1936
16273SOL    HW161292   0.712   5.798   7.511 -0.7686 -0.7611  1.2691
16273SOL    HW261293   0.698   5.904   7.635 -0.4816  0.6856  0.0881
16274SOL     OW61294   6.423   2.156   8.500  0.4697  0.4012 -0.6163
16274SOL    HW161295   6.464   2.075   8.457  0.1757 -0.0348 -0.0764
16274SOL    HW261296   6.477   2.237   8.478  0.6406  0.0910 -1.3459
16275SOL     OW61297   5.045   4.084   8.806  0.0486 -0.0440  0.4085
16275SOL    HW161298   5.117   4.084   8.875 -0.5116  0.8887  0.9940
16275SOL    HW261299   4.962   4.125   8.843 -0.6530 -0.6838 -0.4137
16276SOL     OW61300   2.685   0.006   2.962 -0.2230 -0.2562  0.2312
16276SOL    HW161301   2.719   0.066   3.035  0.2391 -2.8538  2.2267
16276SOL    HW261302   2.762  -0.026   2.907 -0.4481  0.7872 -0.7063
16277SOL     OW61303   0.732   2.504   4.577 -0.0005 -0.4531 -0.5761
16277SOL    HW161304   0.752   2.596   4.542 -0.0199 -0.6672 -1.1408
16277SOL    HW261305   0.816   2.450   4.579 -0.1090 -0.6261 -0.8227
16278SOL     OW61306   8.487   1.844   3.742  0.2748  0.0411  0.2724
16278SOL    HW161307   8.508   1.783   3.818  1.8742 -0.0564 -0.2176
16278SOL    HW261308   8.436   1.923   3.776  0.1827 -0.4448  1.2887
16279SOL     OW61309   4.221   0.910   1.483  0.2125  0.3735 -0.0368
16279SOL    HW161310   4.143   0.967   1.460  1.5045  1.6562 -1.3839
16279SOL    HW261311   4.262   0.942   1.568  0.2915  0.8030 -0.2331
16280SOL     OW61312   8.839   6.166   6.919 -0.1005 -0.2541 -0.7342
16280SOL    HW161313   8.932   6.148   6.887  0.2067  0.5183 -0.2742
16280SOL    HW261314   8.796   6.079   6.946 -0.4002 -0.9316 -3.3003
16281SOL     OW61315   8.136   1.953   3.141 -0.8063  0.2373 -0.0753
16281SOL    HW161316   8.131   2.050   3.167  0.1298  0.5888 -1.1495
16281SOL    HW261317   8.199   1.906   3.203 -0.0602  0.6569 -0.5070
16282SOL     OW61318   6.049   6.818   3.476 -0.2216 -0.0902  0.2151
16282SOL    HW161319   5.971   6.773   3.519 -0.6765 -2.0073 -2.4065
16282SOL    HW261320   6.043   6.806   3.376  2.6662  0.9640 -0.1409
16283SOL     OW61321   0.717   7.491   4.102  0.2753 -0.2048  0.1954
16283SOL    HW161322   0.694   7.493   4.005  0.3360 -0.1084  0.1839
16283SOL    HW261323   0.646   7.440   4.151  1.4530 -2.3004 -0.2313
16284SOL     OW61324   1.672   7.838   5.459 -0.6113  0.3398 -0.3702
16284SOL    HW161325   1.619   7.755   5.477 -0.6506  0.3885 -0.2606
16284SOL    HW261326   1.638   7.882   5.375  0.1544 -0.3636 -1.0539
16285SOL     OW61327   2.357   6.259   2.913  0.2816 -0.4338  0.2817
16285SOL    HW161328   2.346   6.160   2.898 -0.3998 -0.3651  0.3420
16285SOL    HW261329   2.446   6.276   2.956  0.6484 -0.9693 -0.2651
16286SOL     OW61330   0.942   4.613   5.227  0.0627  0.6679  0.4250
16286SOL    HW161331   1.027   4.578   5.266 -0.3992  1.0969  1.8308
16286SOL    HW261332   0.948   4.713   5.220  0.5593  0.5248 -1.6282
16287SOL     OW61333   7.679   5.755   1.242  0.3419 -0.3956 -0.8335
16287SOL    HW161334   7.646   5.790   1.330 -3.3381 -2.3815 -1.2948
16287SOL    HW261335   7.754   5.691   1.256  2.3320  2.1606  0.5192
16288SOL     OW61336   6.705   7.508   6.841 -0.6432  0.3217 -0.0899
16288SOL    HW161337   6.661   7.445   6.777 -0.5948  0.2282 -0.0318
16288SOL    HW261338   6.785   7.463   6.882  1.6791  1.7197 -2.9016
16289SOL     OW61339   7.962   4.085   5.850  0.1114 -0.0170  0.2145
16289SOL    HW161340   8.061   4.086   5.869  0.0769 -0.6613  0.4521
16289SOL    HW261341   7.931   4.178   5.833  0.2595  0.5359  2.7248
16290SOL     OW61342   1.115   8.466   7.640 -0.1768 -0.3853 -0.5115
16290SOL    HW161343   1.144   8.548   7.590 -1.0072 -0.0822 -0.5121
16290SOL    HW261344   1.018   8.449   7.622 -0.7132  0.2156  1.6605
16291SOL     OW61345   2.817   1.332   7.703  0.7157 -0.1734  0.2902
16291SOL    HW161346   2.805   1.276   7.622  1.9985 -1.0654  0.7118
16291SOL    HW261347   2.775   1.287   7.782 -0.0876  0.4555  0.2347
16292SOL     OW61348   2.728   6.098   4.717  0.0530  0.2388 -0.0578
16292SOL    HW161349   2.673   6.019   4.742 -0.1696 -0.5995 -3.0096
16292SOL    HW261350   2.820   6.068   4.692  0.5194  1.1282  0.5529
16293SOL     OW61351   6.027   0.011   6.456  0.2171 -0.1786  0.2100
16293SOL    HW161352   6.017  -0.088   6.449 -1.4422  0.0567 -1.0748
16293SOL    HW261353   6.077   0.044   6.376  0.3012  0.0832  0.3708
16294SOL     OW61354   1.693   5.818   2.689  0.3108  0.1070 -0.4751
16294SOL    HW161355   1.607   5.869   2.687 -0.1672 -0.6918 -0.5526
16294SOL    HW261356   1.768   5.879   2.663  0.1871  1.5957  2.4888
16295SOL     OW61357   8.555   8.913   1.373  0.6369 -0.4105 -0.1733
16295SOL    HW161358   8.603   8.853   1.309  0.3325 -1.0218  0.1605
16295SOL    HW261359   8.484   8.965   1.325  0.4554 -0.8194 -0.3491
16296SOL     OW61360   7.384   1.201   2.621  0.2315  0.0741  0.5502
16296SOL    HW161361   7.399   1.297   2.645  0.2882  0.5160 -1.1445
16296SOL    HW261362   7.296   1.170   2.657 -0.3527  1.1453  0.0777
16297SOL     OW61363   8.898   5.189   1.890 -0.1610  0.4621  0.3699
16297SOL    HW161364   8.888   5.157   1.795 -0.6217 -0.8339  0.8473
16297SOL    HW261365   8.894   5.111   1.952  0.8086  1.2329  1.4251
16298SOL     OW61366   4.574   5.891   8.613 -0.0798 -0.3028 -0.3586
16298SOL    HW161367   4.500   5.824   8.603  1.4951 -2.1476  0.1425
16298SOL    HW261368   4.558   5.967   8.550 -2.5686 -0.5050 -0.0322
16299SOL     OW61369   7.149   0.551   8.068  0.4822  0.1348 -0.0377
16299SOL    HW161370   7.141   0.649   8.050  0.6923  0.3558  1.0566
16299SOL    HW261371   7.170   0.536   8.164 -1.0183 -1.0459  0.1296
16300SOL     OW61372   8.961   6.577   4.526 -0.1293  0.1916  0.2887
16300SOL    HW161373   9.039   6.629   4.490 -1.2493  0.2757 -2.1438
16300SOL    HW261374   8.963   6.484   4.489 -0.9426  0.0725  0.5323
16301SOL     OW61375   0.580   8.770   6.102  0.4727 -0.5188 -0.0316
16301SOL    HW161376   0.630   8.686   6.080  1.7145  0.3799 -0.7261
16301SOL    HW261377   0.502   8.749   6.160  1.8899 -1.9148  1.4085
16302SOL     OW61378   0.581   2.806   5.119  0.5738 -0.3095  0.2105
16302SOL    HW161379   0.629   2.777   5.037  1.4628  0.2055  0.5385
16302SOL    HW261380   0.622   2.763   5.199  0.0056 -0.4557  0.4270
16303SOL     OW61381   0.812   5.785   3.723  0.3233  0.3754  0.1571
16303SOL    HW161382   0.714   5.786   3.745 -0.0855 -0.3276 -1.4775
16303SOL    HW261383   0.853   5.702   3.759  0.1287  0.2665  0.1310
16304SOL     OW61384   7.086   2.436   3.143 -0.4394  0.5282  0.1940
16304SOL    HW161385   7.141   2.518   3.158 -0.4240  0.2029  1.9497
16304SOL    HW261386   6.991   2.461   3.130 -0.6014  0.7450  1.8021
16305SOL     OW61387   6.186   3.825   8.627  0.0675 -0.4785 -0.2945
16305SOL    HW161388   6.199   3.924   8.635  0.3325 -0.4083 -1.5631
16305SOL    HW261389   6.128   3.793   8.702 -2.0006  0.9997 -1.2469
16306SOL     OW61390   6.555   5.976   1.822  0.6346  0.3234 -0.3296
16306SOL    HW161391   6.637   6.022   1.857  1.1068 -2.1713  2.0437
16306SOL    HW261392   6.578   5.882   1.798 -1.7160 -0.6531  1.1303
16307SOL     OW61393   0.476   7.181   6.892 -0.0498  0.5129  0.1728
16307SOL    HW161394   0.389   7.138   6.914  0.0982 -0.6724 -1.5328
16307SOL    HW261395   0.461   7.277   6.868 -0.5781  0.9773  2.2079
16308SOL     OW61396   1.452   2.534   2.171 -0.0176  0.4103 -0.4564
16308SOL    HW161397   1.500   2.499   2.091  0.2044 -0.6446  0.1371
16308SOL    HW261398   1.479   2.482   2.252  0.5747  2.1585  0.4961
16309SOL     OW61399   7.434   6.025   0.783 -0.3669 -0.5279  0.0440
16309SOL    HW161400   7.508   6.065   0.730  0.3293  0.5051  1.7748
16309SOL    HW261401   7.470   5.953   0.843 -0.6715  0.3210  1.2568
16310SOL     OW61402   8.625   4.043   2.517 -0.4544  0.0941 -0.3013
16310SOL    HW161403   8.575   4.119   2.559 -1.7466  0.1068 -1.8074
16310SOL    HW261404   8.580   4.017   2.432  1.1858 -0.9915 -0.8602
16311SOL     OW61405   7.859   6.277   5.960 -0.3565 -0.0528 -0.1061
16311SOL    HW161406   7.937   6.235   5.914 -0.6163  0.3332 -0.8988
16311SOL    HW261407   7.845   6.369   5.924 -2.0503 -0.6320 -0.9793
16312SOL     OW61408   6.463   7.659   3.183  0.2773 -0.1947  0.2111
16312SOL    HW161409   6.376   7.654   3.134 -0.9109  0.5269  2.1851
16312SOL    HW261410   6.518   7.735   3.147  0.7613 -1.5494 -2.0275
16313SOL     OW61411   6.010   7.958   1.789  0.1529  0.0163 -0.1837
16313SOL    HW161412   6.048   7.866   1.795  1.6664  0.6160 -0.2436
16313SOL    HW261413   6.031   8.008   1.874 -2.9709 -0.5231  0.9747
16314SOL     OW61414   6.152   4.442   5.466 -0.4683  0.4457 -0.5905
16314SOL    HW161415   6.143   4.536   5.432 -1.4352 -0.0067 -1.6332
16314SOL    HW261416   6.061   4.402   5.477 -0.2479  0.9295  3.6167
16315SOL     OW61417   1.976   4.123   2.548 -0.1739 -0.2593  0.2803
16315SOL    HW161418   1.900   4.110   2.612  0.4943 -0.5077  1.0314
16315SOL    HW261419   1.944   4.108   2.454 -1.6805  2.2255  0.3576
16316SOL     OW61420   1.557   2.365   8.137 -0.0196  0.0254  0.0991
16316SOL    HW161421   1.549   2.298   8.211 -0.6779 -0.0718 -0.0567
16316SOL    HW261422   1.653   2.374   8.110  0.0563 -0.9785  0.0106
16317SOL     OW61423   3.185   6.427   2.724  0.1765 -0.0640  0.0926
16317SOL    HW161424   3.270   6.375   2.730 -0.4083 -1.0253  0.1347
16317SOL    HW261425   3.199   6.507   2.665  1.2327  0.0503  0.4816
16318SOL     OW61426   3.730   8.381   7.740 -0.3990 -0.1912  0.1853
16318SOL    HW161427   3.729   8.282   7.754  0.9708 -0.2540 -0.1556
16318SOL    HW261428   3.760   8.427   7.824 -3.0363  0.0840  1.0451
16319SOL     OW61429   0.018   3.655   5.246  0.2005  0.3920 -0.4467
16319SOL    HW161430   0.061   3.573   5.208  0.4654  1.1941 -1.8895
16319SOL    HW261431  -0.052   3.688   5.183 -0.4322  0.8493  0.4839
16320SOL     OW61432   2.707   4.611   2.559 -0.2784 -0.0589 -0.2035
16320SOL    HW161433   2.702   4.701   2.602 -0.0750 -1.1322  2.1678
16320SOL    HW261434   2.615   4.580   2.535 -0.6120 -0.2704  1.2914
16321SOL     OW61435   0.678   6.380   4.410 -0.2313  0.4857 -0.1510
16321SOL    HW161436   0.697   6.375   4.312 -0.5536  1.9788 -0.2974
16321SOL    HW261437   0.743   6.443   4.454  0.8100 -1.2357  0.8430
16322SOL     OW61438   0.131   0.672   6.528 -0.2176 -0.2348  0.3413
16322SOL    HW161439   0.065   0.696   6.457  0.0183  1.6351  0.7092
16322SOL    HW261440   0.212   0.730   6.519 -0.2131  0.0871  2.1581
16323SOL     OW61441   5.110   6.717   8.311  0.6814 -0.1109  0.3055
16323SOL    HW161442   5.100   6.814   8.288 -0.4658 -0.4025 -0.5179
16323SOL    HW261443   5.089   6.662   8.230  0.1233 -1.0760  1.0956
16324SOL     OW61444   6.685   3.895   7.788  0.2421 -0.1434  0.1031
16324SOL    HW161445   6.737   3.961   7.842 -0.8524 -1.2430  2.6028
16324SOL    HW261446   6.605   3.940   7.748  1.2426  0.7565 -0.9189
16325SOL     OW61447   5.349   3.639   8.917  0.4728 -0.2325  0.0783
16325SOL    HW161448   5.416   3.690   8.970  0.3061  1.0105 -0.8684
16325SOL    HW261449   5.392   3.604   8.833 -0.1587  1.0228 -0.7950
16326SOL     OW61450   3.099   7.339   5.535  0.0295 -0.6509  0.0884
16326SOL    HW161451   3.174   7.397   5.504 -0.3627 -0.7687 -1.1307
16326SOL    HW261452   3.118   7.305   5.627  0.7883  0.4926  0.3722
16327SOL     OW61453   2.518   5.774   4.320 -0.1087 -0.0601  0.5850
16327SOL    HW161454   2.484   5.681   4.330  0.3943 -0.0899  2.1786
16327SOL    HW261455   2.611   5.780   4.355  0.3750  0.7468 -0.7690
16328SOL     OW61456   7.065   0.440   0.114 -0.1280  0.5286  0.2915
16328SOL    HW161457   7.080   0.344   0.135 -0.2087  0.4830  0.1387
16328SOL    HW261458   6.976   0.451   0.069  1.3197  0.2266 -2.7876
16329SOL     OW61459   3.012   3.864   8.945  0.4048 -0.1347  0.0722
16329SOL    HW161460   3.025   3.768   8.970  0.6599 -0.0236  0.3636
16329SOL    HW261461   3.072   3.887   8.868  0.6433 -0.0982  0.2689
16330SOL     OW61462   8.752   5.187   2.391 -0.2642  0.1932  0.0765
16330SOL    HW161463   8.811   5.193   2.310 -0.3420 -0.7664 -0.0585
16330SOL    HW261464   8.800   5.225   2.470 -0.6611  2.3202 -0.6564
16331SOL     OW61465   2.916   8.545   4.090  0.1671 -0.3274  0.3102
16331SOL    HW161466   2.982   8.605   4.046 -0.8644  0.4268 -0.2197
16331SOL    HW261467   2.871   8.488   4.022 -0.2455 -0.3309  0.5826
16332SOL     OW61468   8.574   7.449   8.241  0.0528 -0.0411 -0.8786
16332SOL    HW161469   8.613   7.474   8.152  0.3768  0.6968 -0.5330
16332SOL    HW261470   8.647   7.418   8.301 -0.4481 -2.6504 -1.5659
16333SOL     OW61471   5.533   1.036   8.177  0.0152 -0.1130 -0.4289
16333SOL    HW161472   5.585   1.108   8.222 -0.2780  0.5826 -1.1987
16333SOL    HW261473   5.587   0.996   8.104 -0.3063  0.2093 -0.8455
16334SOL     OW61474   3.180   0.282   1.774 -0.7579 -0.1718  0.5987
16334SOL    HW161475   3.180   0.334   1.860 -1.2619 -0.7619  0.9585
16334SOL    HW261476   3.173   0.184   1.794 -1.3739 -0.2832 -0.1334
16335SOL     OW61477   8.226   3.258   6.387  0.2150 -0.0023 -0.3358
16335SOL    HW161478   8.151   3.321   6.405 -0.8745 -1.6772  1.1486
16335SOL    HW261479   8.242   3.253   6.288 -1.4511  0.5678 -0.6562
16336SOL     OW61480   2.561   5.307   1.318  0.4127  0.4339  0.5251
16336SOL    HW161481   2.622   5.262   1.383  0.3815 -0.0999  0.1932
16336SOL    HW261482   2.513   5.382   1.363  0.4826  0.1466  1.0833
16337SOL     OW61483   2.888   0.091   1.030  0.1382  0.7782  0.5930
16337SOL    HW161484   2.924   0.099   0.937  1.5482 -1.1487  0.9386
16337SOL    HW261485   2.825   0.013   1.035  1.4719 -0.2663  1.6489
16338SOL     OW61486   4.331   7.659   7.374  0.2536  0.2878  0.0334
16338SOL    HW161487   4.378   7.572   7.385 -0.5990 -0.2538 -0.5528
16338SOL    HW261488   4.261   7.651   7.303 -0.2778  1.2617  0.4333
16339SOL     OW61489   1.484   2.483   4.063 -0.3981  0.3831 -0.3966
16339SOL    HW161490   1.431   2.399   4.054 -0.0271  0.1522 -0.3971
16339SOL    HW261491   1.563   2.480   4.003  0.1379  0.3264  0.3023
16340SOL     OW61492   6.838   7.383   2.362 -0.3166 -0.1907 -0.0435
16340SOL    HW161493   6.738   7.384   2.354 -0.5135  1.9182  2.0424
16340SOL    HW261494   6.877   7.441   2.291 -0.4466 -2.1278 -1.7531
16341SOL     OW61495   6.439   5.020   8.907  0.1382 -0.0000  0.4235
16341SOL    HW161496   6.463   4.926   8.884  0.1607 -0.1425  1.0165
16341SOL    HW261497   6.375   5.056   8.839 -0.2035 -0.5879  0.4343
16342SOL     OW61498   5.203   3.332   2.311 -0.2776 -0.2188  0.4610
16342SOL    HW161499   5.236   3.375   2.395 -0.7570  2.0809 -0.4924
16342SOL    HW261500   5.276   3.277   2.271  0.6689  0.4425  1.2458
16343SOL     OW61501   3.306   5.538   2.770 -0.2226  0.0827  0.1153
16343SOL    HW161502   3.232   5.471   2.760 -0.7032  0.7661 -1.0977
16343SOL    HW261503   3.319   5.585   2.683 -0.3149  1.9993  1.1083
16344SOL     OW61504   7.967   5.536   7.247  0.1597  0.1850  0.5348
16344SOL    HW161505   7.880   5.527   7.296 -0.6388  1.8422 -0.5259
16344SOL    HW261506   7.952   5.522   7.149  1.0907  0.4005  0.3581
16345SOL     OW61507   1.446   4.914   8.245  0.5484 -0.4762 -0.2116
16345SOL    HW161508   1.358   4.896   8.201  1.3975 -1.7813 -1.4360
16345SOL    HW261509   1.434   4.917   8.344 -0.5408 -2.8740 -0.2298
16346SOL     OW61510   8.961   0.647   8.987  0.8907 -0.4607 -0.2871
16346SOL    HW161511   8.963   0.603   9.076  1.7823  0.0736 -0.0444
16346SOL    HW261512   9.001   0.586   8.918  2.1676 -0.0198  0.0567
16347SOL     OW61513   6.858   5.269   7.714 -0.2030  0.0911  0.4198
16347SOL    HW161514   6.896   5.220   7.636 -1.7834 -0.4676 -0.0104
16347SOL    HW261515   6.758   5.263   7.713 -0.3208  1.4325  1.6001
16348SOL     OW61516   1.265   5.253   4.715 -0.4560  0.1035 -0.7958
16348SOL    HW161517   1.283   5.195   4.636 -0.9285  1.4208 -1.9062
16348SOL    HW261518   1.212   5.203   4.783 -0.3486 -0.9281 -1.4630
16349SOL     OW61519   6.407   1.352   2.937 -0.0020 -0.2766 -0.4023
16349SOL    HW161520   6.366   1.406   3.011  0.1314  1.3099 -1.4744
16349SOL    HW261521   6.496   1.318   2.965 -0.2348 -0.2333  0.3984
16350SOL     OW61522   6.897   0.155   7.581  0.2993  0.0196 -0.6847
16350SOL    HW161523   6.905   0.211   7.664 -0.5252  0.1429 -0.6806
16350SOL    HW261524   6.813   0.101   7.585  0.1160  0.2231 -1.5558
16351SOL     OW61525   7.223   6.482   5.031  0.3412 -0.2487  0.5533
16351SOL    HW161526   7.281   6.475   5.112  0.3739  0.4529  0.5926
16351SOL    HW261527   7.198   6.577   5.015 -0.8520 -0.5506  0.5635
16352SOL     OW61528   2.831   4.196   8.498  0.3106 -0.0320  0.7383
16352SOL    HW161529   2.785   4.283   8.479  1.3670  0.4713  0.4729
16352SOL    HW261530   2.929   4.211   8.510  1.0333 -1.6423 -2.5788
16353SOL     OW61531   5.638   7.905   5.113  0.2526  0.0509 -0.1120
16353SOL    HW161532   5.714   7.849   5.083  0.9749  1.7666 -1.5718
16353SOL    HW261533   5.590   7.943   5.034 -1.3512  0.0050  0.8061
16354SOL     OW61534   0.880   4.318   7.762 -0.2134 -0.4986 -0.0901
16354SOL    HW161535   0.873   4.274   7.851  1.0393 -1.7102 -0.5820
16354SOL    HW261536   0.902   4.415   7.774 -2.2220 -0.1358  0.9585
16355SOL     OW61537   1.012   0.546   7.294 -0.0670 -0.5429  0.7828
16355SOL    HW161538   1.108   0.520   7.291 -0.4816 -2.3444  1.8321
16355SOL    HW261539   0.962   0.496   7.223 -0.1121  1.0033 -0.3012
16356SOL     OW61540   0.482   6.887   6.893 -0.5311 -0.1766 -0.7391
16356SOL    HW161541   0.406   6.869   6.956 -1.7965 -0.4169 -2.2847
16356SOL    HW261542   0.497   6.985   6.885 -1.0590 -0.1052 -0.8612
16357SOL     OW61543   6.347   4.965   1.572  0.7193  0.2586  0.9767
16357SOL    HW161544   6.398   5.043   1.536 -0.3079  0.2056 -0.6381
16357SOL    HW261545   6.362   4.885   1.514 -0.4182 -0.0124  1.0477
16358SOL     OW61546   5.208   3.431   1.131 -0.3146  0.7332  0.2165
16358SOL    HW161547   5.131   3.382   1.170 -0.7494  1.2966  0.0718
16358SOL    HW261548   5.176   3.513   1.085  0.0276 -0.5408 -2.4199
16359SOL     OW61549   5.808   7.717   2.865  0.0733 -0.0895 -0.3447
16359SOL    HW161550   5.746   7.651   2.906 -3.7875  2.0815 -2.3372
16359SOL    HW261551   5.835   7.686   2.774  1.7814 -0.9282  0.4346
16360SOL     OW61552   1.071   4.555   8.413 -0.0553 -0.4752 -0.3634
16360SOL    HW161553   1.002   4.623   8.439 -1.9951 -1.9712 -1.4015
16360SOL    HW261554   1.142   4.550   8.483 -1.6754  0.2476  1.3714
16361SOL     OW61555   3.210   1.348   6.166  0.1580 -0.8314 -0.0357
16361SOL    HW161556   3.191   1.273   6.104 -2.5744 -0.8486  0.7561
16361SOL    HW261557   3.127   1.403   6.179  1.0022 -0.0705  2.5598
16362SOL     OW61558   6.466   4.378   3.821  0.0114  0.2453  0.0961
16362SOL    HW161559   6.562   4.349   3.828  0.5996  2.0276 -0.3372
16362SOL    HW261560   6.439   4.422   3.906 -0.7100 -1.0213  0.5406
16363SOL     OW61561   0.862   2.113   8.105  0.2513 -0.4064  0.3874
16363SOL    HW161562   0.788   2.116   8.173 -1.4781 -0.8194 -1.4084
16363SOL    HW261563   0.854   2.028   8.052 -0.3994  1.3335 -2.4163
16364SOL     OW61564   6.357   5.809   2.233 -0.1264  0.0570  0.3587
16364SOL    HW161565   6.381   5.761   2.318  0.1191 -1.9300 -0.7789
16364SOL    HW261566   6.437   5.858   2.199  0.2950 -0.6268  0.3446
16365SOL     OW61567   0.281   7.322   5.966  0.2753 -0.0813  0.2051
16365SOL    HW161568   0.334   7.244   5.998  0.0829  0.1281  1.0392
16365SOL    HW261569   0.335   7.373   5.898  0.5635 -0.6944 -0.0305
16366SOL     OW61570   0.381   6.098   1.372  0.2192 -0.0372  0.0389
16366SOL    HW161571   0.416   6.060   1.286  1.5537 -2.7101  1.7154
16366SOL    HW261572   0.281   6.103   1.367  0.0740 -2.7331 -0.6901
16367SOL     OW61573   1.781   2.794   6.607 -0.4123 -0.0459 -0.1733
16367SOL    HW161574   1.739   2.852   6.677 -0.5283 -0.7172  0.3239
16367SOL    HW261575   1.803   2.849   6.527  1.1673  1.0805  0.9942
16368SOL     OW61576   0.347   2.408   0.386 -0.1780  0.2003  0.3788
16368SOL    HW161577   0.296   2.389   0.301  0.8591  0.7000 -0.3698
16368SOL    HW261578   0.439   2.440   0.363 -0.2439  1.3673  1.6890
16369SOL     OW61579   4.817   5.299   6.615  0.0443 -0.3749 -0.9485
16369SOL    HW161580   4.849   5.346   6.697 -0.1488 -2.0250  0.0982
16369SOL    HW261581   4.751   5.357   6.567  0.0833  0.5782  0.1184
16370SOL     OW61582   3.672   4.645   7.790  0.1834  0.7103 -0.1971
16370SOL    HW161583   3.681   4.684   7.882  1.7737  0.0734 -0.0820
16370SOL    HW261584   3.749   4.584   7.771 -1.4111 -1.1060 -1.0095
16371SOL     OW61585   7.884   2.511   2.678 -0.1828 -0.1671  0.0505
16371SOL    HW161586   7.914   2.601   2.648 -0.7412  0.0887  0.2454
16371SOL    HW261587   7.785   2.513   2.694 -0.8129 -1.7001 -3.2261
16372SOL     OW61588   8.660   6.479   0.799  0.3712 -0.2448 -0.4498
16372SOL    HW161589   8.676   6.410   0.870 -0.3589 -2.1965 -2.1112
16372SOL    HW261590   8.746   6.522   0.774  0.7502 -0.1113  1.0500
16373SOL     OW61591   0.628   8.329   8.275 -0.1635 -0.5048 -0.5888
16373SOL    HW161592   0.617   8.230   8.276 -0.2948 -0.4821  0.6587
16373SOL    HW261593   0.675   8.358   8.358  1.3243  0.3160 -1.7019
16374SOL     OW61594   6.720   1.766   3.328  0.1410 -0.3463  0.0656
16374SOL    HW161595   6.699   1.709   3.248  1.8086 -0.8397 -0.0497
16374SOL    HW261596   6.641   1.767   3.390  0.0283 -2.7101  0.0079
16375SOL     OW61597   0.902   3.125   7.100 -0.4297 -0.1263  0.1585
16375SOL    HW161598   0.916   3.046   7.040  1.5002 -0.3344  0.8603
16375SOL    HW261599   0.879   3.094   7.192 -1.1822  0.1573  0.0680
16376SOL     OW61600   5.411   2.637   5.430 -0.0444 -0.3859 -0.2151
16376SOL    HW161601   5.326   2.597   5.398 -0.7471  0.1603  0.9414
16376SOL    HW261602   5.478   2.636   5.356 -1.8469  1.4639 -1.9231
16377SOL     OW61603   4.118   4.253   8.064  0.4376 -0.8886  0.1599
16377SOL    HW161604   4.035   4.307   8.053  1.0824 -0.1253 -0.9158
16377SOL    HW261605   4.147   4.256   8.160  1.7729  2.5917 -0.2887
16378SOL     OW61606   3.820   1.887   8.700 -0.2765 -0.3982  0.4025
16378SOL    HW161607   3.782   1.978   8.681  0.5936  0.0305  0.7252
16378SOL    HW261608   3.786   1.822   8.632 -0.2161  0.3481 -0.3411
16379SOL     OW61609   4.902   5.253   8.973  0.4644 -0.0871 -0.0790
16379SOL    HW161610   4.831   5.322   8.970  0.8957  0.3950  0.6484
16379SOL    HW261611   4.871   5.171   8.925  0.4858  1.0973 -2.1834
16380SOL     OW61612   8.627   4.824   6.032 -0.3431  0.6560  0.0250
16380SOL    HW161613   8.530   4.849   6.025 -0.3656  0.2197 -1.2770
16380SOL    HW261614   8.638   4.727   6.011  0.4317  0.8149 -0.3115
16381SOL     OW61615   8.228   0.968   6.767  0.0936  0.0148 -0.2421
16381SOL    HW161616   8.181   0.889   6.807  1.1625 -0.6133 -0.2025
16381SOL    HW261617   8.227   0.960   6.668  0.0110  0.0583 -0.2443
16382SOL     OW61618   8.114   1.677   7.461 -0.3961  0.4333  0.4620
16382SOL    HW161619   8.149   1.588   7.432  1.3687  1.3849 -0.4225
16382SOL    HW261620   8.014   1.674   7.463 -0.4411 -0.8992 -1.8008
16383SOL     OW61621   1.985   5.504   0.047  0.4946  0.2923  0.4619
16383SOL    HW161622   1.944   5.593   0.027  1.8577  0.7563 -0.2968
16383SOL    HW261623   2.066   5.516   0.103  0.8414 -0.4504  0.1289
16384SOL     OW61624   8.804   3.484   6.910 -0.5639  0.3681  0.0930
16384SOL    HW161625   8.833   3.539   6.831  0.3220 -0.8715 -0.4638
16384SOL    HW261626   8.705   3.467   6.904 -0.5987  0.7566 -0.4518
16385SOL     OW61627   2.502   4.174   2.113 -0.1407 -0.0843 -0.2756
16385SOL    HW161628   2.597   4.152   2.089  0.4903  2.7460 -0.4846
16385SOL    HW261629   2.453   4.207   2.032 -1.2014 -1.1519 -0.0795
16386SOL     OW61630   7.221   2.190   3.773 -0.5128 -0.5698  0.1509
16386SOL    HW161631   7.264   2.148   3.853  0.4096  0.9014  0.4550
16386SOL    HW261632   7.170   2.272   3.802  0.8521  0.6750 -0.9046
16387SOL     OW61633   2.991   5.732   7.024  0.3439  0.4652 -0.8294
16387SOL    HW161634   2.963   5.794   7.097 -0.7805  2.6740 -3.0528
16387SOL    HW261635   3.091   5.734   7.015  0.7367 -1.7942  2.2668
16388SOL     OW61636   8.794   2.576   7.109  0.1466  0.1204  0.1945
16388SOL    HW161637   8.881   2.570   7.158  0.1492  0.8793  0.2853
16388SOL    HW261638   8.798   2.652   7.044  0.1988 -0.9672 -1.1057
16389SOL     OW61639   8.824   1.840   6.622 -0.5070 -0.2517 -0.1314
16389SOL    HW161640   8.875   1.916   6.583  0.2827 -1.0398 -0.6376
16389SOL    HW261641   8.729   1.844   6.591 -0.0892 -0.3871 -1.4710
16390SOL     OW61642   2.456   4.273   2.842 -0.0075  0.1129 -0.4166
16390SOL    HW161643   2.431   4.310   2.753  0.8103 -0.1977 -0.7722
16390SOL    HW261644   2.452   4.345   2.911  0.7194  0.6531 -0.9478
16391SOL     OW61645   0.936   5.205   0.624  0.2544 -0.2682  0.0169
16391SOL    HW161646   1.034   5.188   0.634  0.9679  2.6139 -1.5832
16391SOL    HW261647   0.915   5.298   0.655 -1.6941 -0.2868 -1.1546
16392SOL     OW61648   6.941   6.240   1.891  0.2315  0.3563  0.1379
16392SOL    HW161649   7.006   6.266   1.820 -1.5424 -0.7158 -1.9017
16392SOL    HW261650   6.913   6.322   1.941  0.8904  1.2308 -0.8924
16393SOL     OW61651   1.912   2.217   8.353 -0.6005  0.3048  0.3922
16393SOL    HW161652   1.812   2.223   8.349 -0.6315 -0.5230 -0.2252
16393SOL    HW261653   1.948   2.297   8.401 -1.5384  0.7684  0.3427
16394SOL     OW61654   4.249   2.688   6.188 -0.1206  0.3252  0.4063
16394SOL    HW161655   4.286   2.749   6.119  0.2396  0.7557  0.9772
16394SOL    HW261656   4.221   2.602   6.145  0.7189  0.3336 -0.1750
16395SOL     OW61657   4.336   1.458   1.676  0.1928 -0.0250 -0.0649
16395SOL    HW161658   4.407   1.521   1.708  0.8029 -0.2041 -1.0548
16395SOL    HW261659   4.249   1.483   1.718 -0.0572  2.9453 -2.1941
16396SOL     OW61660   3.093   8.322   1.555  0.6138 -0.1092 -0.4499
16396SOL    HW161661   3.067   8.250   1.491 -0.7961 -0.7944  0.8681
16396SOL    HW261662   3.192   8.321   1.569  0.6340 -1.6214 -0.6492
16397SOL     OW61663   3.896   2.674   5.976 -0.3611 -0.4730 -0.3800
16397SOL    HW161664   3.854   2.591   6.014  1.9491 -0.8715  1.4038
16397SOL    HW261665   3.923   2.656   5.882 -0.7209 -1.4365 -0.3145
16398SOL     OW61666   2.426   3.413   3.368 -0.1581 -0.1665 -0.5354
16398SOL    HW161667   2.326   3.405   3.364 -0.2276 -0.1562  0.8391
16398SOL    HW261668   2.451   3.503   3.405  0.3531 -0.2355 -0.7083
16399SOL     OW61669   5.579   5.881   6.344  0.0547  0.3334 -0.2001
16399SOL    HW161670   5.573   5.975   6.312  0.3627  0.1870 -0.6848
16399SOL    HW261671   5.523   5.822   6.286  0.2280  0.1417 -0.1718
16400SOL     OW61672   1.902   6.354   4.232 -0.6805 -0.9393 -0.6380
16400SOL    HW161673   1.846   6.435   4.252  2.2589  0.8564  0.7200
16400SOL    HW261674   1.947   6.366   4.144  1.3228 -0.0813  0.4421
16401SOL     OW61675   0.181   4.070   1.208 -0.5743 -0.4428 -0.0285
16401SOL    HW161676   0.198   4.088   1.112 -0.7203  1.2023  0.2441
16401SOL    HW261677   0.101   4.121   1.239  1.7585  2.1902  1.9169
16402SOL     OW61678   8.106   7.344   5.531  0.8877  0.7769  0.0421
16402SOL    HW161679   8.093   7.323   5.628  0.8869  0.6582  0.0171
16402SOL    HW261680   8.153   7.432   5.521 -0.6225  1.6058  0.1170
16403SOL     OW61681   3.618   0.733   6.871 -0.2151  0.5014 -0.4487
16403SOL    HW161682   3.566   0.778   6.799  1.6003  2.7394 -0.4063
16403SOL    HW261683   3.598   0.776   6.959  0.0427 -0.0710 -0.1053
16404SOL     OW61684   1.104   5.662   7.370  0.3640 -0.6625 -0.3068
16404SOL    HW161685   1.129   5.746   7.419 -0.1726 -0.6333 -0.0795
16404SOL    HW261686   1.110   5.678   7.272 -0.7849 -0.0253 -0.2889
16405SOL     OW61687   4.187   1.807   2.346 -0.0292  0.6260  0.1434
16405SOL    HW161688   4.218   1.902   2.348  1.3357  0.2093 -1.0472
16405SOL    HW261689   4.094   1.803   2.309 -0.8019  1.6688  1.9151
16406SOL     OW61690   3.550   3.124   1.567 -0.0813 -0.0454 -0.2323
16406SOL    HW161691   3.471   3.132   1.506 -0.1916 -0.2003 -0.1101
16406SOL    HW261692   3.543   3.191   1.640  0.8317  1.1973 -1.2573
16407SOL     OW61693   6.916   8.888   8.460  0.2180 -0.2251 -0.3431
16407SOL    HW161694   7.000   8.870   8.408  1.7451 -0.9925  2.2823
16407SOL    HW261695   6.895   8.810   8.518 -1.7330  0.4098 -0.1558
16408SOL     OW61696   1.167   6.515   1.653  0.3345 -0.1741 -0.3975
16408SOL    HW161697   1.106   6.544   1.579 -1.6403 -1.5418  0.6446
16408SOL    HW261698   1.187   6.594   1.712 -1.8454 -0.0451  0.2257
16409SOL     OW61699   7.689   2.223   0.238  0.1405 -0.6778  0.4739
16409SOL    HW161700   7.712   2.234   0.335  1.2369  0.1410  0.1283
16409SOL    HW261701   7.649   2.132   0.223  1.4772 -1.4360  1.4156
16410SOL     OW61702   2.075   7.320   7.097 -0.1170 -0.7510  0.3383
16410SOL    HW161703   2.140   7.306   7.022  0.9534  0.1579  1.0812
16410SOL    HW261704   2.050   7.416   7.102  0.3412 -0.6852  1.5619
16411SOL     OW61705   8.825   6.010   7.754  0.3563 -0.1264 -0.3745
16411SOL    HW161706   8.790   5.936   7.698 -2.4925  1.8427 -1.2900
16411SOL    HW261707   8.790   6.001   7.847  1.5036 -0.9236 -0.0085
16412SOL     OW61708   4.070   2.604   0.419  0.3040 -0.5018 -0.2541
16412SOL    HW161709   3.982   2.630   0.459  1.5848 -1.1288  3.1153
16412SOL    HW261710   4.069   2.624   0.321 -3.1254  0.6538 -0.0503
16413SOL     OW61711   4.122   1.222   7.111  0.0842 -0.3937  0.0404
16413SOL    HW161712   4.045   1.213   7.174 -0.1874  0.0420 -0.2302
16413SOL    HW261713   4.117   1.151   7.041  0.2436 -0.7172  0.3533
16414SOL     OW61714   6.772   0.675   8.851  0.2258  0.2877  0.2890
16414SOL    HW161715   6.689   0.624   8.831 -0.4540  1.7018 -0.5911
16414SOL    HW261716   6.846   0.612   8.875 -0.9637 -1.0001  0.5816
16415SOL     OW61717   2.942   6.314   3.215  0.6732 -0.1413  0.3980
16415SOL    HW161718   2.857   6.266   3.239  1.2452 -1.3534  0.0362
16415SOL    HW261719   3.000   6.322   3.296  1.5077 -1.9880  0.0026
16416SOL     OW61720   0.442   6.828   4.856 -0.5518 -0.3374 -0.4303
16416SOL    HW161721   0.386   6.761   4.807  1.3889 -0.3721 -2.6755
16416SOL    HW261722   0.497   6.880   4.791  0.0733  1.5279  1.5149
16417SOL     OW61723   6.323   3.920   3.408  0.2224 -0.4962 -0.6430
16417SOL    HW161724   6.331   3.898   3.310  1.1490 -1.7258 -0.3014
16417SOL    HW261725   6.360   4.012   3.424 -0.4743 -0.0438 -1.5301
16418SOL     OW61726   1.863   4.736   6.828  0.2069 -0.4027 -0.2878
16418SOL    HW161727   1.782   4.728   6.886  0.5186 -0.9210  0.0797
16418SOL    HW261728   1.875   4.652   6.775  0.2666 -0.1643 -0.6532
16419SOL     OW61729   1.801   5.976   7.042 -0.3005 -0.0389  0.5419
16419SOL    HW161730   1.732   5.904   7.044  0.4657 -0.8139 -0.5294
16419SOL    HW261731   1.837   5.985   6.949  1.1468  0.2587  1.1182
16420SOL     OW61732   8.185   5.790   0.931  0.1699  0.2577 -0.4468
16420SOL    HW161733   8.165   5.882   0.964  2.8357  0.7494 -0.1077
16420SOL    HW261734   8.214   5.794   0.836  2.0978  0.0245  0.1042
16421SOL     OW61735   1.762   3.687   4.735  0.2271 -0.7003 -0.0693
16421SOL    HW161736   1.801   3.657   4.821  0.6824 -0.7105 -0.2755
16421SOL    HW261737   1.667   3.655   4.727 -0.2360  0.3927  0.9958
16422SOL     OW61738   4.990   5.788   1.228 -0.2863  0.1135 -0.2310
16422SOL    HW161739   5.070   5.814   1.175 -0.1802 -1.5003 -0.8761
16422SOL    HW261740   4.972   5.690   1.217 -0.2225 -0.2915  2.7524
16423SOL     OW61741   6.818   1.126   7.308 -0.4949 -0.4149  0.0769
16423SOL    HW161742   6.791   1.214   7.349 -0.0159  0.8723 -2.2514
16423SOL    HW261743   6.913   1.107   7.330 -0.7088 -0.5426  0.9051
16424SOL     OW61744   7.041   0.478   6.566 -0.0162  0.3136  0.2812
16424SOL    HW161745   7.023   0.391   6.613  0.4986 -0.2170 -0.4848
16424SOL    HW261746   7.011   0.471   6.471 -0.7249  1.2595  0.4335
16425SOL     OW61747   8.142   2.975   2.684  0.0427 -0.2346 -0.2198
16425SOL    HW161748   8.050   2.998   2.717  0.7588 -0.0670  1.7497
16425SOL    HW261749   8.169   2.885   2.719  1.1341  0.2928  0.3317
16426SOL     OW61750   3.094   0.431   7.391  0.1190 -0.3629  0.2281
16426SOL    HW161751   3.173   0.451   7.449  0.2051  1.1365 -0.3933
16426SOL    HW261752   3.016   0.485   7.422  0.2601  0.7125 -1.2586
16427SOL     OW61753   1.402   0.188   5.243 -0.2914 -0.4174  0.1748
16427SOL    HW161754   1.414   0.089   5.236  0.7274 -0.4079  1.6221
16427SOL    HW261755   1.426   0.231   5.156  0.2009 -1.3504 -0.1572
16428SOL     OW61756   6.092   4.481   4.347  0.4585  0.3902 -0.3703
16428SOL    HW161757   6.014   4.451   4.403  0.4548  0.6751 -0.2223
16428SOL    HW261758   6.130   4.402   4.299  0.2229  0.2087 -0.2634
16429SOL     OW61759   0.764   6.159   1.870  0.5500 -0.0317 -0.1167
16429SOL    HW161760   0.720   6.185   1.785  1.7633  1.4203 -0.3300
16429SOL    HW261761   0.863   6.170   1.861  0.8909 -2.1227  0.7196
16430SOL     OW61762   1.032   3.932   2.413 -0.0953  0.0057  0.1003
16430SOL    HW161763   0.950   3.879   2.392 -2.4335  3.9467 -1.0582
16430SOL    HW261764   1.007   4.016   2.461  3.0670  2.2686 -2.0227
16431SOL     OW61765   5.835   0.539   3.772  0.0101  0.3222  0.4557
16431SOL    HW161766   5.933   0.546   3.758  0.0355  1.1950  1.0014
16431SOL    HW261767   5.803   0.449   3.742  0.8220  0.3562 -0.5543
16432SOL     OW61768   2.107   2.107   0.458 -0.1590  0.3715 -0.2661
16432SOL    HW161769   2.136   2.012   0.443 -1.0488 -0.2047  1.4824
16432SOL    HW261770   2.014   2.119   0.421 -0.8278  0.0077  1.2768
16433SOL     OW61771   2.743   5.241   1.741 -0.3122  0.2631  0.0999
16433SOL    HW161772   2.807   5.165   1.749 -2.0492 -1.2083  0.3511
16433SOL    HW261773   2.694   5.252   1.827 -2.6773 -0.7294 -1.0789
16434SOL     OW61774   7.677   6.222   2.256  0.1307 -0.5745  0.2114
16434SOL    HW161775   7.682   6.293   2.326 -2.7182 -0.9495  0.8777
16434SOL    HW261776   7.639   6.138   2.296 -1.0329 -0.9618 -1.6356
16435SOL     OW61777   0.311   7.195   0.577 -0.5690 -0.5088  0.0716
16435SOL    HW161778   0.265   7.247   0.505 -0.4332  0.5010  0.6986
16435SOL    HW261779   0.303   7.244   0.663 -0.6111 -1.6489  0.7159
16436SOL     OW61780   4.059   2.210   0.392 -0.0935 -0.5974  0.2033
16436SOL    HW161781   4.041   2.225   0.489 -0.7698 -0.2417  0.0271
16436SOL    HW261782   4.131   2.142   0.381  2.3203  1.7249  1.0270
16437SOL     OW61783   0.915   8.570   6.566 -0.1403  0.0744 -0.5860
16437SOL    HW161784   0.993   8.602   6.513  0.0542 -0.8516 -0.8766
16437SOL    HW261785   0.849   8.644   6.578  1.1830  1.1046  0.4111
16438SOL     OW61786   3.380   5.219   4.751  0.2311 -0.6432  0.1424
16438SOL    HW161787   3.358   5.240   4.846  1.6175  1.0748  0.1184
16438SOL    HW261788   3.385   5.304   4.698  2.6958 -1.2591 -0.7244
16439SOL     OW61789   2.269   4.012   2.179 -0.1698  0.6889 -0.6589
16439SOL    HW161790   2.345   4.072   2.154 -0.3897  0.9516 -0.7065
16439SOL    HW261791   2.184   4.049   2.140 -0.3351  0.4514 -0.5245
16440SOL     OW61792   7.745   4.271   2.288  0.2057  0.6527 -0.2831
16440SOL    HW161793   7.685   4.348   2.310  0.3742  0.9180 -0.7622
16440SOL    HW261794   7.707   4.188   2.329  0.7631  1.2228  1.4241
16441SOL     OW61795   7.988   6.343   8.377  0.4475 -0.8128  0.4672
16441SOL    HW161796   7.927   6.413   8.341  0.1518 -2.2939 -2.0335
16441SOL    HW261797   7.992   6.266   8.313  0.7433 -3.1153  3.1172
16442SOL     OW61798   0.130   5.980   0.499  0.4009 -0.0120  0.4180
16442SOL    HW161799   0.030   5.977   0.502  0.4152  0.0352  1.2092
16442SOL    HW261800   0.164   6.015   0.587  1.1279 -0.5161  0.3377
16443SOL     OW61801   0.191   5.712   2.953  0.0872 -0.3935  0.0506
16443SOL    HW161802   0.210   5.634   2.894  0.9091 -0.1112 -0.0670
16443SOL    HW261803   0.276   5.761   2.972 -0.7391  1.9958 -2.0157
16444SOL     OW61804   0.570   4.141   3.448 -0.3526 -0.0934  0.1351
16444SOL    HW161805   0.502   4.097   3.506  0.4417 -0.1402  1.0376
16444SOL    HW261806   0.607   4.221   3.494 -0.8447  0.7910 -0.9652
16445SOL     OW61807   8.015   5.864   0.584 -0.1727 -0.2238 -0.0044
16445SOL    HW161808   8.035   5.948   0.634 -1.0724  0.6235 -1.0260
16445SOL    HW261809   7.921   5.867   0.549 -0.1354 -1.5472 -0.2600
16446SOL     OW61810   4.635   7.958   2.793 -0.3399 -0.4791  0.2762
16446SOL    HW161811   4.586   8.045   2.791  0.4047 -0.0212  1.5236
16446SOL    HW261812   4.687   7.946   2.709 -0.1167  0.4682  0.2809
16447SOL     OW61813   1.405   4.800   4.609  0.5975  0.0504  0.3840
16447SOL    HW161814   1.349   4.760   4.537  2.0058  1.2481 -1.4389
16447SOL    HW261815   1.486   4.842   4.568  2.0147 -0.2513  2.7911
16448SOL     OW61816   0.034   2.611   3.620  0.0207  0.0129  0.1118
16448SOL    HW161817   0.115   2.667   3.634 -0.0208  1.2350 -3.9877
16448SOL    HW261818  -0.047   2.661   3.651  0.3521  0.6900 -0.1157
16449SOL     OW61819   4.015   8.164   5.453 -0.7000 -0.0977 -0.6693
16449SOL    HW161820   4.087   8.219   5.494 -0.5186  1.4716 -2.9739
16449SOL    HW261821   4.049   8.072   5.436 -1.0746 -1.0782  3.4340
16450SOL     OW61822   7.106   4.209   4.436 -0.5589  0.3471 -0.1378
16450SOL    HW161823   7.038   4.137   4.429  0.0674 -0.4040  1.3683
16450SOL    HW261824   7.094   4.274   4.360 -2.4976 -0.1355 -0.2664
16451SOL     OW61825   1.867   3.073   7.854  0.2373  0.3352  0.0804
16451SOL    HW161826   1.966   3.058   7.850  0.4645  1.2827  1.9061
16451SOL    HW261827   1.821   2.989   7.883  0.6959  0.5026  1.2964
16452SOL     OW61828   8.250   8.165   6.631  0.2264 -0.1823 -0.4478
16452SOL    HW161829   8.330   8.147   6.573 -0.9217 -0.1843 -2.0724
16452SOL    HW261830   8.248   8.099   6.706  1.8150 -0.1076 -0.3136
16453SOL     OW61831   1.161   6.701   4.301  0.9901 -0.4830 -0.1157
16453SOL    HW161832   1.106   6.740   4.375 -0.3301 -0.9326 -0.8634
16453SOL    HW261833   1.156   6.760   4.221 -0.2703 -1.7054 -0.9468
16454SOL     OW61834   1.884   4.753   8.081 -0.0893 -0.1051 -0.3900
16454SOL    HW161835   1.930   4.839   8.059 -0.0192 -0.3934 -1.3947
16454SOL    HW261836   1.875   4.697   7.998 -1.1567 -0.5768  0.0277
16455SOL     OW61837   0.526   5.545   1.187 -0.7934 -0.5603 -0.1961
16455SOL    HW161838   0.475   5.557   1.102 -1.0302 -0.8939 -0.1037
16455SOL    HW261839   0.489   5.467   1.237 -1.1257  0.0603  0.5533
16456SOL     OW61840   7.316   0.647   4.602  0.3937  0.2298  1.1406
16456SOL    HW161841   7.293   0.614   4.694 -0.8926  0.9997  1.1031
16456SOL    HW261842   7.334   0.568   4.542  0.6740 -0.2915  1.9071
16457SOL     OW61843   0.212   5.296   3.603 -0.0089  0.3870 -0.2803
16457SOL    HW161844   0.208   5.293   3.702 -0.0209 -1.8442 -0.3094
16457SOL    HW261845   0.121   5.319   3.566 -0.3183 -0.0260  0.2138
16458SOL     OW61846   3.630   6.281   2.352  0.0015  0.5458 -0.0912
16458SOL    HW161847   3.719   6.326   2.357  0.0810  0.8370 -2.9032
16458SOL    HW261848   3.643   6.184   2.330 -0.3873  1.1228 -3.0985
16459SOL     OW61849   1.745   7.734   1.514 -0.0678 -0.1678  0.2064
16459SOL    HW161850   1.689   7.815   1.531 -0.6052 -0.4959  0.0176
16459SOL    HW261851   1.786   7.740   1.424  0.0476 -0.0135  0.2695
16460SOL     OW61852   1.364   4.132   1.790 -0.4380  0.1336  0.0245
16460SOL    HW161853   1.398   4.090   1.874 -0.5110 -2.2227 -1.0860
16460SOL    HW261854   1.421   4.211   1.766  1.2702 -0.8484  0.7976
16461SOL     OW61855   0.485   4.884   3.872 -0.7753 -0.4305  0.7211
16461SOL    HW161856   0.570   4.925   3.838 -0.6717 -1.0064  0.2835
16461SOL    HW261857   0.424   4.957   3.905 -0.2492  0.0089  0.7213
16462SOL     OW61858   0.921   5.095   7.185 -0.5087 -0.0515  1.7405
16462SOL    HW161859   0.961   5.148   7.110 -1.6653  0.9813  1.8277
16462SOL    HW261860   0.900   5.003   7.154  0.3247 -0.0630  1.2004
16463SOL     OW61861   8.163   7.475   8.286  0.4760 -0.1273 -0.3456
16463SOL    HW161862   8.130   7.569   8.294  0.5432 -0.2306  1.3078
16463SOL    HW261863   8.216   7.465   8.202 -0.1675  1.1227 -0.9023
16464SOL     OW61864   8.075   3.832   7.668 -0.0693 -0.8557 -0.1238
16464SOL    HW161865   8.000   3.888   7.634  0.1716 -0.0051  0.7224
16464SOL    HW261866   8.086   3.751   7.609 -0.9308 -0.4285 -0.8828
16465SOL     OW61867   2.034   5.626   4.504 -0.0708 -0.6273 -0.0868
16465SOL    HW161868   2.045   5.557   4.432 -0.1495 -0.7097 -0.0190
16465SOL    HW261869   2.053   5.717   4.466 -0.7852 -0.6008 -0.3743
16466SOL     OW61870   7.857   4.589   4.352 -0.6108  0.4133  0.1961
16466SOL    HW161871   7.860   4.504   4.301  0.0738  0.4114  0.2329
16466SOL    HW261872   7.762   4.611   4.375 -1.0838  1.2151 -2.3783
16467SOL     OW61873   6.166   1.653   8.514 -0.4845  0.0850 -0.4876
16467SOL    HW161874   6.144   1.592   8.438 -1.3384  0.0276 -0.1906
16467SOL    HW261875   6.186   1.745   8.478  0.6544 -0.3116 -0.9202
16468SOL     OW61876   5.017   7.964   2.616 -0.5314  0.1634  0.4357
16468SOL    HW161877   5.068   7.927   2.538 -2.1483 -0.9910 -0.1083
16468SOL    HW261878   5.070   7.951   2.699  0.4885 -0.1149 -0.2400
16469SOL     OW61879   5.923   7.329   6.397  0.0916 -0.1413 -0.3731
16469SOL    HW161880   5.953   7.245   6.441  0.0090  0.1989  0.3496
16469SOL    HW261881   5.885   7.391   6.467 -2.1348 -0.4951 -1.2239
16470SOL     OW61882   1.464   2.879   6.898  0.5435  0.2852  0.0178
16470SOL    HW161883   1.443   2.795   6.947  0.2767  0.2006 -0.2437
16470SOL    HW261884   1.431   2.958   6.950  0.8196  0.2318  0.2761
16471SOL     OW61885   1.370   3.332   0.990 -0.1131  0.2117  0.4131
16471SOL    HW161886   1.337   3.296   0.903 -0.3062 -0.4272  0.7402
16471SOL    HW261887   1.305   3.399   1.025  0.0474  0.5895 -0.0149
16472SOL     OW61888   7.984   0.726   5.152 -0.2109  0.0087 -0.0583
16472SOL    HW161889   7.953   0.797   5.215  1.4824 -0.5414  1.4323
16472SOL    HW261890   7.906   0.688   5.103 -1.4018  1.3008  0.8299
16473SOL     OW61891   2.588   7.209   5.488 -1.0499  0.2521 -0.4560
16473SOL    HW161892   2.575   7.307   5.503 -1.0580  0.0310  1.0662
16473SOL    HW261893   2.633   7.169   5.568  0.1522 -0.7564 -1.6105
16474SOL     OW61894   2.577   3.092   2.677  0.6575  0.3001 -0.5363
16474SOL    HW161895   2.566   3.150   2.596  1.7012 -1.7513 -2.1885
16474SOL    HW261896   2.587   3.150   2.758  1.6660  2.4479 -2.1328
16475SOL     OW61897   8.246   3.404   5.757  0.2976 -0.3183  0.3059
16475SOL    HW161898   8.226   3.483   5.816 -1.4174  0.1962 -0.9472
16475SOL    HW261899   8.345   3.394   5.748  0.5816  0.0726  2.6334
16476SOL     OW61900   3.986   1.368   3.134  0.4015  0.1647  0.1217
16476SOL    HW161901   3.910   1.334   3.190 -0.4769  2.1022  0.1666
16476SOL    HW261902   4.019   1.295   3.074 -1.4921 -0.7187  0.1085
16477SOL     OW61903   5.937   6.322   3.478  0.7221 -0.0837  0.2492
16477SOL    HW161904   5.981   6.315   3.568 -0.5596 -0.3229  0.8743
16477SOL    HW261905   5.994   6.275   3.410  0.3323 -2.4214  1.4616
16478SOL     OW61906   4.852   7.358   0.265  0.4249 -0.1816 -0.1917
16478SOL    HW161907   4.802   7.313   0.339  0.7155  0.3675  0.3458
16478SOL    HW261908   4.906   7.291   0.214 -1.1655 -0.8391 -1.0219
16479SOL     OW61909   2.763   8.521   8.695  0.6017  0.3313 -0.4641
16479SOL    HW161910   2.723   8.591   8.636 -0.3344  0.7425  0.6429
16479SOL    HW261911   2.830   8.564   8.756 -1.2339  0.5762  1.4114
16480SOL     OW61912   3.976   1.961   7.121 -0.5459  0.2752  0.5826
16480SOL    HW161913   4.068   1.928   7.146 -1.6354 -1.8378  1.9615
16480SOL    HW261914   3.969   2.058   7.144  1.5466  0.6376 -0.1415
16481SOL     OW61915   0.533   2.168   8.068 -0.3815  0.1176 -0.2288
16481SOL    HW161916   0.462   2.237   8.082  0.3254  0.4747  1.7327
16481SOL    HW261917   0.502   2.102   7.998 -2.1779  0.8711 -0.1704
16482SOL     OW61918   3.092   6.914   5.644 -0.7756 -0.1335  0.3809
16482SOL    HW161919   3.098   7.013   5.659 -0.0462 -0.1659  0.3258
16482SOL    HW261920   3.010   6.878   5.688 -1.3928  0.6032 -0.1446
16483SOL     OW61921   6.242   4.130   0.077 -0.1861 -0.3722 -0.1375
16483SOL    HW161922   6.322   4.159   0.025  0.1976 -1.0631  0.0588
16483SOL    HW261923   6.267   4.055   0.138 -0.1457  1.7301  2.5340
16484SOL     OW61924   1.561   2.289   7.664 -0.2129 -0.2193 -0.2953
16484SOL    HW161925   1.576   2.206   7.718  1.2983  0.2346 -0.0048
16484SOL    HW261926   1.517   2.358   7.722 -0.9520 -0.6154 -0.3775
16485SOL     OW61927   4.651   8.953   6.530 -1.0565  0.0780 -0.3807
16485SOL    HW161928   4.651   8.912   6.439  1.8810  0.7077 -0.7469
16485SOL    HW261929   4.589   9.032   6.531 -1.4425 -0.1916 -1.7226
16486SOL     OW61930   2.869   3.860   5.471 -0.2586 -0.2147 -0.1713
16486SOL    HW161931   2.863   3.765   5.501 -0.5909 -0.4624 -1.0069
16486SOL    HW261932   2.855   3.865   5.372 -0.0437  0.6826 -0.1645
16487SOL     OW61933   2.109   6.954   1.138  0.5179  0.1535  0.3154
16487SOL    HW161934   2.178   6.915   1.199 -0.2385 -0.3366  0.8787
16487SOL    HW261935   2.020   6.953   1.185  0.4649  2.4913  0.3269
16488SOL     OW61936   1.526   3.354   0.597  0.4650 -0.2757 -0.0641
16488SOL    HW161937   1.583   3.374   0.517 -1.0350  1.7104 -0.6622
16488SOL    HW261938   1.567   3.396   0.678  0.3938  0.2785 -0.3132
16489SOL     OW61939   1.560   5.269   8.827 -0.1879  0.6072 -0.4759
16489SOL    HW161940   1.499   5.324   8.884 -1.1071  0.5618 -1.3902
16489SOL    HW261941   1.653   5.272   8.863 -0.9432 -0.2314  1.5830
16490SOL     OW61942   6.016   8.097   0.142  0.0138 -0.1168  0.7058
16490SOL    HW161943   5.966   8.161   0.200 -0.1347  1.4803 -1.1614
16490SOL    HW261944   6.114   8.115   0.150 -0.0796  0.9808 -0.5413
16491SOL     OW61945   8.593   2.931   3.559  0.2028 -0.0786 -0.2702
16491SOL    HW161946   8.502   2.951   3.521 -1.1340 -2.0572  1.7460
16491SOL    HW261947   8.597   2.964   3.653  1.3248 -0.6743 -0.1026
16492SOL     OW61948   2.474   2.796   0.963 -0.0446  0.1313  0.2172
16492SOL    HW161949   2.507   2.745   0.883 -0.9169  0.8078 -0.5798
16492SOL    HW261950   2.375   2.806   0.957 -0.1485 -0.0853  1.5494
16493SOL     OW61951   6.862   3.771   4.835  0.2457 -0.6943  0.3009
16493SOL    HW161952   6.893   3.790   4.929  0.5520 -0.6556  0.1917
16493SOL    HW261953   6.763   3.758   4.835  0.0537  0.6550  0.4255
16494SOL     OW61954   8.920   0.962   7.789  0.0385  0.1033  0.5890
16494SOL    HW161955   8.969   1.008   7.714  0.3628 -1.2496 -0.0311
16494SOL    HW261956   8.833   0.927   7.755  1.1082 -2.3649  0.2853
16495SOL     OW61957   8.198   5.202   7.255  0.5619 -0.4065 -0.4603
16495SOL    HW161958   8.278   5.238   7.207  0.3531  2.0912  0.9880
16495SOL    HW261959   8.122   5.268   7.247 -0.5475 -1.5700  0.3447
16496SOL     OW61960   1.801   2.644   7.563  0.0623  0.3436  0.5368
16496SOL    HW161961   1.883   2.611   7.515  1.5831 -0.0260  3.2646
16496SOL    HW261962   1.719   2.613   7.514  1.5063 -2.4022 -0.2710
16497SOL     OW61963   8.726   7.618   5.578  0.4392  0.6238 -0.4718
16497SOL    HW161964   8.658   7.648   5.645  0.5175 -0.9489  0.3200
16497SOL    HW261965   8.708   7.523   5.552  0.8159  0.9974 -2.1824
16498SOL     OW61966   6.465   7.203   3.383  0.4278  0.1330 -0.2029
16498SOL    HW161967   6.376   7.187   3.424  1.7412 -1.3484  2.1546
16498SOL    HW261968   6.478   7.302   3.369 -0.4922  0.5732  1.9379
16499SOL     OW61969   2.961   2.884   1.840 -0.4562  0.0348 -0.0654
16499SOL    HW161970   2.883   2.930   1.798 -1.1142 -1.7811 -0.8730
16499SOL    HW261971   2.942   2.868   1.937  1.3138  4.7836  1.2050
16500SOL     OW61972   2.454   0.673   1.441 -0.6619  0.5950  0.4144
16500SOL    HW161973   2.501   0.639   1.522  0.2417  0.0013 -0.3464
16500SOL    HW261974   2.445   0.773   1.446 -1.1641  0.4983  1.5255
16501SOL     OW61975   2.508   1.785   4.733  0.1454  0.5596 -1.3194
16501SOL    HW161976   2.458   1.841   4.668  0.3509  1.2795 -0.8696
16501SOL    HW261977   2.520   1.693   4.696  0.6502  1.0811 -2.4924
16502SOL     OW61978   7.982   3.949   7.351  0.3648  0.4835  0.2566
16502SOL    HW161979   7.898   3.964   7.300 -0.4446  0.2569  1.4922
16502SOL    HW261980   8.041   3.886   7.301 -0.8225 -0.4796  0.0614
16503SOL     OW61981   2.971   0.734   7.784 -0.2100  0.1986  0.0528
16503SOL    HW161982   3.017   0.801   7.843 -2.0495  2.5406 -1.0829
16503SOL    HW261983   2.886   0.704   7.827 -1.1892  1.3567 -1.0570
16504SOL     OW61984   1.896   4.480   6.601  0.1737 -0.0548  0.0221
16504SOL    HW161985   1.976   4.534   6.626  1.3719 -1.6163 -0.3610
16504SOL    HW261986   1.887   4.478   6.502 -0.7493  0.6863  0.0867
16505SOL     OW61987   1.095   6.555   6.476 -0.2548 -0.2152  0.3323
16505SOL    HW161988   1.001   6.524   6.459 -0.4348  0.6915 -0.3697
16505SOL    HW261989   1.117   6.542   6.572 -1.1882 -0.2195  0.5583
16506SOL     OW61990   4.972   1.824   4.728 -0.0986 -0.1460 -0.2687
16506SOL    HW161991   4.887   1.779   4.701 -1.0187  0.6334  1.2833
16506SOL    HW261992   4.979   1.825   4.828  1.1013  0.9532 -0.3594
16507SOL     OW61993   7.179   7.794   1.360  0.0427  0.1902  0.2242
16507SOL    HW161994   7.127   7.879   1.356 -1.3409 -0.6525 -0.0559
16507SOL    HW261995   7.216   7.774   1.269 -0.0980  0.2233  0.1585
16508SOL     OW61996   5.199   4.812   1.642 -0.3619 -0.1661 -0.0979
16508SOL    HW161997   5.117   4.815   1.585  0.4374  0.2608 -1.2432
16508SOL    HW261998   5.279   4.832   1.586  0.4068  0.5746  1.2397
16509SOL     OW61999   7.295   0.690   1.891  0.0437 -0.1234 -0.0129
16509SOL    HW162000   7.349   0.711   1.810  0.9772  2.8014  1.2744
16509SOL    HW262001   7.355   0.659   1.965 -0.5529 -0.9101  0.1503
16510SOL     OW62002   1.344   1.784   1.423  0.0020 -0.3791  0.3215
16510SOL    HW162003   1.295   1.769   1.508  0.5583 -0.0648  0.6981
16510SOL    HW262004   1.427   1.728   1.422  0.8967  0.9043  0.7439
16511SOL     OW62005   1.880   0.700   1.088  0.1734 -0.2657  0.4771
16511SOL    HW162006   1.974   0.670   1.072 -0.4302 -2.6851  1.2939
16511SOL    HW262007   1.818   0.622   1.080 -1.4454  0.7223  2.8056
16512SOL     OW62008   4.326   8.141   3.653  0.0121 -0.0856 -0.1332
16512SOL    HW162009   4.255   8.138   3.723  1.6051 -1.7107  1.4530
16512SOL    HW262010   4.350   8.048   3.624  1.2297  0.4459 -0.9231
16513SOL     OW62011   2.400   3.478   1.828  0.0485 -0.1433 -0.0255
16513SOL    HW162012   2.366   3.522   1.745 -0.5133  2.0262  1.3222
16513SOL    HW262013   2.333   3.411   1.860  0.6370 -1.6020 -1.7508
16514SOL     OW62014   8.753   3.711   0.725  1.2572  0.4339 -0.2246
16514SOL    HW162015   8.701   3.686   0.807  2.2404 -0.3574  0.1741
16514SOL    HW262016   8.798   3.799   0.741 -1.3236  2.0061 -1.2217
16515SOL     OW62017   3.146   1.346   3.541 -0.9487 -0.4503  0.4254
16515SOL    HW162018   3.196   1.267   3.577 -1.6110 -0.5645  1.1098
16515SOL    HW262019   3.187   1.430   3.577  0.7124 -0.3973 -1.5025
16516SOL     OW62020   4.344   1.859   8.170  0.2196 -0.8252 -0.1033
16516SOL    HW162021   4.301   1.773   8.143 -1.3890 -0.5199  1.3801
16516SOL    HW262022   4.442   1.855   8.151  0.7112 -4.1578  2.6814
16517SOL     OW62023   7.135   1.848   2.153 -0.0354 -0.5003  0.3670
16517SOL    HW162024   7.112   1.753   2.173 -2.3556 -0.6943 -2.7501
16517SOL    HW262025   7.231   1.865   2.176  0.8238 -4.0197 -0.3137
16518SOL     OW62026   8.509   3.690   7.120 -0.0187 -0.0049 -0.1719
16518SOL    HW162027   8.515   3.694   7.020 -1.8904 -1.1919 -0.3502
16518SOL    HW262028   8.590   3.734   7.160  1.0660 -0.0894 -2.2041
16519SOL     OW62029   8.876   6.458   1.916  0.0627  0.0664  0.3300
16519SOL    HW162030   8.944   6.472   1.988 -0.2272 -0.2696  0.6777
16519SOL    HW262031   8.914   6.485   1.828  0.2857  0.8541  0.6626
16520SOL     OW62032   3.147   2.667   7.287 -0.1318  0.2022 -0.5728
16520SOL    HW162033   3.186   2.665   7.195 -1.3883  0.3774 -1.1252
16520SOL    HW262034   3.133   2.574   7.320  1.8059  0.1391  0.0933
16521SOL     OW62035   3.904   5.070   5.411  0.1391  0.7516 -0.6623
16521SOL    HW162036   3.916   5.161   5.450  1.0671  1.0909 -1.7011
16521SOL    HW262037   3.962   5.005   5.461 -1.9107  0.3344  1.2976
16522SOL     OW62038   1.437   4.283   4.748 -0.3155 -0.1140 -0.2901
16522SOL    HW162039   1.448   4.377   4.780 -2.0695 -0.1808  0.5083
16522SOL    HW262040   1.420   4.284   4.649  1.6375  0.2695 -0.6571
16523SOL     OW62041   7.329   3.233   2.764 -0.0399 -0.0022  0.3253
16523SOL    HW162042   7.311   3.207   2.859 -2.3123  1.4109  0.3115
16523SOL    HW262043   7.244   3.228   2.711  1.0520 -0.0233 -1.4683
16524SOL     OW62044   3.939   0.389   1.604 -0.9116  0.6646 -0.6097
16524SOL    HW162045   4.000   0.319   1.639  0.0974  1.5690 -0.5354
16524SOL    HW262046   3.982   0.435   1.526 -1.6795  1.0170 -0.8334
16525SOL     OW62047   7.085   0.538   1.057  0.1535  0.7719  0.3247
16525SOL    HW162048   7.053   0.587   0.977  0.4617  1.8199  0.8359
16525SOL    HW262049   7.033   0.566   1.138 -0.2412 -0.3665  0.4758
16526SOL     OW62050   1.679   5.485   4.001  0.3146  0.0074  0.0855
16526SOL    HW162051   1.616   5.519   4.071  2.3410  1.6075  1.1882
16526SOL    HW262052   1.714   5.395   4.029 -1.9444 -1.1960 -0.8600
16527SOL     OW62053   3.972   4.097   4.372  0.0701 -0.8171 -0.6590
16527SOL    HW162054   4.006   4.006   4.349 -0.2417 -1.1131  0.0619
16527SOL    HW262055   3.894   4.119   4.314  0.3878 -0.8471 -1.1023
16528SOL     OW62056   8.805   1.555   3.860 -0.0254 -0.3811  0.1566
16528SOL    HW162057   8.875   1.519   3.922  0.5718  2.0744  0.9531
16528SOL    HW262058   8.767   1.639   3.898  0.0151  0.9151 -2.5896
16529SOL     OW62059   3.774   2.577   4.362 -0.2774 -0.1521  0.0543
16529SOL    HW162060   3.789   2.519   4.282 -0.5630 -0.6534  0.3612
16529SOL    HW262061   3.677   2.576   4.386 -0.1708 -0.1125  0.4877
16530SOL     OW62062   2.261   4.464   8.712  0.1730 -0.0232 -0.0443
16530SOL    HW162063   2.216   4.473   8.801 -0.8012  1.3736 -0.6658
16530SOL    HW262064   2.197   4.487   8.639  0.7008 -1.9950 -1.1906
16531SOL     OW62065   5.728   8.035   5.900 -0.2891  0.3942 -0.2374
16531SOL    HW162066   5.802   8.012   5.837 -0.7837 -0.7582 -0.4299
16531SOL    HW262067   5.642   8.000   5.863 -0.3278 -2.0029  1.9576
16532SOL     OW62068   8.567   7.649   2.998 -0.2080  0.4955 -0.0684
16532SOL    HW162069   8.493   7.594   3.036  0.3227 -0.3086 -0.1930
16532SOL    HW262070   8.568   7.739   3.042 -0.5994  0.1416  0.6731
16533SOL     OW62071   8.119   7.033   8.195  0.1471  0.4018 -0.5124
16533SOL    HW162072   8.092   7.072   8.283  2.4421 -1.6131  1.1588
16533SOL    HW262073   8.216   7.010   8.198  0.0505 -0.5251 -3.2948
16534SOL     OW62074   8.263   7.985   0.352 -0.2925 -0.3609 -0.8273
16534SOL    HW162075   8.318   7.955   0.275 -0.2903 -0.6224 -0.7225
16534SOL    HW262076   8.185   8.038   0.318  0.5137  0.7773 -0.9275
16535SOL     OW62077   7.825   4.742   0.393  0.0726 -0.3363  0.3618
16535SOL    HW162078   7.915   4.783   0.414 -0.1914 -0.4492  1.7352
16535SOL    HW262079   7.812   4.742   0.294  2.1094 -1.4186  0.0483
16536SOL     OW62080   5.896   7.491   4.347 -0.1587  0.4117  0.3831
16536SOL    HW162081   5.808   7.474   4.392 -0.9230 -0.8467 -1.5448
16536SOL    HW262082   5.887   7.572   4.288  0.0541  0.4337  0.3826
16537SOL     OW62083   4.899   8.744   5.805 -0.2400 -0.0067 -0.1739
16537SOL    HW162084   4.995   8.728   5.828 -0.6244 -2.0999  0.0824
16537SOL    HW262085   4.887   8.838   5.773  1.5865  0.7865  1.3959
16538SOL     OW62086   6.957   0.707   7.551 -0.1870  0.5311  0.3357
16538SOL    HW162087   7.019   0.785   7.555 -0.6493  0.9705 -0.9149
16538SOL    HW262088   6.896   0.716   7.472 -0.2260 -1.1005  0.1572
16539SOL     OW62089   1.615   4.689   7.674  0.2578  0.1806 -0.6290
16539SOL    HW162090   1.544   4.730   7.731  1.0472  1.1802 -0.3515
16539SOL    HW262091   1.573   4.647   7.594 -0.6557  0.7146 -0.4348
16540SOL     OW62092   0.406   4.581   2.363  0.3561  0.0549 -0.2928
16540SOL    HW162093   0.381   4.490   2.397  0.5555  0.0842 -0.0706
16540SOL    HW262094   0.505   4.588   2.355  0.2944 -0.0671 -1.2103
16541SOL     OW62095   8.333   2.730   7.700 -0.5104  0.1510 -0.3761
16541SOL    HW162096   8.379   2.810   7.661  0.7853 -0.4487 -0.0898
16541SOL    HW262097   8.372   2.709   7.789 -0.3365 -1.2404 -0.7651
16542SOL     OW62098   5.848   1.912   7.299  0.0073  0.4451  0.5477
16542SOL    HW162099   5.913   1.948   7.232  0.4567 -1.0031  0.1948
16542SOL    HW262100   5.815   1.987   7.357 -0.8026  1.8144 -1.6342
16543SOL     OW62101   3.694   7.764   3.908 -0.1533 -0.0066  0.3594
16543SOL    HW162102   3.648   7.721   3.986 -0.9997  0.7378  0.2801
16543SOL    HW262103   3.774   7.815   3.941  0.6423 -1.3287  0.4963
16544SOL     OW62104   1.169   3.612   3.711 -0.1370  0.2795  0.0752
16544SOL    HW162105   1.107   3.681   3.748  0.1550  0.5764  0.0081
16544SOL    HW262106   1.180   3.538   3.777  0.6797  0.9892  0.7493
16545SOL     OW62107   2.580   6.784   5.161 -0.7134 -0.0044  0.0631
16545SOL    HW162108   2.621   6.803   5.250  0.2006 -2.0141  0.1117
16545SOL    HW262109   2.606   6.855   5.096  1.4046 -0.2831  0.5692
16546SOL     OW62110   6.328   2.794   3.308  0.0711 -0.2841 -0.2352
16546SOL    HW162111   6.255   2.826   3.368 -1.0237  0.7239 -2.0609
16546SOL    HW262112   6.330   2.851   3.226  2.9332 -0.2837 -0.2018
16547SOL     OW62113   4.745   8.606   5.610  0.5487 -0.3740  0.3143
16547SOL    HW162114   4.773   8.651   5.695  1.4686 -1.6028  0.6848
16547SOL    HW262115   4.740   8.507   5.626 -0.7981 -0.4693 -0.6525
16548SOL     OW62116   3.140   7.235   0.177  0.1218  0.1976  0.5264
16548SOL    HW162117   3.050   7.196   0.158  0.3642 -0.6632  1.1084
16548SOL    HW262118   3.164   7.299   0.105  0.0748 -1.3660 -0.9228
16549SOL     OW62119   0.987   0.298   5.415  0.2908 -0.7091  0.4201
16549SOL    HW162120   1.057   0.327   5.481 -0.5707  0.6096  0.7751
16549SOL    HW262121   0.919   0.370   5.405  0.2497 -0.9983 -1.7094
16550SOL     OW62122   6.947   3.545   2.842 -0.0564  0.2251  0.1883
16550SOL    HW162123   7.011   3.469   2.851  1.4212  1.4862  0.4314
16550SOL    HW262124   6.902   3.561   2.930 -1.6533 -1.4397 -0.2761
16551SOL     OW62125   3.165   8.292   7.080  0.4163 -0.4714 -0.6262
16551SOL    HW162126   3.251   8.277   7.130 -0.5415 -0.8634  0.9126
16551SOL    HW262127   3.088   8.290   7.144 -0.6399  1.1672 -1.8139
16552SOL     OW62128   6.179   3.281   7.357  0.0789 -0.3364  0.1119
16552SOL    HW162129   6.228   3.205   7.400 -0.0238 -0.4841 -0.0309
16552SOL    HW262130   6.128   3.247   7.278  0.3646 -0.0475 -0.2003
16553SOL     OW62131   0.940   3.264   2.639 -0.1082  0.4426  0.4204
16553SOL    HW162132   0.946   3.175   2.595  1.2720  0.2447  0.9759
16553SOL    HW262133   1.006   3.269   2.714 -2.3389  0.8087  2.4281
16554SOL     OW62134   0.351   5.795   0.060  0.4271 -0.1625  0.6205
16554SOL    HW162135   0.358   5.718  -0.003  0.9854  0.3738  0.0210
16554SOL    HW262136   0.435   5.849   0.056 -0.6538  1.5042 -0.3448
16555SOL     OW62137   8.797   7.258   7.132 -0.4971  0.1377  0.4927
16555SOL    HW162138   8.890   7.292   7.149 -0.5622  0.3368  0.4450
16555SOL    HW262139   8.731   7.313   7.184 -0.6482  0.4265 -0.0090
16556SOL     OW62140   6.729   2.979   8.797 -0.2130 -0.2170  0.1545
16556SOL    HW162141   6.817   3.024   8.815 -0.3172  0.2592 -0.5015
16556SOL    HW262142   6.746   2.890   8.754 -0.0351 -0.3167  0.4329
16557SOL     OW62143   2.046   7.754   6.860 -0.0028 -0.1320 -0.4127
16557SOL    HW162144   2.006   7.773   6.770  0.3088 -2.2345 -1.0314
16557SOL    HW262145   1.990   7.687   6.908 -0.1908  1.0170  1.0095
16558SOL     OW62146   4.595   5.637   5.998 -0.9130  0.9913  0.2944
16558SOL    HW162147   4.620   5.700   5.924  0.5610 -0.8969 -0.8688
16558SOL    HW262148   4.635   5.547   5.980 -3.1983 -0.3628  1.7885
16559SOL     OW62149   0.264   5.175   6.598 -0.5052  0.4316 -0.0343
16559SOL    HW162150   0.242   5.270   6.576 -2.4566  0.1635  0.6744
16559SOL    HW262151   0.271   5.165   6.698 -0.2910 -0.1643 -0.1056
16560SOL     OW62152   5.724   4.329   3.901  0.2829 -0.1006  0.6003
16560SOL    HW162153   5.734   4.350   3.999  0.9508 -2.0258  0.9726
16560SOL    HW262154   5.815   4.320   3.860  0.0053 -0.3941  0.0443
16561SOL     OW62155   7.541   6.161   2.011 -0.0215  0.3769 -0.1523
16561SOL    HW162156   7.596   6.153   2.094  1.0936  1.8353 -0.7232
16561SOL    HW262157   7.444   6.161   2.035  0.2183 -1.7424  0.9077
16562SOL     OW62158   7.713   1.056   7.414 -0.5068  0.0857  1.0504
16562SOL    HW162159   7.684   0.988   7.481 -0.9744 -0.9404 -0.1819
16562SOL    HW262160   7.640   1.121   7.398 -0.7560 -0.2508  0.8072
16563SOL     OW62161   1.182   0.444   8.954  0.2920  0.0981  0.2187
16563SOL    HW162162   1.224   0.431   8.865 -0.9523 -1.3760 -0.1809
16563SOL    HW262163   1.250   0.428   9.026  1.2579  1.1600 -0.4453
16564SOL     OW62164   6.920   5.400   4.716  0.5817 -0.2137 -0.4893
16564SOL    HW162165   6.975   5.438   4.641  1.8085 -1.5200 -0.2673
16564SOL    HW262166   6.950   5.439   4.803 -0.2662  0.6451 -0.5624
16565SOL     OW62167   7.532   3.518   4.805 -0.3115 -0.0369 -0.0234
16565SOL    HW162168   7.541   3.594   4.869  1.6276 -2.0688  2.2546
16565SOL    HW262169   7.452   3.463   4.830 -2.1310  1.6013 -2.1047
16566SOL     OW62170   1.290   8.154   5.776  0.2330  0.0777  0.1258
16566SOL    HW162171   1.334   8.066   5.759  0.3536  0.2154 -0.2685
16566SOL    HW262172   1.193   8.139   5.797  0.5379 -0.2514  1.3389
16567SOL     OW62173   3.670   5.675   5.519  0.2298  0.3683  0.3059
16567SOL    HW162174   3.616   5.626   5.451  1.0390  0.5725 -0.4869
16567SOL    HW262175   3.739   5.732   5.473  2.3189 -1.2566  1.3670
16568SOL     OW62176   4.937   0.484   5.655 -0.0970  0.4542  1.0190
16568SOL    HW162177   4.906   0.442   5.570 -0.3763  0.5827  1.0579
16568SOL    HW262178   5.020   0.439   5.686  0.1993  0.6303  0.4934
16569SOL     OW62179   5.056   7.220   7.911  0.6128 -0.1280 -0.6811
16569SOL    HW162180   5.066   7.256   7.818 -0.4235 -1.6716 -1.4061
16569SOL    HW262181   4.967   7.177   7.922  1.4778 -1.7188  0.4110
16570SOL     OW62182   8.541   4.099   1.079  0.1339  0.0969  0.6265
16570SOL    HW162183   8.568   4.178   1.025  0.1536  1.5210  2.6476
16570SOL    HW262184   8.464   4.053   1.035 -1.4999  2.7022  0.6565
16571SOL     OW62185   1.986   3.577   3.473  0.0028 -0.3682 -0.4760
16571SOL    HW162186   2.034   3.583   3.560 -0.6276  0.9300 -0.1927
16571SOL    HW262187   1.887   3.586   3.489 -0.2529 -1.9379 -1.1440
16572SOL     OW62188   6.382   4.101   3.902  0.6376 -0.4350 -0.1743
16572SOL    HW162189   6.406   4.195   3.876  2.3530 -0.7784  0.0959
16572SOL    HW262190   6.428   4.078   3.988 -1.1164 -0.9642  0.6306
16573SOL     OW62191   8.919   2.987   4.103 -0.5467  0.0284 -0.4914
16573SOL    HW162192   8.821   2.981   4.085 -0.6185  1.8187 -0.7494
16573SOL    HW262193   8.942   2.930   4.183 -1.5184 -1.5934 -1.3411
16574SOL     OW62194   6.247   3.350   0.358  0.6089 -0.2296 -0.3118
16574SOL    HW162195   6.275   3.420   0.424  0.1693 -0.1478 -0.2125
16574SOL    HW262196   6.179   3.389   0.296 -0.2159 -0.8014  0.2284
16575SOL     OW62197   1.137   4.402   5.302  0.0393 -0.4027  0.1868
16575SOL    HW162198   1.212   4.366   5.357  0.0259  0.8659  1.0546
16575SOL    HW262199   1.108   4.333   5.236  2.5270 -0.6112 -0.7346
16576SOL     OW62200   5.219   0.240   4.520  0.3317  0.1287  0.2226
16576SOL    HW162201   5.139   0.290   4.487  0.1325 -0.3967 -0.0844
16576SOL    HW262202   5.284   0.305   4.560 -0.7123  0.4486  1.4428
16577SOL     OW62203   0.087   7.064   0.309 -0.7631 -0.1758 -0.6127
16577SOL    HW162204   0.116   6.974   0.276 -2.2676  0.4146 -3.6991
16577SOL    HW262205   0.059   7.057   0.405  3.3083 -2.0598  0.5554
16578SOL     OW62206   7.597   2.179   3.094  0.6967 -0.2893  0.3812
16578SOL    HW162207   7.521   2.139   3.146  0.6944  0.2482  0.7864
16578SOL    HW262208   7.564   2.206   3.003 -0.2452  2.3256  1.4479
16579SOL     OW62209   5.863   0.027   2.875  0.6642  0.7188  0.2363
16579SOL    HW162210   5.947  -0.012   2.912  0.5308 -1.0600 -1.2922
16579SOL    HW262211   5.787  -0.037   2.888  0.6542 -0.0762 -3.2458
16580SOL     OW62212   8.771   3.652   6.105  0.0173 -0.2112  0.1202
16580SOL    HW162213   8.674   3.627   6.117  0.4160 -1.8887  0.0616
16580SOL    HW262214   8.825   3.608   6.177  0.7557  0.5854  0.0490
16581SOL     OW62215   5.668   6.369   3.320 -0.0353  0.2744 -0.8197
16581SOL    HW162216   5.665   6.345   3.417  0.7368 -0.2109 -0.9109
16581SOL    HW262217   5.713   6.457   3.309  2.0420 -0.7634 -0.9150
16582SOL     OW62218   6.710   6.165   5.263  0.3640  0.0217 -0.4155
16582SOL    HW162219   6.660   6.097   5.317 -0.8024 -0.1948 -1.7415
16582SOL    HW262220   6.668   6.255   5.276 -0.5138 -0.1963 -1.6890
16583SOL     OW62221   5.594   2.098   1.702 -0.7686 -0.3273  0.3389
16583SOL    HW162222   5.668   2.150   1.745  0.6915 -0.8395 -1.5008
16583SOL    HW262223   5.507   2.128   1.739  0.3157  0.5478  2.2911
16584SOL     OW62224   8.350   7.360   0.447  0.6403  0.0763  0.9464
16584SOL    HW162225   8.414   7.290   0.415  0.5486 -0.6079  2.2233
16584SOL    HW262226   8.400   7.444   0.465  0.5624  0.7585 -1.8012
16585SOL     OW62227   2.894   8.208   2.422  0.1175  0.2828  0.3553
16585SOL    HW162228   2.896   8.265   2.340 -0.7619 -1.8710 -1.2072
16585SOL    HW262229   2.973   8.146   2.423 -0.6778 -0.7447  0.3569
16586SOL     OW62230   6.195   1.947   8.013  0.9515  0.2096 -0.1615
16586SOL    HW162231   6.116   2.005   8.029 -0.5606 -1.9098  0.3247
16586SOL    HW262232   6.272   1.978   8.069  0.0136  1.4060  0.4586
16587SOL     OW62233   4.444   5.071   2.205 -0.4332  0.3015 -0.3752
16587SOL    HW162234   4.410   5.122   2.126  0.5476  0.5307 -0.6604
16587SOL    HW262235   4.374   5.007   2.237 -1.8530  2.0735  0.2181
16588SOL     OW62236   4.932   6.199   2.576  0.5792  0.0318  0.0086
16588SOL    HW162237   4.864   6.166   2.511 -1.7480  1.0980  1.8266
16588SOL    HW262238   4.941   6.135   2.652 -1.5741  1.9036  1.9111
16589SOL     OW62239   6.949   3.109   7.376  0.5611  0.2960  0.1277
16589SOL    HW162240   7.040   3.086   7.410  1.0389  1.2553 -0.4400
16589SOL    HW262241   6.926   3.049   7.300  0.6895 -0.0021  0.3233
16590SOL     OW62242   5.004   2.125   0.012 -0.0303  0.1033 -0.6640
16590SOL    HW162243   5.039   2.038   0.047 -1.0480 -0.3093 -0.6428
16590SOL    HW262244   4.905   2.129   0.026 -0.0479  1.1038 -1.0177
16591SOL     OW62245   8.829   5.880   4.931  0.2680 -0.0210  0.5763
16591SOL    HW162246   8.749   5.937   4.950 -0.1687 -0.0043 -1.2347
16591SOL    HW262247   8.805   5.809   4.866  1.9353  0.5132 -0.6600
16592SOL     OW62248   8.421   4.157   5.799  0.4297  0.4471 -0.2053
16592SOL    HW162249   8.362   4.111   5.733  0.2212  0.6436 -0.1572
16592SOL    HW262250   8.400   4.255   5.799 -1.1258  0.1324  1.7592
16593SOL     OW62251   7.001   5.724   4.868  0.1558 -0.6301  0.3723
16593SOL    HW162252   6.954   5.781   4.936 -0.6882 -1.2381  0.3101
16593SOL    HW262253   7.000   5.628   4.898  2.1465 -0.5338  0.7920
16594SOL     OW62254   7.919   0.254   6.434 -0.4483  0.3397  0.4609
16594SOL    HW162255   7.985   0.264   6.509  0.0871  3.0694 -0.3361
16594SOL    HW262256   7.875   0.164   6.440  2.1738 -0.8896  1.9478
16595SOL     OW62257   3.994   6.815   8.624 -0.2415 -0.1839  0.0433
16595SOL    HW162258   3.968   6.876   8.700  0.7859 -0.6444  0.7811
16595SOL    HW262259   4.093   6.803   8.624 -0.2218 -0.0987 -1.4677
16596SOL     OW62260   7.160   0.094   0.790  0.1244 -0.0244 -0.1583
16596SOL    HW162261   7.193   0.074   0.883 -1.4946  3.7623  1.3424
16596SOL    HW262262   7.186   0.187   0.765  1.6285 -1.4218 -4.0874
16597SOL     OW62263   0.812   4.723   4.957  0.2382  0.0015 -0.6647
16597SOL    HW162264   0.882   4.740   4.888  1.0070 -0.1025  0.0919
16597SOL    HW262265   0.808   4.800   5.021  1.3605 -1.0947  0.7401
16598SOL     OW62266   1.800   5.067   3.934  0.2147 -0.3293 -0.4242
16598SOL    HW162267   1.814   5.127   3.855  3.2608 -0.1855  0.1681
16598SOL    HW262268   1.704   5.070   3.962  0.2708  4.2410 -0.4348
16599SOL     OW62269   7.999   2.945   8.313  0.1010 -1.0536  0.4633
16599SOL    HW162270   8.087   2.979   8.280 -0.6403 -0.0212 -0.4538
16599SOL    HW262271   7.992   2.961   8.411  0.0470  0.7991  0.1622
16600SOL     OW62272   0.248   3.854   8.336 -0.1891  0.5297  0.3650
16600SOL    HW162273   0.275   3.764   8.299 -0.1680 -0.0800  1.8307
16600SOL    HW262274   0.330   3.909   8.351 -0.0593  0.1591  1.0531
16601SOL     OW62275   8.952   5.774   2.213  0.0961 -0.2054 -0.4188
16601SOL    HW162276   8.874   5.832   2.191  0.2912 -0.1380 -0.9250
16601SOL    HW262277   9.034   5.810   2.169  0.0443 -1.4076 -1.5199
16602SOL     OW62278   6.459   5.234   5.460  0.4520 -0.0119 -0.2339
16602SOL    HW162279   6.392   5.221   5.534  0.2307  0.1517 -0.4035
16602SOL    HW262280   6.455   5.329   5.429  2.1227  0.5143  1.0717
16603SOL     OW62281   7.648   0.674   3.487  0.2865  0.0939 -0.4589
16603SOL    HW162282   7.663   0.607   3.560  2.2447  1.0146  0.0093
16603SOL    HW262283   7.575   0.737   3.515 -2.1991 -2.2790 -1.2648
16604SOL     OW62284   4.812   6.728   5.562 -0.5586 -0.4811 -0.2822
16604SOL    HW162285   4.911   6.741   5.559 -0.6129  0.0610  0.0771
16604SOL    HW262286   4.776   6.764   5.648 -1.4281  2.0572 -1.6218
16605SOL     OW62287   1.502   0.236   7.304 -0.0702  0.4513 -0.0399
16605SOL    HW162288   1.583   0.198   7.349  0.3365  1.1737 -0.1471
16605SOL    HW262289   1.474   0.176   7.229  0.5252  0.3242 -0.1635
16606SOL     OW62290   1.161   5.365   6.984  0.0693 -0.2439  0.1366
16606SOL    HW162291   1.099   5.370   7.062  0.8564  0.7244  0.7099
16606SOL    HW262292   1.223   5.288   6.995 -0.3624 -0.6010  0.0619
16607SOL     OW62293   3.720   2.645   7.037 -0.7473 -0.2929 -0.6871
16607SOL    HW162294   3.655   2.657   7.111  0.7144 -2.1983  0.9769
16607SOL    HW262295   3.811   2.676   7.067 -0.8394  2.5428 -3.0326
16608SOL     OW62296   6.077   1.447   0.822  0.3380  0.7980  0.3027
16608SOL    HW162297   6.063   1.398   0.736  1.0872 -0.8820  1.1045
16608SOL    HW262298   6.052   1.387   0.898  2.8469  1.0599  1.3719
16609SOL     OW62299   2.306   4.164   6.489  0.5497 -0.0155  0.1513
16609SOL    HW162300   2.280   4.254   6.525  0.1718 -0.4606  1.0057
16609SOL    HW262301   2.394   4.137   6.529  0.3859 -0.2785  0.3318
16610SOL     OW62302   1.020   8.786   7.963  0.1167  0.1500 -1.2013
16610SOL    HW162303   0.929   8.805   7.926 -0.3414 -0.5886 -0.4642
16610SOL    HW262304   1.019   8.699   8.013  1.1409  0.3093 -0.8842
16611SOL     OW62305   7.085   7.802   6.879  0.2026  0.1857 -0.6159
16611SOL    HW162306   7.104   7.842   6.789  0.7502 -1.3705 -1.2060
16611SOL    HW262307   7.170   7.787   6.928  0.2531 -2.6151 -1.4523
16612SOL     OW62308   8.223   5.243   8.246 -0.4808 -0.4078  0.2373
16612SOL    HW162309   8.161   5.198   8.311 -0.0476 -1.3580 -0.0124
16612SOL    HW262310   8.199   5.341   8.241 -1.4115 -0.5961  0.7818
16613SOL     OW62311   8.833   1.760   6.237  0.7839 -0.3247  0.4149
16613SOL    HW162312   8.850   1.681   6.296  0.1340 -0.4806  0.3974
16613SOL    HW262313   8.885   1.750   6.152  2.0775  0.1134  1.1341
16614SOL     OW62314   0.043   3.496   4.694  0.7206 -0.3913 -0.3162
16614SOL    HW162315  -0.020   3.485   4.617  0.1376 -0.0744  0.1022
16614SOL    HW262316   0.075   3.406   4.724 -1.0849 -0.7354  0.7127
16615SOL     OW62317   1.486   5.626   4.855 -0.1564  0.1546 -0.3885
16615SOL    HW162318   1.539   5.675   4.785 -1.6146  1.3343 -0.6783
16615SOL    HW262319   1.541   5.619   4.938  1.5555 -1.1361 -1.5686
16616SOL     OW62320   3.888   8.755   8.444 -0.0763 -0.0399  0.2679
16616SOL    HW162321   3.954   8.749   8.519 -0.4305 -0.7440  0.5227
16616SOL    HW262322   3.797   8.731   8.478 -0.0376 -1.5028 -0.6596
16617SOL     OW62323   0.121   3.357   1.141 -0.3495 -0.4166  0.4075
16617SOL    HW162324   0.029   3.394   1.130 -0.7119 -1.7792 -1.5139
16617SOL    HW262325   0.115   3.258   1.153  0.8747 -0.5166  0.2308
16618SOL     OW62326   1.974   6.835   7.297  0.1475  0.2707  0.6384
16618SOL    HW162327   2.029   6.856   7.216  0.2663  1.2907  0.9726
16618SOL    HW262328   2.008   6.888   7.374  1.3051 -2.1653  1.8554
16619SOL     OW62329   0.230   5.729   1.701  0.2031  0.0382 -0.1540
16619SOL    HW162330   0.321   5.688   1.696 -0.3727 -1.3735  0.7131
16619SOL    HW262331   0.223   5.803   1.634  2.2695  0.7340  0.3814
16620SOL     OW62332   2.655   8.548   5.703 -0.5246  0.7069  0.3561
16620SOL    HW162333   2.667   8.489   5.623 -0.4342  0.2930  0.6704
16620SOL    HW262334   2.683   8.641   5.681 -3.1029  1.2393 -0.9652
16621SOL     OW62335   7.693   2.223   8.406 -0.5580  0.1579 -0.3060
16621SOL    HW162336   7.694   2.253   8.310  3.3988 -1.4659 -0.8690
16621SOL    HW262337   7.648   2.134   8.412  3.2941 -1.9632 -1.4947
16622SOL     OW62338   3.720   1.901   4.247 -0.2815  0.2592 -0.1521
16622SOL    HW162339   3.711   1.996   4.277  0.0422  0.2459 -0.0097
16622SOL    HW262340   3.780   1.851   4.310 -1.8346 -0.4975  0.7785
16623SOL     OW62341   1.550   4.687   1.864 -0.0407  0.0304 -0.3330
16623SOL    HW162342   1.592   4.597   1.853 -1.9707 -0.9573  0.1225
16623SOL    HW262343   1.585   4.749   1.793  2.9531 -0.4197  0.7178
16624SOL     OW62344   7.153   7.971   6.668 -0.3512  0.4741  0.0910
16624SOL    HW162345   7.219   8.045   6.681 -0.8282  1.2525 -1.7166
16624SOL    HW262346   7.088   7.997   6.596 -1.9524 -0.7426  1.0727
16625SOL     OW62347   1.895   6.858   2.256 -0.1448 -0.6151  0.1786
16625SOL    HW162348   1.818   6.889   2.200  0.2758 -2.2236 -1.3483
16625SOL    HW262349   1.934   6.775   2.215  3.3725  1.0144  0.0372
16626SOL     OW62350   3.994   6.476   1.930 -0.6294  0.2406 -0.0187
16626SOL    HW162351   3.969   6.533   1.851 -0.2613  2.2333  1.2751
16626SOL    HW262352   4.092   6.481   1.945 -0.6551 -0.4007  0.3677
16627SOL     OW62353   5.026   0.955   7.798 -0.8453  0.2634  0.2224
16627SOL    HW162354   5.028   0.866   7.753  2.5079  0.5783 -0.3601
16627SOL    HW262355   5.026   0.942   7.897  2.4442 -0.4431  0.1785
16628SOL     OW62356   7.651   3.541   0.593  0.2850  0.1421 -0.0577
16628SOL    HW162357   7.604   3.459   0.560 -1.5148  1.9403 -2.0245
16628SOL    HW262358   7.624   3.558   0.688  1.1110 -1.8127  0.5758
16629SOL     OW62359   0.401   7.424   8.225 -0.2057 -0.3537 -0.5026
16629SOL    HW162360   0.358   7.341   8.189  0.8966 -1.0463 -0.2491
16629SOL    HW262361   0.338   7.471   8.286 -0.4947 -1.5196  0.1069
16630SOL     OW62362   0.536   4.184   5.670  0.8041 -0.8645  0.4713
16630SOL    HW162363   0.513   4.094   5.632 -0.1122 -0.1959 -0.5848
16630SOL    HW262364   0.594   4.233   5.605  1.9212 -0.9744  1.3757
16631SOL     OW62365   3.411   6.528   8.905  0.2708  0.2646  0.5639
16631SOL    HW162366   3.371   6.606   8.954 -0.8850 -2.2394  3.7879
16631SOL    HW262367   3.337   6.471   8.868  1.0841  0.3503 -1.1998
16632SOL     OW62368   6.787   2.537   3.147  0.5765  0.2501 -0.5187
16632SOL    HW162369   6.703   2.511   3.194  1.4674 -1.7967 -0.0094
16632SOL    HW262370   6.830   2.614   3.194  0.0375 -0.0082  0.3893
16633SOL     OW62371   1.001   4.497   7.076  0.2929 -0.0820  0.0767
16633SOL    HW162372   0.918   4.455   7.038  0.3219 -0.7692  0.7698
16633SOL    HW262373   1.029   4.573   7.017  0.5576 -1.3783 -1.4996
16634SOL     OW62374   4.009   7.850   8.592 -0.0694 -0.3165  0.4713
16634SOL    HW162375   4.098   7.805   8.586  0.3662  0.5666  0.1248
16634SOL    HW262376   3.993   7.883   8.685 -0.5076 -1.4128  0.7903
16635SOL     OW62377   8.863   6.648   7.139  0.3316 -0.3004  0.5285
16635SOL    HW162378   8.904   6.584   7.204  0.6559 -0.3760  0.2480
16635SOL    HW262379   8.804   6.712   7.188 -0.3221 -1.0705  0.7654
16636SOL     OW62380   2.463   0.111   2.379 -0.5935  0.3781 -0.5472
16636SOL    HW162381   2.555   0.150   2.378 -0.5833  0.3492 -0.8721
16636SOL    HW262382   2.434   0.092   2.285 -0.6837 -0.2009 -0.4063
16637SOL     OW62383   8.931   0.209   6.999 -0.5529 -0.0935 -0.2503
16637SOL    HW162384   9.000   0.137   6.989 -0.1224  0.3271 -0.3253
16637SOL    HW262385   8.840   0.168   6.996 -0.2967 -0.7329  0.5601
16638SOL     OW62386   4.264   1.653   4.587 -0.0158  0.0766 -0.1398
16638SOL    HW162387   4.180   1.691   4.627  0.3827 -0.4303  1.2028
16638SOL    HW262388   4.297   1.714   4.515 -2.5250 -0.5941 -1.9382
16639SOL     OW62389   5.221   6.251   2.385  0.2322 -0.3705 -0.4938
16639SOL    HW162390   5.141   6.235   2.444  0.4950 -1.2832 -0.3854
16639SOL    HW262391   5.214   6.194   2.304  1.1709 -1.0157 -0.1150
16640SOL     OW62392   0.681   5.785   2.384 -0.1420  0.3543  0.2700
16640SOL    HW162393   0.684   5.705   2.323 -0.1842  0.1505  0.5328
16640SOL    HW262394   0.648   5.864   2.333 -0.7424  0.0481  0.1738
16641SOL     OW62395   7.813   5.821   3.670 -0.1292 -0.1600 -0.0342
16641SOL    HW162396   7.816   5.735   3.618 -0.2100 -0.0000 -0.3007
16641SOL    HW262397   7.899   5.833   3.719  0.5500  0.4592 -1.3578
16642SOL     OW62398   4.949   2.915   0.670  0.5466 -0.2256 -0.5167
16642SOL    HW162399   4.935   2.817   0.659 -0.5769  0.0011 -1.2465
16642SOL    HW262400   4.988   2.933   0.761  0.5099 -1.3171 -0.2719
16643SOL     OW62401   1.019   4.487   4.254 -0.5885  0.0488 -0.0263
16643SOL    HW162402   1.032   4.423   4.178 -1.5056 -0.7705  0.5002
16643SOL    HW262403   1.079   4.461   4.330 -0.9102 -0.1377  0.1619
16644SOL     OW62404   1.475   0.746   4.532 -0.0098  0.3316  0.4827
16644SOL    HW162405   1.496   0.698   4.447 -1.4805 -1.2809  1.0114
16644SOL    HW262406   1.431   0.833   4.511 -2.5498 -1.1130 -0.3964
16645SOL     OW62407   3.280   3.843   6.968  0.3217  0.8868  0.3240
16645SOL    HW162408   3.305   3.933   6.931  1.1360  0.4657 -0.1603
16645SOL    HW262409   3.331   3.826   7.052 -0.8177  1.4341  1.1377
16646SOL     OW62410   2.770   1.078   8.850 -0.7255 -0.1720  0.7166
16646SOL    HW162411   2.807   1.010   8.787  2.9719  0.6071  1.9074
16646SOL    HW262412   2.753   1.164   8.801 -1.3847 -0.6784  0.0563
16647SOL     OW62413   7.272   3.304   7.076 -0.2804 -0.5270 -0.4652
16647SOL    HW162414   7.183   3.302   7.122 -1.3203  3.6482 -2.0638
16647SOL    HW262415   7.269   3.243   6.996 -1.2665 -1.3700  0.1962
16648SOL     OW62416   4.783   3.863   0.131  0.3002  0.1058  0.1732
16648SOL    HW162417   4.746   3.956   0.128 -0.0564 -0.0473 -0.2347
16648SOL    HW262418   4.883   3.867   0.131  0.3072  0.5442  1.7045
16649SOL     OW62419   6.045   7.778   1.212  0.1706  0.4868 -0.4406
16649SOL    HW162420   5.958   7.729   1.212  0.7368 -0.5774  1.3791
16649SOL    HW262421   6.065   7.810   1.119 -2.0440  0.5826 -0.9247
16650SOL     OW62422   0.723   2.874   3.577  0.8025 -0.1154 -0.0999
16650SOL    HW162423   0.748   2.924   3.660 -0.8769 -1.7371  1.4343
16650SOL    HW262424   0.643   2.918   3.535  0.3344 -0.5508  0.3356
16651SOL     OW62425   7.362   1.988   1.514  0.4315  0.6077 -0.3751
16651SOL    HW162426   7.363   1.895   1.478  2.1691  0.4144  0.1161
16651SOL    HW262427   7.273   2.031   1.495 -0.0426 -0.8152 -1.4246
16652SOL     OW62428   5.754   5.103   4.445 -0.0774 -0.5635  0.0984
16652SOL    HW162429   5.785   5.044   4.371 -0.7803  0.7968 -1.3088
16652SOL    HW262430   5.822   5.174   4.462 -0.2968 -0.3721  0.1835
16653SOL     OW62431   4.096   7.815   0.857  0.2285  1.1752  0.6139
16653SOL    HW162432   4.069   7.766   0.940  0.9371 -0.8337 -0.3025
16653SOL    HW262433   4.018   7.865   0.820 -1.5330 -2.2117 -0.4232
16654SOL     OW62434   5.496   6.148   8.649 -0.7892  0.9467  0.3197
16654SOL    HW162435   5.564   6.152   8.723 -0.6484  0.3510  0.2208
16654SOL    HW262436   5.425   6.081   8.673 -0.6928  0.6867 -0.1314
16655SOL     OW62437   7.823   7.098   6.139 -0.9535  0.5029 -0.4405
16655SOL    HW162438   7.778   7.045   6.210 -1.7436  1.2916 -0.3341
16655SOL    HW262439   7.917   7.066   6.127 -1.3250 -0.7060 -0.1798
16656SOL     OW62440   8.086   8.975   1.807  0.3120 -0.0208 -0.2045
16656SOL    HW162441   8.011   9.007   1.865  1.6494  0.7377  1.1604
16656SOL    HW262442   8.134   8.900   1.852  1.0664  0.2479 -0.5480
16657SOL     OW62443   5.260   4.325   3.567 -0.1712  0.2096 -0.2596
16657SOL    HW162444   5.249   4.245   3.625  0.3228 -0.3742 -0.9647
16657SOL    HW262445   5.279   4.405   3.624 -0.2748 -0.2413  0.4173
16658SOL     OW62446   1.190   2.812   5.599 -0.6368  0.2241  0.1614
16658SOL    HW162447   1.147   2.725   5.622  2.4922 -0.4960  3.6247
16658SOL    HW262448   1.125   2.886   5.615 -1.3392 -0.9929  3.2251
16659SOL     OW62449   6.027   6.372   7.695  0.1900  0.6403 -0.1517
16659SOL    HW162450   5.980   6.290   7.727  2.1068 -0.3222  0.2870
16659SOL    HW262451   5.981   6.407   7.613 -1.1719 -0.3493  0.1710
16660SOL     OW62452   6.599   6.118   8.887 -0.3683 -0.8559 -0.2826
16660SOL    HW162453   6.582   6.048   8.817  0.2146 -0.6570 -0.6283
16660SOL    HW262454   6.647   6.196   8.845  1.6856 -1.5351  0.7211
16661SOL     OW62455   8.781   7.955   3.126 -0.2119 -0.0783  0.1402
16661SOL    HW162456   8.819   7.972   3.217 -0.4298  1.5771 -0.0638
16661SOL    HW262457   8.850   7.911   3.069  0.7484  1.0555  0.3930
16662SOL     OW62458   3.212   6.379   8.779 -0.4552 -0.6120  0.2440
16662SOL    HW162459   3.176   6.359   8.688 -0.0522 -0.3423  0.0247
16662SOL    HW262460   3.136   6.392   8.843 -0.7703 -4.3307  0.7403
16663SOL     OW62461   6.463   6.893   4.501  0.6317 -0.2552 -0.4403
16663SOL    HW162462   6.476   6.873   4.403  0.5038  0.7587 -0.6642
16663SOL    HW262463   6.423   6.983   4.512  2.9011  0.6615  0.6413
16664SOL     OW62464   7.255   3.885   0.747 -0.3560  0.5040 -0.4099
16664SOL    HW162465   7.196   3.956   0.708  0.0337  1.1539  0.1823
16664SOL    HW262466   7.309   3.842   0.674  0.1342  1.4927 -0.6284
16665SOL     OW62467   0.933   5.503   0.231 -0.4279  0.1524 -0.0717
16665SOL    HW162468   0.904   5.567   0.302  1.5676  1.4600 -0.3837
16665SOL    HW262469   1.031   5.485   0.241 -0.1046  0.4045 -2.5007
16666SOL     OW62470   0.006   5.587   3.109 -0.2497  0.2705  0.3185
16666SOL    HW162471   0.050   5.639   3.036 -0.9110 -0.9885 -1.0075
16666SOL    HW262472   0.071   5.571   3.184  1.0274 -0.1009 -0.8604
16667SOL     OW62473   0.084   7.816   7.894  0.1039 -0.2262  0.3179
16667SOL    HW162474   0.172   7.816   7.941  0.8627 -1.2387 -1.0615
16667SOL    HW262475   0.019   7.760   7.944 -0.0685  1.3358  1.8829
16668SOL     OW62476   2.508   7.158   0.943 -0.0868 -0.6209 -0.4769
16668SOL    HW162477   2.546   7.155   0.851 -1.3488  0.1746 -1.0489
16668SOL    HW262478   2.414   7.194   0.939  0.8999  2.3139  1.4623
16669SOL     OW62479   4.843   4.548   0.721  0.4026  0.2878 -0.4016
16669SOL    HW162480   4.887   4.583   0.639  0.7461  1.6394  0.3405
16669SOL    HW262481   4.747   4.528   0.702  0.4869  0.5784 -1.1359
16670SOL     OW62482   1.934   6.281   5.987 -0.2549  0.5053  0.0072
16670SOL    HW162483   1.871   6.267   6.064 -0.9517 -0.3704 -0.7183
16670SOL    HW262484   1.929   6.376   5.957  0.3202  0.9635  1.3009
16671SOL     OW62485   4.452   3.693   1.810  1.0992  0.5046  0.0928
16671SOL    HW162486   4.524   3.624   1.806  1.7137  1.0975  0.7452
16671SOL    HW262487   4.486   3.780   1.774  0.8631  0.9072  0.8072
16672SOL     OW62488   5.084   5.457   4.819 -0.0652 -0.0293 -0.0613
16672SOL    HW162489   5.171   5.500   4.796  0.4252  0.6843  2.9485
16672SOL    HW262490   5.085   5.362   4.787  1.2607  0.3623 -1.2554
16673SOL     OW62491   0.604   5.263   5.633  0.1186  0.0643 -0.4246
16673SOL    HW162492   0.664   5.183   5.625  0.4349  0.0814  1.5855
16673SOL    HW262493   0.635   5.320   5.709 -0.7463  1.5685 -1.1728
16674SOL     OW62494   8.302   8.046   3.331 -0.4939  0.4663  0.0472
16674SOL    HW162495   8.251   8.070   3.414 -1.8764 -1.0750 -0.3323
16674SOL    HW262496   8.395   8.019   3.356 -0.4043  1.5646  0.9276
16675SOL     OW62497   3.225   0.858   3.596  0.3849 -0.3390 -0.5795
16675SOL    HW162498   3.130   0.827   3.584  0.4588 -0.3233 -1.2417
16675SOL    HW262499   3.244   0.932   3.533  0.3304  0.8276  0.7598
16676SOL     OW62500   5.031   3.894   0.560  0.3099 -0.2459  0.1294
16676SOL    HW162501   4.980   3.870   0.642  0.6971  0.2520  0.5269
16676SOL    HW262502   5.123   3.854   0.565 -0.5405 -2.4149 -1.2911
16677SOL     OW62503   8.877   5.453   1.869  0.7438  0.0183 -0.5930
16677SOL    HW162504   8.860   5.356   1.887 -0.7506  0.4236  0.3010
16677SOL    HW262505   8.934   5.462   1.787 -0.6013 -1.5666 -1.7555
16678SOL     OW62506   2.207   4.179   8.720  0.3482 -0.4397  0.7415
16678SOL    HW162507   2.244   4.271   8.706  1.9196 -0.9874  1.1826
16678SOL    HW262508   2.159   4.175   8.807 -0.3967  0.1649  0.3648
16679SOL     OW62509   4.759   5.508   8.934  0.1513  0.0030 -0.6164
16679SOL    HW162510   4.670   5.546   8.959  0.0521 -0.3285 -0.4560
16679SOL    HW262511   4.819   5.581   8.902  0.3454  0.4732  0.8029
16680SOL     OW62512   1.997   7.090   8.353 -0.4754 -0.1432 -0.4326
16680SOL    HW162513   1.923   7.104   8.419 -1.2581  2.0598 -1.7263
16680SOL    HW262514   2.075   7.148   8.378 -0.2350 -0.3881 -0.6161
16681SOL     OW62515   3.890   3.205   7.352 -0.1170  0.3068 -0.3324
16681SOL    HW162516   3.971   3.147   7.361  0.2038  0.9713  1.2193
16681SOL    HW262517   3.876   3.256   7.437 -1.3036  1.3195 -1.1203
16682SOL     OW62518   8.808   4.846   6.989  0.4929  0.3551  0.4154
16682SOL    HW162519   8.885   4.850   7.053  0.6173 -0.1500  0.2969
16682SOL    HW262520   8.819   4.919   6.921  0.7900  0.3775  0.4830
16683SOL     OW62521   4.915   6.706   2.641  0.6170 -0.5170  0.5221
16683SOL    HW162522   4.846   6.666   2.701 -1.7772  0.2948 -1.6279
16683SOL    HW262523   4.925   6.803   2.661  0.4135 -0.4185  0.1411
16684SOL     OW62524   3.439   7.689   8.654 -0.1788 -0.0203  0.2439
16684SOL    HW162525   3.377   7.715   8.579  0.9391  0.4258 -0.5329
16684SOL    HW262526   3.508   7.626   8.619 -0.0258 -0.3056  1.0570
16685SOL     OW62527   7.267   5.737   7.903  0.2681  0.2974  0.1163
16685SOL    HW162528   7.258   5.656   7.961  0.0695  0.0066 -0.3184
16685SOL    HW262529   7.302   5.813   7.957  0.1834 -0.0015  0.5916
16686SOL     OW62530   5.070   5.067   1.169  0.4703  0.3443  0.0070
16686SOL    HW162531   5.145   5.116   1.214 -0.1020 -0.2522  1.6361
16686SOL    HW262532   5.043   4.988   1.224 -2.5888  1.5790  0.3877
16687SOL     OW62533   6.642   3.466   1.622 -0.3721 -0.1905  0.2449
16687SOL    HW162534   6.628   3.558   1.586 -0.5540 -0.3874 -0.1879
16687SOL    HW262535   6.733   3.434   1.596 -0.0390  0.1397  0.9925
16688SOL     OW62536   4.722   7.110   0.433 -0.6578  0.1458  0.2126
16688SOL    HW162537   4.782   7.059   0.372 -0.4715  0.9582 -0.2890
16688SOL    HW262538   4.635   7.062   0.442 -1.4508  1.0321 -2.3188
16689SOL     OW62539   2.489   7.779   2.532 -0.2269 -0.3273  0.3086
16689SOL    HW162540   2.423   7.815   2.467  0.7183 -1.0402 -1.0639
16689SOL    HW262541   2.518   7.852   2.595 -0.4469  0.5912 -0.6524
16690SOL     OW62542   6.795   6.150   3.542 -0.2744 -0.3900  0.0432
16690SOL    HW162543   6.847   6.143   3.627  0.9216 -1.3632 -0.7426
16690SOL    HW262544   6.785   6.246   3.516 -1.8953  0.0140  2.0178
16691SOL     OW62545   4.180   5.398   2.792 -0.0045 -0.3686 -0.4894
16691SOL    HW162546   4.258   5.413   2.733 -0.4079  0.3697 -0.8456
16691SOL    HW262547   4.201   5.431   2.885 -0.1951  0.6520 -0.7972
16692SOL     OW62548   3.027   2.647   7.993  0.3070  0.8311  0.0082
16692SOL    HW162549   3.054   2.623   7.900 -1.8531  0.7040 -0.6194
16692SOL    HW262550   3.108   2.654   8.051  1.5196 -1.0949 -1.4076
16693SOL     OW62551   5.133   1.379   2.362 -0.2645 -0.0475 -0.4431
16693SOL    HW162552   5.146   1.373   2.263  0.4285 -1.8565 -0.2583
16693SOL    HW262553   5.036   1.372   2.383 -0.1972 -2.6694 -0.8285
16694SOL     OW62554   8.799   3.112   7.054  0.0994  0.2955  0.0618
16694SOL    HW162555   8.866   3.130   6.982 -0.4883  1.5143 -0.1902
16694SOL    HW262556   8.818   3.170   7.133 -0.7833  0.8069 -0.0963
16695SOL     OW62557   6.988   5.936   8.991  0.4633  0.1940  0.0083
16695SOL    HW162558   7.007   5.911   8.896  0.6625  1.0802 -0.1850
16695SOL    HW262559   6.914   5.877   9.026  0.0384  0.2030 -0.8533
16696SOL     OW62560   3.547   0.452   1.265  0.3040 -0.0718  0.3679
16696SOL    HW162561   3.620   0.519   1.250 -0.6740  1.2437  1.2616
16696SOL    HW262562   3.465   0.482   1.216 -0.1077 -0.6575  0.6935
16697SOL     OW62563   3.590   8.491   3.218 -0.2651 -0.3813  0.1531
16697SOL    HW162564   3.650   8.514   3.141 -0.0948  0.4271  0.5275
16697SOL    HW262565   3.495   8.494   3.189 -0.2130  0.1767  0.0327
16698SOL     OW62566   5.820   8.691   6.635 -0.1876 -0.3697  0.0877
16698SOL    HW162567   5.791   8.786   6.620  0.6918  0.1707  1.6994
16698SOL    HW262568   5.919   8.684   6.621 -0.0930 -0.8332  0.9898
16699SOL     OW62569   4.189   1.558   3.159  0.0229  0.4261 -0.2219
16699SOL    HW162570   4.249   1.505   3.099  0.6198 -0.8291  1.4283
16699SOL    HW262571   4.101   1.512   3.166 -0.2187  0.8431 -0.5442
16700SOL     OW62572   3.832   3.425   5.315  0.3205  0.0617  0.1084
16700SOL    HW162573   3.821   3.476   5.401 -0.4226 -2.1225  1.3586
16700SOL    HW262574   3.910   3.463   5.264 -0.6121  2.8372  0.6486
16701SOL     OW62575   5.955   7.208   7.844  0.1684  0.2565 -0.0823
16701SOL    HW162576   5.861   7.236   7.861 -0.0931 -0.7435  0.1409
16701SOL    HW262577   5.962   7.164   7.754  0.1827 -0.7377  0.3982
16702SOL     OW62578   3.352   5.910   8.913 -0.9370 -0.8030 -0.2334
16702SOL    HW162579   3.366   6.009   8.912  1.1141 -1.0485  1.2826
16702SOL    HW262580   3.352   5.876   8.819  0.5161  0.3712 -0.6885
16703SOL     OW62581   5.257   6.677   2.824  0.3072 -0.4125  0.5657
16703SOL    HW162582   5.181   6.621   2.856  0.2897 -1.4669 -1.2429
16703SOL    HW262583   5.228   6.772   2.814 -0.6428 -0.7290  0.3015
16704SOL     OW62584   6.568   7.028   1.315 -0.6075 -0.2220  0.6634
16704SOL    HW162585   6.504   7.091   1.359  0.1610 -1.2224  3.2738
16704SOL    HW262586   6.567   6.940   1.363  1.9740 -0.5989  0.0811
16705SOL     OW62587   1.196   1.560   1.885 -0.3422  0.3451 -0.2986
16705SOL    HW162588   1.237   1.493   1.946  0.5367  0.6174 -0.5745
16705SOL    HW262589   1.107   1.588   1.920 -1.0018 -1.4300 -0.5117
16706SOL     OW62590   5.012   6.088   0.480  0.0041 -0.0723  0.6361
16706SOL    HW162591   5.005   6.094   0.579 -0.4994  0.0598  0.5961
16706SOL    HW262592   4.933   6.037   0.444  0.1699 -0.0975  0.3053
16707SOL     OW62593   7.041   4.352   0.357  0.5499 -0.2657 -0.1261
16707SOL    HW162594   7.030   4.435   0.413 -1.3141  0.2417 -1.2216
16707SOL    HW262595   7.129   4.309   0.379  1.1452  1.5136  1.0974
16708SOL     OW62596   3.885   8.913   5.832 -0.0309 -0.0506 -0.2771
16708SOL    HW162597   3.887   8.910   5.932 -1.9580 -0.4042 -0.2180
16708SOL    HW262598   3.886   9.008   5.801 -1.6657  0.1363  0.1867
16709SOL     OW62599   2.985   0.230   5.648 -0.1870  0.1989 -0.2934
16709SOL    HW162600   2.988   0.230   5.548  1.6267 -1.1927 -0.2738
16709SOL    HW262601   3.024   0.315   5.682 -0.0944  0.3506 -0.7676
16710SOL     OW62602   0.725   1.754   2.192  0.0239 -0.3430 -0.3835
16710SOL    HW162603   0.702   1.660   2.215  1.0400 -0.9343 -1.6837
16710SOL    HW262604   0.642   1.804   2.165 -0.9118 -0.1186  2.7165
16711SOL     OW62605   0.065   1.375   6.554 -0.1565  0.3248  0.8694
16711SOL    HW162606   0.043   1.288   6.598  0.2303  0.2748  0.9622
16711SOL    HW262607   0.076   1.360   6.455  1.3872 -0.0006  1.0895
16712SOL     OW62608   1.183   7.147   1.531  0.1049  0.2602 -0.1619
16712SOL    HW162609   1.174   7.164   1.433  1.5450 -0.5429 -0.4637
16712SOL    HW262610   1.260   7.200   1.567  0.2298 -0.2382  0.3141
16713SOL     OW62611   0.861   8.424   7.611 -0.3838 -0.1598  0.1656
16713SOL    HW162612   0.784   8.463   7.662 -0.4347 -1.4917  1.1011
16713SOL    HW262613   0.829   8.394   7.521 -0.5344  1.0876 -0.2161
16714SOL     OW62614   3.123   0.468   0.233 -0.0102  0.3895  0.0435
16714SOL    HW162615   3.188   0.483   0.307  1.4748  0.8160 -1.3228
16714SOL    HW262616   3.132   0.541   0.165 -3.2465  1.5329  0.7401
16715SOL     OW62617   7.850   8.860   0.718  0.0688 -0.1706 -0.8244
16715SOL    HW162618   7.761   8.904   0.730  0.7321  0.6236  1.4311
16715SOL    HW262619   7.921   8.930   0.706  0.4989 -0.7812 -1.9799
16716SOL     OW62620   4.077   3.002   8.397 -0.1178  0.2857  0.8641
16716SOL    HW162621   4.142   3.006   8.473  0.1581 -0.1070  0.6450
16716SOL    HW262622   4.005   3.070   8.412 -1.0295 -0.9583  2.3777
16717SOL     OW62623   1.458   6.651   8.538  0.1215 -0.4299  0.0780
16717SOL    HW162624   1.493   6.678   8.448 -2.5361  0.2974 -0.7834
16717SOL    HW262625   1.508   6.700   8.609  1.0615  0.3448 -1.1004
16718SOL     OW62626   6.255   7.688   4.826 -0.4524 -0.8532 -0.1815
16718SOL    HW162627   6.305   7.774   4.823 -0.1705 -0.9550  1.1790
16718SOL    HW262628   6.320   7.612   4.834 -0.7879 -1.0561  0.6275
16719SOL     OW62629   5.399   2.812   6.797 -0.0554  0.2148 -0.1269
16719SOL    HW162630   5.492   2.808   6.834 -0.3182 -0.1505  0.4950
16719SOL    HW262631   5.333   2.805   6.872 -0.5845  0.4705 -0.5687
16720SOL     OW62632   8.399   3.098   3.267  0.6046  0.1225 -0.4077
16720SOL    HW162633   8.495   3.080   3.243  0.5103 -0.3439 -0.4415
16720SOL    HW262634   8.353   3.144   3.191  0.3658 -1.1457 -1.0486
16721SOL     OW62635   8.554   2.359   3.160 -0.2167 -0.1207  0.1530
16721SOL    HW162636   8.523   2.357   3.064  0.1405  0.6910  0.0215
16721SOL    HW262637   8.491   2.305   3.216  0.7504 -2.3995 -0.8819
16722SOL     OW62638   5.513   7.419   0.453 -0.4438 -0.0420 -0.5838
16722SOL    HW162639   5.489   7.491   0.519  0.3323  0.4767 -0.8536
16722SOL    HW262640   5.483   7.330   0.488  1.9616 -0.0710  1.5545
16723SOL     OW62641   3.858   0.523   2.758 -0.0338  0.1232 -0.4653
16723SOL    HW162642   3.835   0.620   2.748 -0.5597  0.1683  1.0631
16723SOL    HW262643   3.801   0.469   2.696  1.9432  0.9573 -3.1009
16724SOL     OW62644   1.946   4.507   2.109  0.4914  0.3286 -0.1338
16724SOL    HW162645   2.040   4.489   2.079 -0.0525 -2.2348 -0.4859
16724SOL    HW262646   1.919   4.599   2.083  1.8819  0.0374 -2.7510
16725SOL     OW62647   3.485   2.617   0.365  0.1000 -0.1145 -0.0680
16725SOL    HW162648   3.396   2.659   0.348  0.0360 -0.0918  0.3209
16725SOL    HW262649   3.495   2.536   0.308 -1.0831 -1.3966  1.4894
16726SOL     OW62650   7.438   0.270   8.503  0.6614  0.0227  0.2068
16726SOL    HW162651   7.430   0.191   8.442 -0.2383  1.4514 -1.5908
16726SOL    HW262652   7.533   0.279   8.533  0.6041 -2.2431  1.1808
16727SOL     OW62653   0.249   0.750   1.103  0.3434 -0.4168  0.0536
16727SOL    HW162654   0.309   0.742   1.024 -0.3603 -2.0963 -0.3290
16727SOL    HW262655   0.154   0.758   1.073  0.0471 -1.3109  0.6998
16728SOL     OW62656   3.980   7.345   0.206 -0.0273 -0.9358 -0.2468
16728SOL    HW162657   3.958   7.311   0.298  0.9708  0.5655  0.5746
16728SOL    HW262658   3.897   7.348   0.151 -0.9482 -0.3190  1.1299
16729SOL     OW62659   0.505   4.649   1.755  0.0572 -0.3275  0.3484
16729SOL    HW162660   0.505   4.551   1.773  1.8669 -0.4423 -0.1372
16729SOL    HW262661   0.597   4.678   1.727 -0.7319  1.2837 -0.6971
16730SOL     OW62662   4.799   2.018   7.368  0.2131 -0.2514  0.2160
16730SOL    HW162663   4.834   1.938   7.320  0.0578 -0.2910  0.1682
16730SOL    HW262664   4.874   2.079   7.391  0.0497  0.9207 -2.1777
16731SOL     OW62665   1.380   8.654   2.687 -0.3959 -0.7377  0.3477
16731SOL    HW162666   1.318   8.732   2.692  0.7935  0.2849 -0.4138
16731SOL    HW262667   1.332   8.571   2.715 -2.4114 -0.1400 -1.1766
16732SOL     OW62668   4.118   7.566   8.889  0.7609 -0.4003  0.3576
16732SOL    HW162669   4.127   7.479   8.937  0.5912 -1.0210 -0.7124
16732SOL    HW262670   4.110   7.640   8.955  0.7397 -1.2133  1.2786
16733SOL     OW62671   2.841   8.900   5.927  0.0501 -0.2560  0.5921
16733SOL    HW162672   2.938   8.918   5.907 -0.6983  1.9891 -1.1806
16733SOL    HW262673   2.789   8.984   5.919 -2.2614 -1.6603  0.3869
16734SOL     OW62674   5.079   3.083   2.345  0.5878  0.6556 -0.2775
16734SOL    HW162675   4.983   3.071   2.319  0.8859 -1.6909 -0.3900
16734SOL    HW262676   5.104   3.179   2.333 -1.8542  1.4025  0.1714
16735SOL     OW62677   2.356   5.976   8.251  0.2876  0.1555  0.3673
16735SOL    HW162678   2.391   5.891   8.210  0.2670 -0.4786  1.6467
16735SOL    HW262679   2.274   6.005   8.200 -0.5678 -1.4034  0.8182
16736SOL     OW62680   7.785   5.726   5.037 -0.1626 -0.3186  0.6590
16736SOL    HW162681   7.816   5.701   4.946 -0.2034 -0.3517  0.6543
16736SOL    HW262682   7.857   5.706   5.104  0.4755  1.1855  0.4390
16737SOL     OW62683   0.981   0.815   7.053  0.1047 -0.2140  0.4342
16737SOL    HW162684   1.064   0.761   7.064 -0.4570 -0.6689  2.5802
16737SOL    HW262685   0.910   0.781   7.114 -1.9584 -0.3677 -1.9595
16738SOL     OW62686   4.338   2.512   3.154  0.2895 -0.1493  0.1023
16738SOL    HW162687   4.271   2.439   3.165 -0.8856  0.5850 -1.9620
16738SOL    HW262688   4.298   2.599   3.183  0.5668  0.1959 -0.5475
16739SOL     OW62689   4.938   6.912   0.050  0.5344  0.0743 -0.3226
16739SOL    HW162690   4.845   6.882   0.031  0.8661 -0.9687 -0.3393
16739SOL    HW262691   4.990   6.836   0.089  1.1032  0.9236  0.6043
16740SOL     OW62692   3.273   7.522   7.940  0.0036  0.5847 -0.2093
16740SOL    HW162693   3.287   7.447   7.875 -0.4010  0.6618 -0.3938
16740SOL    HW262694   3.338   7.595   7.921 -0.8006  1.0548 -1.2161
16741SOL     OW62695   1.089   7.144   4.222  0.8481  0.7598 -0.4608
16741SOL    HW162696   1.020   7.165   4.153 -0.3885  0.0550  0.5456
16741SOL    HW262697   1.057   7.174   4.312  0.6134 -2.0541  0.4491
16742SOL     OW62698   0.623   2.554   1.992 -0.5037  0.2843 -0.1038
16742SOL    HW162699   0.680   2.624   1.950 -0.5942 -0.5487 -1.6625
16742SOL    HW262700   0.668   2.465   1.985 -0.6324  0.0870  1.3700
16743SOL     OW62701   3.827   5.791   1.698  0.4612 -0.1064  0.1277
16743SOL    HW162702   3.869   5.726   1.634  0.9518  1.3090 -1.0163
16743SOL    HW262703   3.795   5.742   1.779 -0.7170 -2.0278 -1.4552
16744SOL     OW62704   5.187   3.179   8.031  0.3588 -0.1682  0.3479
16744SOL    HW162705   5.125   3.142   8.099 -0.8641 -0.8416 -1.1183
16744SOL    HW262706   5.159   3.272   8.007  0.1150 -0.3580 -0.0919
16745SOL     OW62707   6.608   8.783   7.940 -0.3339 -0.9973 -0.3053
16745SOL    HW162708   6.521   8.831   7.956  1.2638  1.4209  1.5088
16745SOL    HW262709   6.609   8.697   7.992 -1.6213 -1.0323 -0.3180
16746SOL     OW62710   1.778   1.322   5.568 -0.1763  0.0967 -0.4015
16746SOL    HW162711   1.796   1.402   5.624 -0.1536  0.1298 -0.4552
16746SOL    HW262712   1.819   1.335   5.477  0.2612 -0.1886 -0.2460
16747SOL     OW62713   8.229   0.440   0.631 -0.0185 -0.2070  0.2343
16747SOL    HW162714   8.323   0.445   0.596 -0.5810  2.7813 -1.0615
16747SOL    HW262715   8.213   0.518   0.692 -1.7118 -0.6174  0.3354
16748SOL     OW62716   0.597   7.825   8.365 -0.4978  0.0740  0.5041
16748SOL    HW162717   0.667   7.862   8.304 -0.7664 -0.3122 -0.0406
16748SOL    HW262718   0.555   7.900   8.416 -1.0904  0.5297 -0.6529
16749SOL     OW62719   8.108   7.813   0.191 -0.0526 -0.0683  0.4418
16749SOL    HW162720   8.170   7.735   0.183 -1.4912 -1.0903 -1.1861
16749SOL    HW262721   8.063   7.812   0.280  1.4775  0.0862  1.2212
16750SOL     OW62722   2.164   4.430   6.947  0.4020 -0.3979 -0.0936
16750SOL    HW162723   2.242   4.419   7.008  0.7780  0.4098 -0.4318
16750SOL    HW262724   2.119   4.518   6.964 -1.0048 -1.2474  0.7452
16751SOL     OW62725   5.266   6.613   3.396  0.0931  0.3163  0.6552
16751SOL    HW162726   5.293   6.569   3.310 -2.3662  0.0239 -0.0164
16751SOL    HW262727   5.277   6.548   3.471  0.9845  0.1204  0.3588
16752SOL     OW62728   3.174   5.190   5.362 -0.0260  0.0567 -0.2236
16752SOL    HW162729   3.113   5.216   5.437  0.2214  0.5795 -0.1981
16752SOL    HW262730   3.131   5.118   5.308 -1.0545  1.0418 -0.7335
16753SOL     OW62731   6.155   2.426   2.620  0.4027 -0.3243  0.1299
16753SOL    HW162732   6.222   2.469   2.681 -0.7542 -0.1004  1.2622
16753SOL    HW262733   6.117   2.494   2.558 -0.2457 -0.0214  0.8463
16754SOL     OW62734   0.736   7.710   1.087 -0.1494 -0.5783  0.3255
16754SOL    HW162735   0.811   7.649   1.061 -2.2308 -2.7734 -0.7263
16754SOL    HW262736   0.742   7.795   1.036  1.0221 -1.1769 -0.5291
16755SOL     OW62737   7.273   3.948   3.940 -0.3771  0.0654  0.3510
16755SOL    HW162738   7.311   4.026   3.990  1.6769 -0.8853  0.3321
16755SOL    HW262739   7.327   3.933   3.857 -1.3598 -0.7889 -0.1336
16756SOL     OW62740   2.969   7.896   8.022 -0.0283 -0.3920  0.7086
16756SOL    HW162741   2.996   7.808   7.984  1.7793  0.5600 -0.2449
16756SOL    HW262742   3.048   7.957   8.025 -0.9103  0.7170  2.7742
16757SOL     OW62743   8.725   0.875   0.533 -0.4582 -0.0206 -0.0581
16757SOL    HW162744   8.798   0.935   0.501 -0.0515  0.5346  1.8302
16757SOL    HW262745   8.653   0.930   0.577 -1.7389 -0.6130 -1.3703
16758SOL     OW62746   8.461   6.495   4.236  0.6413  0.1063  0.8461
16758SOL    HW162747   8.434   6.522   4.328  0.7124 -2.4332  1.6556
16758SOL    HW262748   8.557   6.464   4.237  0.8610  0.7037 -0.2269
16759SOL     OW62749   5.221   6.034   2.200  0.2163  0.2460 -0.2868
16759SOL    HW162750   5.165   6.004   2.278  0.9131 -0.5694 -0.0940
16759SOL    HW262751   5.218   5.964   2.129  1.3353  0.0033 -0.1019
16760SOL     OW62752   6.965   7.104   0.655  0.0776 -0.7005 -0.6449
16760SOL    HW162753   6.993   7.195   0.626  2.2270 -0.8416  0.8742
16760SOL    HW262754   7.006   7.035   0.595 -2.0674 -0.6926 -2.1955
16761SOL     OW62755   3.888   0.830   3.364 -0.1030  0.1511  0.2614
16761SOL    HW162756   3.907   0.871   3.454 -0.8365 -1.6401  1.2715
16761SOL    HW262757   3.815   0.763   3.373  1.4825 -1.8347 -1.1919
16762SOL     OW62758   5.110   8.969   5.482 -0.3256 -0.2858  0.3015
16762SOL    HW162759   5.184   8.970   5.548  0.9302 -2.6163 -1.0277
16762SOL    HW262760   5.026   8.937   5.526  0.1090 -0.2809  1.1454
16763SOL     OW62761   6.021   6.556   2.189 -0.3040 -0.5063  0.4828
16763SOL    HW162762   5.968   6.627   2.143 -1.0427 -0.2262  1.7637
16763SOL    HW262763   6.073   6.504   2.121  1.0227  1.8919 -0.3824
16764SOL     OW62764   2.127   5.315   5.089  0.3831  0.2979  0.0484
16764SOL    HW162765   2.184   5.396   5.104  0.5162  0.1210  0.4882
16764SOL    HW262766   2.045   5.320   5.146  1.5233 -1.0020  1.8475
16765SOL     OW62767   8.225   3.474   7.986 -0.1736 -0.3497 -0.1975
16765SOL    HW162768   8.322   3.473   8.010 -0.1564 -0.0716 -0.2485
16765SOL    HW262769   8.192   3.380   7.975 -0.1206 -0.4724  0.6555
16766SOL     OW62770   0.308   7.631   0.455  0.1041  0.1306 -0.3836
16766SOL    HW162771   0.261   7.719   0.462 -1.4413 -0.7692  1.0221
16766SOL    HW262772   0.242   7.560   0.428  0.9162 -0.9454  0.4259
16767SOL     OW62773   1.379   4.510   1.085  0.2607  0.8497  0.3606
16767SOL    HW162774   1.398   4.413   1.070  1.5958  1.0526  0.6982
16767SOL    HW262775   1.282   4.522   1.105 -0.2040 -0.2310 -1.2154
16768SOL     OW62776   7.792   4.580   4.707  0.1438 -0.4030 -0.3229
16768SOL    HW162777   7.757   4.553   4.797 -0.9957  1.6943 -0.0996
16768SOL    HW262778   7.878   4.532   4.688  0.7278 -0.3945  2.1653
16769SOL     OW62779   6.804   2.000   6.946 -0.2915 -0.1686 -0.5209
16769SOL    HW162780   6.741   2.015   6.870  1.0373  0.5527 -1.4823
16769SOL    HW262781   6.828   2.088   6.988  0.5308 -0.3864 -0.5277
16770SOL     OW62782   8.329   4.975   2.671  0.1125 -0.3182 -0.0245
16770SOL    HW162783   8.306   5.070   2.650 -0.5043 -0.8769 -2.0148
16770SOL    HW262784   8.420   4.954   2.635  0.2195 -0.5072  0.3534
16771SOL     OW62785   4.140   2.462   3.406  0.2386  0.1410 -0.6328
16771SOL    HW162786   4.192   2.416   3.478  1.4067 -0.3932 -1.7817
16771SOL    HW262787   4.176   2.555   3.394 -0.2552  0.3871 -0.2326
16772SOL     OW62788   4.294   7.292   6.850  0.4651  0.1965  0.2562
16772SOL    HW162789   4.337   7.325   6.766  2.2915  0.9672  1.4580
16772SOL    HW262790   4.346   7.215   6.886  0.1054  0.3224  1.0609
16773SOL     OW62791   2.706   3.887   0.740 -0.0255 -0.4587 -0.1499
16773SOL    HW162792   2.763   3.827   0.683 -1.8020 -0.8227 -1.5984
16773SOL    HW262793   2.698   3.848   0.832 -0.0063 -1.7309 -0.6748
16774SOL     OW62794   6.839   7.870   7.077 -0.2064 -0.3260  0.3052
16774SOL    HW162795   6.875   7.901   7.165 -1.7445  2.6563 -0.0835
16774SOL    HW262796   6.912   7.824   7.026  0.9418 -1.2631  2.7234
16775SOL     OW62797   3.648   2.111   2.524 -0.0007  0.1697  0.4168
16775SOL    HW162798   3.674   2.041   2.457  3.7411  2.0861 -0.2296
16775SOL    HW262799   3.607   2.189   2.476 -2.4271 -0.6994  0.9697
16776SOL     OW62800   0.059   0.920   1.031  0.0631  0.0200  0.4806
16776SOL    HW162801   0.077   0.960   1.121  1.0930  2.3457 -0.7169
16776SOL    HW262802  -0.036   0.892   1.025  0.2165 -1.0480  2.6211
16777SOL     OW62803   4.792   7.650   0.818 -0.5117 -0.0536 -0.4446
16777SOL    HW162804   4.774   7.695   0.731  0.0124  1.3694  0.1771
16777SOL    HW262805   4.784   7.716   0.892 -0.3359 -1.1190  0.5321
16778SOL     OW62806   6.080   8.255   7.461 -0.0962  0.3359  0.0714
16778SOL    HW162807   6.009   8.298   7.405  0.9827  1.4159 -0.4985
16778SOL    HW262808   6.134   8.325   7.507  1.3103 -0.4114 -0.3910
16779SOL     OW62809   5.521   0.110   7.800 -0.6190  0.2979  0.3445
16779SOL    HW162810   5.570   0.145   7.880  3.0757  2.4232 -2.6891
16779SOL    HW262811   5.491   0.186   7.743 -2.3468 -1.2124 -0.8219
16780SOL     OW62812   7.617   5.311   6.333  0.0462  0.2207 -0.4980
16780SOL    HW162813   7.558   5.313   6.252  0.1184 -1.0806 -0.6013
16780SOL    HW262814   7.563   5.333   6.414 -0.8271 -1.9206 -0.4595
16781SOL     OW62815   1.254   6.637   0.934 -0.4748 -0.5516 -0.1200
16781SOL    HW162816   1.312   6.600   0.861  1.1227  0.5721  0.5569
16781SOL    HW262817   1.247   6.571   1.008 -1.2307 -1.2620 -0.8092
16782SOL     OW62818   1.888   4.755   7.647 -0.4386  0.2500 -0.2868
16782SOL    HW162819   1.795   4.726   7.669 -0.0028 -0.2338  0.9677
16782SOL    HW262820   1.952   4.717   7.714  0.8021 -0.3113 -1.7452
16783SOL     OW62821   7.768   5.681   4.514 -0.1376 -0.1316 -0.1182
16783SOL    HW162822   7.681   5.730   4.509  0.2363  0.3871 -1.9062
16783SOL    HW262823   7.843   5.745   4.531 -0.0811 -0.5635  1.3151
16784SOL     OW62824   5.931   2.608   2.140  0.2632  0.0471  0.3776
16784SOL    HW162825   5.944   2.517   2.100 -0.5777  0.8366 -1.8145
16784SOL    HW262826   6.010   2.665   2.118  0.0207  0.3444  0.2781
16785SOL     OW62827   8.594   1.627   8.197 -0.3906  0.2736 -0.1127
16785SOL    HW162828   8.583   1.716   8.240 -1.1278  0.6034 -0.9702
16785SOL    HW262829   8.520   1.566   8.227  1.2710 -0.7056  2.0791
16786SOL     OW62830   5.313   3.014   5.305  0.4548 -0.4673 -0.3321
16786SOL    HW162831   5.398   3.064   5.319  0.6279 -0.9129  0.2338
16786SOL    HW262832   5.242   3.077   5.271  1.0026 -0.0989 -0.8065
16787SOL     OW62833   7.119   0.021   6.939  0.2846 -0.4153  0.0370
16787SOL    HW162834   7.083   0.104   6.895 -0.6975 -0.7797  0.1297
16787SOL    HW262835   7.096  -0.058   6.883  3.5409 -0.3881 -1.4011
16788SOL     OW62836   7.157   1.081   2.732  0.4816 -0.1056  0.6054
16788SOL    HW162837   7.093   1.041   2.666 -0.1807  0.3210  0.9774
16788SOL    HW262838   7.124   1.061   2.825  0.8233  0.2320  0.7977
16789SOL     OW62839   7.817   3.884   8.361  0.3744  0.5143  0.0400
16789SOL    HW162840   7.898   3.829   8.379  1.2229  1.3214 -1.2887
16789SOL    HW262841   7.800   3.888   8.262 -0.7012  1.1892  0.2401
16790SOL     OW62842   3.371   7.300   7.563  0.1915  0.0351 -0.1525
16790SOL    HW162843   3.427   7.344   7.632  0.7491 -1.4608  0.3842
16790SOL    HW262844   3.276   7.331   7.572  0.4919  0.7908  0.4733
16791SOL     OW62845   0.998   6.110   1.106  0.2157  0.3992 -0.2004
16791SOL    HW162846   1.027   6.018   1.133  0.8957  1.7966  4.2435
16791SOL    HW262847   1.079   6.166   1.087 -0.1655  0.3808 -1.9492
16792SOL     OW62848   6.886   8.730   8.098 -0.2953  0.1403  0.2875
16792SOL    HW162849   6.903   8.828   8.111  1.3822 -0.0544 -0.3603
16792SOL    HW262850   6.885   8.685   8.187 -0.4702  0.6417  0.5436
16793SOL     OW62851   5.928   6.929   7.333 -0.1973 -0.6347 -0.8353
16793SOL    HW162852   5.892   7.003   7.277  0.2381  0.4317  0.2777
16793SOL    HW262853   5.901   6.943   7.429  1.3655 -0.9506 -0.3285
16794SOL     OW62854   8.695   6.911   7.180 -0.2316 -0.0401 -0.1847
16794SOL    HW162855   8.624   6.981   7.183 -0.8948 -0.7596  1.6689
16794SOL    HW262856   8.655   6.825   7.149 -0.0813 -0.3196  0.3800
16795SOL     OW62857   7.094   3.431   0.872  0.3670  0.0099 -0.2497
16795SOL    HW162858   7.150   3.479   0.804 -1.5627  0.5580 -1.5085
16795SOL    HW262859   7.021   3.493   0.903 -0.6189 -1.2639  0.0002
16796SOL     OW62860   7.284   2.382   1.468 -0.2949  0.2190  0.2533
16796SOL    HW162861   7.244   2.294   1.494 -1.4709  1.1592  1.7512
16796SOL    HW262862   7.327   2.374   1.379 -1.2064 -1.6343 -0.0497
16797SOL     OW62863   5.598   3.431   2.103  0.2321 -0.2486 -0.5813
16797SOL    HW162864   5.531   3.364   2.136  1.2652 -0.9307  0.1690
16797SOL    HW262865   5.666   3.385   2.046  1.4887 -0.0336  0.7049
16798SOL     OW62866   3.364   2.178   4.538  0.0060  0.0669 -0.2174
16798SOL    HW162867   3.350   2.181   4.439 -1.0045  0.1802 -0.0704
16798SOL    HW262868   3.329   2.092   4.575  1.3934 -0.4748 -0.1021
16799SOL     OW62869   4.016   5.196   2.958 -0.3805  0.3498 -0.3088
16799SOL    HW162870   4.020   5.248   2.873  0.6491  0.4292 -0.2149
16799SOL    HW262871   4.092   5.131   2.961 -0.4208  0.3391  0.5517
16800SOL     OW62872   6.810   7.516   6.091 -0.2943 -0.0658  0.4401
16800SOL    HW162873   6.909   7.510   6.084 -0.2739 -0.4319  1.0486
16800SOL    HW262874   6.784   7.589   6.154 -0.4057 -0.3334  0.7031
16801SOL     OW62875   5.195   1.567   8.946  0.3804 -0.1789 -0.0551
16801SOL    HW162876   5.131   1.638   8.917 -0.3685  0.2955  2.6914
16801SOL    HW262877   5.148   1.501   9.004  1.8843 -1.0130  0.2410
16802SOL     OW62878   6.983   6.213   0.033  0.0084  0.0736 -0.4152
16802SOL    HW162879   6.990   6.114   0.019 -0.5133  0.2209 -1.7403
16802SOL    HW262880   6.889   6.237   0.057  0.4647  0.0715  1.4431
16803SOL     OW62881   1.355   5.154   2.145 -0.3194  0.6876  0.4375
16803SOL    HW162882   1.397   5.162   2.054  0.0619  1.2069  0.6564
16803SOL    HW262883   1.423   5.121   2.210 -0.6019  0.2888  0.5328
16804SOL     OW62884   7.679   3.492   7.340  0.1080  0.2882  0.3057
16804SOL    HW162885   7.583   3.478   7.316 -0.1544  0.6210  1.1448
16804SOL    HW262886   7.732   3.410   7.318  0.0747  0.9285 -2.3403
16805SOL     OW62887   5.974   2.231   0.016  0.0160  0.5790 -0.1375
16805SOL    HW162888   5.989   2.286  -0.066  1.2021  0.2481 -0.1635
16805SOL    HW262889   6.044   2.159   0.020 -0.2275  0.4021  0.9937
16806SOL     OW62890   5.570   4.761   3.561  0.1325 -0.2774 -0.1092
16806SOL    HW162891   5.524   4.850   3.553  0.3298 -0.1661 -0.0111
16806SOL    HW262892   5.583   4.722   3.470  0.6320  0.0954 -0.2005
16807SOL     OW62893   0.341   4.991   0.025  0.1122  0.7609 -0.0513
16807SOL    HW162894   0.379   4.934  -0.048  0.3527  1.2584 -0.3165
16807SOL    HW262895   0.262   5.042  -0.009 -0.1784  0.4931  0.2201
16808SOL     OW62896   3.334   8.132   8.857  0.5413 -0.0648 -0.5483
16808SOL    HW162897   3.342   8.134   8.957  2.2238  1.0688 -0.6895
16808SOL    HW262898   3.393   8.061   8.820 -1.2913 -1.5629 -0.6469
16809SOL     OW62899   5.835   0.564   7.602 -0.0763 -0.6565 -0.1615
16809SOL    HW162900   5.904   0.496   7.627  0.8099  0.1821 -0.2492
16809SOL    HW262901   5.746   0.520   7.592  0.1405 -1.5063  1.4595
16810SOL     OW62902   0.445   7.388   7.593  0.6742 -0.6495 -0.1089
16810SOL    HW162903   0.512   7.327   7.635 -1.0092 -1.2245  1.8073
16810SOL    HW262904   0.425   7.464   7.655 -2.3786 -1.9074  0.5279
16811SOL     OW62905   8.704   5.672   4.796 -0.5330  0.5539  0.1498
16811SOL    HW162906   8.652   5.757   4.789 -1.4403  0.2194  2.4448
16811SOL    HW262907   8.644   5.595   4.774  0.4036  0.4977 -2.3827
16812SOL     OW62908   2.622   0.021   3.542  0.2900  0.0699  0.5462
16812SOL    HW162909   2.702   0.063   3.583  0.1245  1.4041 -0.4437
16812SOL    HW262910   2.541   0.075   3.563 -0.0628 -0.2169 -0.0318
16813SOL     OW62911   8.795   4.682   2.995 -0.2627 -0.1941  0.4604
16813SOL    HW162912   8.890   4.697   2.968  0.0311 -1.2490  0.8876
16813SOL    HW262913   8.736   4.694   2.915  0.0742  1.8415  0.4939
16814SOL     OW62914   6.697   5.775   0.051 -0.0338 -0.0202  0.2474
16814SOL    HW162915   6.650   5.709   0.109  0.8968 -1.5845 -0.7474
16814SOL    HW262916   6.662   5.867   0.069 -0.8323 -0.6889  2.1609
16815SOL     OW62917   2.285   5.259   8.062  0.1992 -0.8089  0.7763
16815SOL    HW162918   2.214   5.237   7.995  0.9929 -0.7487 -0.0957
16815SOL    HW262919   2.365   5.202   8.045  0.9786  0.2956  0.6898
16816SOL     OW62920   6.052   7.245   1.094  0.2383  0.0134 -0.1256
16816SOL    HW162921   5.988   7.290   1.157 -1.6888 -1.8455 -0.6935
16816SOL    HW262922   6.061   7.300   1.012  0.6343  1.0989  0.6332
16817SOL     OW62923   5.898   4.325   7.010 -0.1927  0.2465  0.1323
16817SOL    HW162924   5.812   4.352   7.052 -0.9142 -1.1688 -0.4042
16817SOL    HW262925   5.952   4.271   7.074  0.1919  0.9157  0.3785
16818SOL     OW62926   7.148   3.940   3.062  0.3373  0.5488  0.1237
16818SOL    HW162927   7.162   3.991   2.977 -1.9692  1.1224  0.0551
16818SOL    HW262928   7.192   3.988   3.138  3.7554 -0.7520 -0.9079
16819SOL     OW62929   6.054   6.998   6.825  0.0790  0.3431 -0.0877
16819SOL    HW162930   6.058   7.040   6.735 -1.4959  0.5003 -0.1032
16819SOL    HW262931   6.118   7.044   6.886  1.3066  0.0896 -1.1803
16820SOL     OW62932   8.430   3.849   0.768  1.0588 -0.5867 -0.3000
16820SOL    HW162933   8.477   3.927   0.727  0.4296  1.1901  2.2640
16820SOL    HW262934   8.398   3.873   0.859 -0.4800 -3.3779 -0.0419
16821SOL     OW62935   8.456   4.703   2.318 -0.0780 -0.2778 -0.1365
16821SOL    HW162936   8.405   4.786   2.295 -0.1715 -0.6440 -1.3198
16821SOL    HW262937   8.395   4.624   2.311  0.0342 -0.4525  0.8954
16822SOL     OW62938   8.689   5.180   4.585  0.0007  0.4247 -0.7081
16822SOL    HW162939   8.779   5.138   4.586 -0.3471 -0.3279  0.0890
16822SOL    HW262940   8.634   5.141   4.512  0.6429  1.5997 -1.8379
16823SOL     OW62941   6.612   3.750   4.263  0.3091  0.8042 -0.4710
16823SOL    HW162942   6.526   3.786   4.301  0.2085  1.5507 -1.3966
16823SOL    HW262943   6.601   3.652   4.244 -0.8773  1.2375 -2.1042
16824SOL     OW62944   2.355   6.949   7.705 -0.7290 -0.1067  0.5092
16824SOL    HW162945   2.286   6.995   7.649  0.9935 -0.5254 -2.0331
16824SOL    HW262946   2.386   7.012   7.778 -0.1515  1.9370 -1.4393
16825SOL     OW62947   3.619   3.115   4.698 -0.0358 -0.1298  0.4716
16825SOL    HW162948   3.683   3.039   4.682 -1.9159 -1.8689  0.9823
16825SOL    HW262949   3.564   3.129   4.616  1.2112  1.5917 -0.0861
16826SOL     OW62950   5.970   2.301   6.989  0.1536 -0.1959  0.4099
16826SOL    HW162951   5.986   2.348   6.903 -1.9062  1.2723  0.7886
16826SOL    HW262952   6.015   2.350   7.064  0.0436 -0.1973  0.4769
16827SOL     OW62953   0.193   0.604   5.433  0.5474 -0.0811 -0.1669
16827SOL    HW162954   0.202   0.558   5.521  2.1013 -0.1703 -0.3630
16827SOL    HW262955   0.235   0.695   5.439 -0.3076  0.3366 -0.5004
16828SOL     OW62956   4.945   4.984   6.214  0.5973 -0.0060 -0.0535
16828SOL    HW162957   5.017   5.034   6.261  0.6058  0.2480 -0.3374
16828SOL    HW262958   4.856   5.012   6.251  0.6301 -0.1349  0.1224
16829SOL     OW62959   5.790   6.520   5.806  0.1143  0.4407 -0.7237
16829SOL    HW162960   5.712   6.503   5.746  0.0891 -0.8728 -0.3254
16829SOL    HW262961   5.765   6.589   5.875 -0.5719  0.3069 -0.8360
16830SOL     OW62962   7.645   1.582   7.314 -0.1097  0.0505  0.3599
16830SOL    HW162963   7.650   1.519   7.236 -0.7454 -0.3197  0.6113
16830SOL    HW262964   7.554   1.575   7.356  0.4646 -0.2530  1.5523
16831SOL     OW62965   5.495   4.551   5.908 -0.6004 -0.8694 -0.2249
16831SOL    HW162966   5.418   4.492   5.931 -1.9349  0.8550 -0.1456
16831SOL    HW262967   5.463   4.627   5.851  1.5822 -1.8257 -2.8894
16832SOL     OW62968   7.965   6.505   6.438  0.9877  0.0164 -0.0922
16832SOL    HW162969   7.954   6.405   6.434  0.3517  0.0350  1.0418
16832SOL    HW262970   7.953   6.543   6.347  0.2003 -0.8470 -0.3547
16833SOL     OW62971   7.531   4.533   3.294  0.6377 -0.1472 -0.1319
16833SOL    HW162972   7.557   4.623   3.258  2.2900 -1.4817 -2.3407
16833SOL    HW262973   7.475   4.546   3.376  2.0804  2.8769  0.4643
16834SOL     OW62974   5.969   5.073   6.626  0.4027  0.0651 -0.2768
16834SOL    HW162975   5.929   5.010   6.692  0.7197 -0.1385 -0.2812
16834SOL    HW262976   6.067   5.083   6.643  0.6280 -0.5492 -1.1739
16835SOL     OW62977   7.318   2.487   8.239 -0.3100 -0.0528  0.2588
16835SOL    HW162978   7.286   2.582   8.238 -0.5560 -0.1284  0.7350
16835SOL    HW262979   7.251   2.429   8.285 -0.9902 -0.7824 -1.6377
16836SOL     OW62980   6.775   7.304   4.027 -0.1996  0.0518 -0.1028
16836SOL    HW162981   6.707   7.376   4.013 -1.9296 -1.4213  0.4833
16836SOL    HW262982   6.729   7.215   4.034  1.9851 -1.3200 -2.2057
16837SOL     OW62983   0.688   4.462   2.478  0.1951 -0.3173  0.0085
16837SOL    HW162984   0.675   4.418   2.567 -0.6598 -0.1150 -0.0047
16837SOL    HW262985   0.772   4.515   2.479  0.8983 -1.4097  0.2459
16838SOL     OW62986   2.002   2.384   4.650  0.5030 -0.5116  0.0109
16838SOL    HW162987   2.066   2.428   4.712  1.5489 -0.5823 -1.0072
16838SOL    HW262988   2.046   2.369   4.561 -0.8739 -0.6656 -0.6658
16839SOL     OW62989   0.208   3.767   5.416  0.3275 -0.6124 -0.1946
16839SOL    HW162990   0.139   3.742   5.348 -0.1106 -0.6784  0.2747
16839SOL    HW262991   0.186   3.724   5.504 -0.1315  0.9790  0.4822
16840SOL     OW62992   7.547   5.306   6.612  0.9500  0.1478  0.2559
16840SOL    HW162993   7.469   5.245   6.603  1.6844 -0.6695 -0.6890
16840SOL    HW262994   7.603   5.276   6.689  0.2600  0.8202  1.0244
16841SOL     OW62995   1.912   2.997   4.727  0.1807  0.0351 -0.1478
16841SOL    HW162996   1.841   3.017   4.660  0.7436 -0.1333 -0.8054
16841SOL    HW262997   1.873   2.945   4.803 -0.2274 -0.7786 -0.9086
16842SOL     OW62998   2.005   3.905   3.733 -0.0317 -0.7754  0.1404
16842SOL    HW162999   2.024   4.002   3.748  0.1020 -0.4046 -2.2854
16842SOL    HW263000   1.909   3.893   3.709 -0.0455 -1.2661  0.4221
16843SOL     OW63001   0.358   0.247   5.505  0.4867  0.1381 -0.4494
16843SOL    HW163002   0.418   0.177   5.544 -0.1793  0.1640  0.6343
16843SOL    HW263003   0.328   0.218   5.414  1.3437 -0.3262 -0.5959
16844SOL     OW63004   6.097   5.687   4.201  0.2572 -0.0249 -0.2404
16844SOL    HW163005   6.038   5.760   4.167  0.4138 -0.0177 -0.4955
16844SOL    HW263006   6.116   5.702   4.298  0.7009  0.5493 -0.4150
16845SOL     OW63007   0.999   7.152   6.988  0.4715 -0.0699 -0.3799
16845SOL    HW163008   0.900   7.137   6.990  0.7082 -1.6165  0.5613
16845SOL    HW263009   1.044   7.081   7.042  2.1578  0.0613 -1.5900
16846SOL     OW63010   0.717   8.987   8.628 -0.5212 -0.3610 -0.0078
16846SOL    HW163011   0.733   9.039   8.712 -0.2263  1.1382 -0.9690
16846SOL    HW263012   0.619   8.980   8.611 -0.5870 -0.8557  0.5725
16847SOL     OW63013   0.124   3.380   7.293  0.4267 -0.2070 -0.2553
16847SOL    HW163014   0.204   3.394   7.236  0.0910 -1.9453 -1.2041
16847SOL    HW263015   0.059   3.455   7.279  1.8135  1.1429  0.4374
16848SOL     OW63016   6.960   8.266   6.652 -0.5018  0.3488  0.2720
16848SOL    HW163017   6.865   8.273   6.685 -0.4967  0.1052  0.3385
16848SOL    HW263018   7.022   8.295   6.725 -0.5465  0.9377  0.0773
16849SOL     OW63019   4.310   8.147   8.606 -0.6362 -0.6611  0.2072
16849SOL    HW163020   4.259   8.126   8.522 -0.7342 -2.4662  0.7050
16849SOL    HW263021   4.404   8.171   8.583 -0.6903 -1.0415 -0.4142
16850SOL     OW63022   0.411   7.919   2.003  0.5789  0.0050  0.7327
16850SOL    HW163023   0.396   7.968   1.917  0.2653  0.4732  1.0522
16850SOL    HW263024   0.339   7.852   2.017  0.1335  0.5558  1.0728
16851SOL     OW63025   0.720   0.684   0.725 -0.0052  0.3017 -0.2544
16851SOL    HW163026   0.627   0.714   0.744  0.3214  2.5757 -2.0709
16851SOL    HW263027   0.753   0.727   0.641  2.4234 -1.0499 -0.0508
16852SOL     OW63028   7.717   8.678   2.095 -0.2393  0.0743  0.8121
16852SOL    HW163029   7.630   8.628   2.099 -0.1064 -0.0832  1.9185
16852SOL    HW263030   7.748   8.682   2.000 -1.0956 -0.4881  0.4932
16853SOL     OW63031   4.501   3.280   3.962 -0.0729  0.3380  0.3557
16853SOL    HW163032   4.574   3.255   4.026  1.8894  0.7797 -1.6221
16853SOL    HW263033   4.437   3.204   3.953  0.9627 -0.6408  1.0411
16854SOL     OW63034   1.271   2.385   0.450 -0.1255  0.3627 -0.4319
16854SOL    HW163035   1.289   2.406   0.546 -0.7205 -0.5251 -0.1144
16854SOL    HW263036   1.299   2.291   0.431 -0.4609  0.3762 -0.9986
16855SOL     OW63037   8.489   8.792   6.107  0.0007  0.2547  0.3154
16855SOL    HW163038   8.429   8.862   6.145  0.1110  1.5123 -1.7449
16855SOL    HW263039   8.499   8.807   6.008 -0.0300 -2.7084 -0.1752
16856SOL     OW63040   2.574   0.234   0.204  0.0955  0.2497  0.8940
16856SOL    HW163041   2.490   0.180   0.210 -0.7063  1.2485 -0.8841
16856SOL    HW263042   2.569   0.312   0.266 -0.6159  0.7325  0.2325
16857SOL     OW63043   8.116   5.396   3.001 -0.0985  0.5367  0.2810
16857SOL    HW163044   8.018   5.376   3.001 -0.1853  0.9234 -0.9993
16857SOL    HW263045   8.167   5.314   3.027 -0.8089  0.6090  1.9067
16858SOL     OW63046   2.624   5.107   8.349  0.0858  0.2430  0.5185
16858SOL    HW163047   2.668   5.137   8.264  0.0792  0.6007  0.6413
16858SOL    HW263048   2.574   5.184   8.390 -1.7164 -0.4923 -0.2760
16859SOL     OW63049   5.514   8.785   1.015  0.4056 -0.0414 -0.4976
16859SOL    HW163050   5.451   8.847   0.969 -1.7112 -2.2440 -0.7093
16859SOL    HW263051   5.565   8.733   0.946  1.7052  0.9969 -0.3270
16860SOL     OW63052   2.797   7.619   1.279 -0.0018  0.4940  0.4855
16860SOL    HW163053   2.720   7.558   1.298 -1.1484  2.2118  1.4987
16860SOL    HW263054   2.847   7.638   1.364 -0.9798  2.6846  0.6174
16861SOL     OW63055   1.408   1.972   0.255  0.2538 -0.4935 -0.7154
16861SOL    HW163056   1.439   1.968   0.160 -1.2121 -1.3090 -1.1897
16861SOL    HW263057   1.428   2.062   0.293  1.0062 -0.2085 -1.7430
16862SOL     OW63058   5.927   6.729   8.349 -0.2794  0.1054  0.2382
16862SOL    HW163059   5.911   6.825   8.374 -1.2195  0.5662 -1.9451
16862SOL    HW263060   6.024   6.715   8.330 -0.2772  0.8692 -0.3502
16863SOL     OW63061   5.042   1.065   0.673  0.2946 -0.6062 -0.6236
16863SOL    HW163062   4.955   1.097   0.635 -0.4350 -0.4766  1.0713
16863SOL    HW263063   5.099   1.027   0.601 -0.3086  1.2368 -2.1002
16864SOL     OW63064   3.115   3.741   1.771 -0.0284  0.1753 -0.0228
16864SOL    HW163065   3.061   3.786   1.842 -0.1448  1.0757 -0.6742
16864SOL    HW263066   3.065   3.662   1.736 -0.3736  0.2694  0.2562
16865SOL     OW63067   2.788   5.102   5.639  0.1918  0.0200 -0.6341
16865SOL    HW163068   2.884   5.080   5.650  0.3374  0.2624 -1.3633
16865SOL    HW263069   2.769   5.192   5.680 -0.4385 -1.4623  2.4798
16866SOL     OW63070   4.585   6.674   1.383  0.6214 -0.1415 -0.3658
16866SOL    HW163071   4.551   6.673   1.289 -0.5432 -1.8177  0.0534
16866SOL    HW263072   4.626   6.585   1.405 -0.9675 -0.4838  1.3500
16867SOL     OW63073   6.465   5.521   7.329  0.2194 -0.5971  0.0246
16867SOL    HW163074   6.486   5.599   7.271  0.8897 -0.1485  0.8608
16867SOL    HW263075   6.366   5.512   7.339  0.1446  0.2660  0.0944
16868SOL     OW63076   0.238   5.466   6.841  0.1549  0.0782  0.6889
16868SOL    HW163077   0.283   5.391   6.890  1.2024  0.4917  0.3856
16868SOL    HW263078   0.249   5.451   6.742 -0.0721  0.3716  0.6197
16869SOL     OW63079   3.819   0.525   0.586  0.5314  0.3104 -0.1863
16869SOL    HW163080   3.772   0.611   0.569 -2.2415 -1.0640  0.3156
16869SOL    HW263081   3.834   0.477   0.499 -0.4774  0.0196 -0.2088
16870SOL     OW63082   1.183   8.617   2.431 -0.6459 -0.7399 -0.0400
16870SOL    HW163083   1.154   8.537   2.483  1.2394  0.1297  2.4226
16870SOL    HW263084   1.121   8.694   2.451  0.0507 -0.4198  0.9010
16871SOL     OW63085   0.824   1.995   1.926 -0.0220  0.1927  0.6766
16871SOL    HW163086   0.826   2.077   1.984 -2.4550  1.0548 -0.3430
16871SOL    HW263087   0.729   1.966   1.914  0.4002  0.0281 -2.8298
16872SOL     OW63088   4.503   7.094   7.350 -0.8159  0.1749 -0.7734
16872SOL    HW163089   4.448   7.164   7.396 -1.2519  0.6241 -1.9526
16872SOL    HW263090   4.589   7.081   7.399 -0.8542  1.3412 -0.3826
16873SOL     OW63091   5.247   1.423   2.610 -0.1978 -0.4644  0.3351
16873SOL    HW163092   5.197   1.386   2.532 -1.6832  0.1601  0.9680
16873SOL    HW263093   5.272   1.518   2.593  0.1827 -0.5652  0.3095
16874SOL     OW63094   7.061   1.316   0.730  0.6887 -0.1481  0.0714
16874SOL    HW163095   6.984   1.324   0.792  1.7706  0.0403  1.4221
16874SOL    HW263096   7.140   1.280   0.780  1.3915 -0.6320 -1.3540
16875SOL     OW63097   3.826   3.684   8.797  0.0157 -0.4292  0.0589
16875SOL    HW163098   3.925   3.695   8.789 -0.0329 -0.7880 -1.2305
16875SOL    HW263099   3.803   3.587   8.796 -0.2405 -0.4012  1.9714
16876SOL     OW63100   5.467   4.124   4.918  0.1844 -0.2932  0.0032
16876SOL    HW163101   5.453   4.095   5.013 -0.5333  1.8523  0.5809
16876SOL    HW263102   5.552   4.177   4.912  1.2716 -2.1323 -0.9513
16877SOL     OW63103   1.687   3.316   4.709  0.1232 -0.1653 -0.2024
16877SOL    HW163104   1.779   3.333   4.675  0.2959  0.9302  0.7517
16877SOL    HW263105   1.682   3.340   4.806 -1.9886  3.0745 -1.0127
16878SOL     OW63106   3.059   3.193   8.848 -0.2831 -0.1389 -0.5962
16878SOL    HW163107   2.995   3.118   8.863 -0.4254 -0.5019 -2.8076
16878SOL    HW263108   3.126   3.166   8.779  0.7660  1.1245 -0.0861
16879SOL     OW63109   4.285   1.319   8.707 -0.6844 -0.0104  0.2920
16879SOL    HW163110   4.209   1.383   8.700 -0.4084  0.4070  1.0771
16879SOL    HW263111   4.370   1.369   8.722 -0.1589 -0.4362 -1.2068
16880SOL     OW63112   8.905   6.826   0.537  0.0571  0.4488 -0.7071
16880SOL    HW163113   8.938   6.916   0.568 -2.8560  1.3661 -0.1789
16880SOL    HW263114   8.911   6.822   0.437 -0.0884  1.3551 -0.7616
16881SOL     OW63115   2.551   1.555   3.113 -0.2222 -0.3065 -0.1564
16881SOL    HW163116   2.495   1.614   3.171  0.3730  1.5992 -1.4791
16881SOL    HW263117   2.648   1.571   3.134 -0.0800 -1.5431  0.1635
16882SOL     OW63118   5.080   2.543   5.000 -0.1937 -0.0277 -0.2643
16882SOL    HW163119   5.035   2.580   5.081  2.9854  3.1879  0.1460
16882SOL    HW263120   5.165   2.496   5.028  0.2416 -0.0450 -1.6064
16883SOL     OW63121   7.909   5.516   2.366 -0.0780 -0.4879  0.8460
16883SOL    HW163122   7.813   5.517   2.392  0.2720 -0.4493  2.1976
16883SOL    HW263123   7.920   5.558   2.276 -0.8611  3.1589  2.3613
16884SOL     OW63124   3.542   8.020   7.921  0.5922 -0.0408 -0.2339
16884SOL    HW163125   3.595   7.973   7.991 -0.2008 -0.3342  0.1748
16884SOL    HW263126   3.498   8.101   7.961  1.2076  0.5411 -0.7138
16885SOL     OW63127   6.287   7.144   4.482  0.8077 -0.5159 -0.4764
16885SOL    HW163128   6.241   7.082   4.418 -1.5496  0.5788  0.1122
16885SOL    HW263129   6.230   7.157   4.563  0.5985  3.4748 -1.1593
16886SOL     OW63130   2.402   4.116   3.200  0.0845 -0.7058  0.3490
16886SOL    HW163131   2.470   4.187   3.218 -0.8212  0.1110  0.6266
16886SOL    HW263132   2.323   4.131   3.259 -0.5025 -1.4014 -0.2610
16887SOL     OW63133   7.227   6.198   3.812  0.4211 -0.1196 -0.1598
16887SOL    HW163134   7.196   6.278   3.863 -1.6568 -0.0672 -1.4455
16887SOL    HW263135   7.323   6.180   3.833  0.6302  2.0981  0.9158
16888SOL     OW63136   7.616   0.443   5.214  0.2542  0.0367 -0.5239
16888SOL    HW163137   7.662   0.391   5.286 -1.0108 -0.1492  0.1523
16888SOL    HW263138   7.582   0.380   5.144  1.6501  0.2293 -1.4163
16889SOL     OW63139   7.437   1.431   1.086  0.4492 -0.3454 -0.0522
16889SOL    HW163140   7.348   1.474   1.071  1.3057  1.1181 -0.9941
16889SOL    HW263141   7.466   1.446   1.180  1.0286  1.7131 -0.5363
16890SOL     OW63142   4.781   5.717   8.573  0.5362 -0.4638 -0.0714
16890SOL    HW163143   4.730   5.803   8.566 -1.1026 -1.3125  0.9879
16890SOL    HW263144   4.808   5.703   8.669  1.8656 -0.5420 -0.4513
16891SOL     OW63145   2.794   2.455   8.808  0.0227  0.0773  0.2978
16891SOL    HW163146   2.888   2.429   8.831  0.4039  0.2055 -1.0617
16891SOL    HW263147   2.769   2.414   8.720 -1.6688 -1.0599  1.2945
16892SOL     OW63148   2.436   4.538   0.154 -0.2138  0.1207  0.3161
16892SOL    HW163149   2.343   4.571   0.142 -0.5347 -0.4245  1.2590
16892SOL    HW263150   2.440   4.439   0.139 -0.0781 -0.0979  1.7425
16893SOL     OW63151   7.819   1.703   7.487 -0.2104  0.1058 -0.5264
16893SOL    HW163152   7.759   1.761   7.542 -0.3853 -1.3463  0.8595
16893SOL    HW263153   7.763   1.650   7.423 -0.1886  0.4171 -0.8029
16894SOL     OW63154   8.237   6.278   8.532  0.2259  0.0976 -0.0301
16894SOL    HW163155   8.154   6.282   8.477 -2.1940 -0.6789  3.3944
16894SOL    HW263156   8.260   6.369   8.565 -0.0480  0.1101  0.1250
16895SOL     OW63157   8.913   8.025   7.596 -0.0915 -0.3132  0.1167
16895SOL    HW163158   8.947   8.029   7.690  0.8376 -0.0639 -0.2246
16895SOL    HW263159   8.868   8.111   7.573  1.9875  0.6608 -0.5129
16896SOL     OW63160   2.016   0.688   6.227  0.6971  0.0656  0.3779
16896SOL    HW163161   1.965   0.755   6.173  0.5664 -0.6578 -0.4082
16896SOL    HW263162   1.981   0.687   6.321 -1.1608 -0.8673 -0.3016
16897SOL     OW63163   7.571   1.818   2.260 -0.0316  0.1795  0.3906
16897SOL    HW163164   7.589   1.866   2.346 -0.8840  1.3000 -0.0439
16897SOL    HW263165   7.594   1.878   2.183  3.8943 -1.9436 -0.2398
16898SOL     OW63166   2.102   3.203   7.326  0.4585 -1.1820  0.2535
16898SOL    HW163167   2.036   3.266   7.285 -0.0132 -1.7592  0.1308
16898SOL    HW263168   2.192   3.248   7.331  0.6267 -1.2559 -1.8256
16899SOL     OW63169   8.603   4.732   5.041 -0.2426 -0.0167  0.0092
16899SOL    HW163170   8.558   4.773   4.962  1.5467 -0.2337 -1.1679
16899SOL    HW263171   8.702   4.726   5.023  0.6563  2.6712  3.4102
16900SOL     OW63172   5.837   2.256   8.632  0.0388 -0.0996 -0.5061
16900SOL    HW163173   5.793   2.166   8.623  1.6189 -1.0690  1.2637
16900SOL    HW263174   5.932   2.250   8.603 -0.2368  1.3710 -1.7716
16901SOL     OW63175   3.342   3.474   4.806 -0.5902 -0.4129  0.0911
16901SOL    HW163176   3.426   3.468   4.752 -1.1782  0.1343 -0.9011
16901SOL    HW263177   3.290   3.389   4.796 -0.2811 -0.6459  0.4842
16902SOL     OW63178   7.122   6.309   6.325  0.4719  0.5515 -0.2450
16902SOL    HW163179   7.132   6.229   6.265 -1.9464 -0.9840  1.2684
16902SOL    HW263180   7.203   6.318   6.383  1.7671  0.6015 -2.0582
16903SOL     OW63181   8.204   0.714   4.521  0.1258 -0.0207  0.5868
16903SOL    HW163182   8.117   0.764   4.519  0.3286  0.3273  0.3439
16903SOL    HW263183   8.246   0.718   4.431  0.9447  0.7970  0.9905
16904SOL     OW63184   6.131   2.107   0.599 -0.5523 -0.3487  0.2700
16904SOL    HW163185   6.052   2.080   0.654 -0.6680 -1.1449 -0.2746
16904SOL    HW263186   6.101   2.159   0.520 -0.7197 -2.3691 -1.0139
16905SOL     OW63187   2.396   4.218   7.885 -0.3480  0.5135  0.2825
16905SOL    HW163188   2.375   4.161   7.965  1.3937  2.3566  2.1044
16905SOL    HW263189   2.491   4.247   7.889 -0.3495  0.9658 -2.2893
16906SOL     OW63190   6.417   2.099   7.383 -0.2208 -0.4809  0.4369
16906SOL    HW163191   6.399   2.094   7.285 -1.7340  0.5995  0.6421
16906SOL    HW263192   6.474   2.179   7.403 -1.5429  0.4308  0.6419
16907SOL     OW63193   2.099   6.461   2.341 -0.7432  0.2606 -0.3253
16907SOL    HW163194   2.063   6.502   2.425 -1.2573  0.4459 -0.6319
16907SOL    HW263195   2.073   6.365   2.337  1.0297 -0.2985  0.7189
16908SOL     OW63196   0.446   8.641   7.520 -0.4030  1.1397 -0.0103
16908SOL    HW163197   0.380   8.566   7.519  0.9605 -0.1063  0.8334
16908SOL    HW263198   0.463   8.671   7.426 -1.5919  0.9652 -0.2894
16909SOL     OW63199   3.629   3.252   8.516  0.0576  0.7250 -0.4039
16909SOL    HW163200   3.561   3.319   8.486 -0.4284  1.3248  2.0039
16909SOL    HW263201   3.583   3.168   8.545  0.4443  0.5991 -0.1522
16910SOL     OW63202   8.571   3.991   7.660  0.0365 -0.0685  0.2089
16910SOL    HW163203   8.598   4.029   7.748 -0.8897  1.4916 -0.1582
16910SOL    HW263204   8.540   4.065   7.600  1.0905 -1.0440 -1.5929
16911SOL     OW63205   0.957   1.640   6.060  0.1302 -0.1209 -1.2183
16911SOL    HW163206   0.948   1.629   6.159  0.5941  0.7190 -1.0749
16911SOL    HW263207   0.942   1.552   6.015 -1.8167 -0.1712 -0.5261
16912SOL     OW63208   8.347   4.702   1.726 -0.1845  0.2831  0.6801
16912SOL    HW163209   8.404   4.708   1.808 -1.2372 -0.0534  1.4496
16912SOL    HW263210   8.261   4.657   1.749 -1.0597  1.4226 -0.2971
16913SOL     OW63211   3.866   1.897   4.555  0.1427 -0.1351 -0.1352
16913SOL    HW163212   3.906   1.838   4.485  0.1032  0.6024 -0.7884
16913SOL    HW263213   3.769   1.913   4.534  0.0364 -0.2118  0.2920
16914SOL     OW63214   7.475   8.749   0.091  0.4304  0.0731 -0.0616
16914SOL    HW163215   7.476   8.837   0.044 -1.5552 -0.1248 -0.5225
16914SOL    HW263216   7.485   8.675   0.025  1.0538 -0.0829  0.2072
16915SOL     OW63217   7.662   0.571   7.125  0.9129 -0.4200 -0.4926
16915SOL    HW163218   7.684   0.667   7.143  1.5196 -0.5877 -0.3300
16915SOL    HW263219   7.565   0.563   7.103  0.4510 -0.0072  1.3044
16916SOL     OW63220   2.409   3.239   7.294 -0.5375 -0.3281 -0.6330
16916SOL    HW163221   2.436   3.166   7.231  0.4782 -0.6124  0.1143
16916SOL    HW263222   2.490   3.272   7.342 -1.3725 -0.3836  0.8163
16917SOL     OW63223   5.525   5.185   7.799 -0.5384 -0.4570 -0.1901
16917SOL    HW163224   5.512   5.233   7.712 -0.4168  1.3179  0.7444
16917SOL    HW263225   5.609   5.217   7.843 -0.9839 -0.7882  0.9313
16918SOL     OW63226   1.011   2.223   1.987 -0.0466 -0.0688  0.4111
16918SOL    HW163227   1.053   2.290   2.049  2.3536 -0.4870 -0.6746
16918SOL    HW263228   1.081   2.159   1.956 -1.1813  0.0995 -2.6948
16919SOL     OW63229   0.601   3.482   8.256 -0.2334  0.2850 -0.1458
16919SOL    HW163230   0.656   3.451   8.178  2.3934  4.5605 -0.1443
16919SOL    HW263231   0.532   3.548   8.223 -1.0357 -0.0986  0.7627
16920SOL     OW63232   6.223   7.164   6.997 -0.2346  0.2981  0.0232
16920SOL    HW163233   6.203   7.241   6.937 -0.6902  0.6276  0.5897
16920SOL    HW263234   6.298   7.189   7.060 -0.2416  0.2055  0.0682
16921SOL     OW63235   3.412   6.227   2.166 -0.6583 -0.0340  0.4834
16921SOL    HW163236   3.491   6.219   2.226 -0.2404  2.0377  0.2469
16921SOL    HW263237   3.360   6.141   2.167  2.5839 -2.0753 -0.8018
16922SOL     OW63238   5.108   0.872   7.439 -0.0276  0.2006  0.5855
16922SOL    HW163239   5.072   0.815   7.514 -0.2314 -1.5087 -0.7672
16922SOL    HW263240   5.199   0.840   7.414  0.6577  1.7468  1.1147
16923SOL     OW63241   2.843   4.525   5.989 -0.7273  0.4420 -0.2441
16923SOL    HW163242   2.814   4.620   5.980 -1.4025  0.1751 -0.8713
16923SOL    HW263243   2.773   4.465   5.951  0.1856 -0.2493 -0.8346
16924SOL     OW63244   6.185   4.640   7.731  0.2718 -0.2178 -0.3602
16924SOL    HW163245   6.283   4.621   7.742  0.4688  0.3378 -1.1074
16924SOL    HW263246   6.173   4.728   7.686 -0.5793 -0.2167 -0.1325
16925SOL     OW63247   7.582   3.029   7.873  0.0506  0.0309 -0.4744
16925SOL    HW163248   7.538   2.989   7.954 -1.5862 -0.1332 -1.4246
16925SOL    HW263249   7.646   2.964   7.833  0.6529  0.0081  0.5146
16926SOL     OW63250   4.233   2.931   4.983 -0.6191 -0.2911  0.2337
16926SOL    HW163251   4.277   2.940   5.073 -1.6047  0.0860  0.6903
16926SOL    HW263252   4.220   3.021   4.943  0.9200 -0.5333 -0.8483
16927SOL     OW63253   5.483   3.535   7.072  0.1255  0.5242 -0.1572
16927SOL    HW163254   5.534   3.618   7.094  1.3932 -0.4378  0.6418
16927SOL    HW263255   5.390   3.559   7.045 -0.0004  2.0985  1.5729
16928SOL     OW63256   4.660   8.231   4.580  0.0426  0.0850  0.0522
16928SOL    HW163257   4.742   8.224   4.637 -0.9763  1.8902  1.8175
16928SOL    HW263258   4.672   8.307   4.516  0.1394 -0.2651 -0.3414
16929SOL     OW63259   4.389   8.478   0.771 -0.3460  0.4445 -0.1860
16929SOL    HW163260   4.426   8.546   0.835  2.2804 -0.4958 -0.6743
16929SOL    HW263261   4.442   8.479   0.687 -0.9212 -1.5152 -0.5927
16930SOL     OW63262   2.408   8.887   4.591 -0.2181 -0.0500 -0.3254
16930SOL    HW163263   2.367   8.927   4.508  0.4393  0.6208 -0.3321
16930SOL    HW263264   2.395   8.788   4.590 -1.3557  0.0916 -0.5968
16931SOL     OW63265   2.787   7.640   1.648 -0.5852  0.0347  0.0312
16931SOL    HW163266   2.846   7.560   1.633 -0.2151  0.0014  1.5937
16931SOL    HW263267   2.818   7.689   1.729 -2.6363  0.0980  0.7981
16932SOL     OW63268   5.482   4.627   0.119  0.4079 -0.0706  0.2860
16932SOL    HW163269   5.547   4.665   0.052  0.8728  0.5512  1.0866
16932SOL    HW263270   5.528   4.559   0.175  0.3104  0.2270  0.7250
16933SOL     OW63271   4.766   7.993   0.344 -0.0014  0.2059 -0.1952
16933SOL    HW163272   4.840   7.957   0.400  0.2500 -1.0003 -1.2908
16933SOL    HW263273   4.680   7.989   0.395  0.3746 -0.0913  0.4106
16934SOL     OW63274   1.139   0.767   8.584 -0.8342 -0.3065 -0.0311
16934SOL    HW163275   1.220   0.737   8.534 -0.4265  1.0639 -0.2048
16934SOL    HW263276   1.117   0.861   8.559 -0.6509  0.3910  2.3367
16935SOL     OW63277   1.126   4.382   0.060  0.5932  0.0463 -0.0014
16935SOL    HW163278   1.170   4.458   0.014  1.1245 -0.0151  0.4026
16935SOL    HW263279   1.127   4.397   0.159  1.4267 -0.8728  0.1326
16936SOL     OW63280   5.118   4.679   5.609 -0.0892 -0.1692  0.0237
16936SOL    HW163281   5.075   4.617   5.675  1.0731 -0.0800  0.8718
16936SOL    HW263282   5.146   4.628   5.528 -0.3327 -0.5129  0.1557
16937SOL     OW63283   1.661   3.948   8.461  0.0703 -0.2434 -0.3715
16937SOL    HW163284   1.608   3.898   8.394 -0.5176 -0.2995  0.1349
16937SOL    HW263285   1.755   3.912   8.463 -0.1883 -0.9310 -0.4254
16938SOL     OW63286   8.763   1.083   6.121  0.2254  0.2466  0.3887
16938SOL    HW163287   8.704   1.130   6.056  1.6395  2.5720  0.7130
16938SOL    HW263288   8.836   1.036   6.072 -0.7435 -0.9903  0.1084
16939SOL     OW63289   4.728   6.696   4.735 -0.0886 -0.1950  0.3240
16939SOL    HW163290   4.695   6.791   4.739  2.6163  0.8024 -0.2777
16939SOL    HW263291   4.809   6.687   4.792  2.6428 -0.8848 -3.4648
16940SOL     OW63292   3.416   0.037   1.942  0.3121 -0.0586  0.0878
16940SOL    HW163293   3.331  -0.009   1.914  1.1856 -0.3976 -2.1114
16940SOL    HW263294   3.415   0.131   1.909  0.7827 -0.0551  0.0848
16941SOL     OW63295   2.520   3.404   0.713  0.1343 -0.1408 -0.0924
16941SOL    HW163296   2.527   3.332   0.782 -0.4495  0.5416  0.6826
16941SOL    HW263297   2.432   3.451   0.722  1.1348  1.6844  0.4082
16942SOL     OW63298   6.032   7.674   5.490  0.1919 -0.0897  0.4880
16942SOL    HW163299   6.104   7.702   5.427  1.7021 -1.2178  1.6938
16942SOL    HW263300   6.016   7.576   5.481  0.4191 -0.2572  1.8563
16943SOL     OW63301   6.649   4.668   1.638  0.5774 -0.3196  0.1915
16943SOL    HW163302   6.590   4.716   1.703  0.8231 -0.7013  0.6878
16943SOL    HW263303   6.713   4.609   1.686  2.1363  0.9247 -0.2692
16944SOL     OW63304   3.716   5.169   7.237 -0.1315  0.5145 -0.0258
16944SOL    HW163305   3.768   5.240   7.188 -0.5607  0.5587 -0.4150
16944SOL    HW263306   3.642   5.212   7.288 -0.6755  0.3049 -0.6277
16945SOL     OW63307   6.984   8.326   2.311 -0.0264  0.7844  0.0036
16945SOL    HW163308   6.968   8.366   2.221 -1.5047 -1.2743 -0.6820
16945SOL    HW263309   7.058   8.260   2.306  0.2698  1.0747  0.4432
16946SOL     OW63310   8.551   3.176   8.404  0.5801 -0.3293 -0.6870
16946SOL    HW163311   8.633   3.229   8.427  0.9670 -0.4399 -1.7686
16946SOL    HW263312   8.569   3.121   8.322 -0.6249 -0.2326 -1.0237
16947SOL     OW63313   1.092   2.739   7.383  0.7864 -0.4188  0.4029
16947SOL    HW163314   0.993   2.750   7.375  1.0281  0.9863 -0.8817
16947SOL    HW263315   1.112   2.662   7.444 -1.0844 -0.5494  0.8925
16948SOL     OW63316   5.049   3.853   0.062 -0.0826 -0.8421  0.4247
16948SOL    HW163317   5.090   3.942   0.080 -0.1932  0.0479 -3.3091
16948SOL    HW263318   5.089   3.814  -0.021 -0.7316 -3.8570  1.4667
16949SOL     OW63319   7.963   3.492   7.998  0.1864 -0.0849 -0.1644
16949SOL    HW163320   8.062   3.478   8.006  0.2699  0.1168 -0.8353
16949SOL    HW263321   7.939   3.510   7.902 -0.5897 -0.8246 -0.1111
16950SOL     OW63322   2.704   5.239   1.086  0.4473  0.4769 -0.1464
16950SOL    HW163323   2.770   5.181   1.133  0.2756  0.0460 -0.4261
16950SOL    HW263324   2.659   5.300   1.151  1.8613  1.4885 -0.1205
16951SOL     OW63325   6.910   2.185   1.609 -0.2128  0.1662 -0.4202
16951SOL    HW163326   6.876   2.279   1.615 -1.1945 -0.2249  0.3163
16951SOL    HW263327   6.860   2.127   1.674  0.1913 -0.9231 -1.0611
16952SOL     OW63328   8.900   4.465   5.681  0.0643  0.8446 -0.2809
16952SOL    HW163329   8.836   4.430   5.750 -1.1237  3.5166  0.0282
16952SOL    HW263330   8.871   4.556   5.653  2.0348  0.8295 -2.4217
16953SOL     OW63331   8.416   5.538   2.486 -0.5778 -0.2559 -0.4983
16953SOL    HW163332   8.483   5.596   2.441  0.3263  1.3262  2.7297
16953SOL    HW263333   8.460   5.452   2.514  0.1122  0.6761  1.3912
16954SOL     OW63334   5.260   4.195   4.741  0.0562  0.3160  0.1184
16954SOL    HW163335   5.214   4.256   4.806  2.2946 -0.0663  2.1281
16954SOL    HW263336   5.352   4.174   4.775  1.0549 -0.3869 -2.8965
16955SOL     OW63337   0.670   7.129   0.257  0.1351  0.2554  0.6142
16955SOL    HW163338   0.662   7.035   0.222 -1.9750  0.3671  0.7684
16955SOL    HW263339   0.584   7.177   0.244  1.3198  2.3110  0.2212
16956SOL     OW63340   1.072   1.226   3.003  0.2303 -0.3245 -0.3638
16956SOL    HW163341   1.029   1.233   3.093 -2.0041 -1.2066 -1.3185
16956SOL    HW263342   1.134   1.147   3.002 -0.5565 -0.9550  0.0841
16957SOL     OW63343   3.545   4.828   4.198 -0.1085  0.2374  0.2714
16957SOL    HW163344   3.583   4.778   4.121 -2.5911  0.9902 -1.4952
16957SOL    HW263345   3.520   4.764   4.271 -0.5172 -0.7993 -0.7651
16958SOL     OW63346   1.331   4.929   1.483  0.4005 -0.5326  0.5623
16958SOL    HW163347   1.295   4.991   1.413  0.1892  1.0783  2.0707
16958SOL    HW263348   1.331   4.836   1.447 -5.4789 -0.6995  0.4852
16959SOL     OW63349   0.820   2.761   1.204  0.0757  0.0708  0.2576
16959SOL    HW163350   0.747   2.820   1.168  0.5417  0.5878  0.1487
16959SOL    HW263351   0.885   2.741   1.131  0.8860  0.9067  0.7353
16960SOL     OW63352   5.129   3.322   8.796  0.2180  0.3192  0.4280
16960SOL    HW163353   5.123   3.382   8.716  0.3753  1.8273  1.5232
16960SOL    HW263354   5.079   3.363   8.872 -1.5035 -2.0079  0.5840
16961SOL     OW63355   1.233   4.912   8.038 -0.5767  0.0985 -0.3536
16961SOL    HW163356   1.166   4.875   7.973 -1.0319  0.5024 -0.1143
16961SOL    HW263357   1.270   4.998   8.002 -0.8891  0.3649 -0.0489
16962SOL     OW63358   5.016   4.112   8.179 -1.2153  0.0555  0.7427
16962SOL    HW163359   5.083   4.174   8.138 -0.6543  0.1498  1.7741
16962SOL    HW263360   4.930   4.117   8.129 -0.6658  0.4580 -0.1681
16963SOL     OW63361   0.953   5.432   5.648 -0.2094  0.0286 -0.1446
16963SOL    HW163362   1.007   5.365   5.699  1.2511  0.6219 -0.8864
16963SOL    HW263363   0.915   5.388   5.567 -0.4577 -0.2668  0.1277
16964SOL     OW63364   2.233   0.457   2.133 -0.4086 -0.2555  0.2319
16964SOL    HW163365   2.165   0.418   2.196 -2.9649 -0.5483 -2.5746
16964SOL    HW263366   2.230   0.556   2.137  1.4421 -0.2702  2.5907
16965SOL     OW63367   7.562   1.026   2.718  0.5496 -0.0490  0.5743
16965SOL    HW163368   7.595   1.073   2.800 -0.6589 -0.1085  1.0967
16965SOL    HW263369   7.481   1.073   2.682 -0.6502 -1.6774  1.0815
16966SOL     OW63370   6.846   0.596   7.802 -0.5817  0.2310 -0.3009
16966SOL    HW163371   6.869   0.499   7.813 -0.0902  0.4468  0.6313
16966SOL    HW263372   6.895   0.633   7.723  0.4577  0.1060  0.2724
16967SOL     OW63373   1.684   8.545   3.366 -0.7491 -0.1810  0.5365
16967SOL    HW163374   1.730   8.619   3.318  0.2083 -0.2328  1.3386
16967SOL    HW263375   1.750   8.497   3.424 -1.7211 -0.5477  1.3663
16968SOL     OW63376   2.387   0.198   3.500  0.3039  0.2241 -0.3885
16968SOL    HW163377   2.369   0.294   3.522  0.7849  0.0328  0.8949
16968SOL    HW263378   2.309   0.142   3.526  0.6368  0.0735  0.2986
16969SOL     OW63379   8.450   4.751   7.841 -0.4999  0.1747  0.3443
16969SOL    HW163380   8.508   4.696   7.781  0.1197 -0.1371  1.2332
16969SOL    HW263381   8.454   4.847   7.812  0.9356  0.2536  0.7730
16970SOL     OW63382   8.863   2.574   3.348 -0.7160 -0.9343  0.4092
16970SOL    HW163383   8.823   2.491   3.309 -3.1507  0.4239 -0.0545
16970SOL    HW263384   8.816   2.597   3.433  2.2596 -1.9166  2.4371
16971SOL     OW63385   7.582   0.915   1.902 -0.0067  0.4465  0.1154
16971SOL    HW163386   7.626   0.868   1.979  1.4316 -0.3465 -1.1592
16971SOL    HW263387   7.625   1.004   1.888  0.2249  0.2822 -0.2256
16972SOL     OW63388   8.826   6.265   7.989  0.0184 -0.3981  0.5266
16972SOL    HW163389   8.840   6.265   8.088 -1.5532  1.2348  0.7715
16972SOL    HW263390   8.731   6.244   7.968  0.4118 -1.0879 -0.6776
16973SOL     OW63391   8.651   3.781   7.452  0.3649 -0.2280 -0.0776
16973SOL    HW163392   8.683   3.698   7.496  1.6286  1.1434  1.6958
16973SOL    HW263393   8.616   3.844   7.521 -0.8216  0.6081 -1.4151
16974SOL     OW63394   8.451   7.636   6.827 -0.2334 -0.7255  0.5118
16974SOL    HW163395   8.528   7.579   6.858  0.3310 -1.0809 -1.4926
16974SOL    HW263396   8.377   7.577   6.795  0.2847 -0.3440 -1.4086
16975SOL     OW63397   2.266   5.462   4.857  0.1361 -1.1096 -0.5346
16975SOL    HW163398   2.171   5.450   4.830 -0.0757  0.6314 -0.5573
16975SOL    HW263399   2.271   5.490   4.953  0.7053 -2.7602 -0.0593
16976SOL     OW63400   8.349   1.631   6.446  0.0389 -0.0105 -0.1296
16976SOL    HW163401   8.297   1.693   6.387 -0.3321 -0.1830  0.0105
16976SOL    HW263402   8.386   1.556   6.391 -0.0910 -0.0337 -0.1858
16977SOL     OW63403   4.627   4.069   1.576  0.4506  0.1966 -0.3565
16977SOL    HW163404   4.579   3.984   1.596 -0.5416  1.1083  1.2351
16977SOL    HW263405   4.724   4.058   1.595  0.7254 -1.2797 -2.4145
16978SOL     OW63406   4.317   4.284   5.126 -0.3745  0.5243  0.0704
16978SOL    HW163407   4.221   4.288   5.155 -0.6123 -1.7436 -0.3111
16978SOL    HW263408   4.322   4.290   5.026  0.0369  2.5970  0.2013
16979SOL     OW63409   0.824   2.642   1.832  0.4261  0.5710  0.0757
16979SOL    HW163410   0.840   2.692   1.747 -0.2890 -0.6277 -0.7953
16979SOL    HW263411   0.834   2.544   1.815 -1.8127  0.1734  0.8582
16980SOL     OW63412   2.412   5.700   6.842  0.1499  0.0481 -0.3757
16980SOL    HW163413   2.470   5.748   6.908  2.1136 -1.6853 -0.7761
16980SOL    HW263414   2.422   5.742   6.752  0.5377 -0.0178 -0.3667
16981SOL     OW63415   8.092   4.054   0.697 -0.0185 -0.3194 -0.5800
16981SOL    HW163416   8.136   4.139   0.669 -0.5120  0.6679  1.5254
16981SOL    HW263417   8.067   4.001   0.616 -1.1294  2.2693 -1.9955
16982SOL     OW63418   8.338   3.108   1.309  1.0088 -0.2141  0.3598
16982SOL    HW163419   8.404   3.166   1.356  2.7688 -2.9095  1.3660
16982SOL    HW263420   8.326   3.140   1.215  3.2820  0.7048  0.3423
16983SOL     OW63421   1.387   2.744   7.338  0.6292 -0.1206  0.4913
16983SOL    HW163422   1.291   2.717   7.336  0.5476  0.1885  0.2279
16983SOL    HW263423   1.397   2.828   7.392  0.7761 -0.2542  0.6718
16984SOL     OW63424   4.663   3.896   6.893 -0.5921 -0.1426 -0.5501
16984SOL    HW163425   4.568   3.912   6.865  0.0917 -1.0653 -3.5830
16984SOL    HW263426   4.722   3.961   6.847  0.3081  0.2248  1.0967
16985SOL     OW63427   1.486   0.594   8.726  0.0237  0.1580  0.2927
16985SOL    HW163428   1.465   0.640   8.639  1.3323  0.3952  0.0831
16985SOL    HW263429   1.523   0.661   8.790  1.0193 -0.4027  0.3213
16986SOL     OW63430   1.122   6.889   0.507  0.2129 -0.6937 -0.2086
16986SOL    HW163431   1.076   6.915   0.592  1.6566  1.1661  0.0337
16986SOL    HW263432   1.221   6.885   0.523  0.3740 -1.7214 -1.4550
16987SOL     OW63433   8.629   6.775   5.691  0.2075 -0.5012  0.0381
16987SOL    HW163434   8.585   6.858   5.656 -3.1412 -0.9342  2.8547
16987SOL    HW263435   8.627   6.704   5.621 -2.7784 -0.1672 -0.2864
16988SOL     OW63436   1.671   8.790   6.827  0.4105  0.0688 -0.8099
16988SOL    HW163437   1.722   8.851   6.767  1.7079  0.4859  0.7039
16988SOL    HW263438   1.627   8.843   6.899  0.0884 -0.5921 -0.5143
16989SOL     OW63439   3.090   4.547   7.164 -0.1249 -0.1538  0.2968
16989SOL    HW163440   3.034   4.628   7.149  0.2024 -0.0877 -0.6506
16989SOL    HW263441   3.149   4.532   7.084 -1.4560 -2.3262 -0.3249
16990SOL     OW63442   2.274   7.663   8.227  0.2267 -0.2476 -0.0724
16990SOL    HW163443   2.355   7.701   8.271  0.5416 -0.9530 -0.0282
16990SOL    HW263444   2.301   7.586   8.169 -0.2801  0.2057 -0.9197
16991SOL     OW63445   7.263   8.037   0.970  0.0053 -0.1523 -0.3666
16991SOL    HW163446   7.337   8.030   0.904  0.4045 -1.6035  0.2119
16991SOL    HW263447   7.265   7.957   1.031  0.0201  1.4389  1.7812
16992SOL     OW63448   5.313   4.718   1.895 -0.2617 -0.2198  0.6661
16992SOL    HW163449   5.267   4.749   1.813  3.5908  0.5753 -1.3160
16992SOL    HW263450   5.358   4.631   1.877  0.4198 -0.1538  1.9961
16993SOL     OW63451   2.414   8.021   7.536 -0.1670 -0.0089  0.0286
16993SOL    HW163452   2.456   8.040   7.625 -0.0751 -1.1603  0.2415
16993SOL    HW263453   2.316   8.040   7.541 -0.1424  0.0443  0.3476
16994SOL     OW63454   1.186   3.589   8.474 -0.0327 -0.4871 -0.6129
16994SOL    HW163455   1.213   3.593   8.571 -0.4522  1.3486 -0.5662
16994SOL    HW263456   1.265   3.610   8.417 -0.5064  1.4818 -0.5701
16995SOL     OW63457   8.452   7.684   8.254  0.5514 -0.3896 -0.3128
16995SOL    HW163458   8.500   7.598   8.269  1.5695  0.2359  0.0282
16995SOL    HW263459   8.461   7.742   8.334 -0.4674 -0.1112 -0.3893
16996SOL     OW63460   6.123   8.154   6.724 -0.1324 -0.2980 -0.1312
16996SOL    HW163461   6.114   8.057   6.701  0.3400 -0.2920 -0.3421
16996SOL    HW263462   6.109   8.167   6.822 -0.0359 -0.6007 -0.0781
16997SOL     OW63463   5.753   0.479   3.031  0.3417  0.3209 -0.2704
16997SOL    HW163464   5.703   0.566   3.034 -0.1030  0.1959 -2.6325
16997SOL    HW263465   5.849   0.496   3.008 -0.3304  0.0435 -3.4890
16998SOL     OW63466   1.553   5.723   8.789 -0.2296  0.0899 -0.1127
16998SOL    HW163467   1.649   5.701   8.770 -0.0330  0.1798  0.7303
16998SOL    HW263468   1.501   5.720   8.704  0.5160  0.0147 -0.5789
16999SOL     OW63469   6.606   8.261   4.985  0.4637 -0.1217 -0.1103
16999SOL    HW163470   6.704   8.262   4.964  0.3476  3.0622 -0.7015
16999SOL    HW263471   6.589   8.319   5.065 -1.1727  0.9037 -1.1885
17000SOL     OW63472   6.728   2.942   1.554 -0.0795 -0.4188 -0.2796
17000SOL    HW163473   6.751   3.019   1.614 -1.9622  0.2350 -0.3471
17000SOL    HW263474   6.775   2.954   1.466  1.7929 -0.7906  0.6532
17001SOL     OW63475   0.367   8.539   5.640  0.5599 -0.1450  0.0400
17001SOL    HW163476   0.276   8.497   5.644  0.3492  0.2833 -0.1945
17001SOL    HW263477   0.358   8.637   5.623  1.0872 -0.2265 -0.7407
17002SOL     OW63478   0.274   2.039   5.754 -0.5105  0.8982 -0.0229
17002SOL    HW163479   0.219   2.090   5.688  2.3461  2.6738 -1.1525
17002SOL    HW263480   0.309   1.956   5.712  0.3553  1.4428 -0.3942
17003SOL     OW63481   4.560   7.166   4.842  0.4792  0.0783  0.1655
17003SOL    HW163482   4.600   7.255   4.865 -0.4627  0.6303 -0.3144
17003SOL    HW263483   4.626   7.113   4.788  1.0789  0.4427  0.5338
17004SOL     OW63484   1.138   8.098   3.019 -0.5702  0.5794 -0.2151
17004SOL    HW163485   1.106   8.010   2.984 -1.0562 -0.1475  1.9226
17004SOL    HW263486   1.228   8.086   3.062  0.1827  1.5161 -1.4991
17005SOL     OW63487   1.367   7.464   6.761  0.1977  0.8091 -0.5573
17005SOL    HW163488   1.387   7.560   6.739 -0.8560  0.8619 -1.3393
17005SOL    HW263489   1.311   7.460   6.844 -0.4609  0.9198 -0.9950
17006SOL     OW63490   2.179   4.001   6.109  0.3217 -0.4594  0.1704
17006SOL    HW163491   2.129   3.933   6.055  0.5209  0.6330 -1.4322
17006SOL    HW263492   2.253   4.039   6.054  0.3598  0.8799  1.1233
17007SOL     OW63493   1.090   6.060   7.951  0.0153 -0.4214 -0.0118
17007SOL    HW163494   1.092   6.083   8.048 -0.3915  0.4651 -0.2029
17007SOL    HW263495   1.032   6.126   7.903  0.7068 -0.4912 -0.9515
17008SOL     OW63496   6.524   1.399   7.371 -0.1848 -0.0528 -0.0441
17008SOL    HW163497   6.472   1.395   7.456  1.6979 -0.6233  1.1042
17008SOL    HW263498   6.493   1.326   7.310 -0.7232 -0.3923  0.6249
17009SOL     OW63499   8.743   1.656   0.387  0.1088  0.1064  0.3175
17009SOL    HW163500   8.780   1.670   0.479 -0.7273  1.6029  0.4369
17009SOL    HW263501   8.814   1.616   0.328  0.9044 -0.0628  1.3791
17010SOL     OW63502   4.527   3.931   6.411 -0.2433 -0.2066 -0.2990
17010SOL    HW163503   4.462   3.950   6.484 -0.2890  0.4906 -0.5111
17010SOL    HW263504   4.620   3.932   6.448 -0.1968  1.0678 -0.4058
17011SOL     OW63505   5.740   7.579   4.796  0.0199  0.0559 -0.5210
17011SOL    HW163506   5.651   7.586   4.841 -0.1970  0.1643 -0.9635
17011SOL    HW263507   5.745   7.646   4.722  1.2742  1.5310  0.8545
17012SOL     OW63508   3.430   6.196   1.220 -0.1658  0.5101  0.2329
17012SOL    HW163509   3.482   6.196   1.305  2.0596  0.1558 -1.0749
17012SOL    HW263510   3.389   6.107   1.205 -0.8200  0.6685  1.0842
17013SOL     OW63511   1.174   2.577   7.572  0.2801  0.0311 -0.2756
17013SOL    HW163512   1.100   2.510   7.571  1.4618 -1.3079 -0.7587
17013SOL    HW263513   1.245   2.547   7.635  1.3838  0.1908 -1.4059
17014SOL     OW63514   1.089   4.813   0.942 -0.1373 -0.1299  0.1021
17014SOL    HW163515   1.063   4.867   1.023 -0.6904  0.3124 -0.3691
17014SOL    HW263516   1.094   4.717   0.967  1.5215  0.1943  1.1185
17015SOL     OW63517   4.076   4.719   3.743 -0.0349  0.4389  0.0318
17015SOL    HW163518   3.980   4.740   3.728  0.2512  1.3497 -0.6124
17015SOL    HW263519   4.131   4.803   3.730  0.8220 -0.0319  0.5388
17016SOL     OW63520   3.229   2.381   8.148  0.7183 -0.5706  0.0851
17016SOL    HW163521   3.288   2.371   8.068  0.3345  2.8903 -0.6989
17016SOL    HW263522   3.263   2.456   8.205 -1.5526 -0.1280  0.8831
17017SOL     OW63523   0.927   8.493   8.760 -0.3575  0.0602  0.0179
17017SOL    HW163524   0.911   8.567   8.695 -2.5468  0.2639  0.7741
17017SOL    HW263525   1.000   8.519   8.824  0.3500  0.6852 -1.0236
17018SOL     OW63526   0.920   3.929   6.858  0.5452  0.0183  0.7892
17018SOL    HW163527   0.909   3.832   6.880 -1.3719 -0.1027 -0.5418
17018SOL    HW263528   0.942   3.980   6.941 -0.9216 -1.1872  1.9380
17019SOL     OW63529   6.602   1.839   1.393  0.0672  0.1719  0.0498
17019SOL    HW163530   6.560   1.930   1.387 -0.0313  0.0375 -1.2809
17019SOL    HW263531   6.699   1.849   1.413  0.4179  0.6184 -1.8411
17020SOL     OW63532   0.100   2.590   0.460  0.2560 -0.2998 -0.9693
17020SOL    HW163533   0.027   2.554   0.403 -0.2769  1.2160 -1.2431
17020SOL    HW263534   0.185   2.540   0.441 -0.2617 -0.7824 -2.0171
17021SOL     OW63535   7.322   2.927   1.541  0.1662 -0.1707 -0.9811
17021SOL    HW163536   7.376   3.011   1.531 -2.2750  1.6258  0.3450
17021SOL    HW263537   7.371   2.862   1.598  0.8420  1.5503  0.4598
17022SOL     OW63538   4.209   6.779   6.764  0.7581  0.1080 -0.0292
17022SOL    HW163539   4.179   6.700   6.710  1.0641  0.8460 -1.3041
17022SOL    HW263540   4.271   6.749   6.836  3.9961 -0.4014 -2.9229
17023SOL     OW63541   8.669   7.093   0.930 -0.4008 -0.6735 -0.6062
17023SOL    HW163542   8.601   7.029   0.896 -1.3547 -0.3715  0.6838
17023SOL    HW263543   8.635   7.187   0.920 -1.0946 -0.6189  1.9813
17024SOL     OW63544   8.590   5.071   3.384 -0.3396  0.1766 -0.3307
17024SOL    HW163545   8.649   5.070   3.303 -0.5584 -1.8728 -0.5007
17024SOL    HW263546   8.647   5.080   3.466 -0.0811  1.7474 -0.6627
17025SOL     OW63547   7.062   5.595   0.977 -0.4244 -0.3977 -0.1868
17025SOL    HW163548   7.029   5.686   1.004  0.2231 -0.5594  1.2006
17025SOL    HW263549   7.098   5.599   0.884 -0.1610  0.8324 -0.0383
17026SOL     OW63550   2.225   7.219   8.414 -0.7666 -0.0651 -0.2767
17026SOL    HW163551   2.248   7.249   8.506 -1.0863  1.7556 -0.7736
17026SOL    HW263552   2.308   7.212   8.359 -0.2632 -3.4622  0.7547
17027SOL     OW63553   3.556   3.908   7.186  0.3396  0.4055 -0.1648
17027SOL    HW163554   3.515   3.829   7.140  2.9905 -0.3563 -1.2668
17027SOL    HW263555   3.490   3.984   7.187 -1.5854 -1.2204 -0.6634
17028SOL     OW63556   2.674   0.141   6.433  0.5144  0.2610  0.0097
17028SOL    HW163557   2.732   0.188   6.366  0.8140 -2.1115 -1.4887
17028SOL    HW263558   2.732   0.106   6.507  0.5330  0.7508  0.2276
17029SOL     OW63559   1.655   1.278   1.346  0.1990 -0.3515  0.2250
17029SOL    HW163560   1.672   1.179   1.347 -0.3286 -0.4501 -0.6563
17029SOL    HW263561   1.700   1.320   1.425 -1.2714 -1.5846  1.7797
17030SOL     OW63562   3.788   2.877   4.698  0.0384 -0.2721  0.7950
17030SOL    HW163563   3.840   2.875   4.783 -0.6680 -2.0260  1.1981
17030SOL    HW263564   3.716   2.808   4.700 -1.9270  1.6717 -0.0152
17031SOL     OW63565   2.181   3.511   5.179  0.2181  0.2852  0.2758
17031SOL    HW163566   2.226   3.552   5.258  0.8817 -1.2227  0.6850
17031SOL    HW263567   2.127   3.432   5.208 -0.7538  0.6246 -0.5661
17032SOL     OW63568   2.966   2.205   4.439 -0.1109 -0.5524 -0.2254
17032SOL    HW163569   2.915   2.231   4.357  0.1026 -1.6208 -0.7020
17032SOL    HW263570   3.035   2.136   4.416  0.9763  0.2395  0.5719
17033SOL     OW63571   2.213   1.610   2.631 -0.3995 -0.0209 -0.3476
17033SOL    HW163572   2.214   1.575   2.537  2.5735 -1.7571  0.2808
17033SOL    HW263573   2.304   1.603   2.670 -1.0864  2.9207  1.8972
17034SOL     OW63574   1.401   6.912   0.893 -0.1119  0.1454  0.1715
17034SOL    HW163575   1.469   6.848   0.858 -0.0838  0.0345  0.4238
17034SOL    HW263576   1.331   6.861   0.944 -0.5539  0.2253 -0.3571
17035SOL     OW63577   5.593   2.573   5.151  0.4859  0.1966  0.4500
17035SOL    HW163578   5.668   2.518   5.187  0.9061  1.5591  1.6741
17035SOL    HW263579   5.608   2.670   5.172 -0.7285  0.6917 -0.8290
17036SOL     OW63580   7.572   3.698   4.346  0.0505  0.4300 -0.1006
17036SOL    HW163581   7.572   3.632   4.420  0.2288 -1.6879 -1.9267
17036SOL    HW263582   7.642   3.767   4.362 -1.6609  1.5225  2.9721
17037SOL     OW63583   2.421   5.686   0.690 -0.2199  0.1303  0.2124
17037SOL    HW163584   2.449   5.716   0.599  0.1124 -0.0501  0.2552
17037SOL    HW263585   2.451   5.753   0.759  0.8770 -0.4954  0.3509
17038SOL     OW63586   8.633   2.524   5.826  0.3803 -0.2941 -0.3181
17038SOL    HW163587   8.726   2.549   5.800  0.5987 -1.4358 -0.6505
17038SOL    HW263588   8.636   2.453   5.897 -0.2354  0.0638  0.0697
17039SOL     OW63589   0.671   8.696   6.494 -0.4753  0.1559 -0.3213
17039SOL    HW163590   0.602   8.635   6.455 -0.1451  0.3071 -1.1369
17039SOL    HW263591   0.649   8.713   6.590 -0.8256 -0.8785 -0.2096
17040SOL     OW63592   7.636   7.545   4.822 -0.3323 -0.1996 -0.3835
17040SOL    HW163593   7.575   7.599   4.880  0.7571 -0.3218  0.8917
17040SOL    HW263594   7.615   7.448   4.834  0.9717 -0.3257  1.0863
17041SOL     OW63595   3.849   6.609   3.857 -0.5382  0.2988  0.1187
17041SOL    HW163596   3.930   6.589   3.801 -1.6732 -2.1712 -0.7316
17041SOL    HW263597   3.766   6.587   3.805 -1.7015  1.0005  1.6364
17042SOL     OW63598   2.940   8.996   7.178 -0.4830 -0.0970  0.4159
17042SOL    HW163599   2.975   8.979   7.085 -2.5928 -1.1367 -0.2246
17042SOL    HW263600   2.843   8.972   7.182 -1.4098  3.5641  1.9105
17043SOL     OW63601   7.078   3.152   6.903 -0.2675  0.7236  0.2563
17043SOL    HW163602   6.995   3.099   6.924 -1.0021  0.4954 -2.9229
17043SOL    HW263603   7.074   3.182   6.808  2.3729  2.4987  0.6745
17044SOL     OW63604   0.043   4.864   6.284  0.4199 -0.4469 -0.4854
17044SOL    HW163605  -0.037   4.851   6.342  0.2052  0.6870 -0.5092
17044SOL    HW263606   0.015   4.868   6.188  0.3768  0.8105 -0.4374
17045SOL     OW63607   6.372   7.905   0.034 -0.2558  0.2079  0.1747
17045SOL    HW163608   6.453   7.930  -0.020  0.1752 -2.2627 -0.4288
17045SOL    HW263609   6.402   7.859   0.118 -0.9688  2.6154  1.7861
17046SOL     OW63610   8.172   2.890   6.739  0.1297  0.0452  0.2537
17046SOL    HW163611   8.086   2.840   6.755 -0.5452  1.2269  0.3695
17046SOL    HW263612   8.227   2.889   6.823  0.2645 -0.7697  0.1609
17047SOL     OW63613   4.661   4.705   5.700 -0.1428  0.0613  0.8496
17047SOL    HW163614   4.638   4.610   5.720 -0.4216 -0.4561 -1.7987
17047SOL    HW263615   4.748   4.727   5.743 -0.5386 -1.0898  2.2915
17048SOL     OW63616   4.327   2.717   7.644  0.0485  0.1254 -0.1115
17048SOL    HW163617   4.292   2.800   7.687  0.4698  0.9556 -1.3483
17048SOL    HW263618   4.413   2.691   7.687 -1.7564 -1.6318  2.5951
17049SOL     OW63619   2.881   1.254   0.731 -0.3144  0.4303  0.1615
17049SOL    HW163620   2.927   1.260   0.820  1.3526  2.2544 -0.7866
17049SOL    HW263621   2.786   1.225   0.745  0.2265 -0.4029  2.4266
17050SOL     OW63622   8.218   3.160   0.642 -0.0276 -0.5211  0.4432
17050SOL    HW163623   8.124   3.172   0.612 -0.0266  0.6264  0.8929
17050SOL    HW263624   8.254   3.074   0.604 -0.5547  0.0798 -1.4777
17051SOL     OW63625   5.037   0.701   7.647  0.6959  0.0190 -0.0197
17051SOL    HW163626   4.946   0.663   7.632  0.6442  0.6686 -1.3618
17051SOL    HW263627   5.101   0.627   7.665 -0.4895 -0.3190  3.1304
17052SOL     OW63628   6.921   8.307   1.349 -0.1494 -0.4981 -0.2805
17052SOL    HW163629   6.857   8.312   1.272 -0.1585 -0.9012 -0.3043
17052SOL    HW263630   6.974   8.391   1.354  1.2605 -1.2298 -1.9672
17053SOL     OW63631   6.975   8.641   0.986 -0.2552  0.0842  0.0065
17053SOL    HW163632   6.941   8.613   0.897  0.4142 -0.6025 -0.0453
17053SOL    HW263633   6.899   8.646   1.051 -0.3365 -2.4116  0.1513
17054SOL     OW63634   6.339   3.031   7.365  0.0291 -0.0129 -0.1197
17054SOL    HW163635   6.418   2.972   7.384 -0.5275 -0.2312  1.5855
17054SOL    HW263636   6.363   3.096   7.293  1.5295 -0.5552 -0.1304
17055SOL     OW63637   8.743   6.787   1.018 -0.3710 -0.3712  0.1798
17055SOL    HW163638   8.810   6.786   1.093 -0.4487  0.0272  0.2547
17055SOL    HW263639   8.718   6.881   0.997 -0.5803 -0.4995 -0.1444
17056SOL     OW63640   6.822   6.847   4.848  0.0869 -0.0124  0.6125
17056SOL    HW163641   6.903   6.834   4.790 -0.0386 -0.6869  0.5832
17056SOL    HW263642   6.835   6.927   4.906 -0.1912  1.2649 -1.0368
17057SOL     OW63643   3.135   3.295   6.484 -0.0745 -0.1250  0.5532
17057SOL    HW163644   3.214   3.235   6.497  0.0146  0.0515  0.8299
17057SOL    HW263645   3.058   3.242   6.450  0.3272 -0.2007 -0.2419
17058SOL     OW63646   7.268   3.534   0.686  0.1457 -0.3482  0.2734
17058SOL    HW163647   7.345   3.593   0.709 -0.3928  0.5174 -0.1534
17058SOL    HW263648   7.242   3.548   0.591 -2.7240  1.8597  1.3417
17059SOL     OW63649   8.710   2.067   4.195 -0.2446 -0.1568  0.3692
17059SOL    HW163650   8.784   2.070   4.262 -0.3349  2.0549  0.3999
17059SOL    HW263651   8.728   2.134   4.123 -1.3643 -0.8335 -0.5653
17060SOL     OW63652   5.167   7.044   0.260  0.0814 -0.1316 -0.1449
17060SOL    HW163653   5.082   7.008   0.222  0.6783 -0.2614 -1.4060
17060SOL    HW263654   5.147   7.101   0.340 -1.1288 -0.6615 -0.0627
17061SOL     OW63655   3.043   3.176   3.019  0.2243 -0.3124  0.3740
17061SOL    HW163656   2.986   3.168   3.101 -0.0513  1.7283  0.4159
17061SOL    HW263657   2.999   3.128   2.943  0.3229 -1.9401  1.3392
17062SOL     OW63658   6.297   4.219   1.221 -0.8487 -0.6531 -0.0476
17062SOL    HW163659   6.356   4.180   1.291  1.2838  1.3043 -0.6751
17062SOL    HW263660   6.219   4.265   1.264  0.7196  0.9976  1.1106
17063SOL     OW63661   2.494   2.758   6.282  0.2619 -0.6471 -0.7418
17063SOL    HW163662   2.396   2.774   6.296  0.3501 -0.9938  0.2681
17063SOL    HW263663   2.546   2.818   6.342  0.6426 -2.0513  0.3504
17064SOL     OW63664   8.986   8.635   1.154 -0.0901 -0.1381 -0.0525
17064SOL    HW163665   8.925   8.713   1.152  3.0158  2.3852 -0.1309
17064SOL    HW263666   8.994   8.596   1.062 -1.1119 -0.1486 -0.1413
17065SOL     OW63667   5.836   4.140   5.218  0.1917  0.1370 -0.2249
17065SOL    HW163668   5.807   4.049   5.246 -1.3491  1.0009  1.0933
17065SOL    HW263669   5.769   4.178   5.154  1.1344  0.1241 -1.2314
17066SOL     OW63670   7.503   8.221   0.871 -0.4799 -0.2106  0.2320
17066SOL    HW163671   7.546   8.152   0.930  0.1124  1.5400  1.9178
17066SOL    HW263672   7.550   8.308   0.883 -2.0881  0.8196 -0.8294
17067SOL     OW63673   8.152   1.788   2.343  0.2520 -0.1356 -0.2604
17067SOL    HW163674   8.214   1.720   2.383  0.8901  0.4335 -0.2676
17067SOL    HW263675   8.098   1.831   2.415 -0.2714 -0.7602 -0.2732
17068SOL     OW63676   5.378   1.624   1.656  0.0870  0.0006 -0.4799
17068SOL    HW163677   5.473   1.594   1.656 -0.0098 -0.3409  0.3825
17068SOL    HW263678   5.333   1.591   1.573  0.5953 -0.2535 -0.6595
17069SOL     OW63679   4.787   6.524   6.281 -0.3553  0.1403  0.2725
17069SOL    HW163680   4.706   6.562   6.325 -1.3597 -1.5894 -0.0405
17069SOL    HW263681   4.849   6.487   6.350  1.1896  3.2875  0.6819
17070SOL     OW63682   0.036   2.260   5.003 -0.0453 -0.2440 -0.2133
17070SOL    HW163683   0.009   2.183   4.945 -0.8683  0.4319 -0.7204
17070SOL    HW263684   0.080   2.330   4.948  0.8468 -0.4144  0.2777
17071SOL     OW63685   0.275   1.536   5.693 -0.2323  0.1835 -0.0358
17071SOL    HW163686   0.211   1.478   5.643  0.5661  0.4366 -1.3612
17071SOL    HW263687   0.249   1.538   5.790 -1.5563 -0.6169 -0.3596
17072SOL     OW63688   6.568   1.839   7.059 -0.2303 -0.2604 -0.5203
17072SOL    HW163689   6.597   1.780   7.134 -0.1846 -0.5156 -0.7397
17072SOL    HW263690   6.640   1.905   7.039 -0.9336  0.9365  0.8160
17073SOL     OW63691   4.925   0.194   4.777 -0.1175  0.4331  0.2846
17073SOL    HW163692   4.972   0.106   4.786 -0.0035  0.5669  1.0100
17073SOL    HW263693   4.831   0.178   4.746  0.1879  0.1205 -0.4900
17074SOL     OW63694   7.965   0.434   5.903 -0.1555  0.1540 -0.4331
17074SOL    HW163695   7.899   0.372   5.861 -0.3753 -0.8485  1.3384
17074SOL    HW263696   7.919   0.488   5.973  0.9401 -0.7415  1.0075
17075SOL     OW63697   0.975   1.846   4.777 -0.3627  0.5345 -0.2323
17075SOL    HW163698   1.050   1.827   4.841 -0.6152 -0.3040 -0.1829
17075SOL    HW263699   0.949   1.762   4.730 -1.1257  0.8728 -0.4174
17076SOL     OW63700   8.868   0.148   2.721 -0.1910  0.3650  0.2416
17076SOL    HW163701   8.959   0.107   2.725 -0.0960  0.5610  0.0965
17076SOL    HW263702   8.831   0.153   2.814 -0.2402 -0.1239  0.2508
17077SOL     OW63703   6.429   6.732   0.304 -0.4979  0.2135 -0.0667
17077SOL    HW163704   6.469   6.812   0.259 -0.7102  0.6270  0.4691
17077SOL    HW263705   6.500   6.685   0.356 -0.4993  0.3946  0.0996
17078SOL     OW63706   1.786   8.474   8.999  0.1030  0.0762 -0.3479
17078SOL    HW163707   1.750   8.423   8.921 -2.4239 -0.2045  0.9716
17078SOL    HW263708   1.810   8.411   9.072  0.5370  0.5153 -0.1049
17079SOL     OW63709   6.261   1.936   8.455  0.1579  1.1758  0.7183
17079SOL    HW163710   6.309   2.020   8.480 -2.0059  3.5645 -2.6882
17079SOL    HW263711   6.312   1.889   8.383 -0.5111  1.5238  0.0174
17080SOL     OW63712   6.770   6.884   5.393 -0.4280 -0.2261  0.0312
17080SOL    HW163713   6.841   6.947   5.359 -0.8229  0.3044  0.1813
17080SOL    HW263714   6.764   6.805   5.332  0.0372 -0.0917 -0.1917
17081SOL     OW63715   3.531   3.478   6.065 -0.0263  0.1692 -0.2302
17081SOL    HW163716   3.498   3.445   5.977 -1.5184  1.7279 -0.2997
17081SOL    HW263717   3.454   3.518   6.116  1.0572  0.4338  1.2357
17082SOL     OW63718   2.294   7.152   0.459  0.2398  0.0650 -0.2912
17082SOL    HW163719   2.238   7.134   0.540  1.2046 -2.0621 -0.0689
17082SOL    HW263720   2.288   7.249   0.436 -3.4308 -0.0803 -0.2058
17083SOL     OW63721   7.016   2.549   1.180  0.2173  0.1368 -0.2507
17083SOL    HW163722   6.988   2.642   1.203  2.5610  1.0134 -0.8305
17083SOL    HW263723   7.035   2.497   1.264 -0.4662  0.3674  0.0483
17084SOL     OW63724   7.238   5.338   7.947 -0.4116  0.2072  0.0146
17084SOL    HW163725   7.263   5.258   8.002 -0.7626 -0.1670 -0.3685
17084SOL    HW263726   7.238   5.312   7.850  3.0171  1.5558 -0.4258
17085SOL     OW63727   1.209   0.544   0.268 -0.0911  0.0173  0.5223
17085SOL    HW163728   1.176   0.454   0.297 -0.5840 -0.5485 -1.7407
17085SOL    HW263729   1.132   0.608   0.266 -0.2429 -0.1891 -0.4474
17086SOL     OW63730   4.751   6.164   2.402 -0.0819  0.3734 -0.4436
17086SOL    HW163731   4.653   6.165   2.381  0.0257  3.4278 -0.9578
17086SOL    HW263732   4.793   6.249   2.372  2.7424 -0.8410 -0.1110
17087SOL     OW63733   1.494   2.005   8.976 -0.0675  0.4784  0.0430
17087SOL    HW163734   1.585   1.973   8.948  0.2141  1.2015  0.1235
17087SOL    HW263735   1.425   1.968   8.915  0.1219 -1.2894  0.8508
17088SOL     OW63736   6.082   1.214   2.305  0.0047 -0.5291 -0.1940
17088SOL    HW163737   5.992   1.244   2.276 -0.6465 -1.9523  0.3140
17088SOL    HW263738   6.140   1.200   2.224 -0.3330  0.0613 -0.5368
17089SOL     OW63739   7.844   2.035   2.757 -0.0524 -0.1497  0.2347
17089SOL    HW163740   7.879   1.953   2.713 -0.8926 -1.1650  1.4094
17089SOL    HW263741   7.893   2.115   2.723 -0.1070 -0.9803 -1.8914
17090SOL     OW63742   6.998   6.550   4.132  0.0735 -0.3053 -0.3167
17090SOL    HW163743   6.908   6.514   4.107 -0.2112  0.1368  0.0529
17090SOL    HW263744   6.994   6.650   4.135  0.5632 -0.2858 -0.2443
17091SOL     OW63745   8.326   3.863   7.373  0.6077 -0.5597 -0.6013
17091SOL    HW163746   8.276   3.944   7.404 -0.5678 -1.0459 -1.1818
17091SOL    HW263747   8.324   3.794   7.445 -1.2910 -1.3213 -1.3321
17092SOL     OW63748   0.012   0.683   7.396 -0.5746 -0.6841 -0.2858
17092SOL    HW163749   0.041   0.604   7.450 -1.1068 -0.0838  0.8841
17092SOL    HW263750  -0.048   0.741   7.450 -0.4233  0.3829 -1.2336
17093SOL     OW63751   7.771   2.278   8.979 -0.5337 -1.1185 -0.1385
17093SOL    HW163752   7.747   2.364   8.936  0.2646 -1.3371 -1.0223
17093SOL    HW263753   7.743   2.280   9.075  3.5366  1.9149  1.1302
17094SOL     OW63754   3.515   5.568   0.038 -0.4824 -0.1415 -0.6255
17094SOL    HW163755   3.512   5.481   0.087  0.1158  0.6021  0.7613
17094SOL    HW263756   3.459   5.636   0.086 -0.1115  0.5253 -1.1168
17095SOL     OW63757   2.197   4.923   8.973  0.1919  0.0371  0.3526
17095SOL    HW163758   2.279   4.933   9.030 -0.7971  0.8310  1.6833
17095SOL    HW263759   2.217   4.866   8.894  2.0775  0.3753  0.5730
17096SOL     OW63760   7.400   7.019   7.723  0.0725  0.0228 -0.2290
17096SOL    HW163761   7.494   7.054   7.725 -0.6164  1.8936 -0.3840
17096SOL    HW263762   7.368   7.013   7.629  0.6784 -2.4477 -0.3231
17097SOL     OW63763   5.373   3.325   6.037 -0.4299  0.1080 -0.2797
17097SOL    HW163764   5.433   3.248   6.016  2.0638  1.6558  1.0185
17097SOL    HW263765   5.371   3.340   6.135  0.0447  2.4497 -0.6123
17098SOL     OW63766   2.401   5.651   1.665  0.5501  0.1963 -0.4191
17098SOL    HW163767   2.306   5.659   1.697  1.1344  0.5352  1.3133
17098SOL    HW263768   2.437   5.742   1.647  0.8841  0.1458 -0.0189
17099SOL     OW63769   1.867   5.233   5.296  0.0139  0.4296  0.1857
17099SOL    HW163770   1.830   5.170   5.227  1.9512  0.7920 -1.2282
17099SOL    HW263771   1.822   5.216   5.384 -1.9966 -0.5319 -0.9824
17100SOL     OW63772   7.772   5.382   4.940 -0.6804  0.4145  0.1809
17100SOL    HW163773   7.760   5.441   5.020  2.7661  1.5170 -0.0284
17100SOL    HW263774   7.824   5.431   4.870 -0.2105 -1.9153 -1.1560
17101SOL     OW63775   6.509   2.355   1.316  0.3135  0.6347  0.4562
17101SOL    HW163776   6.414   2.376   1.295  0.3975 -0.7137 -1.4382
17101SOL    HW263777   6.518   2.257   1.337  1.4808  0.4213 -0.8797
17102SOL     OW63778   3.456   3.133   7.062  0.1030 -0.2126 -0.4631
17102SOL    HW163779   3.510   3.051   7.042 -0.3755 -0.6442  0.0086
17102SOL    HW263780   3.488   3.208   7.005  1.2605 -0.4398 -0.1276
17103SOL     OW63781   0.711   0.679   3.232  0.0407 -0.0782  0.4321
17103SOL    HW163782   0.657   0.721   3.159 -1.7553 -3.1771 -0.1220
17103SOL    HW263783   0.805   0.668   3.201  0.2722  2.4097  0.1705
17104SOL     OW63784   6.748   7.972   6.347 -0.2934 -0.2783  0.4382
17104SOL    HW163785   6.661   7.987   6.393 -0.8616  1.1599 -1.0463
17104SOL    HW263786   6.822   8.010   6.403 -0.9185  0.9905  0.4314
17105SOL     OW63787   8.113   2.950   1.274 -0.6119 -0.0352  0.4094
17105SOL    HW163788   8.188   3.015   1.285  0.4721 -1.3093  0.7141
17105SOL    HW263789   8.038   2.975   1.336 -0.3807  1.1262  0.2420
17106SOL     OW63790   3.601   2.635   4.066  0.6753  0.5890 -0.0237
17106SOL    HW163791   3.578   2.595   3.977  0.3287  0.1596  0.2518
17106SOL    HW263792   3.656   2.570   4.118  3.0164  1.8387 -0.8887
17107SOL     OW63793   7.280   3.987   4.278 -0.1446 -0.3223  0.1836
17107SOL    HW163794   7.219   3.908   4.286  0.0525 -0.5962 -0.8930
17107SOL    HW263795   7.359   3.963   4.222 -0.1685  0.6798 -0.2983
17108SOL     OW63796   1.812   0.013   7.845  0.0232  0.4690 -0.0615
17108SOL    HW163797   1.836  -0.072   7.892 -1.3978  0.3139  0.4036
17108SOL    HW263798   1.755   0.069   7.904  1.0690  1.8256 -0.3177
17109SOL     OW63799   2.422   4.367   0.763 -0.1534 -1.1333 -0.1079
17109SOL    HW163800   2.391   4.462   0.756  0.4994 -0.6751  2.6311
17109SOL    HW263801   2.494   4.350   0.696  0.9412  0.8230  0.5413
17110SOL     OW63802   0.439   1.106   0.212 -0.4925  0.0318 -0.4050
17110SOL    HW163803   0.364   1.051   0.173 -0.0075 -1.4717  0.7121
17110SOL    HW263804   0.412   1.202   0.213 -1.5455 -0.2177 -2.0118
17111SOL     OW63805   2.981   5.820   1.333  0.4266  0.9337  0.1122
17111SOL    HW163806   2.999   5.857   1.242 -0.0341  1.6783  0.3207
17111SOL    HW263807   3.061   5.769   1.365  0.2674 -0.0848 -1.0724
17112SOL     OW63808   4.724   2.990   4.236  0.4846  0.6332  0.2815
17112SOL    HW163809   4.674   2.912   4.199  2.2692 -0.0347 -0.7515
17112SOL    HW263810   4.819   2.987   4.206  1.4599  1.2814  3.1399
17113SOL     OW63811   1.043   6.357   6.677 -0.3378  0.4128  0.2393
17113SOL    HW163812   1.004   6.372   6.768  1.5866  2.0656  0.8503
17113SOL    HW263813   1.140   6.380   6.679  0.0730 -1.0167 -1.8820
17114SOL     OW63814   6.633   3.506   7.672 -0.3238  0.7385 -0.3287
17114SOL    HW163815   6.612   3.575   7.741 -2.6261 -1.6502  1.4560
17114SOL    HW263816   6.693   3.436   7.712 -0.8315 -0.1269 -1.0488
17115SOL     OW63817   8.428   2.934   2.246 -0.4041  0.0240  0.2834
17115SOL    HW163818   8.381   2.978   2.169 -0.4757  0.6265  0.6633
17115SOL    HW263819   8.370   2.940   2.328 -1.2180 -2.4227 -0.0842
17116SOL     OW63820   4.906   7.065   2.055  0.1887 -0.0394 -0.4782
17116SOL    HW163821   4.863   7.043   1.967  1.5999  1.5000 -1.5795
17116SOL    HW263822   4.843   7.121   2.109 -0.7909 -1.2101 -0.3676
17117SOL     OW63823   7.734   6.110   8.640 -0.2149 -0.2063 -0.2719
17117SOL    HW163824   7.710   6.198   8.599  0.4193  0.6514  1.1846
17117SOL    HW263825   7.820   6.119   8.690 -0.4638 -1.5052  0.3973
17118SOL     OW63826   0.082   3.546   4.054  0.6761 -0.4869  0.0977
17118SOL    HW163827   0.132   3.479   4.109  1.7727 -0.3377 -0.6787
17118SOL    HW263828   0.084   3.517   3.958 -1.3658 -0.8461  0.1465
17119SOL     OW63829   1.569   6.149   0.415 -0.0391 -0.5380  0.5192
17119SOL    HW163830   1.618   6.147   0.502  1.8373 -1.3115 -0.5330
17119SOL    HW263831   1.545   6.244   0.392 -0.2536 -0.3034  1.7178
17120SOL     OW63832   7.489   1.898   0.914  0.5553 -0.6658  0.3044
17120SOL    HW163833   7.486   1.987   0.869  1.5767 -0.7111  0.1320
17120SOL    HW263834   7.425   1.835   0.869  0.4478 -0.2645 -0.1070
17121SOL     OW63835   6.463   8.745   6.140  0.1218 -0.3692  0.8308
17121SOL    HW163836   6.394   8.726   6.070  0.8003  0.9473 -0.2057
17121SOL    HW263837   6.423   8.799   6.213 -0.4064 -1.1528  1.1317
17122SOL     OW63838   1.903   0.761   2.094  0.9002  0.0541  0.2447
17122SOL    HW163839   1.816   0.769   2.143  0.5690 -1.4937 -0.0609
17122SOL    HW263840   1.918   0.843   2.038 -1.0618 -0.2716 -0.8111
17123SOL     OW63841   1.559   4.968   8.004  0.0367  0.3446 -0.2482
17123SOL    HW163842   1.563   4.880   7.957  0.1590  0.5083 -0.5455
17123SOL    HW263843   1.533   4.953   8.099 -0.8577  0.0708 -0.5285
17124SOL     OW63844   7.319   7.152   6.987  0.6551  0.0854 -0.8269
17124SOL    HW163845   7.400   7.209   6.969 -0.0365  1.7470  1.2070
17124SOL    HW263846   7.253   7.166   6.913  1.5584 -0.0512 -1.6753
17125SOL     OW63847   3.475   1.377   4.139 -0.6002 -0.4942 -0.2459
17125SOL    HW163848   3.524   1.390   4.225 -0.3216 -1.2261 -0.2870
17125SOL    HW263849   3.537   1.340   4.070 -0.8163  0.1093 -0.7692
17126SOL     OW63850   8.513   2.629   7.085 -0.4246 -0.0486  0.0339
17126SOL    HW163851   8.612   2.625   7.101 -0.5614 -2.0625  0.4197
17126SOL    HW263852   8.466   2.576   7.155 -1.7216  0.0168 -0.7784
17127SOL     OW63853   8.981   6.596   7.640  0.1950 -0.6636  0.4074
17127SOL    HW163854   8.913   6.564   7.574  0.3374 -2.3106  1.0300
17127SOL    HW263855   9.064   6.623   7.591 -1.6239  3.5605 -0.5780
17128SOL     OW63856   8.090   5.929   7.033  0.5125  0.3243 -0.1738
17128SOL    HW163857   8.110   5.834   7.009 -1.2579 -0.0140 -0.3371
17128SOL    HW263858   7.995   5.937   7.063  0.6566  2.0397 -0.1310
17129SOL     OW63859   5.567   2.412   4.312  0.4824 -0.6756 -0.0306
17129SOL    HW163860   5.555   2.365   4.399 -0.0113  1.1976  0.9519
17129SOL    HW263861   5.593   2.507   4.329 -0.6811  0.0141 -1.9122
17130SOL     OW63862   2.127   3.925   0.149 -0.1600  0.4143  0.4289
17130SOL    HW163863   2.211   3.882   0.118 -0.7614 -0.4065 -0.0615
17130SOL    HW263864   2.074   3.861   0.204  0.0073  1.2539  1.5986
17131SOL     OW63865   1.453   5.800   7.927  0.5484 -0.0118  0.4540
17131SOL    HW163866   1.444   5.899   7.917 -0.5712 -0.2348 -0.7961
17131SOL    HW263867   1.468   5.758   7.837 -0.4709 -1.1278  0.7933
17132SOL     OW63868   6.408   5.985   7.190 -0.1347 -0.2574 -0.2617
17132SOL    HW163869   6.501   6.022   7.181 -0.4296  0.6356  0.3178
17132SOL    HW263870   6.343   6.050   7.150 -0.7354  0.2582  1.5237
17133SOL     OW63871   3.252   6.366   7.238  0.6740  0.2117 -0.6425
17133SOL    HW163872   3.217   6.443   7.291  1.6331 -0.7721  1.4489
17133SOL    HW263873   3.206   6.364   7.148 -3.3380  0.0316  1.2800
17134SOL     OW63874   3.376   3.678   0.934  0.0974  0.8080  0.3677
17134SOL    HW163875   3.416   3.630   0.855  1.6500  0.9338  1.0552
17134SOL    HW263876   3.381   3.618   1.014  0.0725  1.3213  0.7515
17135SOL     OW63877   5.162   7.895   2.409 -0.1962  0.3072  0.0946
17135SOL    HW163878   5.189   7.973   2.353  1.8323 -0.3053  0.1627
17135SOL    HW263879   5.230   7.822   2.399 -0.7273 -0.4796  1.9635
17136SOL     OW63880   5.868   3.445   5.284  0.1579  1.0219 -0.2413
17136SOL    HW163881   5.909   3.359   5.255  0.3582  0.5919  1.2983
17136SOL    HW263882   5.875   3.512   5.209 -1.0331 -0.6271 -1.8780
17137SOL     OW63883   3.221   4.311   3.431  0.0556 -0.1382  0.3116
17137SOL    HW163884   3.216   4.239   3.362 -0.0657  2.1573 -2.1798
17137SOL    HW263885   3.130   4.347   3.449  0.1520 -0.3689  1.3037
17138SOL     OW63886   2.425   5.151   5.642 -0.2180  0.3795  0.0327
17138SOL    HW163887   2.477   5.231   5.611  2.2668 -1.6340 -1.1099
17138SOL    HW263888   2.446   5.133   5.738  0.0142  0.4960  0.0036
17139SOL     OW63889   3.794   7.131   7.554  0.1829  0.0284  0.2320
17139SOL    HW163890   3.817   7.037   7.581  0.4389 -0.2963 -1.0740
17139SOL    HW263891   3.876   7.177   7.520 -0.0808  0.5103  0.2419
17140SOL     OW63892   7.568   7.509   3.828  0.3409  0.3893  0.1238
17140SOL    HW163893   7.489   7.560   3.863 -1.7490 -2.6500  0.0236
17140SOL    HW263894   7.537   7.424   3.787  3.6423 -0.4599 -0.7457
17141SOL     OW63895   6.403   8.018   8.109 -0.1211  0.1753  0.2328
17141SOL    HW163896   6.457   7.939   8.078  0.2914  0.4682  0.2029
17141SOL    HW263897   6.311   7.987   8.134 -0.9087  0.1297 -2.5391
17142SOL     OW63898   4.355   7.778   5.410 -0.4318  0.2540  1.2568
17142SOL    HW163899   4.319   7.833   5.335 -2.7117 -1.8760  0.7035
17142SOL    HW263900   4.289   7.706   5.433  2.2552 -1.9862  2.1934
17143SOL     OW63901   6.232   4.466   3.075  0.1021  0.5874  0.6379
17143SOL    HW163902   6.270   4.377   3.053  1.4190  1.0691  0.8940
17143SOL    HW263903   6.267   4.496   3.164  1.0347  2.1075 -0.2130
17144SOL     OW63904   4.039   7.201   7.964  0.0823  0.4150 -0.2588
17144SOL    HW163905   3.999   7.114   7.934  0.1102  0.1347  0.4999
17144SOL    HW263906   4.137   7.187   7.981 -0.2996  0.1085  1.7533
17145SOL     OW63907   3.290   6.516   0.340 -0.9232 -0.4616  0.2455
17145SOL    HW163908   3.349   6.584   0.383  0.9206 -0.3558 -2.2812
17145SOL    HW263909   3.335   6.426   0.344 -1.3206 -0.6860 -0.2899
17146SOL     OW63910   1.118   5.416   1.183 -0.1639 -0.3038 -0.0656
17146SOL    HW163911   1.126   5.322   1.214 -0.4423 -0.5024 -0.5903
17146SOL    HW263912   1.158   5.425   1.092 -1.3622 -0.2196 -0.5970
17147SOL     OW63913   3.352   4.779   1.110 -0.6803 -0.3483  0.6481
17147SOL    HW163914   3.314   4.716   1.042 -2.7764  1.1830  0.3410
17147SOL    HW263915   3.315   4.757   1.200 -2.1234  0.9477  0.3995
17148SOL     OW63916   5.242   4.626   0.993 -0.0581  0.5077 -0.0172
17148SOL    HW163917   5.306   4.563   0.951  0.4587  1.8377 -1.2629
17148SOL    HW263918   5.171   4.651   0.927 -0.3553  1.0857  0.5132
17149SOL     OW63919   2.580   3.607   2.739 -0.8689  0.1984 -0.5807
17149SOL    HW163920   2.555   3.527   2.793  1.6832 -1.1600 -1.3326
17149SOL    HW263921   2.615   3.679   2.799  1.3276 -1.0587 -0.3169
17150SOL     OW63922   5.886   7.740   4.983  0.4317  0.5740  0.3345
17150SOL    HW163923   5.882   7.649   4.942  1.2199 -0.3276  2.2081
17150SOL    HW263924   5.876   7.809   4.911 -1.5774 -0.9772 -0.9308
17151SOL     OW63925   8.388   1.498   7.248 -0.0018 -0.3138  0.7967
17151SOL    HW163926   8.445   1.418   7.229 -0.4346 -0.3544 -0.3899
17151SOL    HW263927   8.445   1.581   7.244  0.0382 -0.3798 -0.0936
17152SOL     OW63928   3.362   5.985   0.714 -0.7620 -0.1354 -0.7984
17152SOL    HW163929   3.427   5.910   0.703  0.3206  0.5856  0.5307
17152SOL    HW263930   3.386   6.038   0.795 -1.7279  1.4431 -1.5252
17153SOL     OW63931   4.070   0.655   6.960  0.7414 -0.4950  0.0546
17153SOL    HW163932   3.987   0.673   6.907  1.7454 -0.0781 -1.3884
17153SOL    HW263933   4.140   0.615   6.901  2.1524  0.7220  0.8670
17154SOL     OW63934   1.260   8.665   7.079 -0.3687 -0.3141 -0.4812
17154SOL    HW163935   1.321   8.606   7.133  0.5068 -0.1853 -1.3210
17154SOL    HW263936   1.259   8.634   6.984 -2.8163 -1.2533 -0.1857
17155SOL     OW63937   2.141   1.514   0.859 -0.3639 -0.2912 -0.0719
17155SOL    HW163938   2.173   1.571   0.783  1.1136 -0.7734  0.1778
17155SOL    HW263939   2.083   1.569   0.919  0.0237  0.6114 -0.5128
17156SOL     OW63940   4.448   3.708   6.289 -0.4530  0.4290  0.8172
17156SOL    HW163941   4.469   3.792   6.339 -2.8668  0.4353  1.8789
17156SOL    HW263942   4.446   3.631   6.354 -0.5211 -0.0867  0.2078
17157SOL     OW63943   5.023   0.823   6.271 -0.0519  0.1504 -0.3978
17157SOL    HW163944   5.011   0.910   6.318 -3.8234 -1.1651  1.3184
17157SOL    HW263945   4.962   0.819   6.192 -2.5305 -2.2044  1.5542
17158SOL     OW63946   6.660   6.601   0.428 -0.3424  0.7479  0.4613
17158SOL    HW163947   6.692   6.592   0.522 -2.6737 -1.4025  1.1192
17158SOL    HW263948   6.734   6.580   0.365  0.0685 -2.3422  1.9001
17159SOL     OW63949   3.496   8.355   8.295 -0.6375  0.2177 -0.1297
17159SOL    HW163950   3.590   8.331   8.270 -0.3192 -0.0655  1.3437
17159SOL    HW263951   3.436   8.276   8.280 -0.1154 -0.5590  1.7976
17160SOL     OW63952   8.665   5.260   2.953 -0.1531 -0.0834  0.5684
17160SOL    HW163953   8.730   5.336   2.960 -0.1818  0.1020 -1.0841
17160SOL    HW263954   8.572   5.295   2.963 -0.1285  0.0117  0.4731
17161SOL     OW63955   2.643   2.246   7.666 -0.0431  0.2199  0.3005
17161SOL    HW163956   2.690   2.164   7.700 -1.6793 -1.1438 -0.6491
17161SOL    HW263957   2.634   2.313   7.740 -1.5462 -1.7738  1.9821
17162SOL     OW63958   4.233   4.533   5.240  0.8983  0.4516 -0.1899
17162SOL    HW163959   4.304   4.471   5.208  0.8418 -0.1529  0.8193
17162SOL    HW263960   4.229   4.614   5.182  1.3227 -0.2596 -1.2062
17163SOL     OW63961   6.992   5.645   5.938 -0.1665 -0.6202 -0.1208
17163SOL    HW163962   6.941   5.729   5.953 -0.9284 -0.9575 -0.8208
17163SOL    HW263963   7.074   5.664   5.883  0.1352 -0.1929  0.4715
17164SOL     OW63964   0.835   6.310   8.283 -0.1795  0.1635 -0.1980
17164SOL    HW163965   0.930   6.280   8.289  0.5123  2.5405  1.4068
17164SOL    HW263966   0.777   6.253   8.341  0.5607 -0.1425  0.2303
17165SOL     OW63967   0.358   8.036   8.906 -0.3816 -0.2690 -0.4656
17165SOL    HW163968   0.368   8.128   8.867 -0.6452 -0.2433 -0.4721
17165SOL    HW263969   0.417   7.972   8.856  0.1415 -0.0236 -0.1762
17166SOL     OW63970   6.857   6.368   6.299  0.1127  0.3108 -0.3754
17166SOL    HW163971   6.798   6.291   6.324  0.2345  1.0640  2.3824
17166SOL    HW263972   6.951   6.348   6.326  0.3309  0.9390 -0.6579
17167SOL     OW63973   7.803   1.216   1.206 -0.3062 -0.0465  0.1366
17167SOL    HW163974   7.791   1.262   1.294  0.4198  0.3860  0.0139
17167SOL    HW263975   7.878   1.150   1.213 -0.5042 -0.2915 -0.0482
17168SOL     OW63976   0.813   0.070   5.415  0.2228  0.6089 -0.2748
17168SOL    HW163977   0.857   0.156   5.442  0.4452 -0.2902  2.4453
17168SOL    HW263978   0.883  -0.000   5.401 -0.0763  0.3350 -0.4068
17169SOL     OW63979   8.939   3.264   5.341 -0.8722 -0.2510  0.8928
17169SOL    HW163980   9.012   3.233   5.280 -0.3841 -0.7914  1.7471
17169SOL    HW263981   8.851   3.232   5.307 -1.0028  2.4950 -1.5274
17170SOL     OW63982   2.011   0.883   0.577 -0.0087  0.5224 -0.0555
17170SOL    HW163983   1.918   0.910   0.554  0.2244  0.5214 -1.0479
17170SOL    HW263984   2.047   0.943   0.648 -0.4566  1.0885 -0.3028
17171SOL     OW63985   1.876   1.425   7.353 -0.4609 -0.0626  0.4692
17171SOL    HW163986   1.911   1.411   7.446 -0.0580 -0.9654  0.1915
17171SOL    HW263987   1.865   1.523   7.336  0.2873  0.1524  1.1761
17172SOL     OW63988   7.800   0.859   0.962  0.3083  0.1523  0.1924
17172SOL    HW163989   7.771   0.892   1.052 -1.5151 -1.1968  0.1279
17172SOL    HW263990   7.725   0.870   0.897  0.8558 -0.9212 -0.6410
17173SOL     OW63991   0.527   2.752   4.372 -0.0804  0.3154  0.3776
17173SOL    HW163992   0.529   2.718   4.466  2.3079 -2.5319 -0.6215
17173SOL    HW263993   0.600   2.820   4.360  0.2701 -0.0719  0.3170
17174SOL     OW63994   0.313   1.602   6.974 -0.0400 -0.9383  0.2639
17174SOL    HW163995   0.235   1.621   6.915  0.6249 -1.4528 -0.8047
17174SOL    HW263996   0.398   1.612   6.921  0.5552 -1.5062  1.1019
17175SOL     OW63997   1.574   1.472   0.675 -0.1581  0.2701  0.7169
17175SOL    HW163998   1.572   1.407   0.599 -0.0008  1.3410 -0.2132
17175SOL    HW263999   1.572   1.422   0.761  1.5499 -1.0425  0.0282
17176SOL     OW64000   8.329   6.219   2.582  0.1602  0.6601  0.1690
17176SOL    HW164001   8.361   6.180   2.495 -0.5560  2.1715 -0.7921
17176SOL    HW264002   8.232   6.241   2.574 -0.0600  0.2373  1.5799
17177SOL     OW64003   1.020   0.471   7.660 -0.0389  0.0891 -0.0362
17177SOL    HW164004   1.107   0.430   7.633  0.2495  0.8760 -0.3383
17177SOL    HW264005   1.024   0.570   7.644 -0.5724  0.2923  1.0363
17178SOL     OW64006   1.235   4.212   4.228 -0.6479  0.1807 -0.2818
17178SOL    HW164007   1.309   4.145   4.236  1.0443  1.9921 -0.3211
17178SOL    HW264008   1.161   4.188   4.292 -0.9178 -2.7278 -1.6227
17179SOL     OW64009   7.199   2.977   8.342  0.3307  0.0694  0.0243
17179SOL    HW164010   7.182   2.921   8.423  0.1208 -0.0203 -0.0812
17179SOL    HW264011   7.144   3.061   8.347 -1.2090 -0.8452 -0.9652
17180SOL     OW64012   1.397   8.911   8.691  0.2333 -0.0232  0.1531
17180SOL    HW164013   1.367   8.819   8.716 -3.3784  1.1828  0.6425
17180SOL    HW264014   1.371   8.929   8.596  0.3720  0.7191  0.2550
17181SOL     OW64015   0.604   3.460   5.991 -0.5014  0.4072  0.2449
17181SOL    HW164016   0.508   3.453   5.965 -0.3114  0.0277 -0.3618
17181SOL    HW264017   0.639   3.369   6.014 -0.2663  0.5318  0.3869
17182SOL     OW64018   7.094   1.824   3.890  0.0537  0.5362 -0.6213
17182SOL    HW164019   7.046   1.908   3.864  2.0550  1.5102 -1.3310
17182SOL    HW264020   7.185   1.848   3.924  0.4726 -1.3308 -0.3926
17183SOL     OW64021   3.346   2.336   0.976 -0.2408  0.3483  0.1567
17183SOL    HW164022   3.414   2.281   1.024  0.0186  0.4093 -0.1456
17183SOL    HW264023   3.254   2.309   1.007 -0.0868  0.2001  0.4877
17184SOL     OW64024   4.778   3.400   8.651  0.4340 -0.8844  0.5041
17184SOL    HW164025   4.791   3.307   8.685  2.6608 -0.5033  0.7095
17184SOL    HW264026   4.865   3.438   8.620 -0.5752  0.8773 -0.2866
17185SOL     OW64027   8.397   4.539   3.102 -0.4489 -0.2863  0.1776
17185SOL    HW164028   8.398   4.629   3.144 -0.8191  0.2845 -1.0250
17185SOL    HW264029   8.491   4.506   3.091 -0.3713 -0.7247  2.0165
17186SOL     OW64030   4.407   7.855   3.645 -0.3104 -0.1213 -0.0253
17186SOL    HW164031   4.502   7.824   3.647 -1.3727 -3.5504  1.6941
17186SOL    HW264032   4.352   7.793   3.589 -1.5268  1.9604 -1.2108
17187SOL     OW64033   1.236   2.421   6.740  0.3631  0.2976  0.1408
17187SOL    HW164034   1.294   2.490   6.698  1.6447 -1.9366 -1.9175
17187SOL    HW264035   1.293   2.348   6.777 -0.9032  0.8953  3.4034
17188SOL     OW64036   0.452   2.003   3.906 -0.5178 -0.2147 -0.3176
17188SOL    HW164037   0.395   1.921   3.914 -0.4720 -0.1078  1.2531
17188SOL    HW264038   0.538   1.980   3.859  1.0824 -1.9250  3.2648
17189SOL     OW64039   1.012   4.896   1.488  0.4260  0.3208  0.3872
17189SOL    HW164040   1.034   4.806   1.526 -0.0868  0.2996  0.6390
17189SOL    HW264041   0.982   4.957   1.561  0.3293  0.5565  0.1531
17190SOL     OW64042   8.627   2.996   0.768 -0.2524  0.4980 -0.2272
17190SOL    HW164043   8.592   2.995   0.861 -1.3730  0.5615 -0.6421
17190SOL    HW264044   8.587   3.072   0.717  0.4221  0.5235 -0.7436
17191SOL     OW64045   6.130   3.689   8.901  0.0940 -0.2096  0.1400
17191SOL    HW164046   6.034   3.681   8.874 -0.4425  1.1769  1.5612
17191SOL    HW264047   6.176   3.601   8.888 -1.8186 -1.3930  1.1491
17192SOL     OW64048   3.361   6.171   8.907 -1.1121  0.0585  0.0841
17192SOL    HW164049   3.342   6.238   8.835 -2.5619  1.2449  1.5393
17192SOL    HW264050   3.353   6.215   8.996  0.7153 -1.3880  0.9847
17193SOL     OW64051   4.776   4.646   5.374  0.4172  0.2274 -0.0631
17193SOL    HW164052   4.835   4.644   5.294 -1.7626  0.3918 -1.7239
17193SOL    HW264053   4.738   4.554   5.390  1.5748 -0.0139  1.3511
17194SOL     OW64054   8.011   2.717   0.843  0.4394 -0.1953 -0.1880
17194SOL    HW164055   8.085   2.700   0.908  0.4185 -0.8351 -0.3293
17194SOL    HW264056   7.926   2.734   0.893  0.2598 -1.4419 -0.0525
17195SOL     OW64057   1.528   3.813   2.354 -0.1760  0.5233  0.2749
17195SOL    HW164058   1.446   3.789   2.406 -1.0386  1.6946 -0.5121
17195SOL    HW264059   1.510   3.803   2.256  1.4296 -1.6488  0.1612
17196SOL     OW64060   8.204   2.184   2.878  0.7880  0.5745  0.3234
17196SOL    HW164061   8.115   2.225   2.897  1.4643  2.1084  0.2594
17196SOL    HW264062   8.194   2.085   2.867 -0.6705  0.5247  1.8701
17197SOL     OW64063   5.657   6.116   0.690  0.4474 -0.2576 -0.6931
17197SOL    HW164064   5.677   6.074   0.778 -1.0116 -1.1245 -0.7516
17197SOL    HW264065   5.681   6.213   0.693  1.3766 -0.5132  0.3130
17198SOL     OW64066   1.768   7.348   3.049 -0.2536 -0.1832  0.0089
17198SOL    HW164067   1.832   7.290   2.999 -1.2603 -0.8611 -0.4896
17198SOL    HW264068   1.717   7.405   2.985  1.3656  1.9511  0.5423
17199SOL     OW64069   2.860   6.394   0.523  0.0743 -0.1794 -0.3310
17199SOL    HW164070   2.838   6.413   0.427 -2.5442  0.6973  0.3938
17199SOL    HW264071   2.856   6.295   0.539  0.6112 -0.3355 -1.1388
17200SOL     OW64072   1.821   6.429   1.871 -0.4357 -0.2819  0.0854
17200SOL    HW164073   1.731   6.388   1.881 -0.1872 -0.7562  0.4044
17200SOL    HW264074   1.871   6.382   1.797 -0.7564  0.5211 -0.6425
17201SOL     OW64075   4.469   8.196   4.336 -0.3321 -0.2730 -0.0783
17201SOL    HW164076   4.552   8.191   4.392 -2.8897 -0.8410  3.7908
17201SOL    HW264077   4.426   8.285   4.347  0.2561  0.4352 -2.9565
17202SOL     OW64078   2.322   3.434   5.431  0.2512  0.0368 -0.2028
17202SOL    HW164079   2.410   3.395   5.404  0.3603  0.0346  0.1617
17202SOL    HW264080   2.304   3.413   5.527 -0.6706 -0.9526 -0.5787
17203SOL     OW64081   8.772   7.096   8.301  0.1978  0.1895  0.2567
17203SOL    HW164082   8.754   7.171   8.365 -1.3212 -0.6882  0.8977
17203SOL    HW264083   8.734   7.120   8.211 -0.4870  0.0985  0.5183
17204SOL     OW64084   4.142   8.343   5.699 -0.0707  0.7566 -0.6161
17204SOL    HW164085   4.214   8.305   5.640 -1.5173 -1.1810 -1.1570
17204SOL    HW264086   4.101   8.270   5.753 -1.6570  1.8575 -0.3198
17205SOL     OW64087   1.642   6.123   1.717 -0.2960  0.2319 -0.5903
17205SOL    HW164088   1.598   6.189   1.778  0.3856  0.3943 -0.2683
17205SOL    HW264089   1.630   6.152   1.622  0.3598  1.0442 -0.4270
17206SOL     OW64090   8.345   0.717   0.440 -0.1414  0.2778 -0.1788
17206SOL    HW164091   8.404   0.642   0.468 -0.4394 -0.4450 -1.4286
17206SOL    HW264092   8.261   0.717   0.495 -0.9629 -1.4430 -1.3899
17207SOL     OW64093   0.592   6.547   0.740 -0.0232 -0.2288 -0.2474
17207SOL    HW164094   0.560   6.480   0.673 -0.1281  0.0108 -0.4360
17207SOL    HW264095   0.589   6.507   0.831 -1.3823 -0.0208 -0.1914
17208SOL     OW64096   8.411   1.450   6.621 -0.2163  0.1995 -0.1113
17208SOL    HW164097   8.473   1.452   6.699  0.1595  0.8970 -0.4174
17208SOL    HW264098   8.423   1.534   6.567 -0.3685 -0.3338 -0.9883
17209SOL     OW64099   8.098   5.007   0.636 -0.0989 -0.5672  0.5700
17209SOL    HW164100   8.128   4.950   0.712  0.1761  1.9205  2.3872
17209SOL    HW264101   8.035   5.077   0.670 -1.0587 -0.2646 -1.7336
17210SOL     OW64102   6.255   6.886   7.045  0.4532  0.4323 -0.6283
17210SOL    HW164103   6.231   6.979   7.019  0.3715  0.2225 -1.3248
17210SOL    HW264104   6.172   6.833   7.060  0.5000  0.4785 -0.2001
17211SOL     OW64105   1.005   3.109   8.979  0.4937  0.0149 -0.4050
17211SOL    HW164106   0.957   3.022   8.975 -0.0079  0.2870 -0.2571
17211SOL    HW264107   1.095   3.095   9.021 -0.7680  0.1011  2.4296
17212SOL     OW64108   1.332   5.515   5.110  0.0013  0.3015 -0.5006
17212SOL    HW164109   1.364   5.466   5.029 -0.9998 -0.7756 -0.2582
17212SOL    HW264110   1.409   5.561   5.153  0.8807 -0.6749 -1.0087
17213SOL     OW64111   7.974   1.164   0.134 -0.1747 -0.4068  0.2573
17213SOL    HW164112   7.896   1.117   0.175  0.5995 -1.3673  0.6436
17213SOL    HW264113   7.962   1.169   0.035  0.0828 -2.0817  0.1360
17214SOL     OW64114   0.629   1.053   8.794 -0.0577 -0.5809  0.0647
17214SOL    HW164115   0.548   1.070   8.738  0.4228  0.5433 -0.3098
17214SOL    HW264116   0.666   0.962   8.773 -1.7267 -1.4844  0.8946
17215SOL     OW64117   7.069   4.434   4.246 -0.4347  0.3149 -0.2934
17215SOL    HW164118   6.975   4.458   4.220 -0.4877  0.9830  0.5187
17215SOL    HW264119   7.099   4.357   4.190 -1.6420 -0.2292 -0.2204
17216SOL     OW64120   0.861   3.861   5.644 -0.7266  0.1143  0.2815
17216SOL    HW164121   0.923   3.879   5.567  2.3327 -0.8024  2.4350
17216SOL    HW264122   0.835   3.764   5.644 -0.7817  0.1288  0.3772
17217SOL     OW64123   4.146   0.877   3.911 -0.1373  0.2413 -0.6163
17217SOL    HW164124   4.146   0.972   3.880  0.6702 -0.3530 -2.4652
17217SOL    HW264125   4.236   0.837   3.894  0.1424 -0.2977  1.9489
17218SOL     OW64126   4.139   8.503   0.664 -0.8109  0.4802  0.1843
17218SOL    HW164127   4.170   8.595   0.638 -1.6484  0.5011 -0.7796
17218SOL    HW264128   4.201   8.465   0.733 -0.8838  2.0612  1.1518
17219SOL     OW64129   3.152   6.013   8.360 -0.3652  0.7278 -0.3535
17219SOL    HW164130   3.179   6.066   8.441 -0.4528  0.8572 -0.4093
17219SOL    HW264131   3.232   5.969   8.320 -0.6286 -1.1775  1.1265
17220SOL     OW64132   2.871   3.880   5.185 -0.0044 -0.0453 -0.2881
17220SOL    HW164133   2.931   3.832   5.121  1.2730 -0.2877  1.0504
17220SOL    HW264134   2.834   3.962   5.142 -0.2607 -0.9320 -1.7830
17221SOL     OW64135   6.202   6.673   8.271  0.3213 -0.0832 -0.5573
17221SOL    HW164136   6.222   6.586   8.225  1.5279  0.6892 -1.5187
17221SOL    HW264137   6.276   6.695   8.334  0.0289  0.2760 -0.3396
17222SOL     OW64138   6.380   2.453   8.818 -0.4400  0.2610 -0.4498
17222SOL    HW164139   6.373   2.435   8.916 -2.9552 -1.2470 -0.8610
17222SOL    HW264140   6.353   2.371   8.767 -1.0622  1.6533 -2.4128
17223SOL     OW64141   4.317   1.922   0.927 -0.1755  0.2021 -0.2584
17223SOL    HW164142   4.380   1.918   0.849 -0.2071 -0.7696 -0.2325
17223SOL    HW264143   4.223   1.932   0.894 -0.1542  0.1673 -0.3289
17224SOL     OW64144   5.359   5.494   4.811  0.0065 -1.0766 -0.5179
17224SOL    HW164145   5.398   5.406   4.837  0.3188 -1.0926 -1.0241
17224SOL    HW264146   5.410   5.531   4.734 -2.3126 -2.0950 -2.6203
17225SOL     OW64147   1.643   1.297   3.200 -0.9846 -0.0931 -0.3008
17225SOL    HW164148   1.723   1.238   3.210 -1.2150 -0.4534 -0.5582
17225SOL    HW264149   1.560   1.240   3.194 -1.5807  0.3374  2.7817
17226SOL     OW64150   6.485   0.692   3.199 -0.3884  0.1249  0.2593
17226SOL    HW164151   6.545   0.648   3.132 -1.4704 -0.2512 -0.4733
17226SOL    HW264152   6.494   0.792   3.191 -1.4129  0.1048 -1.2836
17227SOL     OW64153   8.462   7.046   5.820 -0.1507 -0.0880  0.6048
17227SOL    HW164154   8.451   7.021   5.724 -0.6283  0.9928  0.3796
17227SOL    HW264155   8.520   6.978   5.865  0.0699 -0.6009 -0.4428
17228SOL     OW64156   0.366   1.980   6.550  0.3997  0.0835  0.1277
17228SOL    HW164157   0.395   1.985   6.455  0.5259  0.4017  0.1817
17228SOL    HW264158   0.434   1.932   6.604  0.1904 -0.3549  0.0037
17229SOL     OW64159   6.310   1.792   1.719  0.4637 -0.3527  0.3191
17229SOL    HW164160   6.394   1.839   1.747  0.1810  0.3725 -0.0513
17229SOL    HW264161   6.305   1.789   1.619 -1.4243  2.2892  0.2901
17230SOL     OW64162   6.832   1.107   3.828  0.3777 -0.2633 -0.4850
17230SOL    HW164163   6.823   1.088   3.730  1.1933 -1.0639 -0.4126
17230SOL    HW264164   6.929   1.107   3.853  0.1383 -0.8404  0.4755
17231SOL     OW64165   4.752   8.702   7.162  0.3325 -0.3677  0.6185
17231SOL    HW164166   4.734   8.799   7.178  1.8566 -0.0716  0.6084
17231SOL    HW264167   4.672   8.648   7.191 -1.0067  0.9697 -0.5414
17232SOL     OW64168   0.749   3.596   8.783  0.2986  0.1435 -0.0465
17232SOL    HW164169   0.737   3.518   8.722  0.8017  0.5962 -0.7281
17232SOL    HW264170   0.669   3.656   8.777  0.2913  0.1217 -0.1617
17233SOL     OW64171   6.053   3.356   0.790 -0.1320  0.4010 -0.0197
17233SOL    HW164172   6.042   3.455   0.800 -1.4515  0.2130  0.5605
17233SOL    HW264173   5.963   3.313   0.788  0.4306 -0.7720 -0.5178
17234SOL     OW64174   4.800   4.318   6.894  0.3947  0.0453  0.3560
17234SOL    HW164175   4.722   4.299   6.834  0.4917  1.7079 -0.3424
17234SOL    HW264176   4.768   4.327   6.988 -0.1838  0.1952  0.1486
17235SOL     OW64177   0.375   0.758   6.785 -0.2757 -0.3141 -0.2102
17235SOL    HW164178   0.348   0.853   6.771 -0.7194 -0.4093  0.0057
17235SOL    HW264179   0.471   0.755   6.814 -0.4706  0.1113  0.4765
17236SOL     OW64180   7.979   7.353   5.292 -0.0752  0.2063  0.1954
17236SOL    HW164181   8.014   7.332   5.384 -0.8844  2.2443  0.9963
17236SOL    HW264182   8.027   7.432   5.256  1.7017 -1.8189 -2.0521
17237SOL     OW64183   0.222   3.961   3.806  0.7005 -0.3467  0.4534
17237SOL    HW164184   0.145   3.960   3.870 -0.1752  3.1685 -0.4388
17237SOL    HW264185   0.193   3.926   3.718  0.4058 -0.0468  0.4304
17238SOL     OW64186   0.012   5.757   5.498  0.8312  0.1807  0.4679
17238SOL    HW164187  -0.048   5.718   5.429  0.1870  0.9677  0.5705
17238SOL    HW264188   0.093   5.699   5.510  0.7030 -0.2104 -0.5814
17239SOL     OW64189   0.737   4.780   3.239  0.8121 -0.4672 -0.5167
17239SOL    HW164190   0.705   4.814   3.327  3.6758  1.6601 -0.2430
17239SOL    HW264191   0.687   4.826   3.165 -1.6605 -2.3249 -0.0650
17240SOL     OW64192   0.784   8.505   5.815 -0.4644 -0.3903 -0.5211
17240SOL    HW164193   0.820   8.563   5.888  0.2792 -1.8118  0.2761
17240SOL    HW264194   0.687   8.524   5.802 -1.2406 -1.8236  2.5916
17241SOL     OW64195   1.459   6.428   6.941 -0.1280  0.0296  0.1607
17241SOL    HW164196   1.472   6.347   6.997 -0.0315  0.2651  0.4808
17241SOL    HW264197   1.426   6.402   6.851  3.0694 -0.6625 -0.8887
17242SOL     OW64198   6.331   0.549   0.314  0.3900  0.0487  0.2998
17242SOL    HW164199   6.233   0.569   0.323  0.2983  0.3779 -1.3123
17242SOL    HW264200   6.380   0.633   0.291  0.5620 -0.7275 -2.3910
17243SOL     OW64201   3.517   0.877   5.539  0.1715 -0.2334 -0.6659
17243SOL    HW164202   3.457   0.822   5.480 -0.5727  0.4354 -0.5415
17243SOL    HW264203   3.613   0.855   5.519 -0.0862 -0.3761 -1.7804
17244SOL     OW64204   7.919   2.948   1.921  0.6373 -0.6511 -0.2941
17244SOL    HW164205   7.924   3.004   2.003 -0.5621  0.3710 -0.8963
17244SOL    HW264206   7.991   2.976   1.857  1.0170 -0.8526  0.0470
17245SOL     OW64207   4.077   2.567   1.137 -0.0329 -0.2223  0.0157
17245SOL    HW164208   4.151   2.620   1.094  0.5723 -1.1388 -0.0806
17245SOL    HW264209   4.054   2.608   1.225  0.5905  0.0696  0.0466
17246SOL     OW64210   0.677   6.479   0.289  0.3329 -0.1488  0.7249
17246SOL    HW164211   0.600   6.431   0.329 -0.6737  0.3456 -0.5654
17246SOL    HW264212   0.673   6.576   0.315 -0.9698  0.4104 -1.4353
17247SOL     OW64213   1.748   2.574   5.007  0.2077  0.1841 -0.0513
17247SOL    HW164214   1.777   2.669   4.992 -0.5239  0.4063 -0.0527
17247SOL    HW264215   1.735   2.529   4.918 -2.7688  1.0913 -0.1093
17248SOL     OW64216   2.753   6.004   7.049 -0.1249  0.2173 -0.3490
17248SOL    HW164217   2.679   6.012   6.982  0.2974  2.3236 -0.6004
17248SOL    HW264218   2.729   6.055   7.132  1.6921  2.3597 -1.0672
17249SOL     OW64219   0.891   3.333   4.527 -0.5570  0.2743  0.5513
17249SOL    HW164220   0.979   3.315   4.569  0.4098  1.5765 -0.8773
17249SOL    HW264221   0.901   3.335   4.427 -2.0802  1.0551  0.3934
17250SOL     OW64222   0.717   3.481   6.878  0.1501 -0.0260 -0.1323
17250SOL    HW164223   0.690   3.393   6.917  2.0796 -0.4618  0.2535
17250SOL    HW264224   0.739   3.468   6.781  2.8357 -0.4800  0.5144
17251SOL     OW64225   8.036   0.664   3.091  0.7991  0.5883  0.0742
17251SOL    HW164226   7.960   0.676   3.154 -1.1842  0.2706 -2.2105
17251SOL    HW264227   8.107   0.608   3.134 -1.3157 -1.1578  1.3429
17252SOL     OW64228   4.316   2.944   7.277  0.1877  0.0720 -0.1720
17252SOL    HW164229   4.364   2.945   7.189 -0.9987 -0.5548 -0.8365
17252SOL    HW264230   4.293   2.850   7.301 -0.8102  0.3805  0.0913
17253SOL     OW64231   3.541   1.542   6.198  0.0363  0.0866 -0.2066
17253SOL    HW164232   3.582   1.540   6.107 -0.7690 -3.0918 -0.5705
17253SOL    HW264233   3.518   1.449   6.226 -0.9741  1.1466  2.7039
17254SOL     OW64234   6.530   7.309   8.169  0.2170  0.7315  0.0470
17254SOL    HW164235   6.481   7.262   8.242  1.3282 -0.0137  0.3368
17254SOL    HW264236   6.628   7.291   8.178  0.4693  1.5198 -0.9921
17255SOL     OW64237   2.010   1.782   0.169 -0.2055 -0.1017 -0.1137
17255SOL    HW164238   1.974   1.699   0.128 -2.1188  0.2890  0.7017
17255SOL    HW264239   2.093   1.760   0.222 -1.0129 -1.5860  0.5633
17256SOL     OW64240   4.607   4.857   5.184 -0.7296 -0.4126  0.1954
17256SOL    HW164241   4.647   4.893   5.268  0.3008  0.7646 -0.7859
17256SOL    HW264242   4.511   4.886   5.178 -0.4403  0.5848  0.3392
17257SOL     OW64243   3.836   5.871   0.263 -0.5226  0.1229  0.4229
17257SOL    HW164244   3.783   5.787   0.256 -1.1451  0.5618 -0.2852
17257SOL    HW264245   3.780   5.941   0.308 -0.4413  0.5102 -0.0807
17258SOL     OW64246   3.949   6.946   7.897  0.0772  0.6341  0.1648
17258SOL    HW164247   3.856   6.914   7.877 -0.1858  1.0344  0.7405
17258SOL    HW264248   3.986   6.894   7.974  0.2037  0.7219  0.1632
17259SOL     OW64249   1.255   3.875   7.406  0.4841  0.0300 -1.2372
17259SOL    HW164250   1.262   3.968   7.369  2.4434  0.1310 -0.6854
17259SOL    HW264251   1.341   3.852   7.453 -1.2281 -0.7829  1.6176
17260SOL     OW64252   1.533   8.427   8.486 -0.2174  0.3599  0.5754
17260SOL    HW164253   1.477   8.448   8.566  0.6942  1.6439  0.9057
17260SOL    HW264254   1.474   8.409   8.408 -1.1152 -0.8123  1.5031
17261SOL     OW64255   3.788   1.422   2.342 -0.2836 -0.8796  0.5257
17261SOL    HW164256   3.730   1.355   2.295  1.2576 -1.7533 -0.2021
17261SOL    HW264257   3.792   1.400   2.439 -2.2592  0.0101  0.8124
17262SOL     OW64258   6.178   8.099   7.769 -0.4198 -0.0666  0.6105
17262SOL    HW164259   6.095   8.083   7.824  0.0211  1.2481  1.6905
17262SOL    HW264260   6.211   8.192   7.786 -0.8894  0.7733 -2.7520
17263SOL     OW64261   8.187   3.162   6.660  0.2967  0.4774 -0.0581
17263SOL    HW164262   8.210   3.188   6.566 -1.3721  0.2500 -0.5451
17263SOL    HW264263   8.179   3.063   6.666  3.1504  0.2612  0.9925
17264SOL     OW64264   1.433   7.114   1.090  0.4284 -0.0845  0.4426
17264SOL    HW164265   1.426   7.045   1.018 -0.3120 -0.1468  0.5667
17264SOL    HW264266   1.344   7.159   1.101  0.0981 -1.1728  2.3936
17265SOL     OW64267   7.048   3.064   8.833  0.5509 -0.2173 -0.1994
17265SOL    HW164268   7.139   3.105   8.845 -0.4539  2.1562 -0.3595
17265SOL    HW264269   7.002   3.061   8.922  0.8018 -1.5102 -0.1030
17266SOL     OW64270   8.334   7.473   8.501 -0.1896 -0.5876 -0.1458
17266SOL    HW164271   8.392   7.393   8.484  1.0685  0.4450 -0.8157
17266SOL    HW264272   8.270   7.484   8.425  0.9970  0.1956 -1.0547
17267SOL     OW64273   0.812   6.895   3.048 -0.5724  0.0151 -0.2367
17267SOL    HW164274   0.719   6.916   3.081 -0.0010 -0.0637  1.4710
17267SOL    HW264275   0.835   6.957   2.973 -1.1163  1.6372  0.9045
17268SOL     OW64276   5.595   7.906   8.820 -0.6281 -0.2766 -0.0490
17268SOL    HW164277   5.695   7.909   8.832 -0.5607  0.4095 -0.6951
17268SOL    HW264278   5.552   7.870   8.903  0.2349 -1.6980 -0.2052
17269SOL     OW64279   4.531   7.133   0.775 -0.5604 -0.5321  0.4660
17269SOL    HW164280   4.564   7.226   0.790 -0.8893 -0.7588  2.7515
17269SOL    HW264281   4.605   7.068   0.793 -0.5092 -0.7572 -0.5148
17270SOL     OW64282   1.178   8.080   0.797 -0.0651 -0.2296 -0.0187
17270SOL    HW164283   1.276   8.065   0.786 -0.3082 -1.6830 -0.2808
17270SOL    HW264284   1.154   8.173   0.769  0.5224 -1.2869 -4.3484
17271SOL     OW64285   0.093   5.100   7.929 -0.3808 -0.3789  0.5911
17271SOL    HW164286   0.177   5.150   7.907  0.0242 -0.4769  1.8244
17271SOL    HW264287   0.080   5.026   7.864  1.4546 -1.4531  1.4047
17272SOL     OW64288   3.481   8.672   1.861  0.0341  0.6770  0.0446
17272SOL    HW164289   3.441   8.587   1.827  0.9365  0.6782 -1.0360
17272SOL    HW264290   3.483   8.669   1.961 -1.0592 -0.0507  0.0606
17273SOL     OW64291   4.794   0.311   7.401  0.4745  0.3488  0.0123
17273SOL    HW164292   4.848   0.298   7.318  1.0213  0.7332  0.3039
17273SOL    HW264293   4.781   0.409   7.417  0.5499  0.2782  0.5004
17274SOL     OW64294   7.119   5.645   2.216 -0.5557 -0.6495 -0.4656
17274SOL    HW164295   7.160   5.677   2.131  0.8526 -0.4938  0.2586
17274SOL    HW264296   7.151   5.701   2.292 -1.8332 -0.7600  0.1767
17275SOL     OW64297   5.372   3.098   8.893 -0.3554 -0.0504 -0.5246
17275SOL    HW164298   5.407   3.173   8.951  1.0070 -1.3147  0.3220
17275SOL    HW264299   5.272   3.104   8.888 -0.2578  1.8745 -0.5306
17276SOL     OW64300   1.844   5.984   1.239 -0.4295  0.1261  0.3568
17276SOL    HW164301   1.785   6.054   1.198 -0.2585  1.4350  2.2692
17276SOL    HW264302   1.790   5.928   1.302 -0.2021 -0.4104  0.0758
17277SOL     OW64303   7.223   8.886   2.358  0.0469 -0.2644  0.5502
17277SOL    HW164304   7.247   8.817   2.290 -0.8115  0.0559 -0.0767
17277SOL    HW264305   7.296   8.891   2.427 -0.1604 -2.2193  0.9372
17278SOL     OW64306   2.979   8.426   6.652 -0.1136 -0.2940 -0.1652
17278SOL    HW164307   3.052   8.393   6.593 -1.2271 -1.2616 -1.0135
17278SOL    HW264308   2.938   8.508   6.611 -0.0282 -0.2125 -0.0861
17279SOL     OW64309   2.327   4.325   0.380 -0.6143 -0.4024 -0.3805
17279SOL    HW164310   2.324   4.393   0.454 -0.2155 -0.6427 -0.1394
17279SOL    HW264311   2.400   4.259   0.398 -1.8082 -1.6505  0.0512
17280SOL     OW64312   8.624   6.227   6.533  0.2692  0.0806 -0.2900
17280SOL    HW164313   8.670   6.310   6.565  0.5905  0.7544 -2.4547
17280SOL    HW264314   8.528   6.248   6.515  0.3316 -0.0491 -0.7619
17281SOL     OW64315   1.028   1.859   2.057  0.0230  0.0039 -0.2003
17281SOL    HW164316   0.997   1.765   2.044 -1.3861  0.4696 -0.2971
17281SOL    HW264317   0.958   1.922   2.023 -0.1374  1.1298  2.1620
17282SOL     OW64318   1.121   3.965   2.157  0.6176  0.1348  0.4105
17282SOL    HW164319   1.093   3.942   2.250  0.9326  1.7131  0.9199
17282SOL    HW264320   1.050   4.020   2.114  1.4081  1.2643  0.5098
17283SOL     OW64321   4.215   6.364   8.979  0.5823 -0.3728  0.1538
17283SOL    HW164322   4.267   6.450   8.974 -0.7382  0.5675  2.3554
17283SOL    HW264323   4.276   6.290   9.009  1.3396  0.0913 -0.2134
17284SOL     OW64324   1.563   8.379   6.697  0.1624 -0.1795 -0.5349
17284SOL    HW164325   1.594   8.329   6.778 -0.0548 -0.3454 -0.5519
17284SOL    HW264326   1.592   8.475   6.703 -1.2691  0.2070  0.5531
17285SOL     OW64327   4.922   1.372   3.773  0.1279  0.6513  0.6169
17285SOL    HW164328   5.020   1.394   3.778  0.3389  0.1983 -1.1499
17285SOL    HW264329   4.896   1.361   3.678 -1.1978 -1.2772  1.1843
17286SOL     OW64330   2.913   5.766   1.948 -0.4958  0.5568  0.1168
17286SOL    HW164331   2.971   5.815   1.884 -0.4843 -0.2729 -0.5206
17286SOL    HW264332   2.820   5.759   1.911 -0.4766  0.0256  0.1572
17287SOL     OW64333   5.799   2.730   7.120 -0.1882  0.0319 -0.4558
17287SOL    HW164334   5.776   2.806   7.181  0.9530 -1.4880  1.9642
17287SOL    HW264335   5.899   2.721   7.115 -0.2899 -0.3539 -1.9442
17288SOL     OW64336   8.797   5.887   4.484  0.9212 -0.1172 -0.4090
17288SOL    HW164337   8.833   5.917   4.572  0.2748  1.4953 -0.6778
17288SOL    HW264338   8.721   5.946   4.457  0.1692 -1.5001 -1.3600
17289SOL     OW64339   5.596   5.300   4.289 -0.8543  0.1335 -0.1616
17289SOL    HW164340   5.674   5.321   4.231 -0.4945 -0.3199  0.1498
17289SOL    HW264341   5.627   5.246   4.368 -1.1736  1.5743  0.9612
17290SOL     OW64342   8.328   5.602   3.382  0.2309  0.7231  0.0673
17290SOL    HW164343   8.427   5.615   3.380  0.2046  0.7562 -1.2449
17290SOL    HW264344   8.285   5.666   3.319 -0.3858 -1.2855 -1.6083
17291SOL     OW64345   0.477   0.680   0.815 -0.3680 -0.4859  0.1648
17291SOL    HW164346   0.400   0.623   0.787 -0.2198  0.0874 -1.4911
17291SOL    HW264347   0.443   0.769   0.846 -0.4336 -0.5059  0.1504
17292SOL     OW64348   4.402   1.475   6.663 -0.4635 -0.1275 -0.6679
17292SOL    HW164349   4.352   1.561   6.670 -0.0581  0.2419 -2.1240
17292SOL    HW264350   4.500   1.492   6.671 -0.5280 -0.8438  2.1298
17293SOL     OW64351   5.108   7.276   3.598 -0.0159 -0.1377 -0.7139
17293SOL    HW164352   5.087   7.362   3.552 -1.5117 -0.5384 -0.8110
17293SOL    HW264353   5.137   7.295   3.692  1.1964  0.5562 -1.2136
17294SOL     OW64354   2.959   3.098   5.718  0.2059 -0.4525 -0.2970
17294SOL    HW164355   2.933   3.002   5.731 -0.8336 -0.0219  0.8429
17294SOL    HW264356   2.983   3.138   5.806 -0.7373  0.7335 -0.5801
17295SOL     OW64357   3.305   6.252   6.412  0.1297 -0.0410  0.3710
17295SOL    HW164358   3.290   6.332   6.355  0.9316 -0.4021 -0.3719
17295SOL    HW264359   3.228   6.239   6.474 -2.0555 -1.1553 -2.4736
17296SOL     OW64360   2.320   3.916   8.035 -0.2726 -0.0082 -0.3097
17296SOL    HW164361   2.253   3.849   8.065 -1.3402  1.8123  1.5569
17296SOL    HW264362   2.410   3.893   8.073 -0.8821  0.2512  1.3517
17297SOL     OW64363   0.135   3.609   6.620  0.6213  0.1135  0.5718
17297SOL    HW164364   0.149   3.616   6.719 -0.3264 -0.2101  0.7361
17297SOL    HW264365   0.176   3.688   6.574 -1.0844  1.5395  1.4470
17298SOL     OW64366   2.233   3.426   1.218 -0.1583  0.3733 -0.0899
17298SOL    HW164367   2.194   3.503   1.269 -0.8790  0.1258 -0.2695
17298SOL    HW264368   2.198   3.426   1.125  1.9636  1.4392 -0.9347
17299SOL     OW64369   5.773   2.441   6.406 -0.1670 -0.3761  1.1430
17299SOL    HW164370   5.713   2.368   6.373  0.5047 -1.3537  2.0293
17299SOL    HW264371   5.719   2.514   6.445 -0.8726 -0.2202 -0.1022
17300SOL     OW64372   2.305   3.282   2.142 -0.2344  0.4963 -0.1723
17300SOL    HW164373   2.246   3.215   2.098 -3.0332  1.1866  2.3137
17300SOL    HW264374   2.254   3.368   2.155  1.9397  1.7523  0.3593
17301SOL     OW64375   1.388   0.689   1.262 -0.2581 -0.1284  0.1484
17301SOL    HW164376   1.347   0.767   1.214 -1.6276 -0.5113  0.6773
17301SOL    HW264377   1.398   0.613   1.199 -0.6484 -0.1325  0.0906
17302SOL     OW64378   3.910   4.043   0.732  0.2423 -0.2490  1.2749
17302SOL    HW164379   4.006   4.034   0.755  0.4104 -0.2612  0.5918
17302SOL    HW264380   3.857   4.066   0.814  0.9113  0.3754  1.5280
17303SOL     OW64381   5.665   7.287   7.944  0.3239 -0.0271  0.4396
17303SOL    HW164382   5.584   7.277   8.003 -0.1157  0.8475  0.0022
17303SOL    HW264383   5.706   7.377   7.959  1.1102 -0.3970  0.5180
17304SOL     OW64384   2.518   8.184   2.187 -0.1819 -0.2270 -0.4861
17304SOL    HW164385   2.555   8.164   2.097 -0.5636 -0.9344 -0.4911
17304SOL    HW264386   2.575   8.142   2.257  0.3529  0.6785 -0.3695
17305SOL     OW64387   7.441   6.357   6.060 -0.3135 -0.3487  0.5858
17305SOL    HW164388   7.505   6.305   6.116  1.4675  1.2475  0.0846
17305SOL    HW264389   7.492   6.413   5.994 -2.2747 -0.0083 -0.6765
17306SOL     OW64390   5.389   4.325   0.970 -0.3253  0.1975 -0.5203
17306SOL    HW164391   5.468   4.329   1.031 -0.7056 -0.5939  0.0318
17306SOL    HW264392   5.305   4.323   1.024 -0.7662  1.9268 -1.1192
17307SOL     OW64393   5.141   5.187   4.815 -0.3431  0.3296 -0.0648
17307SOL    HW164394   5.116   5.111   4.876 -0.1045  0.4426  0.1755
17307SOL    HW264395   5.167   5.150   4.725  0.1208  0.0930  0.1604
17308SOL     OW64396   1.187   0.686   2.169  0.0696 -0.0472 -0.0877
17308SOL    HW164397   1.271   0.740   2.166  0.1772 -0.2487 -0.8218
17308SOL    HW264398   1.135   0.700   2.084 -1.4046  1.2854  0.9956
17309SOL     OW64399   5.693   3.664   1.529  0.4330 -0.1611  0.3961
17309SOL    HW164400   5.752   3.700   1.601  0.5189 -0.4235  0.4547
17309SOL    HW264401   5.713   3.568   1.514 -0.6610 -0.5141  1.1013
17310SOL     OW64402   8.168   1.463   8.750  0.3448 -0.3273  0.3711
17310SOL    HW164403   8.225   1.545   8.742  0.5565 -0.5697 -0.6777
17310SOL    HW264404   8.223   1.382   8.732 -0.4040 -0.5437 -1.0546
17311SOL     OW64405   4.941   7.702   5.237 -0.4442 -0.2297  0.2744
17311SOL    HW164406   4.928   7.622   5.296  0.2231 -0.6294 -0.1233
17311SOL    HW264407   5.038   7.712   5.215 -0.3821  1.3087  1.1911
17312SOL     OW64408   3.276   2.270   0.387  0.8946  0.0827  0.3588
17312SOL    HW164409   3.316   2.325   0.313  0.9388  0.1270  0.4163
17312SOL    HW264410   3.207   2.209   0.348  2.0380 -1.0468  0.0231
17313SOL     OW64411   6.789   5.247   6.179  0.3934  0.3499  0.2097
17313SOL    HW164412   6.841   5.327   6.151  1.6117  0.2790  2.1721
17313SOL    HW264413   6.752   5.201   6.098 -1.0178  3.3200 -0.8808
17314SOL     OW64414   2.596   5.749   7.763  0.1010 -0.1606 -0.2496
17314SOL    HW164415   2.546   5.678   7.814 -0.3031  0.3400  0.0561
17314SOL    HW264416   2.573   5.839   7.800 -0.7842  0.2623 -1.7979
17315SOL     OW64417   5.202   7.803   4.625 -0.3521  0.0690 -0.1198
17315SOL    HW164418   5.136   7.732   4.603  1.5473 -2.0782  0.9322
17315SOL    HW264419   5.176   7.889   4.580 -2.0948 -1.5500 -2.2702
17316SOL     OW64420   7.729   0.041   1.444 -1.2580 -0.0827 -0.4429
17316SOL    HW164421   7.770   0.097   1.373 -1.9217 -0.7454 -1.3604
17316SOL    HW264422   7.641   0.007   1.413 -1.4438 -0.5883  0.6029
17317SOL     OW64423   1.899   1.383   6.589  0.1445 -0.4740  0.0322
17317SOL    HW164424   1.968   1.352   6.654 -0.5036  0.7717  1.3453
17317SOL    HW264425   1.850   1.461   6.628 -1.9717 -1.3187 -0.9101
17318SOL     OW64426   4.316   2.183   0.702 -0.1465 -0.0589 -0.0748
17318SOL    HW164427   4.283   2.188   0.608 -1.1967 -1.0859  0.2203
17318SOL    HW264428   4.241   2.203   0.765  0.5058  0.4409  0.5390
17319SOL     OW64429   0.602   6.274   1.417  0.7647  0.3862 -0.0456
17319SOL    HW164430   0.683   6.225   1.384  0.6376 -0.0608  0.2961
17319SOL    HW264431   0.521   6.238   1.371  0.4778 -0.8725  1.3846
17320SOL     OW64432   2.496   8.327   7.893  0.4366  0.2452 -0.0793
17320SOL    HW164433   2.397   8.316   7.882  0.1644  0.5530  1.9485
17320SOL    HW264434   2.515   8.393   7.966  2.1436  0.2102 -0.4630
17321SOL     OW64435   0.386   0.360   6.840 -0.6280  0.0295 -0.6526
17321SOL    HW164436   0.383   0.359   6.740 -1.3056 -3.5243 -0.6746
17321SOL    HW264437   0.292   0.352   6.876 -0.1436 -2.6708  0.1573
17322SOL     OW64438   8.787   5.125   3.191  0.2891 -0.0161  0.0190
17322SOL    HW164439   8.726   5.169   3.125  0.3812  0.2670  0.1185
17322SOL    HW264440   8.869   5.181   3.202  1.8423 -1.7951 -2.2000
17323SOL     OW64441   3.549   1.100   7.524  0.4220  0.5571  0.0463
17323SOL    HW164442   3.501   1.076   7.608 -0.2386  0.4798 -0.3414
17323SOL    HW264443   3.568   1.199   7.523 -2.6028  1.1966 -1.1895
17324SOL     OW64444   6.166   6.053   3.342  0.0154 -0.3345 -0.2523
17324SOL    HW164445   6.187   6.058   3.244  0.9882  1.3153  0.0212
17324SOL    HW264446   6.251   6.060   3.394 -0.6069 -0.0363  0.7396
17325SOL     OW64447   1.336   2.727   0.716 -0.4765 -0.3491 -0.6255
17325SOL    HW164448   1.402   2.765   0.781 -0.5564  0.1493 -0.8383
17325SOL    HW264449   1.277   2.800   0.682 -0.9258 -0.7384 -0.6862
17326SOL     OW64450   5.081   4.080   5.731  0.1951  0.1696  0.1230
17326SOL    HW164451   4.985   4.071   5.705  0.4931 -0.9434 -0.6540
17326SOL    HW264452   5.088   4.106   5.827 -0.8740 -0.6824  0.4352
17327SOL     OW64453   2.514   2.597   5.579  0.0925 -0.2310  0.0974
17327SOL    HW164454   2.455   2.671   5.548  1.0153  0.7265  0.5804
17327SOL    HW264455   2.459   2.515   5.596 -1.0524  0.5863  0.3804
17328SOL     OW64456   3.718   8.619   6.348 -0.2721 -0.0855  0.1345
17328SOL    HW164457   3.806   8.578   6.322 -0.7852 -0.2762 -1.3420
17328SOL    HW264458   3.721   8.646   6.444  1.8824  1.1434 -0.2483
17329SOL     OW64459   3.279   7.843   0.780 -0.0831 -0.1927 -0.3487
17329SOL    HW164460   3.299   7.780   0.705 -1.7949  1.1223 -1.9441
17329SOL    HW264461   3.180   7.849   0.794  0.2030 -0.2742  1.9164
17330SOL     OW64462   4.358   3.990   7.674 -0.0144 -0.2567  0.0482
17330SOL    HW164463   4.387   4.023   7.764  0.5867 -1.9074  0.4834
17330SOL    HW264464   4.259   3.971   7.676 -0.2381  0.8556 -0.0159
17331SOL     OW64465   7.107   1.776   7.957  0.2591 -0.6146 -0.2154
17331SOL    HW164466   7.018   1.751   7.994 -1.1639 -0.2353 -3.2429
17331SOL    HW264467   7.151   1.695   7.917  0.7997 -0.5726  0.2765
17332SOL     OW64468   0.470   7.177   1.581 -0.0676  0.0871 -0.4284
17332SOL    HW164469   0.520   7.190   1.495 -0.6575 -1.8247 -1.0930
17332SOL    HW264470   0.509   7.099   1.630  0.1700  1.0868  0.9733
17333SOL     OW64471   4.188   6.854   0.591  0.4665  0.1987  0.1295
17333SOL    HW164472   4.141   6.898   0.514 -1.4653 -1.1505  0.4984
17333SOL    HW264473   4.255   6.789   0.556  1.9627  1.9972 -0.4056
17334SOL     OW64474   3.755   7.382   0.053  0.6402 -0.1693 -0.2747
17334SOL    HW164475   3.718   7.408   0.142  1.0421 -1.0793  0.1584
17334SOL    HW264476   3.686   7.331   0.001  0.0420  1.2661 -0.9065
17335SOL     OW64477   6.640   4.051   4.575  0.0444 -0.4148 -0.4925
17335SOL    HW164478   6.668   4.130   4.629 -0.6114 -0.2358 -0.4030
17335SOL    HW264479   6.718   3.992   4.558  0.7853  0.8251 -1.5260
17336SOL     OW64480   0.977   2.670   2.179  0.3799  0.0766 -0.5059
17336SOL    HW164481   0.947   2.753   2.228 -0.1286 -0.5265  0.2276
17336SOL    HW264482   0.913   2.651   2.104  0.0990 -0.0334 -0.2425
17337SOL     OW64483   0.106   0.548   6.210  0.3575 -0.0446  0.2497
17337SOL    HW164484   0.077   0.604   6.288 -0.0610 -2.3744  1.8172
17337SOL    HW264485   0.042   0.559   6.134  0.0496  1.2611  0.6957
17338SOL     OW64486   2.950   5.735   6.320  0.5192 -0.3128 -0.4245
17338SOL    HW164487   2.898   5.814   6.354 -0.3051 -0.2083 -1.8959
17338SOL    HW264488   2.918   5.652   6.367  0.7702  0.1022  0.4820
17339SOL     OW64489   5.692   8.035   0.191 -0.2918 -0.2123  0.3743
17339SOL    HW164490   5.701   8.017   0.093  1.0607  1.5936  0.1324
17339SOL    HW264491   5.737   7.962   0.242 -0.4779 -0.8607 -0.3710
17340SOL     OW64492   2.020   5.576   6.921 -0.1402  0.0066 -0.5335
17340SOL    HW164493   2.047   5.488   6.882  0.8263  0.1441 -0.2127
17340SOL    HW264494   1.921   5.585   6.921 -0.4506 -2.5310  2.4990
17341SOL     OW64495   2.272   3.885   4.117  0.2423  0.0901  0.3846
17341SOL    HW164496   2.331   3.925   4.047 -0.0798 -2.5106 -1.4309
17341SOL    HW264497   2.211   3.956   4.152  1.3130  1.7585 -1.0037
17342SOL     OW64498   1.754   0.759   6.632 -0.4131 -0.1796  0.1925
17342SOL    HW164499   1.729   0.747   6.728 -1.5491 -0.3096 -0.1082
17342SOL    HW264500   1.837   0.706   6.612 -1.4498 -2.0106  0.5655
17343SOL     OW64501   8.086   7.903   0.892 -0.1582  0.2941  0.0384
17343SOL    HW164502   8.079   7.867   0.799 -1.5474 -0.9835  0.6215
17343SOL    HW264503   8.090   7.828   0.957  0.0972  1.1832  1.0620
17344SOL     OW64504   1.023   0.320   4.061 -0.2112  0.2048  0.3583
17344SOL    HW164505   1.077   0.303   4.144 -2.5366 -1.2188  1.6272
17344SOL    HW264506   0.927   0.329   4.085 -0.8131  0.7705 -2.1101
17345SOL     OW64507   7.629   4.422   6.824  0.6898 -0.0531 -0.7147
17345SOL    HW164508   7.688   4.419   6.743  0.0142  0.9839 -1.2599
17345SOL    HW264509   7.601   4.516   6.841 -1.9664 -0.7095 -1.2974
17346SOL     OW64510   2.759   7.975   5.210 -0.2763  0.2021  0.3580
17346SOL    HW164511   2.781   7.908   5.282  0.4729 -0.3105 -0.3455
17346SOL    HW264512   2.821   7.963   5.133 -0.6767  1.1738 -0.1220
17347SOL     OW64513   2.582   7.241   7.702  0.0075  0.1975 -0.5871
17347SOL    HW164514   2.521   7.177   7.749 -0.4071 -1.1134 -2.8398
17347SOL    HW264515   2.660   7.261   7.761  0.8890 -3.5601 -0.3504
17348SOL     OW64516   3.915   8.560   2.588 -0.7672 -0.0025 -0.1201
17348SOL    HW164517   3.902   8.501   2.668 -1.6413  1.2558  0.6659
17348SOL    HW264518   3.827   8.582   2.547 -0.2682 -1.6106 -2.1750
17349SOL     OW64519   1.011   7.772   8.980  0.3590  0.1363 -0.2134
17349SOL    HW164520   0.958   7.692   9.007 -0.5922  0.4918 -0.9918
17349SOL    HW264521   0.997   7.790   8.882 -0.4746  1.9911  0.2180
17350SOL     OW64522   6.779   7.209   1.945 -0.3201  0.1443  0.2152
17350SOL    HW164523   6.784   7.111   1.926 -1.6530 -0.1499  1.2563
17350SOL    HW264524   6.837   7.230   2.024 -1.4166 -0.1299  1.1054
17351SOL     OW64525   2.865   4.565   1.718  0.0263 -0.1556  0.0572
17351SOL    HW164526   2.828   4.508   1.646 -0.5967  0.3736 -0.0443
17351SOL    HW264527   2.935   4.514   1.769 -1.5954 -1.5457  0.9486
17352SOL     OW64528   5.356   7.425   0.976 -0.0390 -0.2884  0.1304
17352SOL    HW164529   5.299   7.350   1.008 -0.3345  0.7993  2.2732
17352SOL    HW264530   5.299   7.502   0.948  0.3135 -0.0220  0.1280
17353SOL     OW64531   3.290   5.601   1.150 -0.2098 -0.5642 -0.1748
17353SOL    HW164532   3.252   5.609   1.242 -1.5128 -2.3955 -0.5177
17353SOL    HW264533   3.389   5.607   1.154 -0.4058  3.1605  0.8888
17354SOL     OW64534   3.664   8.597   3.447  0.7637 -0.8006 -0.7294
17354SOL    HW164535   3.706   8.683   3.418 -0.8176  0.4635  0.6256
17354SOL    HW264536   3.631   8.547   3.367 -0.5857  1.0549 -1.3651
17355SOL     OW64537   7.500   6.777   8.050 -0.3336 -0.5853 -0.2891
17355SOL    HW164538   7.588   6.743   8.015  0.0457  0.1031 -0.0168
17355SOL    HW264539   7.517   6.841   8.125 -1.0816 -0.5936 -0.1125
17356SOL     OW64540   2.891   5.922   8.500  0.3792 -0.0699  0.0742
17356SOL    HW164541   2.880   6.000   8.561  1.7685  0.3304 -0.1682
17356SOL    HW264542   2.982   5.924   8.460  0.1077 -1.3283 -0.6283
17357SOL     OW64543   6.384   0.174   6.995  0.7233  0.2306  0.4887
17357SOL    HW164544   6.390   0.095   7.057 -0.6579 -0.7354 -0.5667
17357SOL    HW264545   6.370   0.141   6.902  0.0322  1.7423  0.0481
17358SOL     OW64546   5.518   7.774   0.879 -0.2800 -0.2095  0.4205
17358SOL    HW164547   5.578   7.854   0.869 -0.4989 -0.3577 -2.4137
17358SOL    HW264548   5.439   7.798   0.936 -0.8123  1.8923 -1.1546
17359SOL     OW64549   3.678   7.323   3.390 -0.0359 -0.0496  0.0401
17359SOL    HW164550   3.688   7.224   3.379 -0.9940 -0.0489 -0.8829
17359SOL    HW264551   3.669   7.366   3.300  1.0048  0.9497  0.4041
17360SOL     OW64552   8.867   8.264   6.443  0.5160  0.5828  0.1098
17360SOL    HW164553   8.835   8.345   6.394 -0.5924  0.8124  1.1906
17360SOL    HW264554   8.814   8.184   6.415 -0.0561  0.6970  0.8589
17361SOL     OW64555   5.446   8.372   0.272 -0.0172  0.3042  0.5848
17361SOL    HW164556   5.523   8.418   0.317 -0.3692  1.0713  0.4210
17361SOL    HW264557   5.362   8.426   0.287 -0.6293 -0.8111  1.2309
17362SOL     OW64558   5.072   3.197   3.108 -0.4337 -0.0340  0.1051
17362SOL    HW164559   5.033   3.289   3.110 -3.4415 -1.2513  0.8048
17362SOL    HW264560   5.038   3.149   3.027 -0.5563 -1.1869  0.8366
17363SOL     OW64561   8.068   5.731   5.939 -0.4891  0.4063  0.2597
17363SOL    HW164562   8.052   5.788   5.858  1.3354 -0.2590 -0.6111
17363SOL    HW264563   8.074   5.635   5.911  1.1700  0.2607  1.0161
17364SOL     OW64564   5.376   7.030   5.733 -0.1810  0.6122  0.2452
17364SOL    HW164565   5.457   7.019   5.791  0.4415  0.6146 -0.6099
17364SOL    HW264566   5.326   6.944   5.730  1.5066 -0.3425 -1.7325
17365SOL     OW64567   5.885   7.335   4.852 -0.7558 -0.3993  0.1671
17365SOL    HW164568   5.872   7.262   4.920  0.2340 -0.8245 -0.0937
17365SOL    HW264569   5.812   7.403   4.863  0.4854  0.5765  2.9814
17366SOL     OW64570   7.745   6.431   3.677 -0.0466  0.1061  0.1614
17366SOL    HW164571   7.713   6.367   3.607 -3.0955 -0.2456  1.7715
17366SOL    HW264572   7.790   6.508   3.633 -0.3720 -0.9313 -2.0907
17367SOL     OW64573   6.830   0.301   2.968 -0.4927 -0.1438  0.2678
17367SOL    HW164574   6.894   0.232   2.934  0.5249  0.9132  0.0193
17367SOL    HW264575   6.741   0.290   2.922  0.4720  0.4113 -1.7752
17368SOL     OW64576   6.543   8.644   0.400 -0.3029 -0.4524  0.1029
17368SOL    HW164577   6.497   8.563   0.436  0.1338 -0.3198  0.9680
17368SOL    HW264578   6.534   8.719   0.465  0.5221 -0.2128 -0.0611
17369SOL     OW64579   6.582   7.110   2.175 -0.0459 -0.6614 -0.1280
17369SOL    HW164580   6.605   7.016   2.198  0.3614 -0.6079 -0.3131
17369SOL    HW264581   6.628   7.136   2.090  0.9267  0.1403  0.6322
17370SOL     OW64582   5.807   1.270   2.212 -0.5379 -0.0058 -0.1636
17370SOL    HW164583   5.801   1.203   2.137  1.8792 -0.0419 -0.3527
17370SOL    HW264584   5.775   1.359   2.180 -0.4084 -0.2444 -0.9679
17371SOL     OW64585   1.912   0.273   2.021 -0.2871  0.0194  0.1358
17371SOL    HW164586   1.946   0.341   1.956  0.9445  0.6545  1.4150
17371SOL    HW264587   1.812   0.276   2.024 -0.3286  0.4610 -1.2016
17372SOL     OW64588   0.667   2.081   8.390  0.0187 -0.2642  1.1991
17372SOL    HW164589   0.607   2.003   8.408 -0.4840 -0.1895 -0.1255
17372SOL    HW264590   0.620   2.166   8.414 -0.3153 -0.2249  0.4280
17373SOL     OW64591   5.218   3.341   5.545  0.0715 -0.4329 -0.2813
17373SOL    HW164592   5.142   3.298   5.497 -1.6480  1.2662  0.8867
17373SOL    HW264593   5.185   3.388   5.626  2.2706  0.9556 -0.1404
17374SOL     OW64594   5.599   6.565   8.489 -0.1386  0.5688  0.1755
17374SOL    HW164595   5.503   6.581   8.464 -0.1241  1.4350  0.6402
17374SOL    HW264596   5.604   6.490   8.555 -0.3231 -0.6761 -1.2089
17375SOL     OW64597   1.856   2.452   4.223  0.5365 -0.3946 -0.1915
17375SOL    HW164598   1.890   2.545   4.235 -0.6142 -0.0154  0.1555
17375SOL    HW264599   1.863   2.427   4.127 -1.3728  0.9318 -0.6942
17376SOL     OW64600   0.491   4.100   8.703  0.0276 -0.1679  0.4110
17376SOL    HW164601   0.472   4.173   8.637  0.7252 -1.0107 -0.7319
17376SOL    HW264602   0.577   4.120   8.751 -0.3113  0.2759  0.8464
17377SOL     OW64603   5.770   4.580   0.563  0.2346  0.1965 -0.4264
17377SOL    HW164604   5.731   4.655   0.616 -0.0348  0.6921 -1.3112
17377SOL    HW264605   5.839   4.532   0.618 -0.2080  0.5511  0.4417
17378SOL     OW64606   3.166   6.647   1.104 -0.9421 -0.4788  0.3366
17378SOL    HW164607   3.162   6.708   1.184 -0.6200 -1.6591  1.2637
17378SOL    HW264608   3.180   6.553   1.135  0.6102 -0.7718 -1.1781
17379SOL     OW64609   7.902   3.695   6.420 -0.7605  0.0864  0.0452
17379SOL    HW164610   7.956   3.771   6.455 -0.2653  0.0839 -0.7141
17379SOL    HW264611   7.827   3.676   6.484  0.3297 -0.1445  1.2799
17380SOL     OW64612   4.790   6.811   6.654  0.2960 -0.2771  0.6920
17380SOL    HW164613   4.879   6.804   6.609 -0.8938 -0.4098 -1.7126
17380SOL    HW264614   4.788   6.894   6.710  2.0787 -0.4913  1.0839
17381SOL     OW64615   0.616   7.255   1.356 -0.3754 -0.2156 -0.2292
17381SOL    HW164616   0.602   7.239   1.258 -0.8148  1.3148 -0.4231
17381SOL    HW264617   0.593   7.350   1.378 -2.7706 -1.2191  1.8368
17382SOL     OW64618   2.584   5.849   4.739 -0.5140  0.4384  0.2557
17382SOL    HW164619   2.487   5.825   4.735 -0.4054 -0.1051  0.9285
17382SOL    HW264620   2.639   5.768   4.719 -0.1680  0.3165  1.6533
17383SOL     OW64621   6.275   0.343   8.685 -0.2822 -0.0447 -0.3760
17383SOL    HW164622   6.287   0.293   8.600  1.6017  0.2916 -0.3353
17383SOL    HW264623   6.314   0.289   8.761 -0.0053  0.5958 -0.0563
17384SOL     OW64624   7.153   7.283   0.273 -0.2474 -0.2983  0.5504
17384SOL    HW164625   7.098   7.211   0.231 -0.1583  0.4287 -0.8359
17384SOL    HW264626   7.249   7.271   0.247 -0.4019  1.0124 -0.7272
17385SOL     OW64627   1.348   4.771   3.669  0.5228 -0.2197  0.0846
17385SOL    HW164628   1.326   4.774   3.571  0.8870 -1.5359 -0.0416
17385SOL    HW264629   1.324   4.681   3.705  1.1887 -0.0181  1.0250
17386SOL     OW64630   4.426   1.677   2.531  0.0372 -0.1029  0.0738
17386SOL    HW164631   4.454   1.750   2.594  0.5393  2.9725 -3.5510
17386SOL    HW264632   4.334   1.696   2.497 -0.5712 -2.1946  0.4872
17387SOL     OW64633   4.891   7.811   4.017  0.4472 -0.1378 -0.2253
17387SOL    HW164634   4.791   7.810   4.008  0.2708  1.5754  1.4137
17387SOL    HW264635   4.929   7.740   3.958 -1.8300 -1.9009  0.3203
17388SOL     OW64636   1.305   3.341   1.745  0.2673 -0.2012  0.6036
17388SOL    HW164637   1.296   3.291   1.831  0.4112 -0.6354  0.3678
17388SOL    HW264638   1.217   3.385   1.723 -0.1023 -1.0429  0.3869
17389SOL     OW64639   3.597   0.985   0.523  0.5865 -0.3442 -0.2226
17389SOL    HW164640   3.622   0.984   0.620  0.9896 -0.7431 -0.3219
17389SOL    HW264641   3.499   0.971   0.513  0.7254 -1.6238  0.0884
17390SOL     OW64642   1.928   0.072   1.594 -0.0648 -0.3218 -0.1034
17390SOL    HW164643   2.008   0.132   1.592  0.2944 -0.7054  1.8243
17390SOL    HW264644   1.927   0.021   1.680 -1.8416 -1.0678 -0.5489
17391SOL     OW64645   6.503   0.524   3.593  0.6504  0.0956 -0.3995
17391SOL    HW164646   6.486   0.617   3.627  3.1087  0.0219  1.1595
17391SOL    HW264647   6.554   0.529   3.507  0.1764  0.1714 -0.6826
17392SOL     OW64648   5.106   4.979   2.118 -0.1428  0.0626 -0.1930
17392SOL    HW164649   5.046   4.948   2.193  0.1703 -0.3231 -0.0991
17392SOL    HW264650   5.058   4.968   2.031 -0.4990  0.4852 -0.0534
17393SOL     OW64651   1.234   3.081   7.310  0.2597 -0.1954 -0.1667
17393SOL    HW164652   1.205   3.173   7.286  0.2543  0.0746  0.8470
17393SOL    HW264653   1.228   3.069   7.409 -0.1304 -1.4149 -0.3247
17394SOL     OW64654   4.709   4.424   8.072 -0.4776 -0.2626 -0.7192
17394SOL    HW164655   4.740   4.332   8.047 -0.1989 -0.1075 -0.9546
17394SOL    HW264656   4.781   4.489   8.049 -0.9707  0.1040 -1.2470
17395SOL     OW64657   0.256   3.068   5.745 -0.4899  0.2855  0.2338
17395SOL    HW164658   0.334   3.061   5.683  0.0530 -0.9431  1.0275
17395SOL    HW264659   0.250   3.162   5.780  2.3386 -0.1981  2.2701
17396SOL     OW64660   6.590   1.469   7.779 -0.7186  0.4614 -0.2556
17396SOL    HW164661   6.557   1.523   7.701  0.6722  1.2169 -0.3379
17396SOL    HW264662   6.690   1.469   7.779 -0.7127  0.2728  1.4090
17397SOL     OW64663   4.183   7.406   3.402  0.4893 -0.1841  0.4478
17397SOL    HW164664   4.181   7.370   3.495 -1.3095  0.9899  0.8977
17397SOL    HW264665   4.090   7.420   3.370  1.0634 -1.6505 -1.9815
17398SOL     OW64666   8.522   7.046   5.552  0.5859  0.3675 -0.0809
17398SOL    HW164667   8.622   7.044   5.556  0.4836 -0.7276  2.6586
17398SOL    HW264668   8.492   6.998   5.470  2.2807 -0.2027 -0.4014
17399SOL     OW64669   6.219   5.039   5.156  0.2509 -0.3904 -0.1613
17399SOL    HW164670   6.275   5.034   5.074  1.1434  0.5680  0.3752
17399SOL    HW264671   6.263   5.099   5.223 -1.7174  0.8926  0.0356
17400SOL     OW64672   5.049   1.213   1.743 -0.2807  0.0785  0.2826
17400SOL    HW164673   5.135   1.262   1.759 -0.4958 -0.0608  1.9373
17400SOL    HW264674   4.979   1.247   1.806 -0.7821 -1.4507  0.5757
17401SOL     OW64675   4.168   5.953   6.367 -0.0406  0.5042  0.1690
17401SOL    HW164676   4.167   5.989   6.274 -0.2462 -0.8942 -0.3700
17401SOL    HW264677   4.080   5.974   6.412 -0.7245 -0.5895 -0.6359
17402SOL     OW64678   7.644   4.978   6.616  0.0623 -0.0027  0.2368
17402SOL    HW164679   7.702   5.022   6.547  0.7869 -0.6387  0.4384
17402SOL    HW264680   7.633   5.039   6.694  1.2071 -0.2286  0.5892
17403SOL     OW64681   7.418   7.632   1.431 -0.5562 -0.0878 -0.0371
17403SOL    HW164682   7.470   7.716   1.414  0.6212 -0.6479  0.7492
17403SOL    HW264683   7.325   7.643   1.396 -0.7433  1.9517  1.0202
17404SOL     OW64684   8.812   3.902   4.017  1.2316  0.1676 -0.4043
17404SOL    HW164685   8.872   3.890   4.096 -1.6595  0.9425  2.0579
17404SOL    HW264686   8.757   3.985   4.030  0.1153 -0.1347 -2.8694
17405SOL     OW64687   6.132   4.159   2.237 -0.0124  0.4984  0.1605
17405SOL    HW164688   6.168   4.252   2.249 -0.8106  0.7212  0.8441
17405SOL    HW264689   6.042   4.164   2.194  0.5596 -0.0377 -1.1212
17406SOL     OW64690   7.489   2.590   1.073  0.0911  0.7228 -0.4105
17406SOL    HW164691   7.446   2.511   1.116 -0.0692  1.6455  1.1586
17406SOL    HW264692   7.584   2.597   1.103  0.7987 -0.1672 -2.3318
17407SOL     OW64693   7.813   0.895   8.225 -0.5988  0.1636 -0.1960
17407SOL    HW164694   7.843   0.914   8.318  1.5603 -0.6010 -0.7073
17407SOL    HW264695   7.762   0.974   8.190  0.3266  1.2822  0.9194
17408SOL     OW64696   4.499   0.349   3.768 -0.0770  0.2579  0.1460
17408SOL    HW164697   4.442   0.303   3.700  0.0446 -0.0630  0.2588
17408SOL    HW264698   4.482   0.309   3.858  0.8119 -0.2927  0.0788
17409SOL     OW64699   3.244   4.829   6.943  0.5043 -0.1835 -0.2379
17409SOL    HW164700   3.230   4.734   6.916  0.4547 -1.0343  2.5875
17409SOL    HW264701   3.325   4.835   7.002  2.2342  2.0204 -2.7393
17410SOL     OW64702   2.749   3.598   7.525  0.5395 -0.0919  0.3655
17410SOL    HW164703   2.756   3.592   7.624  0.7606  0.7879  0.4093
17410SOL    HW264704   2.722   3.691   7.499  0.7439 -0.2442 -0.4085
17411SOL     OW64705   0.364   1.362   0.526 -0.0421 -0.5585  0.5018
17411SOL    HW164706   0.442   1.309   0.493  0.6448  0.8841 -0.2392
17411SOL    HW264707   0.396   1.450   0.561 -1.4245  0.4450 -0.6863
17412SOL     OW64708   0.729   3.287   8.742 -0.0395 -0.7657  0.2487
17412SOL    HW164709   0.804   3.318   8.801  0.0484  2.1835 -1.3098
17412SOL    HW264710   0.642   3.295   8.790  0.0493  1.4867  0.0949
17413SOL     OW64711   1.099   3.531   6.034 -0.5394 -0.0165 -0.5707
17413SOL    HW164712   1.063   3.465   6.099  0.6017 -0.5317 -0.4514
17413SOL    HW264713   1.152   3.601   6.083  0.6628 -0.6321 -0.9583
17414SOL     OW64714   5.393   5.127   1.310  0.2554 -0.2620  0.0251
17414SOL    HW164715   5.490   5.150   1.316  0.5987 -2.0090  1.4370
17414SOL    HW264716   5.375   5.080   1.224  0.1820  2.1514 -1.3279
17415SOL     OW64717   2.436   0.198   5.543  0.5179 -0.3044  0.8247
17415SOL    HW164718   2.425   0.099   5.542  1.0462 -0.3616  0.7675
17415SOL    HW264719   2.354   0.241   5.505  1.0837 -0.7803 -0.9479
17416SOL     OW64720   4.799   4.222   8.891 -0.4300  0.4285  0.1753
17416SOL    HW164721   4.844   4.310   8.905 -1.3976  0.7026  1.6818
17416SOL    HW264722   4.705   4.237   8.860 -0.0227 -0.1074 -1.3301
17417SOL     OW64723   2.583   7.018   4.267  0.1119  0.5903 -0.5204
17417SOL    HW164724   2.650   7.077   4.311  0.8367 -1.0633  0.6494
17417SOL    HW264725   2.587   7.030   4.168  0.0474  2.6858 -0.2776
17418SOL     OW64726   3.453   2.867   1.656 -0.5512  0.0620 -0.6953
17418SOL    HW164727   3.513   2.941   1.625  0.1570 -0.3592 -0.3570
17418SOL    HW264728   3.365   2.904   1.685  0.4190  0.9864  1.1320
17419SOL     OW64729   8.520   1.027   5.762  0.0223  0.1491  0.1769
17419SOL    HW164730   8.559   0.956   5.821 -0.7296 -0.3751  0.0373
17419SOL    HW264731   8.573   1.033   5.677  0.2841 -0.0119  0.3276
17420SOL     OW64732   8.896   3.031   6.376  0.3882  0.3314 -0.1036
17420SOL    HW164733   8.913   3.024   6.278 -0.0451  0.3837 -0.1804
17420SOL    HW264734   8.814   2.980   6.400  1.0323 -0.4885  0.3836
17421SOL     OW64735   4.760   0.846   7.606  0.1731 -0.9988  0.1541
17421SOL    HW164736   4.817   0.926   7.625  1.8965 -2.9325  3.7290
17421SOL    HW264737   4.666   0.863   7.637  0.4419 -0.2265  0.5497
17422SOL     OW64738   5.619   5.512   3.424 -0.2957  0.6941  0.0455
17422SOL    HW164739   5.650   5.531   3.331  0.9040 -1.6284 -0.0642
17422SOL    HW264740   5.522   5.533   3.431 -0.8088 -0.6722 -2.2302
17423SOL     OW64741   0.413   3.706   8.780 -0.5137  0.3978 -0.3124
17423SOL    HW164742   0.414   3.677   8.685 -0.2516  0.9005 -0.4609
17423SOL    HW264743   0.350   3.782   8.792 -0.9867 -0.0365  0.0292
17424SOL     OW64744   6.276   6.976   0.655  0.1552 -0.0315  0.1883
17424SOL    HW164745   6.219   6.910   0.607 -1.7910  0.2393  2.0440
17424SOL    HW264746   6.279   7.062   0.604  1.7927 -1.1600 -1.6729
17425SOL     OW64747   1.627   7.292   8.557  0.2579  0.0596  0.5391
17425SOL    HW164748   1.583   7.320   8.472  2.6240  0.6309 -0.5516
17425SOL    HW264749   1.574   7.220   8.601 -0.9378 -0.3075 -1.4816
17426SOL     OW64750   7.032   8.914   0.063  0.5258  0.5235  0.3942
17426SOL    HW164751   7.064   8.851   0.135 -0.7369 -1.8466 -1.0437
17426SOL    HW264752   7.110   8.955   0.017  1.3616  0.7090  1.9519
17427SOL     OW64753   7.910   7.143   0.635  0.5354  0.5869 -0.6253
17427SOL    HW164754   7.996   7.186   0.607  1.0058  0.5835  0.7903
17427SOL    HW264755   7.859   7.206   0.694 -0.7061  0.8167 -1.9173
17428SOL     OW64756   0.279   6.911   0.849 -0.2785  0.0564  0.4008
17428SOL    HW164757   0.189   6.912   0.893 -0.3668  0.4703  0.2091
17428SOL    HW264758   0.268   6.920   0.750 -0.1316 -1.6635  0.2006
17429SOL     OW64759   4.998   8.175   1.720 -0.1705 -0.9053 -0.7674
17429SOL    HW164760   5.034   8.117   1.793  0.4445 -1.4263 -1.4783
17429SOL    HW264761   4.932   8.239   1.758  1.2565 -0.1484  0.5184
17430SOL     OW64762   1.209   6.949   6.215  0.0155 -0.6352 -0.9812
17430SOL    HW164763   1.167   6.986   6.132 -2.7203  2.2371  1.5698
17430SOL    HW264764   1.274   7.015   6.251 -1.7122 -0.0970  1.2570
17431SOL     OW64765   1.267   6.860   3.256 -0.1417  0.4420  0.3929
17431SOL    HW164766   1.189   6.922   3.251 -0.6242 -0.0766  1.4969
17431SOL    HW264767   1.338   6.901   3.314 -0.2377  0.2029  0.6782
17432SOL     OW64768   4.671   5.853   6.886 -0.4397 -0.2727 -0.8731
17432SOL    HW164769   4.685   5.827   6.982 -1.9682  2.4629  0.1708
17432SOL    HW264770   4.757   5.885   6.847 -0.4092  1.5488  0.6004
17433SOL     OW64771   6.892   6.178   1.117 -0.2696  0.6259  0.1864
17433SOL    HW164772   6.922   6.271   1.093 -0.8878  0.8344  0.2283
17433SOL    HW264773   6.969   6.129   1.158  0.0654  1.1163  0.1572
17434SOL     OW64774   6.322   6.726   6.395 -0.2634 -0.1715 -0.3778
17434SOL    HW164775   6.356   6.809   6.440 -1.5108 -0.8116  1.8423
17434SOL    HW264776   6.239   6.748   6.344 -0.0218  0.1433 -0.6388
17435SOL     OW64777   5.728   7.803   1.687 -0.3557 -0.3243  0.2217
17435SOL    HW164778   5.718   7.733   1.758  2.2544 -0.3689  0.5634
17435SOL    HW264779   5.786   7.769   1.613  0.2592  1.1678  0.0021
17436SOL     OW64780   5.570   6.214   1.587  0.1230  0.0028  0.0123
17436SOL    HW164781   5.662   6.221   1.625 -0.0593 -2.9474  1.1247
17436SOL    HW264782   5.530   6.305   1.579  2.2687  1.1273  1.6635
17437SOL     OW64783   1.756   7.693   7.240 -0.2642  0.2546  0.0489
17437SOL    HW164784   1.848   7.697   7.279 -0.1994  0.4205 -0.1170
17437SOL    HW264785   1.689   7.696   7.313 -0.1614  1.5430  0.1154
17438SOL     OW64786   5.175   8.400   4.354 -0.3757  0.0583 -0.1777
17438SOL    HW164787   5.274   8.416   4.358 -0.5904  1.3058  0.4984
17438SOL    HW264788   5.149   8.374   4.261  0.6921 -1.0314 -0.1911
17439SOL     OW64789   0.355   8.926   0.762 -0.0303 -0.3978  0.7368
17439SOL    HW164790   0.299   9.009   0.769  1.9474  1.1785 -1.1915
17439SOL    HW264791   0.451   8.950   0.774  0.4531 -2.7178  1.8143
17440SOL     OW64792   2.958   6.480   0.944  0.3681  0.6354 -0.0200
17440SOL    HW164793   3.023   6.555   0.953  0.4470  0.3586  1.9023
17440SOL    HW264794   2.927   6.451   1.035  1.3376 -2.5349 -0.6068
17441SOL     OW64795   6.863   0.295   7.814  0.1880 -0.3197 -0.4087
17441SOL    HW164796   6.949   0.283   7.865 -0.5857  0.7699  1.1870
17441SOL    HW264797   6.797   0.227   7.844 -0.4130  0.5972  0.3636
17442SOL     OW64798   4.333   7.726   7.793  0.8788 -0.3637 -0.3435
17442SOL    HW164799   4.307   7.820   7.772  1.5886  0.7498  3.3940
17442SOL    HW264800   4.355   7.718   7.890 -0.2718 -4.6624 -0.3239
17443SOL     OW64801   0.067   1.403   0.161 -0.0217 -0.0330  0.3109
17443SOL    HW164802   0.016   1.485   0.187  0.6849 -0.7884  4.4544
17443SOL    HW264803   0.004   1.325   0.154 -0.1382  0.0620  0.3002
17444SOL     OW64804   1.151   7.039   1.203 -0.1354  0.4805  0.1566
17444SOL    HW164805   1.072   6.979   1.195 -1.0830  1.7929 -0.5442
17444SOL    HW264806   1.233   6.985   1.221 -1.0233 -0.9820 -0.1693
17445SOL     OW64807   6.373   6.295   7.822 -0.0052  0.1871 -0.6783
17445SOL    HW164808   6.296   6.354   7.799 -0.2440 -0.5079 -1.6640
17445SOL    HW264809   6.345   6.199   7.816  0.8428 -0.0618 -0.7034
17446SOL     OW64810   1.825   1.344   7.691  0.3389  0.3198 -0.3468
17446SOL    HW164811   1.810   1.434   7.734 -0.0307  0.7868 -1.4342
17446SOL    HW264812   1.752   1.327   7.625  0.9032 -0.4062 -0.7819
17447SOL     OW64813   1.764   4.050   1.248 -0.9905 -0.1580 -0.1462
17447SOL    HW164814   1.753   4.147   1.272  0.8450  0.4441 -1.6357
17447SOL    HW264815   1.782   4.042   1.150 -1.5351 -2.0574 -0.1020
17448SOL     OW64816   1.803   1.289   1.863  0.3717 -0.0081 -0.1223
17448SOL    HW164817   1.814   1.208   1.805  3.2697 -0.4802  1.0130
17448SOL    HW264818   1.856   1.277   1.947 -2.0620  1.5678  1.6976
17449SOL     OW64819   8.321   0.263   1.005  0.2329  0.3051  0.4438
17449SOL    HW164820   8.305   0.349   1.054 -0.2488  1.2416 -1.3230
17449SOL    HW264821   8.419   0.250   0.992  0.3194  0.4789  0.9067
17450SOL     OW64822   6.718   7.269   6.046  0.0270 -0.0208  0.3974
17450SOL    HW164823   6.642   7.265   5.981  0.9021 -1.5481 -0.5833
17450SOL    HW264824   6.760   7.360   6.042 -0.6854  0.2892 -0.2874
17451SOL     OW64825   3.835   0.875   8.473 -0.1377 -0.5135 -1.0422
17451SOL    HW164826   3.778   0.954   8.452  0.4175  0.2470  0.2331
17451SOL    HW264827   3.931   0.903   8.478 -0.2130 -0.6628  2.2252
17452SOL     OW64828   7.543   8.505   7.124 -0.6095 -0.4240  0.0573
17452SOL    HW164829   7.610   8.577   7.141  0.2421 -1.1096 -0.3244
17452SOL    HW264830   7.508   8.470   7.211 -0.5330 -0.0094  0.2551
17453SOL     OW64831   6.689   8.870   0.958  0.7386 -0.4481  0.2140
17453SOL    HW164832   6.788   8.877   0.956  1.0118 -3.9061 -1.1957
17453SOL    HW264833   6.655   8.857   0.865 -0.7007 -2.9371  1.0489
17454SOL     OW64834   3.331   7.028   0.825 -0.5083 -0.1562  0.3012
17454SOL    HW164835   3.391   7.042   0.746  0.6807 -1.2627  0.9913
17454SOL    HW264836   3.285   6.940   0.816 -1.4021  0.3200  0.1866
17455SOL     OW64837   6.662   7.904   1.164 -0.4279  0.0104  0.4826
17455SOL    HW164838   6.675   7.915   1.066 -2.8434  0.8537  0.2413
17455SOL    HW264839   6.648   7.993   1.207 -1.3328 -0.5176  1.3023
17456SOL     OW64840   0.112   3.078   1.098  0.4414  0.5975  0.3725
17456SOL    HW164841   0.022   3.050   1.130  1.4453 -2.1254  0.9755
17456SOL    HW264842   0.176   3.080   1.175  1.7778 -1.3004 -0.6488
17457SOL     OW64843   4.641   6.498   5.532 -0.3878  0.5526 -0.3414
17457SOL    HW164844   4.692   6.583   5.519 -1.5728  1.3644  0.1921
17457SOL    HW264845   4.637   6.476   5.630 -2.0325  1.1411 -0.2543
17458SOL     OW64846   7.053   8.427   1.607  0.1365  0.1513 -0.4453
17458SOL    HW164847   6.988   8.472   1.545 -0.8438  1.1334  1.2539
17458SOL    HW264848   7.103   8.356   1.557  0.2552  1.7530 -2.6602
17459SOL     OW64849   3.867   4.158   7.748 -0.3062  0.0812 -0.0815
17459SOL    HW164850   3.939   4.102   7.789  0.9115  0.4596 -1.6702
17459SOL    HW264851   3.777   4.126   7.780  0.4246 -1.9948 -0.0572
17460SOL     OW64852   2.538   6.948   8.546 -0.1007 -0.3377  0.0715
17460SOL    HW164853   2.587   6.863   8.568 -0.2710 -0.3953  0.2242
17460SOL    HW264854   2.497   6.985   8.629 -0.4239 -0.3535 -0.0818
17461SOL     OW64855   1.919   7.596   4.731 -0.2521 -0.6282  0.0516
17461SOL    HW164856   2.018   7.614   4.727 -0.2416 -0.8717 -0.9115
17461SOL    HW264857   1.870   7.683   4.730 -0.0705 -0.5289 -0.1958
17462SOL     OW64858   8.554   3.434   5.447 -0.7262 -0.0683 -0.2199
17462SOL    HW164859   8.650   3.461   5.450 -0.6899 -0.3139  1.0742
17462SOL    HW264860   8.525   3.421   5.352  0.0195  1.7668 -0.6974
17463SOL     OW64861   0.950   3.654   0.025  0.0517  0.2481 -0.0016
17463SOL    HW164862   0.939   3.593   0.103 -0.1474 -0.8586 -0.8763
17463SOL    HW264863   0.890   3.624  -0.050 -0.0665  1.5298 -0.4375
17464SOL     OW64864   4.517   1.822   4.417 -0.3111  1.1135  0.2220
17464SOL    HW164865   4.542   1.918   4.433 -3.1656  1.8526  0.5628
17464SOL    HW264866   4.547   1.766   4.494 -1.0510  2.2122  1.3262
17465SOL     OW64867   2.312   8.283   8.810  0.3062 -0.1597 -0.2034
17465SOL    HW164868   2.370   8.365   8.812 -0.3197  0.2703  0.3631
17465SOL    HW264869   2.228   8.302   8.759 -0.6663  0.1040  1.4822
17466SOL     OW64870   0.512   8.827   5.064  0.5885 -0.3018 -0.1013
17466SOL    HW164871   0.577   8.840   4.989  2.0356 -1.8110  0.8415
17466SOL    HW264872   0.543   8.879   5.144  0.5831 -0.9344  0.3152
17467SOL     OW64873   6.272   7.846   7.706  0.4925  0.1665  0.1231
17467SOL    HW164874   6.190   7.796   7.732 -0.2586  0.9150 -0.7236
17467SOL    HW264875   6.258   7.944   7.725 -0.0947  0.7402 -2.9544
17468SOL     OW64876   4.463   5.519   6.716 -0.4956 -0.4127  0.1618
17468SOL    HW164877   4.497   5.611   6.695  0.1676 -0.8793 -0.8490
17468SOL    HW264878   4.490   5.494   6.809  2.0510 -0.8281 -0.6659
17469SOL     OW64879   2.450   1.204   6.346  0.2486 -0.2105 -0.0432
17469SOL    HW164880   2.366   1.235   6.391 -0.4216 -1.9870 -0.0139
17469SOL    HW264881   2.466   1.257   6.263 -1.5192 -0.5977 -0.6509
17470SOL     OW64882   4.487   4.687   5.487  0.4382 -0.5889  0.0991
17470SOL    HW164883   4.540   4.660   5.406  0.3841 -0.4859  0.0303
17470SOL    HW264884   4.549   4.702   5.564  0.7346  1.7529 -0.5538
17471SOL     OW64885   5.635   3.648   5.953 -0.0126 -0.6112 -0.6545
17471SOL    HW164886   5.716   3.694   5.988  0.1142 -0.3302 -1.3042
17471SOL    HW264887   5.556   3.671   6.009  0.7623 -2.6380  1.3283
17472SOL     OW64888   5.640   0.314   6.993 -0.2002  0.3435  0.0219
17472SOL    HW164889   5.555   0.352   7.028 -0.2692  0.2892 -0.0846
17472SOL    HW264890   5.648   0.218   7.020 -1.7929 -0.6322 -2.8033
17473SOL     OW64891   3.025   8.576   7.669 -0.1681 -0.2895 -0.1667
17473SOL    HW164892   3.061   8.509   7.733  1.7036  0.1949 -0.6735
17473SOL    HW264893   3.099   8.638   7.640 -1.8255  1.9987  0.3032
17474SOL     OW64894   4.152   6.626   2.251 -0.3255 -0.0354  0.2062
17474SOL    HW164895   4.176   6.716   2.213 -0.5520  0.1267  0.4418
17474SOL    HW264896   4.134   6.636   2.350 -3.2126  0.2244 -0.2928
17475SOL     OW64897   4.783   6.425   2.308  0.0255  0.0726  0.2303
17475SOL    HW164898   4.851   6.488   2.345  1.7731 -1.9513  0.5665
17475SOL    HW264899   4.711   6.410   2.376 -0.6321  1.9643 -0.0056
17476SOL     OW64900   4.481   7.096   6.886  0.1520  0.1234  0.2244
17476SOL    HW164901   4.501   7.049   6.801  1.7761  2.7614 -0.9039
17476SOL    HW264902   4.546   7.066   6.957  0.1949 -0.4521 -0.0552
17477SOL     OW64903   4.093   8.815   0.931  0.0613 -0.7909 -0.0527
17477SOL    HW164904   4.083   8.728   0.979  0.8770 -1.0388 -0.3252
17477SOL    HW264905   4.095   8.799   0.832 -0.4467 -0.3991 -0.1267
17478SOL     OW64906   3.263   2.821   3.250  0.2260 -0.0580 -0.1311
17478SOL    HW164907   3.224   2.818   3.158  1.0209 -0.5771 -0.4537
17478SOL    HW264908   3.189   2.835   3.317 -0.5136 -1.1101 -0.7219
17479SOL     OW64909   4.302   1.366   7.235  0.6010  0.1992  0.2199
17479SOL    HW164910   4.343   1.431   7.170  0.6446 -0.7556 -0.7247
17479SOL    HW264911   4.236   1.308   7.187  0.5736 -0.4624  1.0459
17480SOL     OW64912   3.765   8.516   0.411  0.0870  0.0911  0.5529
17480SOL    HW164913   3.748   8.466   0.496  1.4354  0.4845  1.0719
17480SOL    HW264914   3.773   8.613   0.431 -2.8545  0.5917 -0.4974
17481SOL     OW64915   7.065   5.770   6.281 -0.6458 -0.2381 -0.2379
17481SOL    HW164916   7.108   5.696   6.228  0.3267  0.8131 -0.9479
17481SOL    HW264917   7.133   5.811   6.341 -1.3893 -0.4446  0.7468
17482SOL     OW64918   7.201   7.368   8.283 -0.5662  0.1030  0.3867
17482SOL    HW164919   7.138   7.390   8.209 -0.1773  2.1661  0.6199
17482SOL    HW264920   7.168   7.288   8.333 -0.9658 -1.1546 -1.8334
17483SOL     OW64921   0.142   7.969   7.168 -0.2914  0.2270  0.2591
17483SOL    HW164922   0.226   7.961   7.223 -0.4201 -0.5950  0.3341
17483SOL    HW264923   0.103   8.060   7.181  1.1972  1.0205 -0.6399
17484SOL     OW64924   1.149   1.698   5.293 -0.4448 -0.1746  0.2767
17484SOL    HW164925   1.231   1.642   5.301  0.5524  1.3296  0.9303
17484SOL    HW264926   1.170   1.792   5.320 -2.4274  0.2033  0.6193
17485SOL     OW64927   3.065   8.161   5.889 -0.3274 -0.1019 -0.4274
17485SOL    HW164928   3.081   8.248   5.843  2.1486 -0.3998 -0.1932
17485SOL    HW264929   3.035   8.092   5.823  0.7474  0.1274 -1.1581
17486SOL     OW64930   1.016   2.487   6.857 -0.2766  0.3653  0.2051
17486SOL    HW164931   1.101   2.451   6.819 -1.7575 -1.0244 -1.8741
17486SOL    HW264932   0.939   2.430   6.827 -2.3138  3.4253 -0.6139
17487SOL     OW64933   8.042   3.021   0.179  0.2153 -0.2759 -0.6697
17487SOL    HW164934   8.056   3.026   0.081  1.0401  1.0287 -0.4923
17487SOL    HW264935   8.120   2.975   0.222  0.0462 -0.4813 -0.5780
17488SOL     OW64936   5.827   6.398   1.352  0.1750  0.2777 -0.0936
17488SOL    HW164937   5.741   6.414   1.302 -0.3049 -0.9329  0.3282
17488SOL    HW264938   5.847   6.477   1.410  0.5131  1.5213 -1.8672
17489SOL     OW64939   3.558   7.485   7.722  0.2127 -0.3502 -0.0793
17489SOL    HW164940   3.545   7.569   7.669  1.0604 -1.7751 -2.6116
17489SOL    HW264941   3.655   7.465   7.729 -0.0272 -1.6014 -0.2755
17490SOL     OW64942   8.392   3.886   5.015  0.2778 -0.3796  0.2130
17490SOL    HW164943   8.392   3.889   4.915 -0.1445  2.1486  0.2625
17490SOL    HW264944   8.486   3.891   5.049  0.4610 -1.8353 -0.0550
17491SOL     OW64945   3.059   8.299   4.395  0.3179 -0.3974  0.5457
17491SOL    HW164946   3.104   8.218   4.433 -1.5507 -0.1963  3.4156
17491SOL    HW264947   3.120   8.377   4.401  0.0192 -0.3333  3.4764
17492SOL     OW64948   3.204   1.741   8.086 -0.4346 -0.0901  0.5904
17492SOL    HW164949   3.233   1.755   7.991 -1.2273  0.0457  0.3651
17492SOL    HW264950   3.204   1.828   8.135  1.4888 -0.3851  1.1573
17493SOL     OW64951   2.730   7.065   5.701  0.5405 -0.3803 -0.0518
17493SOL    HW164952   2.811   7.035   5.752  0.1574  0.9435  1.3893
17493SOL    HW264953   2.660   6.994   5.705  0.5772 -0.3549  1.1345
17494SOL     OW64954   0.228   6.935   0.571  0.0293  0.3366 -0.0214
17494SOL    HW164955   0.231   6.902   0.477  0.0644 -0.9685  0.4231
17494SOL    HW264956   0.267   7.027   0.576  1.3086 -0.1467 -1.0390
17495SOL     OW64957   5.958   8.539   7.486 -0.0009 -0.0038  0.4031
17495SOL    HW164958   5.945   8.559   7.389 -0.6414 -0.6249  0.3545
17495SOL    HW264959   5.874   8.563   7.536 -1.4919 -4.1554  0.0951
17496SOL     OW64960   3.054   6.082   0.318  0.0434  0.2955 -0.6435
17496SOL    HW164961   2.965   6.046   0.347 -0.1111  0.0651 -1.3987
17496SOL    HW264962   3.105   6.113   0.399 -0.8186  0.6571 -0.2284
17497SOL     OW64963   6.126   7.282   1.788  0.6460  0.1135 -0.1622
17497SOL    HW164964   6.198   7.308   1.853  1.5065 -0.9031 -0.6953
17497SOL    HW264965   6.099   7.187   1.805 -0.4919  0.4497 -0.0519
17498SOL     OW64966   1.689   4.884   7.197 -0.0837  0.9690  0.1625
17498SOL    HW164967   1.677   4.936   7.112  0.1513  0.5968 -0.0963
17498SOL    HW264968   1.760   4.815   7.185 -0.3031  0.6706  0.5496
17499SOL     OW64969   8.301   4.982   2.311 -0.1947 -0.6327 -0.4429
17499SOL    HW164970   8.262   5.060   2.361  1.1304 -0.4572  0.3562
17499SOL    HW264971   8.244   4.960   2.232 -1.9749 -0.4910  0.7908
17500SOL     OW64972   8.259   6.993   4.985  0.2901 -0.2683 -0.3475
17500SOL    HW164973   8.339   7.038   5.026  0.8973  0.3779 -2.1706
17500SOL    HW264974   8.279   6.972   4.889 -1.1418 -1.6131 -0.3692
17501SOL     OW64975   0.705   7.339   7.168  0.2861 -0.1144  0.4606
17501SOL    HW164976   0.693   7.425   7.117  2.3351 -0.3413 -0.4364
17501SOL    HW264977   0.737   7.268   7.105  2.2856 -0.5617  1.9624
17502SOL     OW64978   0.587   4.679   6.877  0.4714 -0.4577  0.4379
17502SOL    HW164979   0.529   4.656   6.798 -1.7164  0.4702  1.7213
17502SOL    HW264980   0.678   4.640   6.864 -0.3774 -1.8184 -1.7268
17503SOL     OW64981   6.404   8.408   2.094 -0.0893 -0.2723  0.2329
17503SOL    HW164982   6.475   8.459   2.142  0.5888 -0.8778 -0.1311
17503SOL    HW264983   6.408   8.311   2.121  0.0691 -0.5503 -0.7820
17504SOL     OW64984   0.471   1.763   8.906  0.3077  0.3162  0.1765
17504SOL    HW164985   0.465   1.672   8.864 -2.6573  0.3066  0.5434
17504SOL    HW264986   0.479   1.753   9.005  0.4911  0.4654  0.1767
17505SOL     OW64987   4.137   3.545   2.158 -0.4508  0.4755 -0.3705
17505SOL    HW164988   4.038   3.536   2.150 -0.3711 -0.8930  0.0324
17505SOL    HW264989   4.173   3.593   2.078 -1.3782  0.5117 -0.7706
17506SOL     OW64990   1.412   1.666   8.991  0.1265  0.5250  0.2172
17506SOL    HW164991   1.449   1.684   9.081  0.6402  1.6364 -0.2005
17506SOL    HW264992   1.481   1.687   8.921 -0.0924 -0.8023 -0.4137
17507SOL     OW64993   0.090   5.445   1.366 -1.2007  0.0283 -0.0514
17507SOL    HW164994   0.056   5.468   1.457 -0.5667 -1.5510  0.5937
17507SOL    HW264995   0.188   5.425   1.371 -1.3394 -0.8931 -0.9391
17508SOL     OW64996   3.855   1.180   3.735  0.0163  0.3698 -0.0729
17508SOL    HW164997   3.842   1.139   3.825  1.5227  0.1368  0.0509
17508SOL    HW264998   3.910   1.118   3.678 -3.1303 -0.7474 -2.0738
17509SOL     OW64999   0.729   6.505   5.808 -0.1499 -0.2239 -0.5117
17509SOL    HW165000   0.801   6.440   5.786  0.6108  0.4532 -0.0194
17509SOL    HW265001   0.739   6.586   5.752 -1.2027 -0.5908 -1.2451
17510SOL     OW65002   8.321   2.832   5.294  0.1728  0.0995 -0.4492
17510SOL    HW165003   8.285   2.882   5.215 -0.4194  1.7130  0.8029
17510SOL    HW265004   8.303   2.884   5.377  0.4733 -1.7481  0.8037
17511SOL     OW65005   4.671   4.318   4.390 -0.2245  0.1596 -0.1336
17511SOL    HW165006   4.678   4.238   4.448 -0.2101 -0.5946 -1.1568
17511SOL    HW265007   4.576   4.332   4.363 -0.3923  1.1494  0.9531
17512SOL     OW65008   3.568   7.424   0.271 -0.4186  0.1084  0.0078
17512SOL    HW165009   3.533   7.514   0.298 -0.3107 -0.1664  1.0636
17512SOL    HW265010   3.492   7.359   0.267  0.0820 -0.7949  3.5367
17513SOL     OW65011   6.269   6.436   7.111  0.0047  0.2910  0.2400
17513SOL    HW165012   6.272   6.529   7.074 -0.6794  0.3041  0.2094
17513SOL    HW265013   6.185   6.391   7.081 -0.9798  0.5856  2.4544
17514SOL     OW65014   7.790   1.346   8.968  0.4534  0.2748 -0.0779
17514SOL    HW165015   7.726   1.271   8.982 -0.5333  0.8199 -1.5107
17514SOL    HW265016   7.818   1.383   9.057 -0.5780 -0.5057  0.5898
17515SOL     OW65017   7.252   3.519   0.195  0.2877 -0.0351 -0.1054
17515SOL    HW165018   7.223   3.463   0.118  0.3529  1.1099 -0.9807
17515SOL    HW265019   7.322   3.584   0.165  0.8343 -0.0604  1.0807
17516SOL     OW65020   8.382   4.739   0.981  0.0072  0.2438  0.3443
17516SOL    HW165021   8.385   4.642   1.007  0.3847  0.1999  0.1454
17516SOL    HW265022   8.472   4.766   0.947 -0.5903  0.2028 -1.3044
17517SOL     OW65023   5.255   0.255   2.646  0.1465 -0.3992  0.0864
17517SOL    HW165024   5.273   0.352   2.664 -1.1083 -0.1812  0.2246
17517SOL    HW265025   5.178   0.225   2.702  2.0608 -2.1159  1.8663
17518SOL     OW65026   1.935   6.018   2.466  0.2800 -0.2621  0.2419
17518SOL    HW165027   1.995   5.938   2.474  0.2553 -0.2751  0.2945
17518SOL    HW265028   1.962   6.086   2.533 -0.4144 -0.6782  0.9512
17519SOL     OW65029   2.143   6.490   0.981  0.7737 -0.2081  0.2360
17519SOL    HW165030   2.159   6.392   0.971  1.2198  0.1297 -2.8699
17519SOL    HW265031   2.223   6.533   1.022 -0.2844 -1.3943  3.7556
17520SOL     OW65032   0.149   8.513   5.056 -0.2290 -0.2569  0.3840
17520SOL    HW165033   0.058   8.491   5.092 -0.4265 -1.1193 -0.6111
17520SOL    HW265034   0.219   8.480   5.119 -0.4906 -4.2565 -1.2327
17521SOL     OW65035   6.967   8.055   1.080 -0.0404  0.2855  0.0384
17521SOL    HW165036   6.900   8.122   1.114  1.3354  0.2571  2.9734
17521SOL    HW265037   7.053   8.102   1.060 -0.0135 -0.1482 -0.8883
17522SOL     OW65038   0.649   7.459   4.662 -0.0555 -0.0038 -0.3680
17522SOL    HW165039   0.591   7.488   4.586  0.4326 -0.4360 -0.9140
17522SOL    HW265040   0.658   7.360   4.662  1.0801  0.0935 -0.5917
17523SOL     OW65041   8.077   8.052   6.423  0.1037 -0.3507 -0.0763
17523SOL    HW165042   7.981   8.029   6.436  0.4581 -1.9305 -0.1786
17523SOL    HW265043   8.109   8.106   6.501 -0.9143  0.4069 -0.1666
17524SOL     OW65044   0.863   2.416   3.804 -0.0927 -0.1571 -0.4822
17524SOL    HW165045   0.945   2.425   3.861 -1.6619 -1.5629  2.1166
17524SOL    HW265046   0.789   2.469   3.845 -1.2009 -1.0472 -1.3078
17525SOL     OW65047   4.396   1.151   1.046  0.4410 -0.0084 -0.5510
17525SOL    HW165048   4.333   1.135   1.122  0.0701 -3.5844 -1.5333
17525SOL    HW265049   4.489   1.133   1.076  0.3585 -0.8229 -0.7917
17526SOL     OW65050   6.654   0.381   7.100 -0.4718 -0.4796 -0.4901
17526SOL    HW165051   6.559   0.410   7.102  0.0061  1.0743  0.5134
17526SOL    HW265052   6.714   0.462   7.097  0.8455 -1.3997  0.2858
17527SOL     OW65053   5.716   0.492   0.312 -0.2648 -0.2661 -0.7365
17527SOL    HW165054   5.661   0.521   0.391  3.0825  1.1964  1.1703
17527SOL    HW265055   5.728   0.393   0.314  1.5838 -0.0372  1.8954
17528SOL     OW65056   1.495   2.116   7.859 -0.5664  0.1315 -0.2932
17528SOL    HW165057   1.442   2.176   7.920  0.1868 -1.1972  1.6844
17528SOL    HW265058   1.463   2.022   7.869  0.2462 -0.2498 -1.2364
17529SOL     OW65059   3.028   1.213   1.935  0.2834 -0.5184 -0.0976
17529SOL    HW165060   2.995   1.119   1.939 -1.1319  0.0338  1.8443
17529SOL    HW265061   2.965   1.269   1.880  0.9847 -0.6349 -1.0343
17530SOL     OW65062   5.111   5.382   3.213  0.2862 -0.2373  0.8293
17530SOL    HW165063   5.174   5.385   3.135 -0.9060  0.6387 -0.1006
17530SOL    HW265064   5.087   5.475   3.241  0.3648 -0.5518  1.9847
17531SOL     OW65065   7.572   5.249   0.392  0.3462  0.0287 -0.2588
17531SOL    HW165066   7.478   5.224   0.413  0.3708 -0.9433 -1.2686
17531SOL    HW265067   7.612   5.296   0.470  0.0113 -2.2686  1.3517
17532SOL     OW65068   3.877   8.323   6.540 -0.1478 -0.5829  0.0747
17532SOL    HW165069   3.879   8.410   6.490  2.6498 -0.6115  0.0575
17532SOL    HW265070   3.818   8.258   6.491  0.4134  0.2439 -1.7569
17533SOL     OW65071   8.611   6.419   1.936  0.4607  0.3449  0.3173
17533SOL    HW165072   8.585   6.451   2.027 -0.1958 -1.3791  0.7530
17533SOL    HW265073   8.709   6.401   1.934  0.3410 -0.4307  0.9587
17534SOL     OW65074   5.309   8.505   8.184  0.0123  0.0522  0.3262
17534SOL    HW165075   5.397   8.526   8.142  0.0819  2.3236  1.5409
17534SOL    HW265076   5.313   8.414   8.226  1.4642 -0.2394 -0.3944
17535SOL     OW65077   5.246   0.797   0.755  0.6307  0.6849  0.1556
17535SOL    HW165078   5.248   0.851   0.671  0.3323  0.4659  0.0075
17535SOL    HW265079   5.207   0.853   0.829 -2.1698 -0.1648 -0.6147
17536SOL     OW65080   2.181   0.731   2.149  0.3963  0.2430 -0.5377
17536SOL    HW165081   2.082   0.717   2.142  0.3797  0.4011 -0.6209
17536SOL    HW265082   2.204   0.763   2.241  0.3599  0.2862 -0.5436
17537SOL     OW65083   8.059   4.648   1.790 -0.5434  0.2035  0.3755
17537SOL    HW165084   8.021   4.588   1.721  2.4154  0.3211 -1.4385
17537SOL    HW265085   7.986   4.703   1.831 -2.7792 -2.1672 -0.3393
17538SOL     OW65086   1.638   7.795   6.745  0.0106 -0.4094  0.1600
17538SOL    HW165087   1.732   7.778   6.716  0.5172  0.8264  1.0154
17538SOL    HW265088   1.608   7.884   6.712 -0.6814 -0.5651  0.3501
17539SOL     OW65089   2.879   7.501   5.466 -0.4957 -0.2134 -0.2337
17539SOL    HW165090   2.957   7.447   5.497 -0.1981  0.2988 -0.0730
17539SOL    HW265091   2.795   7.463   5.506 -0.2724 -0.4524  0.0163
17540SOL     OW65092   6.712   7.314   3.013  0.5398  0.0290  0.3134
17540SOL    HW165093   6.755   7.236   2.968 -2.0516 -1.0863 -0.3562
17540SOL    HW265094   6.714   7.301   3.112  0.1177 -0.9203  0.2057
17541SOL     OW65095   2.168   2.032   6.871  0.2479  0.1356 -0.4258
17541SOL    HW165096   2.205   2.125   6.864  0.4556  0.1033  0.2297
17541SOL    HW265097   2.083   2.034   6.923  0.5941 -0.1308  0.1578
17542SOL     OW65098   7.166   2.391   0.992 -0.0866 -0.7659 -0.0106
17542SOL    HW165099   7.224   2.456   0.944 -0.5180 -0.2642  0.1375
17542SOL    HW265100   7.113   2.440   1.062  0.0283 -1.3733  0.4980
17543SOL     OW65101   7.264   6.756   5.591 -0.5875  0.8055 -0.1223
17543SOL    HW165102   7.203   6.701   5.648  1.4924 -0.7240  0.6745
17543SOL    HW265103   7.262   6.721   5.497  1.7988 -1.6169  0.6741
17544SOL     OW65104   3.122   3.838   1.185 -0.1785  0.9126 -0.3539
17544SOL    HW165105   3.136   3.834   1.086 -0.7588 -0.3581 -0.4006
17544SOL    HW265106   3.142   3.749   1.225  0.3560  1.5098  0.7232
17545SOL     OW65107   6.661   6.743   2.993  0.3236 -0.5821 -0.1192
17545SOL    HW165108   6.653   6.843   2.999 -0.1057 -0.6597  0.6263
17545SOL    HW265109   6.671   6.717   2.897  0.5289  0.1870 -0.3139
17546SOL     OW65110   2.721   0.633   5.257 -0.5029  0.6856 -0.5407
17546SOL    HW165111   2.632   0.590   5.271 -0.0082  0.1802  1.2004
17546SOL    HW265112   2.745   0.630   5.160 -0.4909 -2.9270 -0.4705
17547SOL     OW65113   8.885   2.633   7.967  0.2059  0.2180 -0.1558
17547SOL    HW165114   8.901   2.540   8.000 -1.2849 -1.0145 -2.8053
17547SOL    HW265115   8.945   2.652   7.889  0.1327  1.2999  0.0388
17548SOL     OW65116   5.047   0.139   2.788 -0.4906 -0.7351  1.0125
17548SOL    HW165117   5.081   0.049   2.815 -1.9146 -1.6989 -0.2943
17548SOL    HW265118   4.987   0.174   2.860 -1.0021 -1.4474  0.9469
17549SOL     OW65119   7.292   1.620   7.358 -0.5599  0.2032  0.3563
17549SOL    HW165120   7.278   1.527   7.323 -0.3302  0.2603  0.1072
17549SOL    HW265121   7.278   1.686   7.284  0.1146  0.3154  0.3337
17550SOL     OW65122   3.082   2.140   3.502  0.4934  0.0633  1.0930
17550SOL    HW165123   3.161   2.180   3.455 -0.7451 -1.1013 -2.1285
17550SOL    HW265124   3.107   2.050   3.539  0.7902 -0.1032  0.4856
17551SOL     OW65125   5.033   3.202   4.706  0.1742 -0.4201 -0.6777
17551SOL    HW165126   5.016   3.209   4.804  0.7449 -4.1574 -0.2588
17551SOL    HW265127   4.957   3.155   4.662 -1.0318  3.0137 -2.4034
17552SOL     OW65128   5.954   3.172   2.095  0.0397  0.7392 -0.1397
17552SOL    HW165129   5.979   3.080   2.068 -1.3523  0.0588  0.8206
17552SOL    HW265130   6.011   3.201   2.172  0.6576  0.7885 -0.6132
17553SOL     OW65131   4.585   4.806   4.061 -0.2368  0.0229  0.0922
17553SOL    HW165132   4.623   4.893   4.094 -1.9049  0.7589  0.1580
17553SOL    HW265133   4.516   4.774   4.126 -0.3106 -0.8693 -0.4255
17554SOL     OW65134   1.698   4.372   6.735 -0.3202  0.4205  0.0559
17554SOL    HW165135   1.601   4.394   6.723 -0.2807 -1.0986 -3.9366
17554SOL    HW265136   1.753   4.436   6.681  0.8370  0.6547  1.5080
17555SOL     OW65137   1.360   7.887   7.056  0.6745  0.2404 -0.2564
17555SOL    HW165138   1.444   7.926   7.018  0.7777  0.2863  0.0213
17555SOL    HW265139   1.367   7.882   7.155 -0.0588  1.1857 -0.1536
17556SOL     OW65140   3.366   5.718   2.536 -0.2516 -0.4481  0.0619
17556SOL    HW165141   3.290   5.778   2.511 -0.4557 -0.6593  0.1723
17556SOL    HW265142   3.451   5.754   2.497 -0.4522 -0.3702 -0.3032
17557SOL     OW65143   2.941   4.731   8.954  0.1300  0.1123 -0.3823
17557SOL    HW165144   2.848   4.764   8.936  0.1714 -0.1340 -1.0498
17557SOL    HW265145   2.985   4.705   8.868 -0.2806 -2.6715  0.2151
17558SOL     OW65146   5.044   5.995   1.576 -0.0223  0.0392 -0.6671
17558SOL    HW165147   5.105   5.922   1.606  0.3366  0.8575  0.6621
17558SOL    HW265148   5.085   6.084   1.599 -1.6317  0.6049  0.1043
17559SOL     OW65149   6.956   7.796   1.773 -0.7830  0.3405  0.0338
17559SOL    HW165150   7.024   7.745   1.721 -2.3717 -0.2984 -1.4704
17559SOL    HW265151   6.867   7.750   1.766 -1.2245  0.7383  2.5997
17560SOL     OW65152   8.558   5.132   6.534  0.6367 -0.5468  0.2704
17560SOL    HW165153   8.512   5.069   6.596 -0.0470 -1.7654 -1.4471
17560SOL    HW265154   8.492   5.198   6.498  1.1420  0.5114  1.2310
17561SOL     OW65155   8.435   2.740   8.695 -0.0904 -0.3896 -0.3576
17561SOL    HW165156   8.391   2.822   8.659  0.9063  0.6361  0.7210
17561SOL    HW265157   8.471   2.684   8.620 -0.6514  0.2301 -1.0824
17562SOL     OW65158   5.870   8.144   7.608  0.6162  0.2533  0.0818
17562SOL    HW165159   5.899   8.208   7.679 -0.4041  2.5026 -1.4664
17562SOL    HW265160   5.945   8.130   7.543  0.2604  1.3082 -0.5681
17563SOL     OW65161   3.722   5.695   7.438  0.3594  0.3383  0.4039
17563SOL    HW165162   3.683   5.632   7.370 -1.2179  1.8047 -0.0744
17563SOL    HW265163   3.804   5.738   7.401  1.3041 -1.2317  0.6394
17564SOL     OW65164   7.953   5.410   2.641  0.1064 -0.3021 -0.3354
17564SOL    HW165165   7.949   5.462   2.556  0.7910 -1.9539 -1.4173
17564SOL    HW265166   8.039   5.431   2.689 -0.6251  1.1941  0.3342
17565SOL     OW65167   2.635   7.805   7.067  0.1175 -0.4513  0.2172
17565SOL    HW165168   2.714   7.820   7.127 -0.2524  0.6870  0.4232
17565SOL    HW265169   2.551   7.818   7.119 -0.2364 -2.4018  0.1904
17566SOL     OW65170   3.338   1.134   0.838  0.2792  0.6520  0.0344
17566SOL    HW165171   3.269   1.157   0.906  0.1353 -0.2461  0.2057
17566SOL    HW265172   3.361   1.215   0.785  0.1456  1.2890  0.9302
17567SOL     OW65173   5.519   7.476   0.761  0.3692  0.0226 -0.6790
17567SOL    HW165174   5.492   7.458   0.856  1.4683 -1.0171 -0.5656
17567SOL    HW265175   5.474   7.560   0.730  0.9932  1.0750  1.1712
17568SOL     OW65176   2.407   0.117   2.866 -0.4124 -0.9015  0.3561
17568SOL    HW165177   2.494   0.078   2.898 -0.2236 -0.5985  0.2194
17568SOL    HW265178   2.335   0.048   2.873  0.1861 -1.6901 -1.1040
17569SOL     OW65179   5.861   7.329   1.290  0.1103 -0.0509 -0.7176
17569SOL    HW165180   5.781   7.270   1.299  1.2234 -1.6856 -1.1765
17569SOL    HW265181   5.905   7.339   1.380 -0.1303  0.1348 -0.6222
17570SOL     OW65182   2.879   2.418   7.991  0.2602  0.1121  0.3242
17570SOL    HW165183   2.933   2.490   8.036  0.7467  0.3493 -0.6312
17570SOL    HW265184   2.911   2.329   8.021  0.5041  0.2729  0.5483
17571SOL     OW65185   1.905   2.373   3.190  0.9529 -0.3762  0.3174
17571SOL    HW165186   1.979   2.310   3.166  1.3054  0.1940 -0.1180
17571SOL    HW265187   1.914   2.457   3.136  0.2170 -0.1420  0.5512
17572SOL     OW65188   1.408   6.962   2.310 -0.4599 -0.8892  0.2632
17572SOL    HW165189   1.308   6.957   2.312 -0.5471  0.6824  1.0340
17572SOL    HW265190   1.440   7.016   2.388  0.9367 -0.6548 -0.4631
17573SOL     OW65191   0.328   5.870   0.970  0.3392  0.0735  0.8518
17573SOL    HW165192   0.276   5.813   1.034  3.3528 -1.0527  2.3820
17573SOL    HW265193   0.365   5.813   0.898  1.1173  0.5323  0.8842
17574SOL     OW65194   2.203   2.900   1.099  0.2160 -0.2908  0.2027
17574SOL    HW165195   2.216   2.982   1.156 -0.5240  0.2556 -0.4015
17574SOL    HW265196   2.231   2.819   1.150  0.5011  0.2950  0.9859
17575SOL     OW65197   6.980   7.810   6.080  0.5511 -0.0998  0.3039
17575SOL    HW165198   7.007   7.758   5.999  1.3193  0.8477 -0.0591
17575SOL    HW265199   6.950   7.747   6.151  4.4128 -1.3086  0.9839
17576SOL     OW65200   1.383   2.546   1.307  0.4850 -0.4175  0.3472
17576SOL    HW165201   1.422   2.465   1.263 -2.7105 -1.7664 -0.1506
17576SOL    HW265202   1.349   2.608   1.237 -0.7652 -0.5792  0.8040
17577SOL     OW65203   7.677   5.352   2.717  0.2119  0.6086  0.2846
17577SOL    HW165204   7.773   5.334   2.694 -0.0304 -1.3610  0.7063
17577SOL    HW265205   7.618   5.303   2.652 -0.4967  1.0164  0.6194
17578SOL     OW65206   3.989   8.905   2.700  0.2900 -0.4752 -0.1110
17578SOL    HW165207   4.008   8.856   2.615 -1.8749 -0.6202 -0.5325
17578SOL    HW265208   3.943   8.991   2.679  2.5352  0.9685  0.7354
17579SOL     OW65209   2.810   6.673   7.393 -0.1191 -0.0898 -0.1824
17579SOL    HW165210   2.791   6.642   7.300 -1.1309  0.6085 -0.2138
17579SOL    HW265211   2.737   6.641   7.454  1.1672 -1.5895  0.6045
17580SOL     OW65212   7.659   6.369   0.887  0.2553  0.4197 -0.5652
17580SOL    HW165213   7.747   6.360   0.933 -0.5375  0.4718  1.0055
17580SOL    HW265214   7.606   6.285   0.900 -0.2312  0.6827 -0.8360
17581SOL     OW65215   8.722   6.260   4.622  0.1131 -0.6985 -0.4660
17581SOL    HW165216   8.647   6.284   4.560  0.0821  0.4033 -0.0259
17581SOL    HW265217   8.685   6.239   4.712  0.2305 -1.4075 -0.5828
17582SOL     OW65218   4.499   6.923   0.324  0.1281  0.2481  0.4419
17582SOL    HW165219   4.464   7.006   0.280  2.6351  0.8720 -0.4230
17582SOL    HW265220   4.482   6.845   0.263 -0.7750  0.3605  0.5381
17583SOL     OW65221   1.859   5.966   7.327 -0.5016  0.2746  0.7927
17583SOL    HW165222   1.893   5.872   7.334  0.9742  0.8141  1.0027
17583SOL    HW265223   1.825   5.982   7.234  1.6350  0.3006 -0.0315
17584SOL     OW65224   1.224   0.265   1.554 -0.5086  0.1653 -0.2603
17584SOL    HW165225   1.196   0.351   1.510  1.1103  0.8573  0.0192
17584SOL    HW265226   1.286   0.286   1.629 -0.7204 -1.2217  0.3052
17585SOL     OW65227   6.783   3.896   1.360  0.3025 -0.3679  0.5076
17585SOL    HW165228   6.771   3.861   1.268 -1.4858  0.3215  0.4472
17585SOL    HW265229   6.742   3.988   1.367  2.3820  0.5290  1.3972
17586SOL     OW65230   0.092   6.319   7.483  0.3076 -0.4420  0.0796
17586SOL    HW165231   0.026   6.286   7.551  1.6531 -3.5582 -0.0775
17586SOL    HW265232   0.139   6.400   7.519 -0.3197 -0.9350  2.0867
17587SOL     OW65233   0.110   5.621   1.097 -0.1450  0.7068 -0.0178
17587SOL    HW165234   0.132   5.573   1.182  1.9191  0.6433 -0.5461
17587SOL    HW265235   0.073   5.556   1.031  2.4940 -0.2091 -0.6769
17588SOL     OW65236   3.430   0.238   5.235 -0.5005 -0.3223  0.2659
17588SOL    HW165237   3.521   0.271   5.211  0.9613 -3.8716  0.5751
17588SOL    HW265238   3.388   0.298   5.303  0.5888  2.6814 -1.6632
17589SOL     OW65239   5.939   3.182   8.045 -0.3281  0.5370 -0.1330
17589SOL    HW165240   5.967   3.178   8.141  0.7796  0.1501 -0.4694
17589SOL    HW265241   5.985   3.110   7.993 -1.2387  0.4798 -0.8850
17590SOL     OW65242   4.880   6.090   1.365 -0.6534  0.6957 -0.5200
17590SOL    HW165243   4.929   6.149   1.301 -0.2924 -2.4659 -3.3183
17590SOL    HW265244   4.943   6.024   1.405 -1.5292  0.4219  0.4171
17591SOL     OW65245   8.136   6.866   0.355 -0.2003  0.0919 -0.3041
17591SOL    HW165246   8.159   6.769   0.360 -1.5336 -0.2143  0.2785
17591SOL    HW265247   8.161   6.902   0.266  0.7362 -0.6754 -0.3524
17592SOL     OW65248   8.772   3.924   3.010  0.1043  0.0195 -0.6095
17592SOL    HW165249   8.787   3.993   2.939 -0.7043  0.7061 -0.1289
17592SOL    HW265250   8.718   3.848   2.972 -0.2028  0.3167 -0.7690
17593SOL     OW65251   1.731   0.976   0.561 -0.6211  0.3990 -0.3832
17593SOL    HW165252   1.715   0.879   0.578 -1.7719  0.6131 -0.1878
17593SOL    HW265253   1.692   1.001   0.472  0.8094  0.4057 -1.0155
17594SOL     OW65254   3.525   5.563   6.741 -0.1963  0.6294 -0.1274
17594SOL    HW165255   3.565   5.472   6.747 -0.7357  0.3387 -0.9359
17594SOL    HW265256   3.530   5.607   6.831  0.4052 -0.0443  0.1787
17595SOL     OW65257   8.227   7.472   0.159 -0.4408  0.3484  0.4892
17595SOL    HW165258   8.133   7.504   0.157 -0.6532 -0.2911  0.2951
17595SOL    HW265259   8.261   7.459   0.066 -0.7348 -1.0936  0.5656
17596SOL     OW65260   1.569   5.950   1.302 -1.0065 -0.2290  0.0802
17596SOL    HW165261   1.528   5.974   1.214 -0.0157  0.0912 -0.2928
17596SOL    HW265262   1.546   6.020   1.370 -0.6352  0.2254 -0.2610
17597SOL     OW65263   3.530   3.800   4.460 -0.0872  0.1743  0.1837
17597SOL    HW165264   3.596   3.846   4.518  0.5721 -1.0921  0.4467
17597SOL    HW265265   3.458   3.760   4.516  0.6391 -1.1929  0.1505
17598SOL     OW65266   2.315   4.446   7.171 -0.3438  0.3286 -0.3434
17598SOL    HW165267   2.346   4.536   7.139 -1.2117  1.3030  1.5320
17598SOL    HW265268   2.385   4.405   7.229 -0.6199  0.5131  0.1244
17599SOL     OW65269   4.481   4.315   1.877  0.6756  0.3176  1.0755
17599SOL    HW165270   4.509   4.370   1.956 -0.4441  0.4826  1.3674
17599SOL    HW265271   4.423   4.240   1.907 -0.0499  0.5880  0.3780
17600SOL     OW65272   3.292   5.539   4.125 -0.1869  0.4075 -0.1342
17600SOL    HW165273   3.284   5.451   4.172  0.9534  0.5104  0.2805
17600SOL    HW265274   3.361   5.532   4.053 -0.3814  0.8499 -0.3630
17601SOL     OW65275   0.996   8.714   4.849 -0.0455 -0.1837  0.1383
17601SOL    HW165276   1.096   8.708   4.844 -0.1409 -0.9563 -0.7818
17601SOL    HW265277   0.964   8.786   4.787 -0.1244 -0.4998 -0.1895
17602SOL     OW65278   6.245   5.913   4.924 -0.3053 -0.0362  0.3167
17602SOL    HW165279   6.230   5.934   5.020  1.1309 -0.1206  0.5742
17602SOL    HW265280   6.181   5.842   4.894  0.4663 -1.3541  1.7217
17603SOL     OW65281   5.705   2.026   2.709 -0.3607 -0.6370 -0.2692
17603SOL    HW165282   5.743   2.093   2.772  0.0253 -1.2385  0.1453
17603SOL    HW265283   5.721   1.934   2.744  0.2958 -1.0008 -1.4692
17604SOL     OW65284   0.976   0.802   0.528  0.1451  0.5129 -0.0639
17604SOL    HW165285   0.922   0.763   0.454 -0.7909  0.5044  0.6129
17604SOL    HW265286   0.924   0.873   0.574  1.1358  1.2816 -0.1009
17605SOL     OW65287   0.382   5.717   6.794 -0.2976 -0.0347  0.2552
17605SOL    HW165288   0.330   5.632   6.803  0.1483 -0.4876 -1.3540
17605SOL    HW265289   0.336   5.778   6.730 -0.7323  1.0535  1.5714
17606SOL     OW65290   3.627   6.137   8.803  0.0082  0.3643 -0.0178
17606SOL    HW165291   3.688   6.117   8.880  1.0022  0.3236 -0.8082
17606SOL    HW265292   3.532   6.135   8.834  0.3241 -1.1072  0.9009
17607SOL     OW65293   0.517   7.909   2.521 -0.1458 -0.0062  0.1442
17607SOL    HW165294   0.551   8.002   2.518 -0.4189  0.1207  0.7986
17607SOL    HW265295   0.593   7.846   2.539 -0.1000  0.1794  0.6134
17608SOL     OW65296   2.318   4.479   7.864 -0.2587  0.3337  0.3114
17608SOL    HW165297   2.392   4.538   7.897  0.4012 -0.3285  0.0188
17608SOL    HW265298   2.345   4.383   7.872 -1.2123  0.0694  0.5105
17609SOL     OW65299   0.960   8.908   4.622  0.4899  0.1201 -0.4390
17609SOL    HW165300   0.961   9.001   4.659 -0.4470 -0.0889  0.0986
17609SOL    HW265301   0.993   8.911   4.527  3.5110  0.5621  0.5564
17610SOL     OW65302   7.201   6.003   3.236 -0.2823 -0.5013 -0.0528
17610SOL    HW165303   7.145   6.077   3.273 -1.5556 -2.6417  2.5036
17610SOL    HW265304   7.214   5.933   3.307  2.6091 -1.7645 -1.7437
17611SOL     OW65305   1.534   3.735   6.200 -0.6472  0.2364  0.1826
17611SOL    HW165306   1.442   3.706   6.172 -0.7179 -0.0339  0.6837
17611SOL    HW265307   1.554   3.698   6.291  0.3199 -0.4723 -0.3123
17612SOL     OW65308   1.971   1.455   6.307  0.2831  0.6614  0.6429
17612SOL    HW165309   1.900   1.499   6.252 -0.5969 -0.9260  0.4871
17612SOL    HW265310   1.935   1.431   6.397  0.8587  0.5541  0.8519
17613SOL     OW65311   2.241   2.272   6.935 -0.4462 -0.0415 -0.0988
17613SOL    HW165312   2.301   2.338   6.890 -2.8333  1.0067 -1.8184
17613SOL    HW265313   2.201   2.313   7.016 -0.0770 -0.2217  0.1795
17614SOL     OW65314   3.737   1.281   0.131 -0.1373 -0.1708 -0.1886
17614SOL    HW165315   3.817   1.247   0.080  0.4050  1.7401 -0.6600
17614SOL    HW265316   3.744   1.252   0.227  0.5228 -0.9996 -0.4782
17615SOL     OW65317   2.061   0.272   2.288  0.0609  0.0077  0.0090
17615SOL    HW165318   2.018   0.256   2.199 -0.1197  1.0407 -0.0966
17615SOL    HW265319   2.143   0.215   2.297 -0.3173 -0.6312 -0.5185
17616SOL     OW65320   5.035   6.565   1.092 -0.2043 -0.5232  0.1170
17616SOL    HW165321   4.959   6.502   1.074 -0.7043 -0.4468  1.7882
17616SOL    HW265322   5.121   6.515   1.090 -0.2190 -0.5132 -2.3214
17617SOL     OW65323   1.801   7.638   0.921  0.1873  0.4240  0.3755
17617SOL    HW165324   1.880   7.699   0.910  0.2263 -0.0544 -2.1317
17617SOL    HW265325   1.727   7.689   0.965  0.6671  1.9379 -0.5102
17618SOL     OW65326   3.935   0.581   0.971 -0.0747  0.3803  0.0704
17618SOL    HW165327   4.011   0.632   1.011 -0.2154  1.1985 -0.7082
17618SOL    HW265328   3.928   0.492   1.016  1.8174 -0.0150 -0.3759
17619SOL     OW65329   6.943   6.184   3.112 -0.1498 -0.0731  0.2330
17619SOL    HW165330   6.852   6.224   3.099  0.2643  0.7073 -0.3045
17619SOL    HW265331   7.000   6.203   3.032  0.5157 -0.4720  0.6046
17620SOL     OW65332   1.191   5.278   7.997  0.3357  0.4339 -0.0920
17620SOL    HW165333   1.263   5.224   7.954 -0.3885  0.9771 -2.0302
17620SOL    HW265334   1.221   5.374   8.003  0.2362  0.4476  0.2008
17621SOL     OW65335   3.406   8.986   0.773  0.3655 -0.3138 -0.2168
17621SOL    HW165336   3.348   8.909   0.746 -0.4789  0.1870  0.1482
17621SOL    HW265337   3.473   9.003   0.701  0.6228 -1.4481 -0.2544
17622SOL     OW65338   2.495   4.938   0.438 -0.2864  0.1631 -0.0621
17622SOL    HW165339   2.589   4.957   0.465 -0.5717  1.3036  0.1252
17622SOL    HW265340   2.436   4.945   0.518 -0.6103 -0.0661 -0.2791
17623SOL     OW65341   2.132   8.794   6.982 -0.1340 -0.2884  0.0127
17623SOL    HW165342   2.137   8.892   6.960  0.5131  0.2068  2.1737
17623SOL    HW265343   2.040   8.772   7.014 -0.4826 -0.5450 -1.1686
17624SOL     OW65344   8.542   0.210   0.704  0.1455  0.0550 -0.2168
17624SOL    HW165345   8.520   0.281   0.638  2.7142  1.2405  0.1606
17624SOL    HW265346   8.597   0.248   0.778 -0.1777 -1.8898  1.0810
17625SOL     OW65347   5.041   0.356   0.079 -0.0929 -0.1766 -0.5794
17625SOL    HW165348   5.016   0.260   0.071  2.5831 -0.8769 -0.9805
17625SOL    HW265349   5.084   0.372   0.169  0.9543  0.2679 -1.1494
17626SOL     OW65350   4.487   0.182   6.524  0.2964 -0.3965 -0.3885
17626SOL    HW165351   4.536   0.205   6.608 -0.2172 -1.0724  0.0948
17626SOL    HW265352   4.415   0.249   6.508 -0.4635 -1.0058  0.4194
17627SOL     OW65353   6.084   7.204   8.114  0.0004 -0.4993  0.1508
17627SOL    HW165354   6.028   7.182   8.034 -0.4440  0.0682  0.2963
17627SOL    HW265355   6.178   7.174   8.099  0.1262  0.3972 -0.9586
17628SOL     OW65356   0.451   7.338   8.884 -0.1228 -0.4558  0.3150
17628SOL    HW165357   0.549   7.317   8.885  0.0173  0.1232 -0.8171
17628SOL    HW265358   0.400   7.255   8.860  0.2460 -0.2506 -1.2536
17629SOL     OW65359   8.486   0.476   0.572  0.1364  0.1174  0.1439
17629SOL    HW165360   8.517   0.436   0.485 -0.8074 -0.6998  0.1757
17629SOL    HW265361   8.562   0.524   0.615  0.7546  0.0857 -0.8841
17630SOL     OW65362   1.834   0.235   3.563  0.5519 -0.3144  0.0963
17630SOL    HW165363   1.754   0.196   3.609  1.2332  1.3565  2.8438
17630SOL    HW265364   1.914   0.179   3.584  1.0676  1.0549  1.9787
17631SOL     OW65365   3.830   7.446   2.932 -0.6956  0.6373  0.1226
17631SOL    HW165366   3.793   7.502   2.858 -3.1533 -0.3322  0.5998
17631SOL    HW265367   3.855   7.356   2.896 -1.6753  0.2450  0.4110
17632SOL     OW65368   1.635   8.040   8.813  0.5558  0.0428 -0.9464
17632SOL    HW165369   1.607   7.944   8.808  0.5164  0.0490 -0.8732
17632SOL    HW265370   1.708   8.058   8.747  0.0583  0.1325 -1.4716
17633SOL     OW65371   7.115   3.637   8.362 -0.3558 -0.0602  0.1333
17633SOL    HW165372   7.020   3.645   8.391 -0.4579  0.1495 -0.2522
17633SOL    HW265373   7.143   3.721   8.314 -0.1872 -0.3896 -0.3509
17634SOL     OW65374   0.920   8.071   0.012  0.0122  0.2559 -0.3831
17634SOL    HW165375   0.821   8.076  -0.002 -0.6124 -2.5356  2.4320
17634SOL    HW265376   0.950   7.977  -0.004  1.5351  0.1933  2.5784
17635SOL     OW65377   2.783   0.320   8.232 -0.3035  0.7877 -0.6260
17635SOL    HW165378   2.712   0.252   8.212 -0.2886  1.0276 -1.5098
17635SOL    HW265379   2.777   0.347   8.328 -0.0385 -0.7861 -0.1400
17636SOL     OW65380   6.041   3.458   1.190 -0.0198 -0.0472 -0.4889
17636SOL    HW165381   6.130   3.415   1.172 -0.0762  0.2590 -1.5157
17636SOL    HW265382   5.996   3.479   1.104 -1.8436 -1.7254  0.0038
17637SOL     OW65383   7.252   8.476   0.435 -0.5569  0.2867 -0.1827
17637SOL    HW165384   7.290   8.567   0.416  1.4091 -0.7214 -1.1428
17637SOL    HW265385   7.300   8.436   0.513  1.0605 -1.4044 -2.0131
17638SOL     OW65386   6.898   6.531   2.274 -0.5633  0.0263  0.2777
17638SOL    HW165387   6.926   6.606   2.334 -1.5694 -1.3096  2.4944
17638SOL    HW265388   6.932   6.444   2.312  0.4798 -0.6720 -2.1735
17639SOL     OW65389   6.837   1.467   8.688 -0.0237 -0.1862 -0.0944
17639SOL    HW165390   6.912   1.421   8.736  0.1314  1.8947  1.7109
17639SOL    HW265391   6.750   1.429   8.719  0.1899 -1.6380 -1.1802
17640SOL     OW65392   8.063   4.694   2.968 -0.8084  0.1452 -0.3365
17640SOL    HW165393   8.074   4.679   3.066 -1.1208 -0.1222 -0.3393
17640SOL    HW265394   8.122   4.630   2.918  2.5516  3.0359 -0.3053
17641SOL     OW65395   3.095   3.857   6.765  0.3404  0.1497 -0.3022
17641SOL    HW165396   3.152   3.823   6.839 -0.1997  1.5916  0.8038
17641SOL    HW265397   3.033   3.927   6.800 -0.6376  0.1165 -1.9116
17642SOL     OW65398   5.441   7.332   3.983 -0.0821 -0.5192 -0.1659
17642SOL    HW165399   5.474   7.238   3.988  1.0322 -0.2096 -1.5883
17642SOL    HW265400   5.501   7.391   4.038  2.1603  0.1407 -3.2245
17643SOL     OW65401   0.780   2.908   0.320 -0.2477 -0.2619 -0.0594
17643SOL    HW165402   0.717   2.870   0.387  1.4853  0.5449  2.1002
17643SOL    HW265403   0.740   2.990   0.279 -0.5766  0.3318  1.4088
17644SOL     OW65404   0.120   5.941   0.219  0.0233  0.6130 -0.3494
17644SOL    HW165405   0.136   5.920   0.315 -2.0966  0.5467  0.0274
17644SOL    HW265406   0.204   5.928   0.167  0.7961 -0.8989  1.2331
17645SOL     OW65407   8.242   5.078   6.275  0.1406  0.9173 -0.2247
17645SOL    HW165408   8.278   5.149   6.336  1.0058  0.7648 -0.5589
17645SOL    HW265409   8.148   5.057   6.301 -0.1010  2.1473 -0.0844
17646SOL     OW65410   0.875   4.705   8.488 -0.2500 -0.2568 -0.0986
17646SOL    HW165411   0.793   4.725   8.435  0.2396 -0.7868 -1.0666
17646SOL    HW265412   0.884   4.772   8.562 -2.4998 -1.2548  1.1124
17647SOL     OW65413   2.535   0.958   6.647  0.1095 -0.6170  0.3818
17647SOL    HW165414   2.436   0.968   6.655  0.1732 -1.1625  2.0799
17647SOL    HW265415   2.575   1.044   6.615 -0.9129 -0.4374 -0.4323
17648SOL     OW65416   1.958   5.550   2.586  0.5785  0.1865 -0.1942
17648SOL    HW165417   1.962   5.483   2.660  0.8689  2.4564  1.8926
17648SOL    HW265418   1.902   5.514   2.512 -0.6966 -1.6692  1.6204
17649SOL     OW65419   5.818   8.840   1.094 -0.0778 -0.1109  0.3870
17649SOL    HW165420   5.844   8.891   1.012 -0.1336  1.1135  1.1208
17649SOL    HW265421   5.719   8.826   1.094 -0.2843  1.3319  1.0642
17650SOL     OW65422   4.639   8.161   2.074 -0.0785 -0.0466  0.3692
17650SOL    HW165423   4.628   8.117   1.984 -1.5350 -1.2063  1.0896
17650SOL    HW265424   4.560   8.219   2.092  1.0106  1.5119  0.1937
17651SOL     OW65425   1.301   5.682   8.267 -0.1619  0.3850  0.0980
17651SOL    HW165426   1.325   5.657   8.361  0.8304 -1.6050 -0.6691
17651SOL    HW265427   1.243   5.763   8.269  0.1152  0.5763  2.4140
17652SOL     OW65428   3.209   2.599   3.881  0.4790  0.4522  0.4405
17652SOL    HW165429   3.269   2.637   3.951  0.8400 -1.6839  1.3243
17652SOL    HW265430   3.130   2.659   3.869  0.6942  1.1288  2.2611
17653SOL     OW65431   6.930   4.995   7.485  0.4942  0.3622  0.1510
17653SOL    HW165432   6.998   4.950   7.427 -0.1870  0.1700 -0.5022
17653SOL    HW265433   6.923   5.092   7.459 -0.1042  0.1828 -0.3638
17654SOL     OW65434   3.613   1.359   7.662 -0.0108  0.3654  0.4303
17654SOL    HW165435   3.525   1.350   7.709 -0.5825 -2.0979 -1.0272
17654SOL    HW265436   3.602   1.416   7.581 -0.4540 -0.5880 -0.1841
17655SOL     OW65437   1.566   1.011   0.284  0.2103 -0.2817  0.5761
17655SOL    HW165438   1.618   1.087   0.246  0.0509 -1.0737 -1.2441
17655SOL    HW265439   1.473   1.040   0.305 -0.4622 -0.4824 -2.0190
17656SOL     OW65440   1.503   2.566   1.550  0.3213  0.3953 -0.1753
17656SOL    HW165441   1.455   2.559   1.463  0.8597  0.0292 -0.4457
17656SOL    HW265442   1.443   2.537   1.625  1.0282 -2.9109 -0.8003
17657SOL     OW65443   4.214   7.710   2.410  0.1259  0.2640  0.3642
17657SOL    HW165444   4.125   7.668   2.393 -0.0025  0.2949  0.9282
17657SOL    HW265445   4.212   7.757   2.499  1.1366 -0.9130  1.0352
17658SOL     OW65446   8.468   6.273   5.487 -0.0264  0.5752  0.3251
17658SOL    HW165447   8.409   6.253   5.565  1.4971 -0.9082  1.1124
17658SOL    HW265448   8.558   6.301   5.519  0.1811  1.3704 -0.9011
17659SOL     OW65449   1.954   5.945   3.077  0.0885  0.6163  0.6108
17659SOL    HW165450   1.903   5.876   3.026  0.6364 -0.6734  1.8112
17659SOL    HW265451   1.966   6.026   3.019 -0.2299 -0.4197 -0.9401
17660SOL     OW65452   0.323   4.528   3.260  0.9087 -0.6532  0.1052
17660SOL    HW165453   0.382   4.526   3.341  1.2964 -0.0019 -0.1607
17660SOL    HW265454   0.334   4.615   3.213 -0.4853 -0.4063  0.2138
17661SOL     OW65455   2.250   3.845   6.725  0.2128  0.3028 -0.4496
17661SOL    HW165456   2.188   3.916   6.692 -2.1176 -1.1986  0.5897
17661SOL    HW265457   2.255   3.772   6.657 -1.0670 -0.6843  0.4814
17662SOL     OW65458   8.325   5.473   4.187  0.6852  0.5390 -0.5631
17662SOL    HW165459   8.392   5.426   4.129 -1.7425 -0.2309 -2.8469
17662SOL    HW265460   8.236   5.428   4.177 -0.7508  3.0786  0.4412
17663SOL     OW65461   6.708   5.408   0.186 -0.4735 -0.2073  0.2235
17663SOL    HW165462   6.647   5.348   0.240  0.5502 -1.9711 -0.5326
17663SOL    HW265463   6.720   5.369   0.095  0.5473  0.9585 -0.1465
17664SOL     OW65464   4.889   8.248   2.004 -0.3764  0.3552  0.0358
17664SOL    HW165465   4.956   8.236   2.077  0.5159 -0.6512 -0.9308
17664SOL    HW265466   4.798   8.226   2.040 -0.4431  3.3122  1.7875
17665SOL     OW65467   7.262   2.498   7.019  0.3998 -0.1252 -0.2422
17665SOL    HW165468   7.359   2.511   7.042  0.3470 -0.6563  0.2740
17665SOL    HW265469   7.230   2.578   6.969  1.5536 -0.6851 -1.9160
17666SOL     OW65470   3.206   2.002   5.700 -0.9387 -0.4517 -0.2123
17666SOL    HW165471   3.175   1.968   5.789 -0.9045  0.6224  0.2143
17666SOL    HW265472   3.287   1.950   5.671 -0.4018 -0.2034  0.8134
17667SOL     OW65473   4.164   4.801   1.551 -0.4242 -0.2272 -0.0410
17667SOL    HW165474   4.185   4.719   1.498 -1.4342 -1.5111  1.5614
17667SOL    HW265475   4.100   4.780   1.624  0.3817  1.6987  1.2685
17668SOL     OW65476   8.575   2.785   6.419 -0.6902  0.0018 -0.3044
17668SOL    HW165477   8.513   2.810   6.494 -0.1052  0.4047  0.0441
17668SOL    HW265478   8.595   2.865   6.364 -0.4232 -0.1189 -0.3818
17669SOL     OW65479   5.715   6.603   0.412  0.1230  0.1330  0.5549
17669SOL    HW165480   5.747   6.509   0.423 -0.6274  0.0711  2.3693
17669SOL    HW265481   5.620   6.610   0.444 -0.1708  1.2925 -0.5088
17670SOL     OW65482   1.586   3.076   7.848  0.2903  0.2416  0.1010
17670SOL    HW165483   1.529   3.157   7.860  0.7596  0.4834  0.7911
17670SOL    HW265484   1.672   3.089   7.898  1.1855  0.1229 -1.3874
17671SOL     OW65485   5.619   8.829   0.750  0.2061 -0.0736 -0.1663
17671SOL    HW165486   5.677   8.748   0.734 -1.0725 -0.8753 -0.7978
17671SOL    HW265487   5.578   8.858   0.664 -0.5851  0.2878  0.3308
17672SOL     OW65488   3.401   6.998   6.602  0.4679  0.2861 -0.0605
17672SOL    HW165489   3.306   7.010   6.574  0.3181 -0.0465  0.3015
17672SOL    HW265490   3.442   7.087   6.622  0.5263  0.5148 -1.1589
17673SOL     OW65491   2.201   2.565   4.396 -0.4839 -0.0984  0.7173
17673SOL    HW165492   2.183   2.469   4.376 -1.6227 -0.3091  2.6241
17673SOL    HW265493   2.299   2.579   4.408 -0.3628 -1.1286  0.9474
17674SOL     OW65494   6.962   4.016   1.788 -0.1936  0.5002 -0.4708
17674SOL    HW165495   7.022   3.980   1.859  0.1963  2.3316  0.1500
17674SOL    HW265496   6.984   3.973   1.701  0.5328 -0.4492  0.1767
17675SOL     OW65497   3.735   5.670   1.952  0.5620  0.1362  0.7513
17675SOL    HW165498   3.803   5.684   2.024  2.8986  0.7532 -1.4975
17675SOL    HW265499   3.739   5.575   1.921  1.1030  0.4186 -0.0573
17676SOL     OW65500   4.304   0.060   0.213  0.1497 -0.1364 -0.0185
17676SOL    HW165501   4.272   0.097   0.125  1.2661  1.6912  0.3178
17676SOL    HW265502   4.316  -0.039   0.205  1.5353  0.1778 -2.3371
17677SOL     OW65503   8.650   8.338   7.017 -0.4847  0.1341 -0.3136
17677SOL    HW165504   8.582   8.411   7.022 -0.5484  0.0259  0.4622
17677SOL    HW265505   8.737   8.375   6.987 -0.4824  0.5586  0.2193
17678SOL     OW65506   6.142   7.919   0.997 -0.0511  0.2964 -0.2959
17678SOL    HW165507   6.230   7.873   1.000 -0.6444 -0.7532  1.2241
17678SOL    HW265508   6.148   8.007   1.045 -0.1341 -0.3321  0.8918
17679SOL     OW65509   8.633   8.969   0.602 -0.3795  0.1565  0.4692
17679SOL    HW165510   8.595   9.047   0.652 -0.6183  0.9149 -0.8937
17679SOL    HW265511   8.596   8.967   0.509  1.5304 -0.1310 -0.2987
17680SOL     OW65512   8.746   7.451   0.640  0.8607 -0.6386 -0.2412
17680SOL    HW165513   8.823   7.515   0.634 -1.9371  2.6974 -2.2022
17680SOL    HW265514   8.725   7.435   0.737  1.4667  1.6083  0.2956
17681SOL     OW65515   8.209   0.634   7.146 -0.2214  0.0786 -0.4666
17681SOL    HW165516   8.245   0.726   7.135  0.1724  0.0582  0.5287
17681SOL    HW265517   8.273   0.580   7.201 -0.8033 -0.5652 -0.4166
17682SOL     OW65518   5.182   7.278   1.362 -0.3880  0.3599 -0.1217
17682SOL    HW165519   5.154   7.351   1.300  0.2438  1.6043  1.0066
17682SOL    HW265520   5.182   7.191   1.314 -3.8444  0.6716 -0.7711
17683SOL     OW65521   2.515   8.241   2.739 -0.0064 -0.4168 -0.6473
17683SOL    HW165522   2.601   8.290   2.731 -0.8280  1.3296  0.7228
17683SOL    HW265523   2.459   8.257   2.657  0.1755  0.0618 -0.6782
17684SOL     OW65524   5.031   5.992   4.759  0.0982  0.0227 -0.3744
17684SOL    HW165525   4.995   5.988   4.665 -0.2127  1.8954 -0.3509
17684SOL    HW265526   5.030   5.900   4.798 -1.6451 -0.4868 -1.5109
17685SOL     OW65527   8.805   2.625   1.495  0.5435 -0.1265 -0.4321
17685SOL    HW165528   8.760   2.593   1.578 -0.7912 -1.1619 -1.5208
17685SOL    HW265529   8.904   2.625   1.508  0.4607 -2.6721  0.3162
17686SOL     OW65530   0.624   4.457   7.489  0.2733 -0.1494 -0.1942
17686SOL    HW165531   0.587   4.530   7.432 -0.2407 -0.0570  0.2548
17686SOL    HW265532   0.685   4.497   7.558  2.0798 -0.3941 -1.5964
17687SOL     OW65533   4.063   0.124   7.044  0.2785 -0.7076  0.1703
17687SOL    HW165534   4.005   0.046   7.020 -0.9035  0.1076  0.3370
17687SOL    HW265535   4.156   0.092   7.061 -0.3916 -2.2176  1.1367
17688SOL     OW65536   2.608   8.002   0.951 -0.0398 -0.2584  0.2573
17688SOL    HW165537   2.552   8.075   0.912  0.5192 -0.4719 -0.9673
17688SOL    HW265538   2.576   7.913   0.916 -0.1121 -0.5177  0.9887
17689SOL     OW65539   4.762   8.973   5.387  0.3487 -0.5966  0.4306
17689SOL    HW165540   4.779   8.875   5.377  0.1229 -0.8550  2.3384
17689SOL    HW265541   4.838   9.025   5.348 -0.0631 -1.4907 -1.6270
17690SOL     OW65542   1.233   8.083   7.749 -0.1943  0.2030  0.6016
17690SOL    HW165543   1.178   8.160   7.717  1.5805  1.2623  0.0554
17690SOL    HW265544   1.196   8.049   7.835 -0.1337  2.6298  1.6149
17691SOL     OW65545   8.483   1.146   0.387  0.3666 -0.2871 -0.3724
17691SOL    HW165546   8.475   1.058   0.341  1.9426 -1.0743  0.7995
17691SOL    HW265547   8.480   1.132   0.486  0.9994  0.9128 -0.1700
17692SOL     OW65548   0.326   0.231   8.592  0.9029 -0.1284 -0.2367
17692SOL    HW165549   0.360   0.308   8.646  1.7929 -0.2137 -0.6623
17692SOL    HW265550   0.388   0.153   8.603 -0.1604 -0.8842  0.4306
17693SOL     OW65551   1.188   2.087   1.152 -0.2712  0.1314  0.0250
17693SOL    HW165552   1.166   2.183   1.167  1.3434  0.2208  2.0733
17693SOL    HW265553   1.239   2.077   1.066 -0.4673  1.0918 -0.2007
17694SOL     OW65554   6.642   0.838   1.907 -0.2962 -0.2664  0.3105
17694SOL    HW165555   6.719   0.836   1.971 -0.4454 -1.4099  0.4534
17694SOL    HW265556   6.638   0.751   1.857 -1.3926 -0.1393  0.1784
17695SOL     OW65557   5.438   3.982   1.638 -0.0454  0.2016  0.4892
17695SOL    HW165558   5.386   3.908   1.679  0.5542  0.7838  2.3476
17695SOL    HW265559   5.519   4.001   1.693  1.0970  0.6268 -1.2900
17696SOL     OW65560   1.354   7.769   6.796 -0.2450 -0.3459 -0.5232
17696SOL    HW165561   1.444   7.772   6.752 -0.1871  1.8441 -0.3331
17696SOL    HW265562   1.360   7.809   6.887 -1.2500 -0.9130 -0.1975
17697SOL     OW65563   1.232   0.408   2.050  0.4682  0.1750 -0.1660
17697SOL    HW165564   1.177   0.472   2.105  1.8033  1.5511 -0.3954
17697SOL    HW265565   1.224   0.432   1.953  2.5481  1.2848 -0.0987
17698SOL     OW65566   8.078   1.173   6.646  0.6830 -0.4059 -0.0163
17698SOL    HW165567   8.094   1.271   6.639  2.6525 -0.7766 -1.0163
17698SOL    HW265568   8.122   1.138   6.729 -1.7498 -0.1358  1.4425
17699SOL     OW65569   8.970   2.332   6.037  0.4372 -0.3937 -0.0397
17699SOL    HW165570   9.019   2.245   6.034  0.1137 -0.6673  1.8328
17699SOL    HW265571   8.952   2.357   6.132 -1.9197  0.3285 -0.6309
17700SOL     OW65572   3.394   0.637   5.356 -0.3488 -0.4743 -0.1533
17700SOL    HW165573   3.380   0.542   5.383  0.4874 -0.5327  0.0825
17700SOL    HW265574   3.306   0.678   5.331 -0.9819 -0.7531  1.5615
17701SOL     OW65575   2.169   2.242   0.067 -0.5234 -0.1523  0.1908
17701SOL    HW165576   2.080   2.281   0.091 -0.7613 -0.6953  0.1955
17701SOL    HW265577   2.212   2.298  -0.004 -0.6513  0.3885  0.5310
17702SOL     OW65578   4.589   2.525   0.976  0.2364  0.5074 -0.6176
17702SOL    HW165579   4.639   2.460   1.033  1.2855 -1.5506 -3.7431
17702SOL    HW265580   4.650   2.601   0.951  1.0969 -0.7195 -2.3571
17703SOL     OW65581   8.673   5.852   6.883 -0.6707  0.3571  0.8162
17703SOL    HW165582   8.664   5.918   6.808 -1.0340 -0.2082  0.3593
17703SOL    HW265583   8.668   5.759   6.846  0.6181  0.0605  1.3530
17704SOL     OW65584   6.133   8.813   3.826  0.0594  0.1509 -0.0876
17704SOL    HW165585   6.125   8.891   3.763  0.9434  1.1660  1.0180
17704SOL    HW265586   6.224   8.814   3.867 -1.0322  0.4401  2.3999
17705SOL     OW65587   2.315   4.031   2.827  0.2664 -0.3081 -0.0155
17705SOL    HW165588   2.368   4.096   2.882 -0.5908  0.5890 -0.2528
17705SOL    HW265589   2.285   4.075   2.743 -0.3522 -0.9952 -0.1582
17706SOL     OW65590   0.130   6.781   0.296  0.6952  0.0416  0.0277
17706SOL    HW165591   0.097   6.741   0.210 -0.2384 -1.1118  0.9032
17706SOL    HW265592   0.163   6.707   0.356  1.3115  0.8367  0.6835
17707SOL     OW65593   6.889   7.509   2.150  0.1112 -0.3472 -0.3823
17707SOL    HW165594   6.795   7.538   2.131 -0.0463 -0.0908  0.8027
17707SOL    HW265595   6.951   7.556   2.087 -0.6555 -1.3396 -1.9042
17708SOL     OW65596   8.610   1.093   8.326  0.3462 -0.2486  0.3592
17708SOL    HW165597   8.534   1.158   8.337 -0.0113 -0.8286  1.4691
17708SOL    HW265598   8.663   1.117   8.245 -0.8206  0.3743 -0.2365
17709SOL     OW65599   0.262   6.046   0.727 -0.2723  0.3076 -0.1579
17709SOL    HW165600   0.352   6.011   0.752 -0.5279 -0.0897  0.2116
17709SOL    HW265601   0.243   6.130   0.778 -0.2233  0.2457 -0.0386
17710SOL     OW65602   2.579   3.966   4.711  0.4787  0.0119 -0.1680
17710SOL    HW165603   2.642   4.020   4.657  0.6151  1.0840  1.0520
17710SOL    HW265604   2.630   3.906   4.773  0.3116 -0.5018 -0.5200
17711SOL     OW65605   8.474   4.862   3.578 -0.4610 -0.1480 -0.0038
17711SOL    HW165606   8.419   4.905   3.649 -1.3998 -3.2621  1.2167
17711SOL    HW265607   8.455   4.907   3.490 -1.4299  1.8439  1.1897
17712SOL     OW65608   0.615   1.480   0.205 -0.3255  0.6265 -0.9159
17712SOL    HW165609   0.534   1.431   0.239 -0.0397  0.7387 -0.0624
17712SOL    HW265610   0.593   1.577   0.193 -0.1263  0.7783 -0.0472
17713SOL     OW65611   6.480   8.402   6.729  0.7033 -0.5628  0.3376
17713SOL    HW165612   6.529   8.489   6.730  0.5560 -0.4888  1.4591
17713SOL    HW265613   6.461   8.373   6.823 -1.2442 -0.6754 -0.0725
17714SOL     OW65614   0.681   8.766   0.817 -0.7985 -0.5794  0.2665
17714SOL    HW165615   0.738   8.847   0.829 -1.3962 -0.3630  1.8198
17714SOL    HW265616   0.728   8.699   0.761  1.1842 -0.6038  1.9051
17715SOL     OW65617   0.843   0.107   8.416 -0.9179  0.8069 -0.3355
17715SOL    HW165618   0.778   0.093   8.341 -0.2480 -0.6822 -0.6476
17715SOL    HW265619   0.800   0.078   8.502 -1.1964  1.2523 -0.3175
17716SOL     OW65620   2.013   0.389   8.778 -0.2408  0.2667  0.0759
17716SOL    HW165621   2.113   0.388   8.769 -0.2149  1.4837  0.1043
17716SOL    HW265622   1.988   0.433   8.865 -0.7796 -1.0783  0.6161
17717SOL     OW65623   1.920   7.404   4.224 -0.5867 -0.1093  0.3524
17717SOL    HW165624   1.955   7.358   4.143 -1.3384  0.2238 -0.1721
17717SOL    HW265625   1.986   7.473   4.255  0.8887 -2.0264  1.5920
17718SOL     OW65626   3.830   2.446   7.916  0.1088 -0.4666 -0.3878
17718SOL    HW165627   3.894   2.369   7.919 -0.0634 -0.6946 -2.2082
17718SOL    HW265628   3.877   2.528   7.882  0.0252 -0.0185  0.5497
17719SOL     OW65629   3.558   2.137   0.451  0.1681 -0.4347  0.3482
17719SOL    HW165630   3.577   2.041   0.471  1.2263 -0.4696 -0.7718
17719SOL    HW265631   3.468   2.145   0.407 -0.5812 -0.7358  1.8015
17720SOL     OW65632   4.123   5.939   1.740  0.3891  0.0573  0.2542
17720SOL    HW165633   4.185   5.995   1.685 -0.0890  0.7460  0.4136
17720SOL    HW265634   4.047   5.908   1.683 -0.1146  0.7845  0.5199
17721SOL     OW65635   2.931   2.715   5.181 -0.7518 -0.0159  0.3470
17721SOL    HW165636   2.954   2.759   5.094 -0.8032  1.1175  0.8951
17721SOL    HW265637   3.008   2.660   5.213 -0.6312 -0.2104 -0.2827
17722SOL     OW65638   4.303   2.608   0.965 -0.6313 -0.5725 -0.8036
17722SOL    HW165639   4.387   2.570   1.005 -1.0988  0.1286  0.8774
17722SOL    HW265640   4.325   2.652   0.878  0.7978 -0.2059 -0.2750
17723SOL     OW65641   2.039   6.524   2.595 -0.8312  0.5618 -0.0989
17723SOL    HW165642   2.110   6.585   2.631 -0.2326 -0.4529  0.4630
17723SOL    HW265643   1.949   6.556   2.626 -0.6547  1.9998 -1.0315
17724SOL     OW65644   7.783   6.093   7.306 -0.2021  0.8440  0.7407
17724SOL    HW165645   7.855   6.138   7.358  0.3233 -1.1333  1.7597
17724SOL    HW265646   7.736   6.026   7.365 -1.9036  1.0579 -0.3274
17725SOL     OW65647   0.348   2.531   7.021 -0.1782 -0.3901 -0.1959
17725SOL    HW165648   0.303   2.524   6.932  1.7181  3.0196 -1.5119
17725SOL    HW265649   0.410   2.453   7.033  0.4174 -0.2760 -2.3584
17726SOL     OW65650   6.061   6.571   7.331 -0.0116  0.5889 -0.0302
17726SOL    HW165651   6.137   6.591   7.394 -0.9386  1.5773  0.8021
17726SOL    HW265652   6.061   6.638   7.257  0.0073  0.5047 -0.1061
17727SOL     OW65653   3.411   7.022   8.791 -0.3032  0.3062 -0.1616
17727SOL    HW165654   3.462   7.098   8.830 -0.2059 -0.2161  0.7569
17727SOL    HW265655   3.337   7.057   8.734 -0.4993  1.0884  0.5638
17728SOL     OW65656   2.799   2.594   7.602  0.2699  0.2350  0.9759
17728SOL    HW165657   2.711   2.553   7.578 -0.0454  0.3842  1.8407
17728SOL    HW265658   2.854   2.527   7.652  0.7662  0.0499  0.1899
17729SOL     OW65659   5.064   2.575   0.245  0.2424 -0.7812 -0.2450
17729SOL    HW165660   5.145   2.551   0.191  1.1557 -0.5421  1.0068
17729SOL    HW265661   5.015   2.650   0.201  1.8065  0.4133  0.0272
17730SOL     OW65662   8.352   1.267   8.662  0.2679  0.2826 -0.0163
17730SOL    HW165663   8.373   1.278   8.565  1.4472  2.2904  0.4248
17730SOL    HW265664   8.437   1.245   8.711 -0.5026 -1.7684  0.4264
17731SOL     OW65665   1.933   3.873   1.333  0.1056 -0.7441  0.2527
17731SOL    HW165666   1.891   3.958   1.303  1.5077  0.8911  2.7449
17731SOL    HW265667   1.938   3.809   1.256  1.0317  2.2199 -2.2560
17732SOL     OW65668   3.866   6.841   4.224 -0.1274 -0.0117  0.3410
17732SOL    HW165669   3.911   6.879   4.304  0.1840 -0.8334  0.5582
17732SOL    HW265670   3.918   6.863   4.141 -1.0914  1.8937  0.2060
17733SOL     OW65671   8.860   6.105   5.668  0.4135  0.0809  0.1073
17733SOL    HW165672   8.842   6.015   5.708 -0.3766  0.4677  0.6273
17733SOL    HW265673   8.924   6.095   5.592  0.2921 -0.9268  0.1297
17734SOL     OW65674   5.953   0.363   7.308 -0.1336 -0.3853  0.4654
17734SOL    HW165675   5.947   0.316   7.220 -0.5850 -1.8206  1.2405
17734SOL    HW265676   5.925   0.458   7.298 -0.1441 -0.5382 -0.9477
17735SOL     OW65677   8.265   4.684   5.386 -0.1551 -0.4167  0.6440
17735SOL    HW165678   8.311   4.773   5.387 -1.7069  0.4008  0.5571
17735SOL    HW265679   8.260   4.650   5.292 -0.2904 -0.2092  0.5760
17736SOL     OW65680   3.898   7.653   5.475  0.1188 -0.3373  0.0813
17736SOL    HW165681   3.819   7.710   5.497 -0.3331 -0.9741  0.1347
17736SOL    HW265682   3.867   7.566   5.435  0.7246 -1.1665  1.3677
17737SOL     OW65683   1.259   5.439   5.544 -0.3121 -0.1385  0.6553
17737SOL    HW165684   1.343   5.490   5.527  0.7654 -1.5649  1.6008
17737SOL    HW265685   1.263   5.351   5.496 -1.0028 -0.4701  1.1893
17738SOL     OW65686   2.364   6.601   6.558 -0.2508  0.2425 -0.1103
17738SOL    HW165687   2.407   6.614   6.647  0.9231  2.0487 -0.9244
17738SOL    HW265688   2.265   6.603   6.569 -0.1179  0.9336  1.0909
17739SOL     OW65689   6.310   5.496   6.658  0.1152 -0.0819  0.0830
17739SOL    HW165690   6.249   5.427   6.618  0.9698 -0.6532 -0.2317
17739SOL    HW265691   6.278   5.588   6.632 -0.8244 -0.3566  0.2259
17740SOL     OW65692   4.496   8.513   0.523  0.8878 -0.1451  0.2360
17740SOL    HW165693   4.462   8.543   0.435  0.5604 -0.7907  0.1363
17740SOL    HW265694   4.584   8.466   0.510  0.3409 -1.1521  0.1217
17741SOL     OW65695   6.272   1.461   7.003  0.2174  0.2148 -0.3706
17741SOL    HW165696   6.184   1.439   6.960 -0.3889 -0.1500  1.0511
17741SOL    HW265697   6.326   1.377   7.012  0.5001  0.3531 -0.7422
17742SOL     OW65698   4.425   4.693   2.527 -0.2946 -0.2799 -0.3948
17742SOL    HW165699   4.422   4.704   2.626  1.7886 -1.8433 -0.1129
17742SOL    HW265700   4.334   4.712   2.488 -1.3636 -0.5362  1.8916
17743SOL     OW65701   2.723   4.222   4.236  0.4475 -0.0583  0.6810
17743SOL    HW165702   2.634   4.182   4.260  1.2850 -3.3900 -1.3770
17743SOL    HW265703   2.790   4.199   4.307  0.5985 -1.1321  0.1984
17744SOL     OW65704   1.183   4.989   6.819  0.1902  0.0280  0.1633
17744SOL    HW165705   1.175   5.021   6.914 -1.3352  0.1135  0.0144
17744SOL    HW265706   1.262   5.032   6.776 -0.3102  1.5881  0.7795
17745SOL     OW65707   4.865   6.937   3.550 -0.0117  0.7498  0.1634
17745SOL    HW165708   4.962   6.947   3.528 -0.5224  1.1116 -2.0765
17745SOL    HW265709   4.811   6.990   3.484 -1.7774 -0.5496  0.5485
17746SOL     OW65710   5.969   6.104   5.501  0.2126 -0.4021  0.2784
17746SOL    HW165711   6.052   6.060   5.536 -0.9634 -0.9566  2.5121
17746SOL    HW265712   5.931   6.165   5.571 -0.2927  1.2308 -1.3743
17747SOL     OW65713   8.763   3.245   0.253 -0.4402  0.2383  0.2667
17747SOL    HW165714   8.836   3.209   0.311  0.2570  0.6387 -0.3608
17747SOL    HW265715   8.704   3.170   0.222 -0.8937  0.0347  1.5828
17748SOL     OW65716   2.695   3.256   4.206 -0.9630  0.3672  0.0970
17748SOL    HW165717   2.765   3.326   4.193 -0.3198 -0.5725 -1.6321
17748SOL    HW265718   2.607   3.290   4.172 -0.3765 -0.1179 -1.9978
17749SOL     OW65719   7.207   7.684   7.980  0.5653  0.3416  0.3354
17749SOL    HW165720   7.206   7.587   7.954 -1.0542  0.1554  1.0286
17749SOL    HW265721   7.253   7.694   8.068 -0.6452 -0.0126  1.0175
17750SOL     OW65722   4.445   0.170   6.904  0.4924  0.2103 -0.1237
17750SOL    HW165723   4.535   0.180   6.860  0.3030  0.3289 -0.4803
17750SOL    HW265724   4.379   0.231   6.861 -0.3404 -1.5493 -1.4184
17751SOL     OW65725   4.021   8.024   1.871 -0.0367  0.0713 -0.4891
17751SOL    HW165726   3.937   7.986   1.910  0.6300  0.4458  1.3611
17751SOL    HW265727   4.024   8.004   1.772 -2.9745  1.3353 -0.8772
17752SOL     OW65728   3.999   7.226   4.039 -0.3334  0.2632 -0.4016
17752SOL    HW165729   4.080   7.264   4.084 -1.3467 -0.0314  1.7307
17752SOL    HW265730   3.952   7.298   3.988  0.1003  0.9147  0.1155
17753SOL     OW65731   3.578   3.056   0.370  0.6711  0.0305 -0.3388
17753SOL    HW165732   3.637   2.975   0.369  0.0918 -0.3908 -1.3228
17753SOL    HW265733   3.489   3.030   0.408  0.0850 -0.0962 -1.7506
17754SOL     OW65734   7.110   4.579   1.473  0.2042 -0.5029 -0.0432
17754SOL    HW165735   7.188   4.541   1.522  1.4019  0.6918 -0.9651
17754SOL    HW265736   7.059   4.505   1.429  0.8318 -1.2921  0.5401
17755SOL     OW65737   7.527   7.993   5.649 -0.3951 -0.4615 -0.1132
17755SOL    HW165738   7.566   7.952   5.731  1.6468 -0.1050 -0.8823
17755SOL    HW265739   7.504   8.089   5.668  2.5773  0.4205 -0.6746
17756SOL     OW65740   5.754   8.554   4.913 -0.8800 -0.4233  0.0240
17756SOL    HW165741   5.817   8.478   4.895 -1.6526 -1.0193 -0.1828
17756SOL    HW265742   5.675   8.521   4.964 -0.5413  0.5235  1.1715
17757SOL     OW65743   4.723   2.762   0.802  0.2888  0.4592  0.0224
17757SOL    HW165744   4.698   2.718   0.716  0.2904  0.9267 -0.2185
17757SOL    HW265745   4.709   2.861   0.794 -0.6524  0.4118  0.8802
17758SOL     OW65746   0.317   7.493   1.038  0.6020  0.2571 -0.4307
17758SOL    HW165747   0.397   7.553   1.047  0.9438 -0.2284 -0.2480
17758SOL    HW265748   0.234   7.549   1.031  1.1285  0.8451 -2.5870
17759SOL     OW65749   7.572   1.461   3.789 -0.5141 -0.1168  0.4298
17759SOL    HW165750   7.506   1.537   3.786  0.6865  0.8982 -0.5323
17759SOL    HW265751   7.664   1.497   3.796  0.2072 -1.4374 -1.8034
17760SOL     OW65752   4.820   6.389   1.181 -0.8974  0.0435 -0.1741
17760SOL    HW165753   4.788   6.381   1.276 -2.1253 -2.4248 -0.7593
17760SOL    HW265754   4.913   6.353   1.175 -1.3730 -1.2114 -0.1737
17761SOL     OW65755   6.718   7.936   0.876  0.0727 -0.5886 -0.1020
17761SOL    HW165756   6.818   7.925   0.869 -0.2286 -3.5647 -0.1685
17761SOL    HW265757   6.677   7.920   0.787 -0.6295 -1.2600  0.3401
17762SOL     OW65758   1.151   5.436   0.678  0.4132 -0.1005 -0.2362
17762SOL    HW165759   1.057   5.469   0.674 -0.0708 -1.5000 -0.4894
17762SOL    HW265760   1.208   5.493   0.619  0.0703  1.7928  1.1779
17763SOL     OW65761   5.062   1.201   6.947 -0.6601  0.0685  0.2861
17763SOL    HW165762   4.984   1.186   7.008 -0.5357 -2.0286 -0.0510
17763SOL    HW265763   5.033   1.187   6.853  0.1741 -0.8936  0.1715
17764SOL     OW65764   5.405   0.617   2.351  0.3179 -0.8161 -0.8749
17764SOL    HW165765   5.433   0.687   2.285  2.3245  0.5242  1.3038
17764SOL    HW265766   5.452   0.531   2.331 -1.4957 -1.3309 -3.0475
17765SOL     OW65767   0.796   5.423   1.412  0.3789 -0.4910  0.2249
17765SOL    HW165768   0.724   5.492   1.416  1.3474  0.5785 -0.3809
17765SOL    HW265769   0.804   5.388   1.319  1.9176  0.8191 -0.1711
   9.00000   9.00000   9.00000
